<LesHouchesEvents version="3.0">
  <!--
  <scalesfunctionalform>
    muR  H_T/2 := sum_i mT(i)/2, i=final state
    muF1 H_T/2 := sum_i mT(i)/2, i=final state
    muF2 H_T/2 := sum_i mT(i)/2, i=final state
    QES  H_T/2 := sum_i mT(i)/2, i=final state
  </scalesfunctionalform>
HERWIG6   
  -->
  <header>
      908
  </header>
  <init>
   2212   2212 0.65000000D+04 0.65000000D+04 -1 -1   247000   247000 -3   1
 0.39742631D+00 0.15088168D-02 0.48098993D-03     66
  </init>
  <event>
  4     66 0.48098993E-03 0.10476430E+03 0.75467711E-02 0.11121778E+00
        2 -1    0    0  501    0 0.00000000E+00 0.00000000E+00 0.24949317E+04 0.24949318E+04 0.32000000E+00 0.0000E+00 0.9000E+01
       -1 -1    0    0    0  501 0.00000000E+00 0.00000000E+00 -.48121339E+01 0.48227619E+01 0.32000000E+00 0.0000E+00 0.9000E+01
       25  1    1    2    0    0 -.13787233E+02 0.14728530E+02 0.11213002E+04 0.11284264E+04 0.12500000E+03 0.0000E+00 0.9000E+01
       24  1    1    2    0    0 0.13787233E+02 -.14728530E+02 0.13688194E+04 0.13713281E+04 0.80419002E+02 0.0000E+00 0.9000E+01
#aMCatNLO 1  0  0  2  1 0.20847952D+03 0.00000000D+00  -5  5  0 0.00000000D+00 0.00000000D+00 0.00000000D+00 0.00000000D+00 0.00000000D+00
  <mgrwgt>
 0.7487412685D+00    3    2    0
 0.109632362178654D+03 0.000000000000000D+00 0.000000000000000D+00 0.109632362178654D+03
 0.109632362178654D+03 0.000000000000000D+00 0.000000000000000D+00 -.109632362178654D+03
 0.130515301904759D+03 -.137872332090591D+02 0.147285297659102D+02 -.316579633372746D+02
 0.887494224525492D+02 0.137872332090591D+02 -.147285297659102D+02 0.316579633372746D+02
 0.000000000000000D+00 0.000000000000000D+00 -.000000000000000D+00 0.000000000000000D+00
 0.278515682262182D+03 0.000000000000000D+00 0.000000000000000D+00 0.278515682262182D+03
 0.236677485574563D+03 0.000000000000000D+00 0.000000000000000D+00 -.236677485574563D+03
 0.197953462741201D+03 -.623188552360605D+02 0.136655431837284D+03 -.316579633372746D+02
 0.104603523932450D+03 -.147808777401755D+02 0.570436698966834D+02 0.316579633372746D+02
 0.212636181163095D+03 0.770997329762360D+02 -.193699101733967D+03 0.418381966876186D+02
0.562742756644D-03 0.000000000000D+00 0.000000000000D+00 0.281062855408D-02 0.000000000000D+00  5 2 -1 25 24 21 0 0.38383647D+00 0.74114741D-03 0.10975559D+05 0.10975559D+05 0.10975559D+05 0.12635916D+01  1  2  2  2  5  2       -1 0.733298189738D+00 0.100000000000D+01
-.311850705243D-04 0.000000000000D+00 -.216108035908D-05 0.281062855408D-02 0.000000000000D+00  5 2 -1 25 24 21 2 0.38383647D+00 0.74114741D-03 0.10975559D+05 0.10975559D+05 0.10975559D+05 0.12635916D+01  1  2  3  2  5  2       -1 -.648829981879D-01 0.100000000000D+01
0.386075619702D-04 0.000000000000D+00 0.000000000000D+00 0.281062855408D-02 0.000000000000D+00  5 2 -1 25 24 21 2 0.38383647D+00 0.74114741D-03 0.10975559D+05 0.10975559D+05 0.10975559D+05 0.12635916D+01  1  2 15  2  5  2       -1 0.803260769093D-01 0.100000000000D+01
  </mgrwgt>
  </event>
  <event>
  5     66 0.48098993E-03 0.11078260E+03 0.75467711E-02 0.11950425E+00
        2 -1    0    0  502    0 0.00000000E+00 0.00000000E+00 0.11625887E+04 0.11625887E+04 0.32000000E+00 0.0000E+00 0.9000E+01
       -1 -1    0    0    0  501 0.00000000E+00 0.00000000E+00 -.24524784E+03 0.24524805E+03 0.32000000E+00 0.0000E+00 0.9000E+01
       25  1    1    2    0    0 -.15733374E+02 0.41569872E+02 -.16604739E+03 0.21253783E+03 0.12500000E+03 0.0000E+00 0.9000E+01
       24  1    1    2    0    0 -.57043645E+02 -.24400583E+02 -.75033915E+01 0.10184735E+03 0.80419002E+02 0.0000E+00 0.9000E+01
       21  1    1    2  502  501 0.72777019E+02 -.17169289E+02 0.10908916E+04 0.10934516E+04 0.75000000E+00 0.0000E+00 0.9000E+01
#aMCatNLO 2  0  0  1  2 0.74774855D+02 0.00000000D+00  -5  5  0 0.00000000D+00 0.00000000D+00 0.00000000D+00 0.00000000D+00 0.00000000D+00
  <mgrwgt>
 0.1093079755D+01    2    2    0
 0.125625324627194D+03 0.000000000000000D+00 0.000000000000000D+00 0.125625324627194D+03
 0.125625324627194D+03 0.000000000000000D+00 0.000000000000000D+00 -.125625324627194D+03
 0.143849723395528D+03 0.252080467774983D+02 0.319111212464753D+02 -.584292532848571D+02
 0.107400925858860D+03 -.252080467774983D+02 -.319111212464753D+02 0.584292532848571D+02
 0.000000000000000D+00 0.000000000000000D+00 -.000000000000000D+00 0.000000000000000D+00
 0.216397861135946D+04 0.000000000000000D+00 0.000000000000000D+00 0.216397861135946D+04
 0.131758347766034D+03 0.000000000000000D+00 0.000000000000000D+00 -.131758347766034D+03
 0.144964033284574D+03 -.157333740026630D+02 0.415698718929644D+02 -.584292532848571D+02
 0.117177469839608D+03 -.570436445762856D+02 -.244005831420087D+02 0.584292532848571D+02
 0.203359545600131D+04 0.727770185789485D+02 -.171692887509557D+02 0.203222026359342D+04
-.119085333561D-01 0.000000000000D+00 0.000000000000D+00 0.217633254316D-02 0.000000000000D+00  5 2 -1 25 24 21 2 0.17191697D+00 0.35974179D-01 0.23872206D+05 0.23872206D+05 0.23872206D+05 0.12254528D+01  1  2 13  1  5  1        2 -.352095075043D+00 0.100000000000D+01
0.563170235592D-01 0.000000000000D+00 0.000000000000D+00 0.217633254316D-02 0.295041845336D-04  5 2 -1 25 24 21 2 0.17885973D+00 0.37730436D-01 0.23872206D+05 0.23872206D+05 0.23872206D+05 0.12254528D+01  1  2  1  1  5  1        2 0.144517483044D+01 0.100000000000D+01
  </mgrwgt>
  </event>
  <event>
  5     66 -.48098993E-03 0.12433341E+03 0.75467711E-02 0.12071780E+00
        2 -1    0    0  501    0 0.00000000E+00 0.00000000E+00 0.29162131E+04 0.29162131E+04 0.32000000E+00 0.0000E+00 0.9000E+01
       -1 -1    0    0    0  502 0.00000000E+00 0.00000000E+00 -.78955255E+01 0.79020075E+01 0.32000000E+00 0.0000E+00 0.9000E+01
       25  1    1    2    0    0 -.64405824E+02 0.64496157E+02 0.19529565E+04 0.19590742E+04 0.12500000E+03 0.0000E+00 0.9000E+01
       24  1    1    2    0    0 0.40114873E+02 -.35035752E+02 0.61072324E+03 0.61829346E+03 0.80419002E+02 0.0000E+00 0.9000E+01
       21  1    1    2  501  502 0.24290951E+02 -.29460405E+02 0.34463784E+03 0.34674742E+03 0.75000000E+00 0.0000E+00 0.9000E+01
#aMCatNLO 2  0  0  2  1 0.38183318D+02 0.00000000D+00  -5  5  0 0.00000000D+00 0.00000000D+00 0.00000000D+00 0.00000000D+00 0.00000000D+00
  <mgrwgt>
 -.8773751111D-01    2    2    0
 0.131256020284986D+03 0.000000000000000D+00 0.000000000000000D+00 0.131256020284986D+03
 0.131256020284986D+03 0.000000000000000D+00 0.000000000000000D+00 -.131256020284986D+03
 0.148698618395430D+03 -.501885316682852D+02 0.472532258192019D+02 0.416476055898877D+02
 0.113813422174541D+03 0.501885316682852D+02 -.472532258192019D+02 -.416476055898877D+02
 0.000000000000000D+00 0.000000000000000D+00 -.000000000000000D+00 -.000000000000000D+00
 0.150471081820694D+03 0.000000000000000D+00 0.000000000000000D+00 0.150471081820694D+03
 0.153075404548130D+03 0.000000000000000D+00 0.000000000000000D+00 -.153075404548130D+03
 0.160210447564322D+03 -.644058241015459D+02 0.644961570885458D+02 0.416476055898877D+02
 0.105064008847143D+03 0.401148731493682D+02 -.350357517616124D+02 -.416476055898877D+02
 0.382720299573585D+02 0.242909509521777D+02 -.294604053269333D+02 -.260432272743663D+01
-.270042001511D-03 0.000000000000D+00 0.000000000000D+00 0.237132142875D-02 0.000000000000D+00  5 2 -1 25 24 21 2 0.39134704D+00 0.12800641D-02 0.20929795D+05 0.20929795D+05 0.20929795D+05 0.12316593D+01  1  2 13  2  5  2       -1 -.232586551086D+00 0.100000000000D+01
0.250907052251D-03 0.000000000000D+00 0.000000000000D+00 0.237132142875D-02 0.133824842361D-04  5 2 -1 25 24 21 2 0.44863780D+00 0.12151668D-02 0.20929795D+05 0.20929795D+05 0.20929795D+05 0.12316593D+01  1  2  1  2  5  2       -1 0.144849039979D+00 0.100000000000D+01
  </mgrwgt>
  </event>
  <event>
  4     66 0.48098993E-03 0.89101343E+02 0.75467711E-02 0.11386998E+00
        2 -1    0    0  501    0 0.00000000E+00 0.00000000E+00 0.21448425E+03 0.21448449E+03 0.32000000E+00 0.0000E+00 0.9000E+01
       -1 -1    0    0    0  501 0.00000000E+00 0.00000000E+00 -.15060733E+03 0.15060767E+03 0.32000000E+00 0.0000E+00 0.9000E+01
       25  1    1    2    0    0 -.11982696E+03 0.64631161E+02 -.20337160E+02 0.18594163E+03 0.12500000E+03 0.0000E+00 0.9000E+01
       24  1    1    2    0    0 0.11982696E+03 -.64631161E+02 0.84214081E+02 0.17915054E+03 0.80419002E+02 0.0000E+00 0.9000E+01
#aMCatNLO 1  0  0  2  1 0.76488780D+02 0.00000000D+00  -5  5  0 0.00000000D+00 0.00000000D+00 0.00000000D+00 0.00000000D+00 0.00000000D+00
  <mgrwgt>
 0.3713363519D+00    9    2    0
 0.179730373144063D+03 0.000000000000000D+00 0.000000000000000D+00 0.179730373144063D+03
 0.179730373144063D+03 0.000000000000000D+00 0.000000000000000D+00 -.179730373144063D+03
 0.192468598583412D+03 -.119826963957462D+03 0.646311611151032D+02 -.536979809891706D+02
 0.166992147704715D+03 0.119826963957462D+03 -.646311611151032D+02 0.536979809891706D+02
 0.000000000000000D+00 0.000000000000000D+00 -.000000000000000D+00 -.000000000000000D+00
 0.218652754646320D+03 0.000000000000000D+00 0.000000000000000D+00 0.218652754646320D+03
 0.225665407336381D+03 0.000000000000000D+00 0.000000000000000D+00 -.225665407336381D+03
 0.217594542246421D+03 -.132868983915397D+03 0.105757953679173D+03 -.536979809891706D+02
 0.149914044882487D+03 0.109747792052005D+03 -.328474333252129D+02 0.536979809891706D+02
 0.768095748537926D+02 0.231211918633918D+02 -.729105203539597D+02 -.701265269006104D+01
0.963485905095D-03 0.000000000000D+00 0.000000000000D+00 0.204764804048D-02 0.000000000000D+00  5 2 -1 25 24 21 0 0.32997622D-01 0.23170403D-01 0.29403533D+05 0.29403533D+05 0.29403533D+05 0.12158148D+01  1  2  2  2  5  2       -1 0.268399031688D+00 0.100000000000D+01
-.533830916085D-04 0.000000000000D+00 -.370003956723D-05 0.204764804048D-02 0.000000000000D+00  5 2 -1 25 24 21 2 0.32997622D-01 0.23170403D-01 0.29403533D+05 0.29403533D+05 0.29403533D+05 0.12158148D+01  1  2  3  2  5  2       -1 -.219823532595D-01 0.100000000000D+01
0.663963093168D-04 0.000000000000D+00 0.000000000000D+00 0.204764804048D-02 0.000000000000D+00  5 2 -1 25 24 21 2 0.32997622D-01 0.23170403D-01 0.29403533D+05 0.29403533D+05 0.29403533D+05 0.12158148D+01  1  2 15  2  5  2       -1 0.273410003533D-01 0.100000000000D+01
0.313352246598D-03 0.000000000000D+00 0.000000000000D+00 0.204764804048D-02 0.000000000000D+00  5 2 -1 25 24 21 2 0.32997622D-01 0.31044059D-01 0.45650683D+05 0.45650683D+05 0.45650683D+05 0.11962159D+01  1  2 12  2  5  2       -1 0.771219961743D-01 0.100000000000D+01
-.375220065661D-03 0.000000000000D+00 0.000000000000D+00 0.204764804048D-02 0.000000000000D+00  5 2 -1 25 24 21 2 0.32997622D-01 0.23170403D-01 0.29403533D+05 0.29403533D+05 0.29403533D+05 0.12158148D+01  1  2  4  2  5  2       -1 -.154509972819D+00 0.100000000000D+01
-.718861517985D-03 0.000000000000D+00 -.363988614926D-03 0.204764804048D-02 0.000000000000D+00  5 2 -1 25 24 21 2 0.32997622D-01 0.34981785D-01 0.29403533D+05 0.29403533D+05 0.29403533D+05 0.12158148D+01  1  2  5  2  5  2       -1 -.148194432506D+00 0.100000000000D+01
0.826520163469D-03 0.000000000000D+00 0.335146290847D-03 0.204764804048D-02 0.000000000000D+00  5 2 -1 25 24 21 2 0.32997622D-01 0.23170403D-01 0.29403533D+05 0.29403533D+05 0.29403533D+05 0.12158148D+01  1  2  6  2  5  2       -1 0.340348557231D+00 0.100000000000D+01
0.118938786599D-04 0.000000000000D+00 0.000000000000D+00 0.204764804048D-02 0.000000000000D+00  5 2 21 25 24 1 2 0.32997622D-01 0.31044059D-01 0.45650683D+05 0.45650683D+05 0.45650683D+05 0.11962159D+01  1  2 12  4  5  2       -1 0.329263942386D-01 0.100000000000D+01
-.220425632775D-04 0.000000000000D+00 -.177054618012D-04 0.204764804048D-02 0.000000000000D+00  5 2 21 25 24 1 2 0.32997622D-01 0.34981785D-01 0.29403533D+05 0.29403533D+05 0.29403533D+05 0.12158148D+01  1  2  5  4  5  2       -1 -.501138692344D-01 0.100000000000D+01
  </mgrwgt>
  </event>
  <event>
  4     66 0.48098993E-03 0.10367603E+03 0.75467711E-02 0.11678613E+00
        4 -1    0    0  501    0 0.00000000E+00 0.00000000E+00 0.11015051E+03 0.11016142E+03 0.15500000E+01 0.0000E+00 0.9000E+01
       -3 -1    0    0    0  501 0.00000000E+00 0.00000000E+00 -.10059546E+03 0.10059670E+03 0.50000000E+00 0.0000E+00 0.9000E+01
       25  1    1    2    0    0 -.78849772E+01 0.11317379E+02 -.12101559E+02 0.12633964E+03 0.12500000E+03 0.0000E+00 0.9000E+01
       24  1    1    2    0    0 0.78849772E+01 -.11317379E+02 0.21656614E+02 0.84418486E+02 0.80419002E+02 0.0000E+00 0.9000E+01
#aMCatNLO 1  0  0  2  1 0.12020112D+03 0.00000000D+00  -5  5  0 0.00000000D+00 0.00000000D+00 0.00000000D+00 0.00000000D+00 0.00000000D+00
  <mgrwgt>
 0.4924658391D-01    5    2    0
 0.105270707028319D+03 0.000000000000000D+00 0.000000000000000D+00 0.105270707028319D+03
 0.105270707028319D+03 0.000000000000000D+00 0.000000000000000D+00 -.105270707028319D+03
 0.127018884427673D+03 -.788497719335658D+01 0.113173790383941D+02 -.178477188349714D+02
 0.835225296289640D+02 0.788497719335658D+01 -.113173790383941D+02 0.178477188349714D+02
 0.000000000000000D+00 0.000000000000000D+00 0.000000000000000D+00 -.000000000000000D+00
 0.162975265755672D+03 0.000000000000000D+00 0.000000000000000D+00 0.162975265755672D+03
 0.207722243149371D+03 0.000000000000000D+00 0.000000000000000D+00 -.207722243149371D+03
 0.145814619068459D+03 -.648417545055682D+02 -.333752743675221D+02 -.178477188349714D+02
 0.966229935910077D+02 -.297222386300374D+02 -.408268832918251D+02 0.178477188349714D+02
 0.128259896245575D+03 0.945639931356056D+02 0.742021576593472D+02 -.447469773936990D+02
0.227430688191D-03 0.000000000000D+00 0.000000000000D+00 0.307924929159D-02 0.000000000000D+00  5 4 -3 25 24 21 0 0.16947167D-01 0.15477159D-01 0.10748719D+05 0.10748719D+05 0.10748719D+05 0.12646680D+01  1  2  2  2  5  2       -3 0.445302070126D-01 0.100000000000D+01
-.126314588265D-04 0.000000000000D+00 -.873393726529D-06 0.307924929159D-02 0.000000000000D+00  5 4 -3 25 24 21 2 0.16947167D-01 0.15477159D-01 0.10748719D+05 0.10748719D+05 0.10748719D+05 0.12646680D+01  1  2  3  2  5  2       -3 -.395559876658D-02 0.100000000000D+01
0.156179452432D-04 0.000000000000D+00 0.000000000000D+00 0.307924929159D-02 0.000000000000D+00  5 4 -3 25 24 21 2 0.16947167D-01 0.15477159D-01 0.10748719D+05 0.10748719D+05 0.10748719D+05 0.12646680D+01  1  2 15  2  5  2       -3 0.489083056745D-02 0.100000000000D+01
0.454210897515D-05 0.000000000000D+00 -.670598069979D-04 0.307924929159D-02 0.000000000000D+00  5 4 -3 25 24 21 2 0.16947167D-01 0.45858057D-01 0.10748719D+05 0.10748719D+05 0.10748719D+05 0.12646680D+01  1  2  5  2  5  2       -3 0.197727541902D-03 0.100000000000D+01
0.399056088305D-05 0.000000000000D+00 -.826811754325D-05 0.307924929159D-02 0.000000000000D+00  5 4 21 25 24 3 2 0.16947167D-01 0.45858057D-01 0.10748719D+05 0.10748719D+05 0.10748719D+05 0.12646680D+01  1  2  5  4  5  2       -3 0.358341755081D-02 0.100000000000D+01
  </mgrwgt>
  </event>
  <event>
  5     66 0.48098993E-03 0.11071571E+03 0.75467711E-02 0.12392370E+00
        2 -1    0    0  501    0 0.00000000E+00 0.00000000E+00 0.23075865E+04 0.23075866E+04 0.32000000E+00 0.0000E+00 0.9000E+01
       -1 -1    0    0    0  502 0.00000000E+00 0.00000000E+00 -.11146716E+02 0.11151308E+02 0.32000000E+00 0.0000E+00 0.9000E+01
       25  1    1    2    0    0 0.76535583E+01 0.32684285E+02 0.18287247E+04 0.18332992E+04 0.12500000E+03 0.0000E+00 0.9000E+01
       24  1    1    2    0    0 0.89080301E+01 -.46869653E+02 0.25492501E+03 0.27153286E+03 0.80419002E+02 0.0000E+00 0.9000E+01
       21  1    1    2  501  502 -.16561588E+02 0.14185367E+02 0.21279006E+03 0.21390578E+03 0.75000000E+00 0.0000E+00 0.9000E+01
#aMCatNLO 2  0  0  2  1 0.21806211D+02 0.00000000D+00  -5  5  0 0.00000000D+00 0.00000000D+00 0.00000000D+00 0.00000000D+00 0.00000000D+00
  <mgrwgt>
 0.2002544544D+00    1    2    0
 0.148531373814291D+03 0.000000000000000D+00 0.000000000000000D+00 0.148531373814291D+03
 0.148531373814291D+03 0.000000000000000D+00 0.000000000000000D+00 -.148531373814291D+03
 0.163945262157301D+03 -.143056625790850D+01 0.404650391568434D+02 0.980488810239215D+02
 0.133117485471281D+03 0.143056625790850D+01 -.404650391568434D+02 -.980488810239215D+02
 0.000000000000000D+00 -.000000000000000D+00 0.000000000000000D+00 0.000000000000000D+00
 0.164096859477311D+03 0.000000000000000D+00 0.000000000000000D+00 0.164096859477311D+03
 0.156769528363435D+03 0.000000000000000D+00 0.000000000000000D+00 -.156769528363435D+03
 0.162374328425333D+03 0.765355832223603D+01 0.326842853148567D+02 0.980488810239215D+02
 0.135487698164111D+03 0.890803013514578D+01 -.468696525323905D+02 -.980488810239215D+02
 0.230043612513006D+02 -.165615884573818D+02 0.141853672175338D+02 0.732733111387604D+01
0.258671295753D-03 0.000000000000D+00 0.000000000000D+00 0.145897266707D-02 0.256990582839D-04  5 2 -1 25 24 21 2 0.35500005D+00 0.17151685D-02 0.14974527D+05 0.14974527D+05 0.14974527D+05 0.12479067D+01  1  2  1  2  5  2       -1 0.200254454394D+00 0.100000000000D+01
  </mgrwgt>
  </event>
  <event>
  4     66 0.48098993E-03 0.12366439E+03 0.75467711E-02 0.11522683E+00
        2 -1    0    0  501    0 0.00000000E+00 0.00000000E+00 0.71223794E+03 0.71223802E+03 0.32000000E+00 0.0000E+00 0.9000E+01
       -1 -1    0    0    0  501 0.00000000E+00 0.00000000E+00 -.27746859E+02 0.27748704E+02 0.32000000E+00 0.0000E+00 0.9000E+01
       25  1    1    2    0    0 0.61344037E+02 -.28747677E+02 0.55632672E+03 0.57420723E+03 0.12500000E+03 0.0000E+00 0.9000E+01
       24  1    1    2    0    0 -.61344037E+02 0.28747677E+02 0.12816436E+03 0.16577949E+03 0.80419002E+02 0.0000E+00 0.9000E+01
#aMCatNLO 1  0  0  1  1 0.12177480D+03 0.00000000D+00  -5  5  0 0.00000000D+00 0.00000000D+00 0.00000000D+00 0.00000000D+00 0.00000000D+00
  <mgrwgt>
 0.4094029762D+00    3    2    0
 0.140581205004519D+03 0.000000000000000D+00 0.000000000000000D+00 0.140581205004519D+03
 0.140581205004519D+03 0.000000000000000D+00 0.000000000000000D+00 -.140581205004519D+03
 0.156866781809283D+03 0.613440372040167D+02 -.287476773234697D+02 0.662772010816630D+02
 0.124295628199755D+03 -.613440372040167D+02 0.287476773234697D+02 -.662772010816630D+02
 0.000000000000000D+00 -.000000000000000D+00 0.000000000000000D+00 -.000000000000000D+00
 0.185277841988539D+03 0.000000000000000D+00 0.000000000000000D+00 0.185277841988539D+03
 0.268772888905850D+03 0.000000000000000D+00 0.000000000000000D+00 -.268772888905850D+03
 0.198342061720814D+03 0.112390335015866D+03 -.817943681402677D+02 0.662772010816630D+02
 0.108058660969371D+03 -.279529027803526D+02 -.595198278357713D+01 -.662772010816630D+02
 0.147650008204203D+03 -.844374322355130D+02 0.877463509238448D+02 -.834950469173111D+02
0.403044577674D-03 0.000000000000D+00 0.000000000000D+00 0.199485157965D-02 0.000000000000D+00  5 2 -1 25 24 21 0 0.10957522D+00 0.42688950D-02 0.15292883D+05 0.15292883D+05 0.15292883D+05 0.12468663D+01  1  2  2  1  5  1        2 0.400355162990D+00 0.100000000000D+01
-.219438250429D-04 0.000000000000D+00 -.154779730234D-05 0.199485157965D-02 0.000000000000D+00  5 2 -1 25 24 21 2 0.10957522D+00 0.42688950D-02 0.15292883D+05 0.15292883D+05 0.15292883D+05 0.12468663D+01  1  2  3  1  5  1        2 -.338878831872D-01 0.100000000000D+01
0.278026634362D-04 0.000000000000D+00 0.000000000000D+00 0.199485157965D-02 0.000000000000D+00  5 2 -1 25 24 21 2 0.10957522D+00 0.42688950D-02 0.15292883D+05 0.15292883D+05 0.15292883D+05 0.12468663D+01  1  2 15  1  5  1        2 0.429356964421D-01 0.100000000000D+01
  </mgrwgt>
  </event>
  <event>
  4     66 0.48098993E-03 0.13178962E+03 0.75467711E-02 0.11549276E+00
        4 -1    0    0  501    0 0.00000000E+00 0.00000000E+00 0.44077789E+03 0.44078061E+03 0.15500000E+01 0.0000E+00 0.9000E+01
       -3 -1    0    0    0  501 0.00000000E+00 0.00000000E+00 -.39648318E+02 0.39651470E+02 0.50000000E+00 0.0000E+00 0.9000E+01
       25  1    1    2    0    0 0.81381097E+02 0.11398048E+01 0.20803089E+03 0.25598054E+03 0.12500000E+03 0.0000E+00 0.9000E+01
       24  1    1    2    0    0 -.81381097E+02 -.11398048E+01 0.19309867E+03 0.22445155E+03 0.80419002E+02 0.0000E+00 0.9000E+01
#aMCatNLO 1  0  0  2  1 0.10448764D+03 0.00000000D+00  -5  5  0 0.00000000D+00 0.00000000D+00 0.00000000D+00 0.00000000D+00 0.00000000D+00
  <mgrwgt>
 0.1560476946D-01    5    2    0
 0.132202547449123D+03 0.000000000000000D+00 0.000000000000000D+00 0.132202547449123D+03
 0.132202547449123D+03 0.000000000000000D+00 0.000000000000000D+00 -.132202547449123D+03
 0.149520262240424D+03 0.813810969448134D+02 0.113980477076673D+01 -.103502041326973D+02
 0.114884832657821D+03 -.813810969448134D+02 -.113980477076673D+01 0.103502041326973D+02
 0.000000000000000D+00 -.000000000000000D+00 0.000000000000000D+00 -.000000000000000D+00
 0.183555415792954D+03 0.000000000000000D+00 0.000000000000000D+00 0.183555415792954D+03
 0.208072122567653D+03 0.000000000000000D+00 0.000000000000000D+00 -.208072122567653D+03
 0.189067798650162D+03 0.138527492214899D+03 -.287165398591302D+02 -.103502041326973D+02
 0.952343664013915D+02 -.459174873547762D+02 -.196678981830652D+02 0.103502041326973D+02
 0.107325373309053D+03 -.926100048601226D+02 0.483844380421953D+02 -.245167067746996D+02
0.252567854441D-03 0.000000000000D+00 0.000000000000D+00 0.257733350484D-02 0.000000000000D+00  5 4 -3 25 24 21 0 0.67812434D-01 0.61001933D-02 0.17368505D+05 0.17368505D+05 0.17368505D+05 0.12406286D+01  1  2  2  2  5  2       -3 0.166061756044D-01 0.100000000000D+01
-.140313805106D-04 0.000000000000D+00 -.969927063697D-06 0.257733350484D-02 0.000000000000D+00  5 4 -3 25 24 21 2 0.67812434D-01 0.61001933D-02 0.17368505D+05 0.17368505D+05 0.17368505D+05 0.12406286D+01  1  2  3  2  5  2       -3 -.141995818712D-02 0.100000000000D+01
0.174679227992D-04 0.000000000000D+00 0.000000000000D+00 0.257733350484D-02 0.000000000000D+00  5 4 -3 25 24 21 2 0.67812434D-01 0.61001933D-02 0.17368505D+05 0.17368505D+05 0.17368505D+05 0.12406286D+01  1  2 15  2  5  2       -3 0.176773197563D-02 0.100000000000D+01
-.523973433169D-04 0.000000000000D+00 -.735811914825D-04 0.257733350484D-02 0.000000000000D+00  5 4 -3 25 24 21 2 0.67812434D-01 0.13285925D-01 0.17368505D+05 0.17368505D+05 0.17368505D+05 0.12406286D+01  1  2  5  2  5  2       -3 -.147876491233D-02 0.100000000000D+01
0.204997208260D-06 0.000000000000D+00 -.620381395792D-05 0.257733350484D-02 0.000000000000D+00  5 4 21 25 24 3 2 0.67812434D-01 0.13285925D-01 0.17368505D+05 0.17368505D+05 0.17368505D+05 0.12406286D+01  1  2  5  4  5  2       -3 0.129584976363D-03 0.100000000000D+01
  </mgrwgt>
  </event>
  <event>
  5     66 0.48098993E-03 0.12690595E+03 0.75467711E-02 0.12068768E+00
        2 -1    0    0  502    0 0.00000000E+00 0.00000000E+00 0.59424011E+03 0.59424020E+03 0.32000000E+00 0.0000E+00 0.9000E+01
       -1 -1    0    0    0  501 0.00000000E+00 0.00000000E+00 -.44785007E+02 0.44786150E+02 0.32000000E+00 0.0000E+00 0.9000E+01
       25  1    1    2    0    0 -.15344644E+02 0.77536032E+02 0.42394024E+03 0.44899624E+03 0.12500000E+03 0.0000E+00 0.9000E+01
       24  1    1    2    0    0 -.17653971E+02 -.70001591E+02 0.10355704E+03 0.14967686E+03 0.80419002E+02 0.0000E+00 0.9000E+01
       21  1    1    2  502  501 0.32998615E+02 -.75344411E+01 0.21957824E+02 0.40353252E+02 0.75000000E+00 0.0000E+00 0.9000E+01
#aMCatNLO 2  0  0  1  1 0.33847842D+02 0.00000000D+00  -5  5  0 0.00000000D+00 0.00000000D+00 0.00000000D+00 0.00000000D+00 0.00000000D+00
  <mgrwgt>
 0.8571524227D-01    1    2    0
 0.140543959922229D+03 0.000000000000000D+00 0.000000000000000D+00 0.140543959922229D+03
 0.140543959922229D+03 0.000000000000000D+00 0.000000000000000D+00 -.140543959922229D+03
 0.156833852512947D+03 0.316026466235916D+01 0.733108808014975D+02 0.598947808863628D+02
 0.124254067331510D+03 -.316026466235916D+01 -.733108808014975D+02 -.598947808863628D+02
 0.000000000000000D+00 0.000000000000000D+00 -.000000000000000D+00 -.000000000000000D+00
 0.149388679204140D+03 0.000000000000000D+00 0.000000000000000D+00 0.149388679204140D+03
 0.178141673759733D+03 0.000000000000000D+00 0.000000000000000D+00 -.178141673759733D+03
 0.159560894814925D+03 -.153446438933817D+02 0.775360321431239D+02 0.598947808863628D+02
 0.123557622936109D+03 -.176539713568441D+02 -.700015910473288D+02 -.598947808863628D+02
 0.444118352128393D+02 0.329986152502258D+02 -.753444109579505D+01 -.287529945555929D+02
0.929334509858D-04 0.000000000000D+00 0.000000000000D+00 0.208664807802D-02 0.151909016126D-04  5 2 -1 25 24 21 2 0.91419776D-01 0.68899544D-02 0.20997543D+05 0.20997543D+05 0.20997543D+05 0.12315056D+01  1  2  1  1  5  1        2 0.857152422653D-01 0.100000000000D+01
  </mgrwgt>
  </event>
  <event>
  4     66 0.48098993E-03 0.67313734E+02 0.75467711E-02 0.11969441E+00
        2 -1    0    0  501    0 0.00000000E+00 0.00000000E+00 0.12665919E+02 0.12669960E+02 0.32000000E+00 0.0000E+00 0.9000E+01
       -1 -1    0    0    0  501 0.00000000E+00 0.00000000E+00 -.18521439E+04 0.18521439E+04 0.32000000E+00 0.0000E+00 0.9000E+01
       25  1    1    2    0    0 -.19081201E+02 0.33654248E+02 -.36690755E+03 0.38954184E+03 0.12500000E+03 0.0000E+00 0.9000E+01
       24  1    1    2    0    0 0.19081201E+02 -.33654248E+02 -.14725704E+04 0.14752720E+04 0.80419002E+02 0.0000E+00 0.9000E+01
#aMCatNLO 1  0  0  2  1 0.73435403D+02 0.00000000D+00  -5  5  0 0.00000000D+00 0.00000000D+00 0.00000000D+00 0.00000000D+00 0.00000000D+00
  <mgrwgt>
 0.1736468743D+00    9    2    0
 0.153176034545338D+03 0.000000000000000D+00 0.000000000000000D+00 0.153176034545338D+03
 0.153176034545338D+03 0.000000000000000D+00 0.000000000000000D+00 -.153176034545338D+03
 0.168122537229018D+03 -.190812013765072D+02 0.336542479124037D+02 0.105562715367701D+03
 0.138229531861658D+03 0.190812013765072D+02 -.336542479124037D+02 -.105562715367701D+03
 0.000000000000000D+00 -.000000000000000D+00 -.000000000000000D+00 -.000000000000000D+00
 0.185412465154222D+03 0.000000000000000D+00 0.000000000000000D+00 0.185412465154222D+03
 0.205842568825328D+03 0.000000000000000D+00 0.000000000000000D+00 -.205842568825328D+03
 0.171647516568222D+03 0.181800343367561D+02 0.486196402675926D+02 0.105562715367701D+03
 0.143383193972553D+03 0.499645533373160D+02 -.212504327814852D+02 -.105562715367701D+03
 0.762243234387756D+02 -.681445876740721D+02 -.273692074861074D+02 -.204301036711067D+02
0.435702730626D-02 0.000000000000D+00 0.000000000000D+00 0.134565579551D-02 0.000000000000D+00  5 2 -1 25 24 21 0 0.19489159D-02 0.28494552D+00 0.12109979D+05 0.12109979D+05 0.12109979D+05 0.12585600D+01  1  2  2  2  5  2       -1 0.135522935768D+00 0.100000000000D+01
-.209871942339D-03 0.000000000000D+00 -.167321320877D-04 0.134565579551D-02 0.000000000000D+00  5 2 -1 25 24 21 2 0.19489159D-02 0.28494552D+00 0.12109979D+05 0.12109979D+05 0.12109979D+05 0.12585600D+01  1  2  3  2  5  2       -1 -.103401005242D-01 0.100000000000D+01
0.299524077135D-03 0.000000000000D+00 0.000000000000D+00 0.134565579551D-02 0.000000000000D+00  5 2 -1 25 24 21 2 0.19489159D-02 0.28494552D+00 0.12109979D+05 0.12109979D+05 0.12109979D+05 0.12585600D+01  1  2 15  2  5  2       -1 0.147571372927D-01 0.100000000000D+01
0.465358765924D-03 0.000000000000D+00 0.000000000000D+00 0.134565579551D-02 0.000000000000D+00  5 2 -1 25 24 21 2 0.19489159D-02 0.40447144D+00 0.23380971D+05 0.23380971D+05 0.23380971D+05 0.12264274D+01  1  2 12  2  5  2       -1 0.381002255252D-02 0.100000000000D+01
-.167025730391D-02 0.000000000000D+00 0.000000000000D+00 0.134565579551D-02 0.000000000000D+00  5 2 -1 25 24 21 2 0.19489159D-02 0.28494552D+00 0.12109979D+05 0.12109979D+05 0.12109979D+05 0.12585600D+01  1  2  4  2  5  2       -1 -.822912688144D-01 0.100000000000D+01
-.234418459351D-02 0.000000000000D+00 -.128773298129D-02 0.134565579551D-02 0.000000000000D+00  5 2 -1 25 24 21 2 0.19489159D-02 0.41378589D+00 0.12109979D+05 0.12109979D+05 0.12109979D+05 0.12585600D+01  1  2  5  2  5  2       -1 -.177719651706D-01 0.100000000000D+01
0.271793492445D-02 0.000000000000D+00 0.120304563722D-02 0.134565579551D-02 0.000000000000D+00  5 2 -1 25 24 21 2 0.19489159D-02 0.28494552D+00 0.12109979D+05 0.12109979D+05 0.12109979D+05 0.12585600D+01  1  2  6  2  5  2       -1 0.133908897129D+00 0.100000000000D+01
0.201146267589D-04 0.000000000000D+00 0.000000000000D+00 0.134565579551D-02 0.000000000000D+00  5 2 21 25 24 1 2 0.19489159D-02 0.40447144D+00 0.23380971D+05 0.23380971D+05 0.23380971D+05 0.12264274D+01  1  2 12  4  5  2       -1 0.174987925264D-02 0.100000000000D+01
-.661396673713D-04 0.000000000000D+00 -.582550292673D-04 0.134565579551D-02 0.000000000000D+00  5 2 21 25 24 1 2 0.19489159D-02 0.41378589D+00 0.12109979D+05 0.12109979D+05 0.12109979D+05 0.12585600D+01  1  2  5  4  5  2       -1 -.569866320390D-02 0.100000000000D+01
  </mgrwgt>
  </event>
  <event>
  4     66 0.48098993E-03 0.13879200E+03 0.75467711E-02 0.10869666E+00
        2 -1    0    0  501    0 0.00000000E+00 0.00000000E+00 0.38052536E+03 0.38052549E+03 0.32000000E+00 0.0000E+00 0.9000E+01
       -1 -1    0    0    0  501 0.00000000E+00 0.00000000E+00 -.10526622E+03 0.10526671E+03 0.32000000E+00 0.0000E+00 0.9000E+01
       25  1    1    2    0    0 0.61906555E+02 -.68240698E+02 -.28912034E+02 0.15795607E+03 0.12500000E+03 0.0000E+00 0.9000E+01
       24  1    1    2    0    0 -.61906555E+02 0.68240698E+02 0.30417117E+03 0.32783613E+03 0.80419002E+02 0.0000E+00 0.9000E+01
#aMCatNLO 1  0  0  2  1 0.24280071D+03 0.00000000D+00  -5  5  0 0.00000000D+00 0.00000000D+00 0.00000000D+00 0.00000000D+00 0.00000000D+00
  <mgrwgt>
 0.3449507847D+00    3    2    0
 0.200141495931766D+03 0.000000000000000D+00 0.000000000000000D+00 0.200141495931766D+03
 0.200141495931766D+03 0.000000000000000D+00 0.000000000000000D+00 -.200141495931766D+03
 0.211580633031990D+03 0.619065548375875D+02 -.682406983132363D+02 -.143708558673728D+03
 0.188702358831542D+03 -.619065548375875D+02 0.682406983132363D+02 0.143708558673728D+03
 0.000000000000000D+00 -.000000000000000D+00 0.000000000000000D+00 0.000000000000000D+00
 0.524209490382115D+03 0.000000000000000D+00 0.000000000000000D+00 0.524209490382115D+03
 0.284881225074545D+03 0.000000000000000D+00 0.000000000000000D+00 -.284881225074545D+03
 0.300416772858368D+03 0.119146138088759D+03 -.199442436199247D+03 -.143708558673728D+03
 0.167748431837297D+03 -.220565585823250D+02 -.231014894958347D+02 0.143708558673728D+03
 0.340925510760994D+03 -.970895795064340D+02 0.222543925695081D+03 0.239328265307570D+03
0.125318601188D-02 0.000000000000D+00 0.000000000000D+00 0.110155366091D-02 0.000000000000D+00  5 2 -1 25 24 21 0 0.58542411D-01 0.16194851D-01 0.19263220D+05 0.19263220D+05 0.19263220D+05 0.12356247D+01  1  2  2  2  5  2       -1 0.333817880262D+00 0.100000000000D+01
-.582791487678D-04 0.000000000000D+00 -.481256425708D-05 0.110155366091D-02 0.000000000000D+00  5 2 -1 25 24 21 2 0.58542411D-01 0.16194851D-01 0.19263220D+05 0.19263220D+05 0.19263220D+05 0.12356247D+01  1  2  3  2  5  2       -1 -.237017503287D-01 0.100000000000D+01
0.856533377175D-04 0.000000000000D+00 0.000000000000D+00 0.110155366091D-02 0.000000000000D+00  5 2 -1 25 24 21 2 0.58542411D-01 0.16194851D-01 0.19263220D+05 0.19263220D+05 0.19263220D+05 0.12356247D+01  1  2 15  2  5  2       -1 0.348346547320D-01 0.100000000000D+01
  </mgrwgt>
  </event>
  <event>
  5     66 0.48098993E-03 0.12048175E+03 0.75467711E-02 0.10861842E+00
        2 -1    0    0  502    0 0.00000000E+00 0.00000000E+00 0.34573385E+03 0.34573400E+03 0.32000000E+00 0.0000E+00 0.9000E+01
       -1 -1    0    0    0  501 0.00000000E+00 0.00000000E+00 -.58067892E+03 0.58067901E+03 0.32000000E+00 0.0000E+00 0.9000E+01
       25  1    1    2    0    0 -.15881784E+03 -.16737523E+03 0.12469405E+03 0.29053602E+03 0.12500000E+03 0.0000E+00 0.9000E+01
       24  1    1    2    0    0 -.21026743E+02 -.68787874E+01 0.89066849E+02 0.12202279E+03 0.80419002E+02 0.0000E+00 0.9000E+01
       21  1    1    2  502  501 0.17984458E+03 0.17425401E+03 -.44870596E+03 0.51385420E+03 0.75000000E+00 0.0000E+00 0.9000E+01
#aMCatNLO 2  0  0  1  1 0.25041672D+03 0.00000000D+00  -5  5  0 0.00000000D+00 0.00000000D+00 0.00000000D+00 0.00000000D+00 0.00000000D+00
  <mgrwgt>
 0.1894111770D-02    1    2    0
 0.124300556705146D+03 0.000000000000000D+00 0.000000000000000D+00 0.124300556705146D+03
 0.124300556705146D+03 0.000000000000000D+00 0.000000000000000D+00 -.124300556705146D+03
 0.142719187096627D+03 -.371588266985896D+02 -.494980527491751D+02 -.302147437180264D+02
 0.105881926313665D+03 0.371588266985896D+02 0.494980527491751D+02 0.302147437180264D+02
 0.000000000000000D+00 0.000000000000000D+00 0.000000000000000D+00 -.000000000000000D+00
 0.194782346182800D+03 0.000000000000000D+00 0.000000000000000D+00 0.194782346182800D+03
 0.103068973663992D+04 0.000000000000000D+00 0.000000000000000D+00 -.103068973663992D+04
 0.264150530258398D+03 -.158817836270370D+03 -.167375227498709D+03 -.302147437180264D+02
 0.887107001475220D+02 -.210267427734738D+02 -.687878744294233D+01 0.302147437180264D+02
 0.872610852416799D+03 0.179844579043844D+03 0.174254014941652D+03 -.835907390457118D+03
0.100241370198D-03 0.000000000000D+00 0.000000000000D+00 0.256725683568D-02 0.167447949421D-05  5 2 -1 25 24 21 2 0.53189802D-01 0.89335169D-01 0.88875562D+05 0.88875562D+05 0.88875562D+05 0.11683062D+01  1  2  1  1  5  1        2 0.189411177029D-02 0.100000000000D+01
  </mgrwgt>
  </event>
  <event>
  4     66 0.48098993E-03 0.25924612E+02 0.75467711E-02 0.12372175E+00
        2 -1    0    0  501    0 0.00000000E+00 0.00000000E+00 0.13748137E+02 0.13751861E+02 0.32000000E+00 0.0000E+00 0.9000E+01
       -1 -1    0    0    0  501 0.00000000E+00 0.00000000E+00 -.85320761E+03 0.85320767E+03 0.32000000E+00 0.0000E+00 0.9000E+01
       25  1    1    2    0    0 -.20711287E+02 0.67971590E+01 -.39904450E+03 0.41873222E+03 0.12500000E+03 0.0000E+00 0.9000E+01
       24  1    1    2    0    0 0.20711287E+02 -.67971590E+01 -.44041498E+03 0.44822732E+03 0.80419002E+02 0.0000E+00 0.9000E+01
#aMCatNLO 1  0  0  2  1 0.34251888D+02 0.00000000D+00  -5  5  0 0.00000000D+00 0.00000000D+00 0.00000000D+00 0.00000000D+00 0.00000000D+00
  <mgrwgt>
 0.3957124674D+00    9    2    0
 0.108312767822909D+03 0.000000000000000D+00 0.000000000000000D+00 0.108312767822909D+03
 0.108312767822909D+03 0.000000000000000D+00 0.000000000000000D+00 -.108312767822909D+03
 0.129450128241494D+03 -.207112865150714D+02 0.679715898415826D+01 0.256354625933282D+02
 0.871754074043234D+02 0.207112865150714D+02 -.679715898415826D+01 -.256354625933282D+02
 0.000000000000000D+00 -.000000000000000D+00 0.000000000000000D+00 -.000000000000000D+00
 0.116856801818534D+03 0.000000000000000D+00 0.000000000000000D+00 0.116856801818534D+03
 0.150402936092325D+03 0.000000000000000D+00 0.000000000000000D+00 -.150402936092325D+03
 0.129459338461575D+03 -.173638600683953D+02 -.132679966860025D+02 0.256354625933282D+02
 0.898573607046938D+02 0.230001335682232D+02 -.205169742387342D+02 -.256354625933282D+02
 0.479430387445908D+02 -.563627349982785D+01 0.337849709247367D+02 -.335461342737903D+02
0.963100608400D-03 0.000000000000D+00 0.000000000000D+00 0.291641715437D-02 0.000000000000D+00  5 2 -1 25 24 21 0 0.21153891D-02 0.13126300D+00 0.11046779D+05 0.11046779D+05 0.11046779D+05 0.12632588D+01  1  2  2  2  5  2       -1 0.280864765551D+00 0.100000000000D+01
-.534467429794D-04 0.000000000000D+00 -.369855992647D-05 0.291641715437D-02 0.000000000000D+00  5 2 -1 25 24 21 2 0.21153891D-02 0.13126300D+00 0.11046779D+05 0.11046779D+05 0.11046779D+05 0.12632588D+01  1  2  3  2  5  2       -1 -.248731929070D-01 0.100000000000D+01
0.662160809324D-04 0.000000000000D+00 0.000000000000D+00 0.291641715437D-02 0.000000000000D+00  5 2 -1 25 24 21 2 0.21153891D-02 0.13126300D+00 0.11046779D+05 0.11046779D+05 0.11046779D+05 0.12632588D+01  1  2 15  2  5  2       -1 0.308158226819D-01 0.100000000000D+01
0.894650631056D-03 0.000000000000D+00 0.000000000000D+00 0.291641715437D-02 0.000000000000D+00  5 2 -1 25 24 21 2 0.21153891D-02 0.18590076D+00 0.15285696D+05 0.15285696D+05 0.15285696D+05 0.12468895D+01  1  2 12  2  5  2       -1 0.163317321429D+00 0.100000000000D+01
-.977663144706D-03 0.000000000000D+00 0.000000000000D+00 0.291641715437D-02 0.000000000000D+00  5 2 -1 25 24 21 2 0.21153891D-02 0.13126300D+00 0.11046779D+05 0.11046779D+05 0.11046779D+05 0.12632588D+01  1  2  4  2  5  2       -1 -.454987575309D+00 0.100000000000D+01
-.135342217096D-02 0.000000000000D+00 -.349476305541D-03 0.291641715437D-02 0.000000000000D+00  5 2 -1 25 24 21 2 0.21153891D-02 0.18955125D+00 0.11046779D+05 0.11046779D+05 0.11046779D+05 0.12632588D+01  1  2  5  2  5  2       -1 -.238154733784D+00 0.100000000000D+01
0.140804082331D-02 0.000000000000D+00 0.327140704530D-03 0.291641715437D-02 0.000000000000D+00  5 2 -1 25 24 21 2 0.21153891D-02 0.13126300D+00 0.11046779D+05 0.11046779D+05 0.11046779D+05 0.12632588D+01  1  2  6  2  5  2       -1 0.655277928396D+00 0.100000000000D+01
0.384890932468D-04 0.000000000000D+00 0.000000000000D+00 0.291641715437D-02 0.000000000000D+00  5 2 21 25 24 1 2 0.21153891D-02 0.18590076D+00 0.15285696D+05 0.15285696D+05 0.15285696D+05 0.12468895D+01  1  2 12  4  5  2       -1 0.611069686489D-01 0.100000000000D+01
-.499586164518D-04 0.000000000000D+00 -.156375149434D-04 0.291641715437D-02 0.000000000000D+00  5 2 21 25 24 1 2 0.21153891D-02 0.18955125D+00 0.11046779D+05 0.11046779D+05 0.11046779D+05 0.12632588D+01  1  2  5  4  5  2       -1 -.776548373141D-01 0.100000000000D+01
  </mgrwgt>
  </event>
  <event>
  4     66 0.48098993E-03 0.13016288E+03 0.75467711E-02 0.10908104E+00
        2 -1    0    0  501    0 0.00000000E+00 0.00000000E+00 0.25965824E+03 0.25965844E+03 0.32000000E+00 0.0000E+00 0.9000E+01
       -1 -1    0    0    0  501 0.00000000E+00 0.00000000E+00 -.66145690E+02 0.66146464E+02 0.32000000E+00 0.0000E+00 0.9000E+01
       25  1    1    2    0    0 0.78214859E+02 0.93851123E+01 0.12845793E+03 0.19578581E+03 0.12500000E+03 0.0000E+00 0.9000E+01
       24  1    1    2    0    0 -.78214859E+02 -.93851123E+01 0.65054622E+02 0.13001909E+03 0.80419002E+02 0.0000E+00 0.9000E+01
#aMCatNLO 1  0  0  1  1 0.23050529D+03 0.00000000D+00  -5  5  0 0.00000000D+00 0.00000000D+00 0.00000000D+00 0.00000000D+00 0.00000000D+00
  <mgrwgt>
 0.4766564528D+00    3    2    0
 0.131055072386180D+03 0.000000000000000D+00 0.000000000000000D+00 0.131055072386180D+03
 0.131055072386180D+03 0.000000000000000D+00 0.000000000000000D+00 -.131055072386180D+03
 0.148524415386206D+03 0.782148589856366D+02 0.938511228351133D+01 0.151280357977210D+02
 0.113585729386155D+03 -.782148589856366D+02 -.938511228351133D+01 -.151280357977210D+02
 0.000000000000000D+00 0.000000000000000D+00 0.000000000000000D+00 -.000000000000000D+00
 0.234407098406220D+03 0.000000000000000D+00 0.000000000000000D+00 0.234407098406220D+03
 0.396342092312732D+03 0.000000000000000D+00 0.000000000000000D+00 -.396342092312732D+03
 0.166321005477434D+03 0.372660406872731D+02 -.102078703006171D+03 0.151280357977210D+02
 0.182726867918806D+03 -.116753296906295D+03 -.114287805558859D+03 -.151280357977210D+02
 0.281701317322713D+03 0.794872562190219D+02 0.216366508565029D+03 -.161934993906513D+03
0.570746477022D-03 0.000000000000D+00 0.000000000000D+00 0.257576802792D-02 0.000000000000D+00  5 2 -1 25 24 21 0 0.39947497D-01 0.10176335D-01 0.16942377D+05 0.16942377D+05 0.16942377D+05 0.12418385D+01  1  2  2  1  5  1        2 0.467023250556D+00 0.100000000000D+01
-.317063386506D-04 0.000000000000D+00 -.219181675276D-05 0.257576802792D-02 0.000000000000D+00  5 2 -1 25 24 21 2 0.39947497D-01 0.10176335D-01 0.16942377D+05 0.16942377D+05 0.16942377D+05 0.12418385D+01  1  2  3  1  5  1        2 -.400102808945D-01 0.100000000000D+01
0.393402158829D-04 0.000000000000D+00 0.000000000000D+00 0.257576802792D-02 0.000000000000D+00  5 2 -1 25 24 21 2 0.39947497D-01 0.10176335D-01 0.16942377D+05 0.16942377D+05 0.16942377D+05 0.12418385D+01  1  2 15  1  5  1        2 0.496434831304D-01 0.100000000000D+01
  </mgrwgt>
  </event>
  <event>
  4     66 0.48098993E-03 0.11796181E+03 0.75467711E-02 0.11154373E+00
        2 -1    0    0  501    0 0.00000000E+00 0.00000000E+00 0.27829444E+04 0.27829444E+04 0.32000000E+00 0.0000E+00 0.9000E+01
       -1 -1    0    0    0  501 0.00000000E+00 0.00000000E+00 -.53999907E+01 0.54094639E+01 0.32000000E+00 0.0000E+00 0.9000E+01
       25  1    1    2    0    0 -.39490892E+01 0.56832824E+02 0.12234895E+04 0.12311772E+04 0.12500000E+03 0.0000E+00 0.9000E+01
       24  1    1    2    0    0 0.39490892E+01 -.56832824E+02 0.15540548E+04 0.15571767E+04 0.80419002E+02 0.0000E+00 0.9000E+01
#aMCatNLO 1  0  0  1  2 0.19016889D+03 0.00000000D+00  -5  5  0 0.00000000D+00 0.00000000D+00 0.00000000D+00 0.00000000D+00 0.00000000D+00
  <mgrwgt>
 0.4877394470D+00    5    2    0
 0.122642189027972D+03 0.000000000000000D+00 0.000000000000000D+00 0.122642189027972D+03
 0.122642189027972D+03 0.000000000000000D+00 0.000000000000000D+00 -.122642189027972D+03
 0.141309876139177D+03 -.394908915864784D+01 0.568328244269224D+02 -.331348133681948D+02
 0.103974501916768D+03 0.394908915864784D+01 -.568328244269224D+02 0.331348133681948D+02
 0.000000000000000D+00 -.000000000000000D+00 0.000000000000000D+00 0.000000000000000D+00
 0.267704299225000D+03 0.000000000000000D+00 0.000000000000000D+00 0.267704299225000D+03
 0.235534875301729D+03 0.000000000000000D+00 0.000000000000000D+00 -.235534875301729D+03
 0.140334414393934D+03 0.491124132445592D+02 -.236390116468307D+02 -.331348133681948D+02
 0.170034130895546D+03 0.555720412907481D+02 -.135122988735698D+03 0.331348133681948D+02
 0.192870629237248D+03 -.104684454535307D+03 0.158762000382529D+03 0.321694239232711D+02
0.615103287372D-03 0.000000000000D+00 0.000000000000D+00 0.256136651905D-02 0.000000000000D+00  5 2 -1 25 24 21 0 0.42814602D+00 0.83149792D-03 0.13914989D+05 0.13914989D+05 0.13914989D+05 0.12515571D+01  1  2  2  1  5  1        2 0.477465315090D+00 0.100000000000D+01
-.341095001609D-04 0.000000000000D+00 -.236215858392D-05 0.256136651905D-02 0.000000000000D+00  5 2 -1 25 24 21 2 0.42814602D+00 0.83149792D-03 0.13914989D+05 0.13914989D+05 0.13914989D+05 0.12515571D+01  1  2  3  1  5  1        2 -.414734826852D-01 0.100000000000D+01
0.425618550695D-04 0.000000000000D+00 0.000000000000D+00 0.256136651905D-02 0.000000000000D+00  5 2 -1 25 24 21 2 0.42814602D+00 0.83149792D-03 0.13914989D+05 0.13914989D+05 0.13914989D+05 0.12515571D+01  1  2 15  1  5  1        2 0.517506369472D-01 0.100000000000D+01
-.635075170396D-04 0.000000000000D+00 -.131665270045D-03 0.256136651905D-02 0.000000000000D+00  5 2 -1 25 24 21 2 0.95397538D+00 0.83149792D-03 0.13914989D+05 0.13914989D+05 0.13914989D+05 0.12515571D+01  1  2  5  1  5  1        2 -.302250952637D-05 0.100000000000D+01
0.279284509465D-05 0.000000000000D+00 -.114449529986D-04 0.256136651905D-02 0.000000000000D+00  5 21 -1 25 24 -2 2 0.95397538D+00 0.83149792D-03 0.13914989D+05 0.13914989D+05 0.13914989D+05 0.12515571D+01  1  2  5  3  5  1        2 0.181546852384D-09 0.100000000000D+01
  </mgrwgt>
  </event>
  <event>
  4     66 0.48098993E-03 0.11509963E+03 0.75467711E-02 0.12031290E+00
        2 -1    0    0  501    0 0.00000000E+00 0.00000000E+00 0.11042246E+04 0.11042246E+04 0.32000000E+00 0.0000E+00 0.9000E+01
       -1 -1    0    0    0  501 0.00000000E+00 0.00000000E+00 -.12924960E+02 0.12928921E+02 0.32000000E+00 0.0000E+00 0.9000E+01
       25  1    1    2    0    0 0.37506805E+02 0.34506628E+02 0.78085737E+03 0.79243972E+03 0.12500000E+03 0.0000E+00 0.9000E+01
       24  1    1    2    0    0 -.37506805E+02 -.34506628E+02 0.31044226E+03 0.32471384E+03 0.80419002E+02 0.0000E+00 0.9000E+01
#aMCatNLO 1  0  0  2  1 0.58243769D+02 0.00000000D+00  -5  5  0 0.00000000D+00 0.00000000D+00 0.00000000D+00 0.00000000D+00 0.00000000D+00
  <mgrwgt>
 0.4713386620D+00    4    2    0
 0.119475091293808D+03 0.000000000000000D+00 0.000000000000000D+00 0.119475091293808D+03
 0.119475091293808D+03 0.000000000000000D+00 0.000000000000000D+00 -.119475091293808D+03
 0.138637629582038D+03 0.375068050831980D+02 0.345066280319803D+02 0.315899435016888D+02
 0.100312553005578D+03 -.375068050831980D+02 -.345066280319803D+02 -.315899435016888D+02
 0.000000000000000D+00 -.000000000000000D+00 0.000000000000000D+00 0.000000000000000D+00
 0.199540772657759D+03 0.000000000000000D+00 0.000000000000000D+00 0.199540772657759D+03
 0.134049361273210D+03 0.000000000000000D+00 0.000000000000000D+00 -.134049361273210D+03
 0.141894006111645D+03 0.586713019072775D+02 0.828630028882975D+01 0.315899435016888D+02
 0.104052179880103D+03 -.220886625645563D+02 -.536078971710340D+02 -.315899435016888D+02
 0.876439479392209D+02 -.365826393427212D+02 0.453215968822043D+02 0.654914113845489D+02
0.306658960583D-03 0.000000000000D+00 0.000000000000D+00 0.262470410334D-02 0.000000000000D+00  5 2 -1 25 24 21 0 0.16988101D+00 0.19887637D-02 0.13247924D+05 0.13247924D+05 0.13247924D+05 0.12540194D+01  1  2  2  2  5  2       -1 0.519463141858D+00 0.100000000000D+01
-.170077744973D-04 0.000000000000D+00 -.117765115380D-05 0.262470410334D-02 0.000000000000D+00  5 2 -1 25 24 21 2 0.16988101D+00 0.19887637D-02 0.13247924D+05 0.13247924D+05 0.13247924D+05 0.12540194D+01  1  2  3  2  5  2       -1 -.453059358508D-01 0.100000000000D+01
0.212374802309D-04 0.000000000000D+00 0.000000000000D+00 0.262470410334D-02 0.000000000000D+00  5 2 -1 25 24 21 2 0.16988101D+00 0.19887637D-02 0.13247924D+05 0.13247924D+05 0.13247924D+05 0.12540194D+01  1  2 15  2  5  2       -1 0.565731817016D-01 0.100000000000D+01
-.222955570437D-04 0.000000000000D+00 0.000000000000D+00 0.262470410334D-02 0.000000000000D+00  5 2 -1 25 24 21 2 0.16988101D+00 0.19887637D-02 0.13247924D+05 0.13247924D+05 0.13247924D+05 0.12540194D+01  1  2  4  2  5  2       -1 -.593917256686D-01 0.100000000000D+01
  </mgrwgt>
  </event>
  <event>
  5     66 0.48098993E-03 0.12442342E+03 0.75467711E-02 0.11737220E+00
        2 -1    0    0  501    0 0.00000000E+00 0.00000000E+00 0.10036774E+04 0.10036774E+04 0.32000000E+00 0.0000E+00 0.9000E+01
       -1 -1    0    0    0  502 0.00000000E+00 0.00000000E+00 -.36633272E+02 0.36634669E+02 0.32000000E+00 0.0000E+00 0.9000E+01
       25  1    1    2    0    0 0.44684476E+02 -.64043280E+02 0.57088456E+03 0.58960362E+03 0.12500000E+03 0.0000E+00 0.9000E+01
       24  1    1    2    0    0 0.39886772E+02 0.72863004E+02 0.30434783E+03 0.32556841E+03 0.80419002E+02 0.0000E+00 0.9000E+01
       21  1    1    2  501  502 -.84571248E+02 -.88197239E+01 0.91811712E+02 0.12514007E+03 0.75000000E+00 0.0000E+00 0.9000E+01
#aMCatNLO 2  0  0  2  1 0.85029898D+02 0.00000000D+00  -5  5  0 0.00000000D+00 0.00000000D+00 0.00000000D+00 0.00000000D+00 0.00000000D+00
  <mgrwgt>
 0.8888683875D-01    2    2    0
 0.126765549631139D+03 0.000000000000000D+00 0.000000000000000D+00 0.126765549631139D+03
 0.126765549631139D+03 0.000000000000000D+00 0.000000000000000D+00 -.126765549631139D+03
 0.144826024405785D+03 -.306960295562286D+01 -.690234335190109D+02 0.239983438621627D+02
 0.108705074856492D+03 0.306960295562286D+01 0.690234335190109D+02 -.239983438621627D+02
 0.000000000000000D+00 -.000000000000000D+00 -.000000000000000D+00 -.000000000000000D+00
 0.149905642792493D+03 0.000000000000000D+00 0.000000000000000D+00 0.149905642792493D+03
 0.245275889353450D+03 0.000000000000000D+00 0.000000000000000D+00 -.245275889353450D+03
 0.149329048039416D+03 0.446844755031670D+02 -.640432801255406D+02 0.239983438621627D+02
 0.118080940182406D+03 0.398867724353074D+02 0.728630040319348D+02 -.239983438621627D+02
 0.127771543924121D+03 -.845712479384744D+02 -.881972390639410D+01 -.953702465609570D+02
-.386195115344D-04 0.000000000000D+00 0.000000000000D+00 0.258388802814D-02 0.000000000000D+00  5 2 -1 25 24 21 2 0.13057541D+00 0.56821209D-02 0.30282008D+05 0.30282008D+05 0.30282008D+05 0.12144722D+01  1  2 13  2  5  2       -1 -.303402712489D-01 0.100000000000D+01
0.187608953245D-03 0.000000000000D+00 0.000000000000D+00 0.258388802814D-02 0.353716705959D-05  5 2 -1 25 24 21 2 0.15441097D+00 0.56359611D-02 0.30282008D+05 0.30282008D+05 0.30282008D+05 0.12144722D+01  1  2  1  2  5  2       -1 0.119227109996D+00 0.100000000000D+01
  </mgrwgt>
  </event>
  <event>
  4     66 0.48098993E-03 0.65847328E+02 0.75467711E-02 0.12469337E+00
        2 -1    0    0  501    0 0.00000000E+00 0.00000000E+00 0.18475458E+03 0.18475486E+03 0.32000000E+00 0.0000E+00 0.9000E+01
       -1 -1    0    0    0  501 0.00000000E+00 0.00000000E+00 -.68181580E+02 0.68182331E+02 0.32000000E+00 0.0000E+00 0.9000E+01
       25  1    1    2    0    0 0.96620771E+01 -.37654312E+02 0.44823748E+02 0.13836680E+03 0.12500000E+03 0.0000E+00 0.9000E+01
       24  1    1    2    0    0 -.96620771E+01 0.37654312E+02 0.71749253E+02 0.11457039E+03 0.80419002E+02 0.0000E+00 0.9000E+01
#aMCatNLO 1  0  0  1  2 0.14685903D+02 0.00000000D+00  -5  5  0 0.00000000D+00 0.00000000D+00 0.00000000D+00 0.00000000D+00 0.00000000D+00
  <mgrwgt>
 0.2910530609D+00    9    2    0
 0.112236310201701D+03 0.000000000000000D+00 0.000000000000000D+00 0.112236310201701D+03
 0.112236310201701D+03 0.000000000000000D+00 0.000000000000000D+00 -.112236310201701D+03
 0.132634753515571D+03 0.966207707848555D+01 -.376543117253050D+02 -.213488855718344D+02
 0.918378668878304D+02 -.966207707848555D+01 0.376543117253050D+02 0.213488855718344D+02
 0.000000000000000D+00 0.000000000000000D+00 0.000000000000000D+00 0.000000000000000D+00
 0.157370258250367D+03 0.000000000000000D+00 0.000000000000000D+00 0.157370258250367D+03
 0.113677284145457D+03 0.000000000000000D+00 0.000000000000000D+00 -.113677284145457D+03
 0.132550131570389D+03 0.104515938945457D+01 -.385703267554052D+02 -.213488855718344D+02
 0.924023813459064D+02 -.156487797275529D+02 0.370178997500267D+02 0.213488855718344D+02
 0.460950294795287D+02 0.146036203380984D+02 0.155242700537855D+01 0.436929741049092D+02
0.202095249257D-03 0.000000000000D+00 0.000000000000D+00 0.286272080629D-02 0.000000000000D+00  5 2 -1 25 24 21 0 0.28423861D-01 0.10489553D-01 0.12125018D+05 0.12125018D+05 0.12125018D+05 0.12584969D+01  1  2  2  1  5  1        2 0.224384079318D+00 0.100000000000D+01
-.112225372214D-04 0.000000000000D+00 -.776098970048D-06 0.286272080629D-02 0.000000000000D+00  5 2 -1 25 24 21 2 0.28423861D-01 0.10489553D-01 0.12125018D+05 0.12125018D+05 0.12125018D+05 0.12584969D+01  1  2  3  1  5  1        2 -.197347352238D-01 0.100000000000D+01
0.139723527451D-04 0.000000000000D+00 0.000000000000D+00 0.286272080629D-02 0.000000000000D+00  5 2 -1 25 24 21 2 0.28423861D-01 0.10489553D-01 0.12125018D+05 0.12125018D+05 0.12125018D+05 0.12584969D+01  1  2 15  1  5  1        2 0.245702621821D-01 0.100000000000D+01
0.155397433415D-02 0.000000000000D+00 0.000000000000D+00 0.286272080629D-02 0.000000000000D+00  5 2 -1 25 24 21 2 0.39981124D-01 0.10489553D-01 0.13854207D+05 0.13854207D+05 0.13854207D+05 0.12517760D+01  1  2 12  1  5  1        2 0.188726701769D+01 0.100000000000D+01
-.149466706747D-02 0.000000000000D+00 0.000000000000D+00 0.286272080629D-02 0.000000000000D+00  5 2 -1 25 24 21 2 0.28423861D-01 0.10489553D-01 0.12125018D+05 0.12125018D+05 0.12125018D+05 0.12584969D+01  1  2  4  1  5  1        2 -.262835918851D+01 0.100000000000D+01
-.168501428116D-02 0.000000000000D+00 -.109917166124D-03 0.286272080629D-02 0.000000000000D+00  5 2 -1 25 24 21 2 0.40142845D-01 0.10489553D-01 0.12125018D+05 0.12125018D+05 0.12125018D+05 0.12584969D+01  1  2  5  1  5  1        2 -.205001428594D+01 0.100000000000D+01
0.163104124035D-02 0.000000000000D+00 0.103677745117D-03 0.286272080629D-02 0.000000000000D+00  5 2 -1 25 24 21 2 0.28423861D-01 0.10489553D-01 0.12125018D+05 0.12125018D+05 0.12125018D+05 0.12584969D+01  1  2  6  1  5  1        2 0.286817199912D+01 0.100000000000D+01
0.659052695742D-04 0.000000000000D+00 0.000000000000D+00 0.286272080629D-02 0.000000000000D+00  5 21 -1 25 24 -2 2 0.39981124D-01 0.10489553D-01 0.13854207D+05 0.13854207D+05 0.13854207D+05 0.12517760D+01  1  2 12  3  5  1        2 0.312946608441D+00 0.100000000000D+01
-.690247266743D-04 0.000000000000D+00 -.470136882047D-05 0.286272080629D-02 0.000000000000D+00  5 21 -1 25 24 -2 2 0.40142845D-01 0.10489553D-01 0.12125018D+05 0.12125018D+05 0.12125018D+05 0.12584969D+01  1  2  5  3  5  1        2 -.328178696189D+00 0.100000000000D+01
  </mgrwgt>
  </event>
  <event>
  4     66 0.48098993E-03 0.10641495E+03 0.75467711E-02 0.11582542E+00
        2 -1    0    0  501    0 0.00000000E+00 0.00000000E+00 0.27558531E+03 0.27558550E+03 0.32000000E+00 0.0000E+00 0.9000E+01
       -1 -1    0    0    0  501 0.00000000E+00 0.00000000E+00 -.14781223E+03 0.14781258E+03 0.32000000E+00 0.0000E+00 0.9000E+01
       25  1    1    2    0    0 -.13506424E+01 0.11505805E+03 0.20252669E+03 0.26435249E+03 0.12500000E+03 0.0000E+00 0.9000E+01
       24  1    1    2    0    0 0.13506424E+01 -.11505805E+03 -.74753614E+02 0.15904559E+03 0.80419002E+02 0.0000E+00 0.9000E+01
#aMCatNLO 1  0  0  1  2 0.63945514D+02 0.00000000D+00  -5  5  0 0.00000000D+00 0.00000000D+00 0.00000000D+00 0.00000000D+00 0.00000000D+00
  <mgrwgt>
 0.3434041324D+00    9    2    0
 0.201829118889528D+03 0.000000000000000D+00 0.000000000000000D+00 0.201829118889528D+03
 0.201829118889528D+03 0.000000000000000D+00 0.000000000000000D+00 -.201829118889528D+03
 0.213172606013705D+03 -.135064239927590D+01 0.115058052406739D+03 0.128753175868216D+03
 0.190485631765351D+03 0.135064239927590D+01 -.115058052406739D+03 -.128753175868216D+03
 0.000000000000000D+00 -.000000000000000D+00 -.000000000000000D+00 0.000000000000000D+00
 0.237825340873899D+03 0.000000000000000D+00 0.000000000000000D+00 0.237825340873899D+03
 0.234879795142435D+03 0.000000000000000D+00 0.000000000000000D+00 -.234879795142435D+03
 0.218547843536352D+03 0.321915602507817D+02 0.120517563312814D+03 0.128753175868216D+03
 0.190143973903629D+03 0.309233795287459D+02 -.110244633247441D+03 -.128753175868216D+03
 0.640133185763523D+02 -.631149397795276D+02 -.102729300653725D+02 0.294554573146413D+01
0.107007605346D-02 0.000000000000D+00 0.000000000000D+00 0.132157243948D-02 0.000000000000D+00  5 2 -1 25 24 21 0 0.42397781D-01 0.22740385D-01 0.24068511D+05 0.24068511D+05 0.24068511D+05 0.12250696D+01  1  2  2  1  5  1        2 0.234047871245D+00 0.100000000000D+01
-.544455892374D-04 0.000000000000D+00 -.410937380278D-05 0.132157243948D-02 0.000000000000D+00  5 2 -1 25 24 21 2 0.42397781D-01 0.22740385D-01 0.24068511D+05 0.24068511D+05 0.24068511D+05 0.12250696D+01  1  2  3  1  5  1        2 -.178720467524D-01 0.100000000000D+01
0.737513917637D-04 0.000000000000D+00 0.000000000000D+00 0.132157243948D-02 0.000000000000D+00  5 2 -1 25 24 21 2 0.42397781D-01 0.22740385D-01 0.24068511D+05 0.24068511D+05 0.24068511D+05 0.12250696D+01  1  2 15  1  5  1        2 0.242092764560D-01 0.100000000000D+01
0.605117645969D-03 0.000000000000D+00 0.000000000000D+00 0.132157243948D-02 0.000000000000D+00  5 2 -1 25 24 21 2 0.52871087D-01 0.22740385D-01 0.36187369D+05 0.36187369D+05 0.36187369D+05 0.12064432D+01  1  2 12  1  5  1        2 0.153003233541D+00 0.100000000000D+01
-.645286610197D-03 0.000000000000D+00 0.000000000000D+00 0.132157243948D-02 0.000000000000D+00  5 2 -1 25 24 21 2 0.42397781D-01 0.22740385D-01 0.24068511D+05 0.24068511D+05 0.24068511D+05 0.12250696D+01  1  2  4  1  5  1        2 -.211818673058D+00 0.100000000000D+01
-.138165960191D-02 0.000000000000D+00 -.635715668454D-03 0.132157243948D-02 0.000000000000D+00  5 2 -1 25 24 21 2 0.57278553D-01 0.22740385D-01 0.24068511D+05 0.24068511D+05 0.24068511D+05 0.12250696D+01  1  2  5  1  5  1        2 -.329146079141D+00 0.100000000000D+01
0.153082859594D-02 0.000000000000D+00 0.607996093897D-03 0.132157243948D-02 0.000000000000D+00  5 2 -1 25 24 21 2 0.42397781D-01 0.22740385D-01 0.24068511D+05 0.24068511D+05 0.24068511D+05 0.12250696D+01  1  2  6  1  5  1        2 0.502502417915D+00 0.100000000000D+01
0.186662790316D-04 0.000000000000D+00 0.000000000000D+00 0.132157243948D-02 0.000000000000D+00  5 21 -1 25 24 -2 2 0.52871087D-01 0.22740385D-01 0.36187369D+05 0.36187369D+05 0.36187369D+05 0.12064432D+01  1  2 12  3  5  1        2 0.136597323438D-01 0.100000000000D+01
-.392002083751D-04 0.000000000000D+00 -.246228672164D-04 0.132157243948D-02 0.000000000000D+00  5 21 -1 25 24 -2 2 0.57278553D-01 0.22740385D-01 0.24068511D+05 0.24068511D+05 0.24068511D+05 0.12250696D+01  1  2  5  3  5  1        2 -.251816001022D-01 0.100000000000D+01
  </mgrwgt>
  </event>
  <event>
  4     66 0.48098993E-03 0.10507339E+03 0.75467711E-02 0.11697235E+00
        2 -1    0    0  501    0 0.00000000E+00 0.00000000E+00 0.22128657E+04 0.22128658E+04 0.32000000E+00 0.0000E+00 0.9000E+01
       -1 -1    0    0    0  501 0.00000000E+00 0.00000000E+00 -.53409549E+01 0.53505326E+01 0.32000000E+00 0.0000E+00 0.9000E+01
       25  1    1    2    0    0 0.11091364E+02 -.18602472E+02 0.10367427E+04 0.10444757E+04 0.12500000E+03 0.0000E+00 0.9000E+01
       24  1    1    2    0    0 -.11091364E+02 0.18602472E+02 0.11707820E+04 0.11737406E+04 0.80419002E+02 0.0000E+00 0.9000E+01
#aMCatNLO 1  0  0  2  2 0.11588908D+03 0.00000000D+00  -5  5  0 0.00000000D+00 0.00000000D+00 0.00000000D+00 0.00000000D+00 0.00000000D+00
  <mgrwgt>
 0.1906871701D+00    5    2    0
 0.108763341575984D+03 0.000000000000000D+00 0.000000000000000D+00 0.108763341575984D+03
 0.108763341575984D+03 0.000000000000000D+00 0.000000000000000D+00 -.108763341575984D+03
 0.129813136279174D+03 0.110913641791397D+02 -.186024715880464D+02 -.275205385502705D+02
 0.877135468727940D+02 -.110913641791397D+02 0.186024715880464D+02 0.275205385502705D+02
 0.000000000000000D+00 0.000000000000000D+00 -.000000000000000D+00 -.000000000000000D+00
 0.135187603150265D+03 0.000000000000000D+00 0.000000000000000D+00 0.135187603150265D+03
 0.404158743275974D+03 0.000000000000000D+00 0.000000000000000D+00 -.404158743275974D+03
 0.136379113213210D+03 0.777508832883216D+00 0.470773614249939D+02 -.275205385502705D+02
 0.110092256091101D+03 -.187555258604441D+02 0.674087464982056D+02 0.275205385502705D+02
 0.292874977121928D+03 0.179780170275609D+02 -.114486107923199D+03 -.268971140125710D+03
0.276307254801D-03 0.000000000000D+00 0.000000000000D+00 0.288336469761D-02 0.000000000000D+00  5 2 -1 25 24 21 0 0.34044162D+00 0.82242390D-03 0.11040417D+05 0.11040417D+05 0.11040417D+05 0.12632885D+01  1  2  2  2  5  2       -1 0.435697358477D+00 0.100000000000D+01
-.153281686865D-04 0.000000000000D+00 -.106109261181D-05 0.288336469761D-02 0.000000000000D+00  5 2 -1 25 24 21 2 0.34044162D+00 0.82242390D-03 0.11040417D+05 0.11040417D+05 0.11040417D+05 0.12632885D+01  1  2  3  2  5  2       -1 -.385734045552D-01 0.100000000000D+01
0.189335081633D-04 0.000000000000D+00 0.000000000000D+00 0.288336469761D-02 0.000000000000D+00  5 2 -1 25 24 21 2 0.34044162D+00 0.82242390D-03 0.11040417D+05 0.11040417D+05 0.11040417D+05 0.12632885D+01  1  2 15  2  5  2       -1 0.476462573558D-01 0.100000000000D+01
-.205149085160D-03 0.000000000000D+00 -.106493794242D-03 0.288336469761D-02 0.000000000000D+00  5 2 -1 25 24 21 2 0.34044162D+00 0.40332511D-02 0.11040417D+05 0.11040417D+05 0.11040417D+05 0.12632885D+01  1  2  5  2  5  2       -1 -.529775885975D-01 0.100000000000D+01
-.423418405756D-04 0.000000000000D+00 -.206132094959D-04 0.288336469761D-02 0.000000000000D+00  5 2 21 25 24 1 2 0.34044162D+00 0.40332511D-02 0.11040417D+05 0.11040417D+05 0.11040417D+05 0.12632885D+01  1  2  5  4  5  2       -1 -.201105452600D+00 0.100000000000D+01
  </mgrwgt>
  </event>
  <event>
  4     66 0.48098993E-03 0.96146902E+02 0.75467711E-02 0.11198167E+00
        2 -1    0    0  501    0 0.00000000E+00 0.00000000E+00 0.30486822E+04 0.30486822E+04 0.32000000E+00 0.0000E+00 0.9000E+01
       -1 -1    0    0    0  501 0.00000000E+00 0.00000000E+00 -.18339751E+02 0.18342542E+02 0.32000000E+00 0.0000E+00 0.9000E+01
       25  1    1    2    0    0 -.20573505E+03 -.51348090E+02 0.15727523E+04 0.15918977E+04 0.12500000E+03 0.0000E+00 0.9000E+01
       24  1    1    2    0    0 0.20573505E+03 0.51348090E+02 0.14575901E+04 0.14751270E+04 0.80419002E+02 0.0000E+00 0.9000E+01
#aMCatNLO 1  0  0  1  2 0.69464308D+01 0.00000000D+00  -5  5  0 0.00000000D+00 0.00000000D+00 0.00000000D+00 0.00000000D+00 0.00000000D+00
  <mgrwgt>
 0.5607983018D+00   11    2    0
 0.236466441460662D+03 0.000000000000000D+00 0.000000000000000D+00 0.236466441460662D+03
 0.236466441460662D+03 0.000000000000000D+00 0.000000000000000D+00 -.236466441460662D+03
 0.246148348107818D+03 -.205735049785747D+03 -.513480904890398D+02 -.687145539949885D+00
 0.226784534813506D+03 0.205735049785747D+03 0.513480904890398D+02 0.687145539949885D+00
 0.000000000000000D+00 0.000000000000000D+00 -.000000000000000D+00 0.000000000000000D+00
 0.274043509650872D+03 0.000000000000000D+00 0.000000000000000D+00 0.274043509650872D+03
 0.236813191645473D+03 0.000000000000000D+00 0.000000000000000D+00 -.236813191645473D+03
 0.245431454817170D+03 -.205747894029191D+03 -.477381498094827D+02 -.687145539949885D+00
 0.227552439886152D+03 0.205723178641584D+03 0.546845366111875D+02 0.687145539949885D+00
 0.378728065930225D+02 0.247153876071276D-01 -.694638680170477D+01 0.372303180053999D+02
0.293081221151D-02 0.000000000000D+00 0.000000000000D+00 0.208262134122D-02 0.000000000000D+00  5 2 -1 25 24 21 0 0.46902825D+00 0.28217161D-02 0.55915905D+05 0.55915905D+05 0.55915905D+05 0.11875018D+01  1  2  2  1  5  1        2 0.270314863268D+00 0.100000000000D+01
-.162822900636D-03 0.000000000000D+00 -.112550905928D-04 0.208262134122D-02 0.000000000000D+00  5 2 -1 25 24 21 2 0.46902825D+00 0.28217161D-02 0.55915905D+05 0.55915905D+05 0.55915905D+05 0.11875018D+01  1  2  3  1  5  1        2 -.211770744881D-01 0.100000000000D+01
0.201124755725D-03 0.000000000000D+00 0.000000000000D+00 0.208262134122D-02 0.000000000000D+00  5 2 -1 25 24 21 2 0.46902825D+00 0.28217161D-02 0.55915905D+05 0.55915905D+05 0.55915905D+05 0.11875018D+01  1  2 15  1  5  1        2 0.261586909258D-01 0.100000000000D+01
0.860827031919D-01 0.000000000000D+00 0.000000000000D+00 0.208262134122D-02 0.000000000000D+00  5 2 -1 25 24 21 2 0.54387224D+00 0.28217161D-02 0.57582800D+05 0.57582800D+05 0.57582800D+05 0.11862559D+01  1  2 12  1  5  1        2 0.552124659135D+01 0.100000000000D+01
-.898501077974D-01 0.000000000000D+00 0.000000000000D+00 0.208262134122D-02 0.000000000000D+00  5 2 -1 25 24 21 2 0.46902825D+00 0.28217161D-02 0.55915905D+05 0.55915905D+05 0.55915905D+05 0.11875018D+01  1  2  4  1  5  1        2 -.116860860368D+02 0.100000000000D+01
-.955350842928D-01 0.000000000000D+00 -.176508894781D-02 0.208262134122D-02 0.000000000000D+00  5 2 -1 25 24 21 2 0.54373112D+00 0.28217161D-02 0.55915905D+05 0.55915905D+05 0.55915905D+05 0.11875018D+01  1  2  5  1  5  1        2 -.615566331502D+01 0.100000000000D+01
0.947780757177D-01 0.000000000000D+00 0.174598592327D-02 0.208262134122D-02 0.000000000000D+00  5 2 -1 25 24 21 2 0.46902825D+00 0.28217161D-02 0.55915905D+05 0.55915905D+05 0.55915905D+05 0.11875018D+01  1  2  6  1  5  1        2 0.123270274726D+02 0.100000000000D+01
0.435355979707D-02 0.000000000000D+00 0.000000000000D+00 0.208262134122D-02 0.327451048581D-03  5 2 -1 25 24 21 2 0.54356189D+00 0.28258538D-02 0.57582800D+05 0.57582800D+05 0.57582800D+05 0.11862559D+01  1  2 11  1  5  1        2 0.279492590971D+00 0.100000000000D+01
0.194292965256D-02 0.000000000000D+00 0.000000000000D+00 0.208262134122D-02 0.000000000000D+00  5 21 -1 25 24 -2 2 0.54387224D+00 0.28217161D-02 0.57582800D+05 0.57582800D+05 0.57582800D+05 0.11862559D+01  1  2 12  3  5  1        2 0.851676936931D-02 0.100000000000D+01
-.214127847465D-02 0.000000000000D+00 -.397822591913D-04 0.208262134122D-02 0.000000000000D+00  5 21 -1 25 24 -2 2 0.54373112D+00 0.28217161D-02 0.55915905D+05 0.55915905D+05 0.55915905D+05 0.11875018D+01  1  2  5  3  5  1        2 -.946400747909D-02 0.100000000000D+01
0.981876079800D-04 0.000000000000D+00 0.000000000000D+00 0.208262134122D-02 0.737786979635D-05  5 21 -1 25 24 -2 2 0.54356189D+00 0.28258538D-02 0.57582800D+05 0.57582800D+05 0.57582800D+05 0.11862559D+01  1  2 11  3  5  1        2 0.431757073166D-03 0.100000000000D+01
  </mgrwgt>
  </event>
  <event>
  4     66 -.48098993E-03 0.10783704E+03 0.75467711E-02 0.12155378E+00
        4 -1    0    0  501    0 0.00000000E+00 0.00000000E+00 0.79221042E+01 0.80723128E+01 0.15500000E+01 0.0000E+00 0.9000E+01
       -3 -1    0    0    0  501 0.00000000E+00 0.00000000E+00 -.23631869E+04 0.23631870E+04 0.50000000E+00 0.0000E+00 0.9000E+01
       25  1    1    2    0    0 0.71375712E+02 -.47852417E+02 -.10846624E+04 0.10952177E+04 0.12500000E+03 0.0000E+00 0.9000E+01
       24  1    1    2    0    0 -.71375712E+02 0.47852417E+02 -.12706025E+04 0.12760416E+04 0.80419002E+02 0.0000E+00 0.9000E+01
#aMCatNLO 1  0  0  1  2 0.72501996D+01 0.00000000D+00  -5  5  0 0.00000000D+00 0.00000000D+00 0.00000000D+00 0.00000000D+00 0.00000000D+00
  <mgrwgt>
 -.7902617117D-01   11    2    0
 0.137475677872795D+03 0.000000000000000D+00 0.000000000000000D+00 0.137475677872795D+03
 0.137475677872795D+03 0.000000000000000D+00 0.000000000000000D+00 -.137475677872795D+03
 0.154129140120319D+03 0.713757116923284D+02 -.478524172434666D+02 0.273211599058251D+02
 0.120822215625271D+03 -.713757116923284D+02 0.478524172434666D+02 -.273211599058251D+02
 0.000000000000000D+00 0.000000000000000D+00 0.000000000000000D+00 0.000000000000000D+00
 0.143352938747753D+03 0.000000000000000D+00 0.000000000000000D+00 0.143352938747753D+03
 0.139777758761691D+03 0.000000000000000D+00 0.000000000000000D+00 -.139777758761691D+03
 0.152852179746553D+03 0.675779953896543D+02 -.492499503937706D+02 0.273211599058251D+02
 0.122194749739774D+03 -.743821144649580D+02 0.467460819611399D+02 -.273211599058251D+02
 0.808376802311719D+01 0.680411907530370D+01 0.250386843263068D+01 0.357517998606166D+01
0.393351526197D-02 0.000000000000D+00 0.000000000000D+00 0.243849465773D-02 0.000000000000D+00  5 4 -3 25 24 21 0 0.12303438D-02 0.36357878D+00 0.18141528D+05 0.18141528D+05 0.18141528D+05 0.12385165D+01  1  2  2  1  5  1        4 0.352713671979D-01 0.100000000000D+01
-.218417318994D-03 0.000000000000D+00 -.151057343243D-04 0.243849465773D-02 0.000000000000D+00  5 4 -3 25 24 21 2 0.12303438D-02 0.36357878D+00 0.18141528D+05 0.18141528D+05 0.18141528D+05 0.12385165D+01  1  2  3  1  5  1        4 -.300422276070D-02 0.100000000000D+01
0.271759074216D-03 0.000000000000D+00 0.000000000000D+00 0.243849465773D-02 0.000000000000D+00  5 4 -3 25 24 21 2 0.12303438D-02 0.36357878D+00 0.18141528D+05 0.18141528D+05 0.18141528D+05 0.12385165D+01  1  2 15  1  5  1        4 0.373791235945D-02 0.100000000000D+01
0.126057642671D-01 0.000000000000D+00 0.000000000000D+00 0.243849465773D-02 0.000000000000D+00  5 4 -3 25 24 21 2 0.12929306D-02 0.36357878D+00 0.19146547D+05 0.19146547D+05 0.19146547D+05 0.12359166D+01  1  2 12  1  5  1        4 0.160499988086D+00 0.100000000000D+01
-.127170122815D-01 0.000000000000D+00 0.000000000000D+00 0.243849465773D-02 0.000000000000D+00  5 4 -3 25 24 21 2 0.12303438D-02 0.36357878D+00 0.18141528D+05 0.18141528D+05 0.18141528D+05 0.12385165D+01  1  2  4  1  5  1        4 -.174916247118D+00 0.100000000000D+01
-.662495245717D-01 0.000000000000D+00 -.100676440648D-01 0.243849465773D-02 0.000000000000D+00  5 4 -3 25 24 21 2 0.13092506D-02 0.36357878D+00 0.18141528D+05 0.18141528D+05 0.18141528D+05 0.12385165D+01  1  2  5  1  5  1        4 -.829271253132D+00 0.100000000000D+01
0.667657275787D-01 0.000000000000D+00 0.100482245597D-01 0.243849465773D-02 0.000000000000D+00  5 4 -3 25 24 21 2 0.12303438D-02 0.36357878D+00 0.18141528D+05 0.18141528D+05 0.18141528D+05 0.12385165D+01  1  2  6  1  5  1        4 0.918329733879D+00 0.100000000000D+01
0.530322043633D-03 0.000000000000D+00 0.000000000000D+00 0.243849465773D-02 0.378245143805D-03  5 4 -3 25 24 21 2 0.12829426D-02 0.36966704D+00 0.19146547D+05 0.19146547D+05 0.19146547D+05 0.12359166D+01  1  2 11  1  5  1        4 0.634938300684D-02 0.100000000000D+01
0.172124249951D-03 0.000000000000D+00 0.000000000000D+00 0.243849465773D-02 0.000000000000D+00  5 21 -3 25 24 -4 2 0.12929306D-02 0.36357878D+00 0.19146547D+05 0.19146547D+05 0.19146547D+05 0.12359166D+01  1  2 12  3  5  1        4 0.669318633616D-01 0.100000000000D+01
-.691575123030D-03 0.000000000000D+00 -.107144100482D-03 0.243849465773D-02 0.000000000000D+00  5 21 -3 25 24 -4 2 0.13092506D-02 0.36357878D+00 0.18141528D+05 0.18141528D+05 0.18141528D+05 0.12385165D+01  1  2  5  3  5  1        4 -.264769050462D+00 0.100000000000D+01
0.495904837530D-05 0.000000000000D+00 0.000000000000D+00 0.243849465773D-02 0.283012141863D-05  5 21 -3 25 24 -4 2 0.12829426D-02 0.36966704D+00 0.19146547D+05 0.19146547D+05 0.19146547D+05 0.12359166D+01  1  2 11  3  5  1        4 0.181435441651D-02 0.100000000000D+01
  </mgrwgt>
  </event>
  <event>
  5     66 0.48098993E-03 0.10446414E+03 0.75467711E-02 0.10119465E+00
        2 -1    0    0  501    0 0.00000000E+00 0.00000000E+00 0.13634949E+04 0.13634949E+04 0.32000000E+00 0.0000E+00 0.9000E+01
       21 -1    0    0  502  501 0.00000000E+00 0.00000000E+00 -.20271758E+03 0.20271897E+03 0.75000000E+00 0.0000E+00 0.9000E+01
       25  1    1    2    0    0 -.12701728E+03 -.31235291E+03 0.54776238E+03 0.65526052E+03 0.12500000E+03 0.0000E+00 0.9000E+01
       24  1    1    2    0    0 -.65511505E+02 -.13340921E+03 0.26212140E+03 0.31187276E+03 0.80419002E+02 0.0000E+00 0.9000E+01
        1  1    1    2  502    0 0.19252878E+03 0.44576212E+03 0.35089353E+03 0.59908061E+03 0.32000000E+00 0.0000E+00 0.9000E+01
#aMCatNLO 2  0  0  2  2 0.48556277D+03 0.00000000D+00  -5  5  0 0.00000000D+00 0.00000000D+00 0.00000000D+00 0.00000000D+00 0.00000000D+00
  <mgrwgt>
 0.3143746889D-01    1    2    0
 0.104479487471131D+03 0.000000000000000D+00 0.000000000000000D+00 0.104479487471131D+03
 0.104479487471131D+03 0.000000000000000D+00 0.000000000000000D+00 -.104479487471131D+03
 0.126392363068266D+03 -.154044346859782D+00 -.186263118976882D+02 -.175106179492756D+01
 0.825666118739951D+02 0.154044346859782D+00 0.186263118976882D+02 0.175106179492756D+01
 0.000000000000000D+00 0.000000000000000D+00 0.000000000000000D+00 -.000000000000000D+00
 0.405604296025298D+03 0.000000000000000D+00 0.000000000000000D+00 0.405604296025298D+03
 0.681465777032936D+03 0.000000000000000D+00 0.000000000000000D+00 -.681465777032936D+03
 0.359618960606471D+03 -.127017279832074D+03 -.312352911358818D+03 -.175106179492756D+01
 0.168997210847299D+03 -.655115048427115D+02 -.133409211959405D+03 0.175106179492756D+01
 0.558453901604464D+03 0.192528784674785D+03 0.445762123318223D+03 -.275861481007638D+03
0.133861237679D-03 0.000000000000D+00 0.000000000000D+00 0.317988141273D-02 0.279248200555D-06  5 2 21 25 24 1 2 0.20976853D+00 0.31187427D-01 0.25713297D+06 0.25713297D+06 0.25713297D+06 0.11276744D+01  1  2  1  4  5  2       -1 0.314374688935D-01 0.100000000000D+01
  </mgrwgt>
  </event>
  <event>
  4     66 0.48098993E-03 0.24315664E+03 0.75467711E-02 0.99512817E-01
        2 -1    0    0  501    0 0.00000000E+00 0.00000000E+00 0.13933713E+03 0.13933750E+03 0.32000000E+00 0.0000E+00 0.9000E+01
       -1 -1    0    0    0  501 0.00000000E+00 0.00000000E+00 -.42437790E+03 0.42437802E+03 0.32000000E+00 0.0000E+00 0.9000E+01
       25  1    1    2    0    0 -.18738223E+03 -.11426107E+03 -.14506561E+03 0.29126745E+03 0.12500000E+03 0.0000E+00 0.9000E+01
       24  1    1    2    0    0 0.18738223E+03 0.11426107E+03 -.13997515E+03 0.27244807E+03 0.80419002E+02 0.0000E+00 0.9000E+01
#aMCatNLO 1  0  0  2  2 0.47617302D+03 0.00000000D+00  -5  5  0 0.00000000D+00 0.00000000D+00 0.00000000D+00 0.00000000D+00 0.00000000D+00
  <mgrwgt>
 0.5099570921D+00    3    2    0
 0.243170181492411D+03 0.000000000000000D+00 0.000000000000000D+00 0.243170181492411D+03
 0.243170181492411D+03 0.000000000000000D+00 0.000000000000000D+00 -.243170181492411D+03
 0.252585176362902D+03 -.187382229885730D+03 -.114261074425523D+03 0.256478312038466D+01
 0.233755186621920D+03 0.187382229885730D+03 0.114261074425523D+03 -.256478312038466D+01
 0.000000000000000D+00 0.000000000000000D+00 0.000000000000000D+00 0.000000000000000D+00
 0.524867134691665D+04 0.000000000000000D+00 0.000000000000000D+00 0.524867134691665D+04
 0.351867573396242D+03 0.000000000000000D+00 0.000000000000000D+00 -.351867573396242D+03
 0.542864689550115D+03 -.351734495798484D+03 -.394148877346205D+03 0.256478312038466D+01
 0.137773018599056D+03 0.110618746735878D+03 -.164652196357727D+02 -.256478312038466D+01
 0.491990121216372D+04 0.241115749062606D+03 0.410614096981978D+03 0.489680377352040D+04
0.695752013333D-02 0.000000000000D+00 0.000000000000D+00 0.207165073441D-02 0.000000000000D+00  5 2 -1 25 24 21 0 0.21436520D-01 0.65288945D-01 0.59125149D+05 0.59125149D+05 0.59125149D+05 0.11851383D+01  1  2  2  2  5  2       -1 0.500931779238D+00 0.100000000000D+01
-.386528894837D-03 0.000000000000D+00 -.267187092691D-04 0.207165073441D-02 0.000000000000D+00  5 2 -1 25 24 21 2 0.21436520D-01 0.65288945D-01 0.59125149D+05 0.59125149D+05 0.59125149D+05 0.11851383D+01  1  2  3  2  5  2       -1 -.390880639952D-01 0.100000000000D+01
0.475777218561D-03 0.000000000000D+00 0.000000000000D+00 0.207165073441D-02 0.000000000000D+00  5 2 -1 25 24 21 2 0.21436520D-01 0.65288945D-01 0.59125149D+05 0.59125149D+05 0.59125149D+05 0.11851383D+01  1  2 15  2  5  2       -1 0.481133768134D-01 0.100000000000D+01
  </mgrwgt>
  </event>
  <event>
  4     66 0.48098993E-03 0.94268589E+02 0.75467711E-02 0.11738066E+00
        4 -1    0    0  501    0 0.00000000E+00 0.00000000E+00 0.63714221E+03 0.63714409E+03 0.15500000E+01 0.0000E+00 0.9000E+01
       -3 -1    0    0    0  501 0.00000000E+00 0.00000000E+00 -.41475098E+02 0.41478112E+02 0.50000000E+00 0.0000E+00 0.9000E+01
       25  1    1    2    0    0 -.10839896E+03 0.38743204E+02 0.42434480E+03 0.45710489E+03 0.12500000E+03 0.0000E+00 0.9000E+01
       24  1    1    2    0    0 0.10839896E+03 -.38743204E+02 0.17132231E+03 0.22151731E+03 0.80419002E+02 0.0000E+00 0.9000E+01
#aMCatNLO 1  0  0  2  1 0.35436863D+02 0.00000000D+00  -5  5  0 0.00000000D+00 0.00000000D+00 0.00000000D+00 0.00000000D+00 0.00000000D+00
  <mgrwgt>
 0.1419305850D-01    9    2    0
 0.162564441747850D+03 0.000000000000000D+00 0.000000000000000D+00 0.162564441747850D+03
 0.162564441747850D+03 0.000000000000000D+00 0.000000000000000D+00 -.162564441747850D+03
 0.176647755335937D+03 -.108398962366252D+03 0.387432042535842D+02 0.482499590394647D+02
 0.148481128159762D+03 0.108398962366252D+03 -.387432042535842D+02 -.482499590394647D+02
 0.000000000000000D+00 -.000000000000000D+00 -.000000000000000D+00 -.000000000000000D+00
 0.170844610147692D+03 0.000000000000000D+00 0.000000000000000D+00 0.170844610147692D+03
 0.206430645877311D+03 0.000000000000000D+00 0.000000000000000D+00 -.206430645877311D+03
 0.173682429649359D+03 -.965976096058099D+02 0.536789496920161D+02 0.482499590394647D+02
 0.153371942207707D+03 0.118567297034242D+03 -.258742000625614D+02 -.482499590394647D+02
 0.502208841679374D+02 -.219696874284321D+02 -.278047496294547D+02 -.355860357296190D+02
0.464445660401D-03 0.000000000000D+00 0.000000000000D+00 0.213230608265D-02 0.000000000000D+00  5 4 -3 25 24 21 0 0.98022255D-01 0.63811612D-02 0.24079804D+05 0.24079804D+05 0.24079804D+05 0.12250477D+01  1  2  2  2  5  2       -3 0.128668372963D-01 0.100000000000D+01
-.257346728374D-04 0.000000000000D+00 -.178359362729D-05 0.213230608265D-02 0.000000000000D+00  5 4 -3 25 24 21 2 0.98022255D-01 0.63811612D-02 0.24079804D+05 0.24079804D+05 0.24079804D+05 0.12250477D+01  1  2  3  2  5  2       -3 -.106994520092D-02 0.100000000000D+01
0.320604864892D-04 0.000000000000D+00 0.000000000000D+00 0.213230608265D-02 0.000000000000D+00  5 4 -3 25 24 21 2 0.98022255D-01 0.63811612D-02 0.24079804D+05 0.24079804D+05 0.24079804D+05 0.12250477D+01  1  2 15  2  5  2       -3 0.133294733821D-02 0.100000000000D+01
0.697426388365D-03 0.000000000000D+00 0.000000000000D+00 0.213230608265D-02 0.000000000000D+00  5 4 -3 25 24 21 2 0.98022255D-01 0.82337581D-02 0.30252923D+05 0.30252923D+05 0.30252923D+05 0.12145159D+01  1  2 12  2  5  2       -3 0.191479510895D-01 0.100000000000D+01
-.717537956246D-03 0.000000000000D+00 0.000000000000D+00 0.213230608265D-02 0.000000000000D+00  5 4 -3 25 24 21 2 0.98022255D-01 0.63811612D-02 0.24079804D+05 0.24079804D+05 0.24079804D+05 0.12250477D+01  1  2  4  2  5  2       -3 -.298323704216D-01 0.100000000000D+01
-.106265966665D-02 0.000000000000D+00 -.231557372805D-03 0.213230608265D-02 0.000000000000D+00  5 4 -3 25 24 21 2 0.98022255D-01 0.85032810D-02 0.24079804D+05 0.24079804D+05 0.24079804D+05 0.12250477D+01  1  2  5  2  5  2       -3 -.277273931361D-01 0.100000000000D+01
0.109300915644D-02 0.000000000000D+00 0.222331150650D-03 0.213230608265D-02 0.000000000000D+00  5 4 -3 25 24 21 2 0.98022255D-01 0.63811612D-02 0.24079804D+05 0.24079804D+05 0.24079804D+05 0.12250477D+01  1  2  6  2  5  2       -3 0.454429675047D-01 0.100000000000D+01
0.239425591251D-04 0.000000000000D+00 0.000000000000D+00 0.213230608265D-02 0.000000000000D+00  5 4 21 25 24 3 2 0.98022255D-01 0.82337581D-02 0.30252923D+05 0.30252923D+05 0.30252923D+05 0.12145159D+01  1  2 12  4  5  2       -3 0.151005489482D-01 0.100000000000D+01
-.349441819967D-04 0.000000000000D+00 -.867070386277D-05 0.213230608265D-02 0.000000000000D+00  5 4 21 25 24 3 2 0.98022255D-01 0.85032810D-02 0.24079804D+05 0.24079804D+05 0.24079804D+05 0.12250477D+01  1  2  5  4  5  2       -3 -.210684849229D-01 0.100000000000D+01
  </mgrwgt>
  </event>
  <event>
  4     66 0.48098993E-03 0.10808123E+03 0.75467711E-02 0.92984939E-01
        2 -1    0    0  501    0 0.00000000E+00 0.00000000E+00 0.19574686E+02 0.19577301E+02 0.32000000E+00 0.0000E+00 0.9000E+01
       -1 -1    0    0    0  501 0.00000000E+00 0.00000000E+00 -.59686088E+03 0.59686097E+03 0.32000000E+00 0.0000E+00 0.9000E+01
       25  1    1    2    0    0 0.15401528E+02 -.29102276E+02 -.34065470E+03 0.36435529E+03 0.12500000E+03 0.0000E+00 0.9000E+01
       24  1    1    2    0    0 -.15401528E+02 0.29102276E+02 -.23663149E+03 0.25208298E+03 0.80419002E+02 0.0000E+00 0.9000E+01
#aMCatNLO 1  0  0  2  1 0.99764121D+03 0.00000000D+00  -5  5  0 0.00000000D+00 0.00000000D+00 0.00000000D+00 0.00000000D+00 0.00000000D+00
  <mgrwgt>
 0.4452876346D+00    3    2    0
 0.108093463100211D+03 0.000000000000000D+00 0.000000000000000D+00 0.108093463100211D+03
 0.108093463100211D+03 0.000000000000000D+00 0.000000000000000D+00 -.108093463100211D+03
 0.129273707915615D+03 0.154015281556529D+02 -.291022758312273D+02 0.159437453742645D+01
 0.869132182848060D+02 -.154015281556529D+02 0.291022758312273D+02 -.159437453742645D+01
 0.000000000000000D+00 0.000000000000000D+00 -.000000000000000D+00 0.000000000000000D+00
 0.167407702049819D+04 0.000000000000000D+00 0.000000000000000D+00 0.167407702049819D+04
 0.724221653731192D+03 0.000000000000000D+00 0.000000000000000D+00 -.724221653731192D+03
 0.470140127015246D+03 -.357625052659933D+03 0.278403517775416D+03 0.159437453742645D+01
 0.550656021668700D+03 -.412172940080906D+03 0.356182205732580D+03 -.159437453742645D+01
 0.137750252554544D+04 0.769797992740839D+03 -.634585723507996D+03 0.949855366767002D+03
0.106803730839D-02 0.000000000000D+00 0.000000000000D+00 0.306522733976D-02 0.000000000000D+00  5 2 -1 25 24 21 0 0.30116979D-02 0.91824959D-01 0.11681553D+05 0.11681553D+05 0.11681553D+05 0.12603954D+01  1  2  2  2  5  2       -1 0.435890607396D+00 0.100000000000D+01
-.593354050983D-04 0.000000000000D+00 -.410154448491D-05 0.306522733976D-02 0.000000000000D+00  5 2 -1 25 24 21 2 0.30116979D-02 0.91824959D-01 0.11681553D+05 0.11681553D+05 0.11681553D+05 0.12603954D+01  1  2  3  2  5  2       -1 -.384696823101D-01 0.100000000000D+01
0.738293230374D-04 0.000000000000D+00 0.000000000000D+00 0.306522733976D-02 0.000000000000D+00  5 2 -1 25 24 21 2 0.30116979D-02 0.91824959D-01 0.11681553D+05 0.11681553D+05 0.11681553D+05 0.12603954D+01  1  2 15  2  5  2       -1 0.478667095592D-01 0.100000000000D+01
  </mgrwgt>
  </event>
  <event>
  4     66 0.48098993E-03 0.15580688E+03 0.75467711E-02 0.10944331E+00
        2 -1    0    0  501    0 0.00000000E+00 0.00000000E+00 0.19339656E+04 0.19339656E+04 0.32000000E+00 0.0000E+00 0.9000E+01
       -1 -1    0    0    0  501 0.00000000E+00 0.00000000E+00 -.12554242E+02 0.12558320E+02 0.32000000E+00 0.0000E+00 0.9000E+01
       25  1    1    2    0    0 0.11196372E+03 0.30161535E+02 0.10340456E+04 0.10480081E+04 0.12500000E+03 0.0000E+00 0.9000E+01
       24  1    1    2    0    0 -.11196372E+03 -.30161535E+02 0.88736574E+03 0.89851587E+03 0.80419002E+02 0.0000E+00 0.9000E+01
#aMCatNLO 1  0  0  2  1 0.19633005D+03 0.00000000D+00  -5  5  0 0.00000000D+00 0.00000000D+00 0.00000000D+00 0.00000000D+00 0.00000000D+00
  <mgrwgt>
 0.3855474914D+00    5    2    0
 0.155831534399611D+03 0.000000000000000D+00 0.000000000000000D+00 0.155831534399611D+03
 0.155831534399611D+03 0.000000000000000D+00 0.000000000000000D+00 -.155831534399611D+03
 0.170523336159942D+03 0.111963719743610D+03 0.301615349494518D+02 -.275960971587193D+01
 0.141139732639279D+03 -.111963719743610D+03 -.301615349494518D+02 0.275960971587193D+01
 0.000000000000000D+00 -.000000000000000D+00 -.000000000000000D+00 -.000000000000000D+00
 0.228674739168708D+03 0.000000000000000D+00 0.000000000000000D+00 0.228674739168708D+03
 0.400714523579400D+03 0.000000000000000D+00 0.000000000000000D+00 -.400714523579400D+03
 0.272630086631425D+03 0.224560273122115D+03 0.909243225226091D+02 -.275960971587193D+01
 0.957167001181326D+02 -.517831669092755D+02 0.231493114285704D+01 0.275960971587193D+01
 0.261042475998550D+03 -.172777106212840D+03 -.932392536654661D+02 -.172039784410692D+03
0.545600916783D-03 0.000000000000D+00 0.000000000000D+00 0.236488662428D-02 0.000000000000D+00  5 2 -1 25 24 21 0 0.29753348D+00 0.19317376D-02 0.24275783D+05 0.24275783D+05 0.24275783D+05 0.12246688D+01  1  2  2  2  5  2       -1 0.357343472594D+00 0.100000000000D+01
-.303111611207D-04 0.000000000000D+00 -.209525118047D-05 0.236488662428D-02 0.000000000000D+00  5 2 -1 25 24 21 2 0.29753348D+00 0.19317376D-02 0.24275783D+05 0.24275783D+05 0.24275783D+05 0.12246688D+01  1  2  3  2  5  2       -1 -.297749211917D-01 0.100000000000D+01
0.377412515033D-04 0.000000000000D+00 0.000000000000D+00 0.236488662428D-02 0.000000000000D+00  5 2 -1 25 24 21 2 0.29753348D+00 0.19317376D-02 0.24275783D+05 0.24275783D+05 0.24275783D+05 0.12246688D+01  1  2 15  2  5  2       -1 0.370735645761D-01 0.100000000000D+01
0.431904831981D-04 0.000000000000D+00 -.189719995225D-03 0.236488662428D-02 0.000000000000D+00  5 2 -1 25 24 21 2 0.29753348D+00 0.80418893D-02 0.24275783D+05 0.24275783D+05 0.24275783D+05 0.12246688D+01  1  2  5  2  5  2       -1 0.517406371892D-02 0.100000000000D+01
0.833072040521D-05 0.000000000000D+00 -.324516770777D-04 0.236488662428D-02 0.000000000000D+00  5 2 21 25 24 1 2 0.29753348D+00 0.80418893D-02 0.24275783D+05 0.24275783D+05 0.24275783D+05 0.12246688D+01  1  2  5  4  5  2       -1 0.157313116823D-01 0.100000000000D+01
  </mgrwgt>
  </event>
  <event>
  4     66 0.48098993E-03 0.49153558E+02 0.75467711E-02 0.12280788E+00
        2 -1    0    0  501    0 0.00000000E+00 0.00000000E+00 0.18400938E+03 0.18400966E+03 0.32000000E+00 0.0000E+00 0.9000E+01
       -1 -1    0    0    0  501 0.00000000E+00 0.00000000E+00 -.77747411E+02 0.77748070E+02 0.32000000E+00 0.0000E+00 0.9000E+01
       25  1    1    2    0    0 -.40151180E+02 0.42753491E+02 0.76583502E+02 0.15789240E+03 0.12500000E+03 0.0000E+00 0.9000E+01
       24  1    1    2    0    0 0.40151180E+02 -.42753491E+02 0.29678466E+02 0.10386532E+03 0.80419002E+02 0.0000E+00 0.9000E+01
#aMCatNLO 1  0  0  2  1 0.20674222D+02 0.00000000D+00  -5  5  0 0.00000000D+00 0.00000000D+00 0.00000000D+00 0.00000000D+00 0.00000000D+00
  <mgrwgt>
 0.3184993038D+00    9    2    0
 0.119609261945415D+03 0.000000000000000D+00 0.000000000000000D+00 0.119609261945415D+03
 0.119609261945415D+03 0.000000000000000D+00 0.000000000000000D+00 -.119609261945415D+03
 0.138750304822615D+03 -.401511801525411D+02 0.427534914258414D+02 0.136626787866503D+02
 0.100468219068216D+03 0.401511801525411D+02 -.427534914258414D+02 -.136626787866503D+02
 0.000000000000000D+00 0.000000000000000D+00 -.000000000000000D+00 -.000000000000000D+00
 0.121985663898868D+03 0.000000000000000D+00 0.000000000000000D+00 0.121985663898868D+03
 0.175405198159361D+03 0.000000000000000D+00 0.000000000000000D+00 -.175405198159361D+03
 0.143440812888721D+03 -.419755218452220D+02 0.547873486890090D+02 0.136626787866503D+02
 0.966694234837638D+02 0.388767019782411D+02 -.343466844685273D+02 -.136626787866503D+02
 0.572806256857449D+02 0.309881986698092D+01 -.204406642204817D+02 -.534195342604926D+02
0.274149577623D-03 0.000000000000D+00 0.000000000000D+00 0.275929316616D-02 0.000000000000D+00  5 2 -1 25 24 21 0 0.28309207D-01 0.11961212D-01 0.14114732D+05 0.14114732D+05 0.14114732D+05 0.12508456D+01  1  2  2  2  5  2       -1 0.251617589519D+00 0.100000000000D+01
-.152296900843D-04 0.000000000000D+00 -.105280656331D-05 0.275929316616D-02 0.000000000000D+00  5 2 -1 25 24 21 2 0.28309207D-01 0.11961212D-01 0.14114732D+05 0.14114732D+05 0.14114732D+05 0.12508456D+01  1  2  3  2  5  2       -1 -.218701557811D-01 0.100000000000D+01
0.189336837028D-04 0.000000000000D+00 0.000000000000D+00 0.275929316616D-02 0.000000000000D+00  5 2 -1 25 24 21 2 0.28309207D-01 0.11961212D-01 0.14114732D+05 0.14114732D+05 0.14114732D+05 0.12508456D+01  1  2 15  2  5  2       -1 0.271891686435D-01 0.100000000000D+01
0.112619369246D-02 0.000000000000D+00 0.000000000000D+00 0.275929316616D-02 0.000000000000D+00  5 2 -1 25 24 21 2 0.28309207D-01 0.17616227D-01 0.16791225D+05 0.16791225D+05 0.16791225D+05 0.12422759D+01  1  2 12  2  5  2       -1 0.877159866037D+00 0.100000000000D+01
-.107854906073D-02 0.000000000000D+00 0.000000000000D+00 0.275929316616D-02 0.000000000000D+00  5 2 -1 25 24 21 2 0.28309207D-01 0.11961212D-01 0.14114732D+05 0.14114732D+05 0.14114732D+05 0.12508456D+01  1  2  4  2  5  2       -1 -.154881917131D+01 0.100000000000D+01
-.123428787350D-02 0.000000000000D+00 -.107159045356D-03 0.275929316616D-02 0.000000000000D+00  5 2 -1 25 24 21 2 0.28309207D-01 0.17807546D-01 0.14114732D+05 0.14114732D+05 0.14114732D+05 0.12508456D+01  1  2  5  2  5  2       -1 -.953098700885D+00 0.100000000000D+01
0.118945660525D-02 0.000000000000D+00 0.991998541712D-04 0.275929316616D-02 0.000000000000D+00  5 2 -1 25 24 21 2 0.28309207D-01 0.11961212D-01 0.14114732D+05 0.14114732D+05 0.14114732D+05 0.12508456D+01  1  2  6  2  5  2       -1 0.170808474156D+01 0.100000000000D+01
0.523411576287D-04 0.000000000000D+00 0.000000000000D+00 0.275929316616D-02 0.000000000000D+00  5 2 21 25 24 1 2 0.28309207D-01 0.17616227D-01 0.16791225D+05 0.16791225D+05 0.16791225D+05 0.12422759D+01  1  2 12  4  5  2       -1 0.539461056435D+00 0.100000000000D+01
-.548989653406D-04 0.000000000000D+00 -.508158649122D-05 0.275929316616D-02 0.000000000000D+00  5 2 21 25 24 1 2 0.28309207D-01 0.17807546D-01 0.14114732D+05 0.14114732D+05 0.14114732D+05 0.12508456D+01  1  2  5  4  5  2       -1 -.561225090400D+00 0.100000000000D+01
  </mgrwgt>
  </event>
  <event>
  5     66 0.48098993E-03 0.12502306E+03 0.75467711E-02 0.11702946E+00
        2 -1    0    0  501    0 0.00000000E+00 0.00000000E+00 0.16057923E+04 0.16057923E+04 0.32000000E+00 0.0000E+00 0.9000E+01
       21 -1    0    0  502  501 0.00000000E+00 0.00000000E+00 -.22874102E+02 0.22886394E+02 0.75000000E+00 0.0000E+00 0.9000E+01
       25  1    1    2    0    0 0.24443974E+02 0.60842881E+02 0.75178646E+03 0.76492303E+03 0.12500000E+03 0.0000E+00 0.9000E+01
       24  1    1    2    0    0 0.64488877E+02 -.69604256E+02 0.64982757E+03 0.66162425E+03 0.80419002E+02 0.0000E+00 0.9000E+01
        1  1    1    2  502    0 -.88932852E+02 0.87613757E+01 0.18130414E+03 0.20213141E+03 0.32000000E+00 0.0000E+00 0.9000E+01
#aMCatNLO 2  0  0  2  1 0.89363381D+02 0.00000000D+00  -5  5  0 0.00000000D+00 0.00000000D+00 0.00000000D+00 0.00000000D+00 0.00000000D+00
  <mgrwgt>
 0.1741835302D+00    2    2    0
 0.125029455946922D+03 0.000000000000000D+00 0.000000000000000D+00 0.125029455946922D+03
 0.125029455946922D+03 0.000000000000000D+00 0.000000000000000D+00 -.125029455946922D+03
 0.143340709035789D+03 -.246271946001959D+02 0.656772127006312D+02 0.125055383040245D+01
 0.106718202858056D+03 0.246271946001959D+02 -.656772127006312D+02 -.125055383040245D+01
 0.000000000000000D+00 -.000000000000000D+00 0.000000000000000D+00 -.000000000000000D+00
 0.150774509164164D+03 0.000000000000000D+00 0.000000000000000D+00 0.150774509164164D+03
 0.243681794375102D+03 0.000000000000000D+00 0.000000000000000D+00 -.243681794375102D+03
 0.141159228823530D+03 0.244439744487261D+02 0.608428805228757D+02 0.125055383040245D+01
 0.124387891724988D+03 0.644888772453729D+02 -.696042561928891D+02 -.125055383040245D+01
 0.128909182990749D+03 -.889328516940989D+02 0.876137567001336D+01 -.929072852109381D+02
-.195371764338D-05 0.000000000000D+00 0.000000000000D+00 0.269492655472D-02 0.000000000000D+00  5 2 21 25 24 1 2 0.20486207D+00 0.35512475D-02 0.31488267D+05 0.31488267D+05 0.31488267D+05 0.12126977D+01  1  2 13  4  5  2       -1 -.297001958999D-01 0.100000000000D+01
0.184681302552D-04 0.000000000000D+00 0.000000000000D+00 0.269492655472D-02 0.325475424867D-06  5 2 21 25 24 1 2 0.24704561D+00 0.35200363D-02 0.31488267D+05 0.31488267D+05 0.31488267D+05 0.12126977D+01  1  2  1  4  5  2       -1 0.203883726067D+00 0.100000000000D+01
  </mgrwgt>
  </event>
  <event>
  4     66 0.48098993E-03 0.11359835E+03 0.75467711E-02 0.10071544E+00
        2 -1    0    0  501    0 0.00000000E+00 0.00000000E+00 0.61924854E+03 0.61924862E+03 0.32000000E+00 0.0000E+00 0.9000E+01
       -1 -1    0    0    0  501 0.00000000E+00 0.00000000E+00 -.24825442E+02 0.24827504E+02 0.32000000E+00 0.0000E+00 0.9000E+01
       25  1    1    2    0    0 0.47551864E+02 -.18642527E+01 0.46881706E+03 0.48752343E+03 0.12500000E+03 0.0000E+00 0.9000E+01
       24  1    1    2    0    0 -.47551864E+02 0.18642527E+01 0.12560604E+03 0.15655270E+03 0.80419002E+02 0.0000E+00 0.9000E+01
#aMCatNLO 1  0  0  2  2 0.50307967D+03 0.00000000D+00  -5  5  0 0.00000000D+00 0.00000000D+00 0.00000000D+00 0.00000000D+00 0.00000000D+00
  <mgrwgt>
 0.4019930883D+00    3    2    0
 0.123991166359502D+03 0.000000000000000D+00 0.000000000000000D+00 0.123991166359502D+03
 0.123991166359502D+03 0.000000000000000D+00 0.000000000000000D+00 -.123991166359502D+03
 0.142455756044619D+03 0.475518638378151D+02 -.186425266166890D+01 0.490304725431796D+02
 0.105526576674384D+03 -.475518638378151D+02 0.186425266166890D+01 -.490304725431796D+02
 0.000000000000000D+00 -.000000000000000D+00 -.000000000000000D+00 0.000000000000000D+00
 0.549115640613644D+03 0.000000000000000D+00 0.000000000000000D+00 0.549115640613644D+03
 0.515935270492827D+03 0.000000000000000D+00 0.000000000000000D+00 -.515935270492827D+03
 0.417442684326010D+03 0.393061793485706D+03 0.416153092178565D+02 0.490304725431796D+02
 0.143435547488719D+03 0.106081152084934D+03 0.211976947695665D+02 -.490304725431796D+02
 0.504172679291742D+03 -.499142945570640D+03 -.628130039874231D+02 0.331803701208163D+02
0.287650127246D-03 0.000000000000D+00 0.000000000000D+00 0.234179212056D-02 0.000000000000D+00  5 2 -1 25 24 21 0 0.95269171D-01 0.38194637D-02 0.12904585D+05 0.12904585D+05 0.12904585D+05 0.12553417D+01  1  2  2  2  5  2       -1 0.393285314330D+00 0.100000000000D+01
-.158316607761D-04 0.000000000000D+00 -.110465222864D-05 0.234179212056D-02 0.000000000000D+00  5 2 -1 25 24 21 2 0.95269171D-01 0.38194637D-02 0.12904585D+05 0.12904585D+05 0.12904585D+05 0.12553417D+01  1  2  3  2  5  2       -1 -.341109303071D-01 0.100000000000D+01
0.198731372824D-04 0.000000000000D+00 0.000000000000D+00 0.234179212056D-02 0.000000000000D+00  5 2 -1 25 24 21 2 0.95269171D-01 0.38194637D-02 0.12904585D+05 0.12904585D+05 0.12904585D+05 0.12553417D+01  1  2 15  2  5  2       -1 0.428187042665D-01 0.100000000000D+01
  </mgrwgt>
  </event>
  <event>
  4     66 0.48098993E-03 0.14973695E+03 0.75467711E-02 0.11061966E+00
        2 -1    0    0  501    0 0.00000000E+00 0.00000000E+00 0.11786707E+04 0.11786707E+04 0.32000000E+00 0.0000E+00 0.9000E+01
       -1 -1    0    0    0  501 0.00000000E+00 0.00000000E+00 -.42256861E+02 0.42258073E+02 0.32000000E+00 0.0000E+00 0.9000E+01
       25  1    1    2    0    0 0.18367448E+03 0.10595142E+02 0.40055424E+03 0.45816729E+03 0.12500000E+03 0.0000E+00 0.9000E+01
       24  1    1    2    0    0 -.18367448E+03 -.10595142E+02 0.73585955E+03 0.76276148E+03 0.80419002E+02 0.0000E+00 0.9000E+01
#aMCatNLO 1  0  0  1  2 0.90444598D+02 0.00000000D+00  -5  5  0 0.00000000D+00 0.00000000D+00 0.00000000D+00 0.00000000D+00 0.00000000D+00
  <mgrwgt>
 0.4225110200D+00    9    2    0
 0.223176361216405D+03 0.000000000000000D+00 0.000000000000000D+00 0.223176361216405D+03
 0.223176361216405D+03 0.000000000000000D+00 0.000000000000000D+00 -.223176361216405D+03
 0.233434822278002D+03 0.183674477352138D+03 0.105951416889977D+02 -.708395764666279D+02
 0.212917900154808D+03 -.183674477352138D+03 -.105951416889977D+02 0.708395764666279D+02
 0.000000000000000D+00 -.000000000000000D+00 0.000000000000000D+00 0.000000000000000D+00
 0.369871374047358D+03 0.000000000000000D+00 0.000000000000000D+00 0.369871374047358D+03
 0.242097634033165D+03 0.000000000000000D+00 0.000000000000000D+00 -.242097634033165D+03
 0.242349930432788D+03 0.191735460854686D+03 -.364383896137954D+02 -.708395764666279D+02
 0.213074023784582D+03 -.176457108885559D+03 -.527064207394203D+02 0.708395764666279D+02
 0.156545053863154D+03 -.152783519691273D+02 0.891448103532156D+02 0.127773740014193D+03
0.140681737845D-02 0.000000000000D+00 0.000000000000D+00 0.190307286342D-02 0.000000000000D+00  5 2 -1 25 24 21 0 0.18133404D+00 0.65011521D-02 0.44777621D+05 0.44777621D+05 0.44777621D+05 0.11970558D+01  1  2  2  1  5  1        2 0.387948444886D+00 0.100000000000D+01
-.778872641776D-04 0.000000000000D+00 -.540254915676D-05 0.190307286342D-02 0.000000000000D+00  5 2 -1 25 24 21 2 0.18133404D+00 0.65011521D-02 0.44777621D+05 0.44777621D+05 0.44777621D+05 0.11970558D+01  1  2  3  1  5  1        2 -.307773722939D-01 0.100000000000D+01
0.965601716273D-04 0.000000000000D+00 0.000000000000D+00 0.190307286342D-02 0.000000000000D+00  5 2 -1 25 24 21 2 0.18133404D+00 0.65011521D-02 0.44777621D+05 0.44777621D+05 0.44777621D+05 0.11970558D+01  1  2 15  1  5  1        2 0.381560243810D-01 0.100000000000D+01
0.141996146231D-02 0.000000000000D+00 0.000000000000D+00 0.190307286342D-02 0.000000000000D+00  5 2 -1 25 24 21 2 0.30392655D+00 0.65011521D-02 0.68425025D+05 0.68425025D+05 0.68425025D+05 0.11790198D+01  1  2 12  1  5  1        2 0.203560209675D+00 0.100000000000D+01
-.174504626589D-02 0.000000000000D+00 0.000000000000D+00 0.190307286342D-02 0.000000000000D+00  5 2 -1 25 24 21 2 0.18133404D+00 0.65011521D-02 0.44777621D+05 0.44777621D+05 0.44777621D+05 0.11970558D+01  1  2  4  1  5  1        2 -.689559957745D+00 0.100000000000D+01
-.198740699474D-02 0.000000000000D+00 -.491934120889D-03 0.190307286342D-02 0.000000000000D+00  5 2 -1 25 24 21 2 0.30917379D+00 0.65011521D-02 0.44777621D+05 0.44777621D+05 0.44777621D+05 0.11970558D+01  1  2  5  1  5  1        2 -.283811589695D+00 0.100000000000D+01
0.201829112590D-02 0.000000000000D+00 0.429354137757D-03 0.190307286342D-02 0.000000000000D+00  5 2 -1 25 24 21 2 0.18133404D+00 0.65011521D-02 0.44777621D+05 0.44777621D+05 0.44777621D+05 0.11970558D+01  1  2  6  1  5  1        2 0.797533435476D+00 0.100000000000D+01
0.821577439082D-04 0.000000000000D+00 0.000000000000D+00 0.190307286342D-02 0.000000000000D+00  5 21 -1 25 24 -2 2 0.30392655D+00 0.65011521D-02 0.68425025D+05 0.68425025D+05 0.68425025D+05 0.11790198D+01  1  2 12  3  5  1        2 0.367187672246D-02 0.100000000000D+01
-.942667666084D-04 0.000000000000D+00 -.292269961874D-04 0.190307286342D-02 0.000000000000D+00  5 21 -1 25 24 -2 2 0.30917379D+00 0.65011521D-02 0.44777621D+05 0.44777621D+05 0.44777621D+05 0.11970558D+01  1  2  5  3  5  1        2 -.421005142939D-02 0.100000000000D+01
  </mgrwgt>
  </event>
  <event>
  4     66 0.48098993E-03 0.12300882E+03 0.75467711E-02 0.11417760E+00
        2 -1    0    0  501    0 0.00000000E+00 0.00000000E+00 0.53563734E+03 0.53563744E+03 0.32000000E+00 0.0000E+00 0.9000E+01
       -1 -1    0    0    0  501 0.00000000E+00 0.00000000E+00 -.36598848E+02 0.36600246E+02 0.32000000E+00 0.0000E+00 0.9000E+01
       25  1    1    2    0    0 0.66520711E+02 0.25425897E+01 0.14320278E+03 0.20140384E+03 0.12500000E+03 0.0000E+00 0.9000E+01
       24  1    1    2    0    0 -.66520711E+02 -.25425897E+01 0.35583571E+03 0.37083384E+03 0.80419002E+02 0.0000E+00 0.9000E+01
#aMCatNLO 1  0  0  2  2 0.13990333D+03 0.00000000D+00  -5  5  0 0.00000000D+00 0.00000000D+00 0.00000000D+00 0.00000000D+00 0.00000000D+00
  <mgrwgt>
 0.4498866605D+00    3    2    0
 0.140014774058838D+03 0.000000000000000D+00 0.000000000000000D+00 0.140014774058838D+03
 0.140014774058838D+03 0.000000000000000D+00 0.000000000000000D+00 -.140014774058838D+03
 0.156366234301493D+03 0.665207112230913D+02 0.254258971179764D+01 -.662867214874959D+02
 0.123663313816183D+03 -.665207112230913D+02 -.254258971179764D+01 0.662867214874959D+02
 0.000000000000000D+00 -.000000000000000D+00 0.000000000000000D+00 0.000000000000000D+00
 0.455569537152927D+03 0.000000000000000D+00 0.000000000000000D+00 0.455569537152927D+03
 0.172878789956002D+03 0.000000000000000D+00 0.000000000000000D+00 -.172878789956002D+03
 0.203665304935276D+03 0.141803640255104D+03 -.367743742192744D+02 -.662867214874959D+02
 0.109367423566243D+03 -.177937677396715D+02 -.279905299559180D+02 0.662867214874959D+02
 0.315415598607411D+03 -.124009872515432D+03 0.647649041751924D+02 0.282690747196925D+03
0.481049680268D-03 0.000000000000D+00 0.000000000000D+00 0.199576908086D-02 0.000000000000D+00  5 2 -1 25 24 21 0 0.82405860D-01 0.56307069D-02 0.15131169D+05 0.15131169D+05 0.15131169D+05 0.12473917D+01  1  2  2  2  5  2       -1 0.439870138429D+00 0.100000000000D+01
-.261801232513D-04 0.000000000000D+00 -.184735743552D-05 0.199576908086D-02 0.000000000000D+00  5 2 -1 25 24 21 2 0.82405860D-01 0.56307069D-02 0.15131169D+05 0.15131169D+05 0.15131169D+05 0.12473917D+01  1  2  3  2  5  2       -1 -.372487699515D-01 0.100000000000D+01
0.332201887768D-04 0.000000000000D+00 0.000000000000D+00 0.199576908086D-02 0.000000000000D+00  5 2 -1 25 24 21 2 0.82405860D-01 0.56307069D-02 0.15131169D+05 0.15131169D+05 0.15131169D+05 0.12473917D+01  1  2 15  2  5  2       -1 0.472652919779D-01 0.100000000000D+01
  </mgrwgt>
  </event>
  <event>
  4     66 0.48098993E-03 0.82070939E+02 0.75467711E-02 0.12075015E+00
        2 -1    0    0  501    0 0.00000000E+00 0.00000000E+00 0.83837848E+03 0.83837855E+03 0.32000000E+00 0.0000E+00 0.9000E+01
       -1 -1    0    0    0  501 0.00000000E+00 0.00000000E+00 -.21550960E+02 0.21553336E+02 0.32000000E+00 0.0000E+00 0.9000E+01
       25  1    1    2    0    0 -.59339765E+02 0.50330168E+02 0.57363843E+03 0.59223339E+03 0.12500000E+03 0.0000E+00 0.9000E+01
       24  1    1    2    0    0 0.59339765E+02 -.50330168E+02 0.24318909E+03 0.26769850E+03 0.80419002E+02 0.0000E+00 0.9000E+01
#aMCatNLO 1  0  0  2  1 0.28177295D+02 0.00000000D+00  -5  5  0 0.00000000D+00 0.00000000D+00 0.00000000D+00 0.00000000D+00 0.00000000D+00
  <mgrwgt>
 0.5340168026D+00    6    2    0
 0.134420642192934D+03 0.000000000000000D+00 0.000000000000000D+00 0.134420642192934D+03
 0.134420642192934D+03 0.000000000000000D+00 0.000000000000000D+00 -.134420642192934D+03
 0.151452594830992D+03 -.593397654751787D+02 0.503301679033572D+02 0.354761175047561D+02
 0.117388689554876D+03 0.593397654751787D+02 -.503301679033572D+02 -.354761175047561D+02
 0.000000000000000D+00 0.000000000000000D+00 0.000000000000000D+00 0.000000000000000D+00
 0.151270082599722D+03 0.000000000000000D+00 0.000000000000000D+00 0.151270082599722D+03
 0.147475458526213D+03 0.000000000000000D+00 0.000000000000000D+00 -.147475458526213D+03
 0.152400465253222D+03 -.697860728719033D+02 0.383699221957087D+02 0.354761175047561D+02
 0.117913419185521D+03 0.512502035062505D+02 -.595921152251415D+02 -.354761175047561D+02
 0.284316566871913D+02 0.185358693656529D+02 0.212221930294329D+02 0.379462407350900D+01
0.313208270865D-03 0.000000000000D+00 0.000000000000D+00 0.240427445428D-02 0.000000000000D+00  5 2 -1 25 24 21 0 0.12898149D+00 0.33157198D-02 0.16788225D+05 0.16788225D+05 0.16788225D+05 0.12422846D+01  1  2  2  2  5  2       -1 0.369846772660D+00 0.100000000000D+01
-.173718747694D-04 0.000000000000D+00 -.120280222975D-05 0.240427445428D-02 0.000000000000D+00  5 2 -1 25 24 21 2 0.12898149D+00 0.33157198D-02 0.16788225D+05 0.16788225D+05 0.16788225D+05 0.12422846D+01  1  2  3  2  5  2       -1 -.316575650197D-01 0.100000000000D+01
0.216049025125D-04 0.000000000000D+00 0.000000000000D+00 0.240427445428D-02 0.000000000000D+00  5 2 -1 25 24 21 2 0.12898149D+00 0.33157198D-02 0.16788225D+05 0.16788225D+05 0.16788225D+05 0.12422846D+01  1  2 15  2  5  2       -1 0.393716058348D-01 0.100000000000D+01
0.219358889280D-03 0.000000000000D+00 0.000000000000D+00 0.240427445428D-02 0.000000000000D+00  5 2 -1 25 24 21 2 0.12898149D+00 0.38241918D-02 0.20857313D+05 0.20857313D+05 0.20857313D+05 0.12318243D+01  1  2 12  2  5  2       -1 0.321051832408D+00 0.100000000000D+01
-.161365393596D-03 0.000000000000D+00 0.000000000000D+00 0.240427445428D-02 0.000000000000D+00  5 2 -1 25 24 21 2 0.12898149D+00 0.33157198D-02 0.16788225D+05 0.16788225D+05 0.16788225D+05 0.12422846D+01  1  2  4  2  5  2       -1 -.294063565821D+00 0.100000000000D+01
0.480409788725D-05 0.000000000000D+00 0.000000000000D+00 0.240427445428D-02 0.000000000000D+00  5 2 21 25 24 1 2 0.12898149D+00 0.38241918D-02 0.20857313D+05 0.20857313D+05 0.20857313D+05 0.12318243D+01  1  2 12  4  5  2       -1 0.129467722556D+00 0.100000000000D+01
  </mgrwgt>
  </event>
  <event>
  4     66 0.48098993E-03 0.13870047E+03 0.75467711E-02 0.97817997E-01
        2 -1    0    0  501    0 0.00000000E+00 0.00000000E+00 0.59444866E+03 0.59444874E+03 0.32000000E+00 0.0000E+00 0.9000E+01
       -1 -1    0    0    0  501 0.00000000E+00 0.00000000E+00 -.35970998E+02 0.35972422E+02 0.32000000E+00 0.0000E+00 0.9000E+01
       25  1    1    2    0    0 0.39810535E+02 0.82941512E+02 0.40834451E+03 0.43684599E+03 0.12500000E+03 0.0000E+00 0.9000E+01
       24  1    1    2    0    0 -.39810535E+02 -.82941512E+02 0.15013315E+03 0.19357518E+03 0.80419002E+02 0.0000E+00 0.9000E+01
#aMCatNLO 1  0  0  2  1 0.63482417D+03 0.00000000D+00  -5  5  0 0.00000000D+00 0.00000000D+00 0.00000000D+00 0.00000000D+00 0.00000000D+00
  <mgrwgt>
 0.4868380424D+00    3    2    0
 0.146230597308402D+03 0.000000000000000D+00 0.000000000000000D+00 0.146230597308402D+03
 0.146230597308402D+03 0.000000000000000D+00 0.000000000000000D+00 -.146230597308402D+03
 0.161887006114412D+03 0.398105347955180D+02 0.829415120829252D+02 0.460242288515562D+02
 0.130574188502392D+03 -.398105347955180D+02 -.829415120829252D+02 -.460242288515562D+02
 0.000000000000000D+00 0.000000000000000D+00 0.000000000000000D+00 0.000000000000000D+00
 0.919993987536403D+03 0.000000000000000D+00 0.000000000000000D+00 0.919993987536403D+03
 0.526071314013524D+03 0.000000000000000D+00 0.000000000000000D+00 -.526071314013524D+03
 0.237177742202810D+03 -.195537050768979D+03 -.165925745926212D+02 0.460242288515562D+02
 0.461775248309204D+03 -.389147353825400D+03 -.230684354402210D+03 -.460242288515562D+02
 0.747112311037913D+03 0.584684404594379D+03 0.247276928994832D+03 0.393922673522879D+03
0.566959580618D-03 0.000000000000D+00 0.000000000000D+00 0.222125238123D-02 0.000000000000D+00  5 2 -1 25 24 21 0 0.91453756D-01 0.55341159D-02 0.19237820D+05 0.19237820D+05 0.19237820D+05 0.12356881D+01  1  2  2  2  5  2       -1 0.476905308131D+00 0.100000000000D+01
-.313907138425D-04 0.000000000000D+00 -.217727407346D-05 0.222125238123D-02 0.000000000000D+00  5 2 -1 25 24 21 2 0.91453756D-01 0.55341159D-02 0.19237820D+05 0.19237820D+05 0.19237820D+05 0.12356881D+01  1  2  3  2  5  2       -1 -.403179983153D-01 0.100000000000D+01
0.391241240254D-04 0.000000000000D+00 0.000000000000D+00 0.222125238123D-02 0.000000000000D+00  5 2 -1 25 24 21 2 0.91453756D-01 0.55341159D-02 0.19237820D+05 0.19237820D+05 0.19237820D+05 0.12356881D+01  1  2 15  2  5  2       -1 0.502507325719D-01 0.100000000000D+01
  </mgrwgt>
  </event>
  <event>
  4     66 0.48098993E-03 0.11656326E+03 0.75467711E-02 0.11178436E+00
        2 -1    0    0  501    0 0.00000000E+00 0.00000000E+00 0.15608448E+03 0.15608480E+03 0.32000000E+00 0.0000E+00 0.9000E+01
       -1 -1    0    0    0  501 0.00000000E+00 0.00000000E+00 -.93483797E+02 0.93484345E+02 0.32000000E+00 0.0000E+00 0.9000E+01
       25  1    1    2    0    0 0.52056464E+02 0.14723736E+02 0.68516077E+02 0.15246677E+03 0.12500000E+03 0.0000E+00 0.9000E+01
       24  1    1    2    0    0 -.52056464E+02 -.14723736E+02 -.59153969E+01 0.97102377E+02 0.80419002E+02 0.0000E+00 0.9000E+01
#aMCatNLO 1  0  0  1  2 0.18693240D+03 0.00000000D+00  -5  5  0 0.00000000D+00 0.00000000D+00 0.00000000D+00 0.00000000D+00 0.00000000D+00
  <mgrwgt>
 0.4621294255D+00    3    2    0
 0.120795193669866D+03 0.000000000000000D+00 0.000000000000000D+00 0.120795193669866D+03
 0.120795193669866D+03 0.000000000000000D+00 0.000000000000000D+00 -.120795193669866D+03
 0.139748315411319D+03 0.520564638652571D+02 0.147237355220511D+02 0.312718378485084D+02
 0.101842071928413D+03 -.520564638652571D+02 -.147237355220511D+02 -.312718378485084D+02
 0.000000000000000D+00 0.000000000000000D+00 0.000000000000000D+00 -.000000000000000D+00
 0.156783343689596D+03 0.000000000000000D+00 0.000000000000000D+00 0.156783343689596D+03
 0.230963986534949D+04 0.000000000000000D+00 0.000000000000000D+00 -.230963986534949D+04
 0.142843519396462D+03 -.763442830800178D+01 -.611805418050059D+02 0.312718378485084D+02
 0.162622743036889D+03 -.107918448569990D+03 -.857590882314789D+02 -.312718378485084D+02
 0.216095694660573D+04 0.115552876877992D+03 0.146939630036485D+03 -.215285652165989D+04
0.548501521720D-03 0.000000000000D+00 0.000000000000D+00 0.260757137920D-02 0.000000000000D+00  5 2 -1 25 24 21 0 0.24013064D-01 0.14382190D-01 0.13586994D+05 0.13586994D+05 0.13586994D+05 0.12527509D+01  1  2  2  1  5  1        2 0.452563164110D+00 0.100000000000D+01
-.304251865800D-04 0.000000000000D+00 -.210639026717D-05 0.260757137920D-02 0.000000000000D+00  5 2 -1 25 24 21 2 0.24013064D-01 0.14382190D-01 0.13586994D+05 0.13586994D+05 0.13586994D+05 0.12527509D+01  1  2  3  1  5  1        2 -.393970808549D-01 0.100000000000D+01
0.378129239907D-04 0.000000000000D+00 0.000000000000D+00 0.260757137920D-02 0.000000000000D+00  5 2 -1 25 24 21 2 0.24013064D-01 0.14382190D-01 0.13586994D+05 0.13586994D+05 0.13586994D+05 0.12527509D+01  1  2 15  1  5  1        2 0.489633422594D-01 0.100000000000D+01
  </mgrwgt>
  </event>
  <event>
  4     66 0.48098993E-03 0.12227843E+03 0.75467711E-02 0.10891872E+00
        2 -1    0    0  501    0 0.00000000E+00 0.00000000E+00 0.10181388E+04 0.10181389E+04 0.32000000E+00 0.0000E+00 0.9000E+01
       -1 -1    0    0    0  501 0.00000000E+00 0.00000000E+00 -.14684524E+02 0.14688010E+02 0.32000000E+00 0.0000E+00 0.9000E+01
       25  1    1    2    0    0 -.62223945E+02 -.19612426E+02 0.58202480E+03 0.59886086E+03 0.12500000E+03 0.0000E+00 0.9000E+01
       24  1    1    2    0    0 0.62223945E+02 0.19612426E+02 0.42142949E+03 0.43396601E+03 0.80419002E+02 0.0000E+00 0.9000E+01
#aMCatNLO 1  0  0  2  2 0.24107251D+03 0.00000000D+00  -5  5  0 0.00000000D+00 0.00000000D+00 0.00000000D+00 0.00000000D+00 0.00000000D+00
  <mgrwgt>
 0.4253122696D+00    3    2    0
 0.122281272850105D+03 0.000000000000000D+00 0.000000000000000D+00 0.122281272850105D+03
 0.122281272850105D+03 0.000000000000000D+00 0.000000000000000D+00 -.122281272850105D+03
 0.141004058097964D+03 -.622239446580814D+02 -.196124263704162D+02 0.823312302181699D+00
 0.103558487602245D+03 0.622239446580814D+02 0.196124263704162D+02 -.823312302181699D+00
 0.000000000000000D+00 -.000000000000000D+00 -.000000000000000D+00 0.000000000000000D+00
 0.326339275404140D+03 0.000000000000000D+00 0.000000000000000D+00 0.326339275404140D+03
 0.265657849803052D+03 0.000000000000000D+00 0.000000000000000D+00 -.265657849803052D+03
 0.134584212116935D+03 0.383599184682309D+02 0.318708167937344D+02 0.823312302181699D+00
 0.208820495682673D+03 0.176235636352238D+03 0.779686225295886D+02 -.823312302181699D+00
 0.248592417407585D+03 -.214595554820468D+03 -.109839439323323D+03 0.606814256010883D+02
0.262310413599D-03 0.000000000000D+00 0.000000000000D+00 0.274138702841D-02 0.000000000000D+00  5 2 -1 25 24 21 0 0.15663701D+00 0.22594295D-02 0.14952016D+05 0.14952016D+05 0.14952016D+05 0.12479812D+01  1  2  2  2  5  2       -1 0.416407198235D+00 0.100000000000D+01
-.145728007460D-04 0.000000000000D+00 -.100734105614D-05 0.274138702841D-02 0.000000000000D+00  5 2 -1 25 24 21 2 0.15663701D+00 0.22594295D-02 0.14952016D+05 0.14952016D+05 0.14952016D+05 0.12479812D+01  1  2  3  2  5  2       -1 -.360297964337D-01 0.100000000000D+01
0.181745927083D-04 0.000000000000D+00 0.000000000000D+00 0.274138702841D-02 0.000000000000D+00  5 2 -1 25 24 21 2 0.15663701D+00 0.22594295D-02 0.14952016D+05 0.14952016D+05 0.14952016D+05 0.12479812D+01  1  2 15  2  5  2       -1 0.449348678378D-01 0.100000000000D+01
  </mgrwgt>
  </event>
  <event>
  4     66 0.48098993E-03 0.11746138E+03 0.75467711E-02 0.11521600E+00
        2 -1    0    0  501    0 0.00000000E+00 0.00000000E+00 0.47978415E+03 0.47978426E+03 0.32000000E+00 0.0000E+00 0.9000E+01
       -1 -1    0    0    0  501 0.00000000E+00 0.00000000E+00 -.58943762E+02 0.58944631E+02 0.32000000E+00 0.0000E+00 0.9000E+01
       25  1    1    2    0    0 -.22432834E+02 -.12308639E+03 0.29477208E+03 0.34375728E+03 0.12500000E+03 0.0000E+00 0.9000E+01
       24  1    1    2    0    0 0.22432834E+02 0.12308639E+03 0.12606831E+03 0.19497161E+03 0.80419002E+02 0.0000E+00 0.9000E+01
#aMCatNLO 1  0  0  2  1 0.63135304D+02 0.00000000D+00  -5  5  0 0.00000000D+00 0.00000000D+00 0.00000000D+00 0.00000000D+00 0.00000000D+00
  <mgrwgt>
 0.4335268800D+00    9    2    0
 0.168168206166479D+03 0.000000000000000D+00 0.000000000000000D+00 0.168168206166479D+03
 0.168168206166479D+03 0.000000000000000D+00 0.000000000000000D+00 -.168168206166479D+03
 0.181782230265308D+03 -.224328335084853D+02 -.123086391942509D+03 0.420272214116652D+02
 0.154554182067649D+03 0.224328335084853D+02 0.123086391942509D+03 -.420272214116652D+02
 0.000000000000000D+00 -.000000000000000D+00 0.000000000000000D+00 -.000000000000000D+00
 0.179024160686995D+03 0.000000000000000D+00 0.000000000000000D+00 0.179024160686995D+03
 0.296948115250827D+03 0.000000000000000D+00 0.000000000000000D+00 -.296948115250827D+03
 0.207745208601895D+03 -.201115319665670D+02 -.159255488569209D+03 0.420272214116652D+02
 0.134465616619592D+03 0.241551822762349D+02 0.962498100160895D+02 -.420272214116652D+02
 0.133761450716335D+03 -.404365030966787D+01 0.630056785531191D+02 -.117923954563832D+03
0.826958646716D-03 0.000000000000D+00 0.000000000000D+00 0.215689114704D-02 0.000000000000D+00  5 2 -1 25 24 21 0 0.73813021D-01 0.90683461D-02 0.26501819D+05 0.26501819D+05 0.26501819D+05 0.12205906D+01  1  2  2  2  5  2       -1 0.423884075128D+00 0.100000000000D+01
-.458832172100D-04 0.000000000000D+00 -.317573894660D-05 0.215689114704D-02 0.000000000000D+00  5 2 -1 25 24 21 2 0.73813021D-01 0.90683461D-02 0.26501819D+05 0.26501819D+05 0.26501819D+05 0.12205906D+01  1  2  3  2  5  2       -1 -.350394463224D-01 0.100000000000D+01
0.569997092133D-04 0.000000000000D+00 0.000000000000D+00 0.215689114704D-02 0.000000000000D+00  5 2 -1 25 24 21 2 0.73813021D-01 0.90683461D-02 0.26501819D+05 0.26501819D+05 0.26501819D+05 0.12205906D+01  1  2 15  2  5  2       -1 0.435287316980D-01 0.100000000000D+01
0.110060881946D-02 0.000000000000D+00 0.000000000000D+00 0.215689114704D-02 0.000000000000D+00  5 2 -1 25 24 21 2 0.73813021D-01 0.16106215D-01 0.38870899D+05 0.38870899D+05 0.38870899D+05 0.12032651D+01  1  2 12  2  5  2       -1 0.336463388708D+00 0.100000000000D+01
-.119980746272D-02 0.000000000000D+00 0.000000000000D+00 0.215689114704D-02 0.000000000000D+00  5 2 -1 25 24 21 2 0.73813021D-01 0.90683461D-02 0.26501819D+05 0.26501819D+05 0.26501819D+05 0.12205906D+01  1  2  4  2  5  2       -1 -.916251992415D+00 0.100000000000D+01
-.134516605972D-02 0.000000000000D+00 -.254949784017D-03 0.215689114704D-02 0.000000000000D+00  5 2 -1 25 24 21 2 0.73813021D-01 0.16922929D-01 0.26501819D+05 0.26501819D+05 0.26501819D+05 0.12205906D+01  1  2  5  2  5  2       -1 -.389479509777D+00 0.100000000000D+01
0.128799667612D-02 0.000000000000D+00 0.212279893106D-03 0.215689114704D-02 0.000000000000D+00  5 2 -1 25 24 21 2 0.73813021D-01 0.90683461D-02 0.26501819D+05 0.26501819D+05 0.26501819D+05 0.12205906D+01  1  2  6  2  5  2       -1 0.983599083510D+00 0.100000000000D+01
0.695571505228D-04 0.000000000000D+00 0.000000000000D+00 0.215689114704D-02 0.000000000000D+00  5 2 21 25 24 1 2 0.73813021D-01 0.16106215D-01 0.38870899D+05 0.38870899D+05 0.38870899D+05 0.12032651D+01  1  2 12  4  5  2       -1 0.282951960372D+00 0.100000000000D+01
-.771675001044D-04 0.000000000000D+00 -.173262095518D-04 0.215689114704D-02 0.000000000000D+00  5 2 21 25 24 1 2 0.73813021D-01 0.16922929D-01 0.26501819D+05 0.26501819D+05 0.26501819D+05 0.12205906D+01  1  2  5  4  5  2       -1 -.296129410868D+00 0.100000000000D+01
  </mgrwgt>
  </event>
  <event>
  4     66 0.48098993E-03 0.12415711E+03 0.75467711E-02 0.11418356E+00
        2 -1    0    0  501    0 0.00000000E+00 0.00000000E+00 0.19284596E+04 0.19284596E+04 0.32000000E+00 0.0000E+00 0.9000E+01
       -1 -1    0    0    0  501 0.00000000E+00 0.00000000E+00 -.81036700E+01 0.81099857E+01 0.32000000E+00 0.0000E+00 0.9000E+01
       25  1    1    2    0    0 -.97853286E+01 -.67920235E+02 0.12140741E+04 0.12224196E+04 0.12500000E+03 0.0000E+00 0.9000E+01
       24  1    1    2    0    0 0.97853286E+01 0.67920235E+02 0.70628183E+03 0.71414995E+03 0.80419002E+02 0.0000E+00 0.9000E+01
#aMCatNLO 1  0  0  2  1 0.13611379D+03 0.00000000D+00  -5  5  0 0.00000000D+00 0.00000000D+00 0.00000000D+00 0.00000000D+00 0.00000000D+00
  <mgrwgt>
 0.3645223566D+00    5    2    0
 0.125034958698038D+03 0.000000000000000D+00 0.000000000000000D+00 0.125034958698038D+03
 0.125034958698038D+03 0.000000000000000D+00 0.000000000000000D+00 -.125034958698038D+03
 0.143345405914136D+03 -.978532857764474D+01 -.679202345548616D+02 0.146285501444444D+02
 0.106724511481941D+03 0.978532857764474D+01 0.679202345548616D+02 -.146285501444444D+02
 0.000000000000000D+00 -.000000000000000D+00 -.000000000000000D+00 -.000000000000000D+00
 0.177024163144358D+03 0.000000000000000D+00 0.000000000000000D+00 0.177024163144358D+03
 0.275962439168517D+03 0.000000000000000D+00 0.000000000000000D+00 -.275962439168517D+03
 0.144967874723499D+03 0.587103135762998D+02 -.415907357748352D+02 0.146285501444444D+02
 0.139745891292754D+03 0.683402049699408D+02 0.904285357847489D+02 -.146285501444444D+02
 0.168272836296622D+03 -.127050518546241D+03 -.488378000099137D+02 -.989382760241598D+02
0.279275769301D-03 0.000000000000D+00 0.000000000000D+00 0.266277730495D-02 0.000000000000D+00  5 2 -1 25 24 21 0 0.29668657D+00 0.12472063D-02 0.15414989D+05 0.15414989D+05 0.15414989D+05 0.12464737D+01  1  2  2  2  5  2       -1 0.342900045778D+00 0.100000000000D+01
-.155143840892D-04 0.000000000000D+00 -.107249248911D-05 0.266277730495D-02 0.000000000000D+00  5 2 -1 25 24 21 2 0.29668657D+00 0.12472063D-02 0.15414989D+05 0.15414989D+05 0.15414989D+05 0.12464737D+01  1  2  3  2  5  2       -1 -.295961374838D-01 0.100000000000D+01
0.193433018737D-04 0.000000000000D+00 0.000000000000D+00 0.266277730495D-02 0.000000000000D+00  5 2 -1 25 24 21 2 0.29668657D+00 0.12472063D-02 0.15414989D+05 0.15414989D+05 0.15414989D+05 0.12464737D+01  1  2 15  2  5  2       -1 0.369004027716D-01 0.100000000000D+01
-.354045763171D-05 0.000000000000D+00 -.877997604273D-04 0.266277730495D-02 0.000000000000D+00  5 2 -1 25 24 21 2 0.29668657D+00 0.42456712D-02 0.15414989D+05 0.15414989D+05 0.15414989D+05 0.12464737D+01  1  2  5  2  5  2       -1 -.115068166223D-02 0.100000000000D+01
0.262648767329D-05 0.000000000000D+00 -.125238426364D-04 0.266277730495D-02 0.000000000000D+00  5 2 21 25 24 1 2 0.29668657D+00 0.42456712D-02 0.15414989D+05 0.15414989D+05 0.15414989D+05 0.12464737D+01  1  2  5  4  5  2       -1 0.154687272310D-01 0.100000000000D+01
  </mgrwgt>
  </event>
  <event>
  4     66 0.48098993E-03 0.13625600E+03 0.75467711E-02 0.11540695E+00
        2 -1    0    0  501    0 0.00000000E+00 0.00000000E+00 0.38264069E+03 0.38264083E+03 0.32000000E+00 0.0000E+00 0.9000E+01
       -1 -1    0    0    0  501 0.00000000E+00 0.00000000E+00 -.10808707E+03 0.10808755E+03 0.32000000E+00 0.0000E+00 0.9000E+01
       25  1    1    2    0    0 -.14009701E+03 -.47213425E+02 0.25665168E+03 0.32148307E+03 0.12500000E+03 0.0000E+00 0.9000E+01
       24  1    1    2    0    0 0.14009701E+03 0.47213425E+02 0.17901942E+02 0.16924531E+03 0.80419002E+02 0.0000E+00 0.9000E+01
#aMCatNLO 1  0  0  2  1 0.27347228D+02 0.00000000D+00  -5  5  0 0.00000000D+00 0.00000000D+00 0.00000000D+00 0.00000000D+00 0.00000000D+00
  <mgrwgt>
 0.3544278337D+00    9    2    0
 0.203368290980586D+03 0.000000000000000D+00 0.000000000000000D+00 0.203368290980586D+03
 0.203368290980586D+03 0.000000000000000D+00 0.000000000000000D+00 -.203368290980586D+03
 0.214625926083719D+03 -.140097006280385D+03 -.472134247516982D+02 0.926445330377547D+02
 0.192110655877452D+03 0.140097006280385D+03 0.472134247516982D+02 -.926445330377547D+02
 0.000000000000000D+00 0.000000000000000D+00 -.000000000000000D+00 -.000000000000000D+00
 0.207223730009420D+03 0.000000000000000D+00 0.000000000000000D+00 0.207223730009420D+03
 0.258878194971067D+03 0.000000000000000D+00 0.000000000000000D+00 -.258878194971067D+03
 0.223363437692622D+03 -.154286823030188D+03 -.433450347252576D+02 0.926445330377547D+02
 0.184291462940332D+03 0.127902470220854D+03 0.505378666737842D+02 -.926445330377547D+02
 0.584470243475333D+02 0.263843528093339D+02 -.719283194852664D+01 -.516544649616468D+02
0.115873744486D-02 0.000000000000D+00 0.000000000000D+00 0.172796136425D-02 0.000000000000D+00  5 2 -1 25 24 21 0 0.58867846D-01 0.16628827D-01 0.32742301D+05 0.32742301D+05 0.32742301D+05 0.12109315D+01  1  2  2  2  5  2       -1 0.296847480516D+00 0.100000000000D+01
-.633063994223D-04 0.000000000000D+00 -.444985689084D-05 0.172796136425D-02 0.000000000000D+00  5 2 -1 25 24 21 2 0.58867846D-01 0.16628827D-01 0.32742301D+05 0.32742301D+05 0.32742301D+05 0.12109315D+01  1  2  3  2  5  2       -1 -.237812737915D-01 0.100000000000D+01
0.798083095919D-04 0.000000000000D+00 0.000000000000D+00 0.172796136425D-02 0.000000000000D+00  5 2 -1 25 24 21 2 0.58867846D-01 0.16628827D-01 0.32742301D+05 0.32742301D+05 0.32742301D+05 0.12109315D+01  1  2 15  2  5  2       -1 0.299802749573D-01 0.100000000000D+01
0.447260345289D-02 0.000000000000D+00 0.000000000000D+00 0.172796136425D-02 0.000000000000D+00  5 2 -1 25 24 21 2 0.58867846D-01 0.21295322D-01 0.38006189D+05 0.38006189D+05 0.38006189D+05 0.12042618D+01  1  2 12  2  5  2       -1 0.111805011564D+01 0.100000000000D+01
-.446658637935D-02 0.000000000000D+00 0.000000000000D+00 0.172796136425D-02 0.000000000000D+00  5 2 -1 25 24 21 2 0.58867846D-01 0.16628827D-01 0.32742301D+05 0.32742301D+05 0.32742301D+05 0.12109315D+01  1  2  4  2  5  2       -1 -.167788903760D+01 0.100000000000D+01
-.547723175653D-02 0.000000000000D+00 -.626190218356D-03 0.172796136425D-02 0.000000000000D+00  5 2 -1 25 24 21 2 0.58867846D-01 0.21484505D-01 0.32742301D+05 0.32742301D+05 0.32742301D+05 0.12109315D+01  1  2  5  2  5  2       -1 -.136247892991D+01 0.100000000000D+01
0.547693492903D-02 0.000000000000D+00 0.606187465659D-03 0.172796136425D-02 0.000000000000D+00  5 2 -1 25 24 21 2 0.58867846D-01 0.16628827D-01 0.32742301D+05 0.32742301D+05 0.32742301D+05 0.12109315D+01  1  2  6  2  5  2       -1 0.205743005879D+01 0.100000000000D+01
0.150180944076D-03 0.000000000000D+00 0.000000000000D+00 0.172796136425D-02 0.000000000000D+00  5 2 21 25 24 1 2 0.58867846D-01 0.21295322D-01 0.38006189D+05 0.38006189D+05 0.38006189D+05 0.12042618D+01  1  2 12  4  5  2       -1 0.466623026026D+00 0.100000000000D+01
-.177816126376D-03 0.000000000000D+00 -.215777058750D-04 0.172796136425D-02 0.000000000000D+00  5 2 21 25 24 1 2 0.58867846D-01 0.21484505D-01 0.32742301D+05 0.32742301D+05 0.32742301D+05 0.12109315D+01  1  2  5  4  5  2       -1 -.550353880940D+00 0.100000000000D+01
  </mgrwgt>
  </event>
  <event>
  4     66 0.48098993E-03 0.71857146E+02 0.75467711E-02 0.11947731E+00
        2 -1    0    0  501    0 0.00000000E+00 0.00000000E+00 0.44468165E+03 0.44468176E+03 0.32000000E+00 0.0000E+00 0.9000E+01
       -1 -1    0    0    0  501 0.00000000E+00 0.00000000E+00 -.32902554E+02 0.32904110E+02 0.32000000E+00 0.0000E+00 0.9000E+01
       25  1    1    2    0    0 0.26633927E+02 0.51391480E+02 0.19002277E+03 0.23470003E+03 0.12500000E+03 0.0000E+00 0.9000E+01
       24  1    1    2    0    0 -.26633927E+02 -.51391480E+02 0.22175633E+03 0.24288585E+03 0.80419002E+02 0.0000E+00 0.9000E+01
#aMCatNLO 1  0  0  1  2 0.64138262D+02 0.00000000D+00  -5  5  0 0.00000000D+00 0.00000000D+00 0.00000000D+00 0.00000000D+00 0.00000000D+00
  <mgrwgt>
 0.2764559423D+00    9    2    0
 0.120960990083538D+03 0.000000000000000D+00 0.000000000000000D+00 0.120960990083538D+03
 0.120960990083538D+03 0.000000000000000D+00 0.000000000000000D+00 -.120960990083538D+03
 0.139888133535540D+03 0.266339274416332D+02 0.513914803156628D+02 -.243565096854164D+02
 0.102033846631535D+03 -.266339274416332D+02 -.513914803156628D+02 0.243565096854164D+02
 0.000000000000000D+00 -.000000000000000D+00 0.000000000000000D+00 0.000000000000000D+00
 0.205487881256212D+03 0.000000000000000D+00 0.000000000000000D+00 0.205487881256212D+03
 0.137939569210926D+03 0.000000000000000D+00 0.000000000000000D+00 -.137939569210926D+03
 0.147278564131518D+03 0.622626351969883D+02 0.399512220953589D+02 -.243565096854164D+02
 0.103001201694306D+03 -.119527499427983D+01 -.595597460516140D+02 0.243565096854164D+02
 0.931476846413140D+02 -.610673602027085D+02 0.196085239562552D+02 0.675483120452858D+02
0.229202919411D-03 0.000000000000D+00 0.000000000000D+00 0.266808618372D-02 0.000000000000D+00  5 2 -1 25 24 21 0 0.68412690D-01 0.50620600D-02 0.14022769D+05 0.14022769D+05 0.14022769D+05 0.12511718D+01  1  2  2  1  5  1        2 0.299613571850D+00 0.100000000000D+01
-.127265048725D-04 0.000000000000D+00 -.880199561052D-06 0.266808618372D-02 0.000000000000D+00  5 2 -1 25 24 21 2 0.68412690D-01 0.50620600D-02 0.14022769D+05 0.14022769D+05 0.14022769D+05 0.12511718D+01  1  2  3  1  5  1        2 -.260426013107D-01 0.100000000000D+01
0.158794856657D-04 0.000000000000D+00 0.000000000000D+00 0.266808618372D-02 0.000000000000D+00  5 2 -1 25 24 21 2 0.68412690D-01 0.50620600D-02 0.14022769D+05 0.14022769D+05 0.14022769D+05 0.12511718D+01  1  2 15  1  5  1        2 0.324946337077D-01 0.100000000000D+01
0.116291785482D-03 0.000000000000D+00 0.000000000000D+00 0.266808618372D-02 0.000000000000D+00  5 2 -1 25 24 21 2 0.11818297D+00 0.50620600D-02 0.23942745D+05 0.23942745D+05 0.23942745D+05 0.12253147D+01  1  2 12  1  5  1        2 0.124624896575D+00 0.100000000000D+01
-.207264209838D-03 0.000000000000D+00 0.000000000000D+00 0.266808618372D-02 0.000000000000D+00  5 2 -1 25 24 21 2 0.68412690D-01 0.50620600D-02 0.14022769D+05 0.14022769D+05 0.14022769D+05 0.12511718D+01  1  2  4  1  5  1        2 -.424130524198D+00 0.100000000000D+01
-.227016845756D-03 0.000000000000D+00 -.856556141639D-04 0.266808618372D-02 0.000000000000D+00  5 2 -1 25 24 21 2 0.12649001D+00 0.50620600D-02 0.14022769D+05 0.14022769D+05 0.14022769D+05 0.12511718D+01  1  2  5  1  5  1        2 -.230088290206D+00 0.100000000000D+01
0.245739636335D-03 0.000000000000D+00 0.716849180236D-04 0.266808618372D-02 0.000000000000D+00  5 2 -1 25 24 21 2 0.68412690D-01 0.50620600D-02 0.14022769D+05 0.14022769D+05 0.14022769D+05 0.12511718D+01  1  2  6  1  5  1        2 0.502863860850D+00 0.100000000000D+01
0.704901650583D-05 0.000000000000D+00 0.000000000000D+00 0.266808618372D-02 0.000000000000D+00  5 21 -1 25 24 -2 2 0.11818297D+00 0.50620600D-02 0.23942745D+05 0.23942745D+05 0.23942745D+05 0.12253147D+01  1  2 12  3  5  1        2 0.892829312722D-02 0.100000000000D+01
-.104912867261D-04 0.000000000000D+00 -.574326484744D-05 0.266808618372D-02 0.000000000000D+00  5 21 -1 25 24 -2 2 0.12649001D+00 0.50620600D-02 0.14022769D+05 0.14022769D+05 0.14022769D+05 0.12511718D+01  1  2  5  3  5  1        2 -.118078981161D-01 0.100000000000D+01
  </mgrwgt>
  </event>
  <event>
  5     66 0.48098993E-03 0.19451905E+03 0.75467711E-02 0.11280902E+00
        2 -1    0    0  502    0 0.00000000E+00 0.00000000E+00 0.82622235E+03 0.82622242E+03 0.32000000E+00 0.0000E+00 0.9000E+01
       -1 -1    0    0    0  501 0.00000000E+00 0.00000000E+00 -.67045800E+02 0.67046564E+02 0.32000000E+00 0.0000E+00 0.9000E+01
       25  1    1    2    0    0 -.66957572E+02 -.14226783E+03 0.44337509E+03 0.48675448E+03 0.12500000E+03 0.0000E+00 0.9000E+01
       24  1    1    2    0    0 0.14381779E+02 0.17497993E+03 0.22359995E+03 0.29544706E+03 0.80419002E+02 0.0000E+00 0.9000E+01
       21  1    1    2  502  501 0.52575793E+02 -.32712095E+02 0.92201512E+02 0.11106744E+03 0.75000000E+00 0.0000E+00 0.9000E+01
#aMCatNLO 2  0  0  1  2 0.61921686D+02 0.00000000D+00  -5  5  0 0.00000000D+00 0.00000000D+00 0.00000000D+00 0.00000000D+00 0.00000000D+00
  <mgrwgt>
 0.2077483184D+00    1    2    0
 0.201958687384412D+03 0.000000000000000D+00 0.000000000000000D+00 0.201958687384412D+03
 0.201958687384412D+03 0.000000000000000D+00 0.000000000000000D+00 -.201958687384412D+03
 0.213294896987763D+03 -.396941918533246D+02 -.159230815746985D+03 0.542183689415463D+02
 0.190622477781061D+03 0.396941918533246D+02 0.159230815746985D+03 -.542183689415463D+02
 0.000000000000000D+00 0.000000000000000D+00 -.000000000000000D+00 -.000000000000000D+00
 0.232974561513783D+03 0.000000000000000D+00 0.000000000000000D+00 0.232974561513783D+03
 0.237768624859174D+03 0.000000000000000D+00 0.000000000000000D+00 -.237768624859174D+03
 0.208057886710944D+03 -.669575718640417D+02 -.142267832843598D+03 0.542183689415463D+02
 0.200578309468151D+03 0.143817787498826D+02 0.174979927946146D+03 -.542183689415463D+02
 0.621069901938634D+02 0.525757931141591D+02 -.327120951025483D+02 -.479406334539109D+01
0.653682926202D-03 0.000000000000D+00 0.000000000000D+00 0.200998917683D-02 0.405994715781D-05  5 2 -1 25 24 21 2 0.12710997D+00 0.10314703D-01 0.51961742D+05 0.51961742D+05 0.51961742D+05 0.11906300D+01  1  2  1  1  5  1        2 0.207748318360D+00 0.100000000000D+01
  </mgrwgt>
  </event>
  <event>
  5     66 0.48098993E-03 0.11506165E+03 0.75467711E-02 0.12240562E+00
        2 -1    0    0  502    0 0.00000000E+00 0.00000000E+00 0.16042533E+04 0.16042534E+04 0.32000000E+00 0.0000E+00 0.9000E+01
       -1 -1    0    0    0  501 0.00000000E+00 0.00000000E+00 -.17306721E+02 0.17309679E+02 0.32000000E+00 0.0000E+00 0.9000E+01
       25  1    1    2    0    0 -.19135452E+02 0.60390662E+02 0.82927170E+03 0.84102898E+03 0.12500000E+03 0.0000E+00 0.9000E+01
       24  1    1    2    0    0 -.88092749E+01 -.43660242E+02 0.18163715E+03 0.20357576E+03 0.80419002E+02 0.0000E+00 0.9000E+01
       21  1    1    2  502  501 0.27944727E+02 -.16730421E+02 0.57603775E+03 0.57695829E+03 0.75000000E+00 0.0000E+00 0.9000E+01
#aMCatNLO 2  0  0  1  2 0.32570151D+02 0.00000000D+00  -5  5  0 0.00000000D+00 0.00000000D+00 0.00000000D+00 0.00000000D+00 0.00000000D+00
  <mgrwgt>
 0.4704780508D-01    2    2    0
 0.130577134517124D+03 0.000000000000000D+00 0.000000000000000D+00 0.130577134517124D+03
 0.130577134517124D+03 0.000000000000000D+00 0.000000000000000D+00 -.130577134517124D+03
 0.148110418731652D+03 -.309588417863354D+01 0.507878230132514D+02 0.610140038974032D+02
 0.113043850302596D+03 0.309588417863354D+01 -.507878230132514D+02 -.610140038974032D+02
 0.000000000000000D+00 0.000000000000000D+00 -.000000000000000D+00 0.000000000000000D+00
 0.205397884341216D+03 0.000000000000000D+00 0.000000000000000D+00 0.205397884341216D+03
 0.135181821777507D+03 0.000000000000000D+00 0.000000000000000D+00 -.135181821777507D+03
 0.152842750182987D+03 -.191354522397799D+02 0.603906621878396D+02 0.610140038974032D+02
 0.110334693734189D+03 -.880927493100197D+01 -.436602415321363D+02 -.610140038974032D+02
 0.774022622015467D+02 0.279447271707818D+02 -.167304206557033D+02 0.702160625637096D+02
-.697179283234D-03 0.000000000000D+00 0.000000000000D+00 0.210758952409D-02 0.000000000000D+00  5 2 -1 25 24 21 2 0.24825774D+00 0.25720659D-02 0.17508056D+05 0.17508056D+05 0.17508056D+05 0.12402396D+01  1  2 13  1  5  1        2 -.674795770535D+00 0.100000000000D+01
0.775501334268D-03 0.000000000000D+00 0.000000000000D+00 0.210758952409D-02 0.182712047064D-04  5 2 -1 25 24 21 2 0.24680519D+00 0.26627675D-02 0.17508056D+05 0.17508056D+05 0.17508056D+05 0.12402396D+01  1  2  1  1  5  1        2 0.721843575611D+00 0.100000000000D+01
  </mgrwgt>
  </event>
  <event>
  4     66 0.48098993E-03 0.44424555E+02 0.75467711E-02 0.12006327E+00
        2 -1    0    0  501    0 0.00000000E+00 0.00000000E+00 0.11275346E+04 0.11275346E+04 0.32000000E+00 0.0000E+00 0.9000E+01
       -1 -1    0    0    0  501 0.00000000E+00 0.00000000E+00 -.20134496E+02 0.20137039E+02 0.32000000E+00 0.0000E+00 0.9000E+01
       25  1    1    2    0    0 0.99998179E+02 0.37675491E+02 0.69205489E+03 0.71132556E+03 0.12500000E+03 0.0000E+00 0.9000E+01
       24  1    1    2    0    0 -.99998179E+02 -.37675491E+02 0.41534519E+03 0.43634610E+03 0.80419002E+02 0.0000E+00 0.9000E+01
#aMCatNLO 1  0  0  1  2 0.15452365D+01 0.00000000D+00  -5  5  0 0.00000000D+00 0.00000000D+00 0.00000000D+00 0.00000000D+00 0.00000000D+00
  <mgrwgt>
 0.7751113545D+00   11    2    0
 0.150677887341482D+03 0.000000000000000D+00 0.000000000000000D+00 0.150677887341482D+03
 0.150677887341482D+03 0.000000000000000D+00 0.000000000000000D+00 -.150677887341482D+03
 0.165872193897020D+03 0.999981788400073D+02 0.376754913211667D+02 0.216680938386658D+02
 0.135483580785943D+03 -.999981788400073D+02 -.376754913211667D+02 -.216680938386658D+02
 0.000000000000000D+00 0.000000000000000D+00 -.000000000000000D+00 0.000000000000000D+00
 0.154497653748154D+03 0.000000000000000D+00 0.000000000000000D+00 0.154497653748154D+03
 0.150836225551310D+03 0.000000000000000D+00 0.000000000000000D+00 -.150836225551310D+03
 0.165783570587630D+03 0.995706743561065D+02 0.384105036995423D+02 0.216680938386658D+02
 0.135576165758390D+03 -.100347575019606D+03 -.370747712664467D+02 -.216680938386658D+02
 0.397414295344401D+01 0.776900663499207D+00 -.133573243309560D+01 0.366142819684337D+01
0.328975716008D-03 0.000000000000D+00 0.000000000000D+00 0.235846542600D-02 0.000000000000D+00  5 2 -1 25 24 21 0 0.17346706D+00 0.30978139D-02 0.22229392D+05 0.22229392D+05 0.22229392D+05 0.12288049D+01  1  2  2  1  5  1        2 0.288760376305D+00 0.100000000000D+01
-.182739511255D-04 0.000000000000D+00 -.126335337076D-05 0.235846542600D-02 0.000000000000D+00  5 2 -1 25 24 21 2 0.17346706D+00 0.30978139D-02 0.22229392D+05 0.22229392D+05 0.22229392D+05 0.12288049D+01  1  2  3  1  5  1        2 -.242198853941D-01 0.100000000000D+01
0.226787532239D-04 0.000000000000D+00 0.000000000000D+00 0.235846542600D-02 0.000000000000D+00  5 2 -1 25 24 21 2 0.17346706D+00 0.30978139D-02 0.22229392D+05 0.22229392D+05 0.22229392D+05 0.12288049D+01  1  2 15  1  5  1        2 0.300579114057D-01 0.100000000000D+01
0.529053249562D-06 0.000000000000D+00 0.000000000000D+00 0.235846542600D-02 0.000000000000D+00  5 2 -1 25 24 21 2 0.17795444D+00 0.30978139D-02 0.22461036D+05 0.22461036D+05 0.22461036D+05 0.12283158D+01  1  2 12  1  5  1        2 0.674652173681D-03 0.100000000000D+01
-.213651539467D-01 0.000000000000D+00 0.000000000000D+00 0.235846542600D-02 0.000000000000D+00  5 2 -1 25 24 21 2 0.17346706D+00 0.30978139D-02 0.22229392D+05 0.22229392D+05 0.22229392D+05 0.12288049D+01  1  2  4  1  5  1        2 -.283168963549D+02 0.100000000000D+01
-.317294633751D-01 0.000000000000D+00 -.166614608227D-02 0.235846542600D-02 0.000000000000D+00  5 2 -1 25 24 21 2 0.17794493D+00 0.30978139D-02 0.22229392D+05 0.22229392D+05 0.22229392D+05 0.12288049D+01  1  2  5  1  5  1        2 -.404878953897D+02 0.100000000000D+01
0.317621522302D-01 0.000000000000D+00 0.166560509948D-02 0.235846542600D-02 0.000000000000D+00  5 2 -1 25 24 21 2 0.17346706D+00 0.30978139D-02 0.22229392D+05 0.22229392D+05 0.22229392D+05 0.12288049D+01  1  2  6  1  5  1        2 0.420968449351D+02 0.100000000000D+01
0.213712462079D-01 0.000000000000D+00 0.000000000000D+00 0.235846542600D-02 0.795047531195D-02  5 2 -1 25 24 21 2 0.17786454D+00 0.31010692D-02 0.22461036D+05 0.22461036D+05 0.22461036D+05 0.12283158D+01  1  2 11  1  5  1        2 0.272315992265D+02 0.100000000000D+01
0.227249205375D-07 0.000000000000D+00 0.000000000000D+00 0.235846542600D-02 0.000000000000D+00  5 21 -1 25 24 -2 2 0.17795444D+00 0.30978139D-02 0.22461036D+05 0.22461036D+05 0.22461036D+05 0.12283158D+01  1  2 12  3  5  1        2 0.206538612645D-04 0.100000000000D+01
-.145600391596D-03 0.000000000000D+00 -.766620441063D-05 0.235846542600D-02 0.000000000000D+00  5 21 -1 25 24 -2 2 0.17794493D+00 0.30978139D-02 0.22229392D+05 0.22229392D+05 0.22229392D+05 0.12288049D+01  1  2  5  3  5  1        2 -.132490685401D+00 0.100000000000D+01
0.975587666747D-04 0.000000000000D+00 0.000000000000D+00 0.235846542600D-02 0.359843871151D-04  5 21 -1 25 24 -2 2 0.17786454D+00 0.31010692D-02 0.22461036D+05 0.22461036D+05 0.22461036D+05 0.12283158D+01  1  2 11  3  5  1        2 0.886559146040D-01 0.100000000000D+01
  </mgrwgt>
  </event>
  <event>
  4     66 0.48098993E-03 0.12096828E+03 0.75467711E-02 0.11142937E+00
        2 -1    0    0  501    0 0.00000000E+00 0.00000000E+00 0.47614266E+03 0.47614277E+03 0.32000000E+00 0.0000E+00 0.9000E+01
       -1 -1    0    0    0  501 0.00000000E+00 0.00000000E+00 -.32918878E+02 0.32920434E+02 0.32000000E+00 0.0000E+00 0.9000E+01
       25  1    1    2    0    0 -.44586289E+02 -.44243332E+02 0.31882766E+03 0.34816876E+03 0.12500000E+03 0.0000E+00 0.9000E+01
       24  1    1    2    0    0 0.44586289E+02 0.44243332E+02 0.12439612E+03 0.16089444E+03 0.80419002E+02 0.0000E+00 0.9000E+01
#aMCatNLO 1  0  0  1  1 0.19021505D+03 0.00000000D+00  -5  5  0 0.00000000D+00 0.00000000D+00 0.00000000D+00 0.00000000D+00 0.00000000D+00
  <mgrwgt>
 0.4415559587D+00    3    2    0
 0.125197865526047D+03 0.000000000000000D+00 0.000000000000000D+00 0.125197865526047D+03
 0.125197865526047D+03 0.000000000000000D+00 0.000000000000000D+00 -.125197865526047D+03
 0.143484487281041D+03 -.445862890639822D+02 -.442433320451993D+02 0.318965278258364D+02
 0.106911243771054D+03 0.445862890639822D+02 0.442433320451993D+02 -.318965278258364D+02
 0.000000000000000D+00 0.000000000000000D+00 0.000000000000000D+00 -.000000000000000D+00
 0.203621105712041D+03 0.000000000000000D+00 0.000000000000000D+00 0.203621105712041D+03
 0.352190276562943D+03 0.000000000000000D+00 0.000000000000000D+00 -.352190276562943D+03
 0.218218740751041D+03 -.165315785590592D+03 -.603963687831581D+02 0.318965278258364D+02
 0.962328226889448D+02 -.232192458755854D+02 0.351712715427821D+02 -.318965278258364D+02
 0.241359818834999D+03 0.188535031466177D+03 0.252250972403760D+02 -.148569170850902D+03
0.355718900544D-03 0.000000000000D+00 0.000000000000D+00 0.253939873791D-02 0.000000000000D+00  5 2 -1 25 24 21 0 0.73252845D-01 0.50645707D-02 0.14633324D+05 0.14633324D+05 0.14633324D+05 0.12490497D+01  1  2  2  1  5  1        2 0.432308937343D+00 0.100000000000D+01
-.197337818814D-04 0.000000000000D+00 -.136605424103D-05 0.253939873791D-02 0.000000000000D+00  5 2 -1 25 24 21 2 0.73252845D-01 0.50645707D-02 0.14633324D+05 0.14633324D+05 0.14633324D+05 0.12490497D+01  1  2  3  1  5  1        2 -.374159729773D-01 0.100000000000D+01
0.246108086886D-04 0.000000000000D+00 0.000000000000D+00 0.253939873791D-02 0.000000000000D+00  5 2 -1 25 24 21 2 0.73252845D-01 0.50645707D-02 0.14633324D+05 0.14633324D+05 0.14633324D+05 0.12490497D+01  1  2 15  1  5  1        2 0.466629943705D-01 0.100000000000D+01
  </mgrwgt>
  </event>
  <event>
  4     66 0.48098993E-03 0.11181958E+03 0.75467711E-02 0.12125689E+00
        2 -1    0    0  501    0 0.00000000E+00 0.00000000E+00 0.12052173E+04 0.12052173E+04 0.32000000E+00 0.0000E+00 0.9000E+01
       -1 -1    0    0    0  501 0.00000000E+00 0.00000000E+00 -.11203236E+02 0.11207805E+02 0.32000000E+00 0.0000E+00 0.9000E+01
       25  1    1    2    0    0 0.20144336E+02 0.38352576E+02 0.53517618E+03 0.55128510E+03 0.12500000E+03 0.0000E+00 0.9000E+01
       24  1    1    2    0    0 -.20144336E+02 -.38352576E+02 0.65883785E+03 0.66514002E+03 0.80419002E+02 0.0000E+00 0.9000E+01
#aMCatNLO 1  0  0  1  1 0.51790407D+02 0.00000000D+00  -5  5  0 0.00000000D+00 0.00000000D+00 0.00000000D+00 0.00000000D+00 0.00000000D+00
  <mgrwgt>
 0.3622682758D+00    4    2    0
 0.116211611906951D+03 0.000000000000000D+00 0.000000000000000D+00 0.116211611906951D+03
 0.116211611906951D+03 0.000000000000000D+00 0.000000000000000D+00 -.116211611906951D+03
 0.135912276701451D+03 0.201443359169167D+02 0.383525764691951D+02 -.311517666724159D+02
 0.965109471124505D+02 -.201443359169167D+02 -.383525764691951D+02 0.311517666724159D+02
 0.000000000000000D+00 0.000000000000000D+00 -.000000000000000D+00 -.000000000000000D+00
 0.128792058251019D+03 0.000000000000000D+00 0.000000000000000D+00 0.128792058251019D+03
 0.187976480365282D+03 0.000000000000000D+00 0.000000000000000D+00 -.187976480365282D+03
 0.145799868879126D+03 0.978101898154082D+01 0.675758896799761D+02 -.311517666724159D+02
 0.923236311110203D+02 -.270909749354610D+02 -.187638859884298D+02 0.311517666724159D+02
 0.786450386261550D+02 0.173099559539202D+02 -.488120036915463D+02 -.591844221142627D+02
0.231997769706D-03 0.000000000000D+00 0.000000000000D+00 0.268436464587D-02 0.000000000000D+00  5 2 -1 25 24 21 0 0.18541840D+00 0.17239296D-02 0.12503619D+05 0.12503619D+05 0.12503619D+05 0.12569370D+01  1  2  2  1  5  1        2 0.422891102701D+00 0.100000000000D+01
-.128655053704D-04 0.000000000000D+00 -.890932522087D-06 0.268436464587D-02 0.000000000000D+00  5 2 -1 25 24 21 2 0.18541840D+00 0.17239296D-02 0.12503619D+05 0.12503619D+05 0.12503619D+05 0.12569370D+01  1  2  3  1  5  1        2 -.370508842310D-01 0.100000000000D+01
0.160551664774D-04 0.000000000000D+00 0.000000000000D+00 0.268436464587D-02 0.000000000000D+00  5 2 -1 25 24 21 2 0.18541840D+00 0.17239296D-02 0.12503619D+05 0.12503619D+05 0.12503619D+05 0.12569370D+01  1  2 15  1  5  1        2 0.462366690881D-01 0.100000000000D+01
-.242402600824D-04 0.000000000000D+00 0.000000000000D+00 0.268436464587D-02 0.000000000000D+00  5 2 -1 25 24 21 2 0.18541840D+00 0.17239296D-02 0.12503619D+05 0.12503619D+05 0.12503619D+05 0.12569370D+01  1  2  4  1  5  1        2 -.698086118022D-01 0.100000000000D+01
  </mgrwgt>
  </event>
  <event>
  4     66 0.48098993E-03 0.96093468E+02 0.75467711E-02 0.11295266E+00
        2 -1    0    0  501    0 0.00000000E+00 0.00000000E+00 0.31669672E+02 0.31671288E+02 0.32000000E+00 0.0000E+00 0.9000E+01
       -1 -1    0    0    0  501 0.00000000E+00 0.00000000E+00 -.15170166E+04 0.15170167E+04 0.32000000E+00 0.0000E+00 0.9000E+01
       25  1    1    2    0    0 -.76536087E+02 -.17517225E+03 -.86200592E+03 0.89175237E+03 0.12500000E+03 0.0000E+00 0.9000E+01
       24  1    1    2    0    0 0.76536087E+02 0.17517225E+03 -.62334106E+03 0.65693560E+03 0.80419002E+02 0.0000E+00 0.9000E+01
#aMCatNLO 1  0  0  2  1 0.15807004D+02 0.00000000D+00  -5  5  0 0.00000000D+00 0.00000000D+00 0.00000000D+00 0.00000000D+00 0.00000000D+00
  <mgrwgt>
 0.5134032382D+00    9    2    0
 0.219191005654227D+03 0.000000000000000D+00 0.000000000000000D+00 0.219191005654227D+03
 0.219191005654227D+03 0.000000000000000D+00 0.000000000000000D+00 -.219191005654227D+03
 0.229635987210719D+03 -.765360869538092D+02 -.175172249003765D+03 -.237612540705152D+02
 0.208746024097735D+03 0.765360869538092D+02 0.175172249003765D+03 0.237612540705152D+02
 0.000000000000000D+00 -.000000000000000D+00 -.000000000000000D+00 -.000000000000000D+00
 0.221650399864082D+03 0.000000000000000D+00 0.000000000000000D+00 0.221650399864082D+03
 0.246293613404526D+03 0.000000000000000D+00 0.000000000000000D+00 -.246293613404526D+03
 0.224451288046911D+03 -.692504660524762D+02 -.171444324672555D+03 -.237612540705152D+02
 0.214215612028930D+03 0.833223113307819D+02 0.178644640899332D+03 0.237612540705152D+02
 0.292771131927667D+02 -.140718452783057D+02 -.720031622677718D+01 -.246432135404438D+02
0.143510395449D-01 0.000000000000D+00 0.000000000000D+00 0.209168436159D-02 0.000000000000D+00  5 2 -1 25 24 21 0 0.48723841D-02 0.23338730D+00 0.47478799D+05 0.47478799D+05 0.47478799D+05 0.11945136D+01  1  2  2  2  5  2       -1 0.270096186393D+00 0.100000000000D+01
-.797245952884D-03 0.000000000000D+00 -.551117705678D-04 0.209168436159D-02 0.000000000000D+00  5 2 -1 25 24 21 2 0.48723841D-02 0.23338730D+00 0.47478799D+05 0.47478799D+05 0.47478799D+05 0.11945136D+01  1  2  3  2  5  2       -1 -.214096504615D-01 0.100000000000D+01
0.983277658708D-03 0.000000000000D+00 0.000000000000D+00 0.209168436159D-02 0.000000000000D+00  5 2 -1 25 24 21 2 0.48723841D-02 0.23338730D+00 0.47478799D+05 0.47478799D+05 0.47478799D+05 0.11945136D+01  1  2 15  2  5  2       -1 0.264054410103D-01 0.100000000000D+01
0.698036209042D-01 0.000000000000D+00 0.000000000000D+00 0.209168436159D-02 0.000000000000D+00  5 2 -1 25 24 21 2 0.48723841D-02 0.26345372D+00 0.51051308D+05 0.51051308D+05 0.51051308D+05 0.11913878D+01  1  2 12  2  5  2       -1 0.120567930064D+01 0.100000000000D+01
-.709120886720D-01 0.000000000000D+00 0.000000000000D+00 0.209168436159D-02 0.000000000000D+00  5 2 -1 25 24 21 2 0.48723841D-02 0.23338730D+00 0.47478799D+05 0.47478799D+05 0.47478799D+05 0.11945136D+01  1  2  4  2  5  2       -1 -.190430948752D+01 0.100000000000D+01
-.108236198973D+00 0.000000000000D+00 -.117031834696D-01 0.209168436159D-02 0.000000000000D+00  5 2 -1 25 24 21 2 0.48723841D-02 0.26337350D+00 0.47478799D+05 0.47478799D+05 0.47478799D+05 0.11945136D+01  1  2  5  2  5  2       -1 -.188362537560D+01 0.100000000000D+01
0.108938989732D+00 0.000000000000D+00 0.116182062635D-01 0.209168436159D-02 0.000000000000D+00  5 2 -1 25 24 21 2 0.48723841D-02 0.23338730D+00 0.47478799D+05 0.47478799D+05 0.47478799D+05 0.11945136D+01  1  2  6  2  5  2       -1 0.292550333226D+01 0.100000000000D+01
0.133535602980D-02 0.000000000000D+00 0.000000000000D+00 0.209168436159D-02 0.000000000000D+00  5 2 21 25 24 1 2 0.48723841D-02 0.26345372D+00 0.51051308D+05 0.51051308D+05 0.51051308D+05 0.11913878D+01  1  2 12  4  5  2       -1 0.200235237343D+00 0.100000000000D+01
-.201135332064D-02 0.000000000000D+00 -.223411472194D-03 0.209168436159D-02 0.000000000000D+00  5 2 21 25 24 1 2 0.48723841D-02 0.26337350D+00 0.47478799D+05 0.47478799D+05 0.47478799D+05 0.11945136D+01  1  2  5  4  5  2       -1 -.305171745890D+00 0.100000000000D+01
  </mgrwgt>
  </event>
  <event>
  4     66 0.48098993E-03 0.98335492E+02 0.75467711E-02 0.12213411E+00
        2 -1    0    0  501    0 0.00000000E+00 0.00000000E+00 0.72096471E+03 0.72096478E+03 0.32000000E+00 0.0000E+00 0.9000E+01
       -1 -1    0    0    0  501 0.00000000E+00 0.00000000E+00 -.25370914E+02 0.25372932E+02 0.32000000E+00 0.0000E+00 0.9000E+01
       25  1    1    2    0    0 -.58094350E+02 -.35751639E+02 0.53938701E+03 0.55786780E+03 0.12500000E+03 0.0000E+00 0.9000E+01
       24  1    1    2    0    0 0.58094350E+02 0.35751639E+02 0.15620679E+03 0.18846992E+03 0.80419002E+02 0.0000E+00 0.9000E+01
#aMCatNLO 1  0  0  1  2 0.19975679D+02 0.00000000D+00  -5  5  0 0.00000000D+00 0.00000000D+00 0.00000000D+00 0.00000000D+00 0.00000000D+00
  <mgrwgt>
 0.4852728719D+00    9    2    0
 0.135249078688685D+03 0.000000000000000D+00 0.000000000000000D+00 0.135249078688685D+03
 0.135249078688685D+03 0.000000000000000D+00 0.000000000000000D+00 -.135249078688685D+03
 0.152176706097351D+03 -.580943503343843D+02 -.357516386183642D+02 0.536620599117025D+02
 0.118321451280019D+03 0.580943503343843D+02 0.357516386183642D+02 -.536620599117025D+02
 0.000000000000000D+00 0.000000000000000D+00 -.000000000000000D+00 0.000000000000000D+00
 0.164898142817300D+03 0.000000000000000D+00 0.000000000000000D+00 0.164898142817300D+03
 0.139024276111971D+03 0.000000000000000D+00 0.000000000000000D+00 -.139024276111971D+03
 0.156243384288195D+03 -.692216926160926D+02 -.334026306033631D+02 0.536620599117025D+02
 0.114991349685896D+03 0.496767683545384D+02 0.375286098876035D+02 -.536620599117025D+02
 0.326876849551787D+02 0.195449242615542D+02 -.412597928424048D+01 0.258738667053293D+02
0.282988446781D-03 0.000000000000D+00 0.000000000000D+00 0.219439363815D-02 0.000000000000D+00  5 2 -1 25 24 21 0 0.11091781D+00 0.39033782D-02 0.15357948D+05 0.15357948D+05 0.15357948D+05 0.12466566D+01  1  2  2  1  5  1        2 0.315932305762D+00 0.100000000000D+01
-.155754844546D-04 0.000000000000D+00 -.108675014821D-05 0.219439363815D-02 0.000000000000D+00  5 2 -1 25 24 21 2 0.11091781D+00 0.39033782D-02 0.15357948D+05 0.15357948D+05 0.15357948D+05 0.12466566D+01  1  2  3  1  5  1        2 -.270246823574D-01 0.100000000000D+01
0.195235345995D-04 0.000000000000D+00 0.000000000000D+00 0.219439363815D-02 0.000000000000D+00  5 2 -1 25 24 21 2 0.11091781D+00 0.39033782D-02 0.15357948D+05 0.15357948D+05 0.15357948D+05 0.12466566D+01  1  2 15  1  5  1        2 0.338748577987D-01 0.100000000000D+01
0.891145883909D-03 0.000000000000D+00 0.000000000000D+00 0.219439363815D-02 0.000000000000D+00  5 2 -1 25 24 21 2 0.13654804D+00 0.39033782D-02 0.18011963D+05 0.18011963D+05 0.18011963D+05 0.12388634D+01  1  2 12  1  5  1        2 0.118505815864D+01 0.100000000000D+01
-.903699321943D-03 0.000000000000D+00 0.000000000000D+00 0.219439363815D-02 0.000000000000D+00  5 2 -1 25 24 21 2 0.11091781D+00 0.39033782D-02 0.15357948D+05 0.15357948D+05 0.15357948D+05 0.12466566D+01  1  2  4  1  5  1        2 -.156798892473D+01 0.100000000000D+01
-.130983851435D-02 0.000000000000D+00 -.207073590329D-03 0.219439363815D-02 0.000000000000D+00  5 2 -1 25 24 21 2 0.13719678D+00 0.39033782D-02 0.15357948D+05 0.15357948D+05 0.15357948D+05 0.12466566D+01  1  2  5  1  5  1        2 -.174538819266D+01 0.100000000000D+01
0.132832211627D-02 0.000000000000D+00 0.202479260203D-03 0.219439363815D-02 0.000000000000D+00  5 2 -1 25 24 21 2 0.11091781D+00 0.39033782D-02 0.15357948D+05 0.15357948D+05 0.15357948D+05 0.12466566D+01  1  2  6  1  5  1        2 0.230474264638D+01 0.100000000000D+01
0.262667683273D-04 0.000000000000D+00 0.000000000000D+00 0.219439363815D-02 0.000000000000D+00  5 21 -1 25 24 -2 2 0.13654804D+00 0.39033782D-02 0.18011963D+05 0.18011963D+05 0.18011963D+05 0.12388634D+01  1  2 12  3  5  1        2 0.349876757817D-01 0.100000000000D+01
-.366269194286D-04 0.000000000000D+00 -.620900583292D-05 0.219439363815D-02 0.000000000000D+00  5 21 -1 25 24 -2 2 0.13719678D+00 0.39033782D-02 0.15357948D+05 0.15357948D+05 0.15357948D+05 0.12466566D+01  1  2  5  3  5  1        2 -.489209727460D-01 0.100000000000D+01
  </mgrwgt>
  </event>
  <event>
  4     66 0.48098993E-03 0.10449623E+03 0.75467711E-02 0.10668399E+00
        2 -1    0    0  501    0 0.00000000E+00 0.00000000E+00 0.73947163E+03 0.73947170E+03 0.32000000E+00 0.0000E+00 0.9000E+01
       -1 -1    0    0    0  501 0.00000000E+00 0.00000000E+00 -.15775171E+02 0.15778416E+02 0.32000000E+00 0.0000E+00 0.9000E+01
       25  1    1    2    0    0 -.18721873E+02 -.16927428E+01 0.52643035E+03 0.54139383E+03 0.12500000E+03 0.0000E+00 0.9000E+01
       24  1    1    2    0    0 0.18721873E+02 0.16927428E+01 0.19726612E+03 0.21385628E+03 0.80419002E+02 0.0000E+00 0.9000E+01
#aMCatNLO 1  0  0  2  2 0.30769594D+03 0.00000000D+00  -5  5  0 0.00000000D+00 0.00000000D+00 0.00000000D+00 0.00000000D+00 0.00000000D+00
  <mgrwgt>
 0.5469173139D+00    3    2    0
 0.108011772248301D+03 0.000000000000000D+00 0.000000000000000D+00 0.108011772248301D+03
 0.108011772248301D+03 0.000000000000000D+00 0.000000000000000D+00 -.108011772248301D+03
 0.129208035986519D+03 -.187218733715157D+02 -.169274277529200D+01 0.267645781369945D+02
 0.868155085100824D+02 0.187218733715157D+02 0.169274277529200D+01 -.267645781369945D+02
 0.000000000000000D+00 -.000000000000000D+00 -.000000000000000D+00 0.000000000000000D+00
 0.675780939475918D+03 0.000000000000000D+00 0.000000000000000D+00 0.675780939475918D+03
 0.236500085531828D+03 0.000000000000000D+00 0.000000000000000D+00 -.236500085531828D+03
 0.203894582296763D+03 0.106647687481077D+03 0.117719704391655D+03 0.267645781369945D+02
 0.172061484375996D+03 0.116155196112216D+03 0.944963820713883D+02 -.267645781369945D+02
 0.536324958334987D+03 -.222802883593293D+03 -.212216086463044D+03 0.439280853944090D+03
0.251506837194D-03 0.000000000000D+00 0.000000000000D+00 0.291125102878D-02 0.000000000000D+00  5 2 -1 25 24 21 0 0.11376512D+00 0.24272043D-02 0.10919462D+05 0.10919462D+05 0.10919462D+05 0.12638555D+01  1  2  2  2  5  2       -1 0.535542709864D+00 0.100000000000D+01
-.139540012220D-04 0.000000000000D+00 -.965852478094D-06 0.291125102878D-02 0.000000000000D+00  5 2 -1 25 24 21 2 0.11376512D+00 0.24272043D-02 0.10919462D+05 0.10919462D+05 0.10919462D+05 0.12638555D+01  1  2  3  2  5  2       -1 -.474611107052D-01 0.100000000000D+01
0.172982389887D-04 0.000000000000D+00 0.000000000000D+00 0.291125102878D-02 0.000000000000D+00  5 2 -1 25 24 21 2 0.11376512D+00 0.24272043D-02 0.10919462D+05 0.10919462D+05 0.10919462D+05 0.12638555D+01  1  2 15  2  5  2       -1 0.588357147591D-01 0.100000000000D+01
  </mgrwgt>
  </event>
  <event>
  5     66 0.48098993E-03 0.10567947E+03 0.75467711E-02 0.12103369E+00
        2 -1    0    0  501    0 0.00000000E+00 0.00000000E+00 0.33885772E+03 0.33885788E+03 0.32000000E+00 0.0000E+00 0.9000E+01
       -1 -1    0    0    0  502 0.00000000E+00 0.00000000E+00 -.67290065E+02 0.67290826E+02 0.32000000E+00 0.0000E+00 0.9000E+01
       25  1    1    2    0    0 0.23311167E+02 0.28098228E+02 0.10591970E+03 0.16785977E+03 0.12500000E+03 0.0000E+00 0.9000E+01
       24  1    1    2    0    0 0.38974954E+02 -.14831784E+02 0.14567232E+03 0.17154203E+03 0.80419002E+02 0.0000E+00 0.9000E+01
       21  1    1    2  501  502 -.62286122E+02 -.13266444E+02 0.19975647E+02 0.66746899E+02 0.75000000E+00 0.0000E+00 0.9000E+01
#aMCatNLO 2  0  0  2  1 0.63683275D+02 0.00000000D+00  -5  5  0 0.00000000D+00 0.00000000D+00 0.00000000D+00 0.00000000D+00 0.00000000D+00
  <mgrwgt>
 0.7171636738D-01    2    2    0
 0.109361194810222D+03 0.000000000000000D+00 0.000000000000000D+00 0.109361194810222D+03
 0.109361194810222D+03 0.000000000000000D+00 0.000000000000000D+00 -.109361194810222D+03
 0.130295914985695D+03 -.134315047284711D+02 0.202723333311681D+02 -.275799319070673D+02
 0.884264746347492D+02 0.134315047284711D+02 -.202723333311681D+02 0.275799319070673D+02
 0.000000000000000D+00 -.000000000000000D+00 -.000000000000000D+00 -.000000000000000D+00
 0.130614786311451D+03 0.000000000000000D+00 0.000000000000000D+00 0.130614786311451D+03
 0.174569455594876D+03 0.000000000000000D+00 0.000000000000000D+00 -.174569455594876D+03
 0.133111132387846D+03 0.233111674858465D+02 0.280982275601707D+02 -.275799319070673D+02
 0.946937034858220D+02 0.389749544865563D+02 -.148317835833269D+02 0.275799319070673D+02
 0.773794060326584D+02 -.622861219724027D+02 -.132664439768439D+02 -.439546692834247D+02
-.482471295915D-04 0.000000000000D+00 0.000000000000D+00 0.286803932719D-02 0.000000000000D+00  5 2 -1 25 24 21 2 0.43648557D-01 0.10675956D-01 0.20234235D+05 0.20234235D+05 0.20234235D+05 0.12332697D+01  1  2 13  2  5  2       -1 -.510903976441D-01 0.100000000000D+01
0.133577459001D-03 0.000000000000D+00 0.000000000000D+00 0.286803932719D-02 0.649414709993D-05  5 2 -1 25 24 21 2 0.52131352D-01 0.10352254D-01 0.20234235D+05 0.20234235D+05 0.20234235D+05 0.12332697D+01  1  2  1  2  5  2       -1 0.122806765023D+00 0.100000000000D+01
  </mgrwgt>
  </event>
  <event>
  4     66 0.48098993E-03 0.23064895E+03 0.75467711E-02 0.10156748E+00
        2 -1    0    0  501    0 0.00000000E+00 0.00000000E+00 0.99001388E+03 0.99001393E+03 0.32000000E+00 0.0000E+00 0.9000E+01
       -1 -1    0    0    0  501 0.00000000E+00 0.00000000E+00 -.95286006E+02 0.95286543E+02 0.32000000E+00 0.0000E+00 0.9000E+01
       25  1    1    2    0    0 0.19575130E+03 -.62711937E+02 0.81637318E+03 0.85108256E+03 0.12500000E+03 0.0000E+00 0.9000E+01
       24  1    1    2    0    0 -.19575130E+03 0.62711937E+02 0.78354698E+02 0.23421792E+03 0.80419002E+02 0.0000E+00 0.9000E+01
#aMCatNLO 1  0  0  1  1 0.38477346D+03 0.00000000D+00  -5  5  0 0.00000000D+00 0.00000000D+00 0.00000000D+00 0.00000000D+00 0.00000000D+00
  <mgrwgt>
 0.3399680712D+00    3    2    0
 0.307139687949477D+03 0.000000000000000D+00 0.000000000000000D+00 0.307139687949477D+03
 0.307139687949477D+03 0.000000000000000D+00 0.000000000000000D+00 -.307139687949477D+03
 0.314593775132714D+03 0.195751298244129D+03 -.627119373831664D+02 0.202713801941654D+03
 0.299685600766241D+03 -.195751298244129D+03 0.627119373831664D+02 -.202713801941654D+03
 0.000000000000000D+00 0.000000000000000D+00 0.000000000000000D+00 -.000000000000000D+00
 0.499133957824078D+03 0.000000000000000D+00 0.000000000000000D+00 0.499133957824078D+03
 0.633147276046464D+03 0.000000000000000D+00 0.000000000000000D+00 -.633147276046464D+03
 0.365693628148438D+03 0.128188025022198D+03 -.246133651522168D+03 0.202713801941654D+03
 0.359144126672510D+03 -.261183485679884D+03 -.114924275414095D+03 -.202713801941654D+03
 0.407443479049594D+03 0.132995460657686D+03 0.361057926936263D+03 -.134013318222386D+03
0.326501019041D-02 0.000000000000D+00 0.000000000000D+00 0.114860880563D-02 0.000000000000D+00  5 2 -1 25 24 21 0 0.15230987D+00 0.14659431D-01 0.53198938D+05 0.53198938D+05 0.53198938D+05 0.11896236D+01  1  2  2  1  5  1        2 0.331307061550D+00 0.100000000000D+01
-.163298681412D-03 0.000000000000D+00 -.125384988281D-04 0.114860880563D-02 0.000000000000D+00  5 2 -1 25 24 21 2 0.15230987D+00 0.14659431D-01 0.53198938D+05 0.53198938D+05 0.53198938D+05 0.11896236D+01  1  2  3  1  5  1        2 -.234502769169D-01 0.100000000000D+01
0.223610611099D-03 0.000000000000D+00 0.000000000000D+00 0.114860880563D-02 0.000000000000D+00  5 2 -1 25 24 21 2 0.15230987D+00 0.14659431D-01 0.53198938D+05 0.53198938D+05 0.53198938D+05 0.11896236D+01  1  2 15  1  5  1        2 0.321112865486D-01 0.100000000000D+01
  </mgrwgt>
  </event>
  <event>
  4     66 0.48098993E-03 0.57396258E+02 0.75467711E-02 0.12535538E+00
        2 -1    0    0  501    0 0.00000000E+00 0.00000000E+00 0.14007479E+04 0.14007480E+04 0.32000000E+00 0.0000E+00 0.9000E+01
       -1 -1    0    0    0  501 0.00000000E+00 0.00000000E+00 -.84885338E+01 0.84945633E+01 0.32000000E+00 0.0000E+00 0.9000E+01
       25  1    1    2    0    0 0.22116615E+02 0.22787870E+02 0.93836306E+03 0.94718460E+03 0.12500000E+03 0.0000E+00 0.9000E+01
       24  1    1    2    0    0 -.22116615E+02 -.22787870E+02 0.45389634E+03 0.46205793E+03 0.80419002E+02 0.0000E+00 0.9000E+01
#aMCatNLO 1  0  0  1  2 0.12004839D+02 0.00000000D+00  -5  5  0 0.00000000D+00 0.00000000D+00 0.00000000D+00 0.00000000D+00 0.00000000D+00
  <mgrwgt>
 0.7064959149D+00    9    2    0
 0.109062231670053D+03 0.000000000000000D+00 0.000000000000000D+00 0.109062231670053D+03
 0.109062231670053D+03 0.000000000000000D+00 0.000000000000000D+00 -.109062231670053D+03
 0.130054338436524D+03 0.221166154533866D+02 0.227878700295752D+02 0.167540814897225D+02
 0.880701249035823D+02 -.221166154533866D+02 -.227878700295752D+02 -.167540814897225D+02
 0.000000000000000D+00 -.000000000000000D+00 -.000000000000000D+00 0.000000000000000D+00
 0.123725356244587D+03 0.000000000000000D+00 0.000000000000000D+00 0.123725356244587D+03
 0.111712374868526D+03 0.000000000000000D+00 0.000000000000000D+00 -.111712374868526D+03
 0.131868036723453D+03 0.287192644711043D+02 0.256648341310159D+02 0.167540814897225D+02
 0.865865298645554D+02 -.177137972927069D+02 -.208694355104214D+02 -.167540814897225D+02
 0.169831645251047D+02 -.110054671783975D+02 -.479539862059449D+01 0.120129813760612D+02
0.164881264667D-03 0.000000000000D+00 0.000000000000D+00 0.297781240474D-02 0.000000000000D+00  5 2 -1 25 24 21 0 0.21550015D+00 0.13063949D-02 0.11602789D+05 0.11602789D+05 0.11602789D+05 0.12607410D+01  1  2  2  1  5  1        2 0.350110446734D+00 0.100000000000D+01
-.915835274369D-05 0.000000000000D+00 -.633187470556D-06 0.297781240474D-02 0.000000000000D+00  5 2 -1 25 24 21 2 0.21550015D+00 0.13063949D-02 0.11602789D+05 0.11602789D+05 0.11602789D+05 0.12607410D+01  1  2  3  1  5  1        2 -.309102774471D-01 0.100000000000D+01
0.114365848468D-04 0.000000000000D+00 0.000000000000D+00 0.297781240474D-02 0.000000000000D+00  5 2 -1 25 24 21 2 0.21550015D+00 0.13063949D-02 0.11602789D+05 0.11602789D+05 0.11602789D+05 0.12607410D+01  1  2 15  1  5  1        2 0.385995189917D-01 0.100000000000D+01
0.530115881184D-03 0.000000000000D+00 0.000000000000D+00 0.297781240474D-02 0.000000000000D+00  5 2 -1 25 24 21 2 0.24685836D+00 0.13063949D-02 0.12968014D+05 0.12968014D+05 0.12968014D+05 0.12550945D+01  1  2 12  1  5  1        2 0.139664509932D+01 0.100000000000D+01
-.537868939407D-03 0.000000000000D+00 0.000000000000D+00 0.297781240474D-02 0.000000000000D+00  5 2 -1 25 24 21 2 0.21550015D+00 0.13063949D-02 0.11602789D+05 0.11602789D+05 0.11602789D+05 0.12607410D+01  1  2  4  1  5  1        2 -.181535682371D+01 0.100000000000D+01
-.100680665681D-02 0.000000000000D+00 -.157641513844D-03 0.297781240474D-02 0.000000000000D+00  5 2 -1 25 24 21 2 0.24703782D+00 0.13063949D-02 0.11602789D+05 0.11602789D+05 0.11602789D+05 0.12607410D+01  1  2  5  1  5  1        2 -.266419596140D+01 0.100000000000D+01
0.102026544911D-02 0.000000000000D+00 0.156182529516D-03 0.297781240474D-02 0.000000000000D+00  5 2 -1 25 24 21 2 0.21550015D+00 0.13063949D-02 0.11602789D+05 0.11602789D+05 0.11602789D+05 0.12607410D+01  1  2  6  1  5  1        2 0.344348912783D+01 0.100000000000D+01
0.111526906383D-04 0.000000000000D+00 0.000000000000D+00 0.297781240474D-02 0.000000000000D+00  5 21 -1 25 24 -2 2 0.24685836D+00 0.13063949D-02 0.12968014D+05 0.12968014D+05 0.12968014D+05 0.12550945D+01  1  2 12  3  5  1        2 0.140833181400D-01 0.100000000000D+01
-.203509481124D-04 0.000000000000D+00 -.333109640641D-05 0.297781240474D-02 0.000000000000D+00  5 21 -1 25 24 -2 2 0.24703782D+00 0.13063949D-02 0.11602789D+05 0.11602789D+05 0.11602789D+05 0.12607410D+01  1  2  5  3  5  1        2 -.259685335990D-01 0.100000000000D+01
  </mgrwgt>
  </event>
  <event>
  5     66 0.48098993E-03 0.24231970E+03 0.75467711E-02 0.11088965E+00
        2 -1    0    0  501    0 0.00000000E+00 0.00000000E+00 0.12935542E+04 0.12935543E+04 0.32000000E+00 0.0000E+00 0.9000E+01
       21 -1    0    0  502  501 0.00000000E+00 0.00000000E+00 -.52646434E+02 0.52651776E+02 0.75000000E+00 0.0000E+00 0.9000E+01
       25  1    1    2    0    0 -.21022955E+03 -.62859727E+02 0.69314659E+03 0.73771607E+03 0.12500000E+03 0.0000E+00 0.9000E+01
       24  1    1    2    0    0 0.19948168E+03 0.89489378E+02 0.45178442E+03 0.50830863E+03 0.80419002E+02 0.0000E+00 0.9000E+01
        1  1    1    2  502    0 0.10747872E+02 -.26629651E+02 0.95976807E+02 0.10018136E+03 0.32000000E+00 0.0000E+00 0.9000E+01
#aMCatNLO 2  0  0  2  2 0.28716808D+02 0.00000000D+00  -5  5  0 0.00000000D+00 0.00000000D+00 0.00000000D+00 0.00000000D+00 0.00000000D+00
  <mgrwgt>
 0.1361306218D+00    1    2    0
 0.245400639620655D+03 0.000000000000000D+00 0.000000000000000D+00 0.245400639620655D+03
 0.245400639620655D+03 0.000000000000000D+00 0.000000000000000D+00 -.245400639620655D+03
 0.254730061153322D+03 -.204647805661822D+03 -.766894320739813D+02 0.387351352281965D+02
 0.236071218087987D+03 0.204647805661822D+03 0.766894320739813D+02 -.387351352281965D+02
 0.000000000000000D+00 0.000000000000000D+00 -.000000000000000D+00 0.000000000000000D+00
 0.265987000699699D+03 0.000000000000000D+00 0.000000000000000D+00 0.265987000699699D+03
 0.256043333986408D+03 0.000000000000000D+00 0.000000000000000D+00 -.256043333986408D+03
 0.255486241615055D+03 -.210229549831518D+03 -.628597274180911D+02 0.387351352281965D+02
 0.236154430797530D+03 0.199481677593891D+03 0.894893783312602D+02 -.387351352281965D+02
 0.303896622735204D+02 0.107478722376277D+02 -.266296509131692D+02 0.994366671329091D+01
0.372205354944D-04 0.000000000000D+00 0.000000000000D+00 0.201860283353D-02 0.144145472713D-06  5 2 21 25 24 1 2 0.19900811D+00 0.80998391D-02 0.66101852D+05 0.66101852D+05 0.66101852D+05 0.11804577D+01  1  2  1  4  5  2       -1 0.136130621760D+00 0.100000000000D+01
  </mgrwgt>
  </event>
  <event>
  4     66 0.48098993E-03 0.11067845E+03 0.75467711E-02 0.12127332E+00
        2 -1    0    0  501    0 0.00000000E+00 0.00000000E+00 0.14447406E+04 0.14447407E+04 0.32000000E+00 0.0000E+00 0.9000E+01
       -1 -1    0    0    0  501 0.00000000E+00 0.00000000E+00 -.84788591E+01 0.84848955E+01 0.32000000E+00 0.0000E+00 0.9000E+01
       25  1    1    2    0    0 0.73669048E+01 -.39714384E+02 0.83870433E+03 0.84892960E+03 0.12500000E+03 0.0000E+00 0.9000E+01
       24  1    1    2    0    0 -.73669048E+01 0.39714384E+02 0.59755743E+03 0.60429595E+03 0.80419002E+02 0.0000E+00 0.9000E+01
#aMCatNLO 1  0  0  1  1 0.53222214D+02 0.00000000D+00  -5  5  0 0.00000000D+00 0.00000000D+00 0.00000000D+00 0.00000000D+00 0.00000000D+00
  <mgrwgt>
 0.2792390565D+00    4    2    0
 0.110698527526391D+03 0.000000000000000D+00 0.000000000000000D+00 0.110698527526391D+03
 0.110698527526391D+03 0.000000000000000D+00 0.000000000000000D+00 -.110698527526391D+03
 0.131380338410113D+03 0.736690483337801D+01 -.397143835604722D+02 -.207117656019929D+01
 0.900167166426681D+02 -.736690483337801D+01 0.397143835604722D+02 0.207117656019929D+01
 0.000000000000000D+00 0.000000000000000D+00 0.000000000000000D+00 -.000000000000000D+00
 0.130089786723305D+03 0.000000000000000D+00 0.000000000000000D+00 0.130089786723305D+03
 0.157463902338243D+03 0.000000000000000D+00 0.000000000000000D+00 -.157463902338243D+03
 0.136642500666580D+03 -.225721077383412D+02 -.503227897509804D+02 -.207117656019929D+01
 0.910618252640474D+02 -.275939599652821D+02 0.325472528355352D+02 0.207117656019929D+01
 0.598493631309209D+02 0.501660677036233D+02 0.177755369154453D+02 -.273741156149374D+02
0.197339393206D-03 0.000000000000D+00 0.000000000000D+00 0.299191255853D-02 0.000000000000D+00  5 2 -1 25 24 21 0 0.22226825D+00 0.13049069D-02 0.12249719D+05 0.12249719D+05 0.12249719D+05 0.12579771D+01  1  2  2  1  5  1        2 0.398868184302D+00 0.100000000000D+01
-.109632991840D-04 0.000000000000D+00 -.757835230568D-06 0.299191255853D-02 0.000000000000D+00  5 2 -1 25 24 21 2 0.22226825D+00 0.13049069D-02 0.12249719D+05 0.12249719D+05 0.12249719D+05 0.12579771D+01  1  2  3  1  5  1        2 -.350673027624D-01 0.100000000000D+01
0.136700075044D-04 0.000000000000D+00 0.000000000000D+00 0.299191255853D-02 0.000000000000D+00  5 2 -1 25 24 21 2 0.22226825D+00 0.13049069D-02 0.12249719D+05 0.12249719D+05 0.12249719D+05 0.12579771D+01  1  2 15  1  5  1        2 0.437250032019D-01 0.100000000000D+01
-.401070732030D-04 0.000000000000D+00 0.000000000000D+00 0.299191255853D-02 0.000000000000D+00  5 2 -1 25 24 21 2 0.22226825D+00 0.13049069D-02 0.12249719D+05 0.12249719D+05 0.12249719D+05 0.12579771D+01  1  2  4  1  5  1        2 -.128286828201D+00 0.100000000000D+01
  </mgrwgt>
  </event>
  <event>
  4     66 -.48098993E-03 0.60788589E+02 0.75467711E-02 0.12358201E+00
        2 -1    0    0  501    0 0.00000000E+00 0.00000000E+00 0.97210377E+02 0.97210904E+02 0.32000000E+00 0.0000E+00 0.9000E+01
       -1 -1    0    0    0  501 0.00000000E+00 0.00000000E+00 -.12567752E+03 0.12567793E+03 0.32000000E+00 0.0000E+00 0.9000E+01
       25  1    1    2    0    0 0.34909829E+02 -.84189369E+01 0.86879706E+00 0.13005895E+03 0.12500000E+03 0.0000E+00 0.9000E+01
       24  1    1    2    0    0 -.34909829E+02 0.84189369E+01 -.29335942E+02 0.92829888E+02 0.80419002E+02 0.0000E+00 0.9000E+01
#aMCatNLO 1  0  0  1  2 0.28970375D+02 0.00000000D+00  -5  5  0 0.00000000D+00 0.00000000D+00 0.00000000D+00 0.00000000D+00 0.00000000D+00
  <mgrwgt>
 -.1051123674D+00    7    2    0
 0.110531730838992D+03 0.000000000000000D+00 0.000000000000000D+00 0.110531730838992D+03
 0.110531730838992D+03 0.000000000000000D+00 0.000000000000000D+00 -.110531730838992D+03
 0.131244751380960D+03 0.349098290856725D+02 -.841893688807268D+01 0.176241340194029D+02
 0.898187102970234D+02 -.349098290856725D+02 0.841893688807268D+01 -.176241340194029D+02
 0.000000000000000D+00 0.000000000000000D+00 -.000000000000000D+00 0.000000000000000D+00
 0.126973265201838D+04 0.000000000000000D+00 0.000000000000000D+00 0.126973265201838D+04
 0.111657984768343D+03 0.000000000000000D+00 0.000000000000000D+00 -.111657984768343D+03
 0.129579762782690D+03 0.283265780490550D+02 0.727391221524014D+01 0.176241340194029D+02
 0.933739022275287D+02 -.395336389302726D+02 0.194409607741622D+02 -.176241340194029D+02
 0.115843697177651D+04 0.112070608812176D+02 -.267148729894024D+02 0.115807466725004D+04
0.149372685080D-03 0.000000000000D+00 0.000000000000D+00 0.293319541965D-02 0.000000000000D+00  5 2 -1 25 24 21 0 0.14955515D-01 0.19335075D-01 0.11895031D+05 0.11895031D+05 0.11895031D+05 0.12594715D+01  1  2  2  1  5  1        2 0.131590411855D+00 0.100000000000D+01
-.829668034544D-05 0.000000000000D+00 -.573630441437D-06 0.293319541965D-02 0.000000000000D+00  5 2 -1 25 24 21 2 0.14955515D-01 0.19335075D-01 0.11895031D+05 0.11895031D+05 0.11895031D+05 0.12594715D+01  1  2  3  1  5  1        2 -.115940224021D-01 0.100000000000D+01
0.103291013116D-04 0.000000000000D+00 0.000000000000D+00 0.293319541965D-02 0.000000000000D+00  5 2 -1 25 24 21 2 0.14955515D-01 0.19335075D-01 0.11895031D+05 0.11895031D+05 0.11895031D+05 0.12594715D+01  1  2 15  1  5  1        2 0.144341865679D-01 0.100000000000D+01
0.382398683261D-01 0.000000000000D+00 0.000000000000D+00 0.293319541965D-02 0.000000000000D+00  5 2 -1 25 24 21 2 0.17048553D+00 0.19335075D-01 0.15505426D+05 0.15505426D+05 0.15505426D+05 0.12461851D+01  1  2 12  1  5  1        2 0.333708102092D+01 0.100000000000D+01
-.399766115085D-01 0.000000000000D+00 -.143892245241D-03 0.293319541965D-02 0.000000000000D+00  5 2 -1 25 24 21 2 0.17195638D+00 0.19335075D-01 0.11895031D+05 0.11895031D+05 0.11895031D+05 0.12594715D+01  1  2  5  1  5  1        2 -.352969067078D+01 0.100000000000D+01
0.109042475026D-01 0.000000000000D+00 0.000000000000D+00 0.293319541965D-02 0.000000000000D+00  5 21 -1 25 24 -2 2 0.17048553D+00 0.19335075D-01 0.15505426D+05 0.15505426D+05 0.15505426D+05 0.12461851D+01  1  2 12  3  5  1        2 0.728406310145D+00 0.100000000000D+01
-.114534366523D-01 0.000000000000D+00 -.411310859094D-04 0.293319541965D-02 0.000000000000D+00  5 21 -1 25 24 -2 2 0.17195638D+00 0.19335075D-01 0.11895031D+05 0.11895031D+05 0.11895031D+05 0.12594715D+01  1  2  5  3  5  1        2 -.775339603690D+00 0.100000000000D+01
  </mgrwgt>
  </event>
  <event>
  5     66 0.48098993E-03 0.12342038E+03 0.75467711E-02 0.12298841E+00
        2 -1    0    0  502    0 0.00000000E+00 0.00000000E+00 0.68348151E+03 0.68348159E+03 0.32000000E+00 0.0000E+00 0.9000E+01
       -1 -1    0    0    0  501 0.00000000E+00 0.00000000E+00 -.26140626E+02 0.26142585E+02 0.32000000E+00 0.0000E+00 0.9000E+01
       25  1    1    2    0    0 -.21527997E+02 -.69671480E+02 0.46512992E+03 0.48712259E+03 0.12500000E+03 0.0000E+00 0.9000E+01
       24  1    1    2    0    0 0.18133483E+02 0.60491812E+02 0.17440444E+03 0.20216876E+03 0.80419002E+02 0.0000E+00 0.9000E+01
       21  1    1    2  502  501 0.33945136E+01 0.91796686E+01 0.17806521E+02 0.20332824E+02 0.75000000E+00 0.0000E+00 0.9000E+01
#aMCatNLO 2  0  0  1  2 0.97871874D+01 0.00000000D+00  -5  5  0 0.00000000D+00 0.00000000D+00 0.00000000D+00 0.00000000D+00 0.00000000D+00
  <mgrwgt>
 0.5133126574D+00    2    2    0
 0.128474286989566D+03 0.000000000000000D+00 0.000000000000000D+00 0.128474286989566D+03
 0.128474286989566D+03 0.000000000000000D+00 0.000000000000000D+00 -.128474286989566D+03
 0.146294553324987D+03 -.195784194551052D+02 -.643993037328512D+02 0.353059697915429D+02
 0.110654020654145D+03 0.195784194551052D+02 0.643993037328512D+02 -.353059697915429D+02
 0.000000000000000D+00 0.000000000000000D+00 0.000000000000000D+00 -.000000000000000D+00
 0.132243860290790D+03 0.000000000000000D+00 0.000000000000000D+00 0.132243860290790D+03
 0.135081216555795D+03 0.000000000000000D+00 0.000000000000000D+00 -.135081216555795D+03
 0.148959999142342D+03 -.215279969726940D+02 -.696714804486660D+02 0.353059697915429D+02
 0.108174904571282D+03 0.181334833846788D+02 0.604918118595534D+02 -.353059697915429D+02
 0.101901731329611D+02 0.339451358801522D+01 0.917966858911271D+01 -.283735626500438D+01
-.292529670001D-04 0.000000000000D+00 0.000000000000D+00 0.246647961877D-02 0.000000000000D+00  5 2 -1 25 24 21 2 0.10214329D+00 0.38246867D-02 0.15232591D+05 0.15232591D+05 0.15232591D+05 0.12470614D+01  1  2  8  1  5  1        2 -.576455917841D-01 0.100000000000D+01
0.323665127735D-03 0.000000000000D+00 0.000000000000D+00 0.246647961877D-02 0.212495122277D-03  5 2 -1 25 24 21 2 0.10514029D+00 0.40213754D-02 0.16480631D+05 0.16480631D+05 0.16480631D+05 0.12431886D+01  1  2  1  1  5  1        2 0.570958249162D+00 0.100000000000D+01
  </mgrwgt>
  </event>
  <event>
  4     66 0.48098993E-03 0.11750871E+03 0.75467711E-02 0.11860762E+00
        4 -1    0    0  501    0 0.00000000E+00 0.00000000E+00 0.14015795E+02 0.14101241E+02 0.15500000E+01 0.0000E+00 0.9000E+01
       -3 -1    0    0    0  501 0.00000000E+00 0.00000000E+00 -.10407880E+04 0.10407881E+04 0.50000000E+00 0.0000E+00 0.9000E+01
       25  1    1    2    0    0 0.53421154E+02 0.16969494E+02 -.47015877E+03 0.48971018E+03 0.12500000E+03 0.0000E+00 0.9000E+01
       24  1    1    2    0    0 -.53421154E+02 -.16969494E+02 -.55661342E+03 0.56517918E+03 0.80419002E+02 0.0000E+00 0.9000E+01
#aMCatNLO 1  0  0  1  1 0.77157216D+02 0.00000000D+00  -5  5  0 0.00000000D+00 0.00000000D+00 0.00000000D+00 0.00000000D+00 0.00000000D+00
  <mgrwgt>
 0.8923434612D-01    3    2    0
 0.120965286266914D+03 0.000000000000000D+00 0.000000000000000D+00 0.120965286266914D+03
 0.120965286266914D+03 0.000000000000000D+00 0.000000000000000D+00 -.120965286266914D+03
 0.139891757505577D+03 0.534211541882317D+02 0.169694943502102D+02 0.283358494613189D+02
 0.102038815028251D+03 -.534211541882317D+02 -.169694943502102D+02 -.283358494613189D+02
 0.000000000000000D+00 0.000000000000000D+00 0.000000000000000D+00 -.000000000000000D+00
 0.132496328579209D+03 0.000000000000000D+00 0.000000000000000D+00 0.132496328579209D+03
 0.396190133898053D+03 0.000000000000000D+00 0.000000000000000D+00 -.396190133898053D+03
 0.129198340284833D+03 0.119797393849904D+02 0.109898413058875D+02 0.283358494613189D+02
 0.124737946745860D+03 -.883460731264854D+02 -.220088709941639D+02 -.283358494613189D+02
 0.274750175446570D+03 0.763663337414950D+02 0.110190296882764D+02 -.263693805318844D+03
0.173030195256D-02 0.000000000000D+00 0.000000000000D+00 0.263366500978D-02 0.000000000000D+00  5 4 -3 25 24 21 0 0.21628581D-02 0.16012781D+00 0.13808296D+05 0.13808296D+05 0.13808296D+05 0.12519420D+01  1  2  2  1  5  1        4 0.873615825351D-01 0.100000000000D+01
-.960296520549D-04 0.000000000000D+00 -.664481509681D-05 0.263366500978D-02 0.000000000000D+00  5 4 -3 25 24 21 2 0.21628581D-02 0.16012781D+00 0.13808296D+05 0.13808296D+05 0.13808296D+05 0.12519420D+01  1  2  3  1  5  1        4 -.759927803937D-02 0.100000000000D+01
0.119695167996D-03 0.000000000000D+00 0.000000000000D+00 0.263366500978D-02 0.000000000000D+00  5 4 -3 25 24 21 2 0.21628581D-02 0.16012781D+00 0.13808296D+05 0.13808296D+05 0.13808296D+05 0.12519420D+01  1  2 15  1  5  1        4 0.947204162572D-02 0.100000000000D+01
  </mgrwgt>
  </event>
  <event>
  4     66 0.48098993E-03 0.71648785E+02 0.75467711E-02 0.12102038E+00
        2 -1    0    0  501    0 0.00000000E+00 0.00000000E+00 0.73495466E+03 0.73495473E+03 0.32000000E+00 0.0000E+00 0.9000E+01
       -1 -1    0    0    0  501 0.00000000E+00 0.00000000E+00 -.20303560E+02 0.20306081E+02 0.32000000E+00 0.0000E+00 0.9000E+01
       25  1    1    2    0    0 -.25565078E+02 0.55888499E+02 0.47780822E+03 0.49769749E+03 0.12500000E+03 0.0000E+00 0.9000E+01
       24  1    1    2    0    0 0.25565078E+02 -.55888499E+02 0.23684288E+03 0.25756332E+03 0.80419002E+02 0.0000E+00 0.9000E+01
#aMCatNLO 1  0  0  2  1 0.40701437D+02 0.00000000D+00  -5  5  0 0.00000000D+00 0.00000000D+00 0.00000000D+00 0.00000000D+00 0.00000000D+00
  <mgrwgt>
 0.1571247016D+00    7    2    0
 0.122160444550720D+03 0.000000000000000D+00 0.000000000000000D+00 0.122160444550720D+03
 0.122160444550720D+03 0.000000000000000D+00 0.000000000000000D+00 -.122160444550720D+03
 0.140901748414073D+03 -.255650780017964D+02 0.558884992495048D+02 0.212415899721013D+02
 0.103419140687366D+03 0.255650780017964D+02 -.558884992495048D+02 -.212415899721013D+02
 0.000000000000000D+00 -.000000000000000D+00 0.000000000000000D+00 -.000000000000000D+00
 0.125472069050441D+03 0.000000000000000D+00 0.000000000000000D+00 0.125472069050441D+03
 0.378219587790307D+03 0.000000000000000D+00 0.000000000000000D+00 -.378219587790307D+03
 0.133319758461124D+03 -.243587028840067D+02 0.332356201295887D+02 0.212415899721013D+02
 0.114368157751499D+03 0.265231836617104D+02 -.738794635673912D+02 -.212415899721013D+02
 0.256003740628125D+03 -.216448077770375D+01 0.406438434378025D+02 -.252747518739866D+03
0.180014519550D-03 0.000000000000D+00 0.000000000000D+00 0.267149947339D-02 0.000000000000D+00  5 2 -1 25 24 21 0 0.11307015D+00 0.31238239D-02 0.14460737D+05 0.14460737D+05 0.14460737D+05 0.12496393D+01  1  2  2  2  5  2       -1 0.271210696183D+00 0.100000000000D+01
-.999779450476D-05 0.000000000000D+00 -.691303153983D-06 0.267149947339D-02 0.000000000000D+00  5 2 -1 25 24 21 2 0.11307015D+00 0.31238239D-02 0.14460737D+05 0.14460737D+05 0.14460737D+05 0.12496393D+01  1  2  3  2  5  2       -1 -.235219246091D-01 0.100000000000D+01
0.124499413818D-04 0.000000000000D+00 0.000000000000D+00 0.267149947339D-02 0.000000000000D+00  5 2 -1 25 24 21 2 0.11307015D+00 0.31238239D-02 0.14460737D+05 0.14460737D+05 0.14460737D+05 0.12496393D+01  1  2 15  2  5  2       -1 0.292911183993D-01 0.100000000000D+01
0.125724167332D-02 0.000000000000D+00 0.000000000000D+00 0.267149947339D-02 0.000000000000D+00  5 2 -1 25 24 21 2 0.11307015D+00 0.96041821D-02 0.20263006D+05 0.20263006D+05 0.20263006D+05 0.12332019D+01  1  2 12  2  5  2       -1 0.548262856467D+00 0.100000000000D+01
-.136514737368D-02 0.000000000000D+00 -.548794115375D-04 0.267149947339D-02 0.000000000000D+00  5 2 -1 25 24 21 2 0.11307015D+00 0.98771509D-02 0.14460737D+05 0.14460737D+05 0.14460737D+05 0.12496393D+01  1  2  5  2  5  2       -1 -.582922411399D+00 0.100000000000D+01
0.161410840221D-03 0.000000000000D+00 0.000000000000D+00 0.267149947339D-02 0.000000000000D+00  5 2 21 25 24 1 2 0.11307015D+00 0.96041821D-02 0.20263006D+05 0.20263006D+05 0.20263006D+05 0.12332019D+01  1  2 12  4  5  2       -1 0.106981224683D+01 0.100000000000D+01
-.178133787704D-03 0.000000000000D+00 -.725941416454D-05 0.267149947339D-02 0.000000000000D+00  5 2 21 25 24 1 2 0.11307015D+00 0.98771509D-02 0.14460737D+05 0.14460737D+05 0.14460737D+05 0.12496393D+01  1  2  5  4  5  2       -1 -.115500788023D+01 0.100000000000D+01
  </mgrwgt>
  </event>
  <event>
  4     66 0.48098993E-03 0.11696613E+03 0.75467711E-02 0.11657050E+00
        2 -1    0    0  501    0 0.00000000E+00 0.00000000E+00 0.16985027E+02 0.16988041E+02 0.32000000E+00 0.0000E+00 0.9000E+01
       -1 -1    0    0    0  501 0.00000000E+00 0.00000000E+00 -.94406546E+03 0.94406551E+03 0.32000000E+00 0.0000E+00 0.9000E+01
       25  1    1    2    0    0 -.10026824E+01 0.54928018E+02 -.34777147E+03 0.37361489E+03 0.12500000E+03 0.0000E+00 0.9000E+01
       24  1    1    2    0    0 0.10026824E+01 -.54928018E+02 -.57930897E+03 0.58743867E+03 0.80419002E+02 0.0000E+00 0.9000E+01
#aMCatNLO 1  0  0  2  1 0.10678571D+03 0.00000000D+00  -5  5  0 0.00000000D+00 0.00000000D+00 0.00000000D+00 0.00000000D+00 0.00000000D+00
  <mgrwgt>
 0.3284855611D+00    3    2    0
 0.126635113730305D+03 0.000000000000000D+00 0.000000000000000D+00 0.126635113730305D+03
 0.126635113730305D+03 0.000000000000000D+00 0.000000000000000D+00 -.126635113730305D+03
 0.144714191041225D+03 -.100268243489533D+01 0.549280179872259D+02 0.479489786819901D+02
 0.108556036419384D+03 0.100268243489533D+01 -.549280179872259D+02 -.479489786819901D+02
 0.000000000000000D+00 -.000000000000000D+00 0.000000000000000D+00 0.000000000000000D+00
 0.201777235019073D+03 0.000000000000000D+00 0.000000000000000D+00 0.201777235019073D+03
 0.181734826545146D+03 0.000000000000000D+00 0.000000000000000D+00 -.181734826545146D+03
 0.135144667777032D+03 0.183546627413225D+02 0.175585522485768D+01 0.479489786819901D+02
 0.139717106434009D+03 0.181752991763885D+02 -.102099009883174D+03 -.479489786819901D+02
 0.108650287353177D+03 -.365299619177110D+02 0.100343154658317D+03 0.200424084739269D+02
0.187289325877D-02 0.000000000000D+00 0.000000000000D+00 0.233359720071D-02 0.000000000000D+00  5 2 -1 25 24 21 0 0.26133172D-02 0.14524108D+00 0.13681075D+05 0.13681075D+05 0.13681075D+05 0.12524052D+01  1  2  2  2  5  2       -1 0.321427687927D+00 0.100000000000D+01
-.103251555146D-03 0.000000000000D+00 -.719240325780D-05 0.233359720071D-02 0.000000000000D+00  5 2 -1 25 24 21 2 0.26133172D-02 0.14524108D+00 0.13681075D+05 0.13681075D+05 0.13681075D+05 0.12524052D+01  1  2  3  2  5  2       -1 -.277943531641D-01 0.100000000000D+01
0.129470419891D-03 0.000000000000D+00 0.000000000000D+00 0.233359720071D-02 0.000000000000D+00  5 2 -1 25 24 21 2 0.26133172D-02 0.14524108D+00 0.13681075D+05 0.13681075D+05 0.13681075D+05 0.12524052D+01  1  2 15  2  5  2       -1 0.348522263870D-01 0.100000000000D+01
  </mgrwgt>
  </event>
  <event>
  4     66 0.48098993E-03 0.11390595E+03 0.75467711E-02 0.11465837E+00
        2 -1    0    0  501    0 0.00000000E+00 0.00000000E+00 0.60088142E+03 0.60088150E+03 0.32000000E+00 0.0000E+00 0.9000E+01
       -1 -1    0    0    0  501 0.00000000E+00 0.00000000E+00 -.51433189E+02 0.51434184E+02 0.32000000E+00 0.0000E+00 0.9000E+01
       25  1    1    2    0    0 -.45332786E+02 0.16654855E+02 0.48269883E+02 0.14243394E+03 0.12500000E+03 0.0000E+00 0.9000E+01
       24  1    1    2    0    0 0.45332786E+02 -.16654855E+02 0.50117835E+03 0.50988175E+03 0.80419002E+02 0.0000E+00 0.9000E+01
#aMCatNLO 1  0  0  1  1 0.14118946D+03 0.00000000D+00  -5  5  0 0.00000000D+00 0.00000000D+00 0.00000000D+00 0.00000000D+00 0.00000000D+00
  <mgrwgt>
 0.1811397255D+00    5    2    0
 0.175799885953443D+03 0.000000000000000D+00 0.000000000000000D+00 0.175799885953443D+03
 0.175799885953443D+03 0.000000000000000D+00 0.000000000000000D+00 -.175799885953443D+03
 0.188822909256277D+03 -.453327858945792D+02 0.166548546606888D+02 -.133028738997526D+03
 0.162776862650608D+03 0.453327858945792D+02 -.166548546606888D+02 0.133028738997526D+03
 0.000000000000000D+00 0.000000000000000D+00 0.000000000000000D+00 0.000000000000000D+00
 0.436273690514657D+03 0.000000000000000D+00 0.000000000000000D+00 0.436273690514657D+03
 0.209635038687462D+03 0.000000000000000D+00 0.000000000000000D+00 -.209635038687462D+03
 0.210480546921453D+03 -.963087784531574D+02 -.412920625053126D+02 -.133028738997526D+03
 0.168408439582134D+03 0.305291267802394D+01 -.647164653934941D+02 0.133028738997526D+03
 0.267019742698532D+03 0.932558657751334D+02 0.106008527898807D+03 0.226638651827195D+03
0.450769640375D-03 0.000000000000D+00 0.000000000000D+00 0.104324077744D-02 0.000000000000D+00  5 2 -1 25 24 21 0 0.92443378D-01 0.79128814D-02 0.12974566D+05 0.12974566D+05 0.12974566D+05 0.12550690D+01  1  2  2  1  5  1        2 0.217290643712D+00 0.100000000000D+01
-.193083380162D-04 0.000000000000D+00 -.173107410941D-05 0.104324077744D-02 0.000000000000D+00  5 2 -1 25 24 21 2 0.92443378D-01 0.79128814D-02 0.12974566D+05 0.12974566D+05 0.12974566D+05 0.12550690D+01  1  2  3  1  5  1        2 -.146610975885D-01 0.100000000000D+01
0.307389895938D-04 0.000000000000D+00 0.000000000000D+00 0.104324077744D-02 0.000000000000D+00  5 2 -1 25 24 21 2 0.92443378D-01 0.79128814D-02 0.12974566D+05 0.12974566D+05 0.12974566D+05 0.12550690D+01  1  2 15  1  5  1        2 0.233405550404D-01 0.100000000000D+01
-.227628831843D-03 0.000000000000D+00 -.153540011880D-03 0.104324077744D-02 0.000000000000D+00  5 2 -1 25 24 21 2 0.24745276D+00 0.79128814D-02 0.12974566D+05 0.12974566D+05 0.12974566D+05 0.12550690D+01  1  2  5  1  5  1        2 -.433787216040D-01 0.100000000000D+01
-.159455166288D-04 0.000000000000D+00 -.168369294281D-04 0.104324077744D-02 0.000000000000D+00  5 21 -1 25 24 -2 2 0.24745276D+00 0.79128814D-02 0.12974566D+05 0.12974566D+05 0.12974566D+05 0.12550690D+01  1  2  5  3  5  1        2 -.145165409696D-02 0.100000000000D+01
  </mgrwgt>
  </event>
  <event>
  4     66 0.48098993E-03 0.11638706E+03 0.75467711E-02 0.11885673E+00
        2 -1    0    0  501    0 0.00000000E+00 0.00000000E+00 0.67519326E+03 0.67519333E+03 0.32000000E+00 0.0000E+00 0.9000E+01
       -1 -1    0    0    0  501 0.00000000E+00 0.00000000E+00 -.22552456E+02 0.22554726E+02 0.32000000E+00 0.0000E+00 0.9000E+01
       25  1    1    2    0    0 0.52345321E+02 -.12114230E+02 0.48984951E+03 0.50839387E+03 0.12500000E+03 0.0000E+00 0.9000E+01
       24  1    1    2    0    0 -.52345321E+02 0.12114230E+02 0.16279129E+03 0.18935418E+03 0.80419002E+02 0.0000E+00 0.9000E+01
#aMCatNLO 1  0  0  2  1 0.75254765D+02 0.00000000D+00  -5  5  0 0.00000000D+00 0.00000000D+00 0.00000000D+00 0.00000000D+00 0.00000000D+00
  <mgrwgt>
 0.3209019074D+00    4    2    0
 0.123402124927958D+03 0.000000000000000D+00 0.000000000000000D+00 0.123402124927958D+03
 0.123402124927958D+03 0.000000000000000D+00 0.000000000000000D+00 -.123402124927958D+03
 0.141954852547065D+03 0.523453207031762D+02 -.121142303876440D+02 0.404894181763042D+02
 0.104849397308852D+03 -.523453207031762D+02 0.121142303876440D+02 -.404894181763042D+02
 0.000000000000000D+00 0.000000000000000D+00 0.000000000000000D+00 0.000000000000000D+00
 0.202682466219062D+03 0.000000000000000D+00 0.000000000000000D+00 0.202682466219062D+03
 0.148229346140790D+03 0.000000000000000D+00 0.000000000000000D+00 -.148229346140790D+03
 0.132559327612820D+03 0.114403396934545D+02 -.132928921084030D+02 0.404894181763042D+02
 0.125463185645667D+03 -.866638824130577D+02 0.111253538743086D+02 -.404894181763042D+02
 0.928892991013653D+02 0.752235427196032D+02 0.216753823409442D+01 0.544531200782717D+02
0.263764691523D-03 0.000000000000D+00 0.000000000000D+00 0.246651823424D-02 0.000000000000D+00  5 2 -1 25 24 21 0 0.10387607D+00 0.34697890D-02 0.13545948D+05 0.13545948D+05 0.13545948D+05 0.12529025D+01  1  2  2  2  5  2       -1 0.376149406850D+00 0.100000000000D+01
-.145925648022D-04 0.000000000000D+00 -.101292586629D-05 0.246651823424D-02 0.000000000000D+00  5 2 -1 25 24 21 2 0.10387607D+00 0.34697890D-02 0.13545948D+05 0.13545948D+05 0.13545948D+05 0.12529025D+01  1  2  3  2  5  2       -1 -.326670508080D-01 0.100000000000D+01
0.182283420432D-04 0.000000000000D+00 0.000000000000D+00 0.246651823424D-02 0.000000000000D+00  5 2 -1 25 24 21 2 0.10387607D+00 0.34697890D-02 0.13545948D+05 0.13545948D+05 0.13545948D+05 0.12529025D+01  1  2 15  2  5  2       -1 0.408061354354D-01 0.100000000000D+01
-.283151619954D-04 0.000000000000D+00 0.000000000000D+00 0.246651823424D-02 0.000000000000D+00  5 2 -1 25 24 21 2 0.10387607D+00 0.34697890D-02 0.13545948D+05 0.13545948D+05 0.13545948D+05 0.12529025D+01  1  2  4  2  5  2       -1 -.633865840637D-01 0.100000000000D+01
  </mgrwgt>
  </event>
  <event>
  4     66 0.48098993E-03 0.66567025E+02 0.75467711E-02 0.12584930E+00
        2 -1    0    0  501    0 0.00000000E+00 0.00000000E+00 0.11145355E+04 0.11145355E+04 0.32000000E+00 0.0000E+00 0.9000E+01
       -1 -1    0    0    0  501 0.00000000E+00 0.00000000E+00 -.10587224E+02 0.10592059E+02 0.32000000E+00 0.0000E+00 0.9000E+01
       25  1    1    2    0    0 0.72145199E+01 -.69141845E+01 0.48724558E+03 0.50312336E+03 0.12500000E+03 0.0000E+00 0.9000E+01
       24  1    1    2    0    0 -.72145199E+01 0.69141845E+01 0.61670268E+03 0.62200424E+03 0.80419002E+02 0.0000E+00 0.9000E+01
#aMCatNLO 1  0  0  2  1 0.15260904D+02 0.00000000D+00  -5  5  0 0.00000000D+00 0.00000000D+00 0.00000000D+00 0.00000000D+00 0.00000000D+00
  <mgrwgt>
 0.2733861021D+00    9    2    0
 0.108639691591234D+03 0.000000000000000D+00 0.000000000000000D+00 0.108639691591234D+03
 0.108639691591234D+03 0.000000000000000D+00 0.000000000000000D+00 -.108639691591234D+03
 0.129713444451484D+03 0.721451994846869D+01 -.691418448022363D+01 -.331771371030517D+02
 0.875659387309851D+02 -.721451994846869D+01 0.691418448022363D+01 0.331771371030517D+02
 0.000000000000000D+00 0.000000000000000D+00 0.000000000000000D+00 -.000000000000000D+00
 0.112296527263588D+03 0.000000000000000D+00 0.000000000000000D+00 0.112296527263588D+03
 0.126086555909876D+03 0.000000000000000D+00 0.000000000000000D+00 -.126086555909876D+03
 0.130085588759973D+03 0.142013803699257D+01 -.139470851660834D+02 -.331771371030517D+02
 0.877290699543145D+02 -.111241812545268D+02 0.216885355434907D+01 0.331771371030517D+02
 0.205684244591773D+02 0.970404321753427D+01 0.117782316117343D+02 -.137900286462883D+02
0.180433802247D-03 0.000000000000D+00 0.000000000000D+00 0.281235293673D-02 0.000000000000D+00  5 2 -1 25 24 21 0 0.17146737D+00 0.16291791D-02 0.10653982D+05 0.10653982D+05 0.10653982D+05 0.12651252D+01  1  2  2  2  5  2       -1 0.397936113352D+00 0.100000000000D+01
-.999215997627D-05 0.000000000000D+00 -.692913309941D-06 0.281235293673D-02 0.000000000000D+00  5 2 -1 25 24 21 2 0.17146737D+00 0.16291791D-02 0.10653982D+05 0.10653982D+05 0.10653982D+05 0.12651252D+01  1  2  3  2  5  2       -1 -.352713284703D-01 0.100000000000D+01
0.123558061746D-04 0.000000000000D+00 0.000000000000D+00 0.281235293673D-02 0.000000000000D+00  5 2 -1 25 24 21 2 0.17146737D+00 0.16291791D-02 0.10653982D+05 0.10653982D+05 0.10653982D+05 0.12651252D+01  1  2 15  2  5  2       -1 0.436147638882D-01 0.100000000000D+01
0.389773089345D-03 0.000000000000D+00 0.000000000000D+00 0.281235293673D-02 0.000000000000D+00  5 2 -1 25 24 21 2 0.17146737D+00 0.19152149D-02 0.12349689D+05 0.12349689D+05 0.12349689D+05 0.12575647D+01  1  2 12  2  5  2       -1 0.108480464860D+01 0.100000000000D+01
-.394907371264D-03 0.000000000000D+00 0.000000000000D+00 0.281235293673D-02 0.000000000000D+00  5 2 -1 25 24 21 2 0.17146737D+00 0.16291791D-02 0.10653982D+05 0.10653982D+05 0.10653982D+05 0.12651252D+01  1  2  4  2  5  2       -1 -.139398364721D+01 0.100000000000D+01
-.702802066219D-03 0.000000000000D+00 -.131653221408D-03 0.281235293673D-02 0.000000000000D+00  5 2 -1 25 24 21 2 0.17146737D+00 0.19564545D-02 0.10653982D+05 0.10653982D+05 0.10653982D+05 0.12651252D+01  1  2  5  2  5  2       -1 -.190989456737D+01 0.100000000000D+01
0.717030202094D-03 0.000000000000D+00 0.129477750465D-03 0.281235293673D-02 0.000000000000D+00  5 2 -1 25 24 21 2 0.17146737D+00 0.16291791D-02 0.10653982D+05 0.10653982D+05 0.10653982D+05 0.12651252D+01  1  2  6  2  5  2       -1 0.253104512350D+01 0.100000000000D+01
0.944703066901D-05 0.000000000000D+00 0.000000000000D+00 0.281235293673D-02 0.000000000000D+00  5 2 21 25 24 1 2 0.17146737D+00 0.19152149D-02 0.12349689D+05 0.12349689D+05 0.12349689D+05 0.12575647D+01  1  2 12  4  5  2       -1 0.553435794555D+00 0.100000000000D+01
-.174806036849D-04 0.000000000000D+00 -.351819851220D-05 0.281235293673D-02 0.000000000000D+00  5 2 21 25 24 1 2 0.17146737D+00 0.19564545D-02 0.10653982D+05 0.10653982D+05 0.10653982D+05 0.12651252D+01  1  2  5  4  5  2       -1 -.998300798769D+00 0.100000000000D+01
  </mgrwgt>
  </event>
  <event>
  4     66 0.48098993E-03 0.17084063E+03 0.75467711E-02 0.10820449E+00
        2 -1    0    0  501    0 0.00000000E+00 0.00000000E+00 0.25983284E+04 0.25983284E+04 0.32000000E+00 0.0000E+00 0.9000E+01
       -1 -1    0    0    0  501 0.00000000E+00 0.00000000E+00 -.33075913E+02 0.33077461E+02 0.32000000E+00 0.0000E+00 0.9000E+01
       25  1    1    2    0    0 0.23729777E+03 -.58567484E+02 0.76314077E+03 0.81101740E+03 0.12500000E+03 0.0000E+00 0.9000E+01
       24  1    1    2    0    0 -.23729777E+03 0.58567484E+02 0.18021117E+04 0.18203885E+04 0.80419002E+02 0.0000E+00 0.9000E+01
#aMCatNLO 1  0  0  2  1 0.76601744D+02 0.00000000D+00  -5  5  0 0.00000000D+00 0.00000000D+00 0.00000000D+00 0.00000000D+00 0.00000000D+00
  <mgrwgt>
 0.3414260737D+00    9    2    0
 0.293162323266375D+03 0.000000000000000D+00 0.000000000000000D+00 0.293162323266375D+03
 0.293162323266375D+03 0.000000000000000D+00 0.000000000000000D+00 -.293162323266375D+03
 0.300971805692011D+03 0.237297769228952D+03 -.585674836088329D+02 -.123363878036488D+03
 0.285352840840739D+03 -.237297769228952D+03 0.585674836088329D+02 0.123363878036488D+03
 0.000000000000000D+00 -.000000000000000D+00 -.000000000000000D+00 -.000000000000000D+00
 0.327644294283952D+03 0.000000000000000D+00 0.000000000000000D+00 0.327644294283952D+03
 0.341509554410575D+03 0.000000000000000D+00 0.000000000000000D+00 -.341509554410575D+03
 0.331178063318383D+03 0.276793242535654D+03 -.471249838802343D+02 -.123363878036488D+03
 0.260129317233895D+03 -.203217123056795D+03 0.684412172781848D+02 0.123363878036488D+03
 0.778464681422483D+02 -.735761194788587D+02 -.213162333979505D+02 -.138652601266223D+02
0.361196614373D-02 0.000000000000D+00 0.000000000000D+00 0.166595910420D-02 0.000000000000D+00  5 2 -1 25 24 21 0 0.39974295D+00 0.50887226D-02 0.70712364D+05 0.70712364D+05 0.70712364D+05 0.11776559D+01  1  2  2  2  5  2       -1 0.249550544801D+00 0.100000000000D+01
-.198343622434D-03 0.000000000000D+00 -.138709010445D-04 0.166595910420D-02 0.000000000000D+00  5 2 -1 25 24 21 2 0.39974295D+00 0.50887226D-02 0.70712364D+05 0.70712364D+05 0.70712364D+05 0.11776559D+01  1  2  3  2  5  2       -1 -.190050897844D-01 0.100000000000D+01
0.248560374060D-03 0.000000000000D+00 0.000000000000D+00 0.166595910420D-02 0.000000000000D+00  5 2 -1 25 24 21 2 0.39974295D+00 0.50887226D-02 0.70712364D+05 0.70712364D+05 0.70712364D+05 0.11776559D+01  1  2 15  2  5  2       -1 0.238168092722D-01 0.100000000000D+01
0.219573482977D-02 0.000000000000D+00 0.000000000000D+00 0.166595910420D-02 0.000000000000D+00  5 2 -1 25 24 21 2 0.39974295D+00 0.61853464D-02 0.93930681D+05 0.93930681D+05 0.93930681D+05 0.11660779D+01  1  2 12  2  5  2       -1 0.152330560519D+00 0.100000000000D+01
-.207501674153D-02 0.000000000000D+00 0.000000000000D+00 0.166595910420D-02 0.000000000000D+00  5 2 -1 25 24 21 2 0.39974295D+00 0.50887226D-02 0.70712364D+05 0.70712364D+05 0.70712364D+05 0.11776559D+01  1  2  4  2  5  2       -1 -.198826052448D+00 0.100000000000D+01
-.448735960704D-02 0.000000000000D+00 -.171623841865D-02 0.166595910420D-02 0.000000000000D+00  5 2 -1 25 24 21 2 0.39974295D+00 0.69106191D-02 0.70712364D+05 0.70712364D+05 0.70712364D+05 0.11776559D+01  1  2  5  2  5  2       -1 -.270579026279D+00 0.100000000000D+01
0.486053997473D-02 0.000000000000D+00 0.163889169493D-02 0.166595910420D-02 0.000000000000D+00  5 2 -1 25 24 21 2 0.39974295D+00 0.50887226D-02 0.70712364D+05 0.70712364D+05 0.70712364D+05 0.11776559D+01  1  2  6  2  5  2       -1 0.465732134398D+00 0.100000000000D+01
0.616617510184D-04 0.000000000000D+00 0.000000000000D+00 0.166595910420D-02 0.000000000000D+00  5 2 21 25 24 1 2 0.39974295D+00 0.61853464D-02 0.93930681D+05 0.93930681D+05 0.93930681D+05 0.11660779D+01  1  2 12  4  5  2       -1 0.694272388635D-01 0.100000000000D+01
-.136288414376D-03 0.000000000000D+00 -.673022487230D-04 0.166595910420D-02 0.000000000000D+00  5 2 21 25 24 1 2 0.39974295D+00 0.69106191D-02 0.70712364D+05 0.70712364D+05 0.70712364D+05 0.11776559D+01  1  2  5  4  5  2       -1 -.131021045691D+00 0.100000000000D+01
  </mgrwgt>
  </event>
  <event>
  5     66 0.48098993E-03 0.11073787E+03 0.75467711E-02 0.11607889E+00
        2 -1    0    0  501    0 0.00000000E+00 0.00000000E+00 0.22894034E+04 0.22894034E+04 0.32000000E+00 0.0000E+00 0.9000E+01
       21 -1    0    0  502  501 0.00000000E+00 0.00000000E+00 -.29932729E+02 0.29942124E+02 0.75000000E+00 0.0000E+00 0.9000E+01
       25  1    1    2    0    0 0.69967323E+01 -.24095165E+02 0.62300675E+03 0.63591819E+03 0.12500000E+03 0.0000E+00 0.9000E+01
       24  1    1    2    0    0 0.87275369E+01 -.96417865E+02 0.14798319E+04 0.14851741E+04 0.80419002E+02 0.0000E+00 0.9000E+01
        1  1    1    2  502    0 -.15724269E+02 0.12051303E+03 0.15663201E+03 0.19825320E+03 0.32000000E+00 0.0000E+00 0.9000E+01
#aMCatNLO 2  0  0  2  1 0.12153453D+03 0.00000000D+00  -5  5  0 0.00000000D+00 0.00000000D+00 0.00000000D+00 0.00000000D+00 0.00000000D+00
  <mgrwgt>
 0.3626364119D+00    1    2    0
 0.124831542816562D+03 0.000000000000000D+00 0.000000000000000D+00 0.124831542816562D+03
 0.124831542816562D+03 0.000000000000000D+00 0.000000000000000D+00 -.124831542816562D+03
 0.143171827329201D+03 -.143454728597717D+01 0.405233578356003D+02 -.568240414313757D+02
 0.106491258303924D+03 0.143454728597717D+01 -.405233578356003D+02 0.568240414313757D+02
 0.000000000000000D+00 -.000000000000000D+00 0.000000000000000D+00 -.000000000000000D+00
 0.150501162668552D+03 0.000000000000000D+00 0.000000000000000D+00 0.150501162668552D+03
 0.455404760983559D+03 0.000000000000000D+00 0.000000000000000D+00 -.455404760983559D+03
 0.139583318871976D+03 0.699673227773036D+01 -.240951646633671D+02 -.568240414313757D+02
 0.138089688804650D+03 0.872753688752299D+01 -.964178646054592D+02 0.568240414313757D+02
 0.328232915975485D+03 -.157242691652534D+02 0.120513029268826D+03 -.304903598315007D+03
0.118096048265D-03 0.000000000000D+00 0.000000000000D+00 0.220908187126D-02 0.427661876280D-06  5 2 21 25 24 1 2 0.35221646D+00 0.46057575D-02 0.35134508D+05 0.35134508D+05 0.35134508D+05 0.12077625D+01  1  2  1  4  5  2       -1 0.362636411946D+00 0.100000000000D+01
  </mgrwgt>
  </event>
  <event>
  5     66 0.48098993E-03 0.11020653E+03 0.75467711E-02 0.12522435E+00
        2 -1    0    0  501    0 0.00000000E+00 0.00000000E+00 0.77499575E+03 0.77499581E+03 0.32000000E+00 0.0000E+00 0.9000E+01
       21 -1    0    0  502  501 0.00000000E+00 0.00000000E+00 -.22815161E+02 0.22827485E+02 0.75000000E+00 0.0000E+00 0.9000E+01
       25  1    1    2    0    0 0.29439778E+02 -.25206084E+02 0.51834104E+03 0.53460685E+03 0.12500000E+03 0.0000E+00 0.9000E+01
       24  1    1    2    0    0 -.35131605E+02 0.18700366E+02 0.12412041E+03 0.15315687E+03 0.80419002E+02 0.0000E+00 0.9000E+01
        1  1    1    2  502    0 0.56918265E+01 0.65057184E+01 0.10971913E+03 0.11005958E+03 0.32000000E+00 0.0000E+00 0.9000E+01
#aMCatNLO 2  0  0  2  1 0.86441460D+01 0.00000000D+00  -5  5  0 0.00000000D+00 0.00000000D+00 0.00000000D+00 0.00000000D+00 0.00000000D+00
  <mgrwgt>
 0.1143940282D+00    1    2    0
 0.122665692152299D+03 0.000000000000000D+00 0.000000000000000D+00 0.122665692152299D+03
 0.122665692152299D+03 0.000000000000000D+00 0.000000000000000D+00 -.122665692152299D+03
 0.141329802477172D+03 0.327165067718656D+02 -.214608064935399D+02 0.530865052299519D+02
 0.104001581827427D+03 -.327165067718656D+02 0.214608064935399D+02 -.530865052299519D+02
 0.000000000000000D+00 0.000000000000000D+00 0.000000000000000D+00 0.000000000000000D+00
 0.143019726113441D+03 0.000000000000000D+00 0.000000000000000D+00 0.143019726113441D+03
 0.123663026545253D+03 0.000000000000000D+00 0.000000000000000D+00 -.123663026545253D+03
 0.141227562050850D+03 0.294397783533198D+02 -.252060844996698D+02 0.530865052299519D+02
 0.104256061406092D+03 -.351316048143552D+02 0.187003660707117D+02 -.530865052299519D+02
 0.211991292017509D+02 0.569182646103544D+01 0.650571842895809D+01 0.193566995681883D+02
0.324713393542D-05 0.000000000000D+00 0.000000000000D+00 0.228884431105D-02 0.424921733902D-06  5 2 21 25 24 1 2 0.11922991D+00 0.35109438D-02 0.13138053D+05 0.13138053D+05 0.13138053D+05 0.12544384D+01  1  2  1  4  5  2       -1 0.114394028167D+00 0.100000000000D+01
  </mgrwgt>
  </event>
  <event>
  4     66 0.48098993E-03 0.40679340E+02 0.75467711E-02 0.12187408E+00
        2 -1    0    0  501    0 0.00000000E+00 0.00000000E+00 0.64503859E+02 0.64504653E+02 0.32000000E+00 0.0000E+00 0.9000E+01
       -1 -1    0    0    0  501 0.00000000E+00 0.00000000E+00 -.21262864E+03 0.21262888E+03 0.32000000E+00 0.0000E+00 0.9000E+01
       25  1    1    2    0    0 0.30822911E+02 -.28282343E+02 -.43738157E+02 0.13888113E+03 0.12500000E+03 0.0000E+00 0.9000E+01
       24  1    1    2    0    0 -.30822911E+02 0.28282343E+02 -.10438662E+03 0.13825240E+03 0.80419002E+02 0.0000E+00 0.9000E+01
#aMCatNLO 1  0  0  2  1 0.45153550D+02 0.00000000D+00  -5  5  0 0.00000000D+00 0.00000000D+00 0.00000000D+00 0.00000000D+00 0.00000000D+00
  <mgrwgt>
 0.3228008027D+00    9    2    0
 0.117113239751588D+03 0.000000000000000D+00 0.000000000000000D+00 0.117113239751588D+03
 0.117113239751588D+03 0.000000000000000D+00 0.000000000000000D+00 -.117113239751588D+03
 0.136662233667763D+03 0.308229113238395D+02 -.282823428376985D+02 0.360780172985689D+02
 0.975642458354123D+02 -.308229113238395D+02 0.282823428376985D+02 -.360780172985689D+02
 0.000000000000000D+00 0.000000000000000D+00 0.000000000000000D+00 -.000000000000000D+00
 0.135986851932593D+03 0.000000000000000D+00 0.000000000000000D+00 0.135986851932593D+03
 0.149759517576725D+03 0.000000000000000D+00 0.000000000000000D+00 -.149759517576725D+03
 0.140398590664743D+03 0.160882630110319D+02 -.502623986866724D+02 0.360780172985689D+02
 0.981404768715405D+02 -.412308795712080D+02 0.127565075076038D+02 -.360780172985689D+02
 0.472073019730342D+02 0.251426165601761D+02 0.375058911790686D+02 -.137726656441323D+02
0.380697389043D-03 0.000000000000D+00 0.000000000000D+00 0.260966975736D-02 0.000000000000D+00  5 2 -1 25 24 21 0 0.99237502D-02 0.32712177D-01 0.12372401D+05 0.12372401D+05 0.12372401D+05 0.12574715D+01  1  2  2  2  5  2       -1 0.231595407107D+00 0.100000000000D+01
-.210815736770D-04 0.000000000000D+00 -.146197821385D-05 0.260966975736D-02 0.000000000000D+00  5 2 -1 25 24 21 2 0.99237502D-02 0.32712177D-01 0.12372401D+05 0.12372401D+05 0.12372401D+05 0.12574715D+01  1  2  3  2  5  2       -1 -.202791333069D-01 0.100000000000D+01
0.262604722227D-04 0.000000000000D+00 0.000000000000D+00 0.260966975736D-02 0.000000000000D+00  5 2 -1 25 24 21 2 0.99237502D-02 0.32712177D-01 0.12372401D+05 0.12372401D+05 0.12372401D+05 0.12574715D+01  1  2 15  2  5  2       -1 0.252609043834D-01 0.100000000000D+01
0.173179443619D-03 0.000000000000D+00 0.000000000000D+00 0.260966975736D-02 0.000000000000D+00  5 2 -1 25 24 21 2 0.99237502D-02 0.43870038D-01 0.18510415D+05 0.18510415D+05 0.18510415D+05 0.12375439D+01  1  2 12  2  5  2       -1 0.982565849371D-01 0.100000000000D+01
-.202868215819D-03 0.000000000000D+00 0.000000000000D+00 0.260966975736D-02 0.000000000000D+00  5 2 -1 25 24 21 2 0.99237502D-02 0.32712177D-01 0.12372401D+05 0.12372401D+05 0.12372401D+05 0.12574715D+01  1  2  4  2  5  2       -1 -.195146323294D+00 0.100000000000D+01
-.358135300808D-03 0.000000000000D+00 -.150180094666D-03 0.260966975736D-02 0.000000000000D+00  5 2 -1 25 24 21 2 0.99237502D-02 0.47853128D-01 0.12372401D+05 0.12372401D+05 0.12372401D+05 0.12574715D+01  1  2  5  2  5  2       -1 -.177571766392D+00 0.100000000000D+01
0.396476904179D-03 0.000000000000D+00 0.139933530371D-03 0.260966975736D-02 0.000000000000D+00  5 2 -1 25 24 21 2 0.99237502D-02 0.32712177D-01 0.12372401D+05 0.12372401D+05 0.12372401D+05 0.12574715D+01  1  2  6  2  5  2       -1 0.381385569983D+00 0.100000000000D+01
0.658883849532D-05 0.000000000000D+00 0.000000000000D+00 0.260966975736D-02 0.000000000000D+00  5 2 21 25 24 1 2 0.99237502D-02 0.43870038D-01 0.18510415D+05 0.18510415D+05 0.18510415D+05 0.12375439D+01  1  2 12  4  5  2       -1 0.393496608745D-01 0.100000000000D+01
-.116492043365D-04 0.000000000000D+00 -.689076111163D-05 0.260966975736D-02 0.000000000000D+00  5 2 21 25 24 1 2 0.99237502D-02 0.47853128D-01 0.12372401D+05 0.12372401D+05 0.12372401D+05 0.12574715D+01  1  2  5  4  5  2       -1 -.600501015799D-01 0.100000000000D+01
  </mgrwgt>
  </event>
  <event>
  4     66 0.48098993E-03 0.11269666E+03 0.75467711E-02 0.12216809E+00
        2 -1    0    0  501    0 0.00000000E+00 0.00000000E+00 0.30855034E+03 0.30855051E+03 0.32000000E+00 0.0000E+00 0.9000E+01
       -1 -1    0    0    0  501 0.00000000E+00 0.00000000E+00 -.52226791E+02 0.52227771E+02 0.32000000E+00 0.0000E+00 0.9000E+01
       25  1    1    2    0    0 0.39216894E+02 -.23003674E+02 0.64407807E+02 0.14778532E+03 0.12500000E+03 0.0000E+00 0.9000E+01
       24  1    1    2    0    0 -.39216894E+02 0.23003674E+02 0.19191574E+03 0.21299296E+03 0.80419002E+02 0.0000E+00 0.9000E+01
#aMCatNLO 1  0  0  2  1 0.39728363D+02 0.00000000D+00  -5  5  0 0.00000000D+00 0.00000000D+00 0.00000000D+00 0.00000000D+00 0.00000000D+00
  <mgrwgt>
 0.2997928644D+00    4    2    0
 0.126944085551775D+03 0.000000000000000D+00 0.000000000000000D+00 0.126944085551775D+03
 0.126944085551775D+03 0.000000000000000D+00 0.000000000000000D+00 -.126944085551775D+03
 0.144979159824484D+03 0.392168939744501D+02 -.230036742218884D+02 -.576786180720664D+02
 0.108909011279067D+03 -.392168939744501D+02 0.230036742218884D+02 0.576786180720664D+02
 0.000000000000000D+00 -.000000000000000D+00 0.000000000000000D+00 0.000000000000000D+00
 0.164977408280644D+03 0.000000000000000D+00 0.000000000000000D+00 0.164977408280644D+03
 0.139302817367915D+03 0.000000000000000D+00 0.000000000000000D+00 -.139302817367915D+03
 0.153106366805080D+03 0.518533610099420D+02 -.424377841730801D+02 -.576786180720664D+02
 0.103871348712216D+03 -.301966908292925D+02 0.913115596083356D+01 0.576786180720664D+02
 0.473025101312629D+02 -.216566701806495D+02 0.333066282122466D+02 0.256745909127289D+02
0.420106240658D-03 0.000000000000D+00 0.000000000000D+00 0.218143900277D-02 0.000000000000D+00  5 2 -1 25 24 21 0 0.47469371D-01 0.80349791D-02 0.12700538D+05 0.12700538D+05 0.12700538D+05 0.12561464D+01  1  2  2  2  5  2       -1 0.405362132306D+00 0.100000000000D+01
-.229370704816D-04 0.000000000000D+00 -.161331858064D-05 0.218143900277D-02 0.000000000000D+00  5 2 -1 25 24 21 2 0.47469371D-01 0.80349791D-02 0.12700538D+05 0.12700538D+05 0.12700538D+05 0.12561464D+01  1  2  3  2  5  2       -1 -.349222757123D-01 0.100000000000D+01
0.287826981030D-04 0.000000000000D+00 0.000000000000D+00 0.218143900277D-02 0.000000000000D+00  5 2 -1 25 24 21 2 0.47469371D-01 0.80349791D-02 0.12700538D+05 0.12700538D+05 0.12700538D+05 0.12561464D+01  1  2 15  2  5  2       -1 0.438223930864D-01 0.100000000000D+01
-.751838849249D-04 0.000000000000D+00 0.000000000000D+00 0.218143900277D-02 0.000000000000D+00  5 2 -1 25 24 21 2 0.47469371D-01 0.80349791D-02 0.12700538D+05 0.12700538D+05 0.12700538D+05 0.12561464D+01  1  2  4  2  5  2       -1 -.114469385294D+00 0.100000000000D+01
  </mgrwgt>
  </event>
  <event>
  4     66 0.48098993E-03 0.14267192E+03 0.75467711E-02 0.11756028E+00
        2 -1    0    0  501    0 0.00000000E+00 0.00000000E+00 0.17237265E+03 0.17237295E+03 0.32000000E+00 0.0000E+00 0.9000E+01
       -1 -1    0    0    0  501 0.00000000E+00 0.00000000E+00 -.11939072E+03 0.11939114E+03 0.32000000E+00 0.0000E+00 0.9000E+01
       25  1    1    2    0    0 -.91834916E+02 -.33660360E+02 0.44579848E+02 0.16486065E+03 0.12500000E+03 0.0000E+00 0.9000E+01
       24  1    1    2    0    0 0.91834916E+02 0.33660360E+02 0.84020854E+01 0.12690344E+03 0.80419002E+02 0.0000E+00 0.9000E+01
#aMCatNLO 1  0  0  1  1 0.53927606D+02 0.00000000D+00  -5  5  0 0.00000000D+00 0.00000000D+00 0.00000000D+00 0.00000000D+00 0.00000000D+00
  <mgrwgt>
 0.1556485033D+00    4    2    0
 0.143456612867512D+03 0.000000000000000D+00 0.000000000000000D+00 0.143456612867512D+03
 0.143456612867512D+03 0.000000000000000D+00 0.000000000000000D+00 -.143456612867512D+03
 0.159415765712713D+03 -.918349161919339D+02 -.336603602367704D+02 0.148900864511217D+02
 0.127497460022312D+03 0.918349161919339D+02 0.336603602367704D+02 -.148900864511217D+02
 0.000000000000000D+00 -.000000000000000D+00 -.000000000000000D+00 -.000000000000000D+00
 0.167519870428720D+03 0.000000000000000D+00 0.000000000000000D+00 0.167519870428720D+03
 0.179704401377446D+03 0.000000000000000D+00 0.000000000000000D+00 -.179704401377446D+03
 0.148592171379076D+03 -.785173429711947D+02 -.824291049148534D+01 0.148900864511217D+02
 0.143345126356455D+03 0.103545542903215D+03 0.560108486467940D+02 -.148900864511217D+02
 0.552869740706346D+02 -.250281999320201D+02 -.477679381553087D+02 -.121845309487258D+02
0.655861570794D-03 0.000000000000D+00 0.000000000000D+00 0.244247466311D-02 0.000000000000D+00  5 2 -1 25 24 21 0 0.26518925D-01 0.18367858D-01 0.20355276D+05 0.20355276D+05 0.20355276D+05 0.12329851D+01  1  2  2  1  5  1        2 0.334508703123D+00 0.100000000000D+01
-.364354211350D-04 0.000000000000D+00 -.251868112417D-05 0.244247466311D-02 0.000000000000D+00  5 2 -1 25 24 21 2 0.26518925D-01 0.18367858D-01 0.20355276D+05 0.20355276D+05 0.20355276D+05 0.12329851D+01  1  2  3  1  5  1        2 -.282510545114D-01 0.100000000000D+01
0.453284563127D-04 0.000000000000D+00 0.000000000000D+00 0.244247466311D-02 0.000000000000D+00  5 2 -1 25 24 21 2 0.26518925D-01 0.18367858D-01 0.20355276D+05 0.20355276D+05 0.20355276D+05 0.12329851D+01  1  2 15  1  5  1        2 0.351464769808D-01 0.100000000000D+01
-.239569263636D-03 0.000000000000D+00 0.000000000000D+00 0.244247466311D-02 0.000000000000D+00  5 2 -1 25 24 21 2 0.26518925D-01 0.18367858D-01 0.20355276D+05 0.20355276D+05 0.20355276D+05 0.12329851D+01  1  2  4  1  5  1        2 -.185755622288D+00 0.100000000000D+01
  </mgrwgt>
  </event>
  <event>
  4     66 0.48098993E-03 0.10531381E+03 0.75467711E-02 0.11222322E+00
        2 -1    0    0  501    0 0.00000000E+00 0.00000000E+00 0.43919617E+03 0.43919628E+03 0.32000000E+00 0.0000E+00 0.9000E+01
       -1 -1    0    0    0  501 0.00000000E+00 0.00000000E+00 -.25468630E+02 0.25470640E+02 0.32000000E+00 0.0000E+00 0.9000E+01
       25  1    1    2    0    0 0.22740630E+02 -.59221900E+00 0.27017970E+03 0.29856248E+03 0.12500000E+03 0.0000E+00 0.9000E+01
       24  1    1    2    0    0 -.22740630E+02 0.59221900E+00 0.14354784E+03 0.16610444E+03 0.80419002E+02 0.0000E+00 0.9000E+01
#aMCatNLO 1  0  0  2  1 0.18948401D+03 0.00000000D+00  -5  5  0 0.00000000D+00 0.00000000D+00 0.00000000D+00 0.00000000D+00 0.00000000D+00
  <mgrwgt>
 0.3681310235D+00    3    2    0
 0.105764921493013D+03 0.000000000000000D+00 0.000000000000000D+00 0.105764921493013D+03
 0.105764921493013D+03 0.000000000000000D+00 0.000000000000000D+00 -.105764921493013D+03
 0.127411474802833D+03 0.227406298431959D+02 -.592218997304246D+00 0.954970902314856D+01
 0.841183681831938D+02 -.227406298431959D+02 0.592218997304246D+00 -.954970902314856D+01
 0.000000000000000D+00 -.000000000000000D+00 0.000000000000000D+00 0.000000000000000D+00
 0.409588567462457D+03 0.000000000000000D+00 0.000000000000000D+00 0.409588567462457D+03
 0.175537340980931D+03 0.000000000000000D+00 0.000000000000000D+00 -.175537340980931D+03
 0.189279879260458D+03 0.129600432731771D+03 -.575708570907562D+02 0.954970902314856D+01
 0.947079101983994D+02 0.375999529165583D+02 -.315819394278335D+02 -.954970902314856D+01
 0.301138118984531D+03 -.167200385648330D+03 0.891527965185896D+02 0.234051226481526D+03
0.188763091145D-03 0.000000000000D+00 0.000000000000D+00 0.311666272875D-02 0.000000000000D+00  5 2 -1 25 24 21 0 0.67568805D-01 0.39184143D-02 0.11090999D+05 0.11090999D+05 0.11090999D+05 0.12630534D+01  1  2  2  2  5  2       -1 0.360302825038D+00 0.100000000000D+01
-.104866054463D-04 0.000000000000D+00 -.724899972459D-06 0.311666272875D-02 0.000000000000D+00  5 2 -1 25 24 21 2 0.67568805D-01 0.39184143D-02 0.11090999D+05 0.11090999D+05 0.11090999D+05 0.12630534D+01  1  2  3  2  5  2       -1 -.319322084577D-01 0.100000000000D+01
0.130574025365D-04 0.000000000000D+00 0.000000000000D+00 0.311666272875D-02 0.000000000000D+00  5 2 -1 25 24 21 2 0.67568805D-01 0.39184143D-02 0.11090999D+05 0.11090999D+05 0.11090999D+05 0.12630534D+01  1  2 15  2  5  2       -1 0.397604069160D-01 0.100000000000D+01
  </mgrwgt>
  </event>
  <event>
  4     66 0.48098993E-03 0.12523102E+03 0.75467711E-02 0.10948783E+00
        2 -1    0    0  501    0 0.00000000E+00 0.00000000E+00 0.30019286E+03 0.30019303E+03 0.32000000E+00 0.0000E+00 0.9000E+01
       -1 -1    0    0    0  501 0.00000000E+00 0.00000000E+00 -.25739129E+03 0.25739149E+03 0.32000000E+00 0.0000E+00 0.9000E+01
       25  1    1    2    0    0 -.70699117E+02 0.23736342E+03 0.92592931E+02 0.29246916E+03 0.12500000E+03 0.0000E+00 0.9000E+01
       24  1    1    2    0    0 0.70699117E+02 -.23736342E+03 -.49791360E+02 0.26511536E+03 0.80419002E+02 0.0000E+00 0.9000E+01
#aMCatNLO 1  0  0  2  1 0.24648775D+02 0.00000000D+00  -5  5  0 0.00000000D+00 0.00000000D+00 0.00000000D+00 0.00000000D+00 0.00000000D+00
  <mgrwgt>
 0.6191275693D+00    6    2    0
 0.277969657040205D+03 0.000000000000000D+00 0.000000000000000D+00 0.277969657040205D+03
 0.277969657040205D+03 0.000000000000000D+00 0.000000000000000D+00 -.277969657040205D+03
 0.286205973319418D+03 -.706991169313850D+02 0.237363420063944D+03 0.703498460864360D+02
 0.269733340760993D+03 0.706991169313850D+02 -.237363420063944D+03 -.703498460864360D+02
 0.000000000000000D+00 0.000000000000000D+00 -.000000000000000D+00 0.000000000000000D+00
 0.292655198086579D+03 0.000000000000000D+00 0.000000000000000D+00 0.292655198086579D+03
 0.288781570967678D+03 0.000000000000000D+00 0.000000000000000D+00 -.288781570967678D+03
 0.295424703765520D+03 -.808693272832597D+02 0.245279038352879D+03 0.703498460864360D+02
 0.261060770496779D+03 0.614178187163674D+02 -.230139654639829D+03 -.703498460864360D+02
 0.249512947919570D+02 0.194515085668923D+02 -.151393837130505D+02 0.387362711890025D+01
0.459780704370D-02 0.000000000000D+00 0.000000000000D+00 0.190200658344D-02 0.000000000000D+00  5 2 -1 25 24 21 0 0.46183545D-01 0.39598688D-01 0.72313382D+05 0.72313382D+05 0.72313382D+05 0.11767301D+01  1  2  2  2  5  2       -1 0.360555913706D+00 0.100000000000D+01
-.255092849602D-03 0.000000000000D+00 -.176567896782D-04 0.190200658344D-02 0.000000000000D+00  5 2 -1 25 24 21 2 0.46183545D-01 0.39598688D-01 0.72313382D+05 0.72313382D+05 0.72313382D+05 0.11767301D+01  1  2  3  2  5  2       -1 -.276996236315D-01 0.100000000000D+01
0.315252862888D-03 0.000000000000D+00 0.000000000000D+00 0.190200658344D-02 0.000000000000D+00  5 2 -1 25 24 21 2 0.46183545D-01 0.39598688D-01 0.72313382D+05 0.72313382D+05 0.72313382D+05 0.11767301D+01  1  2 15  2  5  2       -1 0.342321851214D-01 0.100000000000D+01
0.738748024148D-02 0.000000000000D+00 0.000000000000D+00 0.190200658344D-02 0.000000000000D+00  5 2 -1 25 24 21 2 0.46183545D-01 0.42138725D-01 0.79236143D+05 0.79236143D+05 0.79236143D+05 0.11729726D+01  1  2 12  2  5  2       -1 0.713132848972D+00 0.100000000000D+01
-.498320787036D-02 0.000000000000D+00 0.000000000000D+00 0.190200658344D-02 0.000000000000D+00  5 2 -1 25 24 21 2 0.46183545D-01 0.39598688D-01 0.72313382D+05 0.72313382D+05 0.72313382D+05 0.11767301D+01  1  2  4  2  5  2       -1 -.541108787257D+00 0.100000000000D+01
0.808066992622D-04 0.000000000000D+00 0.000000000000D+00 0.190200658344D-02 0.000000000000D+00  5 2 21 25 24 1 2 0.46183545D-01 0.42138725D-01 0.79236143D+05 0.79236143D+05 0.79236143D+05 0.11729726D+01  1  2 12  4  5  2       -1 0.800150323804D-01 0.100000000000D+01
  </mgrwgt>
  </event>
  <event>
  4     66 0.48098993E-03 0.10820427E+03 0.75467711E-02 0.11684570E+00
        2 -1    0    0  501    0 0.00000000E+00 0.00000000E+00 0.34799806E+04 0.34799806E+04 0.32000000E+00 0.0000E+00 0.9000E+01
       -1 -1    0    0    0  501 0.00000000E+00 0.00000000E+00 -.41871820E+01 0.41993920E+01 0.32000000E+00 0.0000E+00 0.9000E+01
       25  1    1    2    0    0 -.14711469E+02 0.29888345E+02 0.12480054E+04 0.12546921E+04 0.12500000E+03 0.0000E+00 0.9000E+01
       24  1    1    2    0    0 0.14711469E+02 -.29888345E+02 0.22277880E+04 0.22294879E+04 0.80419002E+02 0.0000E+00 0.9000E+01
#aMCatNLO 1  0  0  1  1 0.11478047D+03 0.00000000D+00  -5  5  0 0.00000000D+00 0.00000000D+00 0.00000000D+00 0.00000000D+00 0.00000000D+00
  <mgrwgt>
 0.7024763574D+00    3    2    0
 0.120799869149478D+03 0.000000000000000D+00 0.000000000000000D+00 0.120799869149478D+03
 0.120799869149478D+03 0.000000000000000D+00 0.000000000000000D+00 -.120799869149478D+03
 0.139752257322800D+03 -.147114686071238D+02 0.298883450757566D+02 -.528767713355517D+02
 0.101847480976157D+03 0.147114686071238D+02 -.298883450757566D+02 0.528767713355517D+02
 0.000000000000000D+00 -.000000000000000D+00 -.000000000000000D+00 -.000000000000000D+00
 0.169142066972669D+03 0.000000000000000D+00 0.000000000000000D+00 0.169142066972669D+03
 0.226773324773686D+03 0.000000000000000D+00 0.000000000000000D+00 -.226773324773686D+03
 0.166809222311770D+03 0.200764369041898D+01 0.969553148011878D+02 -.528767713355517D+02
 0.100669730903260D+03 0.257562613567979D+02 0.144166854655430D+02 0.528767713355517D+02
 0.128436438531325D+03 -.277639050472169D+02 -.111372000266731D+03 -.576312578010169D+02
0.159933369549D-02 0.000000000000D+00 0.000000000000D+00 0.230864509584D-02 0.000000000000D+00  5 2 -1 25 24 21 0 0.53538257D+00 0.64512220D-03 0.11708164D+05 0.11708164D+05 0.11708164D+05 0.12602792D+01  1  2  2  1  5  1        2 0.687277384860D+00 0.100000000000D+01
-.875419780817D-04 0.000000000000D+00 -.614186250492D-05 0.230864509584D-02 0.000000000000D+00  5 2 -1 25 24 21 2 0.53538257D+00 0.64512220D-03 0.11708164D+05 0.11708164D+05 0.11708164D+05 0.12602792D+01  1  2  3  1  5  1        2 -.597506793083D-01 0.100000000000D+01
0.109810312764D-03 0.000000000000D+00 0.000000000000D+00 0.230864509584D-02 0.000000000000D+00  5 2 -1 25 24 21 2 0.53538257D+00 0.64512220D-03 0.11708164D+05 0.11708164D+05 0.11708164D+05 0.12602792D+01  1  2 15  1  5  1        2 0.749496518870D-01 0.100000000000D+01
  </mgrwgt>
  </event>
  <event>
  5     66 0.48098993E-03 0.11166440E+03 0.75467711E-02 0.12354242E+00
        2 -1    0    0  502    0 0.00000000E+00 0.00000000E+00 0.73468930E+03 0.73468937E+03 0.32000000E+00 0.0000E+00 0.9000E+01
       -1 -1    0    0    0  501 0.00000000E+00 0.00000000E+00 -.25665397E+02 0.25667392E+02 0.32000000E+00 0.0000E+00 0.9000E+01
       25  1    1    2    0    0 0.51716165E+02 0.15792879E+02 0.53654230E+03 0.55355815E+03 0.12500000E+03 0.0000E+00 0.9000E+01
       24  1    1    2    0    0 -.27854956E+02 -.23474243E+02 0.12403564E+03 0.15224649E+03 0.80419002E+02 0.0000E+00 0.9000E+01
       21  1    1    2  502  501 -.23861209E+02 0.76813645E+01 0.48445963E+02 0.54552127E+02 0.75000000E+00 0.0000E+00 0.9000E+01
#aMCatNLO 2  0  0  1  1 0.25067123D+02 0.00000000D+00  -5  5  0 0.00000000D+00 0.00000000D+00 0.00000000D+00 0.00000000D+00 0.00000000D+00
  <mgrwgt>
 0.2515767326D+00    1    2    0
 0.123661440809895D+03 0.000000000000000D+00 0.000000000000000D+00 0.123661440809895D+03
 0.123661440809895D+03 0.000000000000000D+00 0.000000000000000D+00 -.123661440809895D+03
 0.142175263683162D+03 0.378539321688444D+02 0.202553879833188D+02 0.523985179215826D+02
 0.105147617936628D+03 -.378539321688444D+02 -.202553879833188D+02 -.523985179215826D+02
 0.000000000000000D+00 -.000000000000000D+00 0.000000000000000D+00 -.000000000000000D+00
 0.133659077557042D+03 0.000000000000000D+00 0.000000000000000D+00 0.133659077557042D+03
 0.141070773806353D+03 0.000000000000000D+00 0.000000000000000D+00 -.141070773806353D+03
 0.145926630427595D+03 0.517161654659008D+02 0.157928786823999D+02 0.523985179215826D+02
 0.102663330007584D+03 -.278549564558362D+02 -.234742432112448D+02 -.523985179215826D+02
 0.261398909282162D+02 -.238612090100646D+02 0.768136452884494D+01 -.741169624931123D+01
0.150911611720D-03 0.000000000000D+00 0.000000000000D+00 0.229189025049D-02 0.305589227831D-04  5 2 -1 25 24 21 2 0.11302482D+00 0.39485256D-02 0.15568334D+05 0.15568334D+05 0.15568334D+05 0.12459855D+01  1  2  1  1  5  1        2 0.251576732635D+00 0.100000000000D+01
  </mgrwgt>
  </event>
  <event>
  4     66 0.48098993E-03 0.55222326E+02 0.75467711E-02 0.12052542E+00
        2 -1    0    0  501    0 0.00000000E+00 0.00000000E+00 0.18726870E+04 0.18726870E+04 0.32000000E+00 0.0000E+00 0.9000E+01
       -1 -1    0    0    0  501 0.00000000E+00 0.00000000E+00 -.11411978E+02 0.11416464E+02 0.32000000E+00 0.0000E+00 0.9000E+01
       25  1    1    2    0    0 0.52889525E+02 0.48050077E+02 0.55383486E+03 0.57224485E+03 0.12500000E+03 0.0000E+00 0.9000E+01
       24  1    1    2    0    0 -.52889525E+02 -.48050077E+02 0.13074401E+04 0.13118586E+04 0.80419002E+02 0.0000E+00 0.9000E+01
#aMCatNLO 1  0  0  2  1 0.37920235D+02 0.00000000D+00  -5  5  0 0.00000000D+00 0.00000000D+00 0.00000000D+00 0.00000000D+00 0.00000000D+00
  <mgrwgt>
 0.3955771578D+00    9    2    0
 0.146202990407533D+03 0.000000000000000D+00 0.000000000000000D+00 0.146202990407533D+03
 0.146202990407533D+03 0.000000000000000D+00 0.000000000000000D+00 -.146202990407533D+03
 0.161862355547915D+03 0.528895249621898D+02 0.480500770162045D+02 -.739480249332622D+02
 0.130543625267150D+03 -.528895249621898D+02 -.480500770162045D+02 0.739480249332622D+02
 0.000000000000000D+00 0.000000000000000D+00 -.000000000000000D+00 -.000000000000000D+00
 0.166103968745267D+03 0.000000000000000D+00 0.000000000000000D+00 0.166103968745267D+03
 0.166675110885367D+03 0.000000000000000D+00 0.000000000000000D+00 -.166675110885367D+03
 0.162983164805704D+03 0.383962304087837D+02 0.632133776106660D+02 -.739480249332622D+02
 0.131871378741183D+03 -.645974221318533D+02 -.358009390815221D+02 0.739480249332622D+02
 0.379245360837459D+02 0.262011917230696D+02 -.274124385291440D+02 -.571142140100588D+00
0.367038609754D-03 0.000000000000D+00 0.000000000000D+00 0.187349653262D-02 0.000000000000D+00  5 2 -1 25 24 21 0 0.28810604D+00 0.17560361D-02 0.15820914D+05 0.15820914D+05 0.15820914D+05 0.12451931D+01  1  2  2  2  5  2       -1 0.294931754603D+00 0.100000000000D+01
-.198298351380D-04 0.000000000000D+00 -.140952490494D-05 0.187349653262D-02 0.000000000000D+00  5 2 -1 25 24 21 2 0.28810604D+00 0.17560361D-02 0.15820914D+05 0.15820914D+05 0.15820914D+05 0.12451931D+01  1  2  3  2  5  2       -1 -.247059926475D-01 0.100000000000D+01
0.253230276416D-04 0.000000000000D+00 0.000000000000D+00 0.187349653262D-02 0.000000000000D+00  5 2 -1 25 24 21 2 0.28810604D+00 0.17560361D-02 0.15820914D+05 0.15820914D+05 0.15820914D+05 0.12451931D+01  1  2 15  2  5  2       -1 0.315499614784D-01 0.100000000000D+01
0.207041771569D-03 0.000000000000D+00 0.000000000000D+00 0.187349653262D-02 0.000000000000D+00  5 2 -1 25 24 21 2 0.28810604D+00 0.21058492D-02 0.21366966D+05 0.21366966D+05 0.21366966D+05 0.12306775D+01  1  2 12  2  5  2       -1 0.194647571303D+00 0.100000000000D+01
-.181504678473D-03 0.000000000000D+00 0.000000000000D+00 0.187349653262D-02 0.000000000000D+00  5 2 -1 25 24 21 2 0.28810604D+00 0.17560361D-02 0.15820914D+05 0.15820914D+05 0.15820914D+05 0.12451931D+01  1  2  4  2  5  2       -1 -.226136688512D+00 0.100000000000D+01
-.460604697707D-03 0.000000000000D+00 -.185160560012D-03 0.187349653262D-02 0.000000000000D+00  5 2 -1 25 24 21 2 0.28810604D+00 0.23339530D-02 0.15820914D+05 0.15820914D+05 0.15820914D+05 0.12451931D+01  1  2  5  2  5  2       -1 -.380963147334D+00 0.100000000000D+01
0.500153889600D-03 0.000000000000D+00 0.177911538420D-03 0.187349653262D-02 0.000000000000D+00  5 2 -1 25 24 21 2 0.28810604D+00 0.17560361D-02 0.15820914D+05 0.15820914D+05 0.15820914D+05 0.12451931D+01  1  2  6  2  5  2       -1 0.623141757513D+00 0.100000000000D+01
0.549981881474D-05 0.000000000000D+00 0.000000000000D+00 0.187349653262D-02 0.000000000000D+00  5 2 21 25 24 1 2 0.28810604D+00 0.21058492D-02 0.21366966D+05 0.21366966D+05 0.21366966D+05 0.12306775D+01  1  2 12  4  5  2       -1 0.106221367575D+00 0.100000000000D+01
-.133131806766D-04 0.000000000000D+00 -.688780461625D-05 0.187349653262D-02 0.000000000000D+00  5 2 21 25 24 1 2 0.28810604D+00 0.23339530D-02 0.15820914D+05 0.15820914D+05 0.15820914D+05 0.12451931D+01  1  2  5  4  5  2       -1 -.223109426169D+00 0.100000000000D+01
  </mgrwgt>
  </event>
  <event>
  4     66 0.48098993E-03 0.11756687E+03 0.75467711E-02 0.10170977E+00
        2 -1    0    0  501    0 0.00000000E+00 0.00000000E+00 0.76929397E+02 0.76930063E+02 0.32000000E+00 0.0000E+00 0.9000E+01
       -1 -1    0    0    0  501 0.00000000E+00 0.00000000E+00 -.26140003E+03 0.26140023E+03 0.32000000E+00 0.0000E+00 0.9000E+01
       25  1    1    2    0    0 0.49110746E+02 0.27261987E+02 -.90412823E+01 0.13733836E+03 0.12500000E+03 0.0000E+00 0.9000E+01
       24  1    1    2    0    0 -.49110746E+02 -.27261987E+02 -.17542935E+03 0.20099193E+03 0.80419002E+02 0.0000E+00 0.9000E+01
#aMCatNLO 1  0  0  2  1 0.45899359D+03 0.00000000D+00  -5  5  0 0.00000000D+00 0.00000000D+00 0.00000000D+00 0.00000000D+00 0.00000000D+00
  <mgrwgt>
 0.3893527440D+00    3    2    0
 0.141807943653321D+03 0.000000000000000D+00 0.000000000000000D+00 0.141807943653321D+03
 0.141807943653321D+03 0.000000000000000D+00 0.000000000000000D+00 -.141807943653321D+03
 0.157952638741802D+03 0.491107463142973D+02 0.272619873039998D+02 0.785426936779451D+02
 0.125663248564840D+03 -.491107463142973D+02 -.272619873039998D+02 -.785426936779451D+02
 0.000000000000000D+00 0.000000000000000D+00 0.000000000000000D+00 0.000000000000000D+00
 0.910620220546352D+03 0.000000000000000D+00 0.000000000000000D+00 0.910620220546352D+03
 0.351960840335351D+03 0.000000000000000D+00 0.000000000000000D+00 -.351960840335351D+03
 0.246495129580040D+03 0.200526453529187D+02 -.196376642172238D+03 0.785426936779451D+02
 0.293053833232977D+03 -.791940455438103D+02 -.258790806711498D+03 -.785426936779451D+02
 0.723032098068687D+03 0.591414001908915D+02 0.455167448883736D+03 0.558659380211000D+03
0.109912269828D-02 0.000000000000D+00 0.000000000000D+00 0.179449723141D-02 0.000000000000D+00  5 2 -1 25 24 21 0 0.11835358D-01 0.40215456D-01 0.13821970D+05 0.13821970D+05 0.13821970D+05 0.12518924D+01  1  2  2  2  5  2       -1 0.380257134267D+00 0.100000000000D+01
-.584532060709D-04 0.000000000000D+00 -.422092056705D-05 0.179449723141D-02 0.000000000000D+00  5 2 -1 25 24 21 2 0.11835358D-01 0.40215456D-01 0.13821970D+05 0.13821970D+05 0.13821970D+05 0.12518924D+01  1  2  3  2  5  2       -1 -.316937458381D-01 0.100000000000D+01
0.752283626333D-04 0.000000000000D+00 0.000000000000D+00 0.179449723141D-02 0.000000000000D+00  5 2 -1 25 24 21 2 0.11835358D-01 0.40215456D-01 0.13821970D+05 0.13821970D+05 0.13821970D+05 0.12518924D+01  1  2 15  2  5  2       -1 0.407893555441D-01 0.100000000000D+01
  </mgrwgt>
  </event>
  <event>
  4     66 -.48098993E-03 0.61772228E+02 0.75467711E-02 0.11746855E+00
        2 -1    0    0  501    0 0.00000000E+00 0.00000000E+00 0.50918526E+03 0.50918536E+03 0.32000000E+00 0.0000E+00 0.9000E+01
       -1 -1    0    0    0  501 0.00000000E+00 0.00000000E+00 -.24849524E+02 0.24851584E+02 0.32000000E+00 0.0000E+00 0.9000E+01
       25  1    1    2    0    0 0.11709029E+02 0.43287230E+02 0.27817221E+03 0.30824611E+03 0.12500000E+03 0.0000E+00 0.9000E+01
       24  1    1    2    0    0 -.11709029E+02 -.43287230E+02 0.20616353E+03 0.22579084E+03 0.80419002E+02 0.0000E+00 0.9000E+01
#aMCatNLO 1  0  0  2  1 0.10002205D+03 0.00000000D+00  -5  5  0 0.00000000D+00 0.00000000D+00 0.00000000D+00 0.00000000D+00 0.00000000D+00
  <mgrwgt>
 -.5417873160D-01    7    2    0
 0.112488169142507D+03 0.000000000000000D+00 0.000000000000000D+00 0.112488169142507D+03
 0.112488169142507D+03 0.000000000000000D+00 0.000000000000000D+00 -.112488169142507D+03
 0.132840940717151D+03 0.117090289567589D+02 0.432872302530650D+02 -.329087655884786D+01
 0.921353975678631D+02 -.117090289567589D+02 -.432872302530650D+02 0.329087655884786D+01
 0.000000000000000D+00 -.000000000000000D+00 -.000000000000000D+00 -.000000000000000D+00
 0.128608330444191D+03 0.000000000000000D+00 0.000000000000000D+00 0.128608330444191D+03
 0.577524838882935D+03 0.000000000000000D+00 0.000000000000000D+00 -.577524838882935D+03
 0.155548327538673D+03 0.706906614125780D+02 0.596848617373370D+02 -.329087655884786D+01
 0.906604537274768D+02 0.256765429154446D+02 -.328935737050140D+02 0.329087655884786D+01
 0.459924388060975D+03 -.963672043280226D+02 -.267912880323230D+02 -.448916508438744D+03
0.158671074842D-03 0.000000000000D+00 0.000000000000D+00 0.294461653531D-02 0.000000000000D+00  5 2 -1 25 24 21 0 0.78336360D-01 0.38231699D-02 0.12642391D+05 0.12642391D+05 0.12642391D+05 0.12563784D+01  1  2  2  2  5  2       -1 0.269176604142D+00 0.100000000000D+01
-.881505761359D-05 0.000000000000D+00 -.609338706446D-06 0.294461653531D-02 0.000000000000D+00  5 2 -1 25 24 21 2 0.78336360D-01 0.38231699D-02 0.12642391D+05 0.12642391D+05 0.12642391D+05 0.12563784D+01  1  2  3  2  5  2       -1 -.236050888204D-01 0.100000000000D+01
0.109822793496D-04 0.000000000000D+00 0.000000000000D+00 0.294461653531D-02 0.000000000000D+00  5 2 -1 25 24 21 2 0.78336360D-01 0.38231699D-02 0.12642391D+05 0.12642391D+05 0.12642391D+05 0.12563784D+01  1  2 15  2  5  2       -1 0.294085065421D-01 0.100000000000D+01
0.106816315106D-04 0.000000000000D+00 0.000000000000D+00 0.294461653531D-02 0.000000000000D+00  5 2 -1 25 24 21 2 0.78336360D-01 0.18403790D-01 0.29952580D+05 0.29952580D+05 0.29952580D+05 0.12149705D+01  1  2 12  2  5  2       -1 0.251283040856D-02 0.100000000000D+01
-.475776251824D-03 0.000000000000D+00 -.683309192256D-04 0.294461653531D-02 0.000000000000D+00  5 2 -1 25 24 21 2 0.78336360D-01 0.22066508D-01 0.12642391D+05 0.12642391D+05 0.12642391D+05 0.12563784D+01  1  2  5  2  5  2       -1 -.887932285674D-01 0.100000000000D+01
0.204081531151D-05 0.000000000000D+00 0.000000000000D+00 0.294461653531D-02 0.000000000000D+00  5 2 21 25 24 1 2 0.78336360D-01 0.18403790D-01 0.29952580D+05 0.29952580D+05 0.29952580D+05 0.12149705D+01  1  2 12  4  5  2       -1 0.621848058046D-02 0.100000000000D+01
-.106026562023D-03 0.000000000000D+00 -.146751340240D-04 0.294461653531D-02 0.000000000000D+00  5 2 21 25 24 1 2 0.78336360D-01 0.22066508D-01 0.12642391D+05 0.12642391D+05 0.12642391D+05 0.12563784D+01  1  2  5  4  5  2       -1 -.249096835883D+00 0.100000000000D+01
  </mgrwgt>
  </event>
  <event>
  4     66 0.48098993E-03 0.11834407E+03 0.75467711E-02 0.12348014E+00
        2 -1    0    0  501    0 0.00000000E+00 0.00000000E+00 0.98330280E+02 0.98330801E+02 0.32000000E+00 0.0000E+00 0.9000E+01
       -1 -1    0    0    0  501 0.00000000E+00 0.00000000E+00 -.16855795E+03 0.16855825E+03 0.32000000E+00 0.0000E+00 0.9000E+01
       25  1    1    2    0    0 0.21276965E+01 0.57696963E+02 0.11977489E+02 0.13820972E+03 0.12500000E+03 0.0000E+00 0.9000E+01
       24  1    1    2    0    0 -.21276965E+01 -.57696963E+02 -.82205155E+02 0.12867933E+03 0.80419002E+02 0.0000E+00 0.9000E+01
#aMCatNLO 1  0  0  1  1 0.13335827D+02 0.00000000D+00  -5  5  0 0.00000000D+00 0.00000000D+00 0.00000000D+00 0.00000000D+00 0.00000000D+00
  <mgrwgt>
 0.2934511885D+00    4    2    0
 0.128741835390373D+03 0.000000000000000D+00 0.000000000000000D+00 0.128741835390373D+03
 0.128741835390373D+03 0.000000000000000D+00 0.000000000000000D+00 -.128741835390373D+03
 0.146525068047149D+03 0.212769649317519D+01 0.576969633799930D+02 0.501111653285217D+02
 0.110958602733597D+03 -.212769649317519D+01 -.576969633799930D+02 -.501111653285217D+02
 0.000000000000000D+00 0.000000000000000D+00 -.000000000000000D+00 -.000000000000000D+00
 0.130159721180284D+03 0.000000000000000D+00 0.000000000000000D+00 0.130159721180284D+03
 0.164616746960941D+03 0.000000000000000D+00 0.000000000000000D+00 -.164616746960941D+03
 0.147692479245868D+03 -.497778139101778D+01 0.604331136681856D+02 0.501111653285217D+02
 0.110136310856316D+03 -.746723192630865D+01 -.556408354668115D+02 -.501111653285217D+02
 0.369476780390414D+02 0.124450133173264D+02 -.479227820137415D+01 -.344570257806571D+02
0.597634033730D-03 0.000000000000D+00 0.000000000000D+00 0.228581728850D-02 0.000000000000D+00  5 2 -1 25 24 21 0 0.15127799D-01 0.25932055D-01 0.14005319D+05 0.14005319D+05 0.14005319D+05 0.12512339D+01  1  2  2  1  5  1        2 0.325160016753D+00 0.100000000000D+01
-.329156039896D-04 0.000000000000D+00 -.229507205018D-05 0.228581728850D-02 0.000000000000D+00  5 2 -1 25 24 21 2 0.15127799D-01 0.25932055D-01 0.14005319D+05 0.14005319D+05 0.14005319D+05 0.12512339D+01  1  2  3  1  5  1        2 -.280375897442D-01 0.100000000000D+01
0.412844878484D-04 0.000000000000D+00 0.000000000000D+00 0.228581728850D-02 0.000000000000D+00  5 2 -1 25 24 21 2 0.15127799D-01 0.25932055D-01 0.14005319D+05 0.14005319D+05 0.14005319D+05 0.12512339D+01  1  2 15  1  5  1        2 0.351662249144D-01 0.100000000000D+01
-.455944529734D-04 0.000000000000D+00 0.000000000000D+00 0.228581728850D-02 0.000000000000D+00  5 2 -1 25 24 21 2 0.15127799D-01 0.25932055D-01 0.14005319D+05 0.14005319D+05 0.14005319D+05 0.12512339D+01  1  2  4  1  5  1        2 -.388374634560D-01 0.100000000000D+01
  </mgrwgt>
  </event>
  <event>
  4     66 0.48098993E-03 0.54396949E+02 0.75467711E-02 0.12546146E+00
        2 -1    0    0  501    0 0.00000000E+00 0.00000000E+00 0.71741824E+01 0.71813155E+01 0.32000000E+00 0.0000E+00 0.9000E+01
       -1 -1    0    0    0  501 0.00000000E+00 0.00000000E+00 -.15504017E+04 0.15504018E+04 0.32000000E+00 0.0000E+00 0.9000E+01
       25  1    1    2    0    0 0.44565040E+01 0.22877898E+02 -.90691287E+03 0.91578338E+03 0.12500000E+03 0.0000E+00 0.9000E+01
       24  1    1    2    0    0 -.44565040E+01 -.22877898E+02 -.63631467E+03 0.64179968E+03 0.80419002E+02 0.0000E+00 0.9000E+01
#aMCatNLO 1  0  0  2  1 0.15134208D+02 0.00000000D+00  -5  5  0 0.00000000D+00 0.00000000D+00 0.00000000D+00 0.00000000D+00 0.00000000D+00
  <mgrwgt>
 0.3786653514D+00    9    2    0
 0.105491448028406D+03 0.000000000000000D+00 0.000000000000000D+00 0.105491448028406D+03
 0.105491448028406D+03 0.000000000000000D+00 0.000000000000000D+00 -.105491448028406D+03
 0.127194117336641D+03 0.445650399273008D+01 0.228778978829289D+02 0.317566460261499D+01
 0.837887787201710D+02 -.445650399273008D+01 -.228778978829289D+02 -.317566460261499D+01
 0.000000000000000D+00 -.000000000000000D+00 -.000000000000000D+00 -.000000000000000D+00
 0.109440371265110D+03 0.000000000000000D+00 0.000000000000000D+00 0.109440371265110D+03
 0.121331583822109D+03 0.000000000000000D+00 0.000000000000000D+00 -.121331583822109D+03
 0.129191694718591D+03 0.587543011319423D+01 0.319513451920009D+02 0.317566460261499D+01
 0.823333077677881D+02 -.353712797182534D+01 -.169988674227844D+02 -.317566460261499D+01
 0.192469526008399D+02 -.233830214136890D+01 -.149524777692165D+02 -.118912125569991D+02
0.145356573413D-02 0.000000000000D+00 0.000000000000D+00 0.314435768371D-02 0.000000000000D+00  5 2 -1 25 24 21 0 0.11042716D-02 0.23852389D+00 0.11117915D+05 0.11117915D+05 0.11117915D+05 0.12629288D+01  1  2  2  2  5  2       -1 0.188938732232D+00 0.100000000000D+01
-.807536298942D-04 0.000000000000D+00 -.558207515172D-05 0.314435768371D-02 0.000000000000D+00  5 2 -1 25 24 21 2 0.11042716D-02 0.23852389D+00 0.11117915D+05 0.11117915D+05 0.11117915D+05 0.12629288D+01  1  2  3  2  5  2       -1 -.167419537469D-01 0.100000000000D+01
0.100725834648D-03 0.000000000000D+00 0.000000000000D+00 0.314435768371D-02 0.000000000000D+00  5 2 -1 25 24 21 2 0.11042716D-02 0.23852389D+00 0.11117915D+05 0.11117915D+05 0.11117915D+05 0.12629288D+01  1  2 15  2  5  2       -1 0.208826187380D-01 0.100000000000D+01
0.245548978932D-02 0.000000000000D+00 0.000000000000D+00 0.314435768371D-02 0.000000000000D+00  5 2 -1 25 24 21 2 0.11042716D-02 0.27833804D+00 0.12832235D+05 0.12832235D+05 0.12832235D+05 0.12556254D+01  1  2 12  2  5  2       -1 0.287462686282D+00 0.100000000000D+01
-.247360168890D-02 0.000000000000D+00 0.000000000000D+00 0.314435768371D-02 0.000000000000D+00  5 2 -1 25 24 21 2 0.11042716D-02 0.23852389D+00 0.11117915D+05 0.11117915D+05 0.11117915D+05 0.12629288D+01  1  2  4  2  5  2       -1 -.512830508276D+00 0.100000000000D+01
-.506187085978D-02 0.000000000000D+00 -.933925525017D-03 0.314435768371D-02 0.000000000000D+00  5 2 -1 25 24 21 2 0.11042716D-02 0.27872416D+00 0.11117915D+05 0.11117915D+05 0.11117915D+05 0.12629288D+01  1  2  5  2  5  2       -1 -.594964929694D+00 0.100000000000D+01
0.515588246312D-02 0.000000000000D+00 0.922710842987D-03 0.314435768371D-02 0.000000000000D+00  5 2 -1 25 24 21 2 0.11042716D-02 0.23852389D+00 0.11117915D+05 0.11117915D+05 0.11117915D+05 0.12629288D+01  1  2  6  2  5  2       -1 0.106892465187D+01 0.100000000000D+01
0.573250362785D-04 0.000000000000D+00 0.000000000000D+00 0.314435768371D-02 0.000000000000D+00  5 2 21 25 24 1 2 0.11042716D-02 0.27833804D+00 0.12832235D+05 0.12832235D+05 0.12832235D+05 0.12556254D+01  1  2 12  4  5  2       -1 0.641713963281D-01 0.100000000000D+01
-.112091703905D-03 0.000000000000D+00 -.219605209345D-04 0.314435768371D-02 0.000000000000D+00  5 2 21 25 24 1 2 0.11042716D-02 0.27872416D+00 0.11117915D+05 0.11117915D+05 0.11117915D+05 0.12629288D+01  1  2  5  4  5  2       -1 -.127177342352D+00 0.100000000000D+01
  </mgrwgt>
  </event>
  <event>
  4     66 0.48098993E-03 0.50034789E+02 0.75467711E-02 0.11854676E+00
        2 -1    0    0  501    0 0.00000000E+00 0.00000000E+00 0.19028908E+04 0.19028909E+04 0.32000000E+00 0.0000E+00 0.9000E+01
       -1 -1    0    0    0  501 0.00000000E+00 0.00000000E+00 -.13707169E+02 0.13710904E+02 0.32000000E+00 0.0000E+00 0.9000E+01
       25  1    1    2    0    0 0.11141708E+03 0.39900742E+02 0.81891200E+03 0.83680804E+03 0.12500000E+03 0.0000E+00 0.9000E+01
       24  1    1    2    0    0 -.11141708E+03 -.39900742E+02 0.10702717E+04 0.10797937E+04 0.80419002E+02 0.0000E+00 0.9000E+01
#aMCatNLO 1  0  0  1  2 0.10392726D+02 0.00000000D+00  -5  5  0 0.00000000D+00 0.00000000D+00 0.00000000D+00 0.00000000D+00 0.00000000D+00
  <mgrwgt>
 0.1009514886D+01    9    2    0
 0.161514246599804D+03 0.000000000000000D+00 0.000000000000000D+00 0.161514246599804D+03
 0.161514246599804D+03 0.000000000000000D+00 0.000000000000000D+00 -.161514246599804D+03
 0.175689132466560D+03 0.111417075778772D+03 0.399007422719917D+02 -.351544770677090D+02
 0.147339360733048D+03 -.111417075778772D+03 -.399007422719917D+02 0.351544770677090D+02
 0.000000000000000D+00 0.000000000000000D+00 -.000000000000000D+00 0.000000000000000D+00
 0.166810741649825D+03 0.000000000000000D+00 0.000000000000000D+00 0.166810741649825D+03
 0.166777667941896D+03 0.000000000000000D+00 0.000000000000000D+00 -.166777667941896D+03
 0.175336991261708D+03 0.108908257764250D+03 0.449579207432875D+02 -.351544770677090D+02
 0.147858640149439D+03 -.113526884742843D+03 -.356478708361663D+02 0.351544770677090D+02
 0.103927781805745D+02 0.461862697859250D+01 -.931004990712117D+01 0.330737079296354D-01
0.441067424158D-03 0.000000000000D+00 0.000000000000D+00 0.222614644210D-02 0.000000000000D+00  5 2 -1 25 24 21 0 0.29275273D+00 0.21090846D-02 0.24840937D+05 0.24840937D+05 0.24840937D+05 0.12235950D+01  1  2  2  1  5  1        2 0.263959250210D+00 0.100000000000D+01
-.244859074465D-04 0.000000000000D+00 -.169381504448D-05 0.222614644210D-02 0.000000000000D+00  5 2 -1 25 24 21 2 0.29275273D+00 0.21090846D-02 0.24840937D+05 0.24840937D+05 0.24840937D+05 0.12235950D+01  1  2  3  1  5  1        2 -.219393349658D-01 0.100000000000D+01
0.304584194943D-04 0.000000000000D+00 0.000000000000D+00 0.222614644210D-02 0.000000000000D+00  5 2 -1 25 24 21 2 0.29275273D+00 0.21090846D-02 0.24840937D+05 0.24840937D+05 0.24840937D+05 0.12235950D+01  1  2 15  1  5  1        2 0.272906964659D-01 0.100000000000D+01
0.956115244597D-03 0.000000000000D+00 0.000000000000D+00 0.222614644210D-02 0.000000000000D+00  5 2 -1 25 24 21 2 0.30696946D+00 0.21090846D-02 0.26534476D+05 0.26534476D+05 0.26534476D+05 0.12205337D+01  1  2 12  1  5  1        2 0.764315462174D+00 0.100000000000D+01
-.733414614495D-03 0.000000000000D+00 0.000000000000D+00 0.222614644210D-02 0.000000000000D+00  5 2 -1 25 24 21 2 0.29275273D+00 0.21090846D-02 0.24840937D+05 0.24840937D+05 0.24840937D+05 0.12235950D+01  1  2  4  1  5  1        2 -.657138353209D+00 0.100000000000D+01
-.626404387070D-02 0.000000000000D+00 -.998375655247D-03 0.222614644210D-02 0.000000000000D+00  5 2 -1 25 24 21 2 0.30758516D+00 0.21090846D-02 0.24840937D+05 0.24840937D+05 0.24840937D+05 0.12235950D+01  1  2  5  1  5  1        2 -.500678176344D+01 0.100000000000D+01
0.630690088152D-02 0.000000000000D+00 0.997157529731D-03 0.222614644210D-02 0.000000000000D+00  5 2 -1 25 24 21 2 0.29275273D+00 0.21090846D-02 0.24840937D+05 0.24840937D+05 0.24840937D+05 0.12235950D+01  1  2  6  1  5  1        2 0.565097337471D+01 0.100000000000D+01
0.108287690710D-04 0.000000000000D+00 0.000000000000D+00 0.222614644210D-02 0.000000000000D+00  5 21 -1 25 24 -2 2 0.30696946D+00 0.21090846D-02 0.26534476D+05 0.26534476D+05 0.26534476D+05 0.12205337D+01  1  2 12  3  5  1        2 0.285306594482D-02 0.100000000000D+01
-.531195743135D-04 0.000000000000D+00 -.860321819606D-05 0.222614644210D-02 0.000000000000D+00  5 21 -1 25 24 -2 2 0.30758516D+00 0.21090846D-02 0.24840937D+05 0.24840937D+05 0.24840937D+05 0.12235950D+01  1  2  5  3  5  1        2 -.140175119208D-01 0.100000000000D+01
  </mgrwgt>
  </event>
  <event>
  5     66 -.48098993E-03 0.16436583E+03 0.75467711E-02 0.11740895E+00
        2 -1    0    0  502    0 0.00000000E+00 0.00000000E+00 0.36171379E+03 0.36171394E+03 0.32000000E+00 0.0000E+00 0.9000E+01
       -1 -1    0    0    0  501 0.00000000E+00 0.00000000E+00 -.83976966E+02 0.83977576E+02 0.32000000E+00 0.0000E+00 0.9000E+01
       25  1    1    2    0    0 0.11352566E+02 -.12915181E+03 0.16256935E+03 0.24261670E+03 0.12500000E+03 0.0000E+00 0.9000E+01
       24  1    1    2    0    0 -.28127318E+02 0.12240122E+03 0.10388082E+03 0.18174610E+03 0.80419002E+02 0.0000E+00 0.9000E+01
       21  1    1    2  502  501 0.16774752E+02 0.67505897E+01 0.11286660E+02 0.21328712E+02 0.75000000E+00 0.0000E+00 0.9000E+01
#aMCatNLO 2  0  0  1  2 0.18082111D+02 0.00000000D+00  -5  5  0 0.00000000D+00 0.00000000D+00 0.00000000D+00 0.00000000D+00 0.00000000D+00
  <mgrwgt>
 -.2635851665D+00    2    2    0
 0.164894762647483D+03 0.000000000000000D+00 0.000000000000000D+00 0.164894762647483D+03
 0.164894762647483D+03 0.000000000000000D+00 0.000000000000000D+00 -.164894762647483D+03
 0.178779048446795D+03 0.204849593335049D+02 -.125476698516122D+03 0.131496286692956D+02
 0.151010476848171D+03 -.204849593335049D+02 0.125476698516122D+03 -.131496286692956D+02
 0.000000000000000D+00 0.000000000000000D+00 0.000000000000000D+00 -.000000000000000D+00
 0.172931670895937D+03 0.000000000000000D+00 0.000000000000000D+00 0.172931670895937D+03
 0.175636489557269D+03 0.000000000000000D+00 0.000000000000000D+00 -.175636489557269D+03
 0.180574036985047D+03 0.113525663215804D+02 -.129151807330950D+03 0.131496286692956D+02
 0.149710830589557D+03 -.281273179994414D+02 0.122401217679655D+03 -.131496286692956D+02
 0.182832928786027D+02 0.167747516778610D+02 0.675058965129518D+01 -.270481866133172D+01
-.115584669497D-02 0.000000000000D+00 0.000000000000D+00 0.229458495502D-02 0.000000000000D+00  5 2 -1 25 24 21 2 0.57280004D-01 0.12128908D-01 0.30155877D+05 0.30155877D+05 0.30155877D+05 0.12146623D+01  1  2 13  1  5  1        2 -.737577080820D+00 0.100000000000D+01
0.794384863132D-03 0.000000000000D+00 0.000000000000D+00 0.229458495502D-02 0.553905127593D-04  5 2 -1 25 24 21 2 0.55645876D-01 0.12919020D-01 0.30155877D+05 0.30155877D+05 0.30155877D+05 0.12146623D+01  1  2  1  1  5  1        2 0.473991914364D+00 0.100000000000D+01
  </mgrwgt>
  </event>
  <event>
  4     66 0.48098993E-03 0.98097318E+02 0.75467711E-02 0.11491871E+00
        2 -1    0    0  501    0 0.00000000E+00 0.00000000E+00 0.23409352E+03 0.23409373E+03 0.32000000E+00 0.0000E+00 0.9000E+01
       -1 -1    0    0    0  501 0.00000000E+00 0.00000000E+00 -.12168583E+03 0.12168625E+03 0.32000000E+00 0.0000E+00 0.9000E+01
       25  1    1    2    0    0 0.37417889E+02 -.12697262E+03 0.71351704E+02 0.19554593E+03 0.12500000E+03 0.0000E+00 0.9000E+01
       24  1    1    2    0    0 -.37417889E+02 0.12697262E+03 0.41055981E+02 0.16023406E+03 0.80419002E+02 0.0000E+00 0.9000E+01
#aMCatNLO 1  0  0  2  1 0.59218413D+02 0.00000000D+00  -5  5  0 0.00000000D+00 0.00000000D+00 0.00000000D+00 0.00000000D+00 0.00000000D+00
  <mgrwgt>
 0.3908687421D+00    9    2    0
 0.168777894561090D+03 0.000000000000000D+00 0.000000000000000D+00 0.168777894561090D+03
 0.168777894561090D+03 0.000000000000000D+00 0.000000000000000D+00 -.168777894561090D+03
 0.182342739752228D+03 0.374178887221684D+02 -.126972617617972D+03 0.100861647401047D+02
 0.155213049369953D+03 -.374178887221684D+02 0.126972617617972D+03 -.100861647401047D+02
 0.000000000000000D+00 -.000000000000000D+00 0.000000000000000D+00 -.000000000000000D+00
 0.186910195581376D+03 0.000000000000000D+00 0.000000000000000D+00 0.186910195581376D+03
 0.227717898043829D+03 0.000000000000000D+00 0.000000000000000D+00 -.227717898043829D+03
 0.205129956703611D+03 0.620670133576801D+02 -.149997514215798D+03 0.100861647401047D+02
 0.137580899823393D+03 -.187917645792174D+02 0.109573842255708D+03 -.100861647401047D+02
 0.719172370982007D+02 -.432752487784627D+02 0.404236719600896D+02 -.408077024624525D+02
0.839403168836D-03 0.000000000000D+00 0.000000000000D+00 0.227931113271D-02 0.000000000000D+00  5 2 -1 25 24 21 0 0.36014436D-01 0.18720946D-01 0.28383583D+05 0.28383583D+05 0.28383583D+05 0.12174311D+01  1  2  2  2  5  2       -1 0.300407269227D+00 0.100000000000D+01
-.466333255676D-04 0.000000000000D+00 -.322352918826D-05 0.227931113271D-02 0.000000000000D+00  5 2 -1 25 24 21 2 0.36014436D-01 0.18720946D-01 0.28383583D+05 0.28383583D+05 0.28383583D+05 0.12174311D+01  1  2  3  2  5  2       -1 -.247357451196D-01 0.100000000000D+01
0.579606741287D-04 0.000000000000D+00 0.000000000000D+00 0.227931113271D-02 0.000000000000D+00  5 2 -1 25 24 21 2 0.36014436D-01 0.18720946D-01 0.28383583D+05 0.28383583D+05 0.28383583D+05 0.12174311D+01  1  2 15  2  5  2       -1 0.307441179619D-01 0.100000000000D+01
0.602354700961D-03 0.000000000000D+00 0.000000000000D+00 0.227931113271D-02 0.000000000000D+00  5 2 -1 25 24 21 2 0.36014436D-01 0.25992712D-01 0.40262618D+05 0.40262618D+05 0.40262618D+05 0.12017118D+01  1  2 12  2  5  2       -1 0.183252075135D+00 0.100000000000D+01
-.677350923368D-03 0.000000000000D+00 0.000000000000D+00 0.227931113271D-02 0.000000000000D+00  5 2 -1 25 24 21 2 0.36014436D-01 0.18720946D-01 0.28383583D+05 0.28383583D+05 0.28383583D+05 0.12174311D+01  1  2  4  2  5  2       -1 -.359287689501D+00 0.100000000000D+01
-.101019374533D-02 0.000000000000D+00 -.328669646450D-03 0.227931113271D-02 0.000000000000D+00  5 2 -1 25 24 21 2 0.36014436D-01 0.27729671D-01 0.28383583D+05 0.28383583D+05 0.28383583D+05 0.12174311D+01  1  2  5  2  5  2       -1 -.281756964448D+00 0.100000000000D+01
0.107881553979D-02 0.000000000000D+00 0.304841096430D-03 0.227931113271D-02 0.000000000000D+00  5 2 -1 25 24 21 2 0.36014436D-01 0.18720946D-01 0.28383583D+05 0.28383583D+05 0.28383583D+05 0.12174311D+01  1  2  6  2  5  2       -1 0.572236826315D+00 0.100000000000D+01
0.248409937761D-04 0.000000000000D+00 0.000000000000D+00 0.227931113271D-02 0.000000000000D+00  5 2 21 25 24 1 2 0.36014436D-01 0.25992712D-01 0.40262618D+05 0.40262618D+05 0.40262618D+05 0.12017118D+01  1  2 12  4  5  2       -1 0.892147698469D-01 0.100000000000D+01
-.365085797860D-04 0.000000000000D+00 -.154395074659D-04 0.227931113271D-02 0.000000000000D+00  5 2 21 25 24 1 2 0.36014436D-01 0.27729671D-01 0.28383583D+05 0.28383583D+05 0.28383583D+05 0.12174311D+01  1  2  5  4  5  2       -1 -.119205917367D+00 0.100000000000D+01
  </mgrwgt>
  </event>
  <event>
  5     66 0.48098993E-03 0.15308010E+03 0.75467711E-02 0.11800849E+00
        2 -1    0    0  502    0 0.00000000E+00 0.00000000E+00 0.11303007E+03 0.11303052E+03 0.32000000E+00 0.0000E+00 0.9000E+01
       -1 -1    0    0    0  501 0.00000000E+00 0.00000000E+00 -.28905415E+03 0.28905433E+03 0.32000000E+00 0.0000E+00 0.9000E+01
       25  1    1    2    0    0 -.85040792E+02 -.83170173E+02 -.15116343E+03 0.22940051E+03 0.12500000E+03 0.0000E+00 0.9000E+01
       24  1    1    2    0    0 0.92671147E+02 0.55823452E+02 0.20878953E+00 0.13480155E+03 0.80419002E+02 0.0000E+00 0.9000E+01
       21  1    1    2  502  501 -.76303550E+01 0.27346720E+02 -.25069449E+02 0.37882782E+02 0.75000000E+00 0.0000E+00 0.9000E+01
#aMCatNLO 2  0  0  1  1 0.28391292D+02 0.00000000D+00  -5  5  0 0.00000000D+00 0.00000000D+00 0.00000000D+00 0.00000000D+00 0.00000000D+00
  <mgrwgt>
 0.2581021724D+00    1    2    0
 0.165113429395677D+03 0.000000000000000D+00 0.000000000000000D+00 0.165113429395677D+03
 0.165113429395677D+03 0.000000000000000D+00 0.000000000000000D+00 -.165113429395677D+03
 0.178979327643850D+03 -.892177178261545D+02 -.682003301067677D+02 -.616239687383502D+02
 0.151247531147504D+03 0.892177178261545D+02 0.682003301067677D+02 0.616239687383502D+02
 0.000000000000000D+00 -.000000000000000D+00 0.000000000000000D+00 -.000000000000000D+00
 0.175675694593576D+03 0.000000000000000D+00 0.000000000000000D+00 0.175675694593576D+03
 0.185969027488032D+03 0.000000000000000D+00 0.000000000000000D+00 -.185969027488032D+03
 0.183225892084986D+03 -.850407923438493D+02 -.831701728073481D+02 -.616239687383502D+02
 0.148219191911725D+03 0.926711473145118D+02 0.558234523201608D+02 0.616239687383502D+02
 0.301996380848970D+02 -.763035497066258D+01 0.273467204871873D+02 -.102933328944561D+02
0.931341582950D-03 0.000000000000D+00 0.000000000000D+00 0.200840981942D-02 0.199152762715D-04  5 2 -1 25 24 21 2 0.17388837D-01 0.44468762D-01 0.28181134D+05 0.28181134D+05 0.28181134D+05 0.12177596D+01  1  2  1  1  5  1        2 0.258102172432D+00 0.100000000000D+01
  </mgrwgt>
  </event>
  <event>
  5     66 0.48098993E-03 0.11136110E+03 0.75467711E-02 0.11617424E+00
        2 -1    0    0  501    0 0.00000000E+00 0.00000000E+00 0.56524783E+03 0.56524792E+03 0.32000000E+00 0.0000E+00 0.9000E+01
       21 -1    0    0  502  501 0.00000000E+00 0.00000000E+00 -.75452818E+02 0.75456546E+02 0.75000000E+00 0.0000E+00 0.9000E+01
       25  1    1    2    0    0 0.91088718E+01 0.20243989E+02 0.10286097E+03 0.16339574E+03 0.12500000E+03 0.0000E+00 0.9000E+01
       24  1    1    2    0    0 0.58568482E+02 0.78098475E+02 0.31123201E+03 0.33594973E+03 0.80419002E+02 0.0000E+00 0.9000E+01
        1  1    1    2  502    0 -.67677354E+02 -.98342464E+02 0.75702030E+02 0.14135899E+03 0.32000000E+00 0.0000E+00 0.9000E+01
#aMCatNLO 2  0  0  2  1 0.11937950D+03 0.00000000D+00  -5  5  0 0.00000000D+00 0.00000000D+00 0.00000000D+00 0.00000000D+00 0.00000000D+00
  <mgrwgt>
 0.1206658084D+00    1    2    0
 0.126116455038254D+03 0.000000000000000D+00 0.000000000000000D+00 0.126116455038254D+03
 0.126116455038254D+03 0.000000000000000D+00 0.000000000000000D+00 -.126116455038254D+03
 0.144269883238507D+03 -.270698465015420D+02 -.323275744924871D+02 -.584033436326036D+02
 0.107963026838001D+03 0.270698465015420D+02 0.323275744924871D+02 0.584033436326036D+02
 0.000000000000000D+00 -.000000000000000D+00 -.000000000000000D+00 -.000000000000000D+00
 0.172684696970370D+03 0.000000000000000D+00 0.000000000000000D+00 0.172684696970370D+03
 0.246985885853036D+03 0.000000000000000D+00 0.000000000000000D+00 -.246985885853036D+03
 0.139745272493827D+03 0.910887182958704D+01 0.202439890065731D+02 -.584033436326036D+02
 0.139311899881515D+03 0.585684822031066D+02 0.780984752679788D+02 0.584033436326036D+02
 0.140613410448064D+03 -.676773540326937D+02 -.983424642745519D+02 -.743011888826658D+02
0.195396299753D-04 0.000000000000D+00 0.000000000000D+00 0.217392347813D-02 0.196335201811D-06  5 2 21 25 24 1 2 0.86961414D-01 0.11608408D-01 0.34747576D+05 0.34747576D+05 0.34747576D+05 0.12082585D+01  1  2  1  4  5  2       -1 0.120665808380D+00 0.100000000000D+01
  </mgrwgt>
  </event>
  <event>
  4     66 0.48098993E-03 0.20512360E+03 0.75467711E-02 0.10697458E+00
        2 -1    0    0  501    0 0.00000000E+00 0.00000000E+00 0.39979376E+03 0.39979389E+03 0.32000000E+00 0.0000E+00 0.9000E+01
       -1 -1    0    0    0  501 0.00000000E+00 0.00000000E+00 -.10801150E+03 0.10801197E+03 0.32000000E+00 0.0000E+00 0.9000E+01
       25  1    1    2    0    0 0.10802658E+03 -.13958658E+03 0.19421591E+03 0.29068708E+03 0.12500000E+03 0.0000E+00 0.9000E+01
       24  1    1    2    0    0 -.10802658E+03 0.13958658E+03 0.97566356E+02 0.21711878E+03 0.80419002E+02 0.0000E+00 0.9000E+01
#aMCatNLO 1  0  0  1  2 0.20741906D+03 0.00000000D+00  -5  5  0 0.00000000D+00 0.00000000D+00 0.00000000D+00 0.00000000D+00 0.00000000D+00
  <mgrwgt>
 0.5222164349D+00    3    2    0
 0.207803935460723D+03 0.000000000000000D+00 0.000000000000000D+00 0.207803935460723D+03
 0.207803935460723D+03 0.000000000000000D+00 0.000000000000000D+00 -.207803935460723D+03
 0.218821272578672D+03 0.108026581723210D+03 -.139586584461409D+03 0.332203614150452D+02
 0.196786598342774D+03 -.108026581723210D+03 0.139586584461409D+03 -.332203614150452D+02
 0.000000000000000D+00 -.000000000000000D+00 0.000000000000000D+00 -.000000000000000D+00
 0.295832390749301D+03 0.000000000000000D+00 0.000000000000000D+00 0.295832390749301D+03
 0.401395959627065D+03 0.000000000000000D+00 0.000000000000000D+00 -.401395959627065D+03
 0.319315499327150D+03 0.226954025106919D+03 -.183645490513023D+03 0.332203614150452D+02
 0.145176232482492D+03 -.324532938055761D+02 0.111589039928044D+03 -.332203614150452D+02
 0.232736618566724D+03 -.194500731301343D+03 0.720564505849788D+02 -.105563568877764D+03
0.208812599179D-02 0.000000000000D+00 0.000000000000D+00 0.209008886373D-02 0.000000000000D+00  5 2 -1 25 24 21 0 0.61506779D-01 0.16617200D-01 0.42075690D+05 0.42075690D+05 0.42075690D+05 0.11997755D+01  1  2  2  1  5  1        2 0.512613557928D+00 0.100000000000D+01
-.115983227349D-03 0.000000000000D+00 -.801895362469D-05 0.209008886373D-02 0.000000000000D+00  5 2 -1 25 24 21 2 0.61506779D-01 0.16617200D-01 0.42075690D+05 0.42075690D+05 0.42075690D+05 0.11997755D+01  1  2  3  1  5  1        2 -.409853389271D-01 0.100000000000D+01
0.143158131551D-03 0.000000000000D+00 0.000000000000D+00 0.209008886373D-02 0.000000000000D+00  5 2 -1 25 24 21 2 0.61506779D-01 0.16617200D-01 0.42075690D+05 0.42075690D+05 0.42075690D+05 0.11997755D+01  1  2 15  1  5  1        2 0.505882158648D-01 0.100000000000D+01
  </mgrwgt>
  </event>
  <event>
  4     66 0.48098993E-03 0.14354267E+03 0.75467711E-02 0.11169159E+00
        4 -1    0    0  501    0 0.00000000E+00 0.00000000E+00 0.51492540E+02 0.51515864E+02 0.15500000E+01 0.0000E+00 0.9000E+01
       -3 -1    0    0    0  501 0.00000000E+00 0.00000000E+00 -.40429766E+03 0.40429797E+03 0.50000000E+00 0.0000E+00 0.9000E+01
       25  1    1    2    0    0 0.99033814E+02 0.22544200E+01 -.21903679E+03 0.27095183E+03 0.12500000E+03 0.0000E+00 0.9000E+01
       24  1    1    2    0    0 -.99033814E+02 -.22544200E+01 -.13376834E+03 0.18486201E+03 0.80419002E+02 0.0000E+00 0.9000E+01
#aMCatNLO 1  0  0  1  2 0.16006016D+03 0.00000000D+00  -5  5  0 0.00000000D+00 0.00000000D+00 0.00000000D+00 0.00000000D+00 0.00000000D+00
  <mgrwgt>
 0.6333583527D-01    5    2    0
 0.144304191116561D+03 0.000000000000000D+00 0.000000000000000D+00 0.144304191116561D+03
 0.144304191116561D+03 0.000000000000000D+00 0.000000000000000D+00 -.144304191116561D+03
 0.160169607038944D+03 0.990338136470922D+02 0.225442002841122D+01 -.147147668638821D+02
 0.128438775194177D+03 -.990338136470922D+02 -.225442002841122D+01 0.147147668638821D+02
 0.000000000000000D+00 0.000000000000000D+00 -.000000000000000D+00 0.000000000000000D+00
 0.277082487603911D+03 0.000000000000000D+00 0.000000000000000D+00 0.277082487603911D+03
 0.222159826403182D+03 0.000000000000000D+00 0.000000000000000D+00 -.222159826403182D+03
 0.141184312774982D+03 0.383406337969231D+02 0.512004063454153D+02 -.147147668638821D+02
 0.188836979923703D+03 -.162933677565762D+03 0.492775951459913D+02 0.147147668638821D+02
 0.169221021308409D+03 0.124593043768839D+03 -.100478001491407D+03 0.549226612007294D+02
0.966977472372D-03 0.000000000000D+00 0.000000000000D+00 0.243540244820D-02 0.000000000000D+00  5 4 -3 25 24 21 0 0.79237472D-02 0.62201458D-01 0.20604497D+05 0.20604497D+05 0.20604497D+05 0.12324049D+01  1  2  2  1  5  1        4 0.549662793786D-01 0.100000000000D+01
-.537191420345D-04 0.000000000000D+00 -.371344810492D-05 0.243540244820D-02 0.000000000000D+00  5 4 -3 25 24 21 2 0.79237472D-02 0.62201458D-01 0.20604497D+05 0.20604497D+05 0.20604497D+05 0.12324049D+01  1  2  3  1  5  1        4 -.463784114995D-02 0.100000000000D+01
0.668335734495D-04 0.000000000000D+00 0.000000000000D+00 0.243540244820D-02 0.000000000000D+00  5 4 -3 25 24 21 2 0.79237472D-02 0.62201458D-01 0.20604497D+05 0.20604497D+05 0.20604497D+05 0.12324049D+01  1  2 15  1  5  1        4 0.577007534751D-02 0.100000000000D+01
0.153164312495D-04 0.000000000000D+00 -.367016436317D-03 0.243540244820D-02 0.000000000000D+00  5 4 -3 25 24 21 2 0.23175250D-01 0.62201458D-01 0.20604497D+05 0.20604497D+05 0.20604497D+05 0.12324049D+01  1  2  5  1  5  1        4 0.205266109880D-03 0.100000000000D+01
0.210603514264D-04 0.000000000000D+00 -.446009281700D-04 0.243540244820D-02 0.000000000000D+00  5 21 -3 25 24 -4 2 0.23175250D-01 0.62201458D-01 0.20604497D+05 0.20604497D+05 0.20604497D+05 0.12324049D+01  1  2  5  3  5  1        4 0.703205558233D-02 0.100000000000D+01
  </mgrwgt>
  </event>
  <event>
  4     66 0.48098993E-03 0.10498216E+03 0.75467711E-02 0.12602820E+00
        2 -1    0    0  501    0 0.00000000E+00 0.00000000E+00 0.61720015E+03 0.61720023E+03 0.32000000E+00 0.0000E+00 0.9000E+01
       -1 -1    0    0    0  501 0.00000000E+00 0.00000000E+00 -.19510409E+02 0.19513033E+02 0.32000000E+00 0.0000E+00 0.9000E+01
       25  1    1    2    0    0 0.26983804E+00 0.21228751E+02 0.26479111E+03 0.29358145E+03 0.12500000E+03 0.0000E+00 0.9000E+01
       24  1    1    2    0    0 -.26983804E+00 -.21228751E+02 0.33289863E+03 0.34313182E+03 0.80419002E+02 0.0000E+00 0.9000E+01
#aMCatNLO 1  0  0  2  2 0.10098811D+02 0.00000000D+00  -5  5  0 0.00000000D+00 0.00000000D+00 0.00000000D+00 0.00000000D+00 0.00000000D+00
  <mgrwgt>
 0.2897458372D+00    4    2    0
 0.109739187458847D+03 0.000000000000000D+00 0.000000000000000D+00 0.109739187458847D+03
 0.109739187458847D+03 0.000000000000000D+00 0.000000000000000D+00 -.109739187458847D+03
 0.130601798750424D+03 0.269838041001833D+00 0.212287514239418D+02 -.313224701653341D+02
 0.888765761672707D+02 -.269838041001833D+00 -.212287514239418D+02 0.313224701653341D+02
 0.000000000000000D+00 -.000000000000000D+00 0.000000000000000D+00 0.000000000000000D+00
 0.123535605218624D+03 0.000000000000000D+00 0.000000000000000D+00 0.123535605218624D+03
 0.111719031370629D+03 0.000000000000000D+00 0.000000000000000D+00 -.111719031370629D+03
 0.130603752107400D+03 0.620624412463869D+01 0.203156457229001D+02 -.313224701653341D+02
 0.891068371810890D+02 0.377518249672312D+01 -.218509344858466D+02 0.313224701653341D+02
 0.155440473007634D+02 -.998142662136181D+01 0.153528876294641D+01 0.118165738479946D+02
0.222737160801D-03 0.000000000000D+00 0.000000000000D+00 0.281264933047D-02 0.000000000000D+00  5 2 -1 25 24 21 0 0.94954077D-01 0.30018096D-02 0.11021254D+05 0.11021254D+05 0.11021254D+05 0.12633778D+01  1  2  2  2  5  2       -1 0.430913456359D+00 0.100000000000D+01
-.123447389402D-04 0.000000000000D+00 -.855369345517D-06 0.281264933047D-02 0.000000000000D+00  5 2 -1 25 24 21 2 0.94954077D-01 0.30018096D-02 0.11021254D+05 0.11021254D+05 0.11021254D+05 0.12633778D+01  1  2  3  2  5  2       -1 -.381193766049D-01 0.100000000000D+01
0.152930508816D-04 0.000000000000D+00 0.000000000000D+00 0.281264933047D-02 0.000000000000D+00  5 2 -1 25 24 21 2 0.94954077D-01 0.30018096D-02 0.11021254D+05 0.11021254D+05 0.11021254D+05 0.12633778D+01  1  2 15  2  5  2       -1 0.472234827174D-01 0.100000000000D+01
-.486646263210D-04 0.000000000000D+00 0.000000000000D+00 0.281264933047D-02 0.000000000000D+00  5 2 -1 25 24 21 2 0.94954077D-01 0.30018096D-02 0.11021254D+05 0.11021254D+05 0.11021254D+05 0.12633778D+01  1  2  4  2  5  2       -1 -.150271725231D+00 0.100000000000D+01
  </mgrwgt>
  </event>
  <event>
  5     66 0.48098993E-03 0.12192559E+03 0.75467711E-02 0.11512436E+00
       21 -1    0    0  501  502 0.00000000E+00 0.00000000E+00 0.28751148E+03 0.28751246E+03 0.75000000E+00 0.0000E+00 0.9000E+01
       -1 -1    0    0    0  501 0.00000000E+00 0.00000000E+00 -.15754919E+03 0.15754952E+03 0.32000000E+00 0.0000E+00 0.9000E+01
       25  1    1    2    0    0 0.13195672E+03 0.33832778E+02 -.93795696E+01 0.18512214E+03 0.12500000E+03 0.0000E+00 0.9000E+01
       24  1    1    2    0    0 -.20954019E+02 0.23870519E+02 0.91792512E+02 0.12610295E+03 0.80419002E+02 0.0000E+00 0.9000E+01
       -2  1    1    2    0  502 -.11100270E+03 -.57703297E+02 0.47549349E+02 0.13383689E+03 0.32000000E+00 0.0000E+00 0.9000E+01
#aMCatNLO 2  0  0  1  2 0.12510503D+03 0.00000000D+00  -5  5  0 0.00000000D+00 0.00000000D+00 0.00000000D+00 0.00000000D+00 0.00000000D+00
  <mgrwgt>
 0.2704613681D-01    1    2    0
 0.136398218562485D+03 0.000000000000000D+00 0.000000000000000D+00 0.136398218562485D+03
 0.136398218562485D+03 0.000000000000000D+00 0.000000000000000D+00 -.136398218562485D+03
 0.153183232586393D+03 0.645826112005668D+02 -.119076705384687D+01 -.605621263658801D+02
 0.119613204538577D+03 -.645826112005668D+02 0.119076705384687D+01 0.605621263658801D+02
 0.000000000000000D+00 -.000000000000000D+00 -.000000000000000D+00 0.000000000000000D+00
 0.219203143170436D+03 0.000000000000000D+00 0.000000000000000D+00 0.219203143170436D+03
 0.206645782292693D+03 0.000000000000000D+00 0.000000000000000D+00 -.206645782292693D+03
 0.194550771919219D+03 0.131956715760478D+03 0.338327780431276D+02 -.605621263658801D+02
 0.105564481202509D+03 -.209540193829555D+02 0.238705186145200D+02 0.605621263658801D+02
 0.125733672341401D+03 -.111002696377522D+03 -.577032966576476D+02 0.125573608777432D+02
0.285665560877D-04 0.000000000000D+00 0.000000000000D+00 0.209178050306D-02 0.132080792240D-06  5 21 -1 25 24 -2 2 0.44232594D-01 0.24238414D-01 0.39293901D+05 0.39293901D+05 0.39293901D+05 0.12027865D+01  1  2  1  3  5  1        2 0.270461368111D-01 0.100000000000D+01
  </mgrwgt>
  </event>
  <event>
  4     66 0.48098993E-03 0.17864141E+03 0.75467711E-02 0.97008373E-01
        2 -1    0    0  501    0 0.00000000E+00 0.00000000E+00 0.12366757E+04 0.12366757E+04 0.32000000E+00 0.0000E+00 0.9000E+01
       -1 -1    0    0    0  501 0.00000000E+00 0.00000000E+00 -.43006484E+02 0.43007675E+02 0.32000000E+00 0.0000E+00 0.9000E+01
       25  1    1    2    0    0 0.14076781E+03 0.34861366E+02 0.10265604E+04 0.10442615E+04 0.12500000E+03 0.0000E+00 0.9000E+01
       24  1    1    2    0    0 -.14076781E+03 -.34861366E+02 0.16710881E+03 0.23542188E+03 0.80419002E+02 0.0000E+00 0.9000E+01
#aMCatNLO 1  0  0  1  2 0.68208934D+03 0.00000000D+00  -5  5  0 0.00000000D+00 0.00000000D+00 0.00000000D+00 0.00000000D+00 0.00000000D+00
  <mgrwgt>
 0.3551457079D+00    5    2    0
 0.230620601071246D+03 0.000000000000000D+00 0.000000000000000D+00 0.230620601071246D+03
 0.230620601071246D+03 0.000000000000000D+00 0.000000000000000D+00 -.230620601071246D+03
 0.240547927601368D+03 0.140767807654830D+03 0.348613664909630D+02 0.145627658525943D+03
 0.220693274541123D+03 -.140767807654830D+03 -.348613664909630D+02 -.145627658525943D+03
 0.000000000000000D+00 -.000000000000000D+00 0.000000000000000D+00 0.000000000000000D+00
 0.104589982615501D+04 0.000000000000000D+00 0.000000000000000D+00 0.104589982615501D+04
 0.595099454214204D+03 0.000000000000000D+00 0.000000000000000D+00 -.595099454214204D+03
 0.635644962965747D+03 0.605699039562971D+03 0.184601594920721D+02 0.145627658525943D+03
 0.187756101773337D+03 0.759662856554688D+02 -.425070148882758D+02 -.145627658525943D+03
 0.817598215630133D+03 -.681665325218439D+03 0.240468553962037D+02 0.450800371940808D+03
0.139154369947D-02 0.000000000000D+00 0.000000000000D+00 0.128841069379D-02 0.000000000000D+00  5 2 -1 25 24 21 0 0.19025789D+00 0.66164769D-02 0.31912752D+05 0.31912752D+05 0.31912752D+05 0.12120912D+01  1  2  2  1  5  1        2 0.346191722174D+00 0.100000000000D+01
-.711770668000D-04 0.000000000000D+00 -.534389420784D-05 0.128841069379D-02 0.000000000000D+00  5 2 -1 25 24 21 2 0.19025789D+00 0.66164769D-02 0.31912752D+05 0.31912752D+05 0.31912752D+05 0.12120912D+01  1  2  3  1  5  1        2 -.260153995864D-01 0.100000000000D+01
0.956328532135D-04 0.000000000000D+00 0.000000000000D+00 0.128841069379D-02 0.000000000000D+00  5 2 -1 25 24 21 2 0.19025789D+00 0.66164769D-02 0.31912752D+05 0.31912752D+05 0.31912752D+05 0.12120912D+01  1  2 15  1  5  1        2 0.349540519411D-01 0.100000000000D+01
0.785452944739D-03 0.000000000000D+00 -.550357323540D-03 0.128841069379D-02 0.000000000000D+00  5 2 -1 25 24 21 2 0.91563819D+00 0.66164769D-02 0.31912752D+05 0.31912752D+05 0.31912752D+05 0.12120912D+01  1  2  5  1  5  1        2 0.153251143378D-04 0.100000000000D+01
0.138391899746D-03 0.000000000000D+00 -.105132845889D-03 0.128841069379D-02 0.000000000000D+00  5 21 -1 25 24 -2 2 0.91563819D+00 0.66164769D-02 0.31912752D+05 0.31912752D+05 0.31912752D+05 0.12120912D+01  1  2  5  3  5  1        2 0.826063437923D-08 0.100000000000D+01
  </mgrwgt>
  </event>
  <event>
  5     66 -.48098993E-03 0.12779586E+03 0.75467711E-02 0.12195398E+00
        2 -1    0    0  501    0 0.00000000E+00 0.00000000E+00 0.90575799E+03 0.90575804E+03 0.32000000E+00 0.0000E+00 0.9000E+01
       -1 -1    0    0    0  502 0.00000000E+00 0.00000000E+00 -.20748073E+02 0.20750541E+02 0.32000000E+00 0.0000E+00 0.9000E+01
       25  1    1    2    0    0 0.59857565E+02 -.33508800E+02 0.39969789E+03 0.42436915E+03 0.12500000E+03 0.0000E+00 0.9000E+01
       24  1    1    2    0    0 -.64217271E+02 0.47775305E+02 0.44172449E+03 0.45606367E+03 0.80419002E+02 0.0000E+00 0.9000E+01
       21  1    1    2  501  502 0.43597054E+01 -.14266505E+02 0.43587536E+02 0.46075763E+02 0.75000000E+00 0.0000E+00 0.9000E+01
#aMCatNLO 2  0  0  2  1 0.14917781D+02 0.00000000D+00  -5  5  0 0.00000000D+00 0.00000000D+00 0.00000000D+00 0.00000000D+00 0.00000000D+00
  <mgrwgt>
 -.1046017947D+00    2    2    0
 0.129371358878562D+03 0.000000000000000D+00 0.000000000000000D+00 0.129371358878562D+03
 0.129371358878562D+03 0.000000000000000D+00 0.000000000000000D+00 -.129371358878562D+03
 0.147068057987647D+03 0.623074886934202D+02 -.415258195127391D+02 -.199348149420245D+02
 0.111674659769478D+03 -.623074886934202D+02 0.415258195127391D+02 0.199348149420245D+02
 0.000000000000000D+00 0.000000000000000D+00 -.000000000000000D+00 -.000000000000000D+00
 0.136324902989547D+03 0.000000000000000D+00 0.000000000000000D+00 0.136324902989547D+03
 0.137842250061226D+03 0.000000000000000D+00 0.000000000000000D+00 -.137842250061226D+03
 0.143972791276792D+03 0.598575653313134D+02 -.335087996482359D+02 -.199348149420245D+02
 0.115199611180652D+03 -.642172706984770D+02 0.477753049081699D+02 0.199348149420245D+02
 0.149947505933286D+02 0.435970536716360D+01 -.142665052599340D+02 -.151734707167835D+01
-.300833542249D-03 0.000000000000D+00 0.000000000000D+00 0.257452147715D-02 0.000000000000D+00  5 2 -1 25 24 21 2 0.13223081D+00 0.32677648D-02 0.18355571D+05 0.18355571D+05 0.18355571D+05 0.12379495D+01  1  2 13  2  5  2       -1 -.540284285548D+00 0.100000000000D+01
0.250872302723D-03 0.000000000000D+00 0.000000000000D+00 0.257452147715D-02 0.948192368333D-04  5 2 -1 25 24 21 2 0.13933804D+00 0.31919871D-02 0.18355571D+05 0.18355571D+05 0.18355571D+05 0.12379495D+01  1  2  1  2  5  2       -1 0.435682490824D+00 0.100000000000D+01
  </mgrwgt>
  </event>
  <event>
  5     66 0.48098993E-03 0.14086879E+03 0.75467711E-02 0.11993293E+00
        2 -1    0    0  502    0 0.00000000E+00 0.00000000E+00 0.34565776E+03 0.34565791E+03 0.32000000E+00 0.0000E+00 0.9000E+01
       -1 -1    0    0    0  501 0.00000000E+00 0.00000000E+00 -.95911336E+02 0.95911869E+02 0.32000000E+00 0.0000E+00 0.9000E+01
       25  1    1    2    0    0 -.80755179E+02 0.45268043E+02 0.93243340E+01 0.15582855E+03 0.12500000E+03 0.0000E+00 0.9000E+01
       24  1    1    2    0    0 0.93387033E+02 -.30640387E+02 0.23233562E+03 0.26477732E+03 0.80419002E+02 0.0000E+00 0.9000E+01
       21  1    1    2  502  501 -.12631854E+02 -.14627655E+02 0.80864754E+01 0.20963912E+02 0.75000000E+00 0.0000E+00 0.9000E+01
#aMCatNLO 2  0  0  1  1 0.19326977D+02 0.00000000D+00  -5  5  0 0.00000000D+00 0.00000000D+00 0.00000000D+00 0.00000000D+00 0.00000000D+00
  <mgrwgt>
 0.3803017694D+00    1    2    0
 0.171854758450495D+03 0.000000000000000D+00 0.000000000000000D+00 0.171854758450495D+03
 0.171854758450495D+03 0.000000000000000D+00 0.000000000000000D+00 -.171854758450495D+03
 0.185176740524485D+03 -.875308856236006D+02 0.374217917571129D+02 -.979968305350128D+02
 0.158532776376506D+03 0.875308856236006D+02 -.374217917571129D+02 0.979968305350128D+02
 0.000000000000000D+00 -.000000000000000D+00 -.000000000000000D+00 -.000000000000000D+00
 0.179669593564225D+03 0.000000000000000D+00 0.000000000000000D+00 0.179669593564225D+03
 0.184505737000167D+03 0.000000000000000D+00 0.000000000000000D+00 -.184505737000167D+03
 0.183844971345120D+03 -.807551793869882D+02 0.452680427692130D+02 -.979968305350128D+02
 0.160407500023653D+03 0.933870332441911D+02 -.306403873410267D+02 0.979968305350128D+02
 0.199228591956197D+02 -.126318538572030D+02 -.146276554281863D+02 -.483614343594199D+01
0.736109935230D-03 0.000000000000D+00 0.000000000000D+00 0.158099677927D-02 0.341706701931D-04  5 2 -1 25 24 21 2 0.53176103D-01 0.14755069D-01 0.22781249D+05 0.22781249D+05 0.22781249D+05 0.12276488D+01  1  2  1  1  5  1        2 0.380301769412D+00 0.100000000000D+01
  </mgrwgt>
  </event>
  <event>
  4     66 0.48098993E-03 0.77963647E+02 0.75467711E-02 0.12323658E+00
        2 -1    0    0  501    0 0.00000000E+00 0.00000000E+00 0.33063082E+03 0.33063098E+03 0.32000000E+00 0.0000E+00 0.9000E+01
       -1 -1    0    0    0  501 0.00000000E+00 0.00000000E+00 -.47628470E+02 0.47629545E+02 0.32000000E+00 0.0000E+00 0.9000E+01
       25  1    1    2    0    0 -.64745123E+02 0.18144287E+02 0.19621780E+03 0.24217261E+03 0.12500000E+03 0.0000E+00 0.9000E+01
       24  1    1    2    0    0 0.64745123E+02 -.18144287E+02 0.86784552E+02 0.13608791E+03 0.80419002E+02 0.0000E+00 0.9000E+01
#aMCatNLO 1  0  0  1  2 0.66526002D+01 0.00000000D+00  -5  5  0 0.00000000D+00 0.00000000D+00 0.00000000D+00 0.00000000D+00 0.00000000D+00
  <mgrwgt>
 0.3925734479D+00   11    2    0
 0.125489731175816D+03 0.000000000000000D+00 0.000000000000000D+00 0.125489731175816D+03
 0.125489731175816D+03 0.000000000000000D+00 0.000000000000000D+00 -.125489731175816D+03
 0.143733821667968D+03 -.647451233727623D+02 0.181442869877474D+02 0.226553600816943D+02
 0.107245640683665D+03 0.647451233727623D+02 -.181442869877474D+02 -.226553600816943D+02
 0.000000000000000D+00 0.000000000000000D+00 -.000000000000000D+00 0.000000000000000D+00
 0.133380111018201D+03 0.000000000000000D+00 0.000000000000000D+00 0.133380111018201D+03
 0.126943933321621D+03 0.000000000000000D+00 0.000000000000000D+00 -.126943933321621D+03
 0.145005026655778D+03 -.665161894560090D+02 0.215357599184232D+02 0.226553600816943D+02
 0.106062588961352D+03 0.634367335492423D+02 -.156388081062900D+02 -.226553600816943D+02
 0.925642872269294D+01 0.307945590676669D+01 -.589695181213314D+01 0.643617769658003D+01
0.214123821469D-03 0.000000000000D+00 0.000000000000D+00 0.261102034546D-02 0.000000000000D+00  5 2 -1 25 24 21 0 0.50866375D-01 0.73275515D-02 0.15222934D+05 0.15222934D+05 0.15222934D+05 0.12470928D+01  1  2  2  1  5  1        2 0.222071965147D+00 0.100000000000D+01
-.118916150327D-04 0.000000000000D+00 -.822291854539D-06 0.261102034546D-02 0.000000000000D+00  5 2 -1 25 24 21 2 0.50866375D-01 0.73275515D-02 0.15222934D+05 0.15222934D+05 0.15222934D+05 0.12470928D+01  1  2  3  1  5  1        2 -.191808178021D-01 0.100000000000D+01
0.148101961031D-04 0.000000000000D+00 0.000000000000D+00 0.261102034546D-02 0.000000000000D+00  5 2 -1 25 24 21 2 0.50866375D-01 0.73275515D-02 0.15222934D+05 0.15222934D+05 0.15222934D+05 0.12470928D+01  1  2 15  1  5  1        2 0.238884013892D-01 0.100000000000D+01
0.123145960365D-02 0.000000000000D+00 0.000000000000D+00 0.261102034546D-02 0.000000000000D+00  5 2 -1 25 24 21 2 0.54347775D-01 0.73275515D-02 0.16064495D+05 0.16064495D+05 0.16064495D+05 0.12444423D+01  1  2 12  1  5  1        2 0.184770584231D+01 0.100000000000D+01
-.138019552929D-02 0.000000000000D+00 0.000000000000D+00 0.261102034546D-02 0.000000000000D+00  5 2 -1 25 24 21 2 0.50866375D-01 0.73275515D-02 0.15222934D+05 0.15222934D+05 0.15222934D+05 0.12470928D+01  1  2  4  1  5  1        2 -.222621392518D+01 0.100000000000D+01
-.361834310013D-02 0.000000000000D+00 -.467020286806D-03 0.261102034546D-02 0.000000000000D+00  5 2 -1 25 24 21 2 0.54533319D-01 0.73275515D-02 0.15222934D+05 0.15222934D+05 0.15222934D+05 0.12470928D+01  1  2  5  1  5  1        2 -.542184095140D+01 0.100000000000D+01
0.364315142919D-02 0.000000000000D+00 0.465891088313D-03 0.261102034546D-02 0.000000000000D+00  5 2 -1 25 24 21 2 0.50866375D-01 0.73275515D-02 0.15222934D+05 0.15222934D+05 0.15222934D+05 0.12470928D+01  1  2  6  1  5  1        2 0.587629380842D+01 0.100000000000D+01
0.130067163227D-03 0.000000000000D+00 0.000000000000D+00 0.261102034546D-02 0.488260383359D-03  5 2 -1 25 24 21 2 0.54064684D-01 0.74124647D-02 0.16064495D+05 0.16064495D+05 0.16064495D+05 0.12444423D+01  1  2 11  1  5  1        2 0.192876364184D+00 0.100000000000D+01
0.164426542705D-04 0.000000000000D+00 0.000000000000D+00 0.261102034546D-02 0.000000000000D+00  5 21 -1 25 24 -2 2 0.54347775D-01 0.73275515D-02 0.16064495D+05 0.16064495D+05 0.16064495D+05 0.12444423D+01  1  2 12  3  5  1        2 0.710518126960D-01 0.100000000000D+01
-.418933070321D-04 0.000000000000D+00 -.550741820393D-05 0.261102034546D-02 0.000000000000D+00  5 21 -1 25 24 -2 2 0.54533319D-01 0.73275515D-02 0.15222934D+05 0.15222934D+05 0.15222934D+05 0.12470928D+01  1  2  5  3  5  1        2 -.180429322134D+00 0.100000000000D+01
0.147897517082D-05 0.000000000000D+00 0.000000000000D+00 0.261102034546D-02 0.513091906928D-05  5 21 -1 25 24 -2 2 0.54064684D-01 0.74124647D-02 0.16064495D+05 0.16064495D+05 0.16064495D+05 0.12444423D+01  1  2 11  3  5  1        2 0.635027031433D-02 0.100000000000D+01
  </mgrwgt>
  </event>
  <event>
  4     66 0.48098993E-03 0.13000710E+03 0.75467711E-02 0.11680584E+00
        2 -1    0    0  501    0 0.00000000E+00 0.00000000E+00 0.13239244E+04 0.13239244E+04 0.32000000E+00 0.0000E+00 0.9000E+01
       -1 -1    0    0    0  501 0.00000000E+00 0.00000000E+00 -.12937422E+02 0.12941379E+02 0.32000000E+00 0.0000E+00 0.9000E+01
       25  1    1    2    0    0 -.69355078E+01 0.78216080E+02 0.66651731E+03 0.68266843E+03 0.12500000E+03 0.0000E+00 0.9000E+01
       24  1    1    2    0    0 0.69355078E+01 -.78216080E+02 0.64446962E+03 0.65419735E+03 0.80419002E+02 0.0000E+00 0.9000E+01
#aMCatNLO 1  0  0  2  2 0.85772092D+02 0.00000000D+00  -5  5  0 0.00000000D+00 0.00000000D+00 0.00000000D+00 0.00000000D+00 0.00000000D+00
  <mgrwgt>
 0.5660588748D+00    3    2    0
 0.130884830876465D+03 0.000000000000000D+00 0.000000000000000D+00 0.130884830876465D+03
 0.130884830876465D+03 0.000000000000000D+00 0.000000000000000D+00 -.130884830876465D+03
 0.148376896198903D+03 -.693550777336376D+01 0.782160801991077D+02 -.149948943254861D+02
 0.113392765554028D+03 0.693550777336376D+01 -.782160801991077D+02 0.149948943254861D+02
 0.000000000000000D+00 0.000000000000000D+00 -.000000000000000D+00 0.000000000000000D+00
 0.325521436764118D+03 0.000000000000000D+00 0.000000000000000D+00 0.325521436764118D+03
 0.147525818498069D+03 0.000000000000000D+00 0.000000000000000D+00 -.147525818498069D+03
 0.174200180794934D+03 -.466642920264753D+02 0.110987837094084D+03 -.149948943254861D+02
 0.101263442029570D+03 -.195016781517936D+02 -.564083897194100D+02 0.149948943254861D+02
 0.197583632437684D+03 0.661659701782689D+02 -.545794473746738D+02 0.177995618266050D+03
0.429598878376D-03 0.000000000000D+00 0.000000000000D+00 0.257849927626D-02 0.000000000000D+00  5 2 -1 25 24 21 0 0.20368098D+00 0.19906800D-02 0.16901847D+05 0.16901847D+05 0.16901847D+05 0.12419554D+01  1  2  2  2  5  2       -1 0.554521410964D+00 0.100000000000D+01
-.238652905384D-04 0.000000000000D+00 -.164977280895D-05 0.257849927626D-02 0.000000000000D+00  5 2 -1 25 24 21 2 0.20368098D+00 0.19906800D-02 0.16901847D+05 0.16901847D+05 0.16901847D+05 0.12419554D+01  1  2  3  2  5  2       -1 -.475153435415D-01 0.100000000000D+01
0.296601539736D-04 0.000000000000D+00 0.000000000000D+00 0.257849927626D-02 0.000000000000D+00  5 2 -1 25 24 21 2 0.20368098D+00 0.19906800D-02 0.16901847D+05 0.16901847D+05 0.16901847D+05 0.12419554D+01  1  2 15  2  5  2       -1 0.590528073932D-01 0.100000000000D+01
  </mgrwgt>
  </event>
  <event>
  4     66 0.48098993E-03 0.92384453E+02 0.75467711E-02 0.11620663E+00
        2 -1    0    0  501    0 0.00000000E+00 0.00000000E+00 0.20522551E+04 0.20522551E+04 0.32000000E+00 0.0000E+00 0.9000E+01
       -1 -1    0    0    0  501 0.00000000E+00 0.00000000E+00 -.19121762E+02 0.19124440E+02 0.32000000E+00 0.0000E+00 0.9000E+01
       25  1    1    2    0    0 -.10427910E+03 0.10867033E+03 0.14688256E+04 0.14818087E+04 0.12500000E+03 0.0000E+00 0.9000E+01
       24  1    1    2    0    0 0.10427910E+03 -.10867033E+03 0.56430776E+03 0.58957089E+03 0.80419002E+02 0.0000E+00 0.9000E+01
#aMCatNLO 1  0  0  1  2 0.56347117D+01 0.00000000D+00  -5  5  0 0.00000000D+00 0.00000000D+00 0.00000000D+00 0.00000000D+00 0.00000000D+00
  <mgrwgt>
 0.7099554077D+00   11    2    0
 0.198104852690643D+03 0.000000000000000D+00 0.000000000000000D+00 0.198104852690643D+03
 0.198104852690643D+03 0.000000000000000D+00 0.000000000000000D+00 -.198104852690643D+03
 0.209661591358638D+03 -.104279100363983D+03 0.108670325183357D+03 0.751639045211077D+02
 0.186548114022648D+03 0.104279100363983D+03 -.108670325183357D+03 -.751639045211077D+02
 0.000000000000000D+00 0.000000000000000D+00 0.000000000000000D+00 0.000000000000000D+00
 0.207905721164077D+03 0.000000000000000D+00 0.000000000000000D+00 0.207905721164077D+03
 0.198936420571386D+03 0.000000000000000D+00 0.000000000000000D+00 -.198936420571386D+03
 0.210765497293977D+03 -.107186458725862D+03 0.107974744141991D+03 0.751639045211077D+02
 0.185484273196548D+03 0.101706403453949D+03 -.109285838984223D+03 -.751639045211077D+02
 0.105923712449378D+02 0.548005527191342D+01 0.131109484223231D+01 0.896930059269014D+01
0.652343335118D-03 0.000000000000D+00 0.000000000000D+00 0.187248687655D-02 0.000000000000D+00  5 2 -1 25 24 21 0 0.31573176D+00 0.29420175D-02 0.33573356D+05 0.33573356D+05 0.33573356D+05 0.12098022D+01  1  2  2  1  5  1        2 0.201386540856D+00 0.100000000000D+01
-.359728497041D-04 0.000000000000D+00 -.250517017280D-05 0.187248687655D-02 0.000000000000D+00  5 2 -1 25 24 21 2 0.31573176D+00 0.29420175D-02 0.33573356D+05 0.33573356D+05 0.33573356D+05 0.12098022D+01  1  2  3  1  5  1        2 -.162539070512D-01 0.100000000000D+01
0.450231112475D-04 0.000000000000D+00 0.000000000000D+00 0.187248687655D-02 0.000000000000D+00  5 2 -1 25 24 21 2 0.31573176D+00 0.29420175D-02 0.33573356D+05 0.33573356D+05 0.33573356D+05 0.12098022D+01  1  2 15  1  5  1        2 0.203431607836D-01 0.100000000000D+01
0.317323168553D-02 0.000000000000D+00 0.000000000000D+00 0.187248687655D-02 0.000000000000D+00  5 2 -1 25 24 21 2 0.33199580D+00 0.29420175D-02 0.34617285D+05 0.34617285D+05 0.34617285D+05 0.12084269D+01  1  2 12  1  5  1        2 0.125995000217D+01 0.100000000000D+01
-.646184355803D-02 0.000000000000D+00 0.000000000000D+00 0.187248687655D-02 0.000000000000D+00  5 2 -1 25 24 21 2 0.31573176D+00 0.29420175D-02 0.33573356D+05 0.33573356D+05 0.33573356D+05 0.12098022D+01  1  2  4  1  5  1        2 -.291970765273D+01 0.100000000000D+01
-.162090802478D-01 0.000000000000D+00 -.141970371698D-02 0.187248687655D-02 0.000000000000D+00  5 2 -1 25 24 21 2 0.33183443D+00 0.29420175D-02 0.33573356D+05 0.33573356D+05 0.33573356D+05 0.12098022D+01  1  2  5  1  5  1        2 -.645973949712D+01 0.100000000000D+01
0.162613328974D-01 0.000000000000D+00 0.141794908265D-02 0.187248687655D-02 0.000000000000D+00  5 2 -1 25 24 21 2 0.31573176D+00 0.29420175D-02 0.33573356D+05 0.33573356D+05 0.33573356D+05 0.12098022D+01  1  2  6  1  5  1        2 0.734749111112D+01 0.100000000000D+01
0.323509925739D-02 0.000000000000D+00 0.000000000000D+00 0.187248687655D-02 0.459951402297D-03  5 2 -1 25 24 21 2 0.33135200D+00 0.29543669D-02 0.34617285D+05 0.34617285D+05 0.34617285D+05 0.12084269D+01  1  2 11  1  5  1        2 0.128309309748D+01 0.100000000000D+01
0.531286298342D-04 0.000000000000D+00 0.000000000000D+00 0.187248687655D-02 0.000000000000D+00  5 21 -1 25 24 -2 2 0.33199580D+00 0.29420175D-02 0.34617285D+05 0.34617285D+05 0.34617285D+05 0.12084269D+01  1  2 12  3  5  1        2 0.593494956111D-02 0.100000000000D+01
-.139278511141D-03 0.000000000000D+00 -.123073151851D-04 0.187248687655D-02 0.000000000000D+00  5 21 -1 25 24 -2 2 0.33183443D+00 0.29420175D-02 0.33573356D+05 0.33573356D+05 0.33573356D+05 0.12098022D+01  1  2  5  3  5  1        2 -.156705907565D-01 0.100000000000D+01
0.279340404803D-04 0.000000000000D+00 0.000000000000D+00 0.187248687655D-02 0.387264661972D-05  5 21 -1 25 24 -2 2 0.33135200D+00 0.29543669D-02 0.34617285D+05 0.34617285D+05 0.34617285D+05 0.12084269D+01  1  2 11  3  5  1        2 0.312819339642D-02 0.100000000000D+01
  </mgrwgt>
  </event>
  <event>
  4     66 0.48098993E-03 0.48561229E+02 0.75467711E-02 0.11975540E+00
        2 -1    0    0  501    0 0.00000000E+00 0.00000000E+00 0.21589410E+04 0.21589410E+04 0.32000000E+00 0.0000E+00 0.9000E+01
       -1 -1    0    0    0  501 0.00000000E+00 0.00000000E+00 -.68045812E+01 0.68121014E+01 0.32000000E+00 0.0000E+00 0.9000E+01
       25  1    1    2    0    0 -.52951325E+02 0.40653165E+01 0.93569202E+03 0.94549719E+03 0.12500000E+03 0.0000E+00 0.9000E+01
       24  1    1    2    0    0 0.52951325E+02 -.40653165E+01 0.12164444E+04 0.12202560E+04 0.80419002E+02 0.0000E+00 0.9000E+01
#aMCatNLO 1  0  0  1  2 0.63962329D+02 0.00000000D+00  -5  5  0 0.00000000D+00 0.00000000D+00 0.00000000D+00 0.00000000D+00 0.00000000D+00
  <mgrwgt>
 0.4283256525D+00    9    2    0
 0.121238849723423D+03 0.000000000000000D+00 0.000000000000000D+00 0.121238849723423D+03
 0.121238849723423D+03 0.000000000000000D+00 0.000000000000000D+00 -.121238849723423D+03
 0.140122615254276D+03 -.529513248796244D+02 0.406531649679547D+01 -.344815559534525D+02
 0.102355084192571D+03 0.529513248796244D+02 -.406531649679547D+01 0.344815559534525D+02
 0.000000000000000D+00 -.000000000000000D+00 -.000000000000000D+00 0.000000000000000D+00
 0.197932258193745D+03 0.000000000000000D+00 0.000000000000000D+00 0.197932258193745D+03
 0.139484542128059D+03 0.000000000000000D+00 0.000000000000000D+00 -.139484542128059D+03
 0.144845916796119D+03 -.499389786583537D+02 0.408957249855989D+02 -.344815559534525D+02
 0.105926119738139D+03 0.551530244606554D+02 0.228537323052359D+02 0.344815559534525D+02
 0.866447637875451D+02 -.521404580230168D+01 -.637494572908349D+02 0.584477160656857D+02
0.291628511028D-03 0.000000000000D+00 0.000000000000D+00 0.256650063481D-02 0.000000000000D+00  5 2 -1 25 24 21 0 0.33214535D+00 0.10474390D-02 0.13477567D+05 0.13477567D+05 0.13477567D+05 0.12531563D+01  1  2  2  1  5  1        2 0.349301338648D+00 0.100000000000D+01
-.161645286690D-04 0.000000000000D+00 -.111993026990D-05 0.256650063481D-02 0.000000000000D+00  5 2 -1 25 24 21 2 0.33214535D+00 0.10474390D-02 0.13477567D+05 0.13477567D+05 0.13477567D+05 0.12531563D+01  1  2  3  1  5  1        2 -.304049176275D-01 0.100000000000D+01
0.201792198941D-04 0.000000000000D+00 0.000000000000D+00 0.256650063481D-02 0.000000000000D+00  5 2 -1 25 24 21 2 0.33214535D+00 0.10474390D-02 0.13477567D+05 0.13477567D+05 0.13477567D+05 0.12531563D+01  1  2 15  1  5  1        2 0.379564125395D-01 0.100000000000D+01
0.101112679527D-03 0.000000000000D+00 0.000000000000D+00 0.256650063481D-02 0.000000000000D+00  5 2 -1 25 24 21 2 0.55415041D+00 0.10474390D-02 0.23225883D+05 0.23225883D+05 0.23225883D+05 0.12267399D+01  1  2 12  1  5  1        2 0.270904009258D-01 0.100000000000D+01
-.190468285270D-03 0.000000000000D+00 0.000000000000D+00 0.256650063481D-02 0.000000000000D+00  5 2 -1 25 24 21 2 0.33214535D+00 0.10474390D-02 0.13477567D+05 0.13477567D+05 0.13477567D+05 0.12531563D+01  1  2  4  1  5  1        2 -.358264236642D+00 0.100000000000D+01
-.226490587417D-03 0.000000000000D+00 -.841644533184D-04 0.256650063481D-02 0.000000000000D+00  5 2 -1 25 24 21 2 0.55945576D+00 0.10474390D-02 0.13477567D+05 0.13477567D+05 0.13477567D+05 0.12531563D+01  1  2  5  1  5  1        2 -.607379508652D-01 0.100000000000D+01
0.246390344440D-03 0.000000000000D+00 0.738912116066D-04 0.256650063481D-02 0.000000000000D+00  5 2 -1 25 24 21 2 0.33214535D+00 0.10474390D-02 0.13477567D+05 0.13477567D+05 0.13477567D+05 0.12531563D+01  1  2  6  1  5  1        2 0.463451689825D+00 0.100000000000D+01
0.580854879187D-05 0.000000000000D+00 0.000000000000D+00 0.256650063481D-02 0.000000000000D+00  5 21 -1 25 24 -2 2 0.55415041D+00 0.10474390D-02 0.23225883D+05 0.23225883D+05 0.23225883D+05 0.12267399D+01  1  2 12  3  5  1        2 0.108153107233D-03 0.100000000000D+01
-.923042870548D-05 0.000000000000D+00 -.490730894362D-05 0.256650063481D-02 0.000000000000D+00  5 21 -1 25 24 -2 2 0.55945576D+00 0.10474390D-02 0.13477567D+05 0.13477567D+05 0.13477567D+05 0.12531563D+01  1  2  5  3  5  1        2 -.175237443055D-03 0.100000000000D+01
  </mgrwgt>
  </event>
  <event>
  4     66 0.48098993E-03 0.59877890E+02 0.75467711E-02 0.11676809E+00
        2 -1    0    0  501    0 0.00000000E+00 0.00000000E+00 0.22243199E+04 0.22243199E+04 0.32000000E+00 0.0000E+00 0.9000E+01
       -1 -1    0    0    0  501 0.00000000E+00 0.00000000E+00 -.18711968E+02 0.18714704E+02 0.32000000E+00 0.0000E+00 0.9000E+01
       25  1    1    2    0    0 0.11511011E+03 0.70663636E+02 0.54983808E+03 0.57981945E+03 0.12500000E+03 0.0000E+00 0.9000E+01
       24  1    1    2    0    0 -.11511011E+03 -.70663636E+02 0.16557698E+04 0.16632151E+04 0.80419002E+02 0.0000E+00 0.9000E+01
#aMCatNLO 1  0  0  1  2 0.18907669D+02 0.00000000D+00  -5  5  0 0.00000000D+00 0.00000000D+00 0.00000000D+00 0.00000000D+00 0.00000000D+00
  <mgrwgt>
 0.6106648925D+00    9    2    0
 0.204020820444336D+03 0.000000000000000D+00 0.000000000000000D+00 0.204020820444336D+03
 0.204020820444336D+03 0.000000000000000D+00 0.000000000000000D+00 -.204020820444336D+03
 0.215242449719334D+03 0.115110106778197D+03 0.706636356062487D+02 -.111627174476467D+03
 0.192799191169337D+03 -.115110106778197D+03 -.706636356062487D+02 0.111627174476467D+03
 0.000000000000000D+00 -.000000000000000D+00 -.000000000000000D+00 0.000000000000000D+00
 0.218764840771395D+03 0.000000000000000D+00 0.000000000000000D+00 0.218764840771395D+03
 0.210392875937894D+03 0.000000000000000D+00 0.000000000000000D+00 -.210392875937894D+03
 0.221192975735013D+03 0.125127884825506D+03 0.719980476957921D+02 -.111627174476467D+03
 0.187286498202275D+03 -.106385759823274D+03 -.695015142261341D+02 0.111627174476467D+03
 0.206782427720006D+02 -.187421250022318D+02 -.249653346965800D+01 0.837196483350174D+01
0.870876836629D-03 0.000000000000D+00 0.000000000000D+00 0.153784471370D-02 0.000000000000D+00  5 2 -1 25 24 21 0 0.34220327D+00 0.28789765D-02 0.29109732D+05 0.29109732D+05 0.29109732D+05 0.12162739D+01  1  2  2  1  5  1        2 0.225858527053D+00 0.100000000000D+01
-.465012565381D-04 0.000000000000D+00 -.334439635979D-05 0.153784471370D-02 0.000000000000D+00  5 2 -1 25 24 21 2 0.34220327D+00 0.28789765D-02 0.29109732D+05 0.29109732D+05 0.29109732D+05 0.12162739D+01  1  2  3  1  5  1        2 -.178405083512D-01 0.100000000000D+01
0.602298806435D-04 0.000000000000D+00 0.000000000000D+00 0.153784471370D-02 0.000000000000D+00  5 2 -1 25 24 21 2 0.34220327D+00 0.28789765D-02 0.29109732D+05 0.29109732D+05 0.29109732D+05 0.12162739D+01  1  2 15  1  5  1        2 0.231075839365D-01 0.100000000000D+01
0.213448379234D-02 0.000000000000D+00 0.000000000000D+00 0.153784471370D-02 0.000000000000D+00  5 2 -1 25 24 21 2 0.37199219D+00 0.28789765D-02 0.32445464D+05 0.32445464D+05 0.32445464D+05 0.12113427D+01  1  2 12  1  5  1        2 0.641080233849D+00 0.100000000000D+01
-.204446901362D-02 0.000000000000D+00 0.000000000000D+00 0.153784471370D-02 0.000000000000D+00  5 2 -1 25 24 21 2 0.34220327D+00 0.28789765D-02 0.29109732D+05 0.29109732D+05 0.29109732D+05 0.12162739D+01  1  2  4  1  5  1        2 -.784373783131D+00 0.100000000000D+01
-.630137324654D-02 0.000000000000D+00 -.112784738496D-02 0.153784471370D-02 0.000000000000D+00  5 2 -1 25 24 21 2 0.37137754D+00 0.28789765D-02 0.29109732D+05 0.29109732D+05 0.29109732D+05 0.12162739D+01  1  2  5  1  5  1        2 -.191959376514D+01 0.100000000000D+01
0.637606019731D-02 0.000000000000D+00 0.112408321883D-02 0.153784471370D-02 0.000000000000D+00  5 2 -1 25 24 21 2 0.34220327D+00 0.28789765D-02 0.29109732D+05 0.29109732D+05 0.29109732D+05 0.12162739D+01  1  2  6  1  5  1        2 0.244621680501D+01 0.100000000000D+01
0.296642740150D-04 0.000000000000D+00 0.000000000000D+00 0.153784471370D-02 0.000000000000D+00  5 21 -1 25 24 -2 2 0.37199219D+00 0.28789765D-02 0.32445464D+05 0.32445464D+05 0.32445464D+05 0.12113427D+01  1  2 12  3  5  1        2 0.200872815772D-02 0.100000000000D+01
-.833083201635D-04 0.000000000000D+00 -.153673090630D-04 0.153784471370D-02 0.000000000000D+00  5 21 -1 25 24 -2 2 0.37137754D+00 0.28789765D-02 0.29109732D+05 0.29109732D+05 0.29109732D+05 0.12162739D+01  1  2  5  3  5  1        2 -.579892887963D-02 0.100000000000D+01
  </mgrwgt>
  </event>
  <event>
  4     66 0.48098993E-03 0.13692888E+03 0.75467711E-02 0.11646036E+00
        2 -1    0    0  501    0 0.00000000E+00 0.00000000E+00 0.80245395E+03 0.80245401E+03 0.32000000E+00 0.0000E+00 0.9000E+01
       -1 -1    0    0    0  501 0.00000000E+00 0.00000000E+00 -.27209877E+02 0.27211759E+02 0.32000000E+00 0.0000E+00 0.9000E+01
       25  1    1    2    0    0 0.66082090E+02 0.60134221E+02 0.58321323E+03 0.60311329E+03 0.12500000E+03 0.0000E+00 0.9000E+01
       24  1    1    2    0    0 -.66082090E+02 -.60134221E+02 0.19203084E+03 0.22655248E+03 0.80419002E+02 0.0000E+00 0.9000E+01
#aMCatNLO 1  0  0  1  2 0.80870802D+02 0.00000000D+00  -5  5  0 0.00000000D+00 0.00000000D+00 0.00000000D+00 0.00000000D+00 0.00000000D+00
  <mgrwgt>
 0.4021099333D+00    7    2    0
 0.147768333469623D+03 0.000000000000000D+00 0.000000000000000D+00 0.147768333469623D+03
 0.147768333469623D+03 0.000000000000000D+00 0.000000000000000D+00 -.147768333469623D+03
 0.163261815446788D+03 0.660820897568438D+02 0.601342212962423D+02 0.551946847571763D+02
 0.132274851492457D+03 -.660820897568438D+02 -.601342212962423D+02 -.551946847571763D+02
 0.000000000000000D+00 -.000000000000000D+00 0.000000000000000D+00 0.000000000000000D+00
 0.198576957315155D+03 0.000000000000000D+00 0.000000000000000D+00 0.198576957315155D+03
 0.189233515229072D+03 0.000000000000000D+00 0.000000000000000D+00 -.189233515229072D+03
 0.155285713476423D+03 0.716172428933442D+02 0.176966128056571D+02 0.551946847571763D+02
 0.151115996940792D+03 -.611578269667252D+02 -.978881788179913D+02 -.551946847571763D+02
 0.814087621270128D+02 -.104594159266190D+02 0.801915660123342D+02 0.934344208608293D+01
0.418869714157D-03 0.000000000000D+00 0.000000000000D+00 0.211916238650D-02 0.000000000000D+00  5 2 -1 25 24 21 0 0.12345460D+00 0.41862846D-02 0.18749518D+05 0.18749518D+05 0.18749518D+05 0.12369250D+01  1  2  2  1  5  1        2 0.372653755643D+00 0.100000000000D+01
-.231063233498D-04 0.000000000000D+00 -.160856999329D-05 0.211916238650D-02 0.000000000000D+00  5 2 -1 25 24 21 2 0.12345460D+00 0.41862846D-02 0.18749518D+05 0.18749518D+05 0.18749518D+05 0.12369250D+01  1  2  3  1  5  1        2 -.314516992183D-01 0.100000000000D+01
0.289132473450D-04 0.000000000000D+00 0.000000000000D+00 0.211916238650D-02 0.000000000000D+00  5 2 -1 25 24 21 2 0.12345460D+00 0.41862846D-02 0.18749518D+05 0.18749518D+05 0.18749518D+05 0.12369250D+01  1  2 15  1  5  1        2 0.393559263043D-01 0.100000000000D+01
-.173330282975D-03 0.000000000000D+00 0.000000000000D+00 0.211916238650D-02 0.000000000000D+00  5 2 -1 25 24 21 2 0.12345460D+00 0.41862846D-02 0.18749518D+05 0.18749518D+05 0.18749518D+05 0.12369250D+01  1  2  4  1  5  1        2 -.235932469352D+00 0.100000000000D+01
-.278027394601D-03 0.000000000000D+00 -.168234030677D-03 0.211916238650D-02 0.000000000000D+00  5 2 -1 25 24 21 2 0.19721130D+00 0.41862846D-02 0.18749518D+05 0.18749518D+05 0.18749518D+05 0.12369250D+01  1  2  5  1  5  1        2 -.196604256111D+00 0.100000000000D+01
0.336177069937D-03 0.000000000000D+00 0.151327598140D-03 0.211916238650D-02 0.000000000000D+00  5 2 -1 25 24 21 2 0.12345460D+00 0.41862846D-02 0.18749518D+05 0.18749518D+05 0.18749518D+05 0.12369250D+01  1  2  6  1  5  1        2 0.457595088915D+00 0.100000000000D+01
-.786521213958D-05 0.000000000000D+00 -.901412136218D-05 0.211916238650D-02 0.000000000000D+00  5 21 -1 25 24 -2 2 0.19721130D+00 0.41862846D-02 0.18749518D+05 0.18749518D+05 0.18749518D+05 0.12369250D+01  1  2  5  3  5  1        2 -.350641291674D-02 0.100000000000D+01
  </mgrwgt>
  </event>
  <event>
  4     66 0.48098993E-03 0.31625095E+03 0.75467711E-02 0.10247205E+00
        2 -1    0    0  501    0 0.00000000E+00 0.00000000E+00 0.44782433E+03 0.44782444E+03 0.32000000E+00 0.0000E+00 0.9000E+01
       -1 -1    0    0    0  501 0.00000000E+00 0.00000000E+00 -.26507195E+03 0.26507215E+03 0.32000000E+00 0.0000E+00 0.9000E+01
       25  1    1    2    0    0 0.46865092E+02 0.29466019E+03 -.48272168E+02 0.32707212E+03 0.12500000E+03 0.0000E+00 0.9000E+01
       24  1    1    2    0    0 -.46865092E+02 -.29466019E+03 0.23102454E+03 0.38582447E+03 0.80419002E+02 0.0000E+00 0.9000E+01
#aMCatNLO 1  0  0  1  2 0.24531598D+03 0.00000000D+00  -5  5  0 0.00000000D+00 0.00000000D+00 0.00000000D+00 0.00000000D+00 0.00000000D+00
  <mgrwgt>
 0.4677940405D+00    3    2    0
 0.344537048463763D+03 0.000000000000000D+00 0.000000000000000D+00 0.344537048463763D+03
 0.344537048463763D+03 0.000000000000000D+00 0.000000000000000D+00 -.344537048463763D+03
 0.351182040697880D+03 0.468650915918367D+02 0.294660193592523D+03 -.136685256011148D+03
 0.337892056229646D+03 -.468650915918367D+02 -.294660193592523D+03 0.136685256011148D+03
 0.000000000000000D+00 -.000000000000000D+00 -.000000000000000D+00 -.000000000000000D+00
 0.483825830924142D+03 0.000000000000000D+00 0.000000000000000D+00 0.483825830924142D+03
 0.493104582089562D+03 0.000000000000000D+00 0.000000000000000D+00 -.493104582089562D+03
 0.446230904496810D+03 0.160058944025697D+03 0.373088857183630D+03 -.136685256011148D+03
 0.285208115451264D+03 0.415848254928947D+02 -.233375869024163D+03 0.136685256011148D+03
 0.245491393065631D+03 -.201643769518592D+03 -.139712988159467D+03 -.927875116542011D+01
0.956696165623D-02 0.000000000000D+00 0.000000000000D+00 0.167436862662D-02 0.000000000000D+00  5 2 -1 25 24 21 0 0.68896074D-01 0.40780324D-01 0.10001467D+06 0.10001467D+06 0.10001467D+06 0.11635658D+01  1  2  2  1  5  1        2 0.459189043928D+00 0.100000000000D+01
-.526755497738D-03 0.000000000000D+00 -.367396517988D-04 0.167436862662D-02 0.000000000000D+00  5 2 -1 25 24 21 2 0.68896074D-01 0.40780324D-01 0.10001467D+06 0.10001467D+06 0.10001467D+06 0.11635658D+01  1  2  3  1  5  1        2 -.342301229944D-01 0.100000000000D+01
0.659174806752D-03 0.000000000000D+00 0.000000000000D+00 0.167436862662D-02 0.000000000000D+00  5 2 -1 25 24 21 2 0.68896074D-01 0.40780324D-01 0.10001467D+06 0.10001467D+06 0.10001467D+06 0.11635658D+01  1  2 15  1  5  1        2 0.428351195323D-01 0.100000000000D+01
  </mgrwgt>
  </event>
  <event>
  4     66 0.48098993E-03 0.10458020E+03 0.75467711E-02 0.12698914E+00
        2 -1    0    0  501    0 0.00000000E+00 0.00000000E+00 0.98558554E+02 0.98559073E+02 0.32000000E+00 0.0000E+00 0.9000E+01
       -1 -1    0    0    0  501 0.00000000E+00 0.00000000E+00 -.11111587E+03 0.11111633E+03 0.32000000E+00 0.0000E+00 0.9000E+01
       25  1    1    2    0    0 0.14571348E+01 0.19184287E+02 -.11322062E+02 0.12697775E+03 0.12500000E+03 0.0000E+00 0.9000E+01
       24  1    1    2    0    0 -.14571348E+01 -.19184287E+02 -.12352541E+01 0.82697654E+02 0.80419002E+02 0.0000E+00 0.9000E+01
#aMCatNLO 1  0  0  1  2 0.10686844D+01 0.00000000D+00  -5  5  0 0.00000000D+00 0.00000000D+00 0.00000000D+00 0.00000000D+00 0.00000000D+00
  <mgrwgt>
 0.2455498448D+00    6    2    0
 0.104649521123765D+03 0.000000000000000D+00 0.000000000000000D+00 0.104649521123765D+03
 0.104649521123765D+03 0.000000000000000D+00 0.000000000000000D+00 -.104649521123765D+03
 0.126526792866841D+03 0.145713482902872D+01 0.191842873001526D+02 -.372413641582702D+01
 0.827722493806891D+02 -.145713482902872D+01 -.191842873001526D+02 0.372413641582702D+01
 0.000000000000000D+00 -.000000000000000D+00 -.000000000000000D+00 -.000000000000000D+00
 0.105019935240730D+03 0.000000000000000D+00 0.000000000000000D+00 0.105019935240730D+03
 0.105424551882422D+03 0.000000000000000D+00 0.000000000000000D+00 -.105424551882422D+03
 0.126595526963865D+03 0.196128158053362D+01 0.195885586446987D+02 -.372413641582702D+01
 0.827062436263080D+02 -.112754933554399D+01 -.189199952657475D+02 0.372413641582702D+01
 0.114271653297942D+01 -.833732244989630D+00 -.668563378951285D+00 -.404616641692240D+00
0.212940241756D-03 0.000000000000D+00 0.000000000000D+00 0.317151099886D-02 0.000000000000D+00  5 2 -1 25 24 21 0 0.15162930D-01 0.17094825D-01 0.10937018D+05 0.10937018D+05 0.10937018D+05 0.12637727D+01  1  2  2  1  5  1        2 0.223503048793D+00 0.100000000000D+01
-.118300071155D-04 0.000000000000D+00 -.817746596797D-06 0.317151099886D-02 0.000000000000D+00  5 2 -1 25 24 21 2 0.15162930D-01 0.17094825D-01 0.10937018D+05 0.10937018D+05 0.10937018D+05 0.12637727D+01  1  2  3  1  5  1        2 -.198311854273D-01 0.100000000000D+01
0.147296109914D-04 0.000000000000D+00 0.000000000000D+00 0.317151099886D-02 0.000000000000D+00  5 2 -1 25 24 21 2 0.15162930D-01 0.17094825D-01 0.10937018D+05 0.10937018D+05 0.10937018D+05 0.12637727D+01  1  2 15  1  5  1        2 0.246919248645D-01 0.100000000000D+01
-.171793846123D-02 0.000000000000D+00 0.000000000000D+00 0.317151099886D-02 0.000000000000D+00  5 2 -1 25 24 21 2 0.15162930D-01 0.17094825D-01 0.10937018D+05 0.10937018D+05 0.10937018D+05 0.12637727D+01  1  2  4  1  5  1        2 -.287985931410D+01 0.100000000000D+01
0.171799525333D-02 0.000000000000D+00 0.000000000000D+00 0.317151099886D-02 0.236350700101D-01  5 2 -1 25 24 21 2 0.15216600D-01 0.17221428D-01 0.11049350D+05 0.11049350D+05 0.11049350D+05 0.12632469D+01  1  2 11  1  5  1        2 0.283399816955D+01 0.100000000000D+01
0.456630350629D-05 0.000000000000D+00 0.000000000000D+00 0.317151099886D-02 0.156352817884D-04  5 21 -1 25 24 -2 2 0.15216600D-01 0.17221428D-01 0.11049350D+05 0.11049350D+05 0.11049350D+05 0.12632469D+01  1  2 11  3  5  1        2 0.630472011140D-01 0.100000000000D+01
  </mgrwgt>
  </event>
  <event>
  4     66 0.48098993E-03 0.11785612E+03 0.75467711E-02 0.10541790E+00
        2 -1    0    0  501    0 0.00000000E+00 0.00000000E+00 0.90873923E+03 0.90873929E+03 0.32000000E+00 0.0000E+00 0.9000E+01
       -1 -1    0    0    0  501 0.00000000E+00 0.00000000E+00 -.23001784E+02 0.23004010E+02 0.32000000E+00 0.0000E+00 0.9000E+01
       25  1    1    2    0    0 0.29998531E+02 -.48180970E+02 0.22396788E+03 0.26269360E+03 0.12500000E+03 0.0000E+00 0.9000E+01
       24  1    1    2    0    0 -.29998531E+02 0.48180970E+02 0.66176957E+03 0.66904970E+03 0.80419002E+02 0.0000E+00 0.9000E+01
#aMCatNLO 1  0  0  1  2 0.33725945D+03 0.00000000D+00  -5  5  0 0.00000000D+00 0.00000000D+00 0.00000000D+00 0.00000000D+00 0.00000000D+00
  <mgrwgt>
 0.4569289299D+00    3    2    0
 0.144581073681409D+03 0.000000000000000D+00 0.000000000000000D+00 0.144581073681409D+03
 0.144581073681409D+03 0.000000000000000D+00 0.000000000000000D+00 -.144581073681409D+03
 0.160416106255951D+03 0.299985310286297D+02 -.481809699418732D+02 -.829880076752369D+02
 0.128746041106867D+03 -.299985310286297D+02 0.481809699418732D+02 0.829880076752369D+02
 0.000000000000000D+00 -.000000000000000D+00 0.000000000000000D+00 -.000000000000000D+00
 0.303848027115976D+03 0.000000000000000D+00 0.000000000000000D+00 0.303848027115976D+03
 0.570082411953670D+03 0.000000000000000D+00 0.000000000000000D+00 -.570082411953670D+03
 0.304402436949468D+03 0.216609386501357D+03 -.152411311530264D+03 -.829880076752369D+02
 0.139848259339733D+03 0.778341122987858D+02 -.120482874607769D+02 0.829880076752369D+02
 0.429679742780445D+03 -.294443498800143D+03 0.164459598991041D+03 -.266234384837695D+03
0.463218044927D-03 0.000000000000D+00 0.000000000000D+00 0.172196764682D-02 0.000000000000D+00  5 2 -1 25 24 21 0 0.13980621D+00 0.35389116D-02 0.13890065D+05 0.13890065D+05 0.13890065D+05 0.12516467D+01  1  2  2  1  5  1        2 0.445920355842D+00 0.100000000000D+01
-.244274019267D-04 0.000000000000D+00 -.177887926063D-05 0.172196764682D-02 0.000000000000D+00  5 2 -1 25 24 21 2 0.13980621D+00 0.35389116D-02 0.13890065D+05 0.13890065D+05 0.13890065D+05 0.12516467D+01  1  2  3  1  5  1        2 -.368394089116D-01 0.100000000000D+01
0.317269453296D-04 0.000000000000D+00 0.000000000000D+00 0.172196764682D-02 0.000000000000D+00  5 2 -1 25 24 21 2 0.13980621D+00 0.35389116D-02 0.13890065D+05 0.13890065D+05 0.13890065D+05 0.12516467D+01  1  2 15  1  5  1        2 0.478479830160D-01 0.100000000000D+01
  </mgrwgt>
  </event>
  <event>
  5     66 0.48098993E-03 0.11269064E+03 0.75467711E-02 0.12357056E+00
        2 -1    0    0  501    0 0.00000000E+00 0.00000000E+00 0.66122651E+03 0.66122658E+03 0.32000000E+00 0.0000E+00 0.9000E+01
       21 -1    0    0  502  501 0.00000000E+00 0.00000000E+00 -.28362025E+02 0.28371939E+02 0.75000000E+00 0.0000E+00 0.9000E+01
       25  1    1    2    0    0 -.36965624E+02 0.28067150E+02 0.28590624E+03 0.31547044E+03 0.12500000E+03 0.0000E+00 0.9000E+01
       24  1    1    2    0    0 0.19707341E+02 -.42755517E+02 0.33650384E+03 0.34916825E+03 0.80419002E+02 0.0000E+00 0.9000E+01
        1  1    1    2  502    0 0.17258284E+02 0.14688367E+02 0.10454404E+02 0.24959836E+02 0.32000000E+00 0.0000E+00 0.9000E+01
#aMCatNLO 2  0  0  2  1 0.22662667D+02 0.00000000D+00  -5  5  0 0.00000000D+00 0.00000000D+00 0.00000000D+00 0.00000000D+00 0.00000000D+00
  <mgrwgt>
 0.4405413041D-01    2    2    0
 0.116013665505299D+03 0.000000000000000D+00 0.000000000000000D+00 0.116013665505299D+03
 0.116013665505299D+03 0.000000000000000D+00 0.000000000000000D+00 -.116013665505299D+03
 0.135747944233893D+03 -.268805396966739D+02 0.366504730810682D+02 -.271419190971725D+02
 0.962793867767060D+02 0.268805396966739D+02 -.366504730810682D+02 0.271419190971725D+02
 0.000000000000000D+00 0.000000000000000D+00 0.000000000000000D+00 -.000000000000000D+00
 0.119772557614923D+03 0.000000000000000D+00 0.000000000000000D+00 0.119772557614923D+03
 0.156605042844428D+03 0.000000000000000D+00 0.000000000000000D+00 -.156605042844428D+03
 0.136073164451573D+03 -.369656244587524D+02 0.280671501930994D+02 -.271419190971725D+02
 0.970582980642210D+02 0.197073405704022D+02 -.427555168851617D+02 0.271419190971725D+02
 0.432461379435566D+02 0.172582838883502D+02 0.146883666920623D+02 -.368324852295056D+02
-.164751097893D-04 0.000000000000D+00 0.000000000000D+00 0.273045902643D-02 0.000000000000D+00  5 2 21 25 24 1 2 0.98534860D-01 0.44029682D-02 0.15523591D+05 0.15523591D+05 0.15523591D+05 0.12461274D+01  1  2 13  4  5  2       -1 -.494916943083D+00 0.100000000000D+01
0.183434944329D-04 0.000000000000D+00 0.000000000000D+00 0.273045902643D-02 0.186956384128D-05  5 2 21 25 24 1 2 0.10172743D+00 0.43641360D-02 0.15523591D+05 0.15523591D+05 0.15523591D+05 0.12461274D+01  1  2  1  4  5  2       -1 0.538971073497D+00 0.100000000000D+01
  </mgrwgt>
  </event>
  <event>
  4     66 0.48098993E-03 0.10280627E+03 0.75467711E-02 0.12097931E+00
        2 -1    0    0  501    0 0.00000000E+00 0.00000000E+00 0.52622790E+03 0.52622800E+03 0.32000000E+00 0.0000E+00 0.9000E+01
       -1 -1    0    0    0  501 0.00000000E+00 0.00000000E+00 -.20314849E+02 0.20317370E+02 0.32000000E+00 0.0000E+00 0.9000E+01
       25  1    1    2    0    0 0.22844876E+00 -.43474434E+01 0.33561355E+03 0.35816254E+03 0.12500000E+03 0.0000E+00 0.9000E+01
       24  1    1    2    0    0 -.22844876E+00 0.43474434E+01 0.17029950E+03 0.18838283E+03 0.80419002E+02 0.0000E+00 0.9000E+01
#aMCatNLO 1  0  0  2  2 0.68572431D+02 0.00000000D+00  -5  5  0 0.00000000D+00 0.00000000D+00 0.00000000D+00 0.00000000D+00 0.00000000D+00
  <mgrwgt>
 0.3707501573D+00    3    2    0
 0.103397078599232D+03 0.000000000000000D+00 0.000000000000000D+00 0.103397078599232D+03
 0.103397078599232D+03 0.000000000000000D+00 0.000000000000000D+00 -.103397078599232D+03
 0.125539348404371D+03 0.228448762715798D+00 -.434744341218046D+01 0.107784759931453D+02
 0.812548087940932D+02 -.228448762715798D+00 0.434744341218046D+01 -.107784759931453D+02
 0.000000000000000D+00 0.000000000000000D+00 -.000000000000000D+00 0.000000000000000D+00
 0.258603816074206D+03 0.000000000000000D+00 0.000000000000000D+00 0.258603816074206D+03
 0.116787692806219D+03 0.000000000000000D+00 0.000000000000000D+00 -.116787692806219D+03
 0.131615499074105D+03 -.378320414698241D+02 0.122556391108975D+02 0.107784759931453D+02
 0.862514367817707D+02 -.250203976065470D+02 0.151624058587266D+02 -.107784759931453D+02
 0.157524573024548D+03 0.628524390763711D+02 -.274180449696242D+02 0.141816123267987D+03
0.166968440896D-03 0.000000000000D+00 0.000000000000D+00 0.318992013572D-02 0.000000000000D+00  5 2 -1 25 24 21 0 0.80958340D-01 0.31255628D-02 0.10569129D+05 0.10569129D+05 0.10569129D+05 0.12655385D+01  1  2  2  2  5  2       -1 0.363151565609D+00 0.100000000000D+01
-.927565414717D-05 0.000000000000D+00 -.641202776839D-06 0.318992013572D-02 0.000000000000D+00  5 2 -1 25 24 21 2 0.80958340D-01 0.31255628D-02 0.10569129D+05 0.10569129D+05 0.10569129D+05 0.12655385D+01  1  2  3  2  5  2       -1 -.323108814771D-01 0.100000000000D+01
0.114570217060D-04 0.000000000000D+00 0.000000000000D+00 0.318992013572D-02 0.000000000000D+00  5 2 -1 25 24 21 2 0.80958340D-01 0.31255628D-02 0.10569129D+05 0.10569129D+05 0.10569129D+05 0.12655385D+01  1  2 15  2  5  2       -1 0.399094731810D-01 0.100000000000D+01
  </mgrwgt>
  </event>
  <event>
  4     66 0.48098993E-03 0.10803740E+03 0.75467711E-02 0.12152294E+00
        2 -1    0    0  501    0 0.00000000E+00 0.00000000E+00 0.21352135E+02 0.21354533E+02 0.32000000E+00 0.0000E+00 0.9000E+01
       -1 -1    0    0    0  501 0.00000000E+00 0.00000000E+00 -.55478595E+03 0.55478604E+03 0.32000000E+00 0.0000E+00 0.9000E+01
       25  1    1    2    0    0 -.26199960E+02 -.19713013E+02 -.35255541E+03 0.37549349E+03 0.12500000E+03 0.0000E+00 0.9000E+01
       24  1    1    2    0    0 0.26199960E+02 0.19713013E+02 -.18087840E+03 0.20064708E+03 0.80419002E+02 0.0000E+00 0.9000E+01
#aMCatNLO 1  0  0  2  1 0.54424866D+02 0.00000000D+00  -5  5  0 0.00000000D+00 0.00000000D+00 0.00000000D+00 0.00000000D+00 0.00000000D+00
  <mgrwgt>
 0.3388779808D+00    4    2    0
 0.108842003160931D+03 0.000000000000000D+00 0.000000000000000D+00 0.108842003160931D+03
 0.108842003160931D+03 0.000000000000000D+00 0.000000000000000D+00 -.108842003160931D+03
 0.129876584893337D+03 -.261999595849109D+02 -.197130131024958D+02 -.129571036781374D+02
 0.878074214285255D+02 0.261999595849109D+02 0.197130131024958D+02 0.129571036781374D+02
 0.000000000000000D+00 0.000000000000000D+00 0.000000000000000D+00 0.000000000000000D+00
 0.158314376116663D+03 0.000000000000000D+00 0.000000000000000D+00 0.158314376116663D+03
 0.128247791981758D+03 0.000000000000000D+00 0.000000000000000D+00 -.128247791981758D+03
 0.141722275283026D+03 -.459720096477055D+02 -.466785936444423D+02 -.129571036781374D+02
 0.826621997602653D+02 0.137899889313457D+02 0.278800724224835D+01 0.129571036781374D+02
 0.621776930551302D+02 0.321820207163599D+02 0.438905864021939D+02 0.300665841349050D+02
0.102180415752D-02 0.000000000000D+00 0.000000000000D+00 0.300799053343D-02 0.000000000000D+00  5 2 -1 25 24 21 0 0.32851354D-02 0.85351876D-01 0.11672080D+05 0.11672080D+05 0.11672080D+05 0.12604368D+01  1  2  2  2  5  2       -1 0.433012931010D+00 0.100000000000D+01
-.567630978026D-04 0.000000000000D+00 -.392399701209D-05 0.300799053343D-02 0.000000000000D+00  5 2 -1 25 24 21 2 0.32851354D-02 0.85351876D-01 0.11672080D+05 0.11672080D+05 0.11672080D+05 0.12604368D+01  1  2  3  2  5  2       -1 -.382156669168D-01 0.100000000000D+01
0.706387812701D-04 0.000000000000D+00 0.000000000000D+00 0.300799053343D-02 0.000000000000D+00  5 2 -1 25 24 21 2 0.32851354D-02 0.85351876D-01 0.11672080D+05 0.11672080D+05 0.11672080D+05 0.12604368D+01  1  2 15  2  5  2       -1 0.475574491339D-01 0.100000000000D+01
-.153697694050D-03 0.000000000000D+00 0.000000000000D+00 0.300799053343D-02 0.000000000000D+00  5 2 -1 25 24 21 2 0.32851354D-02 0.85351876D-01 0.11672080D+05 0.11672080D+05 0.11672080D+05 0.12604368D+01  1  2  4  2  5  2       -1 -.103476732403D+00 0.100000000000D+01
  </mgrwgt>
  </event>
  <event>
  4     66 0.48098993E-03 0.57620567E+02 0.75467711E-02 0.11784011E+00
        2 -1    0    0  501    0 0.00000000E+00 0.00000000E+00 0.10494046E+04 0.10494046E+04 0.32000000E+00 0.0000E+00 0.9000E+01
       -1 -1    0    0    0  501 0.00000000E+00 0.00000000E+00 -.13358752E+02 0.13362584E+02 0.32000000E+00 0.0000E+00 0.9000E+01
       25  1    1    2    0    0 0.97346605E+01 0.55847475E+02 0.65471940E+03 0.66895156E+03 0.12500000E+03 0.0000E+00 0.9000E+01
       24  1    1    2    0    0 -.97346605E+01 -.55847475E+02 0.38132643E+03 0.39381565E+03 0.80419002E+02 0.0000E+00 0.9000E+01
#aMCatNLO 1  0  0  2  1 0.87630801D+02 0.00000000D+00  -5  5  0 0.00000000D+00 0.00000000D+00 0.00000000D+00 0.00000000D+00 0.00000000D+00
  <mgrwgt>
 0.5135104423D-01    7    2    0
 0.118409451196284D+03 0.000000000000000D+00 0.000000000000000D+00 0.118409451196284D+03
 0.118409451196284D+03 0.000000000000000D+00 0.000000000000000D+00 -.118409451196284D+03
 0.137744445052579D+03 0.973466048841150D+01 0.558474751899348D+02 0.116115478265316D+02
 0.990744573399895D+02 -.973466048841150D+01 -.558474751899348D+02 -.116115478265316D+02
 0.000000000000000D+00 -.000000000000000D+00 -.000000000000000D+00 -.000000000000000D+00
 0.134374980985881D+03 0.000000000000000D+00 0.000000000000000D+00 0.134374980985881D+03
 0.362714114289672D+03 0.000000000000000D+00 0.000000000000000D+00 -.362714114289672D+03
 0.167788456485374D+03 0.150007660831445D+02 0.110309179598686D+03 0.116115478265316D+02
 0.847236220940208D+02 -.656675258213844D+01 -.230851879775119D+02 -.116115478265316D+02
 0.244577016696157D+03 -.843401350100610D+01 -.872239916211745D+02 -.228339133303791D+03
0.196726126225D-03 0.000000000000D+00 0.000000000000D+00 0.279105434934D-02 0.000000000000D+00  5 2 -1 25 24 21 0 0.16144716D+00 0.20554912D-02 0.13882239D+05 0.13882239D+05 0.13882239D+05 0.12516749D+01  1  2  2  2  5  2       -1 0.342232076552D+00 0.100000000000D+01
-.109289015569D-04 0.000000000000D+00 -.755480123883D-06 0.279105434934D-02 0.000000000000D+00  5 2 -1 25 24 21 2 0.16144716D+00 0.20554912D-02 0.13882239D+05 0.13882239D+05 0.13882239D+05 0.12516749D+01  1  2  3  2  5  2       -1 -.297864181296D-01 0.100000000000D+01
0.136213727925D-04 0.000000000000D+00 0.000000000000D+00 0.279105434934D-02 0.000000000000D+00  5 2 -1 25 24 21 2 0.16144716D+00 0.20554912D-02 0.13882239D+05 0.13882239D+05 0.13882239D+05 0.12516749D+01  1  2 15  2  5  2       -1 0.371246738187D-01 0.100000000000D+01
0.443100686794D-04 0.000000000000D+00 0.000000000000D+00 0.279105434934D-02 0.000000000000D+00  5 2 -1 25 24 21 2 0.16144716D+00 0.61136094D-02 0.28720276D+05 0.28720276D+05 0.28720276D+05 0.12168905D+01  1  2 12  2  5  2       -1 0.234913874967D-01 0.100000000000D+01
-.259125919917D-03 0.000000000000D+00 -.623916692792D-04 0.279105434934D-02 0.000000000000D+00  5 2 -1 25 24 21 2 0.16144716D+00 0.71529215D-02 0.13882239D+05 0.13882239D+05 0.13882239D+05 0.12516749D+01  1  2  5  2  5  2       -1 -.113967489795D+00 0.100000000000D+01
0.548637311044D-05 0.000000000000D+00 0.000000000000D+00 0.279105434934D-02 0.000000000000D+00  5 2 21 25 24 1 2 0.16144716D+00 0.61136094D-02 0.28720276D+05 0.28720276D+05 0.28720276D+05 0.12168905D+01  1  2 12  4  5  2       -1 0.484774226898D-01 0.100000000000D+01
-.357252948734D-04 0.000000000000D+00 -.909355389324D-05 0.279105434934D-02 0.000000000000D+00  5 2 21 25 24 1 2 0.16144716D+00 0.71529215D-02 0.13882239D+05 0.13882239D+05 0.13882239D+05 0.12516749D+01  1  2  5  4  5  2       -1 -.256220608403D+00 0.100000000000D+01
  </mgrwgt>
  </event>
  <event>
  4     66 0.48098993E-03 0.15377507E+03 0.75467711E-02 0.11713108E+00
        2 -1    0    0  501    0 0.00000000E+00 0.00000000E+00 0.11193066E+03 0.11193112E+03 0.32000000E+00 0.0000E+00 0.9000E+01
       -1 -1    0    0    0  501 0.00000000E+00 0.00000000E+00 -.21520066E+03 0.21520090E+03 0.32000000E+00 0.0000E+00 0.9000E+01
       25  1    1    2    0    0 -.11305383E+03 -.64152886E+01 -.78569705E+02 0.18606591E+03 0.12500000E+03 0.0000E+00 0.9000E+01
       24  1    1    2    0    0 0.11305383E+03 0.64152886E+01 -.24700291E+02 0.14106610E+03 0.80419002E+02 0.0000E+00 0.9000E+01
#aMCatNLO 1  0  0  1  1 0.42459672D+02 0.00000000D+00  -5  5  0 0.00000000D+00 0.00000000D+00 0.00000000D+00 0.00000000D+00 0.00000000D+00
  <mgrwgt>
 0.3305786608D+00    4    2    0
 0.155202016632618D+03 0.000000000000000D+00 0.000000000000000D+00 0.155202016632618D+03
 0.155202016632618D+03 0.000000000000000D+00 0.000000000000000D+00 -.155202016632618D+03
 0.169953410081498D+03 -.113053833741680D+03 -.641528860953247D+01 -.209006302942043D+02
 0.140450623183738D+03 0.113053833741680D+03 0.641528860953247D+01 0.209006302942043D+02
 0.000000000000000D+00 0.000000000000000D+00 0.000000000000000D+00 -.000000000000000D+00
 0.163020360209248D+03 0.000000000000000D+00 0.000000000000000D+00 0.163020360209248D+03
 0.227367609193978D+03 0.000000000000000D+00 0.000000000000000D+00 -.227367609193978D+03
 0.186440451541938D+03 -.135988246586821D+03 -.143318671047652D+02 -.209006302942043D+02
 0.126854118529124D+03 0.958524227129337D+02 0.477647146577970D+00 0.209006302942043D+02
 0.770933993321631D+02 0.401358238738872D+02 0.138542199581872D+02 -.643472489847300D+02
0.119181422774D-02 0.000000000000D+00 0.000000000000D+00 0.233048347784D-02 0.000000000000D+00  5 2 -1 25 24 21 0 0.17220155D-01 0.33107847D-01 0.23646772D+05 0.23646772D+05 0.23646772D+05 0.12258973D+01  1  2  2  1  5  1        2 0.376088480426D+00 0.100000000000D+01
-.662050332906D-04 0.000000000000D+00 -.457688044643D-05 0.233048347784D-02 0.000000000000D+00  5 2 -1 25 24 21 2 0.17220155D-01 0.33107847D-01 0.23646772D+05 0.23646772D+05 0.23646772D+05 0.12258973D+01  1  2  3  1  5  1        2 -.313964566608D-01 0.100000000000D+01
0.821455797622D-04 0.000000000000D+00 0.000000000000D+00 0.233048347784D-02 0.000000000000D+00  5 2 -1 25 24 21 2 0.17220155D-01 0.33107847D-01 0.23646772D+05 0.23646772D+05 0.23646772D+05 0.12258973D+01  1  2 15  1  5  1        2 0.389559525415D-01 0.100000000000D+01
-.111906124903D-03 0.000000000000D+00 0.000000000000D+00 0.233048347784D-02 0.000000000000D+00  5 2 -1 25 24 21 2 0.17220155D-01 0.33107847D-01 0.23646772D+05 0.23646772D+05 0.23646772D+05 0.12258973D+01  1  2  4  1  5  1        2 -.530693155184D-01 0.100000000000D+01
  </mgrwgt>
  </event>
  <event>
  4     66 0.48098993E-03 0.12666107E+03 0.75467711E-02 0.11581121E+00
        2 -1    0    0  501    0 0.00000000E+00 0.00000000E+00 0.24237253E+04 0.24237253E+04 0.32000000E+00 0.0000E+00 0.9000E+01
       -1 -1    0    0    0  501 0.00000000E+00 0.00000000E+00 -.72313964E+01 0.72384732E+01 0.32000000E+00 0.0000E+00 0.9000E+01
       25  1    1    2    0    0 0.68290185E+02 -.25692188E+02 0.17172852E+04 0.17233738E+04 0.12500000E+03 0.0000E+00 0.9000E+01
       24  1    1    2    0    0 -.68290185E+02 0.25692188E+02 0.69920868E+03 0.70759001E+03 0.80419002E+02 0.0000E+00 0.9000E+01
#aMCatNLO 1  0  0  2  1 0.10602157D+03 0.00000000D+00  -5  5  0 0.00000000D+00 0.00000000D+00 0.00000000D+00 0.00000000D+00 0.00000000D+00
  <mgrwgt>
 0.4043015875D+00    3    2    0
 0.132421848209862D+03 0.000000000000000D+00 0.000000000000000D+00 0.132421848209862D+03
 0.132421848209862D+03 0.000000000000000D+00 0.000000000000000D+00 -.132421848209862D+03
 0.149710883534146D+03 0.682901845694600D+02 -.256921875499587D+02 0.382715408488031D+02
 0.115132812885577D+03 -.682901845694600D+02 0.256921875499587D+02 -.382715408488031D+02
 0.000000000000000D+00 0.000000000000000D+00 -.000000000000000D+00 0.000000000000000D+00
 0.198333485186482D+03 0.000000000000000D+00 0.000000000000000D+00 0.198333485186482D+03
 0.193094095175119D+03 0.000000000000000D+00 0.000000000000000D+00 -.193094095175119D+03
 0.132159066246312D+03 0.160006636921723D+02 -.109675299664775D+02 0.382715408488031D+02
 0.153117564985187D+03 -.118053147045377D+03 0.397053697421821D+02 -.382715408488031D+02
 0.106150949130102D+03 0.102052483353205D+03 -.287378397757046D+02 0.523939001136321D+01
0.493649929292D-03 0.000000000000D+00 0.000000000000D+00 0.239637517169D-02 0.000000000000D+00  5 2 -1 25 24 21 0 0.37288136D+00 0.11130685D-02 0.16043027D+05 0.16043027D+05 0.16043027D+05 0.12445079D+01  1  2  2  2  5  2       -1 0.395964739881D+00 0.100000000000D+01
-.273590307076D-04 0.000000000000D+00 -.189574570949D-05 0.239637517169D-02 0.000000000000D+00  5 2 -1 25 24 21 2 0.37288136D+00 0.11130685D-02 0.16043027D+05 0.16043027D+05 0.16043027D+05 0.12445079D+01  1  2  3  2  5  2       -1 -.339886165332D-01 0.100000000000D+01
0.340697501499D-04 0.000000000000D+00 0.000000000000D+00 0.239637517169D-02 0.000000000000D+00  5 2 -1 25 24 21 2 0.37288136D+00 0.11130685D-02 0.16043027D+05 0.16043027D+05 0.16043027D+05 0.12445079D+01  1  2 15  2  5  2       -1 0.423254641438D-01 0.100000000000D+01
  </mgrwgt>
  </event>
  <event>
  4     66 0.48098993E-03 0.71554303E+02 0.75467711E-02 0.11823188E+00
        2 -1    0    0  501    0 0.00000000E+00 0.00000000E+00 0.45058979E+03 0.45058990E+03 0.32000000E+00 0.0000E+00 0.9000E+01
       -1 -1    0    0    0  501 0.00000000E+00 0.00000000E+00 -.38727253E+02 0.38728575E+02 0.32000000E+00 0.0000E+00 0.9000E+01
       25  1    1    2    0    0 0.21226300E+02 0.54481727E+02 0.12678280E+03 0.18739715E+03 0.12500000E+03 0.0000E+00 0.9000E+01
       24  1    1    2    0    0 -.21226300E+02 -.54481727E+02 0.28507974E+03 0.30192133E+03 0.80419002E+02 0.0000E+00 0.9000E+01
#aMCatNLO 1  0  0  2  1 0.80404160D+02 0.00000000D+00  -5  5  0 0.00000000D+00 0.00000000D+00 0.00000000D+00 0.00000000D+00 0.00000000D+00
  <mgrwgt>
 0.2767061651D+00    9    2    0
 0.132100173681668D+03 0.000000000000000D+00 0.000000000000000D+00 0.132100173681668D+03
 0.132100173681668D+03 0.000000000000000D+00 0.000000000000000D+00 -.132100173681668D+03
 0.149431309194967D+03 0.212262999422991D+02 0.544817265692863D+02 -.573227862940293D+02
 0.114769038168368D+03 -.212262999422991D+02 -.544817265692863D+02 0.573227862940293D+02
 0.000000000000000D+00 -.000000000000000D+00 0.000000000000000D+00 -.000000000000000D+00
 0.161173622160540D+03 0.000000000000000D+00 0.000000000000000D+00 0.161173622160540D+03
 0.208073422084117D+03 0.000000000000000D+00 0.000000000000000D+00 -.208073422084117D+03
 0.145113747978114D+03 0.432623338710241D+02 0.165972434993525D+02 -.573227862940293D+02
 0.131050428792276D+03 -.283561239766718D+01 -.860991080446722D+02 0.573227862940293D+02
 0.930828674742668D+02 -.404267214733569D+02 0.695018645453198D+02 -.468997999235771D+02
0.283843536394D-03 0.000000000000D+00 0.000000000000D+00 0.215897035641D-02 0.000000000000D+00  5 2 -1 25 24 21 0 0.69321617D-01 0.59581493D-02 0.14092995D+05 0.14092995D+05 0.14092995D+05 0.12509225D+01  1  2  2  2  5  2       -1 0.287499319988D+00 0.100000000000D+01
-.155502145849D-04 0.000000000000D+00 -.109003391747D-05 0.215897035641D-02 0.000000000000D+00  5 2 -1 25 24 21 2 0.69321617D-01 0.59581493D-02 0.14092995D+05 0.14092995D+05 0.14092995D+05 0.12509225D+01  1  2  3  2  5  2       -1 -.246464844723D-01 0.100000000000D+01
0.196467171480D-04 0.000000000000D+00 0.000000000000D+00 0.215897035641D-02 0.000000000000D+00  5 2 -1 25 24 21 2 0.69321617D-01 0.59581493D-02 0.14092995D+05 0.14092995D+05 0.14092995D+05 0.12509225D+01  1  2 15  2  5  2       -1 0.311392814855D-01 0.100000000000D+01
0.336224380529D-04 0.000000000000D+00 0.000000000000D+00 0.215897035641D-02 0.000000000000D+00  5 2 -1 25 24 21 2 0.69321617D-01 0.97347313D-02 0.27483817D+05 0.27483817D+05 0.27483817D+05 0.12189117D+01  1  2 12  2  5  2       -1 0.246295002361D-01 0.100000000000D+01
-.132617714787D-03 0.000000000000D+00 0.000000000000D+00 0.215897035641D-02 0.000000000000D+00  5 2 -1 25 24 21 2 0.69321617D-01 0.59581493D-02 0.14092995D+05 0.14092995D+05 0.14092995D+05 0.12509225D+01  1  2  4  2  5  2       -1 -.210193912785D+00 0.100000000000D+01
-.122458444031D-03 0.000000000000D+00 -.865236606534D-04 0.215897035641D-02 0.000000000000D+00  5 2 -1 25 24 21 2 0.69321617D-01 0.11409121D-01 0.14092995D+05 0.14092995D+05 0.14092995D+05 0.12509225D+01  1  2  5  2  5  2       -1 -.729435193936D-01 0.100000000000D+01
0.159358973150D-03 0.000000000000D+00 0.710053224896D-04 0.215897035641D-02 0.000000000000D+00  5 2 -1 25 24 21 2 0.69321617D-01 0.59581493D-02 0.14092995D+05 0.14092995D+05 0.14092995D+05 0.12509225D+01  1  2  6  2  5  2       -1 0.252577765780D+00 0.100000000000D+01
0.186856432002D-05 0.000000000000D+00 0.000000000000D+00 0.215897035641D-02 0.000000000000D+00  5 2 21 25 24 1 2 0.69321617D-01 0.97347313D-02 0.27483817D+05 0.27483817D+05 0.27483817D+05 0.12189117D+01  1  2 12  4  5  2       -1 0.206351059353D-01 0.100000000000D+01
-.365283559947D-05 0.000000000000D+00 -.610213922703D-05 0.215897035641D-02 0.000000000000D+00  5 2 21 25 24 1 2 0.69321617D-01 0.11409121D-01 0.14092995D+05 0.14092995D+05 0.14092995D+05 0.12509225D+01  1  2  5  4  5  2       -1 -.319908916575D-01 0.100000000000D+01
  </mgrwgt>
  </event>
  <event>
  4     66 0.48098993E-03 0.63323006E+02 0.75467711E-02 0.12251456E+00
        2 -1    0    0  501    0 0.00000000E+00 0.00000000E+00 0.17168436E+03 0.17168466E+03 0.32000000E+00 0.0000E+00 0.9000E+01
       -1 -1    0    0    0  501 0.00000000E+00 0.00000000E+00 -.16715337E+03 0.16715367E+03 0.32000000E+00 0.0000E+00 0.9000E+01
       25  1    1    2    0    0 0.91150892E+01 0.62325346E+02 -.11532137E+03 0.18136028E+03 0.12500000E+03 0.0000E+00 0.9000E+01
       24  1    1    2    0    0 -.91150892E+01 -.62325346E+02 0.11985236E+03 0.15747805E+03 0.80419002E+02 0.0000E+00 0.9000E+01
#aMCatNLO 1  0  0  2  1 0.19554692D+02 0.00000000D+00  -5  5  0 0.00000000D+00 0.00000000D+00 0.00000000D+00 0.00000000D+00 0.00000000D+00
  <mgrwgt>
 0.1782423427D+00    9    2    0
 0.169404018235900D+03 0.000000000000000D+00 0.000000000000000D+00 0.169404018235900D+03
 0.169404018235900D+03 0.000000000000000D+00 0.000000000000000D+00 -.169404018235900D+03
 0.182918727244863D+03 0.911508924551132D+01 0.623253458664002D+02 -.117757068524826D+03
 0.155889309226936D+03 -.911508924551132D+01 -.623253458664002D+02 0.117757068524826D+03
 0.000000000000000D+00 -.000000000000000D+00 0.000000000000000D+00 -.000000000000000D+00
 0.170337789045548D+03 0.000000000000000D+00 0.000000000000000D+00 0.170337789045548D+03
 0.316340053728215D+03 0.000000000000000D+00 0.000000000000000D+00 -.316340053728215D+03
 0.179643120676681D+03 0.942472309419354D+01 0.518757960275655D+02 -.117757068524826D+03
 0.159728757288482D+03 -.884554616697440D+01 -.714219089355602D+02 0.117757068524826D+03
 0.147305964808601D+03 -.579176927219141D+00 0.195461129079947D+02 -.146002264682667D+03
0.646489993101D-03 0.000000000000D+00 0.000000000000D+00 0.125446319495D-02 0.000000000000D+00  5 2 -1 25 24 21 0 0.26413025D-01 0.25715949D-01 0.14656002D+05 0.14656002D+05 0.14656002D+05 0.12489728D+01  1  2  2  2  5  2       -1 0.190491112213D+00 0.100000000000D+01
-.309865559981D-04 0.000000000000D+00 -.248269179823D-05 0.125446319495D-02 0.000000000000D+00  5 2 -1 25 24 21 2 0.26413025D-01 0.25715949D-01 0.14656002D+05 0.14656002D+05 0.14656002D+05 0.12489728D+01  1  2  3  2  5  2       -1 -.142426955774D-01 0.100000000000D+01
0.443006376327D-04 0.000000000000D+00 0.000000000000D+00 0.125446319495D-02 0.000000000000D+00  5 2 -1 25 24 21 2 0.26413025D-01 0.25715949D-01 0.14656002D+05 0.14656002D+05 0.14656002D+05 0.12489728D+01  1  2 15  2  5  2       -1 0.203623950892D-01 0.100000000000D+01
0.118978994177D-01 0.000000000000D+00 0.000000000000D+00 0.125446319495D-02 0.000000000000D+00  5 2 -1 25 24 21 2 0.26413025D-01 0.48033632D-01 0.17310483D+05 0.17310483D+05 0.17310483D+05 0.12407914D+01  1  2 12  2  5  2       -1 0.184996158696D+01 0.100000000000D+01
-.100079025521D-01 0.000000000000D+00 0.000000000000D+00 0.125446319495D-02 0.000000000000D+00  5 2 -1 25 24 21 2 0.26413025D-01 0.25715949D-01 0.14656002D+05 0.14656002D+05 0.14656002D+05 0.12489728D+01  1  2  4  2  5  2       -1 -.460004362622D+01 0.100000000000D+01
-.118247472111D-01 0.000000000000D+00 -.195642313312D-03 0.125446319495D-02 0.000000000000D+00  5 2 -1 25 24 21 2 0.26413025D-01 0.48121988D-01 0.14656002D+05 0.14656002D+05 0.14656002D+05 0.12489728D+01  1  2  5  2  5  2       -1 -.185375377573D+01 0.100000000000D+01
0.996003799502D-02 0.000000000000D+00 0.162650294282D-03 0.125446319495D-02 0.000000000000D+00  5 2 -1 25 24 21 2 0.26413025D-01 0.25715949D-01 0.14656002D+05 0.14656002D+05 0.14656002D+05 0.12489728D+01  1  2  6  2  5  2       -1 0.457804310718D+01 0.100000000000D+01
0.809639217010D-03 0.000000000000D+00 0.000000000000D+00 0.125446319495D-02 0.000000000000D+00  5 2 21 25 24 1 2 0.26413025D-01 0.48033632D-01 0.17310483D+05 0.17310483D+05 0.17310483D+05 0.12407914D+01  1  2 12  4  5  2       -1 0.129793269663D+01 0.100000000000D+01
-.795831044906D-03 0.000000000000D+00 -.133486828201D-04 0.125446319495D-02 0.000000000000D+00  5 2 21 25 24 1 2 0.26413025D-01 0.48121988D-01 0.14656002D+05 0.14656002D+05 0.14656002D+05 0.12489728D+01  1  2  5  4  5  2       -1 -.129050845787D+01 0.100000000000D+01
  </mgrwgt>
  </event>
  <event>
  5     66 0.48098993E-03 0.11274532E+03 0.75467711E-02 0.11987614E+00
        2 -1    0    0  501    0 0.00000000E+00 0.00000000E+00 0.51902812E+03 0.51902822E+03 0.32000000E+00 0.0000E+00 0.9000E+01
       -1 -1    0    0    0  502 0.00000000E+00 0.00000000E+00 -.53637002E+02 0.53637956E+02 0.32000000E+00 0.0000E+00 0.9000E+01
       25  1    1    2    0    0 0.68265048E+02 0.54198421E+02 0.32889674E+03 0.36248538E+03 0.12500000E+03 0.0000E+00 0.9000E+01
       24  1    1    2    0    0 -.14459548E+02 -.13200223E+02 0.10969280E+03 0.13741562E+03 0.80419002E+02 0.0000E+00 0.9000E+01
       21  1    1    2  501  502 -.53805500E+02 -.40998199E+02 0.26801572E+02 0.72765176E+02 0.75000000E+00 0.0000E+00 0.9000E+01
#aMCatNLO 2  0  0  2  1 0.67645281D+02 0.00000000D+00  -5  5  0 0.00000000D+00 0.00000000D+00 0.00000000D+00 0.00000000D+00 0.00000000D+00
  <mgrwgt>
 0.6648162248D-01    2    2    0
 0.115069907692355D+03 0.000000000000000D+00 0.000000000000000D+00 0.115069907692355D+03
 0.115069907692355D+03 0.000000000000000D+00 0.000000000000000D+00 -.115069907692355D+03
 0.134966039159918D+03 0.351780400794055D+02 0.289871004072871D+02 0.226513847847327D+02
 0.951737762247929D+02 -.351780400794055D+02 -.289871004072871D+02 -.226513847847327D+02
 0.000000000000000D+00 -.000000000000000D+00 -.000000000000000D+00 -.000000000000000D+00
 0.132660917791964D+03 0.000000000000000D+00 0.000000000000000D+00 0.132660917791964D+03
 0.209849878184727D+03 0.000000000000000D+00 0.000000000000000D+00 -.209849878184727D+03
 0.154063853113686D+03 0.682650478278886D+02 0.541984210897831D+02 0.226513847847327D+02
 0.858115702445926D+02 -.144595479058492D+02 -.132002225422358D+02 -.226513847847327D+02
 0.102635372618412D+03 -.538054999220394D+02 -.409981985475473D+02 -.771889603927636D+02
-.525637466712D-04 0.000000000000D+00 0.000000000000D+00 0.279017052311D-02 0.000000000000D+00  5 2 -1 25 24 21 2 0.69261606D-01 0.83495038D-02 0.22922393D+05 0.22922393D+05 0.22922393D+05 0.12273582D+01  1  2 13  2  5  2       -1 -.491485095411D-01 0.100000000000D+01
0.141999562133D-03 0.000000000000D+00 0.000000000000D+00 0.279017052311D-02 0.574892810089D-05  5 2 -1 25 24 21 2 0.79849792D-01 0.82518480D-02 0.22922393D+05 0.22922393D+05 0.22922393D+05 0.12273582D+01  1  2  1  2  5  2       -1 0.115630132024D+00 0.100000000000D+01
  </mgrwgt>
  </event>
  <event>
  5     66 0.48098993E-03 0.13501465E+03 0.75467711E-02 0.11780957E+00
        2 -1    0    0  501    0 0.00000000E+00 0.00000000E+00 0.27569688E+02 0.27571545E+02 0.32000000E+00 0.0000E+00 0.9000E+01
       21 -1    0    0  502  501 0.00000000E+00 0.00000000E+00 -.13618480E+04 0.13618482E+04 0.75000000E+00 0.0000E+00 0.9000E+01
       25  1    1    2    0    0 -.27270161E+02 -.61160805E+02 -.89635819E+03 0.90750610E+03 0.12500000E+03 0.0000E+00 0.9000E+01
       24  1    1    2    0    0 -.12375337E+02 0.10872382E+03 -.25669893E+03 0.29040588E+03 0.80419002E+02 0.0000E+00 0.9000E+01
        1  1    1    2  502    0 0.39645498E+02 -.47563014E+02 -.18122114E+03 0.19150773E+03 0.32000000E+00 0.0000E+00 0.9000E+01
#aMCatNLO 2  0  0  2  1 0.61919349D+02 0.00000000D+00  -5  5  0 0.00000000D+00 0.00000000D+00 0.00000000D+00 0.00000000D+00 0.00000000D+00
  <mgrwgt>
 0.3524268249D-01    1    2    0
 0.159388177938274D+03 0.000000000000000D+00 0.000000000000000D+00 0.159388177938274D+03
 0.159388177938274D+03 0.000000000000000D+00 0.000000000000000D+00 -.159388177938274D+03
 0.173752141696577D+03 -.640424301754248D+01 -.861938098706681D+02 -.842283773766228D+02
 0.145024214179970D+03 0.640424301754248D+01 0.861938098706681D+02 0.842283773766228D+02
 0.000000000000000D+00 0.000000000000000D+00 -.000000000000000D+00 0.000000000000000D+00
 0.199602481051558D+03 0.000000000000000D+00 0.000000000000000D+00 0.199602481051558D+03
 0.188108876226243D+03 0.000000000000000D+00 0.000000000000000D+00 -.188108876226243D+03
 0.164935518564488D+03 -.272701613448935D+02 -.611608046780065D+02 -.842283773766228D+02
 0.159798789509730D+03 -.123753366529552D+02 0.108723818281146D+03 0.842283773766228D+02
 0.629770492035820D+02 0.396454979978487D+02 -.475630136031398D+02 0.114936048253148D+02
0.858831706182D-04 0.000000000000D+00 0.000000000000D+00 0.173754721499D-02 0.128861002417D-06  5 2 21 25 24 1 2 0.42416402D-02 0.20951479D+00 0.28819330D+05 0.28819330D+05 0.28819330D+05 0.12167328D+01  1  2  1  4  5  2       -1 0.352426824919D-01 0.100000000000D+01
  </mgrwgt>
  </event>
  <event>
  5     66 -.48098993E-03 0.14951736E+03 0.75467711E-02 0.11722743E+00
        2 -1    0    0  502    0 0.00000000E+00 0.00000000E+00 0.66102919E+02 0.66103693E+02 0.32000000E+00 0.0000E+00 0.9000E+01
       -1 -1    0    0    0  501 0.00000000E+00 0.00000000E+00 -.50014280E+03 0.50014290E+03 0.32000000E+00 0.0000E+00 0.9000E+01
       25  1    1    2    0    0 0.10153848E+03 -.89328439E+02 -.30119977E+03 0.35303815E+03 0.12500000E+03 0.0000E+00 0.9000E+01
       24  1    1    2    0    0 -.65654765E+02 0.56894430E+02 -.93342693E+02 0.15075675E+03 0.80419002E+02 0.0000E+00 0.9000E+01
       21  1    1    2  502  501 -.35883710E+02 0.32434009E+02 -.39497417E+02 0.62451694E+02 0.75000000E+00 0.0000E+00 0.9000E+01
#aMCatNLO 2  0  0  1  2 0.48369470D+02 0.00000000D+00  -5  5  0 0.00000000D+00 0.00000000D+00 0.00000000D+00 0.00000000D+00 0.00000000D+00
  <mgrwgt>
 -.2878808119D-01    2    2    0
 0.154762674036671D+03 0.000000000000000D+00 0.000000000000000D+00 0.154762674036671D+03
 0.154762674036671D+03 0.000000000000000D+00 0.000000000000000D+00 -.154762674036671D+03
 0.169555943962111D+03 0.809143825937360D+02 -.706870556651554D+02 -.397545089738051D+02
 0.139969404111231D+03 -.809143825937360D+02 0.706870556651554D+02 0.397545089738051D+02
 0.000000000000000D+00 -.000000000000000D+00 0.000000000000000D+00 0.000000000000000D+00
 0.189548772240192D+03 0.000000000000000D+00 0.000000000000000D+00 0.189548772240192D+03
 0.174414879466323D+03 0.000000000000000D+00 0.000000000000000D+00 -.174414879466323D+03
 0.188401308359608D+03 0.101538475106991D+03 -.893284393729722D+02 -.397545089738051D+02
 0.124880588175573D+03 -.656547651181034D+02 0.568944301513321D+02 0.397545089738051D+02
 0.506817551713339D+02 -.358837099888878D+02 0.324340092216401D+02 0.151338927738699D+02
-.953602248699D-03 0.000000000000D+00 0.000000000000D+00 0.222921777270D-02 0.000000000000D+00  5 2 -1 25 24 21 2 0.10601129D-01 0.68274265D-01 0.30784912D+05 0.30784912D+05 0.30784912D+05 0.12137229D+01  1  2 13  1  5  1        2 -.212099857476D+00 0.100000000000D+01
0.995022795156D-03 0.000000000000D+00 0.000000000000D+00 0.222921777270D-02 0.758668919356D-05  5 2 -1 25 24 21 2 0.10169590D-01 0.76943926D-01 0.30784912D+05 0.30784912D+05 0.30784912D+05 0.12137229D+01  1  2  1  1  5  1        2 0.183311776285D+00 0.100000000000D+01
  </mgrwgt>
  </event>
  <event>
  4     66 0.48098993E-03 0.84638081E+02 0.75467711E-02 0.11841020E+00
        2 -1    0    0  501    0 0.00000000E+00 0.00000000E+00 0.17669986E+04 0.17669986E+04 0.32000000E+00 0.0000E+00 0.9000E+01
       -1 -1    0    0    0  501 0.00000000E+00 0.00000000E+00 -.89053822E+01 0.89111297E+01 0.32000000E+00 0.0000E+00 0.9000E+01
       25  1    1    2    0    0 0.21974440E+02 -.59681472E+02 0.78499623E+03 0.79742639E+03 0.12500000E+03 0.0000E+00 0.9000E+01
       24  1    1    2    0    0 -.21974440E+02 0.59681472E+02 0.97309696E+03 0.97848335E+03 0.80419002E+02 0.0000E+00 0.9000E+01
#aMCatNLO 1  0  0  1  2 0.74236379D+02 0.00000000D+00  -5  5  0 0.00000000D+00 0.00000000D+00 0.00000000D+00 0.00000000D+00 0.00000000D+00
  <mgrwgt>
 0.4017023893D+00    9    2    0
 0.125462851011522D+03 0.000000000000000D+00 0.000000000000000D+00 0.125462851011522D+03
 0.125462851011522D+03 0.000000000000000D+00 0.000000000000000D+00 -.125462851011522D+03
 0.143710850263485D+03 0.219744397519182D+02 -.596814721112430D+02 -.313536978310059D+02
 0.107214851759559D+03 -.219744397519182D+02 0.596814721112430D+02 0.313536978310059D+02
 0.000000000000000D+00 0.000000000000000D+00 -.000000000000000D+00 0.000000000000000D+00
 0.205644344244534D+03 0.000000000000000D+00 0.000000000000000D+00 0.205644344244534D+03
 0.149256187892992D+03 0.000000000000000D+00 0.000000000000000D+00 -.149256187892992D+03
 0.135736555560626D+03 -.136019416953078D+02 -.403899161908309D+02 -.313536978310059D+02
 0.125940244910550D+03 -.516573585503184D+02 0.757772543292807D+02 0.313536978310059D+02
 0.932237316663501D+02 0.652593002456262D+02 -.353873381384498D+02 0.563881563515415D+02
0.262698348503D-03 0.000000000000D+00 0.000000000000D+00 0.254109877498D-02 0.000000000000D+00  5 2 -1 25 24 21 0 0.27184638D+00 0.13705031D-02 0.14735144D+05 0.14735144D+05 0.14735144D+05 0.12487055D+01  1  2  2  1  5  1        2 0.340260243831D+00 0.100000000000D+01
-.145750119674D-04 0.000000000000D+00 -.100883082832D-05 0.254109877498D-02 0.000000000000D+00  5 2 -1 25 24 21 2 0.27184638D+00 0.13705031D-02 0.14735144D+05 0.14735144D+05 0.14735144D+05 0.12487055D+01  1  2  3  1  5  1        2 -.294362744744D-01 0.100000000000D+01
0.181902888450D-04 0.000000000000D+00 0.000000000000D+00 0.254109877498D-02 0.000000000000D+00  5 2 -1 25 24 21 2 0.27184638D+00 0.13705031D-02 0.14735144D+05 0.14735144D+05 0.14735144D+05 0.12487055D+01  1  2 15  1  5  1        2 0.367378315989D-01 0.100000000000D+01
0.604673815269D-04 0.000000000000D+00 0.000000000000D+00 0.254109877498D-02 0.000000000000D+00  5 2 -1 25 24 21 2 0.45779722D+00 0.13705031D-02 0.26941459D+05 0.26941459D+05 0.26941459D+05 0.12198305D+01  1  2 12  1  5  1        2 0.265682756433D-01 0.100000000000D+01
-.154701018334D-03 0.000000000000D+00 0.000000000000D+00 0.254109877498D-02 0.000000000000D+00  5 2 -1 25 24 21 2 0.27184638D+00 0.13705031D-02 0.14735144D+05 0.14735144D+05 0.14735144D+05 0.12487055D+01  1  2  4  1  5  1        2 -.312440336059D+00 0.100000000000D+01
-.183210512620D-03 0.000000000000D+00 -.807900091371D-04 0.254109877498D-02 0.000000000000D+00  5 2 -1 25 24 21 2 0.46929620D+00 0.13705031D-02 0.14735144D+05 0.14735144D+05 0.14735144D+05 0.12487055D+01  1  2  5  1  5  1        2 -.768174344678D-01 0.100000000000D+01
0.206480405716D-03 0.000000000000D+00 0.700817719051D-04 0.254109877498D-02 0.000000000000D+00  5 2 -1 25 24 21 2 0.27184638D+00 0.13705031D-02 0.14735144D+05 0.14735144D+05 0.14735144D+05 0.12487055D+01  1  2  6  1  5  1        2 0.417016048414D+00 0.100000000000D+01
0.352451413954D-05 0.000000000000D+00 0.000000000000D+00 0.254109877498D-02 0.000000000000D+00  5 21 -1 25 24 -2 2 0.45779722D+00 0.13705031D-02 0.26941459D+05 0.26941459D+05 0.26941459D+05 0.12198305D+01  1  2 12  3  5  1        2 0.208110367280D-03 0.100000000000D+01
-.709007210182D-05 0.000000000000D+00 -.489202826781D-05 0.254109877498D-02 0.000000000000D+00  5 21 -1 25 24 -2 2 0.46929620D+00 0.13705031D-02 0.14735144D+05 0.14735144D+05 0.14735144D+05 0.12487055D+01  1  2  5  3  5  1        2 -.394075522090D-03 0.100000000000D+01
  </mgrwgt>
  </event>
  <event>
  4     66 0.48098993E-03 0.15187871E+03 0.75467711E-02 0.11368119E+00
        2 -1    0    0  501    0 0.00000000E+00 0.00000000E+00 0.36821979E+03 0.36821993E+03 0.32000000E+00 0.0000E+00 0.9000E+01
       -1 -1    0    0    0  501 0.00000000E+00 0.00000000E+00 -.65125970E+02 0.65126756E+02 0.32000000E+00 0.0000E+00 0.9000E+01
       25  1    1    2    0    0 0.10523027E+03 0.34276172E+02 0.20810844E+03 0.26680028E+03 0.12500000E+03 0.0000E+00 0.9000E+01
       24  1    1    2    0    0 -.10523027E+03 -.34276172E+02 0.94985384E+02 0.16654641E+03 0.80419002E+02 0.0000E+00 0.9000E+01
#aMCatNLO 1  0  0  2  2 0.10937143D+03 0.00000000D+00  -5  5  0 0.00000000D+00 0.00000000D+00 0.00000000D+00 0.00000000D+00 0.00000000D+00
  <mgrwgt>
 0.4696588911D+00    6    2    0
 0.154857584203652D+03 0.000000000000000D+00 0.000000000000000D+00 0.154857584203652D+03
 0.154857584203652D+03 0.000000000000000D+00 0.000000000000000D+00 -.154857584203652D+03
 0.169641787529441D+03 0.105230274977105D+03 0.342761724664095D+02 0.300843697869819D+02
 0.140073380877862D+03 -.105230274977105D+03 -.342761724664095D+02 -.300843697869819D+02
 0.000000000000000D+00 0.000000000000000D+00 0.000000000000000D+00 -.000000000000000D+00
 0.210450865868963D+03 0.000000000000000D+00 0.000000000000000D+00 0.210450865868963D+03
 0.228930115233122D+03 0.000000000000000D+00 0.000000000000000D+00 -.228930115233122D+03
 0.150678138809869D+03 0.774760152234312D+02 -.130881348871759D+02 0.300843697869819D+02
 0.177781286897124D+03 -.132770931327031D+03 -.812759528120091D+02 -.300843697869819D+02
 0.110921555395092D+03 0.552949161036001D+02 0.943640876991850D+02 -.184792493641596D+02
0.531797674073D-03 0.000000000000D+00 0.000000000000D+00 0.229015680688D-02 0.000000000000D+00  5 2 -1 25 24 21 0 0.56649269D-01 0.10019451D-01 0.23067144D+05 0.23067144D+05 0.23067144D+05 0.12270621D+01  1  2  2  2  5  2       -1 0.310435220395D+00 0.100000000000D+01
-.295307628559D-04 0.000000000000D+00 -.204224309398D-05 0.229015680688D-02 0.000000000000D+00  5 2 -1 25 24 21 2 0.56649269D-01 0.10019451D-01 0.23067144D+05 0.23067144D+05 0.23067144D+05 0.12270621D+01  1  2  3  2  5  2       -1 -.259556752688D-01 0.100000000000D+01
0.366385532126D-04 0.000000000000D+00 0.000000000000D+00 0.229015680688D-02 0.000000000000D+00  5 2 -1 25 24 21 2 0.56649269D-01 0.10019451D-01 0.23067144D+05 0.23067144D+05 0.23067144D+05 0.12270621D+01  1  2 15  2  5  2       -1 0.322029740358D-01 0.100000000000D+01
-.145019250123D-03 0.000000000000D+00 -.158445864070D-03 0.229015680688D-02 0.000000000000D+00  5 2 -1 25 24 21 2 0.56649269D-01 0.19977466D-01 0.23067144D+05 0.23067144D+05 0.23067144D+05 0.12270621D+01  1  2  5  2  5  2       -1 -.432408550846D-01 0.100000000000D+01
0.229072829145D-03 0.000000000000D+00 0.126990051595D-03 0.229015680688D-02 0.000000000000D+00  5 2 -1 25 24 21 2 0.56649269D-01 0.10019451D-01 0.23067144D+05 0.23067144D+05 0.23067144D+05 0.12270621D+01  1  2  6  2  5  2       -1 0.201340547659D+00 0.100000000000D+01
-.134660932425D-05 0.000000000000D+00 -.118324293018D-04 0.229015680688D-02 0.000000000000D+00  5 2 21 25 24 1 2 0.56649269D-01 0.19977466D-01 0.23067144D+05 0.23067144D+05 0.23067144D+05 0.12270621D+01  1  2  5  4  5  2       -1 -.512332060932D-02 0.100000000000D+01
  </mgrwgt>
  </event>
  <event>
  4     66 0.48098993E-03 0.17764989E+03 0.75467711E-02 0.10712921E+00
        2 -1    0    0  501    0 0.00000000E+00 0.00000000E+00 0.17520313E+04 0.17520313E+04 0.32000000E+00 0.0000E+00 0.9000E+01
       -1 -1    0    0    0  501 0.00000000E+00 0.00000000E+00 -.46840032E+02 0.46841125E+02 0.32000000E+00 0.0000E+00 0.9000E+01
       25  1    1    2    0    0 0.18470936E+03 -.19226533E+03 0.87423055E+03 0.92248987E+03 0.12500000E+03 0.0000E+00 0.9000E+01
       24  1    1    2    0    0 -.18470936E+03 0.19226533E+03 0.83096071E+03 0.87638257E+03 0.80419002E+02 0.0000E+00 0.9000E+01
#aMCatNLO 1  0  0  2  1 0.80700596D+02 0.00000000D+00  -5  5  0 0.00000000D+00 0.00000000D+00 0.00000000D+00 0.00000000D+00 0.00000000D+00
  <mgrwgt>
 0.4601200435D+00    9    2    0
 0.286472008241818D+03 0.000000000000000D+00 0.000000000000000D+00 0.286472008241818D+03
 0.286472008241818D+03 0.000000000000000D+00 0.000000000000000D+00 -.286472008241818D+03
 0.294463874621568D+03 0.184709357472021D+03 -.192265331305825D+03 -.684906768142481D+00
 0.278480141862067D+03 -.184709357472021D+03 0.192265331305825D+03 0.684906768142481D+00
 0.000000000000000D+00 0.000000000000000D+00 0.000000000000000D+00 -.000000000000000D+00
 0.303955257940945D+03 0.000000000000000D+00 0.000000000000000D+00 0.303955257940945D+03
 0.400394454260039D+03 0.000000000000000D+00 0.000000000000000D+00 -.400394454260039D+03
 0.305479645889369D+03 0.161394869587226D+03 -.227253253059963D+03 -.684906768142481D+00
 0.273119898056180D+03 -.206145162690776D+03 0.160096738135916D+03 0.684906768142481D+00
 0.125750168255435D+03 0.447502931035507D+02 0.671565149240471D+02 -.964391963190945D+02
0.327525311226D-02 0.000000000000D+00 0.000000000000D+00 0.202065247939D-02 0.000000000000D+00  5 2 -1 25 24 21 0 0.26954336D+00 0.72062451D-02 0.82065742D+05 0.82065742D+05 0.82065742D+05 0.11715403D+01  1  2  2  2  5  2       -1 0.377443017321D+00 0.100000000000D+01
-.181958506235D-03 0.000000000000D+00 -.125778343450D-04 0.202065247939D-02 0.000000000000D+00  5 2 -1 25 24 21 2 0.26954336D+00 0.72062451D-02 0.82065742D+05 0.82065742D+05 0.82065742D+05 0.11715403D+01  1  2  3  2  5  2       -1 -.287801690860D-01 0.100000000000D+01
0.223976966387D-03 0.000000000000D+00 0.000000000000D+00 0.202065247939D-02 0.000000000000D+00  5 2 -1 25 24 21 2 0.26954336D+00 0.72062451D-02 0.82065742D+05 0.82065742D+05 0.82065742D+05 0.11715403D+01  1  2 15  2  5  2       -1 0.354261809320D-01 0.100000000000D+01
0.422203783285D-02 0.000000000000D+00 0.000000000000D+00 0.202065247939D-02 0.000000000000D+00  5 2 -1 25 24 21 2 0.26954336D+00 0.10224834D-01 0.10866863D+06 0.10866863D+06 0.10866863D+06 0.11602695D+01  1  2 12  2  5  2       -1 0.379907586822D+00 0.100000000000D+01
-.440886479933D-02 0.000000000000D+00 0.000000000000D+00 0.202065247939D-02 0.000000000000D+00  5 2 -1 25 24 21 2 0.26954336D+00 0.72062451D-02 0.82065742D+05 0.82065742D+05 0.82065742D+05 0.11715403D+01  1  2  4  2  5  2       -1 -.697345109210D+00 0.100000000000D+01
-.572384347778D-02 0.000000000000D+00 -.128805973045D-02 0.202065247939D-02 0.000000000000D+00  5 2 -1 25 24 21 2 0.26954336D+00 0.10720123D-01 0.82065742D+05 0.82065742D+05 0.82065742D+05 0.11715403D+01  1  2  5  2  5  2       -1 -.490449759982D+00 0.100000000000D+01
0.586225821540D-02 0.000000000000D+00 0.119274049739D-02 0.202065247939D-02 0.000000000000D+00  5 2 -1 25 24 21 2 0.26954336D+00 0.72062451D-02 0.82065742D+05 0.82065742D+05 0.82065742D+05 0.11715403D+01  1  2  6  2  5  2       -1 0.927226685666D+00 0.100000000000D+01
0.182338213982D-03 0.000000000000D+00 0.000000000000D+00 0.202065247939D-02 0.000000000000D+00  5 2 21 25 24 1 2 0.26954336D+00 0.10224834D-01 0.10866863D+06 0.10866863D+06 0.10866863D+06 0.11602695D+01  1  2 12  4  5  2       -1 0.237598611361D+00 0.100000000000D+01
-.227498126867D-03 0.000000000000D+00 -.609934250042D-04 0.202065247939D-02 0.000000000000D+00  5 2 21 25 24 1 2 0.26954336D+00 0.10720123D-01 0.82065742D+05 0.82065742D+05 0.82065742D+05 0.11715403D+01  1  2  5  4  5  2       -1 -.280907000347D+00 0.100000000000D+01
  </mgrwgt>
  </event>
  <event>
  4     66 0.48098993E-03 0.11090597E+03 0.75467711E-02 0.12485575E+00
        2 -1    0    0  501    0 0.00000000E+00 0.00000000E+00 0.14847853E+02 0.14851301E+02 0.32000000E+00 0.0000E+00 0.9000E+01
       -1 -1    0    0    0  501 0.00000000E+00 0.00000000E+00 -.85140269E+03 0.85140275E+03 0.32000000E+00 0.0000E+00 0.9000E+01
       25  1    1    2    0    0 0.27895684E+02 -.30033260E+02 -.42390430E+03 0.44384684E+03 0.12500000E+03 0.0000E+00 0.9000E+01
       24  1    1    2    0    0 -.27895684E+02 0.30033260E+02 -.41265054E+03 0.42240721E+03 0.80419002E+02 0.0000E+00 0.9000E+01
#aMCatNLO 1  0  0  1  1 0.11403598D+02 0.00000000D+00  -5  5  0 0.00000000D+00 0.00000000D+00 0.00000000D+00 0.00000000D+00 0.00000000D+00
  <mgrwgt>
 0.3173273514D+00    4    2    0
 0.112441189785050D+03 0.000000000000000D+00 0.000000000000000D+00 0.112441189785050D+03
 0.112441189785050D+03 0.000000000000000D+00 0.000000000000000D+00 -.112441189785050D+03
 0.132802465006203D+03 0.278956841056518D+02 -.300332598167895D+02 0.182024400776045D+02
 0.920799145638962D+02 -.278956841056518D+02 0.300332598167895D+02 -.182024400776045D+02
 0.000000000000000D+00 0.000000000000000D+00 0.000000000000000D+00 -.000000000000000D+00
 0.113498115541081D+03 0.000000000000000D+00 0.000000000000000D+00 0.113498115541081D+03
 0.148215501432232D+03 0.000000000000000D+00 0.000000000000000D+00 -.148215501432232D+03
 0.133823913105087D+03 0.252613176542027D+02 -.362543338699342D+02 0.182024400776045D+02
 0.913474142990721D+02 -.297080134215225D+02 0.257534319756344D+02 -.182024400776045D+02
 0.365422895691539D+02 0.444669576731979D+01 0.105009018942998D+02 -.347173858911509D+02
0.127757081617D-02 0.000000000000D+00 0.000000000000D+00 0.288256853479D-02 0.000000000000D+00  5 2 -1 25 24 21 0 0.22845549D-02 0.13098530D+00 0.12300135D+05 0.12300135D+05 0.12300135D+05 0.12577687D+01  1  2  2  1  5  1        2 0.338660486192D+00 0.100000000000D+01
-.709598467809D-04 0.000000000000D+00 -.490620832621D-05 0.288256853479D-02 0.000000000000D+00  5 2 -1 25 24 21 2 0.22845549D-02 0.13098530D+00 0.12300135D+05 0.12300135D+05 0.12300135D+05 0.12577687D+01  1  2  3  1  5  1        2 -.297573158680D-01 0.100000000000D+01
0.881368395345D-04 0.000000000000D+00 0.000000000000D+00 0.288256853479D-02 0.000000000000D+00  5 2 -1 25 24 21 2 0.22845549D-02 0.13098530D+00 0.12300135D+05 0.12300135D+05 0.12300135D+05 0.12577687D+01  1  2 15  1  5  1        2 0.369605613966D-01 0.100000000000D+01
-.680483812379D-04 0.000000000000D+00 0.000000000000D+00 0.288256853479D-02 0.000000000000D+00  5 2 -1 25 24 21 2 0.22845549D-02 0.13098530D+00 0.12300135D+05 0.12300135D+05 0.12300135D+05 0.12577687D+01  1  2  4  1  5  1        2 -.285363803146D-01 0.100000000000D+01
  </mgrwgt>
  </event>
  <event>
  4     66 0.48098993E-03 0.10611007E+03 0.75467711E-02 0.12565710E+00
        2 -1    0    0  501    0 0.00000000E+00 0.00000000E+00 0.22109429E+02 0.22111745E+02 0.32000000E+00 0.0000E+00 0.9000E+01
       -1 -1    0    0    0  501 0.00000000E+00 0.00000000E+00 -.51729208E+03 0.51729218E+03 0.32000000E+00 0.0000E+00 0.9000E+01
       25  1    1    2    0    0 -.47200409E+01 0.25622077E+02 -.26416628E+03 0.29340687E+03 0.12500000E+03 0.0000E+00 0.9000E+01
       24  1    1    2    0    0 0.47200409E+01 -.25622077E+02 -.23101637E+03 0.24599705E+03 0.80419002E+02 0.0000E+00 0.9000E+01
#aMCatNLO 1  0  0  2  1 0.11820716D+02 0.00000000D+00  -5  5  0 0.00000000D+00 0.00000000D+00 0.00000000D+00 0.00000000D+00 0.00000000D+00
  <mgrwgt>
 0.2812969232D+00    4    2    0
 0.106947107918669D+03 0.000000000000000D+00 0.000000000000000D+00 0.106947107918669D+03
 0.106947107918669D+03 0.000000000000000D+00 0.000000000000000D+00 -.106947107918669D+03
 0.128354381625859D+03 -.472004090484298D+01 0.256220768461308D+02 0.130796664523339D+02
 0.855398342114787D+02 0.472004090484298D+01 -.256220768461308D+02 -.130796664523339D+02
 0.000000000000000D+00 -.000000000000000D+00 0.000000000000000D+00 0.000000000000000D+00
 0.136298327847699D+03 0.000000000000000D+00 0.000000000000000D+00 0.136298327847699D+03
 0.108307102710238D+03 0.000000000000000D+00 0.000000000000000D+00 -.108307102710238D+03
 0.127625650697105D+03 0.143061817396682D+01 0.221400626240180D+02 0.130796664523339D+02
 0.865949479694174D+02 0.885607585722585D+01 -.279635710409511D+02 -.130796664523339D+02
 0.303848318914142D+02 -.102866940311927D+02 0.582350841693311D+01 0.279912251374612D+02
0.658078028814D-03 0.000000000000D+00 0.000000000000D+00 0.306189983060D-02 0.000000000000D+00  5 2 -1 25 24 21 0 0.34016364D-02 0.79583583D-01 0.11259348D+05 0.11259348D+05 0.11259348D+05 0.12622798D+01  1  2  2  2  5  2       -1 0.306987888128D+00 0.100000000000D+01
-.365571461036D-04 0.000000000000D+00 -.252719290657D-05 0.306189983060D-02 0.000000000000D+00  5 2 -1 25 24 21 2 0.34016364D-02 0.79583583D-01 0.11259348D+05 0.11259348D+05 0.11259348D+05 0.12622798D+01  1  2  3  2  5  2       -1 -.271723604004D-01 0.100000000000D+01
0.455978951581D-04 0.000000000000D+00 0.000000000000D+00 0.306189983060D-02 0.000000000000D+00  5 2 -1 25 24 21 2 0.34016364D-02 0.79583583D-01 0.11259348D+05 0.11259348D+05 0.11259348D+05 0.12622798D+01  1  2 15  2  5  2       -1 0.338922091244D-01 0.100000000000D+01
-.436048555302D-04 0.000000000000D+00 0.000000000000D+00 0.306189983060D-02 0.000000000000D+00  5 2 -1 25 24 21 2 0.34016364D-02 0.79583583D-01 0.11259348D+05 0.11259348D+05 0.11259348D+05 0.12622798D+01  1  2  4  2  5  2       -1 -.324108136427D-01 0.100000000000D+01
  </mgrwgt>
  </event>
  <event>
  4     66 0.48098993E-03 0.15926863E+03 0.75467711E-02 0.10776326E+00
        2 -1    0    0  501    0 0.00000000E+00 0.00000000E+00 0.23029996E+02 0.23032220E+02 0.32000000E+00 0.0000E+00 0.9000E+01
       -1 -1    0    0    0  501 0.00000000E+00 0.00000000E+00 -.11049666E+04 0.11049666E+04 0.32000000E+00 0.0000E+00 0.9000E+01
       25  1    1    2    0    0 -.12021816E+03 0.86380112E+01 -.62155164E+03 0.64535142E+03 0.12500000E+03 0.0000E+00 0.9000E+01
       24  1    1    2    0    0 0.12021816E+03 -.86380112E+01 -.46038496E+03 0.48264744E+03 0.80419002E+02 0.0000E+00 0.9000E+01
#aMCatNLO 1  0  0  1  1 0.23542020D+03 0.00000000D+00  -5  5  0 0.00000000D+00 0.00000000D+00 0.00000000D+00 0.00000000D+00 0.00000000D+00
  <mgrwgt>
 0.3252597511D+00    3    2    0
 0.159526351470879D+03 0.000000000000000D+00 0.000000000000000D+00 0.159526351470879D+03
 0.159526351470879D+03 0.000000000000000D+00 0.000000000000000D+00 -.159526351470879D+03
 0.173877873901487D+03 -.120218159568486D+03 0.863801120699279D+01 -.902739745748000D+01
 0.145174829040271D+03 0.120218159568486D+03 -.863801120699279D+01 0.902739745748000D+01
 0.000000000000000D+00 -.000000000000000D+00 -.000000000000000D+00 -.000000000000000D+00
 0.286136554499934D+03 0.000000000000000D+00 0.000000000000000D+00 0.286136554499934D+03
 0.355912891153191D+03 0.000000000000000D+00 0.000000000000000D+00 -.355912891153191D+03
 0.127485580063801D+03 -.210796261078055D+02 0.100860588191683D+02 -.902739745748000D+01
 0.269020782653514D+03 0.256474712806360D+03 -.664780649373038D+01 0.902739745748000D+01
 0.245543082935810D+03 -.235395086698555D+03 -.343825232543790D+01 -.697763366532564D+02
0.419957608779D-02 0.000000000000D+00 0.000000000000D+00 0.233384770384D-02 0.000000000000D+00  5 2 -1 25 24 21 0 0.35432509D-02 0.16999504D+00 0.25366496D+05 0.25366496D+05 0.25366496D+05 0.12226206D+01  1  2  2  1  5  1        2 0.318830338025D+00 0.100000000000D+01
-.233309041071D-03 0.000000000000D+00 -.161274779509D-04 0.233384770384D-02 0.000000000000D+00  5 2 -1 25 24 21 2 0.35432509D-02 0.16999504D+00 0.25366496D+05 0.25366496D+05 0.25366496D+05 0.12226206D+01  1  2  3  1  5  1        2 -.264770237499D-01 0.100000000000D+01
0.289963452474D-03 0.000000000000D+00 0.000000000000D+00 0.233384770384D-02 0.000000000000D+00  5 2 -1 25 24 21 2 0.35432509D-02 0.16999504D+00 0.25366496D+05 0.25366496D+05 0.25366496D+05 0.12226206D+01  1  2 15  1  5  1        2 0.329064368124D-01 0.100000000000D+01
  </mgrwgt>
  </event>
  <event>
  4     66 0.48098993E-03 0.11784045E+03 0.75467711E-02 0.10542460E+00
        2 -1    0    0  501    0 0.00000000E+00 0.00000000E+00 0.13226713E+03 0.13226752E+03 0.32000000E+00 0.0000E+00 0.9000E+01
       -1 -1    0    0    0  501 0.00000000E+00 0.00000000E+00 -.10746152E+03 0.10746200E+03 0.32000000E+00 0.0000E+00 0.9000E+01
       25  1    1    2    0    0 0.44827424E+02 0.34759562E+02 0.32348084E+02 0.14102880E+03 0.12500000E+03 0.0000E+00 0.9000E+01
       24  1    1    2    0    0 -.44827424E+02 -.34759562E+02 -.75424718E+01 0.98700709E+02 0.80419002E+02 0.0000E+00 0.9000E+01
#aMCatNLO 1  0  0  2  1 0.33376568D+03 0.00000000D+00  -5  5  0 0.00000000D+00 0.00000000D+00 0.00000000D+00 0.00000000D+00 0.00000000D+00
  <mgrwgt>
 0.3036312807D+00    3    2    0
 0.119221349863686D+03 0.000000000000000D+00 0.000000000000000D+00 0.119221349863686D+03
 0.119221349863686D+03 0.000000000000000D+00 0.000000000000000D+00 -.119221349863686D+03
 0.138424672205070D+03 0.448274236740762D+02 0.347595624389772D+02 0.178511842990016D+02
 0.100018027522301D+03 -.448274236740762D+02 -.347595624389772D+02 -.178511842990016D+02
 0.000000000000000D+00 0.000000000000000D+00 0.000000000000000D+00 0.000000000000000D+00
 0.376523715699666D+03 0.000000000000000D+00 0.000000000000000D+00 0.376523715699666D+03
 0.367550864922996D+03 0.000000000000000D+00 0.000000000000000D+00 -.367550864922996D+03
 0.167454600386663D+03 -.109845131201063D+03 0.560585062246484D+01 0.178511842990016D+02
 0.242733710320168D+03 -.218145107251637D+03 -.674276321156218D+02 -.178511842990016D+02
 0.333886269915831D+03 0.327990238452700D+03 0.618217814931570D+02 0.897285077666977D+01
0.372362181351D-03 0.000000000000D+00 0.000000000000D+00 0.274413725866D-02 0.000000000000D+00  5 2 -1 25 24 21 0 0.20348856D-01 0.16532608D-01 0.13886372D+05 0.13886372D+05 0.13886372D+05 0.12516600D+01  1  2  2  2  5  2       -1 0.297286519815D+00 0.100000000000D+01
-.206833740038D-04 0.000000000000D+00 -.142996882160D-05 0.274413725866D-02 0.000000000000D+00  5 2 -1 25 24 21 2 0.20348856D-01 0.16532608D-01 0.13886372D+05 0.13886372D+05 0.13886372D+05 0.12516600D+01  1  2  3  2  5  2       -1 -.258704394307D-01 0.100000000000D+01
0.257559999178D-04 0.000000000000D+00 0.000000000000D+00 0.274413725866D-02 0.000000000000D+00  5 2 -1 25 24 21 2 0.20348856D-01 0.16532608D-01 0.13886372D+05 0.13886372D+05 0.13886372D+05 0.12516600D+01  1  2 15  2  5  2       -1 0.322152002728D-01 0.100000000000D+01
  </mgrwgt>
  </event>
  <event>
  4     66 0.48098993E-03 0.19196883E+03 0.75467711E-02 0.10941287E+00
        2 -1    0    0  501    0 0.00000000E+00 0.00000000E+00 0.25307148E+04 0.25307148E+04 0.32000000E+00 0.0000E+00 0.9000E+01
       -1 -1    0    0    0  501 0.00000000E+00 0.00000000E+00 -.14898131E+02 0.14901567E+02 0.32000000E+00 0.0000E+00 0.9000E+01
       25  1    1    2    0    0 0.12071096E+03 0.10666311E+03 0.15256149E+04 0.15391796E+04 0.12500000E+03 0.0000E+00 0.9000E+01
       24  1    1    2    0    0 -.12071096E+03 -.10666311E+03 0.99020176E+03 0.10064367E+04 0.80419002E+02 0.0000E+00 0.9000E+01
#aMCatNLO 1  0  0  2  1 0.15269578D+03 0.00000000D+00  -5  5  0 0.00000000D+00 0.00000000D+00 0.00000000D+00 0.00000000D+00 0.00000000D+00
  <mgrwgt>
 0.5552241037D+00    3    2    0
 0.194183724642023D+03 0.000000000000000D+00 0.000000000000000D+00 0.194183724642023D+03
 0.194183724642023D+03 0.000000000000000D+00 0.000000000000000D+00 -.194183724642023D+03
 0.205973827111362D+03 0.120710964480675D+03 0.106663109565730D+03 0.291900936417766D+02
 0.182393622172684D+03 -.120710964480675D+03 -.106663109565730D+03 -.291900936417766D+02
 0.000000000000000D+00 0.000000000000000D+00 0.000000000000000D+00 0.000000000000000D+00
 0.429050435264491D+03 0.000000000000000D+00 0.000000000000000D+00 0.429050435264491D+03
 0.235101335540318D+03 0.000000000000000D+00 0.000000000000000D+00 -.235101335540318D+03
 0.170184973689571D+03 0.105426272717680D+03 0.370292414688920D+02 0.291900936417766D+02
 0.247122200219668D+03 -.138163744898461D+03 -.186174337425588D+03 -.291900936417766D+02
 0.246844596895570D+03 0.327374721807814D+02 0.149145095956696D+03 0.193949099724173D+03
0.219645977823D-02 0.000000000000D+00 0.000000000000D+00 0.213498653476D-02 0.000000000000D+00  5 2 -1 25 24 21 0 0.38934100D+00 0.22922860D-02 0.36852031D+05 0.36852031D+05 0.36852031D+05 0.12056322D+01  1  2  2  2  5  2       -1 0.544684152600D+00 0.100000000000D+01
-.122006018255D-03 0.000000000000D+00 -.843498388954D-05 0.213498653476D-02 0.000000000000D+00  5 2 -1 25 24 21 2 0.38934100D+00 0.22922860D-02 0.36852031D+05 0.36852031D+05 0.36852031D+05 0.12056322D+01  1  2  3  2  5  2       -1 -.439776868761D-01 0.100000000000D+01
0.151246698311D-03 0.000000000000D+00 0.000000000000D+00 0.213498653476D-02 0.000000000000D+00  5 2 -1 25 24 21 2 0.38934100D+00 0.22922860D-02 0.36852031D+05 0.36852031D+05 0.36852031D+05 0.12056322D+01  1  2 15  2  5  2       -1 0.545176380193D-01 0.100000000000D+01
  </mgrwgt>
  </event>
  <event>
  4     66 0.48098993E-03 0.10402593E+03 0.75467711E-02 0.12332488E+00
        2 -1    0    0  501    0 0.00000000E+00 0.00000000E+00 0.61652837E+03 0.61652846E+03 0.32000000E+00 0.0000E+00 0.9000E+01
       -1 -1    0    0    0  501 0.00000000E+00 0.00000000E+00 -.23688268E+02 0.23690429E+02 0.32000000E+00 0.0000E+00 0.9000E+01
       25  1    1    2    0    0 0.15903185E+02 -.25971389E+01 0.50309412E+03 0.51864087E+03 0.12500000E+03 0.0000E+00 0.9000E+01
       24  1    1    2    0    0 -.15903185E+02 0.25971389E+01 0.89745986E+02 0.12157802E+03 0.80419002E+02 0.0000E+00 0.9000E+01
#aMCatNLO 1  0  0  1  1 0.40710754D+02 0.00000000D+00  -5  5  0 0.00000000D+00 0.00000000D+00 0.00000000D+00 0.00000000D+00 0.00000000D+00
  <mgrwgt>
 0.7882038609D-01    4    2    0
 0.120852006888540D+03 0.000000000000000D+00 0.000000000000000D+00 0.120852006888540D+03
 0.120852006888540D+03 0.000000000000000D+00 0.000000000000000D+00 -.120852006888540D+03
 0.139796218659213D+03 0.159031845133000D+02 -.259713889138975D+01 0.604840999216259D+02
 0.101907795117866D+03 -.159031845133000D+02 0.259713889138975D+01 -.604840999216259D+02
 0.000000000000000D+00 -.000000000000000D+00 0.000000000000000D+00 -.000000000000000D+00
 0.141801348739394D+03 0.000000000000000D+00 0.000000000000000D+00 0.141801348739394D+03
 0.144081762842899D+03 0.000000000000000D+00 0.000000000000000D+00 -.144081762842899D+03
 0.144475840251564D+03 0.395309047248492D+02 -.522011922289481D+01 0.604840999216259D+02
 0.100632698514111D+03 0.931287834710300D+00 0.728296300367651D+00 -.604840999216259D+02
 0.407745728166179D+02 -.404621925595595D+02 0.449182292252716D+01 -.228041410350507D+01
0.238659254832D-03 0.000000000000D+00 0.000000000000D+00 0.216656765415D-02 0.000000000000D+00  5 2 -1 25 24 21 0 0.94850692D-01 0.36445215D-02 0.10821394D+05 0.10821394D+05 0.10821394D+05 0.12643204D+01  1  2  2  1  5  1        2 0.348662644586D+00 0.100000000000D+01
-.128964841750D-04 0.000000000000D+00 -.916514378979D-06 0.216656765415D-02 0.000000000000D+00  5 2 -1 25 24 21 2 0.94850692D-01 0.36445215D-02 0.10821394D+05 0.10821394D+05 0.10821394D+05 0.12643204D+01  1  2  3  1  5  1        2 -.301170728999D-01 0.100000000000D+01
0.163829826957D-04 0.000000000000D+00 0.000000000000D+00 0.216656765415D-02 0.000000000000D+00  5 2 -1 25 24 21 2 0.94850692D-01 0.36445215D-02 0.10821394D+05 0.10821394D+05 0.10821394D+05 0.12643204D+01  1  2 15  1  5  1        2 0.382590694851D-01 0.100000000000D+01
-.119036121420D-03 0.000000000000D+00 0.000000000000D+00 0.216656765415D-02 0.000000000000D+00  5 2 -1 25 24 21 2 0.94850692D-01 0.36445215D-02 0.10821394D+05 0.10821394D+05 0.10821394D+05 0.12643204D+01  1  2  4  1  5  1        2 -.277984255080D+00 0.100000000000D+01
  </mgrwgt>
  </event>
  <event>
  4     66 0.48098993E-03 0.12256614E+03 0.75467711E-02 0.11481584E+00
        2 -1    0    0  501    0 0.00000000E+00 0.00000000E+00 0.42198411E+03 0.42198423E+03 0.32000000E+00 0.0000E+00 0.9000E+01
       -1 -1    0    0    0  501 0.00000000E+00 0.00000000E+00 -.69480114E+02 0.69480851E+02 0.32000000E+00 0.0000E+00 0.9000E+01
       25  1    1    2    0    0 -.11442803E+02 -.64763627E+02 0.36058744E+03 0.38726421E+03 0.12500000E+03 0.0000E+00 0.9000E+01
       24  1    1    2    0    0 0.11442803E+02 0.64763627E+02 -.80834404E+01 0.10420088E+03 0.80419002E+02 0.0000E+00 0.9000E+01
#aMCatNLO 1  0  0  2  1 0.13193403D+03 0.00000000D+00  -5  5  0 0.00000000D+00 0.00000000D+00 0.00000000D+00 0.00000000D+00 0.00000000D+00
  <mgrwgt>
 0.3452333770D+00    3    2    0
 0.171230006956788D+03 0.000000000000000D+00 0.000000000000000D+00 0.171230006956788D+03
 0.171230006956788D+03 0.000000000000000D+00 0.000000000000000D+00 -.171230006956788D+03
 0.184600595746084D+03 -.114428031688408D+02 -.647636265563639D+02 0.118857540277073D+03
 0.157859418167493D+03 0.114428031688408D+02 0.647636265563639D+02 -.118857540277073D+03
 0.000000000000000D+00 0.000000000000000D+00 0.000000000000000D+00 0.000000000000000D+00
 0.381756172229187D+03 0.000000000000000D+00 0.000000000000000D+00 0.381756172229187D+03
 0.205446931050799D+03 0.000000000000000D+00 0.000000000000000D+00 -.205446931050799D+03
 0.219572094849875D+03 -.606510695134238D+02 -.121578113667404D+03 0.118857540277073D+03
 0.147423068066462D+03 -.257255217637176D+02 0.218501188332401D+02 -.118857540277073D+03
 0.220207940363649D+03 0.863765912771414D+02 0.997279948341641D+02 0.176309241178388D+03
0.740571823491D-03 0.000000000000D+00 0.000000000000D+00 0.125066841027D-02 0.000000000000D+00  5 2 -1 25 24 21 0 0.64920699D-01 0.10689314D-01 0.15022458D+05 0.15022458D+05 0.15022458D+05 0.12477485D+01  1  2  2  2  5  2       -1 0.334702007390D+00 0.100000000000D+01
-.355504964474D-04 0.000000000000D+00 -.284399079924D-05 0.125066841027D-02 0.000000000000D+00  5 2 -1 25 24 21 2 0.64920699D-01 0.10689314D-01 0.15022458D+05 0.15022458D+05 0.15022458D+05 0.12477485D+01  1  2  3  2  5  2       -1 -.250144463050D-01 0.100000000000D+01
0.505176642818D-04 0.000000000000D+00 0.000000000000D+00 0.125066841027D-02 0.000000000000D+00  5 2 -1 25 24 21 2 0.64920699D-01 0.10689314D-01 0.15022458D+05 0.15022458D+05 0.15022458D+05 0.12477485D+01  1  2 15  2  5  2       -1 0.355458158651D-01 0.100000000000D+01
  </mgrwgt>
  </event>
  <event>
  4     66 0.48098993E-03 0.22004153E+03 0.75467711E-02 0.96467519E-01
        2 -1    0    0  501    0 0.00000000E+00 0.00000000E+00 0.27605153E+03 0.27605171E+03 0.32000000E+00 0.0000E+00 0.9000E+01
       -1 -1    0    0    0  501 0.00000000E+00 0.00000000E+00 -.18929093E+03 0.18929120E+03 0.32000000E+00 0.0000E+00 0.9000E+01
       25  1    1    2    0    0 0.56425620E+02 0.18519334E+03 -.17693575E+02 0.23112439E+03 0.12500000E+03 0.0000E+00 0.9000E+01
       24  1    1    2    0    0 -.56425620E+02 -.18519334E+03 0.10445417E+03 0.23421851E+03 0.80419002E+02 0.0000E+00 0.9000E+01
#aMCatNLO 1  0  0  2  1 0.68186684D+03 0.00000000D+00  -5  5  0 0.00000000D+00 0.00000000D+00 0.00000000D+00 0.00000000D+00 0.00000000D+00
  <mgrwgt>
 0.3807252461D+00    5    2    0
 0.228591677507964D+03 0.000000000000000D+00 0.000000000000000D+00 0.228591677507964D+03
 0.228591677507964D+03 0.000000000000000D+00 0.000000000000000D+00 -.228591677507964D+03
 0.238607116549167D+03 0.564256195428725D+02 0.185193336263802D+03 -.618702976442915D+02
 0.218576238466761D+03 -.564256195428725D+02 -.185193336263802D+03 0.618702976442915D+02
 0.000000000000000D+00 0.000000000000000D+00 -.000000000000000D+00 -.000000000000000D+00
 0.657408076637974D+03 0.000000000000000D+00 0.000000000000000D+00 0.657408076637974D+03
 0.881192088668539D+03 0.000000000000000D+00 0.000000000000000D+00 -.881192088668539D+03
 0.681264982370310D+03 -.451528332587427D+02 0.665304640087632D+03 -.618702976442915D+02
 0.139685080455495D+03 -.959872395958518D+02 0.179495171607564D+01 0.618702976442915D+02
 0.717650102480707D+03 0.141140072854594D+03 -.667099591803707D+03 -.223784012030565D+03
0.246935466610D-02 0.000000000000D+00 0.000000000000D+00 0.194866932152D-02 0.000000000000D+00  5 2 -1 25 24 21 0 0.42469500D-01 0.29121716D-01 0.48418274D+05 0.48418274D+05 0.48418274D+05 0.11936668D+01  1  2  2  2  5  2       -1 0.360516706803D+00 0.100000000000D+01
-.136943976189D-03 0.000000000000D+00 -.948297211383D-05 0.194866932152D-02 0.000000000000D+00  5 2 -1 25 24 21 2 0.42469500D-01 0.29121716D-01 0.48418274D+05 0.48418274D+05 0.48418274D+05 0.11936668D+01  1  2  3  2  5  2       -1 -.284872890169D-01 0.100000000000D+01
0.169228834298D-03 0.000000000000D+00 0.000000000000D+00 0.194866932152D-02 0.000000000000D+00  5 2 -1 25 24 21 2 0.42469500D-01 0.29121716D-01 0.48418274D+05 0.48418274D+05 0.48418274D+05 0.11936668D+01  1  2 15  2  5  2       -1 0.352032330795D-01 0.100000000000D+01
0.320410132248D-02 0.000000000000D+00 -.142885540231D-02 0.194866932152D-02 0.000000000000D+00  5 2 -1 25 24 21 2 0.42469500D-01 0.25197468D+00 0.48418274D+05 0.48418274D+05 0.48418274D+05 0.11936668D+01  1  2  5  2  5  2       -1 0.494207433471D-02 0.100000000000D+01
0.642704102003D-03 0.000000000000D+00 -.372044643644D-03 0.194866932152D-02 0.000000000000D+00  5 2 21 25 24 1 2 0.42469500D-01 0.25197468D+00 0.48418274D+05 0.48418274D+05 0.48418274D+05 0.11936668D+01  1  2  5  4  5  2       -1 0.855052085442D-02 0.100000000000D+01
  </mgrwgt>
  </event>
  <event>
  4     66 0.48098993E-03 0.63836570E+02 0.75467711E-02 0.12192121E+00
        2 -1    0    0  501    0 0.00000000E+00 0.00000000E+00 0.11348625E+03 0.11348670E+03 0.32000000E+00 0.0000E+00 0.9000E+01
       -1 -1    0    0    0  501 0.00000000E+00 0.00000000E+00 -.15197832E+03 0.15197866E+03 0.32000000E+00 0.0000E+00 0.9000E+01
       25  1    1    2    0    0 0.64051235E+02 -.36331429E+02 -.55058389E+02 0.15517397E+03 0.12500000E+03 0.0000E+00 0.9000E+01
       24  1    1    2    0    0 -.64051235E+02 0.36331429E+02 0.16566320E+02 0.11029140E+03 0.80419002E+02 0.0000E+00 0.9000E+01
#aMCatNLO 1  0  0  2  1 0.16791610D+02 0.00000000D+00  -5  5  0 0.00000000D+00 0.00000000D+00 0.00000000D+00 0.00000000D+00 0.00000000D+00
  <mgrwgt>
 0.3026135344D+00    9    2    0
 0.131329946855748D+03 0.000000000000000D+00 0.000000000000000D+00 0.131329946855748D+03
 0.131329946855748D+03 0.000000000000000D+00 0.000000000000000D+00 -.131329946855748D+03
 0.148762726402382D+03 0.640512354212250D+02 -.363314285787925D+02 -.329061590756012D+02
 0.113897167309114D+03 -.640512354212250D+02 0.363314285787925D+02 0.329061590756012D+02
 0.000000000000000D+00 0.000000000000000D+00 0.000000000000000D+00 -.000000000000000D+00
 0.138440019934680D+03 0.000000000000000D+00 0.000000000000000D+00 0.138440019934680D+03
 0.141900549644280D+03 0.000000000000000D+00 0.000000000000000D+00 -.141900549644280D+03
 0.150627767589813D+03 0.623594437157513D+02 -.457406694686892D+02 -.329061590756012D+02
 0.112568315075196D+03 -.653309434692830D+02 0.292140740877171D+02 0.329061590756012D+02
 0.171444869139508D+02 0.297149975353170D+01 0.165265953809721D+02 -.346052970959981D+01
0.368928300790D-03 0.000000000000D+00 0.000000000000D+00 0.245791450939D-02 0.000000000000D+00  5 2 -1 25 24 21 0 0.17459484D-01 0.23381341D-01 0.16143965D+05 0.16143965D+05 0.16143965D+05 0.12442001D+01  1  2  2  2  5  2       -1 0.202400626246D+00 0.100000000000D+01
-.204687765064D-04 0.000000000000D+00 -.141678181608D-05 0.245791450939D-02 0.000000000000D+00  5 2 -1 25 24 21 2 0.17459484D-01 0.23381341D-01 0.16143965D+05 0.16143965D+05 0.16143965D+05 0.12442001D+01  1  2  3  2  5  2       -1 -.173836997823D-01 0.100000000000D+01
0.254119575293D-04 0.000000000000D+00 0.000000000000D+00 0.245791450939D-02 0.000000000000D+00  5 2 -1 25 24 21 2 0.17459484D-01 0.23381341D-01 0.16143965D+05 0.16143965D+05 0.16143965D+05 0.12442001D+01  1  2 15  2  5  2       -1 0.215818390724D-01 0.100000000000D+01
0.546495906100D-03 0.000000000000D+00 0.000000000000D+00 0.245791450939D-02 0.000000000000D+00  5 2 -1 25 24 21 2 0.17459484D-01 0.25853556D-01 0.18418891D+05 0.18418891D+05 0.18418891D+05 0.12377832D+01  1  2 12  2  5  2       -1 0.391200293586D+00 0.100000000000D+01
-.482602433073D-03 0.000000000000D+00 0.000000000000D+00 0.245791450939D-02 0.000000000000D+00  5 2 -1 25 24 21 2 0.17459484D-01 0.23381341D-01 0.16143965D+05 0.16143965D+05 0.16143965D+05 0.12442001D+01  1  2  4  2  5  2       -1 -.409864058466D+00 0.100000000000D+01
-.168174782464D-02 0.000000000000D+00 -.366154237228D-03 0.245791450939D-02 0.000000000000D+00  5 2 -1 25 24 21 2 0.17459484D-01 0.26547632D-01 0.16143965D+05 0.16143965D+05 0.16143965D+05 0.12442001D+01  1  2  5  2  5  2       -1 -.115982027423D+01 0.100000000000D+01
0.171731506866D-02 0.000000000000D+00 0.363220998913D-03 0.245791450939D-02 0.000000000000D+00  5 2 -1 25 24 21 2 0.17459484D-01 0.23381341D-01 0.16143965D+05 0.16143965D+05 0.16143965D+05 0.12442001D+01  1  2  6  2  5  2       -1 0.145847943456D+01 0.100000000000D+01
0.891541676458D-05 0.000000000000D+00 0.000000000000D+00 0.245791450939D-02 0.000000000000D+00  5 2 21 25 24 1 2 0.17459484D-01 0.25853556D-01 0.18418891D+05 0.18418891D+05 0.18418891D+05 0.12377832D+01  1  2 12  4  5  2       -1 0.766964970552D-01 0.100000000000D+01
-.315811122624D-04 0.000000000000D+00 -.728505791367D-05 0.245791450939D-02 0.000000000000D+00  5 2 21 25 24 1 2 0.17459484D-01 0.26547632D-01 0.16143965D+05 0.16143965D+05 0.16143965D+05 0.12442001D+01  1  2  5  4  5  2       -1 -.260677123615D+00 0.100000000000D+01
  </mgrwgt>
  </event>
  <event>
  4     66 0.48098993E-03 0.13290963E+03 0.75467711E-02 0.11758357E+00
        2 -1    0    0  501    0 0.00000000E+00 0.00000000E+00 0.19364178E+04 0.19364179E+04 0.32000000E+00 0.0000E+00 0.9000E+01
       -1 -1    0    0    0  501 0.00000000E+00 0.00000000E+00 -.10489281E+02 0.10494161E+02 0.32000000E+00 0.0000E+00 0.9000E+01
       25  1    1    2    0    0 0.20181520E+02 -.80673972E+02 0.72238925E+03 0.73782574E+03 0.12500000E+03 0.0000E+00 0.9000E+01
       24  1    1    2    0    0 -.20181520E+02 0.80673972E+02 0.12035393E+04 0.12090863E+04 0.80419002E+02 0.0000E+00 0.9000E+01
#aMCatNLO 1  0  0  2  1 0.69245743D+02 0.00000000D+00  -5  5  0 0.00000000D+00 0.00000000D+00 0.00000000D+00 0.00000000D+00 0.00000000D+00
  <mgrwgt>
 0.4731141250D+00    4    2    0
 0.142535633804278D+03 0.000000000000000D+00 0.000000000000000D+00 0.142535633804278D+03
 0.142535633804278D+03 0.000000000000000D+00 0.000000000000000D+00 -.142535633804278D+03
 0.158597905043421D+03 0.201815202782542D+02 -.806739718786806D+02 -.511146944110806D+02
 0.126473362565136D+03 -.201815202782542D+02 0.806739718786806D+02 0.511146944110806D+02
 0.000000000000000D+00 -.000000000000000D+00 -.000000000000000D+00 0.000000000000000D+00
 0.255623387235378D+03 0.000000000000000D+00 0.000000000000000D+00 0.255623387235378D+03
 0.157683838518914D+03 0.000000000000000D+00 0.000000000000000D+00 -.157683838518914D+03
 0.164621134102676D+03 0.582826167472846D+02 -.739293067301614D+02 -.511146944110806D+02
 0.128739736653109D+03 0.990302838931159D+01 0.859995458309156D+02 0.511146944110806D+02
 0.119946354998506D+03 -.681856451365962D+02 -.120702391007542D+02 0.979395487164636D+02
0.592243158876D-03 0.000000000000D+00 0.000000000000D+00 0.218746908484D-02 0.000000000000D+00  5 2 -1 25 24 21 0 0.29791081D+00 0.16141130D-02 0.17664971D+05 0.17664971D+05 0.17664971D+05 0.12398064D+01  1  2  2  2  5  2       -1 0.499181895767D+00 0.100000000000D+01
-.327068089446D-04 0.000000000000D+00 -.227436967129D-05 0.218746908484D-02 0.000000000000D+00  5 2 -1 25 24 21 2 0.29791081D+00 0.16141130D-02 0.17664971D+05 0.17664971D+05 0.17664971D+05 0.12398064D+01  1  2  3  2  5  2       -1 -.423745088298D-01 0.100000000000D+01
0.409027996496D-04 0.000000000000D+00 0.000000000000D+00 0.218746908484D-02 0.000000000000D+00  5 2 -1 25 24 21 2 0.29791081D+00 0.16141130D-02 0.17664971D+05 0.17664971D+05 0.17664971D+05 0.12398064D+01  1  2 15  2  5  2       -1 0.529931259223D-01 0.100000000000D+01
-.283164268236D-04 0.000000000000D+00 0.000000000000D+00 0.218746908484D-02 0.000000000000D+00  5 2 -1 25 24 21 2 0.29791081D+00 0.16141130D-02 0.17664971D+05 0.17664971D+05 0.17664971D+05 0.12398064D+01  1  2  4  2  5  2       -1 -.366863878558D-01 0.100000000000D+01
  </mgrwgt>
  </event>
  <event>
  5     66 0.48098993E-03 0.15212983E+03 0.75467711E-02 0.11794359E+00
       21 -1    0    0  501  502 0.00000000E+00 0.00000000E+00 0.46748955E+02 0.46754971E+02 0.75000000E+00 0.0000E+00 0.9000E+01
       -3 -1    0    0    0  501 0.00000000E+00 0.00000000E+00 -.67386115E+03 0.67386134E+03 0.50000000E+00 0.0000E+00 0.9000E+01
       25  1    1    2    0    0 0.61267462E+02 0.11271621E+03 -.32370034E+03 0.36995345E+03 0.12500000E+03 0.0000E+00 0.9000E+01
       24  1    1    2    0    0 -.41403963E+02 -.88680399E+02 -.16094078E+03 0.20481126E+03 0.80419002E+02 0.0000E+00 0.9000E+01
       -4  1    1    2    0  502 -.19863499E+02 -.24035808E+02 -.14247108E+03 0.14585160E+03 0.15500000E+01 0.0000E+00 0.9000E+01
#aMCatNLO 2  0  0  1  1 0.31181383D+02 0.00000000D+00  -5  5  0 0.00000000D+00 0.00000000D+00 0.00000000D+00 0.00000000D+00 0.00000000D+00
  <mgrwgt>
 0.3128465775D-01    1    2    0
 0.153708471959296D+03 0.000000000000000D+00 0.000000000000000D+00 0.153708471959296D+03
 0.153708471959296D+03 0.000000000000000D+00 0.000000000000000D+00 -.153708471959296D+03
 0.168603200806862D+03 0.500194555010522D+02 0.991055675225781D+02 -.218673244756873D+02
 0.138813743111731D+03 -.500194555010522D+02 -.991055675225781D+02 0.218673244756873D+02
 0.000000000000000D+00 -.000000000000000D+00 -.000000000000000D+00 -.000000000000000D+00
 0.160280073319695D+03 0.000000000000000D+00 0.000000000000000D+00 0.160280073319695D+03
 0.196529324464164D+03 0.000000000000000D+00 0.000000000000000D+00 -.196529324464164D+03
 0.180448954147726D+03 0.612674616008974D+02 0.112716207007979D+03 -.218673244756873D+02
 0.128545311300637D+03 -.414039628527676D+02 -.886803985296008D+02 0.218673244756873D+02
 0.478151323354963D+02 -.198634987481298D+02 -.240358084783785D+02 -.362492511444688D+02
0.356778119599D-04 0.000000000000D+00 0.000000000000D+00 0.233657181417D-02 0.170800951393D-06  5 21 -3 25 24 -4 2 0.71920755D-02 0.10366352D+00 0.28387558D+05 0.28387558D+05 0.28387558D+05 0.12174247D+01  1  2  1  3  5  1        4 0.312846577508D-01 0.100000000000D+01
  </mgrwgt>
  </event>
  <event>
  4     66 0.48098993E-03 0.19818932E+03 0.75467711E-02 0.11437762E+00
        2 -1    0    0  501    0 0.00000000E+00 0.00000000E+00 0.16969406E+04 0.16969406E+04 0.32000000E+00 0.0000E+00 0.9000E+01
       -1 -1    0    0    0  501 0.00000000E+00 0.00000000E+00 -.29413492E+02 0.29415233E+02 0.32000000E+00 0.0000E+00 0.9000E+01
       25  1    1    2    0    0 0.36940605E+02 0.16432204E+03 0.12699154E+04 0.12871195E+04 0.12500000E+03 0.0000E+00 0.9000E+01
       24  1    1    2    0    0 -.36940605E+02 -.16432204E+03 0.39761166E+03 0.43923637E+03 0.80419002E+02 0.0000E+00 0.9000E+01
#aMCatNLO 1  0  0  2  1 0.17782568D+02 0.00000000D+00  -5  5  0 0.00000000D+00 0.00000000D+00 0.00000000D+00 0.00000000D+00 0.00000000D+00
  <mgrwgt>
 0.5017740861D+00    3    2    0
 0.223415480520760D+03 0.000000000000000D+00 0.000000000000000D+00 0.223415480520760D+03
 0.223415480520760D+03 0.000000000000000D+00 0.000000000000000D+00 -.223415480520760D+03
 0.233662962056376D+03 0.369406053712383D+02 0.164322039913028D+03 0.102990478737538D+03
 0.213167998985143D+03 -.369406053712383D+02 -.164322039913028D+03 -.102990478737538D+03
 0.000000000000000D+00 0.000000000000000D+00 -.000000000000000D+00 0.000000000000000D+00
 0.543724002499338D+03 0.000000000000000D+00 0.000000000000000D+00 0.543724002499338D+03
 0.223839279141638D+03 0.000000000000000D+00 0.000000000000000D+00 -.223839279141638D+03
 0.236784204649609D+03 0.296326856079973D+02 0.170166462044136D+03 0.102990478737538D+03
 0.210400463540538D+03 -.435203119938771D+02 -.159059997601758D+03 -.102990478737538D+03
 0.320378613450829D+03 0.138876263858798D+02 -.111064644423779D+02 0.319884723357700D+03
0.196927613698D-02 0.000000000000D+00 0.000000000000D+00 0.167622774051D-02 0.000000000000D+00  5 2 -1 25 24 21 0 0.26106792D+00 0.45252888D-02 0.39279005D+05 0.39279005D+05 0.39279005D+05 0.12028033D+01  1  2  2  2  5  2       -1 0.491861024109D+00 0.100000000000D+01
-.107494793689D-03 0.000000000000D+00 -.756253888832D-05 0.167622774051D-02 0.000000000000D+00  5 2 -1 25 24 21 2 0.26106792D+00 0.45252888D-02 0.39279005D+05 0.39279005D+05 0.39279005D+05 0.12028033D+01  1  2  3  2  5  2       -1 -.388429700169D-01 0.100000000000D+01
0.134928395085D-03 0.000000000000D+00 0.000000000000D+00 0.167622774051D-02 0.000000000000D+00  5 2 -1 25 24 21 2 0.26106792D+00 0.45252888D-02 0.39279005D+05 0.39279005D+05 0.39279005D+05 0.12028033D+01  1  2 15  2  5  2       -1 0.487560320353D-01 0.100000000000D+01
  </mgrwgt>
  </event>
  <event>
  5     66 0.48098993E-03 0.12014318E+03 0.75467711E-02 0.11473031E+00
        2 -1    0    0  501    0 0.00000000E+00 0.00000000E+00 0.18230561E+04 0.18230562E+04 0.32000000E+00 0.0000E+00 0.9000E+01
       21 -1    0    0  502  501 0.00000000E+00 0.00000000E+00 -.34251304E+02 0.34259515E+02 0.75000000E+00 0.0000E+00 0.9000E+01
       25  1    1    2    0    0 -.56802568E+01 -.14223336E+03 0.13964461E+04 0.14092371E+04 0.12500000E+03 0.0000E+00 0.9000E+01
       24  1    1    2    0    0 0.25388632E+01 0.66112584E+01 0.14419852E+03 0.16525914E+03 0.80419002E+02 0.0000E+00 0.9000E+01
        1  1    1    2  502    0 0.31413936E+01 0.13562210E+03 0.24816024E+03 0.28281943E+03 0.32000000E+00 0.0000E+00 0.9000E+01
#aMCatNLO 2  0  0  2  1 0.13565848D+03 0.00000000D+00  -5  5  0 0.00000000D+00 0.00000000D+00 0.00000000D+00 0.00000000D+00 0.00000000D+00
  <mgrwgt>
 0.1539740670D+00    1    2    0
 0.147520724043424D+03 0.000000000000000D+00 0.000000000000000D+00 0.147520724043424D+03
 0.147520724043424D+03 0.000000000000000D+00 0.000000000000000D+00 -.147520724043424D+03
 0.163040211398525D+03 -.380168675867142D+01 -.611306257062813D+02 0.848864200648333D+02
 0.132001236688322D+03 0.380168675867142D+01 0.611306257062813D+02 -.848864200648333D+02
 0.000000000000000D+00 0.000000000000000D+00 0.000000000000000D+00 -.000000000000000D+00
 0.190042998043591D+03 0.000000000000000D+00 0.000000000000000D+00 0.190042998043591D+03
 0.328607855345835D+03 0.000000000000000D+00 0.000000000000000D+00 -.328607855345835D+03
 0.207589254070751D+03 -.568025675195599D+01 -.142233360283231D+03 0.848864200648333D+02
 0.117145528423333D+03 0.253886315593908D+01 0.661125840241218D+01 -.848864200648333D+02
 0.193916070895342D+03 0.314139359601691D+01 0.135622101880819D+03 -.138564857302243D+03
0.365795932325D-04 0.000000000000D+00 0.000000000000D+00 0.169705000795D-02 0.132429575196D-06  5 2 21 25 24 1 2 0.28047063D+00 0.52700618D-02 0.41174279D+05 0.41174279D+05 0.41174279D+05 0.12007263D+01  1  2  1  4  5  2       -1 0.153974066971D+00 0.100000000000D+01
  </mgrwgt>
  </event>
  <event>
  4     66 0.48098993E-03 0.44894225E+02 0.75467711E-02 0.12118829E+00
        2 -1    0    0  501    0 0.00000000E+00 0.00000000E+00 0.58199952E+02 0.58200832E+02 0.32000000E+00 0.0000E+00 0.9000E+01
       -1 -1    0    0    0  501 0.00000000E+00 0.00000000E+00 -.27929728E+03 0.27929746E+03 0.32000000E+00 0.0000E+00 0.9000E+01
       25  1    1    2    0    0 -.65066457E+02 0.12106633E+02 -.17103018E+03 0.22193814E+03 0.12500000E+03 0.0000E+00 0.9000E+01
       24  1    1    2    0    0 0.65066457E+02 -.12106633E+02 -.50067144E+02 0.11556015E+03 0.80419002E+02 0.0000E+00 0.9000E+01
#aMCatNLO 1  0  0  1  2 0.34078426D+02 0.00000000D+00  -5  5  0 0.00000000D+00 0.00000000D+00 0.00000000D+00 0.00000000D+00 0.00000000D+00
  <mgrwgt>
 0.3980390925D+00    9    2    0
 0.127496147606911D+03 0.000000000000000D+00 0.000000000000000D+00 0.127496147606911D+03
 0.127496147606911D+03 0.000000000000000D+00 0.000000000000000D+00 -.127496147606911D+03
 0.145453129479541D+03 -.650664574904217D+02 0.121066332787326D+02 -.339322621658710D+02
 0.109539165734282D+03 0.650664574904217D+02 -.121066332787326D+02 0.339322621658710D+02
 0.000000000000000D+00 -.000000000000000D+00 0.000000000000000D+00 0.000000000000000D+00
 0.146008110010187D+03 0.000000000000000D+00 0.000000000000000D+00 0.146008110010187D+03
 0.145336356857597D+03 0.000000000000000D+00 0.000000000000000D+00 -.145336356857597D+03
 0.138969038726880D+03 -.503582578719129D+02 0.202911521395269D+00 -.339322621658710D+02
 0.118290382315457D+03 0.768481076087706D+02 -.216418237499470D+02 0.339322621658710D+02
 0.340850458254475D+02 -.264898497368577D+02 0.214389122285517D+02 0.671753152590326D+00
0.570233544290D-03 0.000000000000D+00 0.000000000000D+00 0.249123309649D-02 0.000000000000D+00  5 2 -1 25 24 21 0 0.89539206D-02 0.42968894D-01 0.15078709D+05 0.15078709D+05 0.15078709D+05 0.12475635D+01  1  2  2  1  5  1        2 0.247306474998D+00 0.100000000000D+01
-.316252829804D-04 0.000000000000D+00 -.218984695601D-05 0.249123309649D-02 0.000000000000D+00  5 2 -1 25 24 21 2 0.89539206D-02 0.42968894D-01 0.15078709D+05 0.15078709D+05 0.15078709D+05 0.12475635D+01  1  2  3  1  5  1        2 -.213472761977D-01 0.100000000000D+01
0.394904744911D-04 0.000000000000D+00 0.000000000000D+00 0.249123309649D-02 0.000000000000D+00  5 2 -1 25 24 21 2 0.89539206D-02 0.42968894D-01 0.15078709D+05 0.15078709D+05 0.15078709D+05 0.12475635D+01  1  2 15  1  5  1        2 0.266563327406D-01 0.100000000000D+01
0.446608413373D-03 0.000000000000D+00 0.000000000000D+00 0.249123309649D-02 0.000000000000D+00  5 2 -1 25 24 21 2 0.10796098D-01 0.42968894D-01 0.19903602D+05 0.19903602D+05 0.19903602D+05 0.12340571D+01  1  2 12  1  5  1        2 0.236297155877D+00 0.100000000000D+01
-.384914448071D-03 0.000000000000D+00 0.000000000000D+00 0.249123309649D-02 0.000000000000D+00  5 2 -1 25 24 21 2 0.89539206D-02 0.42968894D-01 0.15078709D+05 0.15078709D+05 0.15078709D+05 0.12475635D+01  1  2  4  1  5  1        2 -.259819810642D+00 0.100000000000D+01
-.111434700430D-02 0.000000000000D+00 -.388188914976D-03 0.249123309649D-02 0.000000000000D+00  5 2 -1 25 24 21 2 0.11663222D-01 0.42968894D-01 0.15078709D+05 0.15078709D+05 0.15078709D+05 0.12475635D+01  1  2  5  1  5  1        2 -.544809785892D+00 0.100000000000D+01
0.118837916920D-02 0.000000000000D+00 0.375009532607D-03 0.249123309649D-02 0.000000000000D+00  5 2 -1 25 24 21 2 0.89539206D-02 0.42968894D-01 0.15078709D+05 0.15078709D+05 0.15078709D+05 0.12475635D+01  1  2  6  1  5  1        2 0.802163837338D+00 0.100000000000D+01
0.121391132666D-04 0.000000000000D+00 0.000000000000D+00 0.249123309649D-02 0.000000000000D+00  5 21 -1 25 24 -2 2 0.10796098D-01 0.42968894D-01 0.19903602D+05 0.19903602D+05 0.19903602D+05 0.12340571D+01  1  2 12  3  5  1        2 0.652027553012D-01 0.100000000000D+01
-.321679561804D-04 0.000000000000D+00 -.136874688707D-04 0.249123309649D-02 0.000000000000D+00  5 21 -1 25 24 -2 2 0.11663222D-01 0.42968894D-01 0.15078709D+05 0.15078709D+05 0.15078709D+05 0.12475635D+01  1  2  5  3  5  1        2 -.153610590992D+00 0.100000000000D+01
  </mgrwgt>
  </event>
  <event>
  4     66 0.48098993E-03 0.12477404E+03 0.75467711E-02 0.12275917E+00
        2 -1    0    0  501    0 0.00000000E+00 0.00000000E+00 0.26527767E+03 0.26527787E+03 0.32000000E+00 0.0000E+00 0.9000E+01
       -1 -1    0    0    0  501 0.00000000E+00 0.00000000E+00 -.64967570E+02 0.64968358E+02 0.32000000E+00 0.0000E+00 0.9000E+01
       25  1    1    2    0    0 0.23948568E+02 -.65464451E+02 0.62624170E+02 0.15622393E+03 0.12500000E+03 0.0000E+00 0.9000E+01
       24  1    1    2    0    0 -.23948568E+02 0.65464451E+02 0.13768593E+03 0.17402230E+03 0.80419002E+02 0.0000E+00 0.9000E+01
#aMCatNLO 1  0  0  2  2 0.10085031D+02 0.00000000D+00  -5  5  0 0.00000000D+00 0.00000000D+00 0.00000000D+00 0.00000000D+00 0.00000000D+00
  <mgrwgt>
 0.2555538649D+00    4    2    0
 0.131280645401132D+03 0.000000000000000D+00 0.000000000000000D+00 0.131280645401132D+03
 0.131280645401132D+03 0.000000000000000D+00 0.000000000000000D+00 -.131280645401132D+03
 0.148719971696428D+03 0.239485676028039D+02 -.654644513882849D+02 -.404166017323470D+02
 0.113841319105836D+03 -.239485676028039D+02 0.654644513882849D+02 0.404166017323470D+02
 0.000000000000000D+00 -.000000000000000D+00 -.000000000000000D+00 0.000000000000000D+00
 0.147433958446038D+03 0.000000000000000D+00 0.000000000000000D+00 0.147433958446038D+03
 0.132961044294193D+03 0.000000000000000D+00 0.000000000000000D+00 -.132961044294193D+03
 0.149474836329316D+03 0.296403724573893D+02 -.648511628320719D+02 -.404166017323470D+02
 0.113280067120069D+03 -.196133794174040D+02 0.659315653127888D+02 0.404166017323470D+02
 0.176400992908465D+02 -.100269930399853D+02 -.108040248071686D+01 0.144729141518448D+02
0.431874254959D-03 0.000000000000D+00 0.000000000000D+00 0.238463744097D-02 0.000000000000D+00  5 2 -1 25 24 21 0 0.40812025D-01 0.99950862D-02 0.15568560D+05 0.15568560D+05 0.15568560D+05 0.12459848D+01  1  2  2  2  5  2       -1 0.353988611868D+00 0.100000000000D+01
-.239176339587D-04 0.000000000000D+00 -.165851085414D-05 0.238463744097D-02 0.000000000000D+00  5 2 -1 25 24 21 2 0.40812025D-01 0.99950862D-02 0.15568560D+05 0.15568560D+05 0.15568560D+05 0.12459848D+01  1  2  3  2  5  2       -1 -.304351660204D-01 0.100000000000D+01
0.298240138425D-04 0.000000000000D+00 0.000000000000D+00 0.238463744097D-02 0.000000000000D+00  5 2 -1 25 24 21 2 0.40812025D-01 0.99950862D-02 0.15568560D+05 0.15568560D+05 0.15568560D+05 0.12459848D+01  1  2 15  2  5  2       -1 0.379510286953D-01 0.100000000000D+01
-.832618391743D-04 0.000000000000D+00 0.000000000000D+00 0.238463744097D-02 0.000000000000D+00  5 2 -1 25 24 21 2 0.40812025D-01 0.99950862D-02 0.15568560D+05 0.15568560D+05 0.15568560D+05 0.12459848D+01  1  2  4  2  5  2       -1 -.105950609613D+00 0.100000000000D+01
  </mgrwgt>
  </event>
  <event>
  4     66 0.48098993E-03 0.11211311E+03 0.75467711E-02 0.11854057E+00
        2 -1    0    0  501    0 0.00000000E+00 0.00000000E+00 0.17230582E+04 0.17230582E+04 0.32000000E+00 0.0000E+00 0.9000E+01
       -1 -1    0    0    0  501 0.00000000E+00 0.00000000E+00 -.76185971E+01 0.76253146E+01 0.32000000E+00 0.0000E+00 0.9000E+01
       25  1    1    2    0    0 0.43960027E+02 -.27874731E+01 0.83082206E+03 0.84132666E+03 0.12500000E+03 0.0000E+00 0.9000E+01
       24  1    1    2    0    0 -.43960027E+02 0.27874731E+01 0.88461756E+03 0.88935690E+03 0.80419002E+02 0.0000E+00 0.9000E+01
#aMCatNLO 1  0  0  2  1 0.86074147D+02 0.00000000D+00  -5  5  0 0.00000000D+00 0.00000000D+00 0.00000000D+00 0.00000000D+00 0.00000000D+00
  <mgrwgt>
 0.5280177728D+00    3    2    0
 0.114599847035088D+03 0.000000000000000D+00 0.000000000000000D+00 0.114599847035088D+03
 0.114599847035088D+03 0.000000000000000D+00 0.000000000000000D+00 -.114599847035088D+03
 0.134577587587450D+03 0.439600273297693D+02 -.278747309848545D+01 -.233639267193868D+02
 0.946221064827256D+02 -.439600273297693D+02 0.278747309848545D+01 0.233639267193868D+02
 0.000000000000000D+00 -.000000000000000D+00 -.000000000000000D+00 0.000000000000000D+00
 0.406137280863936D+03 0.000000000000000D+00 0.000000000000000D+00 0.406137280863936D+03
 0.128942687114870D+03 0.000000000000000D+00 0.000000000000000D+00 -.128942687114870D+03
 0.160229901522909D+03 0.974724111180400D+02 -.137016098616547D+01 -.233639267193868D+02
 0.845991378448387D+02 -.114284385346220D+02 0.364909449466182D+01 0.233639267193868D+02
 0.290250928611059D+03 -.860439725834180D+02 -.227893350849634D+01 0.277194593749066D+03
0.304705695594D-03 0.000000000000D+00 0.000000000000D+00 0.279372631129D-02 0.000000000000D+00  5 2 -1 25 24 21 0 0.26508640D+00 0.11726109D-02 0.12569351D+05 0.12569351D+05 0.12569351D+05 0.12566715D+01  1  2  2  2  5  2       -1 0.516806610872D+00 0.100000000000D+01
-.169181883965D-04 0.000000000000D+00 -.117015010193D-05 0.279372631129D-02 0.000000000000D+00  5 2 -1 25 24 21 2 0.26508640D+00 0.11726109D-02 0.12569351D+05 0.12569351D+05 0.12569351D+05 0.12566715D+01  1  2  3  2  5  2       -1 -.453153040701D-01 0.100000000000D+01
0.211038063386D-04 0.000000000000D+00 0.000000000000D+00 0.279372631129D-02 0.000000000000D+00  5 2 -1 25 24 21 2 0.26508640D+00 0.11726109D-02 0.12569351D+05 0.12569351D+05 0.12569351D+05 0.12566715D+01  1  2 15  2  5  2       -1 0.565264660057D-01 0.100000000000D+01
  </mgrwgt>
  </event>
  <event>
  4     66 0.48098993E-03 0.13329341E+03 0.75467711E-02 0.10607696E+00
        2 -1    0    0  501    0 0.00000000E+00 0.00000000E+00 0.68063995E+03 0.68064003E+03 0.32000000E+00 0.0000E+00 0.9000E+01
       -1 -1    0    0    0  501 0.00000000E+00 0.00000000E+00 -.26102539E+02 0.26104500E+02 0.32000000E+00 0.0000E+00 0.9000E+01
       25  1    1    2    0    0 -.71123664E+02 0.44243248E+02 0.36977799E+03 0.39922024E+03 0.12500000E+03 0.0000E+00 0.9000E+01
       24  1    1    2    0    0 0.71123664E+02 -.44243248E+02 0.28475943E+03 0.30752429E+03 0.80419002E+02 0.0000E+00 0.9000E+01
#aMCatNLO 1  0  0  1  1 0.30441914D+03 0.00000000D+00  -5  5  0 0.00000000D+00 0.00000000D+00 0.00000000D+00 0.00000000D+00 0.00000000D+00
  <mgrwgt>
 0.4633576191D+00    3    2    0
 0.133293475238130D+03 0.000000000000000D+00 0.000000000000000D+00 0.133293475238130D+03
 0.133293475238130D+03 0.000000000000000D+00 0.000000000000000D+00 -.133293475238130D+03
 0.150469454837411D+03 -.711236642596698D+02 0.442432477270241D+02 0.127482981738634D+00
 0.116117495638849D+03 0.711236642596698D+02 -.442432477270241D+02 -.127482981738634D+00
 0.000000000000000D+00 0.000000000000000D+00 -.000000000000000D+00 -.000000000000000D+00
 0.253521837483692D+03 0.000000000000000D+00 0.000000000000000D+00 0.253521837483692D+03
 0.654835921461001D+03 0.000000000000000D+00 0.000000000000000D+00 -.654835921461001D+03
 0.293365199271279D+03 -.109192290492562D+03 0.241899085547165D+03 0.127482981738634D+00
 0.111282319375319D+03 0.516191066883644D+02 0.570262240023364D+02 -.127482981738634D+00
 0.503710240298094D+03 0.575731838041980D+02 -.298925309549501D+03 -.401314083977309D+03
0.394038038104D-03 0.000000000000D+00 0.000000000000D+00 0.257754052099D-02 0.000000000000D+00  5 2 -1 25 24 21 0 0.10471400D+00 0.40159319D-02 0.17767134D+05 0.17767134D+05 0.17767134D+05 0.12395266D+01  1  2  2  1  5  1        2 0.453957996587D+00 0.100000000000D+01
-.218910021169D-04 0.000000000000D+00 -.151320981892D-05 0.257754052099D-02 0.000000000000D+00  5 2 -1 25 24 21 2 0.10471400D+00 0.40159319D-02 0.17767134D+05 0.17767134D+05 0.17767134D+05 0.12395266D+01  1  2  3  1  5  1        2 -.387484974963D-01 0.100000000000D+01
0.272013281645D-04 0.000000000000D+00 0.000000000000D+00 0.257754052099D-02 0.000000000000D+00  5 2 -1 25 24 21 2 0.10471400D+00 0.40159319D-02 0.17767134D+05 0.17767134D+05 0.17767134D+05 0.12395266D+01  1  2 15  1  5  1        2 0.481481199741D-01 0.100000000000D+01
  </mgrwgt>
  </event>
  <event>
  4     66 0.48098993E-03 0.11147536E+03 0.75467711E-02 0.11978164E+00
        2 -1    0    0  501    0 0.00000000E+00 0.00000000E+00 0.38646539E+03 0.38646552E+03 0.32000000E+00 0.0000E+00 0.9000E+01
       -1 -1    0    0    0  501 0.00000000E+00 0.00000000E+00 -.32629799E+02 0.32631368E+02 0.32000000E+00 0.0000E+00 0.9000E+01
       25  1    1    2    0    0 0.35802144E+02 0.22817778E+02 0.23391443E+03 0.26859525E+03 0.12500000E+03 0.0000E+00 0.9000E+01
       24  1    1    2    0    0 -.35802144E+02 -.22817778E+02 0.11992116E+03 0.15050164E+03 0.80419002E+02 0.0000E+00 0.9000E+01
#aMCatNLO 1  0  0  2  1 0.70566524D+02 0.00000000D+00  -5  5  0 0.00000000D+00 0.00000000D+00 0.00000000D+00 0.00000000D+00 0.00000000D+00
  <mgrwgt>
 0.4191829845D+00    3    2    0
 0.112297125326171D+03 0.000000000000000D+00 0.000000000000000D+00 0.112297125326171D+03
 0.112297125326171D+03 0.000000000000000D+00 0.000000000000000D+00 -.112297125326171D+03
 0.132684521751125D+03 0.358021437082105D+02 0.228177776899377D+02 0.133318355643160D+02
 0.919097289012174D+02 -.358021437082105D+02 -.228177776899377D+02 -.133318355643160D+02
 0.000000000000000D+00 -.000000000000000D+00 0.000000000000000D+00 0.000000000000000D+00
 0.224846131989761D+03 0.000000000000000D+00 0.000000000000000D+00 0.224846131989761D+03
 0.129329446668750D+03 0.000000000000000D+00 0.000000000000000D+00 -.129329446668750D+03
 0.147512509871324D+03 0.766160336843410D+02 0.933735034704056D+01 0.133318355643160D+02
 0.879067155324855D+02 -.960982990488281D+01 -.314688419078944D+02 -.133318355643160D+02
 0.118756353254702D+03 -.670062037794581D+02 0.221314915608538D+02 0.955166853210114D+02
0.268321481426D-03 0.000000000000D+00 0.000000000000D+00 0.291634448641D-02 0.000000000000D+00  5 2 -1 25 24 21 0 0.59456345D-01 0.50200999D-02 0.12426756D+05 0.12426756D+05 0.12426756D+05 0.12572493D+01  1  2  2  2  5  2       -1 0.410311551960D+00 0.100000000000D+01
-.149057712568D-04 0.000000000000D+00 -.103042513934D-05 0.291634448641D-02 0.000000000000D+00  5 2 -1 25 24 21 2 0.59456345D-01 0.50200999D-02 0.12426756D+05 0.12426756D+05 0.12426756D+05 0.12572493D+01  1  2  3  2  5  2       -1 -.360292789421D-01 0.100000000000D+01
0.185759958144D-04 0.000000000000D+00 0.000000000000D+00 0.291634448641D-02 0.000000000000D+00  5 2 -1 25 24 21 2 0.59456345D-01 0.50200999D-02 0.12426756D+05 0.12426756D+05 0.12426756D+05 0.12572493D+01  1  2 15  2  5  2       -1 0.449007114959D-01 0.100000000000D+01
  </mgrwgt>
  </event>
  <event>
  4     66 0.48098993E-03 0.10476825E+03 0.75467711E-02 0.12683414E+00
        2 -1    0    0  501    0 0.00000000E+00 0.00000000E+00 0.37129515E+02 0.37130894E+02 0.32000000E+00 0.0000E+00 0.9000E+01
       -1 -1    0    0    0  501 0.00000000E+00 0.00000000E+00 -.48599486E+03 0.48599497E+03 0.32000000E+00 0.0000E+00 0.9000E+01
       25  1    1    2    0    0 0.18372013E+02 0.83832234E+01 -.41443366E+03 0.43334520E+03 0.12500000E+03 0.0000E+00 0.9000E+01
       24  1    1    2    0    0 -.18372013E+02 -.83832234E+01 -.34431691E+02 0.89780658E+02 0.80419002E+02 0.0000E+00 0.9000E+01
#aMCatNLO 1  0  0  2  1 0.22336018D+01 0.00000000D+00  -5  5  0 0.00000000D+00 0.00000000D+00 0.00000000D+00 0.00000000D+00 0.00000000D+00
  <mgrwgt>
 0.2632744581D+00    6    2    0
 0.134332206512326D+03 0.000000000000000D+00 0.000000000000000D+00 0.134332206512326D+03
 0.134332206512326D+03 0.000000000000000D+00 0.000000000000000D+00 -.134332206512326D+03
 0.151375371892009D+03 0.183720133731219D+02 0.838322344758912D+01 -.829559757021145D+02
 0.117289041132643D+03 -.183720133731219D+02 -.838322344758912D+01 0.829559757021145D+02
 0.000000000000000D+00 0.000000000000000D+00 0.000000000000000D+00 0.000000000000000D+00
 0.136658706827527D+03 0.000000000000000D+00 0.000000000000000D+00 0.136658706827527D+03
 0.134874023889820D+03 0.000000000000000D+00 0.000000000000000D+00 -.134874023889820D+03
 0.151227292220972D+03 0.175398656934074D+02 0.743996769176756D+01 -.829559757021145D+02
 0.117446405417702D+03 -.190175283680616D+02 -.911492738583101D+01 0.829559757021145D+02
 0.285903307867299D+01 0.147766267465425D+01 0.167495969406345D+01 0.178468293770711D+01
0.860093382642D-03 0.000000000000D+00 0.000000000000D+00 0.169199922892D-02 0.000000000000D+00  5 2 -1 25 24 21 0 0.57123472D-02 0.74768555D-01 0.10976386D+05 0.10976386D+05 0.10976386D+05 0.12635877D+01  1  2  2  2  5  2       -1 0.230994123566D+00 0.100000000000D+01
-.441934577043D-04 0.000000000000D+00 -.330298505713D-05 0.169199922892D-02 0.000000000000D+00  5 2 -1 25 24 21 2 0.57123472D-02 0.74768555D-01 0.10976386D+05 0.10976386D+05 0.10976386D+05 0.12635877D+01  1  2  3  2  5  2       -1 -.189506503579D-01 0.100000000000D+01
0.587191155444D-04 0.000000000000D+00 0.000000000000D+00 0.169199922892D-02 0.000000000000D+00  5 2 -1 25 24 21 2 0.57123472D-02 0.74768555D-01 0.10976386D+05 0.10976386D+05 0.10976386D+05 0.12635877D+01  1  2 15  2  5  2       -1 0.251794153663D-01 0.100000000000D+01
-.162755352719D-02 0.000000000000D+00 0.000000000000D+00 0.169199922892D-02 0.000000000000D+00  5 2 -1 25 24 21 2 0.57123472D-02 0.74768555D-01 0.10976386D+05 0.10976386D+05 0.10976386D+05 0.12635877D+01  1  2  4  2  5  2       -1 -.697913207852D+00 0.100000000000D+01
0.162763672320D-02 0.000000000000D+00 0.000000000000D+00 0.169199922892D-02 0.288354377727D-02  5 2 -1 25 24 21 2 0.58112794D-02 0.75070127D-01 0.11216450D+05 0.11216450D+05 0.11216450D+05 0.12624757D+01  1  2 11  2  5  2       -1 0.676510213888D+00 0.100000000000D+01
0.121118560602D-04 0.000000000000D+00 0.000000000000D+00 0.169199922892D-02 0.218712979621D-05  5 2 21 25 24 1 2 0.58112794D-02 0.75070127D-01 0.11216450D+05 0.11216450D+05 0.11216450D+05 0.12624757D+01  1  2 11  4  5  2       -1 0.474545635235D-01 0.100000000000D+01
  </mgrwgt>
  </event>
  <event>
  4     66 0.48098993E-03 0.10749329E+03 0.75467711E-02 0.12238335E+00
        2 -1    0    0  501    0 0.00000000E+00 0.00000000E+00 0.15345126E+03 0.15345160E+03 0.32000000E+00 0.0000E+00 0.9000E+01
       -1 -1    0    0    0  501 0.00000000E+00 0.00000000E+00 -.15210754E+03 0.15210787E+03 0.32000000E+00 0.0000E+00 0.9000E+01
       25  1    1    2    0    0 0.24245721E+02 -.19351217E+02 -.10676828E+03 0.16729253E+03 0.12500000E+03 0.0000E+00 0.9000E+01
       24  1    1    2    0    0 -.24245721E+02 0.19351217E+02 0.10811201E+03 0.13826694E+03 0.80419002E+02 0.0000E+00 0.9000E+01
#aMCatNLO 1  0  0  1  2 0.45254256D+02 0.00000000D+00  -5  5  0 0.00000000D+00 0.00000000D+00 0.00000000D+00 0.00000000D+00 0.00000000D+00
  <mgrwgt>
 0.1004125930D+00    4    2    0
 0.152778258560548D+03 0.000000000000000D+00 0.000000000000000D+00 0.152778258560548D+03
 0.152778258560548D+03 0.000000000000000D+00 0.000000000000000D+00 -.152778258560548D+03
 0.167763676204251D+03 0.242457210177648D+02 -.193512173268758D+02 -.107505006645558D+03
 0.137792840916846D+03 -.242457210177648D+02 0.193512173268758D+02 0.107505006645558D+03
 0.000000000000000D+00 -.000000000000000D+00 -.000000000000000D+00 -.000000000000000D+00
 0.171472546709629D+03 0.000000000000000D+00 0.000000000000000D+00 0.171472546709629D+03
 0.184512484824539D+03 0.000000000000000D+00 0.000000000000000D+00 -.184512484824539D+03
 0.169789226819575D+03 0.405671942746652D+02 -.598196296491945D+00 -.107505006645558D+03
 0.139100288699856D+03 -.108572898427572D+02 0.347342362147457D+02 0.107505006645558D+03
 0.470955160147374D+02 -.297099044319080D+02 -.341360399182538D+02 -.130399381149095D+02
0.659669465949D-03 0.000000000000D+00 0.000000000000D+00 0.130358925769D-02 0.000000000000D+00  5 2 -1 25 24 21 0 0.23607938D-01 0.23401211D-01 0.11554806D+05 0.11554806D+05 0.11554806D+05 0.12609529D+01  1  2  2  1  5  1        2 0.254870979529D+00 0.100000000000D+01
-.311410851805D-04 0.000000000000D+00 -.253330444420D-05 0.130358925769D-02 0.000000000000D+00  5 2 -1 25 24 21 2 0.23607938D-01 0.23401211D-01 0.11554806D+05 0.11554806D+05 0.11554806D+05 0.12609529D+01  1  2  3  1  5  1        2 -.191304631091D-01 0.100000000000D+01
0.450912791814D-04 0.000000000000D+00 0.000000000000D+00 0.130358925769D-02 0.000000000000D+00  5 2 -1 25 24 21 2 0.23607938D-01 0.23401211D-01 0.11554806D+05 0.11554806D+05 0.11554806D+05 0.12609529D+01  1  2 15  1  5  1        2 0.277002887961D-01 0.100000000000D+01
-.265381732489D-03 0.000000000000D+00 0.000000000000D+00 0.130358925769D-02 0.000000000000D+00  5 2 -1 25 24 21 2 0.23607938D-01 0.23401211D-01 0.11554806D+05 0.11554806D+05 0.11554806D+05 0.12609529D+01  1  2  4  1  5  1        2 -.163028212209D+00 0.100000000000D+01
  </mgrwgt>
  </event>
  <event>
  5     66 0.48098993E-03 0.14632634E+03 0.75467711E-02 0.11079737E+00
        2 -1    0    0  501    0 0.00000000E+00 0.00000000E+00 0.13340399E+04 0.13340400E+04 0.32000000E+00 0.0000E+00 0.9000E+01
       21 -1    0    0  502  501 0.00000000E+00 0.00000000E+00 -.65057894E+02 0.65062217E+02 0.75000000E+00 0.0000E+00 0.9000E+01
       25  1    1    2    0    0 0.10510107E+03 -.53613463E+02 0.47384392E+03 0.50405724E+03 0.12500000E+03 0.0000E+00 0.9000E+01
       24  1    1    2    0    0 0.46603469E+02 0.14204997E+03 0.15032313E+03 0.22674729E+03 0.80419002E+02 0.0000E+00 0.9000E+01
        1  1    1    2  502    0 -.15170454E+03 -.88436503E+02 0.64481500E+03 0.66829767E+03 0.32000000E+00 0.0000E+00 0.9000E+01
#aMCatNLO 2  0  0  2  2 0.17559978D+03 0.00000000D+00  -5  5  0 0.00000000D+00 0.00000000D+00 0.00000000D+00 0.00000000D+00 0.00000000D+00
  <mgrwgt>
 0.9918880604D-01    1    2    0
 0.168564140321045D+03 0.000000000000000D+00 0.000000000000000D+00 0.168564140321045D+03
 0.168564140321045D+03 0.000000000000000D+00 0.000000000000000D+00 -.168564140321045D+03
 0.182146186935746D+03 0.261734370636620D+02 -.996245058910973D+02 0.833195201226029D+02
 0.154982093706344D+03 -.261734370636620D+02 0.996245058910973D+02 -.833195201226029D+02
 0.000000000000000D+00 -.000000000000000D+00 -.000000000000000D+00 0.000000000000000D+00
 0.374247756241351D+03 0.000000000000000D+00 0.000000000000000D+00 0.374247756241351D+03
 0.231912691524462D+03 0.000000000000000D+00 0.000000000000000D+00 -.231912691524462D+03
 0.191017751855082D+03 0.105101073512470D+03 -.536134632050138D+02 0.833195201226029D+02
 0.189101651427412D+03 0.466034685287201D+02 0.142049966229619D+03 -.833195201226029D+02
 0.226041044483318D+03 -.151704542041190D+03 -.884365030246050D+02 0.142335064716889D+03
0.415408852076D-04 0.000000000000D+00 0.000000000000D+00 0.176703773287D-02 0.516229478442D-07  5 2 21 25 24 1 2 0.20523716D+00 0.10009238D-01 0.66885545D+05 0.66885545D+05 0.66885545D+05 0.11799665D+01  1  2  1  4  5  2       -1 0.991888060429D-01 0.100000000000D+01
  </mgrwgt>
  </event>
  <event>
  4     66 0.48098993E-03 0.48272027E+02 0.75467711E-02 0.12442061E+00
        2 -1    0    0  501    0 0.00000000E+00 0.00000000E+00 0.10909761E+03 0.10909808E+03 0.32000000E+00 0.0000E+00 0.9000E+01
       -1 -1    0    0    0  501 0.00000000E+00 0.00000000E+00 -.12383607E+03 0.12383648E+03 0.32000000E+00 0.0000E+00 0.9000E+01
       25  1    1    2    0    0 0.52073952E-01 -.35472262E+02 0.31385797E+02 0.13367256E+03 0.12500000E+03 0.0000E+00 0.9000E+01
       24  1    1    2    0    0 -.52073952E-01 0.35472262E+02 -.46124250E+02 0.99262009E+02 0.80419002E+02 0.0000E+00 0.9000E+01
#aMCatNLO 1  0  0  1  2 0.20077112D+02 0.00000000D+00  -5  5  0 0.00000000D+00 0.00000000D+00 0.00000000D+00 0.00000000D+00 0.00000000D+00
  <mgrwgt>
 0.3342879240D+00    9    2    0
 0.116233912658740D+03 0.000000000000000D+00 0.000000000000000D+00 0.116233912658740D+03
 0.116233912658740D+03 0.000000000000000D+00 0.000000000000000D+00 -.116233912658740D+03
 0.135930797664488D+03 0.520739519956890D-01 -.354722620852222D+02 0.399236479365894D+02
 0.965370276529915D+02 -.520739519956890D-01 0.354722620852222D+02 -.399236479365894D+02
 0.000000000000000D+00 -.000000000000000D+00 0.000000000000000D+00 0.000000000000000D+00
 0.131311741732597D+03 0.000000000000000D+00 0.000000000000000D+00 0.131311741732597D+03
 0.123547555167179D+03 0.000000000000000D+00 0.000000000000000D+00 -.123547555167179D+03
 0.139467918012877D+03 0.179262470064054D+01 -.472142879535894D+02 0.399236479365894D+02
 0.938652777501068D+02 0.115128995766508D+01 0.273541821227175D+02 -.399236479365894D+02
 0.215261011367926D+02 -.294391465830562D+01 0.198601058308718D+02 0.776418656541739D+01
0.273470562814D-03 0.000000000000D+00 0.000000000000D+00 0.257102540878D-02 0.000000000000D+00  5 2 -1 25 24 21 0 0.16784316D-01 0.19051771D-01 0.11862533D+05 0.11862533D+05 0.11862533D+05 0.12596110D+01  1  2  2  1  5  1        2 0.215834810243D+00 0.100000000000D+01
-.151146809116D-04 0.000000000000D+00 -.105019896766D-05 0.257102540878D-02 0.000000000000D+00  5 2 -1 25 24 21 2 0.16784316D-01 0.19051771D-01 0.11862533D+05 0.11862533D+05 0.11862533D+05 0.12596110D+01  1  2  3  1  5  1        2 -.189270424465D-01 0.100000000000D+01
0.189453271605D-04 0.000000000000D+00 0.000000000000D+00 0.257102540878D-02 0.000000000000D+00  5 2 -1 25 24 21 2 0.16784316D-01 0.19051771D-01 0.11862533D+05 0.11862533D+05 0.11862533D+05 0.12596110D+01  1  2 15  1  5  1        2 0.237238889414D-01 0.100000000000D+01
0.438217234400D-03 0.000000000000D+00 0.000000000000D+00 0.257102540878D-02 0.000000000000D+00  5 2 -1 25 24 21 2 0.19436753D-01 0.19051771D-01 0.14239698D+05 0.14239698D+05 0.14239698D+05 0.12504061D+01  1  2 12  1  5  1        2 0.460625229313D+00 0.100000000000D+01
-.419182489862D-03 0.000000000000D+00 0.000000000000D+00 0.257102540878D-02 0.000000000000D+00  5 2 -1 25 24 21 2 0.16784316D-01 0.19051771D-01 0.11862533D+05 0.11862533D+05 0.11862533D+05 0.12596110D+01  1  2  4  1  5  1        2 -.524912489047D+00 0.100000000000D+01
-.104762567800D-02 0.000000000000D+00 -.256022498658D-03 0.257102540878D-02 0.000000000000D+00  5 2 -1 25 24 21 2 0.20089198D-01 0.19051771D-01 0.11862533D+05 0.11862533D+05 0.11862533D+05 0.12596110D+01  1  2  5  1  5  1        2 -.106979019302D+01 0.100000000000D+01
0.108022733326D-02 0.000000000000D+00 0.251941973754D-03 0.257102540878D-02 0.000000000000D+00  5 2 -1 25 24 21 2 0.16784316D-01 0.19051771D-01 0.11862533D+05 0.11862533D+05 0.11862533D+05 0.12596110D+01  1  2  6  1  5  1        2 0.135269204213D+01 0.100000000000D+01
0.981853761169D-05 0.000000000000D+00 0.000000000000D+00 0.257102540878D-02 0.000000000000D+00  5 21 -1 25 24 -2 2 0.19436753D-01 0.19051771D-01 0.14239698D+05 0.14239698D+05 0.14239698D+05 0.12504061D+01  1  2 12  3  5  1        2 0.729633334303D-01 0.100000000000D+01
-.251489668881D-04 0.000000000000D+00 -.674459483719D-05 0.257102540878D-02 0.000000000000D+00  5 21 -1 25 24 -2 2 0.20089198D-01 0.19051771D-01 0.11862533D+05 0.11862533D+05 0.11862533D+05 0.12596110D+01  1  2  5  3  5  1        2 -.177921655540D+00 0.100000000000D+01
  </mgrwgt>
  </event>
  <event>
  4     66 0.48098993E-03 0.88054124E+02 0.75467711E-02 0.11489175E+00
        2 -1    0    0  501    0 0.00000000E+00 0.00000000E+00 0.11315674E+04 0.11315675E+04 0.32000000E+00 0.0000E+00 0.9000E+01
       -1 -1    0    0    0  501 0.00000000E+00 0.00000000E+00 -.31178051E+02 0.31179693E+02 0.32000000E+00 0.0000E+00 0.9000E+01
       25  1    1    2    0    0 0.11809205E+03 -.51509202E+02 0.31281009E+03 0.36065784E+03 0.12500000E+03 0.0000E+00 0.9000E+01
       24  1    1    2    0    0 -.11809205E+03 0.51509202E+02 0.78757931E+03 0.80208934E+03 0.80419002E+02 0.0000E+00 0.9000E+01
#aMCatNLO 1  0  0  2  1 0.65418434D+02 0.00000000D+00  -5  5  0 0.00000000D+00 0.00000000D+00 0.00000000D+00 0.00000000D+00 0.00000000D+00
  <mgrwgt>
 0.1528831235D+00    7    2    0
 0.187832500918540D+03 0.000000000000000D+00 0.000000000000000D+00 0.187832500918540D+03
 0.187832500918540D+03 0.000000000000000D+00 0.000000000000000D+00 -.187832500918540D+03
 0.200021264844972D+03 0.118092045134673D+03 -.515092017821989D+02 -.882302521692734D+02
 0.175643736992109D+03 -.118092045134673D+03 0.515092017821989D+02 0.882302521692734D+02
 0.000000000000000D+00 -.000000000000000D+00 -.000000000000000D+00 -.000000000000000D+00
 0.194044537001370D+03 0.000000000000000D+00 0.000000000000000D+00 0.194044537001370D+03
 0.506699186445830D+03 0.000000000000000D+00 0.000000000000000D+00 -.506699186445830D+03
 0.220477903663862D+03 0.153128322724624D+03 -.418646077934718D+02 -.882302521692734D+02
 0.160840552609781D+03 -.900559445712502D+02 0.592268255014175D+02 0.882302521692734D+02
 0.319425267173557D+03 -.630723781533737D+02 -.173622177079457D+02 -.312654649444459D+03
0.662541197265D-03 0.000000000000D+00 0.000000000000D+00 0.174388165676D-02 0.000000000000D+00  5 2 -1 25 24 21 0 0.17408743D+00 0.47967530D-02 0.27454116D+05 0.27454116D+05 0.27454116D+05 0.12189615D+01  1  2  2  2  5  2       -1 0.305048266769D+00 0.100000000000D+01
-.361039291675D-04 0.000000000000D+00 -.254433264860D-05 0.174388165676D-02 0.000000000000D+00  5 2 -1 25 24 21 2 0.17408743D+00 0.47967530D-02 0.27454116D+05 0.27454116D+05 0.27454116D+05 0.12189615D+01  1  2  3  2  5  2       -1 -.246996096820D-01 0.100000000000D+01
0.456582823754D-04 0.000000000000D+00 0.000000000000D+00 0.174388165676D-02 0.000000000000D+00  5 2 -1 25 24 21 2 0.17408743D+00 0.47967530D-02 0.27454116D+05 0.27454116D+05 0.27454116D+05 0.12189615D+01  1  2 15  2  5  2       -1 0.312359839892D-01 0.100000000000D+01
0.282753851597D-02 0.000000000000D+00 0.000000000000D+00 0.174388165676D-02 0.000000000000D+00  5 2 -1 25 24 21 2 0.17408743D+00 0.12863491D-01 0.40391670D+05 0.40391670D+05 0.40391670D+05 0.12015708D+01  1  2 12  2  5  2       -1 0.420020924909D+00 0.100000000000D+01
-.329154197690D-02 0.000000000000D+00 -.194192319556D-03 0.174388165676D-02 0.000000000000D+00  5 2 -1 25 24 21 2 0.17408743D+00 0.13274602D-01 0.27454116D+05 0.27454116D+05 0.27454116D+05 0.12189615D+01  1  2  5  2  5  2       -1 -.480129513133D+00 0.100000000000D+01
0.310742338151D-03 0.000000000000D+00 0.000000000000D+00 0.174388165676D-02 0.000000000000D+00  5 2 21 25 24 1 2 0.17408743D+00 0.12863491D-01 0.40391670D+05 0.40391670D+05 0.40391670D+05 0.12015708D+01  1  2 12  4  5  2       -1 0.647578077978D+00 0.100000000000D+01
-.364444517853D-03 0.000000000000D+00 -.221499820032D-04 0.174388165676D-02 0.000000000000D+00  5 2 21 25 24 1 2 0.17408743D+00 0.13274602D-01 0.27454116D+05 0.27454116D+05 0.27454116D+05 0.12189615D+01  1  2  5  4  5  2       -1 -.746171007333D+00 0.100000000000D+01
  </mgrwgt>
  </event>
  <event>
  4     66 0.48098993E-03 0.10611171E+03 0.75467711E-02 0.11723224E+00
        2 -1    0    0  501    0 0.00000000E+00 0.00000000E+00 0.13183677E+03 0.13183716E+03 0.32000000E+00 0.0000E+00 0.9000E+01
       -1 -1    0    0    0  501 0.00000000E+00 0.00000000E+00 -.11610257E+03 0.11610301E+03 0.32000000E+00 0.0000E+00 0.9000E+01
       25  1    1    2    0    0 -.14467450E+02 -.21674775E+02 -.53723880E+02 0.13852927E+03 0.12500000E+03 0.0000E+00 0.9000E+01
       24  1    1    2    0    0 0.14467450E+02 0.21674775E+02 0.69458080E+02 0.10941089E+03 0.80419002E+02 0.0000E+00 0.9000E+01
#aMCatNLO 1  0  0  2  1 0.11066169D+03 0.00000000D+00  -5  5  0 0.00000000D+00 0.00000000D+00 0.00000000D+00 0.00000000D+00 0.00000000D+00
  <mgrwgt>
 0.2733477299D+00    5    2    0
 0.123720207902945D+03 0.000000000000000D+00 0.000000000000000D+00 0.123720207902945D+03
 0.123720207902945D+03 0.000000000000000D+00 0.000000000000000D+00 -.123720207902945D+03
 0.142225236711200D+03 -.144674496184587D+02 -.216747749751703D+02 -.626411605006645D+02
 0.105215179094689D+03 0.144674496184587D+02 0.216747749751703D+02 0.626411605006645D+02
 0.000000000000000D+00 -.000000000000000D+00 -.000000000000000D+00 -.000000000000000D+00
 0.184540538139445D+03 0.000000000000000D+00 0.000000000000000D+00 0.184540538139445D+03
 0.197994622860010D+03 0.000000000000000D+00 0.000000000000000D+00 -.197994622860010D+03
 0.145212211961715D+03 0.377945521495490D+02 0.104519539684782D+02 -.626411605006645D+02
 0.125846395876555D+03 0.564791655428064D+02 0.475004028558326D+02 0.626411605006645D+02
 0.111476553161184D+03 -.942737176923554D+02 -.579523568243107D+02 -.134540847205652D+02
0.360061994625D-03 0.000000000000D+00 0.000000000000D+00 0.210886925988D-02 0.000000000000D+00  5 2 -1 25 24 21 0 0.20282643D-01 0.17861997D-01 0.11259695D+05 0.11259695D+05 0.11259695D+05 0.12622782D+01  1  2  2  2  5  2       -1 0.253419042006D+00 0.100000000000D+01
-.194301547300D-04 0.000000000000D+00 -.138273286586D-05 0.210886925988D-02 0.000000000000D+00  5 2 -1 25 24 21 2 0.20282643D-01 0.17861997D-01 0.11259695D+05 0.11259695D+05 0.11259695D+05 0.12622782D+01  1  2  3  2  5  2       -1 -.217895550756D-01 0.100000000000D+01
0.246607281969D-04 0.000000000000D+00 0.000000000000D+00 0.210886925988D-02 0.000000000000D+00  5 2 -1 25 24 21 2 0.20282643D-01 0.17861997D-01 0.11259695D+05 0.11259695D+05 0.11259695D+05 0.12622782D+01  1  2 15  2  5  2       -1 0.276552761786D-01 0.100000000000D+01
-.960084964375D-05 0.000000000000D+00 -.102760841027D-03 0.210886925988D-02 0.000000000000D+00  5 2 -1 25 24 21 2 0.20282643D-01 0.41627852D-01 0.11259695D+05 0.11259695D+05 0.11259695D+05 0.12622782D+01  1  2  5  2  5  2       -1 -.265519644959D-02 0.100000000000D+01
0.560896392935D-05 0.000000000000D+00 -.947660656792D-05 0.210886925988D-02 0.000000000000D+00  5 2 21 25 24 1 2 0.20282643D-01 0.41627852D-01 0.11259695D+05 0.11259695D+05 0.11259695D+05 0.12622782D+01  1  2  5  4  5  2       -1 0.167181632329D-01 0.100000000000D+01
  </mgrwgt>
  </event>
  <event>
  4     66 0.48098993E-03 0.15344191E+03 0.75467711E-02 0.11925988E+00
        2 -1    0    0  501    0 0.00000000E+00 0.00000000E+00 0.14650664E+04 0.14650664E+04 0.32000000E+00 0.0000E+00 0.9000E+01
       -1 -1    0    0    0  501 0.00000000E+00 0.00000000E+00 -.17520933E+02 0.17523855E+02 0.32000000E+00 0.0000E+00 0.9000E+01
       25  1    1    2    0    0 -.10813414E+03 -.32061576E+02 0.10007761E+04 0.10148392E+04 0.12500000E+03 0.0000E+00 0.9000E+01
       24  1    1    2    0    0 0.10813414E+03 0.32061576E+02 0.44676938E+03 0.46775104E+03 0.80419002E+02 0.0000E+00 0.9000E+01
#aMCatNLO 1  0  0  2  1 0.62603482D+01 0.00000000D+00  -5  5  0 0.00000000D+00 0.00000000D+00 0.00000000D+00 0.00000000D+00 0.00000000D+00
  <mgrwgt>
 0.3268372742D+00    6    2    0
 0.160223350779651D+03 0.000000000000000D+00 0.000000000000000D+00 0.160223350779651D+03
 0.160223350779651D+03 0.000000000000000D+00 0.000000000000000D+00 -.160223350779651D+03
 0.174512441603597D+03 -.108134137894845D+03 -.320615764232939D+02 0.459201024981503D+02
 0.145934259955705D+03 0.108134137894845D+03 0.320615764232939D+02 -.459201024981503D+02
 0.000000000000000D+00 0.000000000000000D+00 0.000000000000000D+00 0.000000000000000D+00
 0.172588533691157D+03 0.000000000000000D+00 0.000000000000000D+00 0.172588533691157D+03
 0.161048273309391D+03 0.000000000000000D+00 0.000000000000000D+00 -.161048273309391D+03
 0.175876099580094D+03 -.109339644781639D+03 -.352645525860119D+02 0.459201024981503D+02
 0.144631748218196D+03 0.107134449598138D+03 0.294054507556762D+02 -.459201024981503D+02
 0.131289592022574D+02 0.220519518350136D+01 0.585910183033574D+01 0.115402603817660D+02
0.553474660295D-03 0.000000000000D+00 0.000000000000D+00 0.215888299034D-02 0.000000000000D+00  5 2 -1 25 24 21 0 0.22539505D+00 0.26957557D-02 0.23544420D+05 0.23544420D+05 0.23544420D+05 0.12261006D+01  1  2  2  2  5  2       -1 0.390314852736D+00 0.100000000000D+01
-.306786703614D-04 0.000000000000D+00 -.212548842876D-05 0.215888299034D-02 0.000000000000D+00  5 2 -1 25 24 21 2 0.22539505D+00 0.26957557D-02 0.23544420D+05 0.23544420D+05 0.23544420D+05 0.12261006D+01  1  2  3  2  5  2       -1 -.325241612069D-01 0.100000000000D+01
0.381523122926D-04 0.000000000000D+00 0.000000000000D+00 0.215888299034D-02 0.000000000000D+00  5 2 -1 25 24 21 2 0.22539505D+00 0.26957557D-02 0.23544420D+05 0.23544420D+05 0.23544420D+05 0.12261006D+01  1  2 15  2  5  2       -1 0.404473838274D-01 0.100000000000D+01
-.957313287483D-04 0.000000000000D+00 0.000000000000D+00 0.215888299034D-02 0.000000000000D+00  5 2 -1 25 24 21 2 0.22539505D+00 0.26957557D-02 0.23544420D+05 0.23544420D+05 0.23544420D+05 0.12261006D+01  1  2  4  2  5  2       -1 -.101490094977D+00 0.100000000000D+01
0.156414185195D-04 0.000000000000D+00 0.000000000000D+00 0.215888299034D-02 0.441638057744D-03  5 2 -1 25 24 21 2 0.24278984D+00 0.27096350D-02 0.24521107D+05 0.24521107D+05 0.24521107D+05 0.12241992D+01  1  2 11  2  5  2       -1 0.143282697870D-01 0.100000000000D+01
0.877818203989D-06 0.000000000000D+00 0.000000000000D+00 0.215888299034D-02 0.441371690836D-06  5 2 21 25 24 1 2 0.24278984D+00 0.27096350D-02 0.24521107D+05 0.24521107D+05 0.24521107D+05 0.12241992D+01  1  2 11  4  5  2       -1 0.157610240663D-01 0.100000000000D+01
  </mgrwgt>
  </event>
  <event>
  4     66 0.48098993E-03 0.47709219E+02 0.75467711E-02 0.12404658E+00
        2 -1    0    0  501    0 0.00000000E+00 0.00000000E+00 0.28954207E+03 0.28954225E+03 0.32000000E+00 0.0000E+00 0.9000E+01
       -1 -1    0    0    0  501 0.00000000E+00 0.00000000E+00 -.15437862E+03 0.15437895E+03 0.32000000E+00 0.0000E+00 0.9000E+01
       25  1    1    2    0    0 -.11930080E+02 0.11846694E+02 -.12107505E+03 0.17483375E+03 0.12500000E+03 0.0000E+00 0.9000E+01
       24  1    1    2    0    0 0.11930080E+02 -.11846694E+02 0.25623850E+03 0.26908745E+03 0.80419002E+02 0.0000E+00 0.9000E+01
#aMCatNLO 1  0  0  1  2 0.32331992D+02 0.00000000D+00  -5  5  0 0.00000000D+00 0.00000000D+00 0.00000000D+00 0.00000000D+00 0.00000000D+00
  <mgrwgt>
 0.1391002880D+00    9    2    0
 0.211421896351708D+03 0.000000000000000D+00 0.000000000000000D+00 0.211421896351708D+03
 0.211421896351708D+03 0.000000000000000D+00 0.000000000000000D+00 -.211421896351708D+03
 0.222250699095955D+03 -.119300804178022D+02 0.118466942825928D+02 -.182996454240077D+03
 0.200593093607460D+03 0.119300804178022D+02 -.118466942825928D+02 0.182996454240077D+03
 0.000000000000000D+00 0.000000000000000D+00 0.000000000000000D+00 0.000000000000000D+00
 0.250706876975541D+03 0.000000000000000D+00 0.000000000000000D+00 0.250706876975541D+03
 0.218797622808415D+03 0.000000000000000D+00 0.000000000000000D+00 -.218797622808415D+03
 0.222832364584890D+03 -.232570504236176D+02 -.818564381123259D+00 -.182996454240077D+03
 0.201245730541918D+03 0.170363803046390D+01 -.232813972948485D+02 0.182996454240077D+03
 0.454264046571475D+02 0.215534123931537D+02 0.240999616759718D+02 0.319092541671260D+02
0.706212713678D-03 0.000000000000D+00 0.000000000000D+00 0.603721697094D-03 0.000000000000D+00  5 2 -1 25 24 21 0 0.44544973D-01 0.23750596D-01 0.10845484D+05 0.10845484D+05 0.10845484D+05 0.12642058D+01  1  2  2  1  5  1        2 0.134774758864D+00 0.100000000000D+01
-.153153088407D-04 0.000000000000D+00 -.271204277060D-05 0.603721697094D-03 0.000000000000D+00  5 2 -1 25 24 21 2 0.44544973D-01 0.23750596D-01 0.10845484D+05 0.10845484D+05 0.10845484D+05 0.12642058D+01  1  2  3  1  5  1        2 -.467126294083D-02 0.100000000000D+01
0.479254878938D-04 0.000000000000D+00 0.000000000000D+00 0.603721697094D-03 0.000000000000D+00  5 2 -1 25 24 21 2 0.44544973D-01 0.23750596D-01 0.10845484D+05 0.10845484D+05 0.10845484D+05 0.12642058D+01  1  2 15  1  5  1        2 0.146175671577D-01 0.100000000000D+01
0.174073083415D-02 0.000000000000D+00 0.000000000000D+00 0.603721697094D-03 0.000000000000D+00  5 2 -1 25 24 21 2 0.53499447D-01 0.23750596D-01 0.14788787D+05 0.14788787D+05 0.14788787D+05 0.12485252D+01  1  2 12  1  5  1        2 0.429001536676D+00 0.100000000000D+01
-.192262458201D-02 0.000000000000D+00 0.000000000000D+00 0.603721697094D-03 0.000000000000D+00  5 2 -1 25 24 21 2 0.44544973D-01 0.23750596D-01 0.10845484D+05 0.10845484D+05 0.10845484D+05 0.12642058D+01  1  2  4  1  5  1        2 -.586412265826D+00 0.100000000000D+01
-.244454445789D-02 0.000000000000D+00 -.593770020752D-03 0.603721697094D-03 0.000000000000D+00  5 2 -1 25 24 21 2 0.54228630D-01 0.23750596D-01 0.10845484D+05 0.10845484D+05 0.10845484D+05 0.12642058D+01  1  2  5  1  5  1        2 -.606398834025D+00 0.100000000000D+01
0.252366639717D-02 0.000000000000D+00 0.582464491514D-03 0.603721697094D-03 0.000000000000D+00  5 2 -1 25 24 21 2 0.44544973D-01 0.23750596D-01 0.10845484D+05 0.10845484D+05 0.10845484D+05 0.12642058D+01  1  2  6  1  5  1        2 0.769733698403D+00 0.100000000000D+01
0.465406025075D-04 0.000000000000D+00 0.000000000000D+00 0.603721697094D-03 0.000000000000D+00  5 21 -1 25 24 -2 2 0.53499447D-01 0.23750596D-01 0.14788787D+05 0.14788787D+05 0.14788787D+05 0.12485252D+01  1  2 12  3  5  1        2 0.336479883762D-01 0.100000000000D+01
-.624237344048D-04 0.000000000000D+00 -.167766602404D-04 0.603721697094D-03 0.000000000000D+00  5 21 -1 25 24 -2 2 0.54228630D-01 0.23750596D-01 0.10845484D+05 0.10845484D+05 0.10845484D+05 0.12642058D+01  1  2  5  3  5  1        2 -.451928986813D-01 0.100000000000D+01
  </mgrwgt>
  </event>
  <event>
  5     66 0.48098993E-03 0.12048320E+03 0.75467711E-02 0.11021230E+00
       21 -1    0    0  501  502 0.00000000E+00 0.00000000E+00 0.78869950E+02 0.78873515E+02 0.75000000E+00 0.0000E+00 0.9000E+01
       -1 -1    0    0    0  501 0.00000000E+00 0.00000000E+00 -.11720769E+04 0.11720769E+04 0.32000000E+00 0.0000E+00 0.9000E+01
       25  1    1    2    0    0 -.11714274E+03 -.48691159E+02 -.31750072E+03 0.36403977E+03 0.12500000E+03 0.0000E+00 0.9000E+01
       24  1    1    2    0    0 -.16187268E+02 -.11912191E+03 -.94471500E+02 0.17275456E+03 0.80419002E+02 0.0000E+00 0.9000E+01
       -2  1    1    2    0  502 0.13333001E+03 0.16781307E+03 -.68123473E+03 0.71415612E+03 0.32000000E+00 0.0000E+00 0.9000E+01
#aMCatNLO 2  0  0  1  2 0.21433179D+03 0.00000000D+00  -5  5  0 0.00000000D+00 0.00000000D+00 0.00000000D+00 0.00000000D+00 0.00000000D+00
  <mgrwgt>
 0.2752897598D-01    1    2    0
 0.134618838441169D+03 0.000000000000000D+00 0.000000000000000D+00 0.134618838441169D+03
 0.134618838441169D+03 0.000000000000000D+00 0.000000000000000D+00 -.134618838441169D+03
 0.151625715323470D+03 -.433702869078227D+02 0.441610169237032D+02 -.594489726164517D+02
 0.117611961558868D+03 0.433702869078227D+02 -.441610169237032D+02 0.594489726164517D+02
 0.000000000000000D+00 0.000000000000000D+00 0.000000000000000D+00 -.000000000000000D+00
 0.217447927260413D+03 0.000000000000000D+00 0.000000000000000D+00 0.217447927260413D+03
 0.425130929747437D+03 0.000000000000000D+00 0.000000000000000D+00 -.425130929747437D+03
 0.187756306363274D+03 -.117142738833093D+03 -.486911590815990D+02 -.594489726164517D+02
 0.156375997229689D+03 -.161872683727233D+02 -.119121906267012D+03 0.594489726164517D+02
 0.298446553414888D+03 0.133330007205816D+03 0.167813065348611D+03 -.207683002487024D+03
0.163751226595D-03 0.000000000000D+00 0.000000000000D+00 0.211531863719D-02 0.956881083159D-07  5 21 -1 25 24 -2 2 0.12134112D-01 0.18031974D+00 0.72109149D+05 0.72109149D+05 0.72109149D+05 0.11768469D+01  1  2  1  3  5  1        2 0.275289759823D-01 0.100000000000D+01
  </mgrwgt>
  </event>
  <event>
  4     66 0.48098993E-03 0.10394846E+03 0.75467711E-02 0.10718889E+00
        2 -1    0    0  501    0 0.00000000E+00 0.00000000E+00 0.15471225E+04 0.15471225E+04 0.32000000E+00 0.0000E+00 0.9000E+01
       -1 -1    0    0    0  501 0.00000000E+00 0.00000000E+00 -.96406724E+01 0.96459817E+01 0.32000000E+00 0.0000E+00 0.9000E+01
       25  1    1    2    0    0 -.10048627E+01 -.15596707E+02 0.12887582E+04 0.12949004E+04 0.12500000E+03 0.0000E+00 0.9000E+01
       24  1    1    2    0    0 0.10048627E+01 0.15596707E+02 0.24872363E+03 0.26186814E+03 0.80419002E+02 0.0000E+00 0.9000E+01
#aMCatNLO 1  0  0  1  2 0.29504106D+03 0.00000000D+00  -5  5  0 0.00000000D+00 0.00000000D+00 0.00000000D+00 0.00000000D+00 0.00000000D+00
  <mgrwgt>
 0.4323729607D+00    3    2    0
 0.122145240267219D+03 0.000000000000000D+00 0.000000000000000D+00 0.122145240267219D+03
 0.122145240267219D+03 0.000000000000000D+00 0.000000000000000D+00 -.122145240267219D+03
 0.140888876993453D+03 -.100486269862801D+01 -.155967065279956D+02 0.630904799229869D+02
 0.103401603540984D+03 0.100486269862801D+01 0.155967065279956D+02 -.630904799229869D+02
 0.000000000000000D+00 0.000000000000000D+00 -.000000000000000D+00 -.000000000000000D+00
 0.334301238151939D+03 0.000000000000000D+00 0.000000000000000D+00 0.334301238151939D+03
 0.343947158595097D+03 0.000000000000000D+00 0.000000000000000D+00 -.343947158595097D+03
 0.203643846501965D+03 -.567165428724054D+02 0.136560028287217D+03 0.630904799229869D+02
 0.179405848330024D+03 -.447257086954361D+02 0.140493575601958D+03 -.630904799229869D+02
 0.295198701915047D+03 0.101442251567842D+03 -.277053603889175D+03 -.964592044315753D+01
0.284393576119D-03 0.000000000000D+00 0.000000000000D+00 0.210739437473D-02 0.000000000000D+00  5 2 -1 25 24 21 0 0.23801926D+00 0.14835913D-02 0.10805282D+05 0.10805282D+05 0.10805282D+05 0.12643972D+01  1  2  2  1  5  1        2 0.422371069128D+00 0.100000000000D+01
-.152997447908D-04 0.000000000000D+00 -.109214621484D-05 0.210739437473D-02 0.000000000000D+00  5 2 -1 25 24 21 2 0.23801926D+00 0.14835913D-02 0.10805282D+05 0.10805282D+05 0.10805282D+05 0.12643972D+01  1  2  3  1  5  1        2 -.363266746346D-01 0.100000000000D+01
0.195122522754D-04 0.000000000000D+00 0.000000000000D+00 0.210739437473D-02 0.000000000000D+00  5 2 -1 25 24 21 2 0.23801926D+00 0.14835913D-02 0.10805282D+05 0.10805282D+05 0.10805282D+05 0.12643972D+01  1  2 15  1  5  1        2 0.463285662270D-01 0.100000000000D+01
  </mgrwgt>
  </event>
  <event>
  5     66 0.48098993E-03 0.11957935E+03 0.75467711E-02 0.11943022E+00
        2 -1    0    0  501    0 0.00000000E+00 0.00000000E+00 0.14903455E+04 0.14903456E+04 0.32000000E+00 0.0000E+00 0.9000E+01
       21 -1    0    0  502  501 0.00000000E+00 0.00000000E+00 -.23083605E+02 0.23095786E+02 0.75000000E+00 0.0000E+00 0.9000E+01
       25  1    1    2    0    0 0.61578376E+02 -.71949451E+02 0.58416321E+03 0.60484732E+03 0.12500000E+03 0.0000E+00 0.9000E+01
       24  1    1    2    0    0 -.68620295E+01 0.39926419E+02 0.16730733E+03 0.19000043E+03 0.80419002E+02 0.0000E+00 0.9000E+01
        1  1    1    2  502    0 -.54716347E+02 0.32023032E+02 0.71579140E+03 0.71859362E+03 0.32000000E+00 0.0000E+00 0.9000E+01
#aMCatNLO 2  0  0  2  2 0.63398369D+02 0.00000000D+00  -5  5  0 0.00000000D+00 0.00000000D+00 0.00000000D+00 0.00000000D+00 0.00000000D+00
  <mgrwgt>
 0.1292248996D+00    1    2    0
 0.125554391525076D+03 0.000000000000000D+00 0.000000000000000D+00 0.125554391525076D+03
 0.125554391525076D+03 0.000000000000000D+00 0.000000000000000D+00 -.125554391525076D+03
 0.143789086334218D+03 0.288503517908757D+02 -.527952012067909D+02 0.378236074417354D+02
 0.107319696715933D+03 -.288503517908757D+02 0.527952012067909D+02 -.378236074417354D+02
 0.000000000000000D+00 -.000000000000000D+00 0.000000000000000D+00 0.000000000000000D+00
 0.249614334681560D+03 0.000000000000000D+00 0.000000000000000D+00 0.249614334681560D+03
 0.137859460104774D+03 0.000000000000000D+00 0.000000000000000D+00 -.137859460104774D+03
 0.161320318770059D+03 0.615783762987037D+02 -.719494512875682D+02 0.378236074417354D+02
 0.976680480303990D+02 -.686202949851809D+01 0.399264188596067D+02 -.378236074417354D+02
 0.128485427985876D+03 -.547163468001856D+02 0.320230324279614D+02 0.111754874576786D+03
0.101084731023D-04 0.000000000000D+00 0.000000000000D+00 0.247304515096D-02 0.152436707994D-06  5 2 21 25 24 1 2 0.22928455D+00 0.35522587D-02 0.24066663D+05 0.24066663D+05 0.24066663D+05 0.12250732D+01  1  2  1  4  5  2       -1 0.129224899591D+00 0.100000000000D+01
  </mgrwgt>
  </event>
  <event>
  4     66 0.48098993E-03 0.91259141E+02 0.75467711E-02 0.11888597E+00
        2 -1    0    0  501    0 0.00000000E+00 0.00000000E+00 0.23174801E+04 0.23174801E+04 0.32000000E+00 0.0000E+00 0.9000E+01
       -1 -1    0    0    0  501 0.00000000E+00 0.00000000E+00 -.61801012E+01 0.61883803E+01 0.32000000E+00 0.0000E+00 0.9000E+01
       25  1    1    2    0    0 0.57905965E+02 -.87071684E+01 0.14850574E+04 0.14914588E+04 0.12500000E+03 0.0000E+00 0.9000E+01
       24  1    1    2    0    0 -.57905965E+02 0.87071684E+01 0.82624258E+03 0.83220967E+03 0.80419002E+02 0.0000E+00 0.9000E+01
#aMCatNLO 1  0  0  1  2 0.71681799D+02 0.00000000D+00  -5  5  0 0.00000000D+00 0.00000000D+00 0.00000000D+00 0.00000000D+00 0.00000000D+00
  <mgrwgt>
 0.4127801098D+00    9    2    0
 0.119715938759827D+03 0.000000000000000D+00 0.000000000000000D+00 0.119715938759827D+03
 0.119715938759827D+03 0.000000000000000D+00 0.000000000000000D+00 -.119715938759827D+03
 0.138839925382865D+03 0.579059645559326D+02 -.870716838679541D+01 0.149200994584659D+02
 0.100591952136789D+03 -.579059645559326D+02 0.870716838679541D+01 -.149200994584659D+02
 0.000000000000000D+00 -.000000000000000D+00 0.000000000000000D+00 0.000000000000000D+00
 0.200527670475993D+03 0.000000000000000D+00 0.000000000000000D+00 0.200527670475993D+03
 0.141966164115104D+03 0.000000000000000D+00 0.000000000000000D+00 -.141966164115104D+03
 0.155321650969657D+03 0.780070813526673D+02 -.468198798687873D+02 0.149200994584659D+02
 0.946101483613289D+02 -.445671040911029D+02 -.165839706845015D+02 -.149200994584659D+02
 0.925620352601112D+02 -.334399772615644D+02 0.634038505532888D+02 0.585615063608883D+02
0.292114623764D-03 0.000000000000D+00 0.000000000000D+00 0.275126801693D-02 0.000000000000D+00  5 2 -1 25 24 21 0 0.35653603D+00 0.95142335D-03 0.14103370D+05 0.14103370D+05 0.14103370D+05 0.12508857D+01  1  2  2  1  5  1        2 0.332442242621D+00 0.100000000000D+01
-.162273156080D-04 0.000000000000D+00 -.112179707080D-05 0.275126801693D-02 0.000000000000D+00  5 2 -1 25 24 21 2 0.35653603D+00 0.95142335D-03 0.14103370D+05 0.14103370D+05 0.14103370D+05 0.12508857D+01  1  2  3  1  5  1        2 -.288964755921D-01 0.100000000000D+01
0.202064951553D-04 0.000000000000D+00 0.000000000000D+00 0.275126801693D-02 0.000000000000D+00  5 2 -1 25 24 21 2 0.35653603D+00 0.95142335D-03 0.14103370D+05 0.14103370D+05 0.14103370D+05 0.12508857D+01  1  2 15  1  5  1        2 0.359823219171D-01 0.100000000000D+01
0.653391078919D-04 0.000000000000D+00 0.000000000000D+00 0.275126801693D-02 0.000000000000D+00  5 2 -1 25 24 21 2 0.61177353D+00 0.95142335D-03 0.25553856D+05 0.25553856D+05 0.25553856D+05 0.12222787D+01  1  2 12  1  5  1        2 0.108208432294D-01 0.100000000000D+01
-.158877995943D-03 0.000000000000D+00 0.000000000000D+00 0.275126801693D-02 0.000000000000D+00  5 2 -1 25 24 21 2 0.35653603D+00 0.95142335D-03 0.14103370D+05 0.14103370D+05 0.14103370D+05 0.12508857D+01  1  2  4  1  5  1        2 -.282918890763D+00 0.100000000000D+01
-.190308135076D-03 0.000000000000D+00 -.791683648218D-04 0.275126801693D-02 0.000000000000D+00  5 2 -1 25 24 21 2 0.61745491D+00 0.95142335D-03 0.14103370D+05 0.14103370D+05 0.14103370D+05 0.12508857D+01  1  2  5  1  5  1        2 -.315296144304D-01 0.100000000000D+01
0.211659672067D-03 0.000000000000D+00 0.685664568532D-04 0.275126801693D-02 0.000000000000D+00  5 2 -1 25 24 21 2 0.35653603D+00 0.95142335D-03 0.14103370D+05 0.14103370D+05 0.14103370D+05 0.12508857D+01  1  2  6  1  5  1        2 0.376908830485D+00 0.100000000000D+01
0.391999354155D-05 0.000000000000D+00 0.000000000000D+00 0.275126801693D-02 0.000000000000D+00  5 21 -1 25 24 -2 2 0.61177353D+00 0.95142335D-03 0.25553856D+05 0.25553856D+05 0.25553856D+05 0.12222787D+01  1  2 12  3  5  1        2 0.296269235431D-04 0.100000000000D+01
-.763299574751D-05 0.000000000000D+00 -.481700179007D-05 0.275126801693D-02 0.000000000000D+00  5 21 -1 25 24 -2 2 0.61745491D+00 0.95142335D-03 0.14103370D+05 0.14103370D+05 0.14103370D+05 0.12508857D+01  1  2  5  3  5  1        2 -.587745697953D-04 0.100000000000D+01
  </mgrwgt>
  </event>
  <event>
  5     66 -.48098993E-03 0.17855243E+03 0.75467711E-02 0.11658676E+00
        2 -1    0    0  502    0 0.00000000E+00 0.00000000E+00 0.29984552E+03 0.29984569E+03 0.32000000E+00 0.0000E+00 0.9000E+01
       -1 -1    0    0    0  501 0.00000000E+00 0.00000000E+00 -.11194426E+03 0.11194472E+03 0.32000000E+00 0.0000E+00 0.9000E+01
       25  1    1    2    0    0 -.14409089E+03 -.26093300E+02 0.12254896E+03 0.22822422E+03 0.12500000E+03 0.0000E+00 0.9000E+01
       24  1    1    2    0    0 0.14012225E+03 0.31688982E+02 0.62710650E+02 0.17617684E+03 0.80419002E+02 0.0000E+00 0.9000E+01
       21  1    1    2  502  501 0.39686395E+01 -.55956813E+01 0.26416508E+01 0.73893550E+01 0.75000000E+00 0.0000E+00 0.9000E+01
#aMCatNLO 2  0  0  1  2 0.68601566D+01 0.00000000D+00  -5  5  0 0.00000000D+00 0.00000000D+00 0.00000000D+00 0.00000000D+00 0.00000000D+00
  <mgrwgt>
 -.2683036962D+00    3    2    0
 0.179702552491728D+03 0.000000000000000D+00 0.000000000000000D+00 0.179702552491728D+03
 0.179702552491728D+03 0.000000000000000D+00 0.000000000000000D+00 -.179702552491728D+03
 0.192442749999567D+03 -.141959739133520D+03 -.290981720918581D+02 0.202469966526239D+02
 0.166962354983889D+03 0.141959739133520D+03 0.290981720918581D+02 -.202469966526239D+02
 0.000000000000000D+00 0.000000000000000D+00 -.000000000000000D+00 -.000000000000000D+00
 0.182772602323983D+03 0.000000000000000D+00 0.000000000000000D+00 0.182772602323983D+03
 0.183608913718788D+03 0.000000000000000D+00 0.000000000000000D+00 -.183608913718788D+03
 0.193592320039289D+03 -.144090892085048D+03 -.260933003446869D+02 0.202469966526239D+02
 0.165878250711979D+03 0.140122252608926D+03 0.316889816063051D+02 -.202469966526239D+02
 0.691094529150270D+01 0.396863947612236D+01 -.559568126161828D+01 -.836311394804926D+00
-.130909693756D-02 0.000000000000D+00 0.000000000000D+00 0.220870032341D-02 0.000000000000D+00  5 2 -1 25 24 21 2 0.46608502D-01 0.16853964D-01 0.33129230D+05 0.33129230D+05 0.33129230D+05 0.12104018D+01  1  2 13  1  5  1        2 -.617869352335D+00 0.100000000000D+01
-.243639312083D-02 0.000000000000D+00 0.000000000000D+00 0.220870032341D-02 0.000000000000D+00  5 2 -1 25 24 21 2 0.45350252D-01 0.16853964D-01 0.31880969D+05 0.31880969D+05 0.31880969D+05 0.12121363D+01  1  2  8  1  5  1        2 -.118658096716D+01 0.100000000000D+01
0.333085044165D-02 0.000000000000D+00 0.000000000000D+00 0.220870032341D-02 0.366836621294D-03  5 2 -1 25 24 21 2 0.46125019D-01 0.17220335D-01 0.33129230D+05 0.33129230D+05 0.33129230D+05 0.12104018D+01  1  2  1  1  5  1        2 0.153614662325D+01 0.100000000000D+01
  </mgrwgt>
  </event>
  <event>
  4     66 0.48098993E-03 0.11768562E+03 0.75467711E-02 0.11976731E+00
        4 -1    0    0  501    0 0.00000000E+00 0.00000000E+00 0.13372651E+03 0.13373549E+03 0.15500000E+01 0.0000E+00 0.9000E+01
       -3 -1    0    0    0  501 0.00000000E+00 0.00000000E+00 -.10618429E+03 0.10618546E+03 0.50000000E+00 0.0000E+00 0.9000E+01
       25  1    1    2    0    0 -.19878634E+02 -.52792923E+02 0.34597063E+02 0.14143624E+03 0.12500000E+03 0.0000E+00 0.9000E+01
       24  1    1    2    0    0 0.19878634E+02 0.52792923E+02 -.70548403E+01 0.98484717E+02 0.80419002E+02 0.0000E+00 0.9000E+01
#aMCatNLO 1  0  0  1  1 0.61307311D+02 0.00000000D+00  -5  5  0 0.00000000D+00 0.00000000D+00 0.00000000D+00 0.00000000D+00 0.00000000D+00
  <mgrwgt>
 0.4914016985D-01    4    2    0
 0.119167414789909D+03 0.000000000000000D+00 0.000000000000000D+00 0.119167414789909D+03
 0.119167414789909D+03 0.000000000000000D+00 0.000000000000000D+00 -.119167414789909D+03
 0.138379428539168D+03 -.198786343307988D+02 -.527929227576517D+02 0.184827878490664D+02
 0.999554010406497D+02 0.198786343307988D+02 0.527929227576517D+02 -.184827878490664D+02
 0.000000000000000D+00 -.000000000000000D+00 -.000000000000000D+00 -.000000000000000D+00
 0.134100033614044D+03 0.000000000000000D+00 0.000000000000000D+00 0.134100033614044D+03
 0.208057968529916D+03 0.000000000000000D+00 0.000000000000000D+00 -.208057968529916D+03
 0.128553915022603D+03 -.130930746890763D+02 -.196994166449488D+02 0.184827878490664D+02
 0.117539720417364D+03 0.254074532439577D+02 0.797572428962043D+02 -.184827878490664D+02
 0.960643667039934D+02 -.123143785548814D+02 -.600578262512555D+02 -.739579349158722D+02
0.432344620078D-03 0.000000000000D+00 0.000000000000D+00 0.274122686664D-02 0.000000000000D+00  5 4 -3 25 24 21 0 0.20574091D-01 0.16336826D-01 0.13849906D+05 0.13849906D+05 0.13849906D+05 0.12517915D+01  1  2  2  1  5  1        4 0.561435724653D-01 0.100000000000D+01
-.240145733466D-04 0.000000000000D+00 -.166031718005D-05 0.274122686664D-02 0.000000000000D+00  5 4 -3 25 24 21 2 0.20574091D-01 0.16336826D-01 0.13849906D+05 0.13849906D+05 0.13849906D+05 0.12517915D+01  1  2  3  1  5  1        4 -.488662310866D-02 0.100000000000D+01
0.299057259331D-04 0.000000000000D+00 0.000000000000D+00 0.274122686664D-02 0.000000000000D+00  5 4 -3 25 24 21 2 0.20574091D-01 0.16336826D-01 0.13849906D+05 0.13849906D+05 0.13849906D+05 0.12517915D+01  1  2 15  1  5  1        4 0.608538862285D-02 0.100000000000D+01
-.403083200569D-04 0.000000000000D+00 0.000000000000D+00 0.274122686664D-02 0.000000000000D+00  5 4 -3 25 24 21 2 0.20574091D-01 0.16336826D-01 0.13849906D+05 0.13849906D+05 0.13849906D+05 0.12517915D+01  1  2  4  1  5  1        4 -.820216813427D-02 0.100000000000D+01
  </mgrwgt>
  </event>
  <event>
  5     66 0.48098993E-03 0.14402010E+03 0.75467711E-02 0.11953473E+00
       21 -1    0    0  501  502 0.00000000E+00 0.00000000E+00 0.10178718E+04 0.10178721E+04 0.75000000E+00 0.0000E+00 0.9000E+01
       -3 -1    0    0    0  501 0.00000000E+00 0.00000000E+00 -.27395938E+02 0.27400501E+02 0.50000000E+00 0.0000E+00 0.9000E+01
       25  1    1    2    0    0 0.97654262E+00 0.91603226E+02 0.36897548E+03 0.40019996E+03 0.12500000E+03 0.0000E+00 0.9000E+01
       24  1    1    2    0    0 0.12169274E+02 -.10627255E+03 0.60409647E+03 0.61874204E+03 0.80419002E+02 0.0000E+00 0.9000E+01
       -4  1    1    2    0  502 -.13145817E+02 0.14669325E+02 0.17403958E+02 0.26330626E+02 0.15500000E+01 0.0000E+00 0.9000E+01
#aMCatNLO 2  0  0  1  2 0.19697756D+02 0.00000000D+00  -5  5  0 0.00000000D+00 0.00000000D+00 0.00000000D+00 0.00000000D+00 0.00000000D+00
  <mgrwgt>
 0.7343028593D-02    1    2    0
 0.150819241103382D+03 0.000000000000000D+00 0.000000000000000D+00 0.150819241103382D+03
 0.150819241103382D+03 0.000000000000000D+00 0.000000000000000D+00 -.150819241103382D+03
 0.165999306953455D+03 -.614671678625207D+01 0.995520214040569D+02 -.445239577771705D+02
 0.135639175253309D+03 0.614671678625207D+01 -.995520214040569D+02 0.445239577771705D+02
 0.000000000000000D+00 -.000000000000000D+00 0.000000000000000D+00 -.000000000000000D+00
 0.154440707707395D+03 0.000000000000000D+00 0.000000000000000D+00 0.154440707707395D+03
 0.180532484658119D+03 0.000000000000000D+00 0.000000000000000D+00 -.180532484658119D+03
 0.161243565731358D+03 0.976542622022088D+00 0.916032261338371D+02 -.445239577771705D+02
 0.141037388898173D+03 0.121692740461599D+02 -.106272550858112D+03 0.445239577771705D+02
 0.326922377359834D+02 -.131458166681820D+02 0.146693247242753D+02 -.260917769507248D+02
0.124215722144D-04 0.000000000000D+00 0.000000000000D+00 0.221125206395D-02 0.216231258265D-06  5 21 -3 25 24 -4 2 0.15657774D+00 0.42146393D-02 0.23792662D+05 0.23792662D+05 0.23792662D+05 0.12256091D+01  1  2  1  3  5  1        4 0.734302859274D-02 0.100000000000D+01
  </mgrwgt>
  </event>
  <event>
  4     66 0.48098993E-03 0.13693663E+03 0.75467711E-02 0.11993840E+00
        2 -1    0    0  501    0 0.00000000E+00 0.00000000E+00 0.11454134E+04 0.11454135E+04 0.32000000E+00 0.0000E+00 0.9000E+01
       -1 -1    0    0    0  501 0.00000000E+00 0.00000000E+00 -.20536736E+02 0.20539229E+02 0.32000000E+00 0.0000E+00 0.9000E+01
       25  1    1    2    0    0 0.59073853E+02 0.67047274E+02 0.35614864E+03 0.38788131E+03 0.12500000E+03 0.0000E+00 0.9000E+01
       24  1    1    2    0    0 -.59073853E+02 -.67047274E+02 0.76872803E+03 0.77807137E+03 0.80419002E+02 0.0000E+00 0.9000E+01
#aMCatNLO 1  0  0  1  1 0.26429376D+02 0.00000000D+00  -5  5  0 0.00000000D+00 0.00000000D+00 0.00000000D+00 0.00000000D+00 0.00000000D+00
  <mgrwgt>
 0.1076978367D+00    4    2    0
 0.153377092985747D+03 0.000000000000000D+00 0.000000000000000D+00 0.153377092985747D+03
 0.153377092985747D+03 0.000000000000000D+00 0.000000000000000D+00 -.153377092985747D+03
 0.168304002648979D+03 0.590738528480645D+02 0.670472744975086D+02 -.686744508518879D+02
 0.138450183322515D+03 -.590738528480645D+02 -.670472744975086D+02 0.686744508518879D+02
 0.000000000000000D+00 -.000000000000000D+00 0.000000000000000D+00 -.000000000000000D+00
 0.162706149292888D+03 0.000000000000000D+00 0.000000000000000D+00 0.162706149292888D+03
 0.173878123283159D+03 0.000000000000000D+00 0.000000000000000D+00 -.173878123283159D+03
 0.164630484253635D+03 0.627044669460201D+02 0.531993042322321D+02 -.686744508518879D+02
 0.143260149743401D+03 -.560018325347466D+02 -.787646437373587D+02 0.686744508518879D+02
 0.286936385790105D+02 -.670263441127349D+01 0.255653395051267D+02 -.111719739902715D+02
0.519190567162D-03 0.000000000000D+00 0.000000000000D+00 0.194480867544D-02 0.000000000000D+00  5 2 -1 25 24 21 0 0.17621764D+00 0.31596931D-02 0.18751639D+05 0.18751639D+05 0.18751639D+05 0.12369195D+01  1  2  2  1  5  1        2 0.430890810257D+00 0.100000000000D+01
-.283930842074D-04 0.000000000000D+00 -.199382848392D-05 0.194480867544D-02 0.000000000000D+00  5 2 -1 25 24 21 2 0.17621764D+00 0.31596931D-02 0.18751639D+05 0.18751639D+05 0.18751639D+05 0.12369195D+01  1  2  3  1  5  1        2 -.360525431686D-01 0.100000000000D+01
0.358656656893D-04 0.000000000000D+00 0.000000000000D+00 0.194480867544D-02 0.000000000000D+00  5 2 -1 25 24 21 2 0.17621764D+00 0.31596931D-02 0.18751639D+05 0.18751639D+05 0.18751639D+05 0.12369195D+01  1  2 15  1  5  1        2 0.455409652256D-01 0.100000000000D+01
-.262002345742D-03 0.000000000000D+00 0.000000000000D+00 0.194480867544D-02 0.000000000000D+00  5 2 -1 25 24 21 2 0.17621764D+00 0.31596931D-02 0.18751639D+05 0.18751639D+05 0.18751639D+05 0.12369195D+01  1  2  4  1  5  1        2 -.332681395623D+00 0.100000000000D+01
  </mgrwgt>
  </event>
  <event>
  4     66 0.48098993E-03 0.16989312E+03 0.75467711E-02 0.10394300E+00
        2 -1    0    0  501    0 0.00000000E+00 0.00000000E+00 0.95227984E+02 0.95228521E+02 0.32000000E+00 0.0000E+00 0.9000E+01
       -1 -1    0    0    0  501 0.00000000E+00 0.00000000E+00 -.30510981E+03 0.30510998E+03 0.32000000E+00 0.0000E+00 0.9000E+01
       25  1    1    2    0    0 -.12583669E+03 0.46521950E+02 -.12940795E+03 0.22443391E+03 0.12500000E+03 0.0000E+00 0.9000E+01
       24  1    1    2    0    0 0.12583669E+03 -.46521950E+02 -.80473874E+02 0.17590459E+03 0.80419002E+02 0.0000E+00 0.9000E+01
#aMCatNLO 1  0  0  2  1 0.34302553D+03 0.00000000D+00  -5  5  0 0.00000000D+00 0.00000000D+00 0.00000000D+00 0.00000000D+00 0.00000000D+00
  <mgrwgt>
 0.4512572118D+00    3    2    0
 0.170455663626313D+03 0.000000000000000D+00 0.000000000000000D+00 0.170455663626313D+03
 0.170455663626313D+03 0.000000000000000D+00 0.000000000000000D+00 -.170455663626313D+03
 0.183886992117847D+03 -.125836685180634D+03 0.465219499665310D+02 -.137935747437185D+02
 0.157024335134779D+03 0.125836685180634D+03 -.465219499665310D+02 0.137935747437185D+02
 0.000000000000000D+00 -.000000000000000D+00 0.000000000000000D+00 0.000000000000000D+00
 0.961601585050287D+03 0.000000000000000D+00 0.000000000000000D+00 0.961601585050287D+03
 0.282677568890114D+03 0.000000000000000D+00 0.000000000000000D+00 -.282677568890114D+03
 0.128286559498836D+03 0.227964129646701D+01 0.252384999434845D+02 -.137935747437185D+02
 0.355332137499111D+03 0.336108275392799D+03 -.814535235185328D+02 0.137935747437185D+02
 0.760660456942455D+03 -.338387916689266D+03 0.562150235750483D+02 0.678924016160173D+03
0.213559001539D-02 0.000000000000D+00 0.000000000000D+00 0.226432108233D-02 0.000000000000D+00  5 2 -1 25 24 21 0 0.14650513D-01 0.46940025D-01 0.28863674D+05 0.28863674D+05 0.28863674D+05 0.12166624D+01  1  2  2  2  5  2       -1 0.442472291706D+00 0.100000000000D+01
-.118642313426D-03 0.000000000000D+00 -.820122797287D-05 0.226432108233D-02 0.000000000000D+00  5 2 -1 25 24 21 2 0.14650513D-01 0.46940025D-01 0.28863674D+05 0.28863674D+05 0.28863674D+05 0.12166624D+01  1  2  3  2  5  2       -1 -.363871436435D-01 0.100000000000D+01
0.147286035752D-03 0.000000000000D+00 0.000000000000D+00 0.226432108233D-02 0.000000000000D+00  5 2 -1 25 24 21 2 0.14650513D-01 0.46940025D-01 0.28863674D+05 0.28863674D+05 0.28863674D+05 0.12166624D+01  1  2 15  2  5  2       -1 0.451720637000D-01 0.100000000000D+01
  </mgrwgt>
  </event>
  <event>
  4     66 0.48098993E-03 0.10455510E+03 0.75467711E-02 0.12481822E+00
        2 -1    0    0  501    0 0.00000000E+00 0.00000000E+00 0.13018724E+04 0.13018725E+04 0.32000000E+00 0.0000E+00 0.9000E+01
       -1 -1    0    0    0  501 0.00000000E+00 0.00000000E+00 -.85117390E+01 0.85177521E+01 0.32000000E+00 0.0000E+00 0.9000E+01
       25  1    1    2    0    0 0.61554539E+01 0.18090071E+02 0.85562920E+03 0.86492281E+03 0.12500000E+03 0.0000E+00 0.9000E+01
       24  1    1    2    0    0 -.61554539E+01 -.18090071E+02 0.43773151E+03 0.44546743E+03 0.80419002E+02 0.0000E+00 0.9000E+01
#aMCatNLO 1  0  0  2  2 0.23509683D+02 0.00000000D+00  -5  5  0 0.00000000D+00 0.00000000D+00 0.00000000D+00 0.00000000D+00 0.00000000D+00
  <mgrwgt>
 0.3931625189D+00    4    2    0
 0.105286105428235D+03 0.000000000000000D+00 0.000000000000000D+00 0.105286105428235D+03
 0.105286105428235D+03 0.000000000000000D+00 0.000000000000000D+00 -.105286105428235D+03
 0.127031102093231D+03 0.615545392037922D+01 0.180900707012435D+02 0.121144800994046D+02
 0.835411087632389D+02 -.615545392037922D+01 -.180900707012435D+02 -.121144800994046D+02
 0.000000000000000D+00 -.000000000000000D+00 0.000000000000000D+00 0.000000000000000D+00
 0.146701056430845D+03 0.000000000000000D+00 0.000000000000000D+00 0.146701056430845D+03
 0.109330199612232D+03 0.000000000000000D+00 0.000000000000000D+00 -.109330199612232D+03
 0.127615241832688D+03 0.190701730987898D+02 0.122563378673545D+02 0.121144800994046D+02
 0.842652933672125D+02 0.235506512514334D+01 -.219343737560323D+02 -.121144800994046D+02
 0.441507208431761D+02 -.214252382239331D+02 0.967803588867785D+01 0.373708568186126D+02
0.180142094169D-03 0.000000000000D+00 0.000000000000D+00 0.311905552401D-02 0.000000000000D+00  5 2 -1 25 24 21 0 0.20028853D+00 0.13099639D-02 0.10931768D+05 0.10931768D+05 0.10931768D+05 0.12637975D+01  1  2  2  2  5  2       -1 0.428695769439D+00 0.100000000000D+01
-.100073034427D-04 0.000000000000D+00 -.691793074112D-06 0.311905552401D-02 0.000000000000D+00  5 2 -1 25 24 21 2 0.20028853D+00 0.13099639D-02 0.10931768D+05 0.10931768D+05 0.10931768D+05 0.12637975D+01  1  2  3  2  5  2       -1 -.380369787255D-01 0.100000000000D+01
0.124664407548D-04 0.000000000000D+00 0.000000000000D+00 0.311905552401D-02 0.000000000000D+00  5 2 -1 25 24 21 2 0.20028853D+00 0.13099639D-02 0.10931768D+05 0.10931768D+05 0.10931768D+05 0.12637975D+01  1  2 15  2  5  2       -1 0.473839675681D-01 0.100000000000D+01
-.118077247171D-04 0.000000000000D+00 0.000000000000D+00 0.311905552401D-02 0.000000000000D+00  5 2 -1 25 24 21 2 0.20028853D+00 0.13099639D-02 0.10931768D+05 0.10931768D+05 0.10931768D+05 0.12637975D+01  1  2  4  2  5  2       -1 -.448802393605D-01 0.100000000000D+01
  </mgrwgt>
  </event>
  <event>
  5     66 0.48098993E-03 0.10714319E+03 0.75467711E-02 0.11485151E+00
       21 -1    0    0  501  502 0.00000000E+00 0.00000000E+00 0.79387076E+02 0.79390618E+02 0.75000000E+00 0.0000E+00 0.9000E+01
       -1 -1    0    0    0  501 0.00000000E+00 0.00000000E+00 -.54281148E+03 0.54281157E+03 0.32000000E+00 0.0000E+00 0.9000E+01
       25  1    1    2    0    0 -.24556976E+02 -.87324518E+02 -.17338016E+03 0.23219452E+03 0.12500000E+03 0.0000E+00 0.9000E+01
       24  1    1    2    0    0 0.33362962E+02 -.56878362E+02 -.18194826E+03 0.20957247E+03 0.80419002E+02 0.0000E+00 0.9000E+01
       -2  1    1    2    0  502 -.88059866E+01 0.14420288E+03 -.10809598E+03 0.18043520E+03 0.32000000E+00 0.0000E+00 0.9000E+01
#aMCatNLO 2  0  0  1  1 0.14447151D+03 0.00000000D+00  -5  5  0 0.00000000D+00 0.00000000D+00 0.00000000D+00 0.00000000D+00 0.00000000D+00
  <mgrwgt>
 0.6714284656D-01    1    2    0
 0.109576200469136D+03 0.000000000000000D+00 0.000000000000000D+00 0.109576200469136D+03
 0.109576200469136D+03 0.000000000000000D+00 0.000000000000000D+00 -.109576200469136D+03
 0.130469843446401D+03 -.297960551416200D+02 -.153170924338904D+01 0.225217453524315D+02
 0.886825574918712D+02 0.297960551416200D+02 0.153170924338904D+01 -.225217453524315D+02
 0.000000000000000D+00 -.000000000000000D+00 0.000000000000000D+00 0.000000000000000D+00
 0.241079760379524D+03 0.000000000000000D+00 0.000000000000000D+00 0.241079760379524D+03
 0.178751115506961D+03 0.000000000000000D+00 0.000000000000000D+00 -.178751115506961D+03
 0.156079612952916D+03 -.245569758542297D+02 -.873245183365308D+02 0.225217453524315D+02
 0.106408083726836D+03 0.333629624057828D+02 -.568783619123941D+02 -.225217453524315D+02
 0.157343179206733D+03 -.880598655155312D+01 0.144202880248925D+03 0.623286448725628D+02
0.587811203404D-04 0.000000000000D+00 0.000000000000D+00 0.291632531002D-02 0.276404382770D-06  5 21 -1 25 24 -2 2 0.12213666D-01 0.83509669D-01 0.40585130D+05 0.40585130D+05 0.40585130D+05 0.12013603D+01  1  2  1  3  5  1        2 0.671428465607D-01 0.100000000000D+01
  </mgrwgt>
  </event>
  <event>
  5     66 0.48098993E-03 0.10506985E+03 0.75467711E-02 0.11940116E+00
        2 -1    0    0  501    0 0.00000000E+00 0.00000000E+00 0.50233569E+03 0.50233580E+03 0.32000000E+00 0.0000E+00 0.9000E+01
       21 -1    0    0  502  501 0.00000000E+00 0.00000000E+00 -.48864131E+02 0.48869887E+02 0.75000000E+00 0.0000E+00 0.9000E+01
       25  1    1    2    0    0 0.46773406E+02 -.23858464E+02 0.17041699E+03 0.21777036E+03 0.12500000E+03 0.0000E+00 0.9000E+01
       24  1    1    2    0    0 0.37451275E+02 0.19598501E+02 0.12855162E+03 0.15741485E+03 0.80419002E+02 0.0000E+00 0.9000E+01
        1  1    1    2  502    0 -.84224681E+02 0.42599626E+01 0.15450295E+03 0.17602047E+03 0.32000000E+00 0.0000E+00 0.9000E+01
#aMCatNLO 2  0  0  2  1 0.84332344D+02 0.00000000D+00  -5  5  0 0.00000000D+00 0.00000000D+00 0.00000000D+00 0.00000000D+00 0.00000000D+00
  <mgrwgt>
 0.1028154352D+00    1    2    0
 0.105201905361636D+03 0.000000000000000D+00 0.000000000000000D+00 0.105201905361636D+03
 0.105201905361636D+03 0.000000000000000D+00 0.000000000000000D+00 -.105201905361636D+03
 0.126964305990572D+03 -.383750862684931D+01 -.212986369760949D+02 -.515524840982820D+01
 0.834395047326996D+02 0.383750862684931D+01 0.212986369760949D+02 0.515524840982820D+01
 0.000000000000000D+00 -.000000000000000D+00 0.000000000000000D+00 0.000000000000000D+00
 0.168904417559525D+03 0.000000000000000D+00 0.000000000000000D+00 0.168904417559525D+03
 0.145334969323240D+03 0.000000000000000D+00 0.000000000000000D+00 -.145334969323240D+03
 0.135678127809294D+03 0.467734057189812D+02 -.238584638465178D+02 -.515524840982820D+01
 0.909972077658678D+02 0.374512754021013D+02 0.195985012539963D+02 0.515524840982820D+01
 0.875640513076034D+02 -.842246811210826D+02 0.425996259252150D+01 0.235694482362842D+02
0.662993037466D-05 0.000000000000D+00 0.000000000000D+00 0.315001836322D-02 0.295578985212D-06  5 2 21 25 24 1 2 0.77282718D-01 0.75179949D-02 0.24143497D+05 0.24143497D+05 0.24143497D+05 0.12249242D+01  1  2  1  4  5  2       -1 0.102815435214D+00 0.100000000000D+01
  </mgrwgt>
  </event>
  <event>
  4     66 0.48098993E-03 0.13472967E+03 0.75467711E-02 0.11640470E+00
        2 -1    0    0  501    0 0.00000000E+00 0.00000000E+00 0.11510597E+04 0.11510597E+04 0.32000000E+00 0.0000E+00 0.9000E+01
       -1 -1    0    0    0  501 0.00000000E+00 0.00000000E+00 -.17386482E+02 0.17389427E+02 0.32000000E+00 0.0000E+00 0.9000E+01
       25  1    1    2    0    0 0.64635367E+02 0.56718630E+02 0.80860707E+03 0.82271813E+03 0.12500000E+03 0.0000E+00 0.9000E+01
       24  1    1    2    0    0 -.64635367E+02 -.56718630E+02 0.32506614E+03 0.34573103E+03 0.80419002E+02 0.0000E+00 0.9000E+01
#aMCatNLO 1  0  0  1  1 0.86133531D+02 0.00000000D+00  -5  5  0 0.00000000D+00 0.00000000D+00 0.00000000D+00 0.00000000D+00 0.00000000D+00
  <mgrwgt>
 0.5088076295D+00    3    2    0
 0.141473054506540D+03 0.000000000000000D+00 0.000000000000000D+00 0.141473054506540D+03
 0.141473054506540D+03 0.000000000000000D+00 0.000000000000000D+00 -.141473054506540D+03
 0.157655966647605D+03 0.646353674747637D+02 0.567186299285113D+02 0.428447209119798D+02
 0.125290142365476D+03 -.646353674747637D+02 -.567186299285113D+02 -.428447209119798D+02
 0.000000000000000D+00 -.000000000000000D+00 -.000000000000000D+00 -.000000000000000D+00
 0.157222675913512D+03 0.000000000000000D+00 0.000000000000000D+00 0.157222675913512D+03
 0.346470091636413D+03 0.000000000000000D+00 0.000000000000000D+00 -.346470091636413D+03
 0.190975061230397D+03 0.103252191089060D+03 0.913771795211283D+02 0.428447209119798D+02
 0.104790869437266D+03 -.391499770783170D+02 -.338455247823012D+02 -.428447209119798D+02
 0.207926836882262D+03 -.641022140107432D+02 -.575316547388270D+02 -.189247415722900D+03
0.475044216363D-03 0.000000000000D+00 0.000000000000D+00 0.227999083541D-02 0.000000000000D+00  5 2 -1 25 24 21 0 0.17708634D+00 0.26750733D-02 0.18152083D+05 0.18152083D+05 0.18152083D+05 0.12384884D+01  1  2  2  1  5  1        2 0.498274333894D+00 0.100000000000D+01
-.263148075805D-04 0.000000000000D+00 -.182429487285D-05 0.227999083541D-02 0.000000000000D+00  5 2 -1 25 24 21 2 0.17708634D+00 0.26750733D-02 0.18152083D+05 0.18152083D+05 0.18152083D+05 0.12384884D+01  1  2  3  1  5  1        2 -.423368509970D-01 0.100000000000D+01
0.328618615419D-04 0.000000000000D+00 0.000000000000D+00 0.227999083541D-02 0.000000000000D+00  5 2 -1 25 24 21 2 0.17708634D+00 0.26750733D-02 0.18152083D+05 0.18152083D+05 0.18152083D+05 0.12384884D+01  1  2 15  1  5  1        2 0.528701466400D-01 0.100000000000D+01
  </mgrwgt>
  </event>
  <event>
  5     66 0.48098993E-03 0.13231754E+03 0.75467711E-02 0.11158010E+00
        2 -1    0    0  501    0 0.00000000E+00 0.00000000E+00 0.10329473E+03 0.10329523E+03 0.32000000E+00 0.0000E+00 0.9000E+01
       21 -1    0    0  502  501 0.00000000E+00 0.00000000E+00 -.94249779E+03 0.94249809E+03 0.75000000E+00 0.0000E+00 0.9000E+01
       25  1    1    2    0    0 0.86428039E+02 0.98290130E+02 -.43732304E+02 0.18619417E+03 0.12500000E+03 0.0000E+00 0.9000E+01
       24  1    1    2    0    0 0.86034450E+02 -.68313396E+02 -.22609058E+03 0.26391820E+03 0.80419002E+02 0.0000E+00 0.9000E+01
        1  1    1    2  502    0 -.17246249E+03 -.29976735E+02 -.56938017E+03 0.59568095E+03 0.32000000E+00 0.0000E+00 0.9000E+01
#aMCatNLO 2  0  0  2  1 0.17504832D+03 0.00000000D+00  -5  5  0 0.00000000D+00 0.00000000D+00 0.00000000D+00 0.00000000D+00 0.00000000D+00
  <mgrwgt>
 0.4898926515D-01    1    2    0
 0.157444307499282D+03 0.000000000000000D+00 0.000000000000000D+00 0.157444307499282D+03
 0.157444307499282D+03 0.000000000000000D+00 0.000000000000000D+00 -.157444307499282D+03
 0.171985614503461D+03 -.855867152584882D+01 0.817799230699734D+02 0.848106415523126D+02
 0.142903000495103D+03 0.855867152584882D+01 -.817799230699734D+02 -.848106415523126D+02
 0.000000000000000D+00 -.000000000000000D+00 -.000000000000000D+00 -.000000000000000D+00
 0.206414985928055D+03 0.000000000000000D+00 0.000000000000000D+00 0.206414985928055D+03
 0.471648921163033D+03 0.000000000000000D+00 0.000000000000000D+00 -.471648921163033D+03
 0.199871459844611D+03 0.864280385242649D+02 0.982901302102561D+02 0.848106415523126D+02
 0.160401706479135D+03 0.860344498439174D+02 -.683133955135281D+02 -.848106415523126D+02
 0.317790740767342D+03 -.172462488368182D+03 -.299767346967280D+02 -.265233935234978D+03
0.247306683510D-03 0.000000000000D+00 0.000000000000D+00 0.172464674644D-02 0.160827744029D-06  5 2 21 25 24 1 2 0.15891553D-01 0.14499967D+00 0.60560364D+05 0.60560364D+05 0.60560364D+05 0.11841270D+01  1  2  1  4  5  2       -1 0.489892651479D-01 0.100000000000D+01
  </mgrwgt>
  </event>
  <event>
  4     66 0.48098993E-03 0.32665405E+03 0.75467711E-02 0.91131565E-01
        2 -1    0    0  501    0 0.00000000E+00 0.00000000E+00 0.12702049E+04 0.12702050E+04 0.32000000E+00 0.0000E+00 0.9000E+01
       -1 -1    0    0    0  501 0.00000000E+00 0.00000000E+00 -.84248813E+02 0.84249421E+02 0.32000000E+00 0.0000E+00 0.9000E+01
       25  1    1    2    0    0 0.24797351E+03 0.18497304E+03 0.56917417E+03 0.65976520E+03 0.12500000E+03 0.0000E+00 0.9000E+01
       24  1    1    2    0    0 -.24797351E+03 -.18497304E+03 0.61678196E+03 0.69468920E+03 0.80419002E+02 0.0000E+00 0.9000E+01
#aMCatNLO 1  0  0  2  1 0.11107367D+04 0.00000000D+00  -5  5  0 0.00000000D+00 0.00000000D+00 0.00000000D+00 0.00000000D+00 0.00000000D+00
  <mgrwgt>
 0.6772767796D+00    5    2    0
 0.327129481243299D+03 0.000000000000000D+00 0.000000000000000D+00 0.327129481243299D+03
 0.327129481243299D+03 0.000000000000000D+00 0.000000000000000D+00 -.327129481243299D+03
 0.334128073980053D+03 0.247973510283286D+03 0.184973035083361D+03 -.176262392884698D+02
 0.320130888506545D+03 -.247973510283286D+03 -.184973035083361D+03 0.176262392884698D+02
 0.000000000000000D+00 0.000000000000000D+00 -.000000000000000D+00 -.000000000000000D+00
 0.778041396123001D+03 0.000000000000000D+00 0.000000000000000D+00 0.778041396123001D+03
 0.295510854849822D+04 0.000000000000000D+00 0.000000000000000D+00 -.295510854849822D+04
 0.456660084371852D+03 -.140671232549447D+03 0.415709457049117D+03 -.176262392884698D+02
 0.832444566639546D+03 -.814424065504216D+03 0.151325800144792D+03 0.176262392884698D+02
 0.244404529360982D+04 0.955095298053664D+03 -.567035257193909D+03 -.217706715237521D+04
0.782459317533D-02 0.000000000000D+00 0.000000000000D+00 0.198506967648D-02 0.000000000000D+00  5 2 -1 25 24 21 0 0.19541619D+00 0.12961406D-01 0.10670287D+06 0.10670287D+06 0.10670287D+06 0.11609922D+01  1  2  2  2  5  2       -1 0.657610736417D+00 0.100000000000D+01
-.434698502876D-03 0.000000000000D+00 -.300484980560D-04 0.198506967648D-02 0.000000000000D+00  5 2 -1 25 24 21 2 0.19541619D+00 0.12961406D-01 0.10670287D+06 0.10670287D+06 0.10670287D+06 0.11609922D+01  1  2  3  2  5  2       -1 -.492440609870D-01 0.100000000000D+01
0.537728544905D-03 0.000000000000D+00 0.000000000000D+00 0.198506967648D-02 0.000000000000D+00  5 2 -1 25 24 21 2 0.19541619D+00 0.12961406D-01 0.10670287D+06 0.10670287D+06 0.10670287D+06 0.11609922D+01  1  2 15  2  5  2       -1 0.609156394250D-01 0.100000000000D+01
0.164125310181D-01 0.000000000000D+00 -.968104768520D-02 0.198506967648D-02 0.000000000000D+00  5 2 -1 25 24 21 2 0.19541619D+00 0.25591427D+00 0.10670287D+06 0.10670287D+06 0.10670287D+06 0.11609922D+01  1  2  5  2  5  2       -1 0.330918817040D-02 0.100000000000D+01
0.280497584377D-02 0.000000000000D+00 -.310711905847D-02 0.198506967648D-02 0.000000000000D+00  5 2 21 25 24 1 2 0.19541619D+00 0.25591427D+00 0.10670287D+06 0.10670287D+06 0.10670287D+06 0.11609922D+01  1  2  5  4  5  2       -1 0.468527655319D-02 0.100000000000D+01
  </mgrwgt>
  </event>
  <event>
  4     66 0.48098993E-03 0.59366176E+02 0.75467711E-02 0.12195109E+00
        2 -1    0    0  501    0 0.00000000E+00 0.00000000E+00 0.43198428E+03 0.43198440E+03 0.32000000E+00 0.0000E+00 0.9000E+01
       -1 -1    0    0    0  501 0.00000000E+00 0.00000000E+00 -.40245346E+02 0.40246619E+02 0.32000000E+00 0.0000E+00 0.9000E+01
       25  1    1    2    0    0 -.56883300E+02 0.58224974E+02 0.21467949E+03 0.26141565E+03 0.12500000E+03 0.0000E+00 0.9000E+01
       24  1    1    2    0    0 0.56883300E+02 -.58224974E+02 0.17705944E+03 0.21081537E+03 0.80419002E+02 0.0000E+00 0.9000E+01
#aMCatNLO 1  0  0  1  2 0.73133927D+01 0.00000000D+00  -5  5  0 0.00000000D+00 0.00000000D+00 0.00000000D+00 0.00000000D+00 0.00000000D+00
  <mgrwgt>
 0.3370101812D+00   11    2    0
 0.131854788632480D+03 0.000000000000000D+00 0.000000000000000D+00 0.131854788632480D+03
 0.131854788632480D+03 0.000000000000000D+00 0.000000000000000D+00 -.131854788632480D+03
 0.149218177821088D+03 -.568832999805488D+02 0.582249737224766D+02 -.389964236636097D+01
 0.114491399443872D+03 0.568832999805488D+02 -.582249737224766D+02 0.389964236636097D+01
 0.000000000000000D+00 0.000000000000000D+00 0.000000000000000D+00 0.000000000000000D+00
 0.147512439757043D+03 0.000000000000000D+00 0.000000000000000D+00 0.147512439757043D+03
 0.132762244846397D+03 0.000000000000000D+00 0.000000000000000D+00 -.132762244846397D+03
 0.150488052056726D+03 -.609498709508491D+02 0.573721172026738D+02 -.389964236636097D+01
 0.113322915976568D+03 0.537921961283356D+02 -.588732516187684D+02 0.389964236636097D+01
 0.164637165701457D+02 0.715767482251340D+01 0.150113441609461D+01 0.147501949106466D+02
0.229120204356D-03 0.000000000000D+00 0.000000000000D+00 0.259396078675D-02 0.000000000000D+00  5 2 -1 25 24 21 0 0.66459227D-01 0.61916987D-02 0.17370209D+05 0.17370209D+05 0.17370209D+05 0.12406239D+01  1  2  2  1  5  1        2 0.231078753758D+00 0.100000000000D+01
-.127288971735D-04 0.000000000000D+00 -.879881913462D-06 0.259396078675D-02 0.000000000000D+00  5 2 -1 25 24 21 2 0.66459227D-01 0.61916987D-02 0.17370209D+05 0.17370209D+05 0.17370209D+05 0.12406239D+01  1  2  3  1  5  1        2 -.197591231275D-01 0.100000000000D+01
0.158253876763D-04 0.000000000000D+00 0.000000000000D+00 0.259396078675D-02 0.000000000000D+00  5 2 -1 25 24 21 2 0.66459227D-01 0.61916987D-02 0.17370209D+05 0.17370209D+05 0.17370209D+05 0.12406239D+01  1  2 15  1  5  1        2 0.245658189688D-01 0.100000000000D+01
0.264203298884D-02 0.000000000000D+00 0.000000000000D+00 0.259396078675D-02 0.000000000000D+00  5 2 -1 25 24 21 2 0.74563409D-01 0.61916987D-02 0.18361159D+05 0.18361159D+05 0.18361159D+05 0.12379348D+01  1  2 12  1  5  1        2 0.361147799055D+01 0.100000000000D+01
-.273809870410D-02 0.000000000000D+00 0.000000000000D+00 0.259396078675D-02 0.000000000000D+00  5 2 -1 25 24 21 2 0.66459227D-01 0.61916987D-02 0.17370209D+05 0.17370209D+05 0.17370209D+05 0.12406239D+01  1  2  4  1  5  1        2 -.425036267417D+01 0.100000000000D+01
-.373106791532D-02 0.000000000000D+00 -.303216936995D-03 0.259396078675D-02 0.000000000000D+00  5 2 -1 25 24 21 2 0.74628736D-01 0.61916987D-02 0.17370209D+05 0.17370209D+05 0.17370209D+05 0.12406239D+01  1  2  5  1  5  1        2 -.510826534186D+01 0.100000000000D+01
0.374306427389D-02 0.000000000000D+00 0.301190459384D-03 0.259396078675D-02 0.000000000000D+00  5 2 -1 25 24 21 2 0.66459227D-01 0.61916987D-02 0.17370209D+05 0.17370209D+05 0.17370209D+05 0.12406239D+01  1  2  6  1  5  1        2 0.581037515300D+01 0.100000000000D+01
0.650314245774D-04 0.000000000000D+00 0.000000000000D+00 0.259396078675D-02 0.398845862595D-03  5 2 -1 25 24 21 2 0.74351207D-01 0.62343115D-02 0.18361159D+05 0.18361159D+05 0.18361159D+05 0.12379348D+01  1  2 11  1  5  1        2 0.882630374910D-01 0.100000000000D+01
0.483831750283D-04 0.000000000000D+00 0.000000000000D+00 0.259396078675D-02 0.000000000000D+00  5 21 -1 25 24 -2 2 0.74563409D-01 0.61916987D-02 0.18361159D+05 0.18361159D+05 0.18361159D+05 0.12379348D+01  1  2 12  3  5  1        2 0.135080312672D+00 0.100000000000D+01
-.674500055373D-04 0.000000000000D+00 -.558849585544D-05 0.259396078675D-02 0.000000000000D+00  5 21 -1 25 24 -2 2 0.74628736D-01 0.61916987D-02 0.17370209D+05 0.17370209D+05 0.17370209D+05 0.12406239D+01  1  2  5  3  5  1        2 -.188754784606D+00 0.100000000000D+01
0.119063122453D-05 0.000000000000D+00 0.000000000000D+00 0.259396078675D-02 0.719392031614D-05  5 21 -1 25 24 -2 2 0.74351207D-01 0.62343115D-02 0.18361159D+05 0.18361159D+05 0.18361159D+05 0.12379348D+01  1  2 11  3  5  1        2 0.331103849045D-02 0.100000000000D+01
  </mgrwgt>
  </event>
  <event>
  4     66 0.48098993E-03 0.12690245E+03 0.75467711E-02 0.10105810E+00
        2 -1    0    0  501    0 0.00000000E+00 0.00000000E+00 0.37923033E+04 0.37923033E+04 0.32000000E+00 0.0000E+00 0.9000E+01
       -1 -1    0    0    0  501 0.00000000E+00 0.00000000E+00 -.60691851E+02 0.60692695E+02 0.32000000E+00 0.0000E+00 0.9000E+01
       25  1    1    2    0    0 0.16636203E+03 -.41347694E+03 0.24593213E+04 0.25025039E+04 0.12500000E+03 0.0000E+00 0.9000E+01
       24  1    1    2    0    0 -.16636203E+03 0.41347694E+03 0.12722902E+04 0.13504921E+04 0.80419002E+02 0.0000E+00 0.9000E+01
#aMCatNLO 1  0  0  1  2 0.10381614D+03 0.00000000D+00  -5  5  0 0.00000000D+00 0.00000000D+00 0.00000000D+00 0.00000000D+00 0.00000000D+00
  <mgrwgt>
 0.3102583407D+00    9    2    0
 0.479753642401494D+03 0.000000000000000D+00 0.000000000000000D+00 0.479753642401494D+03
 0.479753642401494D+03 0.000000000000000D+00 0.000000000000000D+00 -.479753642401494D+03
 0.484525770862983D+03 0.166362028616668D+03 -.413476935781973D+03 0.143180730691198D+03
 0.474981513940005D+03 -.166362028616668D+03 0.413476935781973D+03 -.143180730691198D+03
 0.000000000000000D+00 -.000000000000000D+00 0.000000000000000D+00 0.000000000000000D+00
 0.596241804347251D+03 0.000000000000000D+00 0.000000000000000D+00 0.596241804347251D+03
 0.506253962481245D+03 0.000000000000000D+00 0.000000000000000D+00 -.506253962481245D+03
 0.534505903527449D+03 0.175740778975538D+03 -.467638768569823D+03 0.143180730691198D+03
 0.430601354844498D+03 -.158027414620808D+03 0.365344940332482D+03 -.143180730691198D+03
 0.137388508456549D+03 -.177133643547300D+02 0.102293828237340D+03 0.899878418660063D+02
0.362216782281D-01 0.000000000000D+00 0.000000000000D+00 0.176827432292D-02 0.000000000000D+00  5 2 -1 25 24 21 0 0.58343134D+00 0.93372738D-02 0.20966061D+06 0.20966061D+06 0.20966061D+06 0.11351433D+01  1  2  2  1  5  1        2 0.167074262663D+00 0.100000000000D+01
-.200699092073D-02 0.000000000000D+00 -.139100781783D-03 0.176827432292D-02 0.000000000000D+00  5 2 -1 25 24 21 2 0.58343134D+00 0.93372738D-02 0.20966061D+06 0.20966061D+06 0.20966061D+06 0.11351433D+01  1  2  3  1  5  1        2 -.119285534875D-01 0.100000000000D+01
0.249636620855D-02 0.000000000000D+00 0.000000000000D+00 0.176827432292D-02 0.000000000000D+00  5 2 -1 25 24 21 2 0.58343134D+00 0.93372738D-02 0.20966061D+06 0.20966061D+06 0.20966061D+06 0.11351433D+01  1  2 15  1  5  1        2 0.148371562300D-01 0.100000000000D+01
0.316967195999D-01 0.000000000000D+00 0.000000000000D+00 0.176827432292D-02 0.000000000000D+00  5 2 -1 25 24 21 2 0.73837204D+00 0.93372738D-02 0.26259851D+06 0.26259851D+06 0.26259851D+06 0.11269133D+01  1  2 12  1  5  1        2 0.236796274629D-01 0.100000000000D+01
-.328314141849D-01 0.000000000000D+00 0.000000000000D+00 0.176827432292D-02 0.000000000000D+00  5 2 -1 25 24 21 2 0.58343134D+00 0.93372738D-02 0.20966061D+06 0.20966061D+06 0.20966061D+06 0.11351433D+01  1  2  4  1  5  1        2 -.195133558468D+00 0.100000000000D+01
-.558391803992D-01 0.000000000000D+00 -.118586483093D-01 0.176827432292D-02 0.000000000000D+00  5 2 -1 25 24 21 2 0.73029232D+00 0.93372738D-02 0.20966061D+06 0.20966061D+06 0.20966061D+06 0.11351433D+01  1  2  5  1  5  1        2 -.491838345155D-01 0.100000000000D+01
0.607259464381D-01 0.000000000000D+00 0.125852098585D-01 0.176827432292D-02 0.000000000000D+00  5 2 -1 25 24 21 2 0.58343134D+00 0.93372738D-02 0.20966061D+06 0.20966061D+06 0.20966061D+06 0.11351433D+01  1  2  6  1  5  1        2 0.360924751918D+00 0.100000000000D+01
0.102631879208D-02 0.000000000000D+00 0.000000000000D+00 0.176827432292D-02 0.000000000000D+00  5 21 -1 25 24 -2 2 0.73837204D+00 0.93372738D-02 0.26259851D+06 0.26259851D+06 0.26259851D+06 0.11269133D+01  1  2 12  3  5  1        2 0.121488961982D-04 0.100000000000D+01
-.157823767243D-02 0.000000000000D+00 -.370480438373D-03 0.176827432292D-02 0.000000000000D+00  5 21 -1 25 24 -2 2 0.73029232D+00 0.93372738D-02 0.20966061D+06 0.20966061D+06 0.20966061D+06 0.11351433D+01  1  2  5  3  5  1        2 -.236599803044D-04 0.100000000000D+01
  </mgrwgt>
  </event>
  <event>
  4     66 0.48098993E-03 0.11865573E+03 0.75467711E-02 0.12441978E+00
        2 -1    0    0  501    0 0.00000000E+00 0.00000000E+00 0.34473484E+04 0.34473484E+04 0.32000000E+00 0.0000E+00 0.9000E+01
       -1 -1    0    0    0  501 0.00000000E+00 0.00000000E+00 -.43507575E+01 0.43625097E+01 0.32000000E+00 0.0000E+00 0.9000E+01
       25  1    1    2    0    0 0.53748126E+02 0.22726722E+02 0.15576054E+04 0.15637023E+04 0.12500000E+03 0.0000E+00 0.9000E+01
       24  1    1    2    0    0 -.53748126E+02 -.22726722E+02 0.18853923E+04 0.18880087E+04 0.80419002E+02 0.0000E+00 0.9000E+01
#aMCatNLO 1  0  0  2  1 0.13508641D+01 0.00000000D+00  -5  5  0 0.00000000D+00 0.00000000D+00 0.00000000D+00 0.00000000D+00 0.00000000D+00
  <mgrwgt>
 0.6533351807D+00    6    2    0
 0.122551561857055D+03 0.000000000000000D+00 0.000000000000000D+00 0.122551561857055D+03
 0.122551561857055D+03 0.000000000000000D+00 0.000000000000000D+00 -.122551561857055D+03
 0.141233053767193D+03 0.537481257578750D+02 0.227267223787717D+02 -.302722735162195D+02
 0.103870069946917D+03 -.537481257578750D+02 -.227267223787717D+02 0.302722735162195D+02
 0.000000000000000D+00 0.000000000000000D+00 0.000000000000000D+00 0.000000000000000D+00
 0.124386999677057D+03 0.000000000000000D+00 0.000000000000000D+00 0.124386999677057D+03
 0.122802231115741D+03 0.000000000000000D+00 0.000000000000000D+00 -.122802231115741D+03
 0.141040338789849D+03 0.535550638668985D+02 0.219732054176701D+02 -.302722735162195D+02
 0.104066507479942D+03 -.538903447197033D+02 -.232818003353059D+02 0.302722735162195D+02
 0.208238452300637D+01 0.335280852804805D+00 0.130859491763586D+01 0.158476856131630D+01
0.132049862154D-02 0.000000000000D+00 0.000000000000D+00 0.259141402509D-02 0.000000000000D+00  5 2 -1 25 24 21 0 0.53036220D+00 0.67025247D-03 0.14079181D+05 0.14079181D+05 0.14079181D+05 0.12509714D+01  1  2  2  2  5  2       -1 0.563363116542D+00 0.100000000000D+01
-.732679445201D-04 0.000000000000D+00 -.507106240197D-05 0.259141402509D-02 0.000000000000D+00  5 2 -1 25 24 21 2 0.53036220D+00 0.67025247D-03 0.14079181D+05 0.14079181D+05 0.14079181D+05 0.12509714D+01  1  2  3  2  5  2       -1 -.489169334335D-01 0.100000000000D+01
0.911578111059D-04 0.000000000000D+00 0.000000000000D+00 0.259141402509D-02 0.000000000000D+00  5 2 -1 25 24 21 2 0.53036220D+00 0.67025247D-03 0.14079181D+05 0.14079181D+05 0.14079181D+05 0.12509714D+01  1  2 15  2  5  2       -1 0.608610028167D-01 0.100000000000D+01
-.111649082130D-02 0.000000000000D+00 0.000000000000D+00 0.259141402509D-02 0.000000000000D+00  5 2 -1 25 24 21 2 0.53036220D+00 0.67025247D-03 0.14079181D+05 0.14079181D+05 0.14079181D+05 0.12509714D+01  1  2  4  2  5  2       -1 -.745418853258D+00 0.100000000000D+01
0.111662208997D-02 0.000000000000D+00 0.000000000000D+00 0.259141402509D-02 0.118430657036D-01  5 2 -1 25 24 21 2 0.53830536D+00 0.67162342D-03 0.14240883D+05 0.14240883D+05 0.14240883D+05 0.12504020D+01  1  2 11  2  5  2       -1 0.688226372776D+00 0.100000000000D+01
0.886994982798D-05 0.000000000000D+00 0.000000000000D+00 0.259141402509D-02 0.456136971358D-05  5 2 21 25 24 1 2 0.53830536D+00 0.67162342D-03 0.14240883D+05 0.14240883D+05 0.14240883D+05 0.12504020D+01  1  2 11  4  5  2       -1 0.135220475238D+00 0.100000000000D+01
  </mgrwgt>
  </event>
  <event>
  4     66 0.48098993E-03 0.14267721E+03 0.75467711E-02 0.12075452E+00
        2 -1    0    0  501    0 0.00000000E+00 0.00000000E+00 0.64458640E+03 0.64458648E+03 0.32000000E+00 0.0000E+00 0.9000E+01
       -1 -1    0    0    0  501 0.00000000E+00 0.00000000E+00 -.37176381E+02 0.37177759E+02 0.32000000E+00 0.0000E+00 0.9000E+01
       25  1    1    2    0    0 -.76932755E+02 0.60411216E+02 0.46426048E+03 0.49064341E+03 0.12500000E+03 0.0000E+00 0.9000E+01
       24  1    1    2    0    0 0.76932755E+02 -.60411216E+02 0.14314953E+03 0.19112082E+03 0.80419002E+02 0.0000E+00 0.9000E+01
#aMCatNLO 1  0  0  2  1 0.33616993D+01 0.00000000D+00  -5  5  0 0.00000000D+00 0.00000000D+00 0.00000000D+00 0.00000000D+00 0.00000000D+00
  <mgrwgt>
 0.4971265792D+00    6    2    0
 0.154802733468786D+03 0.000000000000000D+00 0.000000000000000D+00 0.154802733468786D+03
 0.154802733468786D+03 0.000000000000000D+00 0.000000000000000D+00 -.154802733468786D+03
 0.169592175231899D+03 -.769327545432808D+02 0.604112156726798D+02 0.597356024429275D+02
 0.140013291705672D+03 0.769327545432808D+02 -.604112156726798D+02 -.597356024429275D+02
 0.000000000000000D+00 -.000000000000000D+00 0.000000000000000D+00 0.000000000000000D+00
 0.159743760677065D+03 0.000000000000000D+00 0.000000000000000D+00 0.159743760677065D+03
 0.155384711656264D+03 0.000000000000000D+00 0.000000000000000D+00 -.155384711656264D+03
 0.168551300248939D+03 -.753398183556890D+02 0.594988267659137D+02 0.597356024429275D+02
 0.141072416833012D+03 0.782569013312958D+02 -.611696495947198D+02 -.597356024429275D+02
 0.550475525137905D+01 -.291708297560677D+01 0.167082282880609D+01 0.435904902080153D+01
0.538867856012D-03 0.000000000000D+00 0.000000000000D+00 0.204808408126D-02 0.000000000000D+00  5 2 -1 25 24 21 0 0.99167250D-01 0.57195554D-02 0.20356787D+05 0.20356787D+05 0.20356787D+05 0.12329815D+01  1  2  2  2  5  2       -1 0.393894919999D+00 0.100000000000D+01
-.296949343640D-04 0.000000000000D+00 -.206939445425D-05 0.204808408126D-02 0.000000000000D+00  5 2 -1 25 24 21 2 0.99167250D-01 0.57195554D-02 0.20356787D+05 0.20356787D+05 0.20356787D+05 0.12329815D+01  1  2  3  2  5  2       -1 -.329984551785D-01 0.100000000000D+01
0.371409006544D-04 0.000000000000D+00 0.000000000000D+00 0.204808408126D-02 0.000000000000D+00  5 2 -1 25 24 21 2 0.99167250D-01 0.57195554D-02 0.20356787D+05 0.20356787D+05 0.20356787D+05 0.12329815D+01  1  2 15  2  5  2       -1 0.412727750300D-01 0.100000000000D+01
-.358239712588D-03 0.000000000000D+00 0.000000000000D+00 0.204808408126D-02 0.000000000000D+00  5 2 -1 25 24 21 2 0.99167250D-01 0.57195554D-02 0.20356787D+05 0.20356787D+05 0.20356787D+05 0.12329815D+01  1  2  4  2  5  2       -1 -.398093390411D+00 0.100000000000D+01
0.355673983907D-03 0.000000000000D+00 0.000000000000D+00 0.204808408126D-02 0.146716588215D-02  5 2 -1 25 24 21 2 0.10233249D+00 0.57410579D-02 0.20847543D+05 0.20847543D+05 0.20847543D+05 0.12318466D+01  1  2 11  2  5  2       -1 0.378435250999D+00 0.100000000000D+01
0.634617111897D-05 0.000000000000D+00 0.000000000000D+00 0.204808408126D-02 0.103739678911D-05  5 2 21 25 24 1 2 0.10233249D+00 0.57410579D-02 0.20847543D+05 0.20847543D+05 0.20847543D+05 0.12318466D+01  1  2 11  4  5  2       -1 0.114615478774D+00 0.100000000000D+01
  </mgrwgt>
  </event>
  <event>
  4     66 0.48098993E-03 0.10271698E+03 0.75467711E-02 0.10326772E+00
        2 -1    0    0  501    0 0.00000000E+00 0.00000000E+00 0.84541497E+01 0.84602038E+01 0.32000000E+00 0.0000E+00 0.9000E+01
       -1 -1    0    0    0  501 0.00000000E+00 0.00000000E+00 -.13943894E+04 0.13943894E+04 0.32000000E+00 0.0000E+00 0.9000E+01
       25  1    1    2    0    0 0.11684852E+01 -.31261129E+00 -.10502772E+04 0.10576902E+04 0.12500000E+03 0.0000E+00 0.9000E+01
       24  1    1    2    0    0 -.11684852E+01 0.31261129E+00 -.33565802E+03 0.34515936E+03 0.80419002E+02 0.0000E+00 0.9000E+01
#aMCatNLO 1  0  0  1  1 0.40943940D+03 0.00000000D+00  -5  5  0 0.00000000D+00 0.00000000D+00 0.00000000D+00 0.00000000D+00 0.00000000D+00
  <mgrwgt>
 0.6179309390D+00    5    2    0
 0.108593961915552D+03 0.000000000000000D+00 0.000000000000000D+00 0.108593961915552D+03
 0.108593961915552D+03 0.000000000000000D+00 0.000000000000000D+00 -.108593961915552D+03
 0.129676589080290D+03 0.116848523457957D+01 -.312611286361340D+00 -.344899213095458D+02
 0.875113347508138D+02 -.116848523457957D+01 0.312611286361340D+00 0.344899213095458D+02
 0.000000000000000D+00 -.000000000000000D+00 -.000000000000000D+00 0.000000000000000D+00
 0.452289365142581D+03 0.000000000000000D+00 0.000000000000000D+00 0.452289365142581D+03
 0.421763682427348D+03 0.000000000000000D+00 0.000000000000000D+00 -.421763682427348D+03
 0.278440283066575D+03 0.221090858340786D+03 0.108780829746744D+03 -.344899213095458D+02
 0.185037024844931D+03 0.145699939276255D+03 0.731673262600863D+02 0.344899213095458D+02
 0.410575739658424D+03 -.366790797617041D+03 -.181948156006830D+03 0.305256827152328D+02
0.290618728932D-02 0.000000000000D+00 0.000000000000D+00 0.279422160892D-02 0.000000000000D+00  5 2 -1 25 24 21 0 0.13011069D-02 0.21452191D+00 0.10550777D+05 0.10550777D+05 0.10550777D+05 0.12656284D+01  1  2  2  1  5  1        2 0.426411655940D+00 0.100000000000D+01
-.160847159457D-03 0.000000000000D+00 -.111605244077D-04 0.279422160892D-02 0.000000000000D+00  5 2 -1 25 24 21 2 0.13011069D-02 0.21452191D+00 0.10550777D+05 0.10550777D+05 0.10550777D+05 0.12656284D+01  1  2  3  1  5  1        2 -.378034371326D-01 0.100000000000D+01
0.199315070807D-03 0.000000000000D+00 0.000000000000D+00 0.279422160892D-02 0.000000000000D+00  5 2 -1 25 24 21 2 0.13011069D-02 0.21452191D+00 0.10550777D+05 0.10550777D+05 0.10550777D+05 0.12656284D+01  1  2 15  1  5  1        2 0.468444377524D-01 0.100000000000D+01
0.490221124059D-01 0.000000000000D+00 -.108110460721D-01 0.279422160892D-02 0.000000000000D+00  5 2 -1 25 24 21 2 0.61523480D-01 0.21452191D+00 0.10550777D+05 0.10550777D+05 0.10550777D+05 0.12656284D+01  1  2  5  1  5  1        2 0.106151922332D+00 0.100000000000D+01
0.137643794267D-01 0.000000000000D+00 -.380240508153D-02 0.279422160892D-02 0.000000000000D+00  5 21 -1 25 24 -2 2 0.61523480D-01 0.21452191D+00 0.10550777D+05 0.10550777D+05 0.10550777D+05 0.12656284D+01  1  2  5  3  5  1        2 0.763263601188D-01 0.100000000000D+01
  </mgrwgt>
  </event>
  <event>
  4     66 0.48098993E-03 0.13796573E+03 0.75467711E-02 0.11890197E+00
        2 -1    0    0  501    0 0.00000000E+00 0.00000000E+00 0.28426977E+03 0.28426995E+03 0.32000000E+00 0.0000E+00 0.9000E+01
       -1 -1    0    0    0  501 0.00000000E+00 0.00000000E+00 -.10877704E+03 0.10877751E+03 0.32000000E+00 0.0000E+00 0.9000E+01
       25  1    1    2    0    0 0.90481729E+02 -.87671959E+01 -.27063722E+02 0.15691161E+03 0.12500000E+03 0.0000E+00 0.9000E+01
       24  1    1    2    0    0 -.90481729E+02 0.87671959E+01 0.20255645E+03 0.23613585E+03 0.80419002E+02 0.0000E+00 0.9000E+01
#aMCatNLO 1  0  0  2  1 0.40011920D+02 0.00000000D+00  -5  5  0 0.00000000D+00 0.00000000D+00 0.00000000D+00 0.00000000D+00 0.00000000D+00
  <mgrwgt>
 0.3102019232D+00    4    2    0
 0.175846953502420D+03 0.000000000000000D+00 0.000000000000000D+00 0.175846953502420D+03
 0.175846953502420D+03 0.000000000000000D+00 0.000000000000000D+00 -.175846953502420D+03
 0.188866491036665D+03 0.904817287751819D+02 -.876719586768305D+01 -.108543744504115D+03
 0.162827415968175D+03 -.904817287751819D+02 0.876719586768305D+01 0.108543744504115D+03
 0.000000000000000D+00 0.000000000000000D+00 0.000000000000000D+00 0.000000000000000D+00
 0.239385209426619D+03 0.000000000000000D+00 0.000000000000000D+00 0.239385209426619D+03
 0.183395003680148D+03 0.000000000000000D+00 0.000000000000000D+00 -.183395003680148D+03
 0.183043520670007D+03 0.747016941030680D+02 -.227561615047060D+02 -.108543744504115D+03
 0.170919129899707D+03 -.104642498584324D+03 -.378629507007427D+01 0.108543744504115D+03
 0.688175625370526D+02 0.299408044812557D+02 0.265424565747803D+02 0.559902057464719D+02
0.101380409495D-02 0.000000000000D+00 0.000000000000D+00 0.144769118736D-02 0.000000000000D+00  5 2 -1 25 24 21 0 0.43733861D-01 0.16734979D-01 0.19034544D+05 0.19034544D+05 0.19034544D+05 0.12361987D+01  1  2  2  2  5  2       -1 0.349414237652D+00 0.100000000000D+01
-.522917939190D-04 0.000000000000D+00 -.389327466537D-05 0.144769118736D-02 0.000000000000D+00  5 2 -1 25 24 21 2 0.43733861D-01 0.16734979D-01 0.19034544D+05 0.19034544D+05 0.19034544D+05 0.12361987D+01  1  2  3  2  5  2       -1 -.275420740175D-01 0.100000000000D+01
0.692099277554D-04 0.000000000000D+00 0.000000000000D+00 0.144769118736D-02 0.000000000000D+00  5 2 -1 25 24 21 2 0.43733861D-01 0.16734979D-01 0.19034544D+05 0.19034544D+05 0.19034544D+05 0.12361987D+01  1  2 15  2  5  2       -1 0.364528506317D-01 0.100000000000D+01
-.913672208280D-04 0.000000000000D+00 0.000000000000D+00 0.144769118736D-02 0.000000000000D+00  5 2 -1 25 24 21 2 0.43733861D-01 0.16734979D-01 0.19034544D+05 0.19034544D+05 0.19034544D+05 0.12361987D+01  1  2  4  2  5  2       -1 -.481230910288D-01 0.100000000000D+01
  </mgrwgt>
  </event>
  <event>
  5     66 0.48098993E-03 0.10574497E+03 0.75467711E-02 0.12021269E+00
        2 -1    0    0  501    0 0.00000000E+00 0.00000000E+00 0.13065027E+03 0.13065066E+03 0.32000000E+00 0.0000E+00 0.9000E+01
       -1 -1    0    0    0  502 0.00000000E+00 0.00000000E+00 -.16998038E+03 0.16998068E+03 0.32000000E+00 0.0000E+00 0.9000E+01
       25  1    1    2    0    0 -.26221255E+02 -.65102688E+02 -.10001965E+02 0.14370440E+03 0.12500000E+03 0.0000E+00 0.9000E+01
       24  1    1    2    0    0 0.35347215E+00 -.36574946E+01 -.19225549E+02 0.82766780E+02 0.80419002E+02 0.0000E+00 0.9000E+01
       21  1    1    2  501  502 0.25867783E+02 0.68760183E+02 -.10102595E+02 0.74160163E+02 0.75000000E+00 0.0000E+00 0.9000E+01
#aMCatNLO 2  0  0  2  1 0.73464991D+02 0.00000000D+00  -5  5  0 0.00000000D+00 0.00000000D+00 0.00000000D+00 0.00000000D+00 0.00000000D+00
  <mgrwgt>
 0.3982701986D-01    1    2    0
 0.106110604192323D+03 0.000000000000000D+00 0.000000000000000D+00 0.106110604192323D+03
 0.106110604192323D+03 0.000000000000000D+00 0.000000000000000D+00 -.106110604192323D+03
 0.127686638263883D+03 -.101544376180511D+02 -.223948415954248D+02 0.861603491802397D+01
 0.845345701207630D+02 0.101544376180511D+02 0.223948415954248D+02 -.861603491802397D+01
 0.000000000000000D+00 0.000000000000000D+00 0.000000000000000D+00 -.000000000000000D+00
 0.148753983366958D+03 0.000000000000000D+00 0.000000000000000D+00 0.148753983366958D+03
 0.149290225682451D+03 0.000000000000000D+00 0.000000000000000D+00 -.149290225682451D+03
 0.143614589273714D+03 -.262212550040637D+02 -.651026879672483D+02 0.861603491802397D+01
 0.809626717763637D+02 0.353472146630921D+00 -.365749457000416D+01 -.861603491802397D+01
 0.734669479993316D+02 0.258677828574328D+02 0.687601825372524D+02 -.536242315493030D+00
0.671937687339D-04 0.000000000000D+00 0.000000000000D+00 0.310961249697D-02 0.517643206194D-05  5 2 -1 25 24 21 2 0.20099836D-01 0.26150545D-01 0.22100360D+05 0.22100360D+05 0.22100360D+05 0.12290798D+01  1  2  1  2  5  2       -1 0.398270198551D-01 0.100000000000D+01
  </mgrwgt>
  </event>
  <event>
  5     66 0.48098993E-03 0.10887670E+03 0.75467711E-02 0.12253385E+00
        2 -1    0    0  501    0 0.00000000E+00 0.00000000E+00 0.12280051E+03 0.12280093E+03 0.32000000E+00 0.0000E+00 0.9000E+01
       21 -1    0    0  502  501 0.00000000E+00 0.00000000E+00 -.33833524E+03 0.33833607E+03 0.75000000E+00 0.0000E+00 0.9000E+01
       25  1    1    2    0    0 0.38841493E+02 0.44560208E+02 -.14519148E+03 0.20049898E+03 0.12500000E+03 0.0000E+00 0.9000E+01
       24  1    1    2    0    0 -.11432339E+02 -.12109988E+02 0.73771238E+02 0.11039367E+03 0.80419002E+02 0.0000E+00 0.9000E+01
        1  1    1    2  502    0 -.27409153E+02 -.32450220E+02 -.14411449E+03 0.15024435E+03 0.32000000E+00 0.0000E+00 0.9000E+01
#aMCatNLO 2  0  0  2  1 0.42476799D+02 0.00000000D+00  -5  5  0 0.00000000D+00 0.00000000D+00 0.00000000D+00 0.00000000D+00 0.00000000D+00
  <mgrwgt>
 0.8478883903D-01    2    2    0
 0.149790776065352D+03 0.000000000000000D+00 0.000000000000000D+00 0.149790776065352D+03
 0.149790776065352D+03 0.000000000000000D+00 0.000000000000000D+00 -.149790776065352D+03
 0.165075068406614D+03 0.235104138571889D+02 0.264094507973285D+02 -.101855680049251D+03
 0.134506483724090D+03 -.235104138571889D+02 -.264094507973285D+02 0.101855680049251D+03
 0.000000000000000D+00 -.000000000000000D+00 -.000000000000000D+00 -.000000000000000D+00
 0.155161343523396D+03 0.000000000000000D+00 0.000000000000000D+00 0.155161343523396D+03
 0.267772343222045D+03 0.000000000000000D+00 0.000000000000000D+00 -.267772343222045D+03
 0.171737745501730D+03 0.388414926950014D+02 0.445602077749386D+02 -.101855680049251D+03
 0.130840153267127D+03 -.114323394993417D+02 -.121099879385183D+02 0.101855680049251D+03
 0.120355787976583D+03 -.274091531956598D+02 -.324502198364203D+02 -.112610999698649D+03
-.913191740334D-04 0.000000000000D+00 0.000000000000D+00 0.139253574883D-02 0.000000000000D+00  5 2 21 25 24 1 2 0.18238536D-01 0.52200406D-01 0.17275760D+05 0.17275760D+05 0.17275760D+05 0.12408891D+01  1  2 13  4  5  2       -1 -.186563591645D+00 0.100000000000D+01
0.137446588920D-03 0.000000000000D+00 0.000000000000D+00 0.139253574883D-02 0.561868076746D-06  5 2 21 25 24 1 2 0.18892457D-01 0.52051602D-01 0.17275760D+05 0.17275760D+05 0.17275760D+05 0.12408891D+01  1  2  1  4  5  2       -1 0.271352430676D+00 0.100000000000D+01
  </mgrwgt>
  </event>
  <event>
  5     66 0.48098993E-03 0.10554622E+03 0.75467711E-02 0.12374198E+00
        2 -1    0    0  502    0 0.00000000E+00 0.00000000E+00 0.60266259E+03 0.60266267E+03 0.32000000E+00 0.0000E+00 0.9000E+01
       -1 -1    0    0    0  501 0.00000000E+00 0.00000000E+00 -.25892239E+02 0.25894216E+02 0.32000000E+00 0.0000E+00 0.9000E+01
       25  1    1    2    0    0 0.73610987E+01 0.17145590E+02 0.26235884E+03 0.29121353E+03 0.12500000E+03 0.0000E+00 0.9000E+01
       24  1    1    2    0    0 -.33944847E+02 0.28978514E+01 0.25027984E+03 0.26508086E+03 0.80419002E+02 0.0000E+00 0.9000E+01
       21  1    1    2  502  501 0.26583748E+02 -.20043441E+02 0.64131667E+02 0.72262496E+02 0.75000000E+00 0.0000E+00 0.9000E+01
#aMCatNLO 2  0  0  1  2 0.33293171D+02 0.00000000D+00  -5  5  0 0.00000000D+00 0.00000000D+00 0.00000000D+00 0.00000000D+00 0.00000000D+00
  <mgrwgt>
 0.1705395930D+00    1    2    0
 0.106719957353481D+03 0.000000000000000D+00 0.000000000000000D+00 0.106719957353481D+03
 0.106719957353481D+03 0.000000000000000D+00 0.000000000000000D+00 -.106719957353481D+03
 0.128172795868251D+03 0.231765715902563D+02 0.522114263012918D+01 -.154548309483460D+02
 0.852671188387113D+02 -.231765715902563D+02 -.522114263012918D+01 0.154548309483460D+02
 0.000000000000000D+00 0.000000000000000D+00 -.000000000000000D+00 -.000000000000000D+00
 0.121788352996893D+03 0.000000000000000D+00 0.000000000000000D+00 0.121788352996893D+03
 0.128123011817142D+03 0.000000000000000D+00 0.000000000000000D+00 -.128123011817142D+03
 0.127326386955519D+03 0.736109866388546D+01 0.171455895776500D+02 -.154548309483460D+02
 0.886945203595699D+02 -.339448471070715D+02 0.289785139011576D+01 0.154548309483460D+02
 0.338904574989459D+02 0.265837484431861D+02 -.200434409677658D+02 -.633465882024858D+01
0.821823190110D-04 0.000000000000D+00 0.000000000000D+00 0.305339964404D-02 0.234251099390D-04  5 2 -1 25 24 21 2 0.92714387D-01 0.39834471D-02 0.15254199D+05 0.15254199D+05 0.15254199D+05 0.12469914D+01  1  2  1  1  5  1        2 0.170539592978D+00 0.100000000000D+01
  </mgrwgt>
  </event>
  <event>
  4     66 0.48098993E-03 0.75428348E+02 0.75467711E-02 0.11643998E+00
        2 -1    0    0  501    0 0.00000000E+00 0.00000000E+00 0.43425087E+03 0.43425099E+03 0.32000000E+00 0.0000E+00 0.9000E+01
       -1 -1    0    0    0  501 0.00000000E+00 0.00000000E+00 -.30085106E+02 0.30086808E+02 0.32000000E+00 0.0000E+00 0.9000E+01
       25  1    1    2    0    0 0.44374458E+02 0.20479098E+02 0.24889632E+03 0.28277706E+03 0.12500000E+03 0.0000E+00 0.9000E+01
       24  1    1    2    0    0 -.44374458E+02 -.20479098E+02 0.15526944E+03 0.18156074E+03 0.80419002E+02 0.0000E+00 0.9000E+01
#aMCatNLO 1  0  0  2  1 0.11256117D+03 0.00000000D+00  -5  5  0 0.00000000D+00 0.00000000D+00 0.00000000D+00 0.00000000D+00 0.00000000D+00
  <mgrwgt>
 0.2068071726D+00    7    2    0
 0.114301820658247D+03 0.000000000000000D+00 0.000000000000000D+00 0.114301820658247D+03
 0.114301820658247D+03 0.000000000000000D+00 0.000000000000000D+00 -.114301820658247D+03
 0.134331650438935D+03 0.443744581197759D+02 0.204790978443772D+02 0.561304976860890D+01
 0.942719908775599D+02 -.443744581197759D+02 -.204790978443772D+02 -.561304976860890D+01
 0.000000000000000D+00 0.000000000000000D+00 -.000000000000000D+00 -.000000000000000D+00
 0.143349833505102D+03 0.000000000000000D+00 0.000000000000000D+00 0.143349833505102D+03
 0.326078865562593D+03 0.000000000000000D+00 0.000000000000000D+00 -.326078865562593D+03
 0.141857534406343D+03 -.198492719482310D+00 0.668357265299190D+02 0.561304976860890D+01
 0.112955421906307D+03 -.778179736134635D+02 0.143027283638749D+02 -.561304976860890D+01
 0.214615742755045D+03 0.780164663329458D+02 -.811384548937939D+02 -.182729032057492D+03
0.186923607970D-03 0.000000000000D+00 0.000000000000D+00 0.289718484577D-02 0.000000000000D+00  5 2 -1 25 24 21 0 0.66807967D-01 0.46286179D-02 0.13032399D+05 0.13032399D+05 0.13032399D+05 0.12548449D+01  1  2  2  2  5  2       -1 0.285084732561D+00 0.100000000000D+01
-.103846252971D-04 0.000000000000D+00 -.717835872722D-06 0.289718484577D-02 0.000000000000D+00  5 2 -1 25 24 21 2 0.66807967D-01 0.46286179D-02 0.13032399D+05 0.13032399D+05 0.13032399D+05 0.12548449D+01  1  2  3  2  5  2       -1 -.249390979886D-01 0.100000000000D+01
0.129240108134D-04 0.000000000000D+00 0.000000000000D+00 0.289718484577D-02 0.000000000000D+00  5 2 -1 25 24 21 2 0.66807967D-01 0.46286179D-02 0.13032399D+05 0.13032399D+05 0.13032399D+05 0.12548449D+01  1  2 15  2  5  2       -1 0.310375350923D-01 0.100000000000D+01
0.387872625956D-07 0.000000000000D+00 0.000000000000D+00 0.289718484577D-02 0.000000000000D+00  5 2 -1 25 24 21 2 0.66807967D-01 0.12704963D-01 0.33694914D+05 0.33694914D+05 0.33694914D+05 0.12096396D+01  1  2 12  2  5  2       -1 0.193834379411D-04 0.100000000000D+01
-.873060086287D-04 0.000000000000D+00 -.596114621936D-04 0.289718484577D-02 0.000000000000D+00  5 2 -1 25 24 21 2 0.66807967D-01 0.16398967D-01 0.13032399D+05 0.13032399D+05 0.13032399D+05 0.12548449D+01  1  2  5  2  5  2       -1 -.309712891109D-01 0.100000000000D+01
0.438193640385D-08 0.000000000000D+00 0.000000000000D+00 0.289718484577D-02 0.000000000000D+00  5 2 21 25 24 1 2 0.66807967D-01 0.12704963D-01 0.33694914D+05 0.33694914D+05 0.33694914D+05 0.12096396D+01  1  2 12  4  5  2       -1 0.309285035835D-04 0.100000000000D+01
-.111431643802D-04 0.000000000000D+00 -.883969562768D-05 0.289718484577D-02 0.000000000000D+00  5 2 21 25 24 1 2 0.66807967D-01 0.16398967D-01 0.13032399D+05 0.13032399D+05 0.13032399D+05 0.12548449D+01  1  2  5  4  5  2       -1 -.534550198716D-01 0.100000000000D+01
  </mgrwgt>
  </event>
  <event>
  5     66 0.48098993E-03 0.14436217E+03 0.75467711E-02 0.11456762E+00
        2 -1    0    0  501    0 0.00000000E+00 0.00000000E+00 0.15714275E+04 0.15714275E+04 0.32000000E+00 0.0000E+00 0.9000E+01
       21 -1    0    0  502  501 0.00000000E+00 0.00000000E+00 -.28271520E+02 0.28281466E+02 0.75000000E+00 0.0000E+00 0.9000E+01
       25  1    1    2    0    0 -.84650151E+02 0.65921716E+02 0.44479933E+03 0.47432348E+03 0.12500000E+03 0.0000E+00 0.9000E+01
       24  1    1    2    0    0 0.11203493E+03 0.33506933E+02 0.65272100E+03 0.66797190E+03 0.80419002E+02 0.0000E+00 0.9000E+01
        1  1    1    2  502    0 -.27384777E+02 -.99428649E+02 0.44563567E+03 0.45741363E+03 0.32000000E+00 0.0000E+00 0.9000E+01
#aMCatNLO 2  0  0  2  1 0.10313090D+03 0.00000000D+00  -5  5  0 0.00000000D+00 0.00000000D+00 0.00000000D+00 0.00000000D+00 0.00000000D+00
  <mgrwgt>
 0.1341084775D+00    1    2    0
 0.149709619850504D+03 0.000000000000000D+00 0.000000000000000D+00 0.149709619850504D+03
 0.149709619850504D+03 0.000000000000000D+00 0.000000000000000D+00 -.149709619850504D+03
 0.165002197666769D+03 -.995131372113633D+02 0.119571844441882D+02 -.394320491146934D+02
 0.134417042034238D+03 0.995131372113633D+02 -.119571844441882D+02 0.394320491146934D+02
 0.000000000000000D+00 -.000000000000000D+00 -.000000000000000D+00 0.000000000000000D+00
 0.222181109277144D+03 0.000000000000000D+00 0.000000000000000D+00 0.222181109277144D+03
 0.199992349767774D+03 0.000000000000000D+00 0.000000000000000D+00 -.199992349767774D+03
 0.169384790058700D+03 -.846501507913152D+02 0.659217155181349D+02 -.394320491146934D+02
 0.147297800767155D+03 0.112034927940615D+03 0.335069333187587D+02 0.394320491146934D+02
 0.105490868219063D+03 -.273847771492996D+02 -.994286488368936D+02 0.221887595093700D+02
0.170465647545D-04 0.000000000000D+00 0.000000000000D+00 0.225884971033D-02 0.113870790408D-06  5 2 21 25 24 1 2 0.24175857D+00 0.43502271D-02 0.41980651D+05 0.41980651D+05 0.41980651D+05 0.11998746D+01  1  2  1  4  5  2       -1 0.134108477482D+00 0.100000000000D+01
  </mgrwgt>
  </event>
  <event>
  4     66 0.48098993E-03 0.10387493E+03 0.75467711E-02 0.12088399E+00
        2 -1    0    0  501    0 0.00000000E+00 0.00000000E+00 0.12835284E+03 0.12835323E+03 0.32000000E+00 0.0000E+00 0.9000E+01
       -1 -1    0    0    0  501 0.00000000E+00 0.00000000E+00 -.87426742E+02 0.87427328E+02 0.32000000E+00 0.0000E+00 0.9000E+01
       25  1    1    2    0    0 -.14981155E+02 -.22886792E+01 0.39425562E+01 0.12597705E+03 0.12500000E+03 0.0000E+00 0.9000E+01
       24  1    1    2    0    0 0.14981155E+02 0.22886792E+01 0.36983537E+02 0.89803513E+02 0.80419002E+02 0.0000E+00 0.9000E+01
#aMCatNLO 1  0  0  2  1 0.68103806D+02 0.00000000D+00  -5  5  0 0.00000000D+00 0.00000000D+00 0.00000000D+00 0.00000000D+00 0.00000000D+00
  <mgrwgt>
 0.2443176542D+00    4    2    0
 0.105931942639529D+03 0.000000000000000D+00 0.000000000000000D+00 0.105931942639529D+03
 0.105931942639529D+03 0.000000000000000D+00 0.000000000000000D+00 -.105931942639529D+03
 0.127544366185824D+03 -.149811550150719D+02 -.228867920485734D+01 -.203197511710968D+02
 0.843195190932336D+02 0.149811550150719D+02 0.228867920485734D+01 0.203197511710968D+02
 0.000000000000000D+00 -.000000000000000D+00 0.000000000000000D+00 0.000000000000000D+00
 0.155256293170848D+03 0.000000000000000D+00 0.000000000000000D+00 0.155256293170848D+03
 0.137631901906210D+03 0.000000000000000D+00 0.000000000000000D+00 -.137631901906210D+03
 0.130774722507795D+03 0.159079039245115D+02 -.284793671289233D+02 -.203197511710968D+02
 0.917661373231867D+02 0.360369749584177D+02 -.155644515816817D+02 0.203197511710968D+02
 0.703473352460763D+02 -.519448788829292D+02 0.440438187106050D+02 0.176243912646375D+02
0.300726140503D-03 0.000000000000D+00 0.000000000000D+00 0.303713513045D-02 0.000000000000D+00  5 2 -1 25 24 21 0 0.19746666D-01 0.13450344D-01 0.10790001D+05 0.10790001D+05 0.10790001D+05 0.12644702D+01  1  2  2  2  5  2       -1 0.338985372545D+00 0.100000000000D+01
-.166991968915D-04 0.000000000000D+00 -.115486756254D-05 0.303713513045D-02 0.000000000000D+00  5 2 -1 25 24 21 2 0.19746666D-01 0.13450344D-01 0.10790001D+05 0.10790001D+05 0.10790001D+05 0.12644702D+01  1  2  3  2  5  2       -1 -.300969566941D-01 0.100000000000D+01
0.206620818206D-04 0.000000000000D+00 0.000000000000D+00 0.303713513045D-02 0.000000000000D+00  5 2 -1 25 24 21 2 0.19746666D-01 0.13450344D-01 0.10790001D+05 0.10790001D+05 0.10790001D+05 0.12644702D+01  1  2 15  2  5  2       -1 0.372392628103D-01 0.100000000000D+01
-.564889553824D-04 0.000000000000D+00 0.000000000000D+00 0.303713513045D-02 0.000000000000D+00  5 2 -1 25 24 21 2 0.19746666D-01 0.13450344D-01 0.10790001D+05 0.10790001D+05 0.10790001D+05 0.12644702D+01  1  2  4  2  5  2       -1 -.101810024451D+00 0.100000000000D+01
  </mgrwgt>
  </event>
  <event>
  4     66 0.48098993E-03 0.68026408E+02 0.75467711E-02 0.11957297E+00
        2 -1    0    0  501    0 0.00000000E+00 0.00000000E+00 0.10283757E+04 0.10283758E+04 0.32000000E+00 0.0000E+00 0.9000E+01
       -1 -1    0    0    0  501 0.00000000E+00 0.00000000E+00 -.27960198E+02 0.27962029E+02 0.32000000E+00 0.0000E+00 0.9000E+01
       25  1    1    2    0    0 -.10122402E+03 0.43951958E+02 0.77545224E+03 0.79317668E+03 0.12500000E+03 0.0000E+00 0.9000E+01
       24  1    1    2    0    0 0.10122402E+03 -.43951958E+02 0.22496326E+03 0.26316110E+03 0.80419002E+02 0.0000E+00 0.9000E+01
#aMCatNLO 1  0  0  2  1 0.44936258D+01 0.00000000D+00  -5  5  0 0.00000000D+00 0.00000000D+00 0.00000000D+00 0.00000000D+00 0.00000000D+00
  <mgrwgt>
 0.4355192817D+00    8    2    0
 0.169571760275932D+03 0.000000000000000D+00 0.000000000000000D+00 0.169571760275932D+03
 0.169571760275932D+03 0.000000000000000D+00 0.000000000000000D+00 -.169571760275932D+03
 0.183073100402860D+03 -.101224019184537D+03 0.439519579888975D+02 0.755822956795208D+02
 0.156070420149003D+03 0.101224019184537D+03 -.439519579888975D+02 -.755822956795208D+02
 0.000000000000000D+00 -.000000000000000D+00 -.000000000000000D+00 0.000000000000000D+00
 0.171985323566317D+03 0.000000000000000D+00 0.000000000000000D+00 0.171985323566317D+03
 0.171691206600220D+03 0.000000000000000D+00 0.000000000000000D+00 -.171691206600220D+03
 0.182277209740013D+03 -.991895175321425D+02 0.452629802615659D+02 0.755822956795208D+02
 0.156896079605441D+03 0.102966814641985D+03 -.428289096695551D+02 -.755822956795208D+02
 0.450324082108276D+01 -.377729710984297D+01 -.243407059201078D+01 0.294116966097469D+00
0.496052140653D-03 0.000000000000D+00 0.000000000000D+00 0.185972459712D-02 0.000000000000D+00  5 2 -1 25 24 21 0 0.15821179D+00 0.43017136D-02 0.22996253D+05 0.22996253D+05 0.22996253D+05 0.12272068D+01  1  2  2  2  5  2       -1 0.307190325234D+00 0.100000000000D+01
-.271401419950D-04 0.000000000000D+00 -.190497083364D-05 0.185972459712D-02 0.000000000000D+00  5 2 -1 25 24 21 2 0.15821179D+00 0.43017136D-02 0.22996253D+05 0.22996253D+05 0.22996253D+05 0.12272068D+01  1  2  3  2  5  2       -1 -.253120815193D-01 0.100000000000D+01
0.341825842308D-04 0.000000000000D+00 0.000000000000D+00 0.185972459712D-02 0.000000000000D+00  5 2 -1 25 24 21 2 0.15821179D+00 0.43017136D-02 0.22996253D+05 0.22996253D+05 0.22996253D+05 0.12272068D+01  1  2 15  2  5  2       -1 0.318801706620D-01 0.100000000000D+01
0.680661498892D-04 0.000000000000D+00 0.000000000000D+00 0.185972459712D-02 0.000000000000D+00  5 2 -1 25 24 21 2 0.15821179D+00 0.43856881D-02 0.23693314D+05 0.23693314D+05 0.23693314D+05 0.12258051D+01  1  2 12  2  5  2       -1 0.615893068486D-01 0.100000000000D+01
-.162033908526D-02 0.000000000000D+00 0.000000000000D+00 0.185972459712D-02 0.000000000000D+00  5 2 -1 25 24 21 2 0.15821179D+00 0.43017136D-02 0.22996253D+05 0.22996253D+05 0.22996253D+05 0.12272068D+01  1  2  4  2  5  2       -1 -.151119898424D+01 0.100000000000D+01
0.157192988141D-02 0.000000000000D+00 0.000000000000D+00 0.185972459712D-02 0.738202659347D-03  5 2 -1 25 24 21 2 0.16046366D+00 0.43554800D-02 0.23693314D+05 0.23693314D+05 0.23693314D+05 0.12258051D+01  1  2 11  2  5  2       -1 0.140861679695D+01 0.100000000000D+01
0.214091329695D-05 0.000000000000D+00 0.000000000000D+00 0.185972459712D-02 0.000000000000D+00  5 2 21 25 24 1 2 0.15821179D+00 0.43856881D-02 0.23693314D+05 0.23693314D+05 0.23693314D+05 0.12258051D+01  1  2 12  4  5  2       -1 0.346608982800D-01 0.100000000000D+01
0.797817309587D-05 0.000000000000D+00 0.000000000000D+00 0.185972459712D-02 0.169251691664D-05  5 2 21 25 24 1 2 0.16046366D+00 0.43554800D-02 0.23693314D+05 0.23693314D+05 0.23693314D+05 0.12258051D+01  1  2 11  4  5  2       -1 0.128092849469D+00 0.100000000000D+01
  </mgrwgt>
  </event>
  <event>
  4     66 0.48098993E-03 0.10884179E+03 0.75467711E-02 0.11730091E+00
        2 -1    0    0  501    0 0.00000000E+00 0.00000000E+00 0.53855794E+03 0.53855803E+03 0.32000000E+00 0.0000E+00 0.9000E+01
       -1 -1    0    0    0  501 0.00000000E+00 0.00000000E+00 -.80355670E+02 0.80356307E+02 0.32000000E+00 0.0000E+00 0.9000E+01
       25  1    1    2    0    0 0.11165629E+02 -.97870221E+02 0.17353514E+02 0.16009184E+03 0.12500000E+03 0.0000E+00 0.9000E+01
       24  1    1    2    0    0 -.11165629E+02 0.97870221E+02 0.44084875E+03 0.45882251E+03 0.80419002E+02 0.0000E+00 0.9000E+01
#aMCatNLO 1  0  0  2  1 0.59205302D+02 0.00000000D+00  -5  5  0 0.00000000D+00 0.00000000D+00 0.00000000D+00 0.00000000D+00 0.00000000D+00
  <mgrwgt>
 0.2207568282D+00    9    2    0
 0.208029831168211D+03 0.000000000000000D+00 0.000000000000000D+00 0.208029831168211D+03
 0.208029831168211D+03 0.000000000000000D+00 0.000000000000000D+00 -.208029831168211D+03
 0.219035204765597D+03 0.111656286491608D+02 -.978702208326143D+02 -.150493088006564D+03
 0.197024457570824D+03 -.111656286491608D+02 0.978702208326143D+02 0.150493088006564D+03
 0.000000000000000D+00 -.000000000000000D+00 0.000000000000000D+00 -.000000000000000D+00
 0.224098151736907D+03 0.000000000000000D+00 0.000000000000000D+00 0.224098151736907D+03
 0.272842105529249D+03 0.000000000000000D+00 0.000000000000000D+00 -.272842105529249D+03
 0.230256283770128D+03 0.376843400426811D+02 -.115432565567200D+03 -.150493088006564D+03
 0.189994725055099D+03 0.116775595030602D+02 0.827420368415802D+02 0.150493088006564D+03
 0.766892484409281D+02 -.493618995457412D+02 0.326905287256198D+02 -.487439537923420D+02
0.764687104669D-03 0.000000000000D+00 0.000000000000D+00 0.107066475255D-02 0.000000000000D+00  5 2 -1 25 24 21 0 0.82855124D-01 0.12362467D-01 0.20493593D+05 0.20493593D+05 0.20493593D+05 0.12326621D+01  1  2  2  2  5  2       -1 0.213198747289D+00 0.100000000000D+01
-.352673933692D-04 0.000000000000D+00 -.293659982867D-05 0.107066475255D-02 0.000000000000D+00  5 2 -1 25 24 21 2 0.82855124D-01 0.12362467D-01 0.20493593D+05 0.20493593D+05 0.20493593D+05 0.12326621D+01  1  2  3  2  5  2       -1 -.149404032989D-01 0.100000000000D+01
0.519591741918D-04 0.000000000000D+00 0.000000000000D+00 0.107066475255D-02 0.000000000000D+00  5 2 -1 25 24 21 2 0.82855124D-01 0.12362467D-01 0.20493593D+05 0.20493593D+05 0.20493593D+05 0.12326621D+01  1  2 15  2  5  2       -1 0.220115790633D-01 0.100000000000D+01
0.643712630402D-03 0.000000000000D+00 0.000000000000D+00 0.107066475255D-02 0.000000000000D+00  5 2 -1 25 24 21 2 0.82855124D-01 0.16579524D-01 0.30528473D+05 0.30528473D+05 0.30528473D+05 0.12141033D+01  1  2 12  2  5  2       -1 0.167807105982D+00 0.100000000000D+01
-.819727770075D-03 0.000000000000D+00 0.000000000000D+00 0.107066475255D-02 0.000000000000D+00  5 2 -1 25 24 21 2 0.82855124D-01 0.12362467D-01 0.20493593D+05 0.20493593D+05 0.20493593D+05 0.12326621D+01  1  2  4  2  5  2       -1 -.347263075328D+00 0.100000000000D+01
-.993395218613D-03 0.000000000000D+00 -.332515754817D-03 0.107066475255D-02 0.000000000000D+00  5 2 -1 25 24 21 2 0.82855124D-01 0.17390959D-01 0.20493593D+05 0.20493593D+05 0.20493593D+05 0.12326621D+01  1  2  5  2  5  2       -1 -.246526408377D+00 0.100000000000D+01
0.106284475199D-02 0.000000000000D+00 0.314048049463D-03 0.107066475255D-02 0.000000000000D+00  5 2 -1 25 24 21 2 0.82855124D-01 0.12362467D-01 0.20493593D+05 0.20493593D+05 0.20493593D+05 0.12326621D+01  1  2  6  2  5  2       -1 0.450255256252D+00 0.100000000000D+01
0.244920501362D-04 0.000000000000D+00 0.000000000000D+00 0.107066475255D-02 0.000000000000D+00  5 2 21 25 24 1 2 0.82855124D-01 0.16579524D-01 0.30528473D+05 0.30528473D+05 0.30528473D+05 0.12141033D+01  1  2 12  4  5  2       -1 0.847946355126D-01 0.100000000000D+01
-.330776866777D-04 0.000000000000D+00 -.141054400532D-04 0.107066475255D-02 0.000000000000D+00  5 2 21 25 24 1 2 0.82855124D-01 0.17390959D-01 0.20493593D+05 0.20493593D+05 0.20493593D+05 0.12326621D+01  1  2  5  4  5  2       -1 -.108580608921D+00 0.100000000000D+01
  </mgrwgt>
  </event>
  <event>
  4     66 0.48098993E-03 0.10755011E+03 0.75467711E-02 0.11212223E+00
        2 -1    0    0  501    0 0.00000000E+00 0.00000000E+00 0.38022117E+03 0.38022130E+03 0.32000000E+00 0.0000E+00 0.9000E+01
       -1 -1    0    0    0  501 0.00000000E+00 0.00000000E+00 -.33255124E+02 0.33256663E+02 0.32000000E+00 0.0000E+00 0.9000E+01
       25  1    1    2    0    0 0.31179001E+02 0.13911699E+01 0.14563179E+03 0.19444198E+03 0.12500000E+03 0.0000E+00 0.9000E+01
       24  1    1    2    0    0 -.31179001E+02 -.13911699E+01 0.20133425E+03 0.21903599E+03 0.80419002E+02 0.0000E+00 0.9000E+01
#aMCatNLO 1  0  0  1  1 0.18941645D+03 0.00000000D+00  -5  5  0 0.00000000D+00 0.00000000D+00 0.00000000D+00 0.00000000D+00 0.00000000D+00
  <mgrwgt>
 0.4083405639D+00    3    2    0
 0.112448424579056D+03 0.000000000000000D+00 0.000000000000000D+00 0.112448424579056D+03
 0.112448424579056D+03 0.000000000000000D+00 0.000000000000000D+00 -.112448424579056D+03
 0.132808389780683D+03 0.311790005046263D+02 0.139116988191278D+01 -.322335689930551D+02
 0.920884593774291D+02 -.311790005046263D+02 -.139116988191278D+01 0.322335689930551D+02
 0.000000000000000D+00 -.000000000000000D+00 0.000000000000000D+00 -.000000000000000D+00
 0.230599209166050D+03 0.000000000000000D+00 0.000000000000000D+00 0.230599209166050D+03
 0.254334597463607D+03 0.000000000000000D+00 0.000000000000000D+00 -.254334597463607D+03
 0.185515988913379D+03 0.882545162304737D+02 -.998164291958186D+02 -.322335689930551D+02
 0.108520039321016D+03 0.479007471724366D+01 -.651723499195588D+02 0.322335689930551D+02
 0.190897778395262D+03 -.930445909477174D+02 0.164988779115377D+03 -.237353882975570D+02
0.264966872245D-03 0.000000000000D+00 0.000000000000D+00 0.274284151019D-02 0.000000000000D+00  5 2 -1 25 24 21 0 0.58495693D-01 0.51163017D-02 0.11567026D+05 0.11567026D+05 0.11567026D+05 0.12608989D+01  1  2  2  1  5  1        2 0.399603510089D+00 0.100000000000D+01
-.146848793947D-04 0.000000000000D+00 -.101754255680D-05 0.274284151019D-02 0.000000000000D+00  5 2 -1 25 24 21 2 0.58495693D-01 0.51163017D-02 0.11567026D+05 0.11567026D+05 0.11567026D+05 0.12608989D+01  1  2  3  1  5  1        2 -.352102087896D-01 0.100000000000D+01
0.183287822858D-04 0.000000000000D+00 0.000000000000D+00 0.274284151019D-02 0.000000000000D+00  5 2 -1 25 24 21 2 0.58495693D-01 0.51163017D-02 0.11567026D+05 0.11567026D+05 0.11567026D+05 0.12608989D+01  1  2 15  1  5  1        2 0.439472626094D-01 0.100000000000D+01
  </mgrwgt>
  </event>
  <event>
  4     66 -.48098993E-03 0.77626713E+02 0.75467711E-02 0.12262164E+00
        2 -1    0    0  501    0 0.00000000E+00 0.00000000E+00 0.36818611E+03 0.36818625E+03 0.32000000E+00 0.0000E+00 0.9000E+01
       -1 -1    0    0    0  501 0.00000000E+00 0.00000000E+00 -.52102428E+02 0.52103411E+02 0.32000000E+00 0.0000E+00 0.9000E+01
       25  1    1    2    0    0 0.76314871E+02 0.17720542E+02 0.10457101E+03 0.18082609E+03 0.12500000E+03 0.0000E+00 0.9000E+01
       24  1    1    2    0    0 -.76314871E+02 -.17720542E+02 0.21151268E+03 0.23946358E+03 0.80419002E+02 0.0000E+00 0.9000E+01
#aMCatNLO 1  0  0  2  1 0.18819539D+01 0.00000000D+00  -5  5  0 0.00000000D+00 0.00000000D+00 0.00000000D+00 0.00000000D+00 0.00000000D+00
  <mgrwgt>
 -.1661971153D+00   11    2    0
 0.138504968167719D+03 0.000000000000000D+00 0.000000000000000D+00 0.138504968167719D+03
 0.138504968167719D+03 0.000000000000000D+00 0.000000000000000D+00 -.138504968167719D+03
 0.155034671337898D+03 0.763148707774375D+02 0.177205422230505D+02 -.476736006443190D+02
 0.121975264997541D+03 -.763148707774375D+02 -.177205422230505D+02 0.476736006443190D+02
 0.000000000000000D+00 -.000000000000000D+00 -.000000000000000D+00 -.000000000000000D+00
 0.139170306332554D+03 0.000000000000000D+00 0.000000000000000D+00 0.139170306332554D+03
 0.139845397213766D+03 0.000000000000000D+00 0.000000000000000D+00 -.139845397213766D+03
 0.155232193226499D+03 0.764669513706919D+02 0.187634475400253D+02 -.476736006443190D+02
 0.121784135857379D+03 -.761953895226622D+02 -.169011895810237D+02 0.476736006443190D+02
 0.199937446244221D+01 -.271561848029662D+00 -.186225795900168D+01 -.675090881212068D+00
0.289289959256D-03 0.000000000000D+00 0.000000000000D+00 0.224878794923D-02 0.000000000000D+00  5 2 -1 25 24 21 0 0.56644104D-01 0.80158444D-02 0.16873445D+05 0.16873445D+05 0.16873445D+05 0.12420374D+01  1  2  2  2  5  2       -1 0.234775421742D+00 0.100000000000D+01
-.159912295906D-04 0.000000000000D+00 -.111094961534D-05 0.224878794923D-02 0.000000000000D+00  5 2 -1 25 24 21 2 0.56644104D-01 0.80158444D-02 0.16873445D+05 0.16873445D+05 0.16873445D+05 0.12420374D+01  1  2  3  2  5  2       -1 -.200202957458D-01 0.100000000000D+01
0.200012001802D-04 0.000000000000D+00 0.000000000000D+00 0.224878794923D-02 0.000000000000D+00  5 2 -1 25 24 21 2 0.56644104D-01 0.80158444D-02 0.16873445D+05 0.16873445D+05 0.16873445D+05 0.12420374D+01  1  2 15  2  5  2       -1 0.250405974480D-01 0.100000000000D+01
0.995141919484D-07 0.000000000000D+00 0.000000000000D+00 0.224878794923D-02 0.000000000000D+00  5 2 -1 25 24 21 2 0.56644104D-01 0.81125335D-02 0.17118778D+05 0.17118778D+05 0.17118778D+05 0.12413336D+01  1  2 12  2  5  2       -1 0.122276658920D-03 0.100000000000D+01
-.404218974637D-02 0.000000000000D+00 0.000000000000D+00 0.224878794923D-02 0.000000000000D+00  5 2 -1 25 24 21 2 0.56644104D-01 0.80158444D-02 0.16873445D+05 0.16873445D+05 0.16873445D+05 0.12420374D+01  1  2  4  2  5  2       -1 -.506063862845D+01 0.100000000000D+01
-.222500803624D-01 0.000000000000D+00 -.242531568970D-02 0.224878794923D-02 0.000000000000D+00  5 2 -1 25 24 21 2 0.56644104D-01 0.81315398D-02 0.16873445D+05 0.16873445D+05 0.16873445D+05 0.12420374D+01  1  2  5  2  5  2       -1 -.272608048805D+02 0.100000000000D+01
0.222827965895D-01 0.000000000000D+00 0.242506668705D-02 0.224878794923D-02 0.000000000000D+00  5 2 -1 25 24 21 2 0.56644104D-01 0.80158444D-02 0.16873445D+05 0.16873445D+05 0.16873445D+05 0.12420374D+01  1  2  6  2  5  2       -1 0.278970528962D+02 0.100000000000D+01
0.404236462381D-02 0.000000000000D+00 0.000000000000D+00 0.224878794923D-02 0.521837113921D-02  5 2 -1 25 24 21 2 0.56916206D-01 0.80934205D-02 0.17118778D+05 0.17118778D+05 0.17118778D+05 0.12413336D+01  1  2 11  2  5  2       -1 0.495935191710D+01 0.100000000000D+01
0.808667370592D-08 0.000000000000D+00 0.000000000000D+00 0.224878794923D-02 0.000000000000D+00  5 2 21 25 24 1 2 0.56644104D-01 0.81125335D-02 0.17118778D+05 0.17118778D+05 0.17118778D+05 0.12413336D+01  1  2 12  4  5  2       -1 0.157182043021D-03 0.100000000000D+01
-.583357891384D-04 0.000000000000D+00 -.637874570528D-05 0.224878794923D-02 0.000000000000D+00  5 2 21 25 24 1 2 0.56644104D-01 0.81315398D-02 0.16873445D+05 0.16873445D+05 0.16873445D+05 0.12420374D+01  1  2  5  4  5  2       -1 -.113029342500D+01 0.100000000000D+01
0.973670475316D-05 0.000000000000D+00 0.000000000000D+00 0.224878794923D-02 0.930392464428D-05  5 2 21 25 24 1 2 0.56916206D-01 0.80934205D-02 0.17118778D+05 0.17118778D+05 0.17118778D+05 0.12413336D+01  1  2 11  4  5  2       -1 0.189059823156D+00 0.100000000000D+01
  </mgrwgt>
  </event>
  <event>
  4     66 0.48098993E-03 0.94464575E+02 0.75467711E-02 0.11794398E+00
        2 -1    0    0  501    0 0.00000000E+00 0.00000000E+00 0.10410404E+04 0.10410405E+04 0.32000000E+00 0.0000E+00 0.9000E+01
       -1 -1    0    0    0  501 0.00000000E+00 0.00000000E+00 -.22930128E+02 0.22932361E+02 0.32000000E+00 0.0000E+00 0.9000E+01
       25  1    1    2    0    0 -.46351451E+02 -.97346166E+02 0.68767368E+03 0.70720918E+03 0.12500000E+03 0.0000E+00 0.9000E+01
       24  1    1    2    0    0 0.46351451E+02 0.97346166E+02 0.33043663E+03 0.35676367E+03 0.80419002E+02 0.0000E+00 0.9000E+01
#aMCatNLO 1  0  0  1  2 0.35507914D+02 0.00000000D+00  -5  5  0 0.00000000D+00 0.00000000D+00 0.00000000D+00 0.00000000D+00 0.00000000D+00
  <mgrwgt>
 0.6876371626D+00    9    2    0
 0.154506972893656D+03 0.000000000000000D+00 0.000000000000000D+00 0.154506972893656D+03
 0.154506972893656D+03 0.000000000000000D+00 0.000000000000000D+00 -.154506972893656D+03
 0.169324724924712D+03 -.463514511563145D+02 -.973461662010691D+02 0.376978696014393D+02
 0.139689220862599D+03 0.463514511563145D+02 0.973461662010691D+02 -.376978696014393D+02
 0.000000000000000D+00 0.000000000000000D+00 0.000000000000000D+00 0.000000000000000D+00
 0.176160276437065D+03 0.000000000000000D+00 0.000000000000000D+00 0.176160276437065D+03
 0.170797620316528D+03 0.000000000000000D+00 0.000000000000000D+00 -.170797620316528D+03
 0.182613537998116D+03 -.582365907445993D+02 -.113622508272562D+03 0.376978696014393D+02
 0.128433774585955D+03 0.372967970778692D+02 0.849460891110971D+02 -.376978696014393D+02
 0.359105841695227D+02 0.209397936667301D+02 0.286764191614646D+02 0.536265612053715D+01
0.425493601186D-03 0.000000000000D+00 0.000000000000D+00 0.224507412640D-02 0.000000000000D+00  5 2 -1 25 24 21 0 0.16016024D+00 0.35278876D-02 0.22437231D+05 0.22437231D+05 0.22437231D+05 0.12283658D+01  1  2  2  1  5  1        2 0.346543724446D+00 0.100000000000D+01
-.236109119538D-04 0.000000000000D+00 -.163400746359D-05 0.224507412640D-02 0.000000000000D+00  5 2 -1 25 24 21 2 0.16016024D+00 0.35278876D-02 0.22437231D+05 0.22437231D+05 0.22437231D+05 0.12283658D+01  1  2  3  1  5  1        2 -.290157080716D-01 0.100000000000D+01
0.292942280472D-04 0.000000000000D+00 0.000000000000D+00 0.224507412640D-02 0.000000000000D+00  5 2 -1 25 24 21 2 0.16016024D+00 0.35278876D-02 0.22437231D+05 0.22437231D+05 0.22437231D+05 0.12283658D+01  1  2 15  1  5  1        2 0.359999974107D-01 0.100000000000D+01
0.418351732809D-03 0.000000000000D+00 0.000000000000D+00 0.224507412640D-02 0.000000000000D+00  5 2 -1 25 24 21 2 0.19002869D+00 0.35278876D-02 0.28386294D+05 0.28386294D+05 0.28386294D+05 0.12174267D+01  1  2 12  1  5  1        2 0.393318482787D+00 0.100000000000D+01
-.375112000433D-03 0.000000000000D+00 0.000000000000D+00 0.224507412640D-02 0.000000000000D+00  5 2 -1 25 24 21 2 0.16016024D+00 0.35278876D-02 0.22437231D+05 0.22437231D+05 0.22437231D+05 0.12283658D+01  1  2  4  1  5  1        2 -.460979242141D+00 0.100000000000D+01
-.113289886480D-02 0.000000000000D+00 -.313043146196D-03 0.224507412640D-02 0.000000000000D+00  5 2 -1 25 24 21 2 0.19517779D+00 0.35278876D-02 0.22437231D+05 0.22437231D+05 0.22437231D+05 0.12283658D+01  1  2  5  1  5  1        2 -.103544459654D+01 0.100000000000D+01
0.117772125820D-02 0.000000000000D+00 0.307021366610D-03 0.224507412640D-02 0.000000000000D+00  5 2 -1 25 24 21 2 0.16016024D+00 0.35278876D-02 0.22437231D+05 0.22437231D+05 0.22437231D+05 0.12283658D+01  1  2  6  1  5  1        2 0.144731454187D+01 0.100000000000D+01
0.105974278839D-04 0.000000000000D+00 0.000000000000D+00 0.224507412640D-02 0.000000000000D+00  5 21 -1 25 24 -2 2 0.19002869D+00 0.35278876D-02 0.28386294D+05 0.28386294D+05 0.28386294D+05 0.12174267D+01  1  2 12  3  5  1        2 0.645324849268D-02 0.100000000000D+01
-.286025990994D-04 0.000000000000D+00 -.888033684172D-05 0.224507412640D-02 0.000000000000D+00  5 21 -1 25 24 -2 2 0.19517779D+00 0.35278876D-02 0.22437231D+05 0.22437231D+05 0.22437231D+05 0.12283658D+01  1  2  5  3  5  1        2 -.165532856195D-01 0.100000000000D+01
  </mgrwgt>
  </event>
  <event>
  4     66 0.48098993E-03 0.45725641E+02 0.75467711E-02 0.12144547E+00
        2 -1    0    0  501    0 0.00000000E+00 0.00000000E+00 0.76967158E+03 0.76967164E+03 0.32000000E+00 0.0000E+00 0.9000E+01
       -1 -1    0    0    0  501 0.00000000E+00 0.00000000E+00 -.14674359E+02 0.14677848E+02 0.32000000E+00 0.0000E+00 0.9000E+01
       25  1    1    2    0    0 0.10993748E+02 -.23297171E+02 0.42788465E+03 0.44651304E+03 0.12500000E+03 0.0000E+00 0.9000E+01
       24  1    1    2    0    0 -.10993748E+02 0.23297171E+02 0.32711257E+03 0.33783645E+03 0.80419002E+02 0.0000E+00 0.9000E+01
#aMCatNLO 1  0  0  1  2 0.58386593D+02 0.00000000D+00  -5  5  0 0.00000000D+00 0.00000000D+00 0.00000000D+00 0.00000000D+00 0.00000000D+00
  <mgrwgt>
 0.2213137984D+00    7    2    0
 0.106281850112632D+03 0.000000000000000D+00 0.000000000000000D+00 0.106281850112632D+03
 0.106281850112632D+03 0.000000000000000D+00 0.000000000000000D+00 -.106281850112632D+03
 0.127823119943569D+03 0.109937483783027D+02 -.232971711872424D+02 -.708020503762466D+01
 0.847405802816953D+02 -.109937483783027D+02 0.232971711872424D+02 0.708020503762466D+01
 0.000000000000000D+00 -.000000000000000D+00 0.000000000000000D+00 0.000000000000000D+00
 0.211128326969945D+03 0.000000000000000D+00 0.000000000000000D+00 0.211128326969945D+03
 0.118663960550166D+03 0.000000000000000D+00 0.000000000000000D+00 -.118663960550166D+03
 0.139442779721325D+03 0.334731551989951D+02 -.514655942748086D+02 -.708020503762466D+01
 0.809938799669728D+02 0.294597367680778D+01 0.582962892941078D+01 0.708020503762466D+01
 0.109355627831813D+03 -.364191288758029D+02 0.456359653453978D+02 0.924643664197797D+02
0.132930096178D-03 0.000000000000D+00 0.000000000000D+00 0.310974412466D-02 0.000000000000D+00  5 2 -1 25 24 21 0 0.11841129D+00 0.22578672D-02 0.11243544D+05 0.11243544D+05 0.11243544D+05 0.12623518D+01  1  2  2  1  5  1        2 0.299683168031D+00 0.100000000000D+01
-.738495702164D-05 0.000000000000D+00 -.510486570622D-06 0.310974412466D-02 0.000000000000D+00  5 2 -1 25 24 21 2 0.11841129D+00 0.22578672D-02 0.11243544D+05 0.11243544D+05 0.11243544D+05 0.12623518D+01  1  2  3  1  5  1        2 -.265306461443D-01 0.100000000000D+01
0.919103351742D-05 0.000000000000D+00 0.000000000000D+00 0.310974412466D-02 0.000000000000D+00  5 2 -1 25 24 21 2 0.11841129D+00 0.22578672D-02 0.11243544D+05 0.11243544D+05 0.11243544D+05 0.12623518D+01  1  2 15  1  5  1        2 0.330190219437D-01 0.100000000000D+01
0.854260292640D-04 0.000000000000D+00 0.000000000000D+00 0.310974412466D-02 0.000000000000D+00  5 2 -1 25 24 21 2 0.23581198D+00 0.22578672D-02 0.19367361D+05 0.19367361D+05 0.19367361D+05 0.12353658D+01  1  2 12  1  5  1        2 0.109258633602D+00 0.100000000000D+01
-.157168097878D-03 0.000000000000D+00 -.445726845024D-04 0.310974412466D-02 0.000000000000D+00  5 2 -1 25 24 21 2 0.24580133D+00 0.22578672D-02 0.11243544D+05 0.11243544D+05 0.11243544D+05 0.12623518D+01  1  2  5  1  5  1        2 -.192410535829D+00 0.100000000000D+01
0.636867095741D-05 0.000000000000D+00 0.000000000000D+00 0.310974412466D-02 0.000000000000D+00  5 21 -1 25 24 -2 2 0.23581198D+00 0.22578672D-02 0.19367361D+05 0.19367361D+05 0.19367361D+05 0.12353658D+01  1  2 12  3  5  1        2 0.405294750982D-02 0.100000000000D+01
-.966916384403D-05 0.000000000000D+00 -.352018328012D-05 0.310974412466D-02 0.000000000000D+00  5 21 -1 25 24 -2 2 0.24580133D+00 0.22578672D-02 0.11243544D+05 0.11243544D+05 0.11243544D+05 0.12623518D+01  1  2  5  3  5  1        2 -.575879069298D-02 0.100000000000D+01
  </mgrwgt>
  </event>
  <event>
  4     66 0.48098993E-03 0.11432603E+03 0.75467711E-02 0.11939842E+00
        2 -1    0    0  501    0 0.00000000E+00 0.00000000E+00 0.45412484E+03 0.45412495E+03 0.32000000E+00 0.0000E+00 0.9000E+01
       -1 -1    0    0    0  501 0.00000000E+00 0.00000000E+00 -.29334408E+02 0.29336153E+02 0.32000000E+00 0.0000E+00 0.9000E+01
       25  1    1    2    0    0 -.45109993E+02 0.19759712E+02 0.21618713E+03 0.25453337E+03 0.12500000E+03 0.0000E+00 0.9000E+01
       24  1    1    2    0    0 0.45109993E+02 -.19759712E+02 0.20860329E+03 0.22892774E+03 0.80419002E+02 0.0000E+00 0.9000E+01
#aMCatNLO 1  0  0  1  2 0.71302842D+02 0.00000000D+00  -5  5  0 0.00000000D+00 0.00000000D+00 0.00000000D+00 0.00000000D+00 0.00000000D+00
  <mgrwgt>
 0.3090766972D+00    4    2    0
 0.115420675110075D+03 0.000000000000000D+00 0.000000000000000D+00 0.115420675110075D+03
 0.115420675110075D+03 0.000000000000000D+00 0.000000000000000D+00 -.115420675110075D+03
 0.135256341546993D+03 -.451099929511813D+02 0.197597122684728D+02 -.156179459497205D+02
 0.955850086731564D+02 0.451099929511813D+02 -.197597122684728D+02 0.156179459497205D+02
 0.000000000000000D+00 -.000000000000000D+00 -.000000000000000D+00 -.000000000000000D+00
 0.140096136271244D+03 0.000000000000000D+00 0.000000000000000D+00 0.140096136271244D+03
 0.186675118302158D+03 0.000000000000000D+00 0.000000000000000D+00 -.186675118302158D+03
 0.142258036937256D+03 -.300790080885117D+02 0.588530552305026D+02 -.156179459497205D+02
 0.993445795873140D+02 0.556679456829740D+02 0.769994329581118D+01 0.156179459497205D+02
 0.851686380488323D+02 -.255889375944623D+02 -.665529985263138D+02 -.465789820309138D+02
0.261942104255D-03 0.000000000000D+00 0.000000000000D+00 0.283266886462D-02 0.000000000000D+00  5 2 -1 25 24 21 0 0.69865502D-01 0.45131287D-02 0.13070441D+05 0.13070441D+05 0.13070441D+05 0.12546981D+01  1  2  2  1  5  1        2 0.395205476534D+00 0.100000000000D+01
-.145507324514D-04 0.000000000000D+00 -.100592665128D-05 0.283266886462D-02 0.000000000000D+00  5 2 -1 25 24 21 2 0.69865502D-01 0.45131287D-02 0.13070441D+05 0.13070441D+05 0.13070441D+05 0.12546981D+01  1  2  3  1  5  1        2 -.345605762266D-01 0.100000000000D+01
0.181628564733D-04 0.000000000000D+00 0.000000000000D+00 0.283266886462D-02 0.000000000000D+00  5 2 -1 25 24 21 2 0.69865502D-01 0.45131287D-02 0.13070441D+05 0.13070441D+05 0.13070441D+05 0.12546981D+01  1  2 15  1  5  1        2 0.431400128984D-01 0.100000000000D+01
-.398741590027D-04 0.000000000000D+00 0.000000000000D+00 0.283266886462D-02 0.000000000000D+00  5 2 -1 25 24 21 2 0.69865502D-01 0.45131287D-02 0.13070441D+05 0.13070441D+05 0.13070441D+05 0.12546981D+01  1  2  4  1  5  1        2 -.947082159805D-01 0.100000000000D+01
  </mgrwgt>
  </event>
  <event>
  4     66 0.48098993E-03 0.24102865E+03 0.75467711E-02 0.10264414E+00
        2 -1    0    0  501    0 0.00000000E+00 0.00000000E+00 0.85001095E+03 0.85001101E+03 0.32000000E+00 0.0000E+00 0.9000E+01
       -1 -1    0    0    0  501 0.00000000E+00 0.00000000E+00 -.69679438E+02 0.69680173E+02 0.32000000E+00 0.0000E+00 0.9000E+01
       25  1    1    2    0    0 0.21268451E+03 -.43637400E+02 0.46882313E+03 0.53156284E+03 0.12500000E+03 0.0000E+00 0.9000E+01
       24  1    1    2    0    0 -.21268451E+03 0.43637400E+02 0.31150838E+03 0.38812835E+03 0.80419002E+02 0.0000E+00 0.9000E+01
#aMCatNLO 1  0  0  2  1 0.32644950D+03 0.00000000D+00  -5  5  0 0.00000000D+00 0.00000000D+00 0.00000000D+00 0.00000000D+00 0.00000000D+00
  <mgrwgt>
 0.3976727222D+00    5    2    0
 0.243369371748344D+03 0.000000000000000D+00 0.000000000000000D+00 0.243369371748344D+03
 0.243369371748344D+03 0.000000000000000D+00 0.000000000000000D+00 -.243369371748344D+03
 0.252776660738574D+03 0.212684511760545D+03 -.436374000828378D+02 0.336469312914724D+02
 0.233962082758114D+03 -.212684511760545D+03 0.436374000828378D+02 -.336469312914724D+02
 0.000000000000000D+00 -.000000000000000D+00 -.000000000000000D+00 -.000000000000000D+00
 0.366797713577881D+03 0.000000000000000D+00 0.000000000000000D+00 0.366797713577881D+03
 0.654239215206890D+03 0.000000000000000D+00 0.000000000000000D+00 -.654239215206890D+03
 0.280186172844790D+03 0.218448803037506D+03 0.118436885806569D+03 0.336469312914724D+02
 0.305888808267139D+03 -.206845722287978D+03 0.207806347965003D+03 -.336469312914724D+02
 0.434961947672842D+03 -.116030807495277D+02 -.326243233771572D+03 -.287441501629008D+03
0.186401093772D-02 0.000000000000D+00 0.000000000000D+00 0.203325085474D-02 0.000000000000D+00  5 2 -1 25 24 21 0 0.13077098D+00 0.10719975D-01 0.58094808D+05 0.58094808D+05 0.58094808D+05 0.11858813D+01  1  2  2  2  5  2       -1 0.379646772833D+00 0.100000000000D+01
-.103544402843D-03 0.000000000000D+00 -.715829280621D-05 0.203325085474D-02 0.000000000000D+00  5 2 -1 25 24 21 2 0.13077098D+00 0.10719975D-01 0.58094808D+05 0.58094808D+05 0.58094808D+05 0.11858813D+01  1  2  3  2  5  2       -1 -.296578939919D-01 0.100000000000D+01
0.127938161729D-03 0.000000000000D+00 0.000000000000D+00 0.203325085474D-02 0.000000000000D+00  5 2 -1 25 24 21 2 0.13077098D+00 0.10719975D-01 0.58094808D+05 0.58094808D+05 0.58094808D+05 0.11858813D+01  1  2 15  2  5  2       -1 0.366449207673D-01 0.100000000000D+01
0.112322310595D-03 0.000000000000D+00 -.627992664300D-03 0.203325085474D-02 0.000000000000D+00  5 2 -1 25 24 21 2 0.13077098D+00 0.42854762D-01 0.58094808D+05 0.58094808D+05 0.58094808D+05 0.11858813D+01  1  2  5  2  5  2       -1 0.326540044329D-02 0.100000000000D+01
0.259678973067D-04 0.000000000000D+00 -.103843997686D-03 0.203325085474D-02 0.000000000000D+00  5 2 21 25 24 1 2 0.13077098D+00 0.42854762D-01 0.58094808D+05 0.58094808D+05 0.58094808D+05 0.11858813D+01  1  2  5  4  5  2       -1 0.777352212433D-02 0.100000000000D+01
  </mgrwgt>
  </event>
  <event>
  4     66 0.48098993E-03 0.11453790E+03 0.75467711E-02 0.11781132E+00
        2 -1    0    0  501    0 0.00000000E+00 0.00000000E+00 0.62324211E+03 0.62324219E+03 0.32000000E+00 0.0000E+00 0.9000E+01
       -1 -1    0    0    0  501 0.00000000E+00 0.00000000E+00 -.21075963E+02 0.21078392E+02 0.32000000E+00 0.0000E+00 0.9000E+01
       25  1    1    2    0    0 0.40944611E+02 -.28211777E+02 0.36507097E+03 0.38906835E+03 0.12500000E+03 0.0000E+00 0.9000E+01
       24  1    1    2    0    0 -.40944611E+02 0.28211777E+02 0.23709517E+03 0.25525223E+03 0.80419002E+02 0.0000E+00 0.9000E+01
#aMCatNLO 1  0  0  2  1 0.92457077D+02 0.00000000D+00  -5  5  0 0.00000000D+00 0.00000000D+00 0.00000000D+00 0.00000000D+00 0.00000000D+00
  <mgrwgt>
 0.3170070866D+00    3    2    0
 0.114613422336259D+03 0.000000000000000D+00 0.000000000000000D+00 0.114613422336259D+03
 0.114613422336259D+03 0.000000000000000D+00 0.000000000000000D+00 -.114613422336259D+03
 0.134588796640068D+03 0.409446112026956D+02 -.282117765942543D+02 0.409617576254403D+01
 0.946380480324494D+02 -.409446112026956D+02 0.282117765942543D+02 -.409617576254403D+01
 0.000000000000000D+00 0.000000000000000D+00 0.000000000000000D+00 0.000000000000000D+00
 0.223470544911606D+03 0.000000000000000D+00 0.000000000000000D+00 0.223470544911606D+03
 0.144980570551744D+03 0.000000000000000D+00 0.000000000000000D+00 -.144980570551744D+03
 0.128809252801876D+03 -.101668311019024D+02 -.290977747748058D+02 0.409617576254403D+01
 0.118361249722782D+03 -.822763573610357D+02 0.274953058737242D+02 -.409617576254403D+01
 0.121280612938693D+03 0.924431884629381D+02 0.160246890108163D+01 0.784899743598617D+02
0.180065166496D-03 0.000000000000D+00 0.000000000000D+00 0.289278834514D-02 0.000000000000D+00  5 2 -1 25 24 21 0 0.95883594D-01 0.32426490D-02 0.13118932D+05 0.13118932D+05 0.13118932D+05 0.12545117D+01  1  2  2  2  5  2       -1 0.310378591250D+00 0.100000000000D+01
-.100036150770D-04 0.000000000000D+00 -.691497651591D-06 0.289278834514D-02 0.000000000000D+00  5 2 -1 25 24 21 2 0.95883594D-01 0.32426490D-02 0.13118932D+05 0.13118932D+05 0.13118932D+05 0.12545117D+01  1  2  3  2  5  2       -1 -.271374117771D-01 0.100000000000D+01
0.124470653381D-04 0.000000000000D+00 0.000000000000D+00 0.289278834514D-02 0.000000000000D+00  5 2 -1 25 24 21 2 0.95883594D-01 0.32426490D-02 0.13118932D+05 0.13118932D+05 0.13118932D+05 0.12545117D+01  1  2 15  2  5  2       -1 0.337659071141D-01 0.100000000000D+01
  </mgrwgt>
  </event>
  <event>
  5     66 0.48098993E-03 0.11556936E+03 0.75467711E-02 0.12116805E+00
        2 -1    0    0  502    0 0.00000000E+00 0.00000000E+00 0.72816679E+03 0.72816686E+03 0.32000000E+00 0.0000E+00 0.9000E+01
       -1 -1    0    0    0  501 0.00000000E+00 0.00000000E+00 -.22283151E+03 0.22283173E+03 0.32000000E+00 0.0000E+00 0.9000E+01
       25  1    1    2    0    0 0.35000625E+02 0.23351284E+02 -.14643511E+03 0.19707503E+03 0.12500000E+03 0.0000E+00 0.9000E+01
       24  1    1    2    0    0 -.14221876E+02 -.64770562E+02 0.38054457E+01 0.10430333E+03 0.80419002E+02 0.0000E+00 0.9000E+01
       21  1    1    2  502  501 -.20778750E+02 0.41419278E+02 0.64796494E+03 0.64962023E+03 0.75000000E+00 0.0000E+00 0.9000E+01
#aMCatNLO 2  0  0  1  2 0.46339109D+02 0.00000000D+00  -5  5  0 0.00000000D+00 0.00000000D+00 0.00000000D+00 0.00000000D+00 0.00000000D+00
  <mgrwgt>
 0.5553406888D+00    2    2    0
 0.130708054844379D+03 0.000000000000000D+00 0.000000000000000D+00 0.130708054844379D+03
 0.130708054844379D+03 0.000000000000000D+00 0.000000000000000D+00 -.130708054844379D+03
 0.148223777300299D+03 0.234354936944282D+02 0.464046157081360D+02 -.603545974507933D+02
 0.113192332388458D+03 -.234354936944282D+02 -.464046157081360D+02 0.603545974507933D+02
 0.000000000000000D+00 -.000000000000000D+00 0.000000000000000D+00 0.000000000000000D+00
 0.121778566684563D+04 0.000000000000000D+00 0.000000000000000D+00 0.121778566684563D+04
 0.133240465644215D+03 0.000000000000000D+00 0.000000000000000D+00 -.133240465644215D+03
 0.145044833342736D+03 0.350006254906348D+02 0.233512839312782D+02 -.603545974507933D+02
 0.120446589204432D+03 -.142218757930079D+02 -.647705620794787D+02 0.603545974507933D+02
 0.108553470994267D+04 -.207787496976269D+02 0.414192781482005D+02 0.108454520120141D+04
-.324190204317D-01 0.000000000000D+00 0.000000000000D+00 0.211787668466D-02 0.000000000000D+00  5 2 -1 25 24 21 2 0.11051759D+00 0.33630190D-01 0.19946526D+05 0.19946526D+05 0.19946526D+05 0.12339541D+01  1  2 13  1  5  1        2 -.195924387891D+01 0.100000000000D+01
0.437020571013D-01 0.000000000000D+00 0.000000000000D+00 0.211787668466D-02 0.399364657034D-04  5 2 -1 25 24 21 2 0.11202557D+00 0.34281760D-01 0.19946526D+05 0.19946526D+05 0.19946526D+05 0.12339541D+01  1  2  1  1  5  1        2 0.251458456775D+01 0.100000000000D+01
  </mgrwgt>
  </event>
  <event>
  5     66 0.48098993E-03 0.11648969E+03 0.75467711E-02 0.11922223E+00
        2 -1    0    0  502    0 0.00000000E+00 0.00000000E+00 0.24175567E+03 0.24175589E+03 0.32000000E+00 0.0000E+00 0.9000E+01
       -1 -1    0    0    0  501 0.00000000E+00 0.00000000E+00 -.12126135E+03 0.12126178E+03 0.32000000E+00 0.0000E+00 0.9000E+01
       25  1    1    2    0    0 0.37621508E+02 -.60329268E+02 -.13278679E+02 0.14441718E+03 0.12500000E+03 0.0000E+00 0.9000E+01
       24  1    1    2    0    0 0.31975987E+02 0.49187626E+02 0.58432363E+02 0.11542722E+03 0.80419002E+02 0.0000E+00 0.9000E+01
       21  1    1    2  502  501 -.69597496E+02 0.11141642E+02 0.75340636E+02 0.10317326E+03 0.75000000E+00 0.0000E+00 0.9000E+01
#aMCatNLO 2  0  0  1  2 0.70483669D+02 0.00000000D+00  -5  5  0 0.00000000D+00 0.00000000D+00 0.00000000D+00 0.00000000D+00 0.00000000D+00
  <mgrwgt>
 0.8118504463D-01    2    2    0
 0.122996249751797D+03 0.000000000000000D+00 0.000000000000000D+00 0.122996249751797D+03
 0.122996249751797D+03 0.000000000000000D+00 0.000000000000000D+00 -.122996249751797D+03
 0.141610199494390D+03 -.267696765895349D+01 -.538780129989594D+02 -.389671933846652D+02
 0.104382300009204D+03 0.267696765895349D+01 0.538780129989594D+02 0.389671933846652D+02
 0.000000000000000D+00 -.000000000000000D+00 0.000000000000000D+00 0.000000000000000D+00
 0.202829451751147D+03 0.000000000000000D+00 0.000000000000000D+00 0.202829451751147D+03
 0.144531052128462D+03 0.000000000000000D+00 0.000000000000000D+00 -.144531052128462D+03
 0.148991411235422D+03 0.376215083502058D+02 -.603292679476572D+02 -.389671933846652D+02
 0.106899693371234D+03 0.319759874407990D+02 0.491876260394956D+02 0.389671933846652D+02
 0.914693992729529D+02 -.695974957910048D+02 0.111416419081616D+02 0.582983996226847D+02
-.993433613155D-04 0.000000000000D+00 0.000000000000D+00 0.249037664889D-02 0.000000000000D+00  5 2 -1 25 24 21 2 0.38106952D-01 0.15875836D-01 0.24622876D+05 0.24622876D+05 0.24622876D+05 0.12240060D+01  1  2 13  1  5  1        2 -.649572908351D-01 0.100000000000D+01
0.281447042715D-03 0.000000000000D+00 0.000000000000D+00 0.249037664889D-02 0.460670035753D-05  5 2 -1 25 24 21 2 0.37192861D-01 0.18655457D-01 0.24622876D+05 0.24622876D+05 0.24622876D+05 0.12240060D+01  1  2  1  1  5  1        2 0.146142335469D+00 0.100000000000D+01
  </mgrwgt>
  </event>
  <event>
  4     66 0.48098993E-03 0.11528271E+03 0.75467711E-02 0.10769158E+00
        2 -1    0    0  501    0 0.00000000E+00 0.00000000E+00 0.16439053E+04 0.16439053E+04 0.32000000E+00 0.0000E+00 0.9000E+01
       -1 -1    0    0    0  501 0.00000000E+00 0.00000000E+00 -.89280564E+01 0.89337892E+01 0.32000000E+00 0.0000E+00 0.9000E+01
       25  1    1    2    0    0 -.53352217E+01 -.51087433E+02 0.69398210E+03 0.70701807E+03 0.12500000E+03 0.0000E+00 0.9000E+01
       24  1    1    2    0    0 0.53352217E+01 0.51087433E+02 0.94099509E+03 0.94582101E+03 0.80419002E+02 0.0000E+00 0.9000E+01
#aMCatNLO 1  0  0  2  1 0.27529922D+03 0.00000000D+00  -5  5  0 0.00000000D+00 0.00000000D+00 0.00000000D+00 0.00000000D+00 0.00000000D+00
  <mgrwgt>
 0.4366516584D+00    5    2    0
 0.121167826746612D+03 0.000000000000000D+00 0.000000000000000D+00 0.121167826746612D+03
 0.121167826746612D+03 0.000000000000000D+00 0.000000000000000D+00 -.121167826746612D+03
 0.140062661067566D+03 -.533522165294098D+01 -.510874328276507D+02 -.367988945801666D+02
 0.102272992425657D+03 0.533522165294098D+01 0.510874328276507D+02 0.367988945801666D+02
 0.000000000000000D+00 -.000000000000000D+00 -.000000000000000D+00 -.000000000000000D+00
 0.252688392468757D+03 0.000000000000000D+00 0.000000000000000D+00 0.252688392468757D+03
 0.456769602941996D+03 0.000000000000000D+00 0.000000000000000D+00 -.456769602941996D+03
 0.201486363246869D+03 0.148582728455912D+03 -.392526271314891D+02 -.367988945801666D+02
 0.165278180323261D+03 0.125906282107271D+03 0.603581843679876D+02 0.367988945801666D+02
 0.342693451840622D+03 -.274489010563183D+03 -.211055572364985D+02 -.204081210473239D+03
0.225064728724D-03 0.000000000000D+00 0.000000000000D+00 0.254056683945D-02 0.000000000000D+00  5 2 -1 25 24 21 0 0.25290894D+00 0.13739905D-02 0.13290102D+05 0.13290102D+05 0.13290102D+05 0.12538597D+01  1  2  2  2  5  2       -1 0.334695169158D+00 0.100000000000D+01
-.124659095278D-04 0.000000000000D+00 -.864307819204D-06 0.254056683945D-02 0.000000000000D+00  5 2 -1 25 24 21 2 0.25290894D+00 0.13739905D-02 0.13290102D+05 0.13290102D+05 0.13290102D+05 0.12538597D+01  1  2  3  2  5  2       -1 -.291449850697D-01 0.100000000000D+01
0.155794289249D-04 0.000000000000D+00 0.000000000000D+00 0.254056683945D-02 0.000000000000D+00  5 2 -1 25 24 21 2 0.25290894D+00 0.13739905D-02 0.13290102D+05 0.13290102D+05 0.13290102D+05 0.12538597D+01  1  2 15  2  5  2       -1 0.364243156423D-01 0.100000000000D+01
0.314533678280D-03 0.000000000000D+00 -.150770356869D-03 0.254056683945D-02 0.000000000000D+00  5 2 -1 25 24 21 2 0.25290894D+00 0.13650149D-01 0.13290102D+05 0.13290102D+05 0.13290102D+05 0.12538597D+01  1  2  5  2  5  2       -1 0.249952796901D-01 0.100000000000D+01
0.621061614145D-04 0.000000000000D+00 -.412240796311D-04 0.254056683945D-02 0.000000000000D+00  5 2 21 25 24 1 2 0.25290894D+00 0.13650149D-01 0.13290102D+05 0.13290102D+05 0.13290102D+05 0.12538597D+01  1  2  5  4  5  2       -1 0.696818790066D-01 0.100000000000D+01
  </mgrwgt>
  </event>
  <event>
  4     66 0.48098993E-03 0.88841923E+02 0.75467711E-02 0.12028437E+00
        2 -1    0    0  501    0 0.00000000E+00 0.00000000E+00 0.16431169E+04 0.16431170E+04 0.32000000E+00 0.0000E+00 0.9000E+01
       -1 -1    0    0    0  501 0.00000000E+00 0.00000000E+00 -.92953828E+01 0.93008893E+01 0.32000000E+00 0.0000E+00 0.9000E+01
       25  1    1    2    0    0 0.66478747E+02 0.59764640E+01 0.86616328E+03 0.87767817E+03 0.12500000E+03 0.0000E+00 0.9000E+01
       24  1    1    2    0    0 -.66478747E+02 -.59764640E+01 0.76765827E+03 0.77473968E+03 0.80419002E+02 0.0000E+00 0.9000E+01
#aMCatNLO 1  0  0  2  1 0.45775470D+02 0.00000000D+00  -5  5  0 0.00000000D+00 0.00000000D+00 0.00000000D+00 0.00000000D+00 0.00000000D+00
  <mgrwgt>
 0.4085587060D+00    9    2    0
 0.123604110461948D+03 0.000000000000000D+00 0.000000000000000D+00 0.123604110461948D+03
 0.123604110461948D+03 0.000000000000000D+00 0.000000000000000D+00 -.123604110461948D+03
 0.142126520459892D+03 0.664787466296183D+02 0.597646400412957D+01 -.109455900982333D+02
 0.105081700464004D+03 -.664787466296183D+02 -.597646400412957D+01 0.109455900982333D+02
 0.000000000000000D+00 -.000000000000000D+00 0.000000000000000D+00 -.000000000000000D+00
 0.142640450517221D+03 0.000000000000000D+00 0.000000000000000D+00 0.142640450517221D+03
 0.156637933902809D+03 0.000000000000000D+00 0.000000000000000D+00 -.156637933902809D+03
 0.155494969796089D+03 0.917274968276980D+02 -.446609617145516D+01 -.109455900982333D+02
 0.959156468174577D+02 -.494271156885145D+02 -.130288004880115D+02 0.109455900982333D+02
 0.478677678064837D+02 -.423003811391836D+02 0.174948966594667D+02 -.139974833855885D+02
0.223399777673D-03 0.000000000000D+00 0.000000000000D+00 0.270007570230D-02 0.000000000000D+00  5 2 -1 25 24 21 0 0.25278765D+00 0.14304849D-02 0.15155395D+05 0.15155395D+05 0.15155395D+05 0.12473126D+01  1  2  2  2  5  2       -1 0.314990842539D+00 0.100000000000D+01
-.124108539426D-04 0.000000000000D+00 -.857913968777D-06 0.270007570230D-02 0.000000000000D+00  5 2 -1 25 24 21 2 0.25278765D+00 0.14304849D-02 0.15155395D+05 0.15155395D+05 0.15155395D+05 0.12473126D+01  1  2  3  2  5  2       -1 -.272249735161D-01 0.100000000000D+01
0.154883453984D-04 0.000000000000D+00 0.000000000000D+00 0.270007570230D-02 0.000000000000D+00  5 2 -1 25 24 21 2 0.25278765D+00 0.14304849D-02 0.15155395D+05 0.15155395D+05 0.15155395D+05 0.12473126D+01  1  2 15  2  5  2       -1 0.339758887850D-01 0.100000000000D+01
0.107847532395D-03 0.000000000000D+00 0.000000000000D+00 0.270007570230D-02 0.000000000000D+00  5 2 -1 25 24 21 2 0.25278765D+00 0.18990516D-02 0.21929727D+05 0.21929727D+05 0.21929727D+05 0.12294462D+01  1  2 12  2  5  2       -1 0.154179116488D+00 0.100000000000D+01
-.118595072833D-03 0.000000000000D+00 0.000000000000D+00 0.270007570230D-02 0.000000000000D+00  5 2 -1 25 24 21 2 0.25278765D+00 0.14304849D-02 0.15155395D+05 0.15155395D+05 0.15155395D+05 0.12473126D+01  1  2  4  2  5  2       -1 -.260155161921D+00 0.100000000000D+01
-.209807975311D-03 0.000000000000D+00 -.881201782207D-04 0.270007570230D-02 0.000000000000D+00  5 2 -1 25 24 21 2 0.25278765D+00 0.21315936D-02 0.15155395D+05 0.15155395D+05 0.15155395D+05 0.12473126D+01  1  2  5  2  5  2       -1 -.259657000897D+00 0.100000000000D+01
0.232766491980D-03 0.000000000000D+00 0.815472014150D-04 0.270007570230D-02 0.000000000000D+00  5 2 -1 25 24 21 2 0.25278765D+00 0.14304849D-02 0.15155395D+05 0.15155395D+05 0.15155395D+05 0.12473126D+01  1  2  6  2  5  2       -1 0.510606410235D+00 0.100000000000D+01
0.399991729699D-05 0.000000000000D+00 0.000000000000D+00 0.270007570230D-02 0.000000000000D+00  5 2 21 25 24 1 2 0.25278765D+00 0.18990516D-02 0.21929727D+05 0.21929727D+05 0.21929727D+05 0.12294462D+01  1  2 12  4  5  2       -1 0.119546481797D+00 0.100000000000D+01
-.696979034416D-05 0.000000000000D+00 -.418569824742D-05 0.270007570230D-02 0.000000000000D+00  5 2 21 25 24 1 2 0.25278765D+00 0.21315936D-02 0.15155395D+05 0.15155395D+05 0.15155395D+05 0.12473126D+01  1  2  5  4  5  2       -1 -.177702897552D+00 0.100000000000D+01
  </mgrwgt>
  </event>
  <event>
  4     66 0.48098993E-03 0.11436559E+03 0.75467711E-02 0.10985576E+00
        2 -1    0    0  501    0 0.00000000E+00 0.00000000E+00 0.45631149E+02 0.45632271E+02 0.32000000E+00 0.0000E+00 0.9000E+01
       -1 -1    0    0    0  501 0.00000000E+00 0.00000000E+00 -.62173527E+03 0.62173535E+03 0.32000000E+00 0.0000E+00 0.9000E+01
       25  1    1    2    0    0 0.26597363E+02 -.41553667E+02 -.68057990E+02 0.15063538E+03 0.12500000E+03 0.0000E+00 0.9000E+01
       24  1    1    2    0    0 -.26597363E+02 0.41553667E+02 -.50804613E+03 0.51673224E+03 0.80419002E+02 0.0000E+00 0.9000E+01
#aMCatNLO 1  0  0  2  1 0.22686963D+03 0.00000000D+00  -5  5  0 0.00000000D+00 0.00000000D+00 0.00000000D+00 0.00000000D+00 0.00000000D+00
  <mgrwgt>
 0.2153124181D+00    5    2    0
 0.168436624770877D+03 0.000000000000000D+00 0.000000000000000D+00 0.168436624770877D+03
 0.168436624770877D+03 0.000000000000000D+00 0.000000000000000D+00 -.168436624770877D+03
 0.182028953722621D+03 0.265973629900701D+02 -.415536670948984D+02 0.122781973539657D+03
 0.154844295819132D+03 -.265973629900701D+02 0.415536670948984D+02 -.122781973539657D+03
 0.000000000000000D+00 0.000000000000000D+00 0.000000000000000D+00 -.000000000000000D+00
 0.243879762185595D+03 0.000000000000000D+00 0.000000000000000D+00 0.243879762185595D+03
 0.518393396456000D+03 0.000000000000000D+00 0.000000000000000D+00 -.518393396456000D+03
 0.217464699470213D+03 -.799019694572822D+02 -.101025530269455D+03 0.122781973539657D+03
 0.188679877590145D+03 -.118176027269768D+03 -.958612567744822D+01 -.122781973539657D+03
 0.356128581581236D+03 0.198077996727050D+03 0.110611655946903D+03 -.274513634270406D+03
0.165487902651D-02 0.000000000000D+00 0.000000000000D+00 0.115538246820D-02 0.000000000000D+00  5 2 -1 25 24 21 0 0.70202694D-02 0.95651672D-01 0.13079488D+05 0.13079488D+05 0.13079488D+05 0.12546633D+01  1  2  2  2  5  2       -1 0.206017806027D+00 0.100000000000D+01
-.751823282363D-04 0.000000000000D+00 -.635517120145D-05 0.115538246820D-02 0.000000000000D+00  5 2 -1 25 24 21 2 0.70202694D-02 0.95651672D-01 0.13079488D+05 0.13079488D+05 0.13079488D+05 0.12546633D+01  1  2  3  2  5  2       -1 -.147335918038D-01 0.100000000000D+01
0.113317512116D-03 0.000000000000D+00 0.000000000000D+00 0.115538246820D-02 0.000000000000D+00  5 2 -1 25 24 21 2 0.70202694D-02 0.95651672D-01 0.13079488D+05 0.13079488D+05 0.13079488D+05 0.12546633D+01  1  2 15  2  5  2       -1 0.222070000612D-01 0.100000000000D+01
0.131850767611D-03 0.000000000000D+00 -.483930527611D-03 0.115538246820D-02 0.000000000000D+00  5 2 -1 25 24 21 2 0.70202694D-02 0.34563749D+00 0.13079488D+05 0.13079488D+05 0.13079488D+05 0.12546633D+01  1  2  5  2  5  2       -1 0.503455240631D-03 0.100000000000D+01
0.331995299260D-04 0.000000000000D+00 -.731117939170D-04 0.115538246820D-02 0.000000000000D+00  5 2 21 25 24 1 2 0.70202694D-02 0.34563749D+00 0.13079488D+05 0.13079488D+05 0.13079488D+05 0.12546633D+01  1  2  5  4  5  2       -1 0.131774861401D-02 0.100000000000D+01
  </mgrwgt>
  </event>
  <event>
  5     66 0.48098993E-03 0.20419778E+03 0.75467711E-02 0.10674796E+00
        2 -1    0    0  501    0 0.00000000E+00 0.00000000E+00 0.14031127E+04 0.14031127E+04 0.32000000E+00 0.0000E+00 0.9000E+01
       21 -1    0    0  502  501 0.00000000E+00 0.00000000E+00 -.12217057E+03 0.12217287E+03 0.75000000E+00 0.0000E+00 0.9000E+01
       25  1    1    2    0    0 0.25662462E+03 0.17134616E+03 0.91399436E+03 0.97274168E+03 0.12500000E+03 0.0000E+00 0.9000E+01
       24  1    1    2    0    0 -.62311772E+02 -.78592115E+02 0.30108201E+03 0.32737909E+03 0.80419002E+02 0.0000E+00 0.9000E+01
        1  1    1    2  502    0 -.19431285E+03 -.92754044E+02 0.65865752E+02 0.22516482E+03 0.32000000E+00 0.0000E+00 0.9000E+01
#aMCatNLO 2  0  0  2  1 0.21531557D+03 0.00000000D+00  -5  5  0 0.00000000D+00 0.00000000D+00 0.00000000D+00 0.00000000D+00 0.00000000D+00
  <mgrwgt>
 0.1041123801D+00    1    2    0
 0.204659877944733D+03 0.000000000000000D+00 0.000000000000000D+00 0.204659877944733D+03
 0.204659877944733D+03 0.000000000000000D+00 0.000000000000000D+00 -.204659877944733D+03
 0.215846467296778D+03 0.134249389425477D+03 0.112931094620104D+03 0.137246767280837D+02
 0.193473288592688D+03 -.134249389425477D+03 -.112931094620104D+03 -.137246767280837D+02
 0.000000000000000D+00 -.000000000000000D+00 -.000000000000000D+00 -.000000000000000D+00
 0.258005936174466D+03 0.000000000000000D+00 0.000000000000000D+00 0.258005936174466D+03
 0.664406376179551D+03 0.000000000000000D+00 0.000000000000000D+00 -.664406376179551D+03
 0.333210244711285D+03 0.256624617570551D+03 0.171346158655607D+03 0.137246767280837D+02
 0.129286736020639D+03 -.623117720822525D+02 -.785921145228881D+02 -.137246767280837D+02
 0.459915331622093D+03 -.194312845488298D+03 -.927540441327190D+02 -.406400440005085D+03
0.159279520636D-03 0.000000000000D+00 0.000000000000D+00 0.214148823309D-02 0.711533383510D-07  5 2 21 25 24 1 2 0.21586363D+00 0.18795648D-01 0.11451430D+06 0.11451430D+06 0.11451430D+06 0.11582031D+01  1  2  1  4  5  2       -1 0.104112380115D+00 0.100000000000D+01
  </mgrwgt>
  </event>
  <event>
  4     66 0.48098993E-03 0.67402137E+02 0.75467711E-02 0.12036149E+00
        2 -1    0    0  501    0 0.00000000E+00 0.00000000E+00 0.26536563E+04 0.26536563E+04 0.32000000E+00 0.0000E+00 0.9000E+01
       -1 -1    0    0    0  501 0.00000000E+00 0.00000000E+00 -.54121585E+01 0.54216104E+01 0.32000000E+00 0.0000E+00 0.9000E+01
       25  1    1    2    0    0 -.59973521E+02 0.97158467E+01 0.15503512E+04 0.15565684E+04 0.12500000E+03 0.0000E+00 0.9000E+01
       24  1    1    2    0    0 0.59973521E+02 -.97158467E+01 0.10978930E+04 0.11025096E+04 0.80419002E+02 0.0000E+00 0.9000E+01
#aMCatNLO 1  0  0  2  1 0.50010707D+02 0.00000000D+00  -5  5  0 0.00000000D+00 0.00000000D+00 0.00000000D+00 0.00000000D+00 0.00000000D+00
  <mgrwgt>
 0.4443678713D+00    9    2    0
 0.119894123593840D+03 0.000000000000000D+00 0.000000000000000D+00 0.119894123593840D+03
 0.119894123593840D+03 0.000000000000000D+00 0.000000000000000D+00 -.119894123593840D+03
 0.138989688437061D+03 -.599735214183137D+02 0.971584669602503D+01 0.138294739516357D+01
 0.100798558750619D+03 0.599735214183137D+02 -.971584669602503D+01 -.138294739516357D+01
 0.000000000000000D+00 -.000000000000000D+00 0.000000000000000D+00 -.000000000000000D+00
 0.143339814786163D+03 0.000000000000000D+00 0.000000000000000D+00 0.143339814786163D+03
 0.152440008843261D+03 0.000000000000000D+00 0.000000000000000D+00 -.152440008843261D+03
 0.130466359622330D+03 -.368935774730353D+02 -.578121015415643D+01 0.138294739516357D+01
 0.114481541565920D+03 0.784130876615789D+02 -.220971162104611D+02 -.138294739516357D+01
 0.508319224411742D+02 -.415195101885436D+02 0.278783263646175D+02 -.910019405709779D+01
0.350001783937D-03 0.000000000000D+00 0.000000000000D+00 0.278496448399D-02 0.000000000000D+00  5 2 -1 25 24 21 0 0.40825555D+00 0.83336832D-03 0.14372639D+05 0.14372639D+05 0.14372639D+05 0.12499434D+01  1  2  2  2  5  2       -1 0.318869851734D+00 0.100000000000D+01
-.194445434419D-04 0.000000000000D+00 -.134409900790D-05 0.278496448399D-02 0.000000000000D+00  5 2 -1 25 24 21 2 0.40825555D+00 0.83336832D-03 0.14372639D+05 0.14372639D+05 0.14372639D+05 0.12499434D+01  1  2  3  2  5  2       -1 -.276771660121D-01 0.100000000000D+01
0.242677185297D-04 0.000000000000D+00 0.000000000000D+00 0.278496448399D-02 0.000000000000D+00  5 2 -1 25 24 21 2 0.40825555D+00 0.83336832D-03 0.14372639D+05 0.14372639D+05 0.14372639D+05 0.12499434D+01  1  2 15  2  5  2       -1 0.345424245362D-01 0.100000000000D+01
0.115313519133D-03 0.000000000000D+00 0.000000000000D+00 0.278496448399D-02 0.000000000000D+00  5 2 -1 25 24 21 2 0.40825555D+00 0.11224754D-02 0.21747832D+05 0.21747832D+05 0.21747832D+05 0.12298403D+01  1  2 12  2  5  2       -1 0.104199435641D+00 0.100000000000D+01
-.133300154605D-03 0.000000000000D+00 0.000000000000D+00 0.278496448399D-02 0.000000000000D+00  5 2 -1 25 24 21 2 0.40825555D+00 0.83336832D-03 0.14372639D+05 0.14372639D+05 0.14372639D+05 0.12499434D+01  1  2  4  2  5  2       -1 -.189738088707D+00 0.100000000000D+01
-.208208322613D-03 0.000000000000D+00 -.120370791701D-03 0.278496448399D-02 0.000000000000D+00  5 2 -1 25 24 21 2 0.40825555D+00 0.13753740D-02 0.14372639D+05 0.14372639D+05 0.14372639D+05 0.12499434D+01  1  2  5  2  5  2       -1 -.145305031920D+00 0.100000000000D+01
0.250133360268D-03 0.000000000000D+00 0.106697470759D-03 0.278496448399D-02 0.000000000000D+00  5 2 -1 25 24 21 2 0.40825555D+00 0.83336832D-03 0.14372639D+05 0.14372639D+05 0.14372639D+05 0.12499434D+01  1  2  6  2  5  2       -1 0.356037289227D+00 0.100000000000D+01
0.443399662848D-05 0.000000000000D+00 0.000000000000D+00 0.278496448399D-02 0.000000000000D+00  5 2 21 25 24 1 2 0.40825555D+00 0.11224754D-02 0.21747832D+05 0.21747832D+05 0.21747832D+05 0.12298403D+01  1  2 12  4  5  2       -1 0.912748092675D-01 0.100000000000D+01
-.631647679583D-05 0.000000000000D+00 -.679762996875D-05 0.278496448399D-02 0.000000000000D+00  5 2 21 25 24 1 2 0.40825555D+00 0.13753740D-02 0.14372639D+05 0.14372639D+05 0.14372639D+05 0.12499434D+01  1  2  5  4  5  2       -1 -.978356525007D-01 0.100000000000D+01
  </mgrwgt>
  </event>
  <event>
  4     66 0.48098993E-03 0.61360172E+02 0.75467711E-02 0.11991147E+00
        2 -1    0    0  501    0 0.00000000E+00 0.00000000E+00 0.10552444E+03 0.10552493E+03 0.32000000E+00 0.0000E+00 0.9000E+01
       -1 -1    0    0    0  501 0.00000000E+00 0.00000000E+00 -.13153600E+03 0.13153639E+03 0.32000000E+00 0.0000E+00 0.9000E+01
       25  1    1    2    0    0 -.36408128E+02 -.14078043E+01 0.28521819E+02 0.13328926E+03 0.12500000E+03 0.0000E+00 0.9000E+01
       24  1    1    2    0    0 0.36408128E+02 0.14078043E+01 -.54533383E+02 0.10377206E+03 0.80419002E+02 0.0000E+00 0.9000E+01
#aMCatNLO 1  0  0  2  1 0.72002726D+02 0.00000000D+00  -5  5  0 0.00000000D+00 0.00000000D+00 0.00000000D+00 0.00000000D+00 0.00000000D+00
  <mgrwgt>
 0.1922679342D+00    7    2    0
 0.117814968875322D+03 0.000000000000000D+00 0.000000000000000D+00 0.117814968875322D+03
 0.117814968875322D+03 0.000000000000000D+00 0.000000000000000D+00 -.117814968875322D+03
 0.137247525139290D+03 -.364081277843063D+02 -.140780431253023D+01 0.434090943826206D+02
 0.983824126113532D+02 0.364081277843063D+02 0.140780431253023D+01 -.434090943826206D+02
 0.000000000000000D+00 -.000000000000000D+00 -.000000000000000D+00 -.000000000000000D+00
 0.135721560349625D+03 0.000000000000000D+00 0.000000000000000D+00 0.135721560349625D+03
 0.226642596415280D+03 0.000000000000000D+00 0.000000000000000D+00 -.226642596415280D+03
 0.140178703300542D+03 -.255367177803543D+02 0.385823201597393D+02 0.434090943826206D+02
 0.106206889120107D+03 0.444253011930826D+02 0.308987132577536D+02 -.434090943826206D+02
 0.115978564344255D+03 -.188885834127283D+02 -.694810334174929D+02 -.909210360656549D+02
0.343946925553D-03 0.000000000000D+00 0.000000000000D+00 0.249656660648D-02 0.000000000000D+00  5 2 -1 25 24 21 0 0.16234597D-01 0.20236376D-01 0.11934445D+05 0.11934445D+05 0.11934445D+05 0.12593030D+01  1  2  2  2  5  2       -1 0.256260995751D+00 0.100000000000D+01
-.189756483675D-04 0.000000000000D+00 -.132084675743D-05 0.249656660648D-02 0.000000000000D+00  5 2 -1 25 24 21 2 0.16234597D-01 0.20236376D-01 0.11934445D+05 0.11934445D+05 0.11934445D+05 0.12593030D+01  1  2  3  2  5  2       -1 -.224206495287D-01 0.100000000000D+01
0.236738316760D-04 0.000000000000D+00 0.000000000000D+00 0.249656660648D-02 0.000000000000D+00  5 2 -1 25 24 21 2 0.16234597D-01 0.20236376D-01 0.11934445D+05 0.11934445D+05 0.11934445D+05 0.12593030D+01  1  2 15  2  5  2       -1 0.279717811339D-01 0.100000000000D+01
0.762532544678D-04 0.000000000000D+00 0.000000000000D+00 0.249656660648D-02 0.000000000000D+00  5 2 -1 25 24 21 2 0.16234597D-01 0.39195733D-01 0.22834458D+05 0.22834458D+05 0.22834458D+05 0.12275390D+01  1  2 12  2  5  2       -1 0.289752559883D-01 0.100000000000D+01
-.232548704197D-03 0.000000000000D+00 -.988697155703D-04 0.249656660648D-02 0.000000000000D+00  5 2 -1 25 24 21 2 0.16234597D-01 0.43871250D-01 0.11934445D+05 0.11934445D+05 0.11934445D+05 0.12593030D+01  1  2  5  2  5  2       -1 -.752388469310D-01 0.100000000000D+01
0.546614256330D-05 0.000000000000D+00 0.000000000000D+00 0.249656660648D-02 0.000000000000D+00  5 2 21 25 24 1 2 0.16234597D-01 0.39195733D-01 0.22834458D+05 0.22834458D+05 0.22834458D+05 0.12275390D+01  1  2 12  4  5  2       -1 0.223851588742D-01 0.100000000000D+01
-.132824431073D-04 0.000000000000D+00 -.828435353795D-05 0.249656660648D-02 0.000000000000D+00  5 2 21 25 24 1 2 0.16234597D-01 0.43871250D-01 0.11934445D+05 0.11934445D+05 0.11934445D+05 0.12593030D+01  1  2  5  4  5  2       -1 -.456657611281D-01 0.100000000000D+01
  </mgrwgt>
  </event>
  <event>
  5     66 0.48098993E-03 0.12701366E+03 0.75467711E-02 0.12001144E+00
        2 -1    0    0  502    0 0.00000000E+00 0.00000000E+00 0.22918038E+04 0.22918038E+04 0.32000000E+00 0.0000E+00 0.9000E+01
       -1 -1    0    0    0  501 0.00000000E+00 0.00000000E+00 -.10196870E+02 0.10201890E+02 0.32000000E+00 0.0000E+00 0.9000E+01
       25  1    1    2    0    0 -.60168814E+02 -.68684303E+02 0.10100549E+04 0.10218482E+04 0.12500000E+03 0.0000E+00 0.9000E+01
       24  1    1    2    0    0 0.58668445E+02 0.25745987E+02 0.78359843E+03 0.79031548E+03 0.80419002E+02 0.0000E+00 0.9000E+01
       21  1    1    2  502  501 0.15003692E+01 0.42938315E+02 0.48795359E+03 0.48984204E+03 0.75000000E+00 0.0000E+00 0.9000E+01
#aMCatNLO 2  0  0  1  2 0.42964521D+02 0.00000000D+00  -5  5  0 0.00000000D+00 0.00000000D+00 0.00000000D+00 0.00000000D+00 0.00000000D+00
  <mgrwgt>
 0.1034766942D-01    2    2    0
 0.127376355198313D+03 0.000000000000000D+00 0.000000000000000D+00 0.127376355198313D+03
 0.127376355198313D+03 0.000000000000000D+00 0.000000000000000D+00 -.127376355198313D+03
 0.145350224899977D+03 -.592902913650195D+02 -.435422909856826D+02 -.950884451672199D+01
 0.109402485496649D+03 0.592902913650195D+02 0.435422909856826D+02 0.950884451672199D+01
 0.000000000000000D+00 0.000000000000000D+00 0.000000000000000D+00 0.000000000000000D+00
 0.164200588755075D+03 0.000000000000000D+00 0.000000000000000D+00 0.164200588755075D+03
 0.142350952296753D+03 0.000000000000000D+00 0.000000000000000D+00 -.142350952296753D+03
 0.155091063008860D+03 -.601688144376077D+02 -.686843029399568D+02 -.950884451672199D+01
 0.103259267931961D+03 0.586684452188241D+02 0.257459874744908D+02 0.950884451672199D+01
 0.482012101110062D+02 0.150036921878364D+01 0.429383154654659D+02 0.218496364583217D+02
-.185211761308D-03 0.000000000000D+00 0.000000000000D+00 0.264564817590D-02 0.000000000000D+00  5 2 -1 25 24 21 2 0.36503660D+00 0.14040443D-02 0.22587734D+05 0.22587734D+05 0.22587734D+05 0.12280506D+01  1  2 13  1  5  1        2 -.171369077013D+00 0.100000000000D+01
0.208909139825D-03 0.000000000000D+00 0.000000000000D+00 0.264564817590D-02 0.119276288050D-04  5 2 -1 25 24 21 2 0.35257865D+00 0.15691063D-02 0.22587734D+05 0.22587734D+05 0.22587734D+05 0.12280506D+01  1  2  1  1  5  1        2 0.181716746429D+00 0.100000000000D+01
  </mgrwgt>
  </event>
  <event>
  4     66 0.48098993E-03 0.11400059E+03 0.75467711E-02 0.11047289E+00
        2 -1    0    0  501    0 0.00000000E+00 0.00000000E+00 0.16138018E+04 0.16138018E+04 0.32000000E+00 0.0000E+00 0.9000E+01
       -1 -1    0    0    0  501 0.00000000E+00 0.00000000E+00 -.84495235E+01 0.84555809E+01 0.32000000E+00 0.0000E+00 0.9000E+01
       25  1    1    2    0    0 -.19183544E+02 -.44557096E+02 0.76368835E+03 0.77536974E+03 0.12500000E+03 0.0000E+00 0.9000E+01
       24  1    1    2    0    0 0.19183544E+02 0.44557096E+02 0.84166394E+03 0.84688768E+03 0.80419002E+02 0.0000E+00 0.9000E+01
#aMCatNLO 1  0  0  1  2 0.21478946D+03 0.00000000D+00  -5  5  0 0.00000000D+00 0.00000000D+00 0.00000000D+00 0.00000000D+00 0.00000000D+00
  <mgrwgt>
 0.3729326917D+00    3    2    0
 0.116793815679821D+03 0.000000000000000D+00 0.000000000000000D+00 0.116793815679821D+03
 0.116793815679821D+03 0.000000000000000D+00 0.000000000000000D+00 -.116793815679821D+03
 0.136396274920332D+03 -.191835438069152D+02 -.445570960576218D+02 -.250120101163959D+02
 0.971913564393110D+02 0.191835438069152D+02 0.445570960576218D+02 0.250120101163959D+02
 0.000000000000000D+00 -.000000000000000D+00 -.000000000000000D+00 -.000000000000000D+00
 0.262432714764241D+03 0.000000000000000D+00 0.000000000000000D+00 0.262432714764241D+03
 0.269812491392981D+03 0.000000000000000D+00 0.000000000000000D+00 -.269812491392981D+03
 0.144407306652689D+03 0.607006382900401D+02 0.303034993986296D+02 -.250120101163959D+02
 0.172921695084416D+03 0.960264390214643D+02 0.116567658616323D+03 0.250120101163959D+02
 0.214916204420117D+03 -.156727077311504D+03 -.146871158014953D+03 -.737977662873982D+01
0.219193074963D-03 0.000000000000D+00 0.000000000000D+00 0.273578914188D-02 0.000000000000D+00  5 2 -1 25 24 21 0 0.24827767D+00 0.13003951D-02 0.12996134D+05 0.12996134D+05 0.12996134D+05 0.12549853D+01  1  2  2  1  5  1        2 0.365048076553D+00 0.100000000000D+01
-.121687174363D-04 0.000000000000D+00 -.841759122721D-06 0.273578914188D-02 0.000000000000D+00  5 2 -1 25 24 21 2 0.24827767D+00 0.13003951D-02 0.12996134D+05 0.12996134D+05 0.12996134D+05 0.12549853D+01  1  2  3  1  5  1        2 -.319187098775D-01 0.100000000000D+01
0.151746551596D-04 0.000000000000D+00 0.000000000000D+00 0.273578914188D-02 0.000000000000D+00  5 2 -1 25 24 21 2 0.24827767D+00 0.13003951D-02 0.12996134D+05 0.12996134D+05 0.12996134D+05 0.12549853D+01  1  2 15  1  5  1        2 0.398033250478D-01 0.100000000000D+01
  </mgrwgt>
  </event>
  <event>
  4     66 0.48098993E-03 0.74190575E+02 0.75467711E-02 0.12356134E+00
        2 -1    0    0  501    0 0.00000000E+00 0.00000000E+00 0.10838450E+04 0.10838451E+04 0.32000000E+00 0.0000E+00 0.9000E+01
       -1 -1    0    0    0  501 0.00000000E+00 0.00000000E+00 -.10199380E+02 0.10204399E+02 0.32000000E+00 0.0000E+00 0.9000E+01
       25  1    1    2    0    0 -.45616412E+01 0.21492002E+02 0.63969669E+03 0.65216530E+03 0.12500000E+03 0.0000E+00 0.9000E+01
       24  1    1    2    0    0 0.45616412E+01 -.21492002E+02 0.43394895E+03 0.44188417E+03 0.80419002E+02 0.0000E+00 0.9000E+01
#aMCatNLO 1  0  0  1  2 0.35968275D+02 0.00000000D+00  -5  5  0 0.00000000D+00 0.00000000D+00 0.00000000D+00 0.00000000D+00 0.00000000D+00
  <mgrwgt>
 0.4478194538D+00    9    2    0
 0.105153784433082D+03 0.000000000000000D+00 0.000000000000000D+00 0.105153784433082D+03
 0.105153784433082D+03 0.000000000000000D+00 0.000000000000000D+00 -.105153784433082D+03
 0.126926144065695D+03 -.456164116458528D+01 0.214920022133550D+02 -.159101166944338D+01
 0.833814248004682D+02 0.456164116458528D+01 -.214920022133550D+02 0.159101166944338D+01
 0.000000000000000D+00 0.000000000000000D+00 0.000000000000000D+00 0.000000000000000D+00
 0.133274149188892D+03 0.000000000000000D+00 0.000000000000000D+00 0.133274149188892D+03
 0.118842522911673D+03 0.000000000000000D+00 0.000000000000000D+00 -.118842522911673D+03
 0.126007619314854D+03 -.155305648488586D+02 0.303156110612700D+01 -.159101166944338D+01
 0.873535541848925D+02 -.284258565628703D+01 -.339531421670629D+02 0.159101166944338D+01
 0.387554986008188D+02 0.183731505051456D+02 0.309215810609359D+02 0.144316262772185D+02
0.114271910604D-03 0.000000000000D+00 0.000000000000D+00 0.315726803362D-02 0.000000000000D+00  5 2 -1 25 24 21 0 0.16674578D+00 0.15695251D-02 0.11054674D+05 0.11054674D+05 0.11054674D+05 0.12632221D+01  1  2  2  1  5  1        2 0.277045722490D+00 0.100000000000D+01
-.634843936759D-05 0.000000000000D+00 -.438834225205D-06 0.315726803362D-02 0.000000000000D+00  5 2 -1 25 24 21 2 0.16674578D+00 0.15695251D-02 0.11054674D+05 0.11054674D+05 0.11054674D+05 0.12632221D+01  1  2  3  1  5  1        2 -.245605655963D-01 0.100000000000D+01
0.790140393462D-05 0.000000000000D+00 0.000000000000D+00 0.315726803362D-02 0.000000000000D+00  5 2 -1 25 24 21 2 0.16674578D+00 0.15695251D-02 0.11054674D+05 0.11054674D+05 0.11054674D+05 0.12632221D+01  1  2 15  1  5  1        2 0.305686072438D-01 0.100000000000D+01
0.840062588043D-04 0.000000000000D+00 0.000000000000D+00 0.315726803362D-02 0.000000000000D+00  5 2 -1 25 24 21 2 0.21989049D+00 0.15695251D-02 0.15538235D+05 0.15538235D+05 0.15538235D+05 0.12460809D+01  1  2 12  1  5  1        2 0.207863073903D+00 0.100000000000D+01
-.904049347777D-04 0.000000000000D+00 0.000000000000D+00 0.315726803362D-02 0.000000000000D+00  5 2 -1 25 24 21 2 0.16674578D+00 0.15695251D-02 0.11054674D+05 0.11054674D+05 0.11054674D+05 0.12632221D+01  1  2  4  1  5  1        2 -.349754672332D+00 0.100000000000D+01
-.179032366666D-03 0.000000000000D+00 -.580417928842D-04 0.315726803362D-02 0.000000000000D+00  5 2 -1 25 24 21 2 0.22685057D+00 0.15695251D-02 0.11054674D+05 0.11054674D+05 0.11054674D+05 0.12632221D+01  1  2  5  1  5  1        2 -.426979729504D+00 0.100000000000D+01
0.190449765530D-03 0.000000000000D+00 0.553964883999D-04 0.315726803362D-02 0.000000000000D+00  5 2 -1 25 24 21 2 0.16674578D+00 0.15695251D-02 0.11054674D+05 0.11054674D+05 0.11054674D+05 0.12632221D+01  1  2  6  1  5  1        2 0.736803754158D+00 0.100000000000D+01
0.306209354828D-05 0.000000000000D+00 0.000000000000D+00 0.315726803362D-02 0.000000000000D+00  5 21 -1 25 24 -2 2 0.21989049D+00 0.15695251D-02 0.15538235D+05 0.15538235D+05 0.15538235D+05 0.12460809D+01  1  2 12  3  5  1        2 0.419026213895D-02 0.100000000000D+01
-.569619236556D-05 0.000000000000D+00 -.228569940747D-05 0.315726803362D-02 0.000000000000D+00  5 21 -1 25 24 -2 2 0.22685057D+00 0.15695251D-02 0.11054674D+05 0.11054674D+05 0.11054674D+05 0.12632221D+01  1  2  5  3  5  1        2 -.735699867917D-02 0.100000000000D+01
  </mgrwgt>
  </event>
  <event>
  4     66 0.48098993E-03 0.40047447E+02 0.75467711E-02 0.11835586E+00
        2 -1    0    0  501    0 0.00000000E+00 0.00000000E+00 0.13273565E+03 0.13273603E+03 0.32000000E+00 0.0000E+00 0.9000E+01
       -1 -1    0    0    0  501 0.00000000E+00 0.00000000E+00 -.29235578E+03 0.29235596E+03 0.32000000E+00 0.0000E+00 0.9000E+01
       25  1    1    2    0    0 0.70395707E+02 0.79270991E+01 -.24771087E+03 0.28636353E+03 0.12500000E+03 0.0000E+00 0.9000E+01
       24  1    1    2    0    0 -.70395707E+02 -.79270991E+01 0.88090729E+02 0.13872847E+03 0.80419002E+02 0.0000E+00 0.9000E+01
#aMCatNLO 1  0  0  2  1 0.69577117D+02 0.00000000D+00  -5  5  0 0.00000000D+00 0.00000000D+00 0.00000000D+00 0.00000000D+00 0.00000000D+00
  <mgrwgt>
 0.1293929239D+00    9    2    0
 0.196992773894102D+03 0.000000000000000D+00 0.000000000000000D+00 0.196992773894102D+03
 0.196992773894102D+03 0.000000000000000D+00 0.000000000000000D+00 -.196992773894102D+03
 0.208614753554321D+03 0.703957072749589D+02 0.792709909513378D+01 -.151250523627934D+03
 0.185370794233883D+03 -.703957072749589D+02 -.792709909513378D+01 0.151250523627934D+03
 0.000000000000000D+00 -.000000000000000D+00 -.000000000000000D+00 -.000000000000000D+00
 0.216201471954075D+03 0.000000000000000D+00 0.000000000000000D+00 0.216201471954075D+03
 0.274930069386468D+03 0.000000000000000D+00 0.000000000000000D+00 -.274930069386468D+03
 0.214294173690541D+03 0.735449280423805D+02 0.448488075563711D+02 -.151250523627934D+03
 0.185787801839353D+03 -.676318489511924D+02 0.244765901964941D+02 0.151250523627934D+03
 0.910495658106488D+02 -.591307909118816D+01 -.693253977528652D+02 -.587285974323928D+02
0.103186940390D-02 0.000000000000D+00 0.000000000000D+00 0.955425406918D-03 0.000000000000D+00  5 2 -1 25 24 21 0 0.20420912D-01 0.44977856D-01 0.15731309D+05 0.15731309D+05 0.15731309D+05 0.12454726D+01  1  2  2  2  5  2       -1 0.155868600442D+00 0.100000000000D+01
-.431198781155D-04 0.000000000000D+00 -.396265020842D-05 0.955425406918D-03 0.000000000000D+00  5 2 -1 25 24 21 2 0.20420912D-01 0.44977856D-01 0.15731309D+05 0.15731309D+05 0.15731309D+05 0.12454726D+01  1  2  3  2  5  2       -1 -.101036843795D-01 0.100000000000D+01
0.705490936438D-04 0.000000000000D+00 0.000000000000D+00 0.955425406918D-03 0.000000000000D+00  5 2 -1 25 24 21 2 0.20420912D-01 0.44977856D-01 0.15731309D+05 0.15731309D+05 0.15731309D+05 0.12454726D+01  1  2 15  2  5  2       -1 0.165307929101D-01 0.100000000000D+01
0.459304716016D-03 0.000000000000D+00 0.000000000000D+00 0.955425406918D-03 0.000000000000D+00  5 2 -1 25 24 21 2 0.20420912D-01 0.64291818D-01 0.27105413D+05 0.27105413D+05 0.27105413D+05 0.12195506D+01  1  2 12  2  5  2       -1 0.534233846478D-01 0.100000000000D+01
-.918057107340D-03 0.000000000000D+00 0.000000000000D+00 0.955425406918D-03 0.000000000000D+00  5 2 -1 25 24 21 2 0.20420912D-01 0.44977856D-01 0.15731309D+05 0.15731309D+05 0.15731309D+05 0.12454726D+01  1  2  4  2  5  2       -1 -.215115618603D+00 0.100000000000D+01
-.936723231109D-03 0.000000000000D+00 -.384523585628D-03 0.955425406918D-03 0.000000000000D+00  5 2 -1 25 24 21 2 0.20420912D-01 0.67527274D-01 0.15731309D+05 0.15731309D+05 0.15731309D+05 0.12454726D+01  1  2  5  2  5  2       -1 -.102981660399D+00 0.100000000000D+01
0.103596242309D-02 0.000000000000D+00 0.354822403349D-03 0.955425406918D-03 0.000000000000D+00  5 2 -1 25 24 21 2 0.20420912D-01 0.44977856D-01 0.15731309D+05 0.15731309D+05 0.15731309D+05 0.12454726D+01  1  2  6  2  5  2       -1 0.242742739760D+00 0.100000000000D+01
0.201377643595D-04 0.000000000000D+00 0.000000000000D+00 0.955425406918D-03 0.000000000000D+00  5 2 21 25 24 1 2 0.20420912D-01 0.64291818D-01 0.27105413D+05 0.27105413D+05 0.27105413D+05 0.12195506D+01  1  2 12  4  5  2       -1 0.223261596801D-01 0.100000000000D+01
-.317010114547D-04 0.000000000000D+00 -.185167858110D-04 0.955425406918D-03 0.000000000000D+00  5 2 21 25 24 1 2 0.20420912D-01 0.67527274D-01 0.15731309D+05 0.15731309D+05 0.15731309D+05 0.12454726D+01  1  2  5  4  5  2       -1 -.332977901644D-01 0.100000000000D+01
  </mgrwgt>
  </event>
  <event>
  5     66 0.48098993E-03 0.10858524E+03 0.75467711E-02 0.11676691E+00
        2 -1    0    0  501    0 0.00000000E+00 0.00000000E+00 0.11984859E+03 0.11984902E+03 0.32000000E+00 0.0000E+00 0.9000E+01
       21 -1    0    0  502  501 0.00000000E+00 0.00000000E+00 -.29902579E+03 0.29902673E+03 0.75000000E+00 0.0000E+00 0.9000E+01
       25  1    1    2    0    0 -.75720509E+02 0.48677138E+02 -.10775906E+03 0.18798956E+03 0.12500000E+03 0.0000E+00 0.9000E+01
       24  1    1    2    0    0 -.36355359E+02 -.24343689E+02 -.71558209E+02 0.11619863E+03 0.80419002E+02 0.0000E+00 0.9000E+01
        1  1    1    2  502    0 0.11207587E+03 -.24333449E+02 0.14007062E+00 0.11468757E+03 0.32000000E+00 0.0000E+00 0.9000E+01
#aMCatNLO 2  0  0  2  1 0.11468704D+03 0.00000000D+00  -5  5  0 0.00000000D+00 0.00000000D+00 0.00000000D+00 0.00000000D+00 0.00000000D+00
  <mgrwgt>
 0.6304432693D-01    1    2    0
 0.108653867460595D+03 0.000000000000000D+00 0.000000000000000D+00 0.108653867460595D+03
 0.108653867460595D+03 0.000000000000000D+00 0.000000000000000D+00 -.108653867460595D+03
 0.129724870867240D+03 -.702338436964137D+01 0.337619025056180D+02 0.378789291288886D+01
 0.875828640539497D+02 0.702338436964137D+01 -.337619025056180D+02 -.378789291288886D+01
 0.000000000000000D+00 0.000000000000000D+00 -.000000000000000D+00 0.000000000000000D+00
 0.235833231078549D+03 0.000000000000000D+00 0.000000000000000D+00 0.235833231078549D+03
 0.151963448339441D+03 0.000000000000000D+00 0.000000000000000D+00 -.151963448339441D+03
 0.154085714405147D+03 -.757205089788318D+02 0.486771380733460D+02 0.378789291288886D+01
 0.916290968375758D+02 -.363553585232873D+02 -.243436892607309D+02 -.378789291288886D+01
 0.142081868175267D+03 0.112075867502119D+03 -.243334488126150D+02 0.838697827391084D+02
0.254081358737D-04 0.000000000000D+00 0.000000000000D+00 0.304634750894D-02 0.217297433661D-06  5 2 21 25 24 1 2 0.18438331D-01 0.46004024D-01 0.32449871D+05 0.32449871D+05 0.32449871D+05 0.12113365D+01  1  2  1  4  5  2       -1 0.630443269289D-01 0.100000000000D+01
  </mgrwgt>
  </event>
  <event>
  5     66 0.48098993E-03 0.13578703E+03 0.75467711E-02 0.11333499E+00
        2 -1    0    0  502    0 0.00000000E+00 0.00000000E+00 0.80528471E+03 0.80528478E+03 0.32000000E+00 0.0000E+00 0.9000E+01
       -1 -1    0    0    0  501 0.00000000E+00 0.00000000E+00 -.14287889E+03 0.14287925E+03 0.32000000E+00 0.0000E+00 0.9000E+01
       25  1    1    2    0    0 -.45536290E+02 0.84558488E+02 0.48177249E+02 0.16483246E+03 0.12500000E+03 0.0000E+00 0.9000E+01
       24  1    1    2    0    0 -.91565978E+02 -.81601867E+02 -.73076476E+01 0.14684621E+03 0.80419002E+02 0.0000E+00 0.9000E+01
       21  1    1    2  502  501 0.13710227E+03 -.29566210E+01 0.62153622E+03 0.63648536E+03 0.75000000E+00 0.0000E+00 0.9000E+01
#aMCatNLO 2  0  0  1  1 0.13713414D+03 0.00000000D+00  -5  5  0 0.00000000D+00 0.00000000D+00 0.00000000D+00 0.00000000D+00 0.00000000D+00
  <mgrwgt>
 0.2236967579D+00    1    2    0
 0.138444480161073D+03 0.000000000000000D+00 0.000000000000000D+00 0.138444480161073D+03
 0.138444480161073D+03 0.000000000000000D+00 0.000000000000000D+00 -.138444480161073D+03
 0.154981405351183D+03 0.281488141285695D+02 0.829694629706903D+02 0.267945606819410D+02
 0.121907554970963D+03 -.281488141285695D+02 -.829694629706903D+02 -.267945606819410D+02
 0.000000000000000D+00 0.000000000000000D+00 -.000000000000000D+00 0.000000000000000D+00
 0.705783075219138D+03 0.000000000000000D+00 0.000000000000000D+00 0.705783075219138D+03
 0.163021832588199D+03 0.000000000000000D+00 0.000000000000000D+00 -.163021832588199D+03
 0.159895716276459D+03 -.455362900943656D+02 0.845584879587229D+02 0.267945606819410D+02
 0.149091774960857D+03 -.915659775196449D+02 -.816018669231407D+02 -.267945606819410D+02
 0.559817416570021D+03 0.137102267614010D+03 -.295662103558221D+01 0.542761242630939D+03
0.225637280913D-02 0.000000000000D+00 0.000000000000D+00 0.243268225751D-02 0.272230815138D-05  5 2 -1 25 24 21 2 0.12388981D+00 0.21981368D-01 0.48715794D+05 0.48715794D+05 0.48715794D+05 0.11934025D+01  1  2  1  1  5  1        2 0.223696757942D+00 0.100000000000D+01
  </mgrwgt>
  </event>
  <event>
  4     66 0.48098993E-03 0.10444277E+03 0.75467711E-02 0.11304630E+00
        2 -1    0    0  501    0 0.00000000E+00 0.00000000E+00 0.80729345E+02 0.80729979E+02 0.32000000E+00 0.0000E+00 0.9000E+01
       -1 -1    0    0    0  501 0.00000000E+00 0.00000000E+00 -.14343876E+03 0.14343911E+03 0.32000000E+00 0.0000E+00 0.9000E+01
       25  1    1    2    0    0 0.85234855E+01 0.16433101E+02 -.11128165E+02 0.12685241E+03 0.12500000E+03 0.0000E+00 0.9000E+01
       24  1    1    2    0    0 -.85234855E+01 -.16433101E+02 -.51581247E+02 0.97316687E+02 0.80419002E+02 0.0000E+00 0.9000E+01
#aMCatNLO 1  0  0  2  2 0.17599287D+03 0.00000000D+00  -5  5  0 0.00000000D+00 0.00000000D+00 0.00000000D+00 0.00000000D+00 0.00000000D+00
  <mgrwgt>
 0.3218991259D+00    3    2    0
 0.107609608835622D+03 0.000000000000000D+00 0.000000000000000D+00 0.107609608835622D+03
 0.107609608835622D+03 0.000000000000000D+00 0.000000000000000D+00 -.107609608835622D+03
 0.128885088192718D+03 0.852348550153022D+01 0.164331012401100D+02 0.253706392702685D+02
 0.863341294785274D+02 -.852348550153022D+01 -.164331012401100D+02 -.253706392702685D+02
 0.000000000000000D+00 0.000000000000000D+00 0.000000000000000D+00 0.000000000000000D+00
 0.255168596699180D+03 0.000000000000000D+00 0.000000000000000D+00 0.255168596699180D+03
 0.205668790102849D+03 0.000000000000000D+00 0.000000000000000D+00 -.205668790102849D+03
 0.151402689057828D+03 -.445510394216441D+02 -.683323481479332D+02 0.253706392702685D+02
 0.126613141704781D+03 -.488465968501841D+02 -.808332378242873D+02 -.253706392702685D+02
 0.182821556039420D+03 0.933976362718282D+02 0.149165585972220D+03 0.494998065963313D+02
0.356794971631D-03 0.000000000000D+00 0.000000000000D+00 0.293776837131D-02 0.000000000000D+00  5 2 -1 25 24 21 0 0.12419975D-01 0.22067577D-01 0.10908293D+05 0.10908293D+05 0.10908293D+05 0.12639082D+01  1  2  2  2  5  2       -1 0.315322788799D+00 0.100000000000D+01
-.198004389759D-04 0.000000000000D+00 -.137018663734D-05 0.293776837131D-02 0.000000000000D+00  5 2 -1 25 24 21 2 0.12419975D-01 0.22067577D-01 0.10908293D+05 0.10908293D+05 0.10908293D+05 0.12639082D+01  1  2  3  2  5  2       -1 -.279539061887D-01 0.100000000000D+01
0.244586201849D-04 0.000000000000D+00 0.000000000000D+00 0.293776837131D-02 0.000000000000D+00  5 2 -1 25 24 21 2 0.12419975D-01 0.22067577D-01 0.10908293D+05 0.10908293D+05 0.10908293D+05 0.12639082D+01  1  2 15  2  5  2       -1 0.345302432429D-01 0.100000000000D+01
  </mgrwgt>
  </event>
  <event>
  4     66 0.48098993E-03 0.11517990E+03 0.75467711E-02 0.11336191E+00
        2 -1    0    0  501    0 0.00000000E+00 0.00000000E+00 0.25241955E+03 0.25241975E+03 0.32000000E+00 0.0000E+00 0.9000E+01
       -1 -1    0    0    0  501 0.00000000E+00 0.00000000E+00 -.52598322E+02 0.52599296E+02 0.32000000E+00 0.0000E+00 0.9000E+01
       25  1    1    2    0    0 0.89260417E+01 0.50356008E+02 0.12138644E+03 0.18159039E+03 0.12500000E+03 0.0000E+00 0.9000E+01
       24  1    1    2    0    0 -.89260417E+01 -.50356008E+02 0.78434789E+02 0.12342866E+03 0.80419002E+02 0.0000E+00 0.9000E+01
#aMCatNLO 1  0  0  2  2 0.16014830D+03 0.00000000D+00  -5  5  0 0.00000000D+00 0.00000000D+00 0.00000000D+00 0.00000000D+00 0.00000000D+00
  <mgrwgt>
 0.3717362562D+00    3    2    0
 0.115225969498078D+03 0.000000000000000D+00 0.000000000000000D+00 0.115225969498078D+03
 0.115225969498078D+03 0.000000000000000D+00 0.000000000000000D+00 -.115225969498078D+03
 0.135095153687893D+03 0.892604168521360D+01 0.503560076413701D+02 0.320917812088621D+01
 0.953567853082622D+02 -.892604168521360D+01 -.503560076413701D+02 -.320917812088621D+01
 0.000000000000000D+00 0.000000000000000D+00 0.000000000000000D+00 0.000000000000000D+00
 0.367314744673471D+03 0.000000000000000D+00 0.000000000000000D+00 0.367314744673471D+03
 0.168563534000686D+03 0.000000000000000D+00 0.000000000000000D+00 -.168563534000686D+03
 0.131266795418370D+03 -.337454920518926D+02 -.213755589721625D+02 0.320917812088621D+01
 0.149367439973780D+03 -.481311836750845D+02 -.116260511368968D+03 -.320917812088621D+01
 0.255244043282006D+03 0.818766757269771D+02 0.137636070341131D+03 0.198751210672785D+03
0.308014449000D-03 0.000000000000D+00 0.000000000000D+00 0.288010704134D-02 0.000000000000D+00  5 2 -1 25 24 21 0 0.38833867D-01 0.80921401D-02 0.13266409D+05 0.13266409D+05 0.13266409D+05 0.12539493D+01  1  2  2  2  5  2       -1 0.364024313063D+00 0.100000000000D+01
-.171119105061D-04 0.000000000000D+00 -.118285658623D-05 0.288010704134D-02 0.000000000000D+00  5 2 -1 25 24 21 2 0.38833867D-01 0.80921401D-02 0.13266409D+05 0.13266409D+05 0.13266409D+05 0.12539493D+01  1  2  3  2  5  2       -1 -.317993166403D-01 0.100000000000D+01
0.212618764297D-04 0.000000000000D+00 0.000000000000D+00 0.288010704134D-02 0.000000000000D+00  5 2 -1 25 24 21 2 0.38833867D-01 0.80921401D-02 0.13266409D+05 0.13266409D+05 0.13266409D+05 0.12539493D+01  1  2 15  2  5  2       -1 0.395112597575D-01 0.100000000000D+01
  </mgrwgt>
  </event>
  <event>
  5     66 0.48098993E-03 0.11779972E+03 0.75467711E-02 0.11023015E+00
        2 -1    0    0  501    0 0.00000000E+00 0.00000000E+00 0.57032425E+03 0.57032434E+03 0.32000000E+00 0.0000E+00 0.9000E+01
       21 -1    0    0  502  501 0.00000000E+00 0.00000000E+00 -.21813442E+03 0.21813571E+03 0.75000000E+00 0.0000E+00 0.9000E+01
       25  1    1    2    0    0 -.10467382E+03 0.37696234E+02 0.17774561E+03 0.24412316E+03 0.12500000E+03 0.0000E+00 0.9000E+01
       24  1    1    2    0    0 -.10928082E+03 -.70082383E+02 0.26810317E+03 0.30854556E+03 0.80419002E+02 0.0000E+00 0.9000E+01
        1  1    1    2  502    0 0.21395464E+03 0.32386149E+02 -.93658950E+02 0.23579133E+03 0.32000000E+00 0.0000E+00 0.9000E+01
#aMCatNLO 2  0  0  2  2 0.21639189D+03 0.00000000D+00  -5  5  0 0.00000000D+00 0.00000000D+00 0.00000000D+00 0.00000000D+00 0.00000000D+00
  <mgrwgt>
 0.1084928955D+00    1    2    0
 0.122307122446833D+03 0.000000000000000D+00 0.000000000000000D+00 0.122307122446833D+03
 0.122307122446833D+03 0.000000000000000D+00 0.000000000000000D+00 -.122307122446833D+03
 0.141025950636112D+03 0.119995995649439D+02 0.553569992161539D+02 -.324797013668986D+02
 0.103588294257555D+03 -.119995995649439D+02 -.553569992161539D+02 0.324797013668986D+02
 0.000000000000000D+00 0.000000000000000D+00 0.000000000000000D+00 -.000000000000000D+00
 0.186539404464515D+03 0.000000000000000D+00 0.000000000000000D+00 0.186539404464515D+03
 0.666925226801367D+03 0.000000000000000D+00 0.000000000000000D+00 -.666925226801367D+03
 0.170462738718363D+03 -.104673818435490D+03 0.376962335600802D+02 -.324797013668986D+02
 0.156128104593797D+03 -.109280820361592D+03 -.700823828782659D+02 0.324797013668986D+02
 0.526873787953721D+03 0.213954638797081D+03 0.323861493181856D+02 -.480385822336852D+03
0.139226400467D-03 0.000000000000D+00 0.000000000000D+00 0.257290099576D-02 0.397276963457D-06  5 2 21 25 24 1 2 0.87742277D-01 0.33559240D-01 0.71943050D+05 0.71943050D+05 0.71943050D+05 0.11769422D+01  1  2  1  4  5  2       -1 0.108492895505D+00 0.100000000000D+01
  </mgrwgt>
  </event>
  <event>
  4     66 0.48098993E-03 0.49563174E+02 0.75467711E-02 0.11820077E+00
        2 -1    0    0  501    0 0.00000000E+00 0.00000000E+00 0.42813010E+03 0.42813022E+03 0.32000000E+00 0.0000E+00 0.9000E+01
       -1 -1    0    0    0  501 0.00000000E+00 0.00000000E+00 -.33445950E+02 0.33447481E+02 0.32000000E+00 0.0000E+00 0.9000E+01
       25  1    1    2    0    0 -.15264463E+02 0.47100289E+02 0.29537096E+03 0.32453111E+03 0.12500000E+03 0.0000E+00 0.9000E+01
       24  1    1    2    0    0 0.15264463E+02 -.47100289E+02 0.99313192E+02 0.13704659E+03 0.80419002E+02 0.0000E+00 0.9000E+01
#aMCatNLO 1  0  0  1  2 0.87003959D+02 0.00000000D+00  -5  5  0 0.00000000D+00 0.00000000D+00 0.00000000D+00 0.00000000D+00 0.00000000D+00
  <mgrwgt>
 0.5117428696D+00    8    2    0
 0.119664526589180D+03 0.000000000000000D+00 0.000000000000000D+00 0.119664526589180D+03
 0.119664526589180D+03 0.000000000000000D+00 0.000000000000000D+00 -.119664526589180D+03
 0.138796729562474D+03 -.152644633395898D+02 0.471002885145747D+02 0.344686976550717D+02
 0.100532323615886D+03 0.152644633395898D+02 -.471002885145747D+02 -.344686976550717D+02
 0.000000000000000D+00 -.000000000000000D+00 0.000000000000000D+00 0.000000000000000D+00
 0.192929209212598D+03 0.000000000000000D+00 0.000000000000000D+00 0.192929209212598D+03
 0.156173115645729D+03 0.000000000000000D+00 0.000000000000000D+00 -.156173115645729D+03
 0.130176546187126D+03 0.940782934916467D+01 0.665843871407580D+01 0.344686976550717D+02
 0.124476324679027D+03 0.359039830567874D+02 -.809317757981946D+02 -.344686976550717D+02
 0.944494539921740D+02 -.453118124059521D+02 0.742733370841188D+02 0.367560935668694D+02
0.227217405701D-03 0.000000000000D+00 0.000000000000D+00 0.258970864567D-02 0.000000000000D+00  5 2 -1 25 24 21 0 0.65866296D-01 0.51456578D-02 0.13097349D+05 0.13097349D+05 0.13097349D+05 0.12545945D+01  1  2  2  1  5  1        2 0.301138319243D+00 0.100000000000D+01
-.125926464263D-04 0.000000000000D+00 -.872574665609D-06 0.258970864567D-02 0.000000000000D+00  5 2 -1 25 24 21 2 0.65866296D-01 0.51456578D-02 0.13097349D+05 0.13097349D+05 0.13097349D+05 0.12545945D+01  1  2  3  1  5  1        2 -.262692832784D-01 0.100000000000D+01
0.157457962970D-04 0.000000000000D+00 0.000000000000D+00 0.258970864567D-02 0.000000000000D+00  5 2 -1 25 24 21 2 0.65866296D-01 0.51456578D-02 0.13097349D+05 0.13097349D+05 0.13097349D+05 0.12545945D+01  1  2 15  1  5  1        2 0.328470100220D-01 0.100000000000D+01
0.130679606855D-04 0.000000000000D+00 0.000000000000D+00 0.258970864567D-02 0.000000000000D+00  5 2 -1 25 24 21 2 0.11128204D+00 0.51456578D-02 0.27579743D+05 0.27579743D+05 0.27579743D+05 0.12187513D+01  1  2 12  1  5  1        2 0.146021935299D-01 0.100000000000D+01
-.963664427018D-04 0.000000000000D+00 -.821952993150D-04 0.258970864567D-02 0.000000000000D+00  5 2 -1 25 24 21 2 0.13019326D+00 0.51456578D-02 0.13097349D+05 0.13097349D+05 0.13097349D+05 0.12545945D+01  1  2  5  1  5  1        2 -.922944518936D-01 0.100000000000D+01
0.135627455631D-03 0.000000000000D+00 0.662186810429D-04 0.258970864567D-02 0.000000000000D+00  5 2 -1 25 24 21 2 0.65866296D-01 0.51456578D-02 0.13097349D+05 0.13097349D+05 0.13097349D+05 0.12545945D+01  1  2  6  1  5  1        2 0.282929888736D+00 0.100000000000D+01
0.765553680692D-06 0.000000000000D+00 0.000000000000D+00 0.258970864567D-02 0.000000000000D+00  5 21 -1 25 24 -2 2 0.11128204D+00 0.51456578D-02 0.27579743D+05 0.27579743D+05 0.27579743D+05 0.12187513D+01  1  2 12  3  5  1        2 0.108102987532D-02 0.100000000000D+01
-.222577504865D-05 0.000000000000D+00 -.606376411049D-05 0.258970864567D-02 0.000000000000D+00  5 21 -1 25 24 -2 2 0.13019326D+00 0.51456578D-02 0.13097349D+05 0.13097349D+05 0.13097349D+05 0.12545945D+01  1  2  5  3  5  1        2 -.229183665857D-02 0.100000000000D+01
  </mgrwgt>
  </event>
  <event>
  5     66 -.48098993E-03 0.14102272E+03 0.75467711E-02 0.11992549E+00
        2 -1    0    0  501    0 0.00000000E+00 0.00000000E+00 0.49158789E+02 0.49159831E+02 0.32000000E+00 0.0000E+00 0.9000E+01
       -1 -1    0    0    0  502 0.00000000E+00 0.00000000E+00 -.46692223E+03 0.46692234E+03 0.32000000E+00 0.0000E+00 0.9000E+01
       25  1    1    2    0    0 0.28111773E+02 -.10132918E+03 -.20764110E+03 0.26419254E+03 0.12500000E+03 0.0000E+00 0.9000E+01
       24  1    1    2    0    0 -.31557075E+02 0.82342333E+02 -.18588792E+03 0.22090188E+03 0.80419002E+02 0.0000E+00 0.9000E+01
       21  1    1    2  501  502 0.34453018E+01 0.18986845E+02 -.24234431E+02 0.30987748E+02 0.75000000E+00 0.0000E+00 0.9000E+01
#aMCatNLO 2  0  0  2  1 0.19296901D+02 0.00000000D+00  -5  5  0 0.00000000D+00 0.00000000D+00 0.00000000D+00 0.00000000D+00 0.00000000D+00
  <mgrwgt>
 -.1035150512D+00    2    2    0
 0.141491295747337D+03 0.000000000000000D+00 0.000000000000000D+00 0.141491295747337D+03
 0.141491295747337D+03 0.000000000000000D+00 0.000000000000000D+00 -.141491295747337D+03
 0.157672121566444D+03 0.300661443062815D+02 -.905587594718567D+02 0.114296092993421D+02
 0.125310469928230D+03 -.300661443062815D+02 0.905587594718567D+02 -.114296092993421D+02
 0.000000000000000D+00 0.000000000000000D+00 0.000000000000000D+00 0.000000000000000D+00
 0.152272368755163D+03 0.000000000000000D+00 0.000000000000000D+00 0.152272368755163D+03
 0.150726148299512D+03 0.000000000000000D+00 0.000000000000000D+00 -.150726148299512D+03
 0.163748313339302D+03 0.281117731114582D+02 -.101329178252173D+03 0.114296092993421D+02
 0.119891453778205D+03 -.315570749521430D+02 0.823423328939015D+02 -.114296092993421D+02
 0.193587499371684D+02 0.344530184068486D+01 0.189868453582716D+02 0.154622045565079D+01
-.114250102109D-02 0.000000000000D+00 0.000000000000D+00 0.247103875728D-02 0.000000000000D+00  5 2 -1 25 24 21 2 0.70271739D-02 0.74226046D-01 0.22799677D+05 0.22799677D+05 0.22799677D+05 0.12276107D+01  1  2 13  2  5  2       -1 -.366421013427D+00 0.100000000000D+01
0.842730225341D-03 0.000000000000D+00 0.000000000000D+00 0.247103875728D-02 0.535130901874D-04  5 2 -1 25 24 21 2 0.75626166D-02 0.71830834D-01 0.22799677D+05 0.22799677D+05 0.22799677D+05 0.12276107D+01  1  2  1  2  5  2       -1 0.262905962193D+00 0.100000000000D+01
  </mgrwgt>
  </event>
  <event>
  5     66 0.48098993E-03 0.13117167E+03 0.75467711E-02 0.11975909E+00
        2 -1    0    0  501    0 0.00000000E+00 0.00000000E+00 0.81840882E+03 0.81840888E+03 0.32000000E+00 0.0000E+00 0.9000E+01
       21 -1    0    0  502  501 0.00000000E+00 0.00000000E+00 -.40254607E+02 0.40261593E+02 0.75000000E+00 0.0000E+00 0.9000E+01
       25  1    1    2    0    0 -.35130105E+02 -.96740480E+02 0.26518053E+03 0.31070654E+03 0.12500000E+03 0.0000E+00 0.9000E+01
       24  1    1    2    0    0 0.15001265E+02 0.61910387E+02 0.49202499E+03 0.50260695E+03 0.80419002E+02 0.0000E+00 0.9000E+01
        1  1    1    2  502    0 0.20128840E+02 0.34830093E+02 0.20948689E+02 0.45356979E+02 0.32000000E+00 0.0000E+00 0.9000E+01
#aMCatNLO 2  0  0  2  1 0.40228169D+02 0.00000000D+00  -5  5  0 0.00000000D+00 0.00000000D+00 0.00000000D+00 0.00000000D+00 0.00000000D+00
  <mgrwgt>
 0.5452412936D-01    2    2    0
 0.147054692939682D+03 0.000000000000000D+00 0.000000000000000D+00 0.147054692939682D+03
 0.147054692939682D+03 0.000000000000000D+00 0.000000000000000D+00 -.147054692939682D+03
 0.162623363110218D+03 -.236350750343632D+02 -.768499666451018D+02 -.660062427657003D+02
 0.131486022769146D+03 0.236350750343632D+02 0.768499666451018D+02 0.660062427657003D+02
 0.000000000000000D+00 0.000000000000000D+00 0.000000000000000D+00 -.000000000000000D+00
 0.154689869602957D+03 0.000000000000000D+00 0.000000000000000D+00 0.154689869602957D+03
 0.212991337489784D+03 0.000000000000000D+00 0.000000000000000D+00 -.212991337489784D+03
 0.174856137566006D+03 -.351301047891706D+02 -.967404801412485D+02 -.660062427657003D+02
 0.121991696294990D+03 0.150012649303878D+02 0.619103866649395D+02 0.660062427657003D+02
 0.708333732317445D+02 0.201288398587827D+02 0.348300934763090D+02 -.583014678868266D+02
-.229568556820D-04 0.000000000000D+00 0.000000000000D+00 0.198754106902D-02 0.000000000000D+00  5 2 21 25 24 1 2 0.11969468D+00 0.62656395D-02 0.23216552D+05 0.23216552D+05 0.23216552D+05 0.12267588D+01  1  2 13  4  5  2       -1 -.293741998732D+00 0.100000000000D+01
0.284269965697D-04 0.000000000000D+00 0.000000000000D+00 0.198754106902D-02 0.507616816152D-06  5 2 21 25 24 1 2 0.12590931D+00 0.61935446D-02 0.23216552D+05 0.23216552D+05 0.23216552D+05 0.12267588D+01  1  2  1  4  5  2       -1 0.348266128096D+00 0.100000000000D+01
  </mgrwgt>
  </event>
  <event>
  4     66 0.48098993E-03 0.20458009E+03 0.75467711E-02 0.11203642E+00
        2 -1    0    0  501    0 0.00000000E+00 0.00000000E+00 0.12823529E+03 0.12823569E+03 0.32000000E+00 0.0000E+00 0.9000E+01
       -1 -1    0    0    0  501 0.00000000E+00 0.00000000E+00 -.32665468E+03 0.32665483E+03 0.32000000E+00 0.0000E+00 0.9000E+01
       25  1    1    2    0    0 -.14796499E+03 -.95071053E+02 -.97995433E+02 0.23698153E+03 0.12500000E+03 0.0000E+00 0.9000E+01
       24  1    1    2    0    0 0.14796499E+03 0.95071053E+02 -.10042395E+03 0.21790899E+03 0.80419002E+02 0.0000E+00 0.9000E+01
#aMCatNLO 1  0  0  1  1 0.64133318D+02 0.00000000D+00  -5  5  0 0.00000000D+00 0.00000000D+00 0.00000000D+00 0.00000000D+00 0.00000000D+00
  <mgrwgt>
 0.3403049288D+00    4    2    0
 0.204667497935193D+03 0.000000000000000D+00 0.000000000000000D+00 0.204667497935193D+03
 0.204667497935193D+03 0.000000000000000D+00 0.000000000000000D+00 -.204667497935193D+03
 0.215853670798518D+03 -.147964987802589D+03 -.950710533160457D+02 0.597196811379247D+01
 0.193481325071867D+03 0.147964987802589D+03 0.950710533160457D+02 -.597196811379247D+01
 0.000000000000000D+00 0.000000000000000D+00 -.000000000000000D+00 -.000000000000000D+00
 0.218577569584941D+03 0.000000000000000D+00 0.000000000000000D+00 0.218577569584941D+03
 0.297258780965923D+03 0.000000000000000D+00 0.000000000000000D+00 -.297258780965923D+03
 0.225734115807284D+03 -.173504880980180D+03 -.720505580283569D+02 0.597196811379247D+01
 0.188594523414231D+03 0.125867056990062D+03 0.114989120654864D+03 -.597196811379247D+01
 0.101507711329350D+03 0.476378239901181D+02 -.429385626265068D+02 -.786812113809816D+02
0.306111140081D-02 0.000000000000D+00 0.000000000000D+00 0.214894894317D-02 0.000000000000D+00  5 2 -1 25 24 21 0 0.19728549D-01 0.50254608D-01 0.41853013D+05 0.41853013D+05 0.41853013D+05 0.12000082D+01  1  2  2  1  5  1        2 0.397947005201D+00 0.100000000000D+01
-.170061706760D-03 0.000000000000D+00 -.117554737882D-04 0.214894894317D-02 0.000000000000D+00  5 2 -1 25 24 21 2 0.19728549D-01 0.50254608D-01 0.41853013D+05 0.41853013D+05 0.41853013D+05 0.12000082D+01  1  2  3  1  5  1        2 -.318361895765D-01 0.100000000000D+01
0.210826861213D-03 0.000000000000D+00 0.000000000000D+00 0.214894894317D-02 0.000000000000D+00  5 2 -1 25 24 21 2 0.19728549D-01 0.50254608D-01 0.41853013D+05 0.41853013D+05 0.41853013D+05 0.12000082D+01  1  2 15  1  5  1        2 0.394675794407D-01 0.100000000000D+01
-.348676057759D-03 0.000000000000D+00 0.000000000000D+00 0.214894894317D-02 0.000000000000D+00  5 2 -1 25 24 21 2 0.19728549D-01 0.50254608D-01 0.41853013D+05 0.41853013D+05 0.41853013D+05 0.12000082D+01  1  2  4  1  5  1        2 -.652734662439D-01 0.100000000000D+01
  </mgrwgt>
  </event>
  <event>
  4     66 0.48098993E-03 0.13607972E+03 0.75467711E-02 0.11240707E+00
        2 -1    0    0  501    0 0.00000000E+00 0.00000000E+00 0.18088762E+04 0.18088762E+04 0.32000000E+00 0.0000E+00 0.9000E+01
       -1 -1    0    0    0  501 0.00000000E+00 0.00000000E+00 -.10236972E+02 0.10241973E+02 0.32000000E+00 0.0000E+00 0.9000E+01
       25  1    1    2    0    0 -.81853022E+02 0.32476485E+02 0.99673167E+03 0.10083916E+04 0.12500000E+03 0.0000E+00 0.9000E+01
       24  1    1    2    0    0 0.81853022E+02 -.32476485E+02 0.80190752E+03 0.81072654E+03 0.80419002E+02 0.0000E+00 0.9000E+01
#aMCatNLO 1  0  0  2  1 0.15444650D+03 0.00000000D+00  -5  5  0 0.00000000D+00 0.00000000D+00 0.00000000D+00 0.00000000D+00 0.00000000D+00
  <mgrwgt>
 0.4463448389D+00    3    2    0
 0.136095513664040D+03 0.000000000000000D+00 0.000000000000000D+00 0.136095513664040D+03
 0.136095513664040D+03 0.000000000000000D+00 0.000000000000000D+00 -.136095513664040D+03
 0.152917861071163D+03 -.818530224206885D+02 0.324764852266753D+02 -.205739215986065D+01
 0.119273166256917D+03 0.818530224206885D+02 -.324764852266753D+02 0.205739215986065D+01
 0.000000000000000D+00 -.000000000000000D+00 -.000000000000000D+00 0.000000000000000D+00
 0.276407366231392D+03 0.000000000000000D+00 0.000000000000000D+00 0.276407366231392D+03
 0.206202767591024D+03 0.000000000000000D+00 0.000000000000000D+00 -.206202767591024D+03
 0.140219374401587D+03 -.105903926168413D+02 0.626105716256774D+02 -.205739215986065D+01
 0.172736974611697D+03 0.152841651804906D+03 -.245826253269234D+01 0.205739215986065D+01
 0.169653784809132D+03 -.142251259188065D+03 -.601523090929850D+02 0.702045986403684D+02
0.430854627243D-03 0.000000000000D+00 0.000000000000D+00 0.254323936888D-02 0.000000000000D+00  5 2 -1 25 24 21 0 0.27828903D+00 0.15753056D-02 0.18517690D+05 0.18517690D+05 0.18517690D+05 0.12375249D+01  1  2  2  2  5  2       -1 0.437218053309D+00 0.100000000000D+01
-.239363677882D-04 0.000000000000D+00 -.165459521524D-05 0.254323936888D-02 0.000000000000D+00  5 2 -1 25 24 21 2 0.27828903D+00 0.15753056D-02 0.18517690D+05 0.18517690D+05 0.18517690D+05 0.12375249D+01  1  2  3  2  5  2       -1 -.371991899715D-01 0.100000000000D+01
0.298091326537D-04 0.000000000000D+00 0.000000000000D+00 0.254323936888D-02 0.000000000000D+00  5 2 -1 25 24 21 2 0.27828903D+00 0.15753056D-02 0.18517690D+05 0.18517690D+05 0.18517690D+05 0.12375249D+01  1  2 15  2  5  2       -1 0.463259755316D-01 0.100000000000D+01
  </mgrwgt>
  </event>
  <event>
  4     66 0.48098993E-03 0.18835134E+03 0.75467711E-02 0.10492123E+00
        2 -1    0    0  501    0 0.00000000E+00 0.00000000E+00 0.80828697E+03 0.80828704E+03 0.32000000E+00 0.0000E+00 0.9000E+01
       -1 -1    0    0    0  501 0.00000000E+00 0.00000000E+00 -.44109307E+02 0.44110467E+02 0.32000000E+00 0.0000E+00 0.9000E+01
       25  1    1    2    0    0 0.15389244E+03 -.29916285E+02 0.43661456E+03 0.48045306E+03 0.12500000E+03 0.0000E+00 0.9000E+01
       24  1    1    2    0    0 -.15389244E+03 0.29916285E+02 0.32756311E+03 0.37194445E+03 0.80419002E+02 0.0000E+00 0.9000E+01
#aMCatNLO 1  0  0  1  1 0.29262359D+03 0.00000000D+00  -5  5  0 0.00000000D+00 0.00000000D+00 0.00000000D+00 0.00000000D+00 0.00000000D+00
  <mgrwgt>
 0.4801820740D+00    3    2    0
 0.188821343079618D+03 0.000000000000000D+00 0.000000000000000D+00 0.188821343079618D+03
 0.188821343079618D+03 0.000000000000000D+00 0.000000000000000D+00 -.188821343079618D+03
 0.200946275431370D+03 0.153892437566293D+03 -.299162845750639D+02 0.132868049909900D+02
 0.176696410727866D+03 -.153892437566293D+03 0.299162845750639D+02 -.132868049909900D+02
 0.000000000000000D+00 -.000000000000000D+00 -.000000000000000D+00 -.000000000000000D+00
 0.327025556703235D+03 0.000000000000000D+00 0.000000000000000D+00 0.327025556703235D+03
 0.481717569192967D+03 0.000000000000000D+00 0.000000000000000D+00 -.481717569192967D+03
 0.357426018496694D+03 0.332427508187239D+03 0.379969908276088D+02 0.132868049909900D+02
 0.120321364214896D+03 -.589233819707194D+02 0.660417337933153D+02 -.132868049909900D+02
 0.330995743184613D+03 -.273504126216520D+03 -.104038724620924D+03 -.154692012489732D+03
0.108186246169D-02 0.000000000000D+00 0.000000000000D+00 0.218968411825D-02 0.000000000000D+00  5 2 -1 25 24 21 0 0.12435194D+00 0.67861413D-02 0.35476226D+05 0.35476226D+05 0.35476226D+05 0.12073296D+01  1  2  2  1  5  1        2 0.470979318727D+00 0.100000000000D+01
-.601030161839D-04 0.000000000000D+00 -.415463671382D-05 0.218968411825D-02 0.000000000000D+00  5 2 -1 25 24 21 2 0.12435194D+00 0.67861413D-02 0.35476226D+05 0.35476226D+05 0.35476226D+05 0.12073296D+01  1  2  3  1  5  1        2 -.381397388084D-01 0.100000000000D+01
0.746053008398D-04 0.000000000000D+00 0.000000000000D+00 0.218968411825D-02 0.000000000000D+00  5 2 -1 25 24 21 2 0.12435194D+00 0.67861413D-02 0.35476226D+05 0.35476226D+05 0.35476226D+05 0.12073296D+01  1  2 15  1  5  1        2 0.473424940780D-01 0.100000000000D+01
  </mgrwgt>
  </event>
  <event>
  4     66 0.48098993E-03 0.10558084E+03 0.75467711E-02 0.10224773E+00
        2 -1    0    0  501    0 0.00000000E+00 0.00000000E+00 0.19426907E+04 0.19426907E+04 0.32000000E+00 0.0000E+00 0.9000E+01
       -1 -1    0    0    0  501 0.00000000E+00 0.00000000E+00 -.71322172E+01 0.71393922E+01 0.32000000E+00 0.0000E+00 0.9000E+01
       25  1    1    2    0    0 0.12073298E+02 -.20631286E+02 0.15517073E+04 0.15569175E+04 0.12500000E+03 0.0000E+00 0.9000E+01
       24  1    1    2    0    0 -.12073298E+02 0.20631286E+02 0.38385114E+03 0.39291262E+03 0.80419002E+02 0.0000E+00 0.9000E+01
#aMCatNLO 1  0  0  2  1 0.44410400D+03 0.00000000D+00  -5  5  0 0.00000000D+00 0.00000000D+00 0.00000000D+00 0.00000000D+00 0.00000000D+00
  <mgrwgt>
 0.5000357718D+00    5    2    0
 0.117740020604151D+03 0.000000000000000D+00 0.000000000000000D+00 0.117740020604151D+03
 0.117740020604151D+03 0.000000000000000D+00 0.000000000000000D+00 -.117740020604151D+03
 0.137184946803923D+03 0.120732975873911D+02 -.206312855780991D+02 0.512181136938534D+02
 0.982950944043791D+02 -.120732975873911D+02 0.206312855780991D+02 -.512181136938534D+02
 0.000000000000000D+00 -.000000000000000D+00 -.000000000000000D+00 -.000000000000000D+00
 0.347287197496166D+03 0.000000000000000D+00 0.000000000000000D+00 0.347287197496166D+03
 0.765213011800618D+03 0.000000000000000D+00 0.000000000000000D+00 -.765213011800618D+03
 0.281707309298466D+03 0.191401887837935D+03 0.156448171206633D+03 0.512181136938534D+02
 0.220964766573675D+03 0.124602470366612D+03 0.155592870404686D+03 -.512181136938534D+02
 0.609828133424643D+03 -.316004358204547D+03 -.312041041611318D+03 -.417925814304452D+03
0.299581817497D-03 0.000000000000D+00 0.000000000000D+00 0.236801332372D-02 0.000000000000D+00  5 2 -1 25 24 21 0 0.29887604D+00 0.10978181D-02 0.11147314D+05 0.11147314D+05 0.11147314D+05 0.12627932D+01  1  2  2  2  5  2       -1 0.430722786775D+00 0.100000000000D+01
-.164030014200D-04 0.000000000000D+00 -.115047306089D-05 0.236801332372D-02 0.000000000000D+00  5 2 -1 25 24 21 2 0.29887604D+00 0.10978181D-02 0.11147314D+05 0.11147314D+05 0.11147314D+05 0.12627932D+01  1  2  3  2  5  2       -1 -.376071271854D-01 0.100000000000D+01
0.206464286595D-04 0.000000000000D+00 0.000000000000D+00 0.236801332372D-02 0.000000000000D+00  5 2 -1 25 24 21 2 0.29887604D+00 0.10978181D-02 0.11147314D+05 0.11147314D+05 0.11147314D+05 0.12627932D+01  1  2 15  2  5  2       -1 0.473360239776D-01 0.100000000000D+01
0.568683395762D-02 0.000000000000D+00 -.129264731048D-02 0.236801332372D-02 0.000000000000D+00  5 2 -1 25 24 21 2 0.29887604D+00 0.77751855D-01 0.11147314D+05 0.11147314D+05 0.11147314D+05 0.12627932D+01  1  2  5  2  5  2       -1 0.163536367987D-01 0.100000000000D+01
0.160542735077D-02 0.000000000000D+00 -.464500972825D-03 0.236801332372D-02 0.000000000000D+00  5 2 21 25 24 1 2 0.29887604D+00 0.77751855D-01 0.11147314D+05 0.11147314D+05 0.11147314D+05 0.12627932D+01  1  2  5  4  5  2       -1 0.432304514606D-01 0.100000000000D+01
  </mgrwgt>
  </event>
  <event>
  4     66 0.48098993E-03 0.55500929E+02 0.75467711E-02 0.12144234E+00
        2 -1    0    0  501    0 0.00000000E+00 0.00000000E+00 0.15403169E+03 0.15403203E+03 0.32000000E+00 0.0000E+00 0.9000E+01
       -1 -1    0    0    0  501 0.00000000E+00 0.00000000E+00 -.69912514E+02 0.69913247E+02 0.32000000E+00 0.0000E+00 0.9000E+01
       25  1    1    2    0    0 -.43082610E+00 0.13545384E+02 0.45518100E+02 0.13371821E+03 0.12500000E+03 0.0000E+00 0.9000E+01
       24  1    1    2    0    0 0.43082610E+00 -.13545384E+02 0.38601079E+02 0.90227060E+02 0.80419002E+02 0.0000E+00 0.9000E+01
#aMCatNLO 1  0  0  1  2 0.62012935D+02 0.00000000D+00  -5  5  0 0.00000000D+00 0.00000000D+00 0.00000000D+00 0.00000000D+00 0.00000000D+00
  <mgrwgt>
 0.1346773538D+00    7    2    0
 0.103773128614819D+03 0.000000000000000D+00 0.000000000000000D+00 0.103773128614819D+03
 0.103773128614819D+03 0.000000000000000D+00 0.000000000000000D+00 -.103773128614819D+03
 0.125835159912971D+03 -.430826104457423D+00 0.135453844926509D+02 -.508177312924094D+01
 0.817110973166659D+02 0.430826104457423D+00 -.135453844926509D+02 0.508177312924094D+01
 0.000000000000000D+00 0.000000000000000D+00 0.000000000000000D+00 0.000000000000000D+00
 0.201281689771392D+03 0.000000000000000D+00 0.000000000000000D+00 0.201281689771392D+03
 0.118646726031171D+03 0.000000000000000D+00 0.000000000000000D+00 -.118646726031171D+03
 0.127316764397260D+03 -.404242003969744D+01 -.232893305758852D+02 -.508177312924094D+01
 0.892959152672368D+02 -.200884679636823D+01 -.384276546962555D+02 0.508177312924094D+01
 0.103315736138066D+03 0.605126683606567D+01 0.617169852721408D+02 0.826349637402211D+02
0.169072236409D-03 0.000000000000D+00 0.000000000000D+00 0.319886050150D-02 0.000000000000D+00  5 2 -1 25 24 21 0 0.23697266D-01 0.10755853D-01 0.10741812D+05 0.10741812D+05 0.10741812D+05 0.12647012D+01  1  2  2  1  5  1        2 0.219149150856D+00 0.100000000000D+01
-.939288396298D-05 0.000000000000D+00 -.649281905554D-06 0.319886050150D-02 0.000000000000D+00  5 2 -1 25 24 21 2 0.23697266D-01 0.10755853D-01 0.10741812D+05 0.10741812D+05 0.10741812D+05 0.12647012D+01  1  2  3  1  5  1        2 -.194734234801D-01 0.100000000000D+01
0.116830975280D-04 0.000000000000D+00 0.000000000000D+00 0.319886050150D-02 0.000000000000D+00  5 2 -1 25 24 21 2 0.23697266D-01 0.10755853D-01 0.10741812D+05 0.10741812D+05 0.10741812D+05 0.12647012D+01  1  2 15  1  5  1        2 0.242215177596D-01 0.100000000000D+01
0.741256285771D-04 0.000000000000D+00 0.000000000000D+00 0.319886050150D-02 0.000000000000D+00  5 2 -1 25 24 21 2 0.46222053D-01 0.10755853D-01 0.19373778D+05 0.19373778D+05 0.19373778D+05 0.12353499D+01  1  2 12  1  5  1        2 0.731756745127D-01 0.100000000000D+01
-.166852979306D-03 0.000000000000D+00 -.621196986854D-04 0.319886050150D-02 0.000000000000D+00  5 2 -1 25 24 21 2 0.51252227D-01 0.10755853D-01 0.10741812D+05 0.10741812D+05 0.10741812D+05 0.12647012D+01  1  2  5  1  5  1        2 -.151985821485D+00 0.100000000000D+01
0.536674301166D-05 0.000000000000D+00 0.000000000000D+00 0.319886050150D-02 0.000000000000D+00  5 21 -1 25 24 -2 2 0.46222053D-01 0.10755853D-01 0.19373778D+05 0.19373778D+05 0.19373778D+05 0.12353499D+01  1  2 12  3  5  1        2 0.178669960844D-01 0.100000000000D+01
-.100415565888D-04 0.000000000000D+00 -.518836500948D-05 0.319886050150D-02 0.000000000000D+00  5 21 -1 25 24 -2 2 0.51252227D-01 0.10755853D-01 0.10741812D+05 0.10741812D+05 0.10741812D+05 0.12647012D+01  1  2  5  3  5  1        2 -.282767404834D-01 0.100000000000D+01
  </mgrwgt>
  </event>
  <event>
  5     66 0.48098993E-03 0.10633242E+03 0.75467711E-02 0.12333273E+00
        2 -1    0    0  501    0 0.00000000E+00 0.00000000E+00 0.37267709E+04 0.37267710E+04 0.32000000E+00 0.0000E+00 0.9000E+01
       21 -1    0    0  502  501 0.00000000E+00 0.00000000E+00 -.43282202E+01 0.43927202E+01 0.75000000E+00 0.0000E+00 0.9000E+01
       25  1    1    2    0    0 -.28951390E+02 0.23315598E+02 0.20507132E+04 0.20548556E+04 0.12500000E+03 0.0000E+00 0.9000E+01
       24  1    1    2    0    0 0.25483443E+02 0.12996186E+02 0.10234761E+04 0.10270291E+04 0.80419002E+02 0.0000E+00 0.9000E+01
        1  1    1    2  502    0 0.34679468E+01 -.36311784E+02 0.64825344E+03 0.64927898E+03 0.32000000E+00 0.0000E+00 0.9000E+01
#aMCatNLO 2  0  0  2  2 0.36477011D+02 0.00000000D+00  -5  5  0 0.00000000D+00 0.00000000D+00 0.00000000D+00 0.00000000D+00 0.00000000D+00
  <mgrwgt>
 0.7527951302D-01    1    2    0
 0.107288105812783D+03 0.000000000000000D+00 0.000000000000000D+00 0.107288105812783D+03
 0.107288105812783D+03 0.000000000000000D+00 0.000000000000000D+00 -.107288105812783D+03
 0.128627339962395D+03 -.268670271163170D+02 0.149088775675092D+01 0.139975959875055D+02
 0.859488716631702D+02 0.268670271163170D+02 -.149088775675092D+01 -.139975959875055D+02
 0.000000000000000D+00 0.000000000000000D+00 -.000000000000000D+00 0.000000000000000D+00
 0.131764411043483D+03 0.000000000000000D+00 0.000000000000000D+00 0.131764411043483D+03
 0.123329692681962D+03 0.000000000000000D+00 0.000000000000000D+00 -.123329692681962D+03
 0.131159188799206D+03 -.289513900002458D+02 0.233155984287342D+02 0.139975959875055D+02
 0.864954066138374D+02 0.254834432372763D+02 0.129961855275161D+02 -.139975959875055D+02
 0.374395083124015D+02 0.346794676296948D+01 -.363117839562503D+02 0.843471836152170D+01
0.706895661859D-05 0.000000000000D+00 0.000000000000D+00 0.304622124213D-02 0.510274131309D-06  5 2 21 25 24 1 2 0.57335124D+00 0.67083900D-03 0.15906558D+05 0.15906558D+05 0.15906558D+05 0.12449276D+01  1  2  1  4  5  2       -1 0.752795130183D-01 0.100000000000D+01
  </mgrwgt>
  </event>
  <event>
  4     66 0.48098993E-03 0.94018725E+02 0.75467711E-02 0.11636854E+00
        2 -1    0    0  501    0 0.00000000E+00 0.00000000E+00 0.28995290E+04 0.28995291E+04 0.32000000E+00 0.0000E+00 0.9000E+01
       -1 -1    0    0    0  501 0.00000000E+00 0.00000000E+00 -.11796295E+02 0.11800634E+02 0.32000000E+00 0.0000E+00 0.9000E+01
       25  1    1    2    0    0 -.51821849E+02 -.13663313E+03 0.18891918E+04 0.18989536E+04 0.12500000E+03 0.0000E+00 0.9000E+01
       24  1    1    2    0    0 0.51821849E+02 0.13663313E+03 0.99854091E+03 0.10123761E+04 0.80419002E+02 0.0000E+00 0.9000E+01
#aMCatNLO 1  0  0  1  2 0.94086673D+01 0.00000000D+00  -5  5  0 0.00000000D+00 0.00000000D+00 0.00000000D+00 0.00000000D+00 0.00000000D+00
  <mgrwgt>
 0.9661550662D+00   11    2    0
 0.184959566418757D+03 0.000000000000000D+00 0.000000000000000D+00 0.184959566418757D+03
 0.184959566418757D+03 0.000000000000000D+00 0.000000000000000D+00 -.184959566418757D+03
 0.197337655618123D+03 -.518218492058128D+02 -.136633128208289D+03 0.443061456884269D+02
 0.172581477219392D+03 0.518218492058128D+02 0.136633128208289D+03 -.443061456884269D+02
 0.000000000000000D+00 0.000000000000000D+00 -.000000000000000D+00 0.000000000000000D+00
 0.196197222507392D+03 0.000000000000000D+00 0.000000000000000D+00 0.196197222507392D+03
 0.186999260297503D+03 0.000000000000000D+00 0.000000000000000D+00 -.186999260297503D+03
 0.195706855611437D+03 -.551726300567158D+02 -.132925240944587D+03 0.443061456884269D+02
 0.174331909735059D+03 0.488643451554637D+02 0.139905825555143D+03 -.443061456884269D+02
 0.131577174583986D+02 0.630828490125211D+01 -.698058461055594D+01 0.919796220988926D+01
0.132472909335D-02 0.000000000000D+00 0.000000000000D+00 0.209434414529D-02 0.000000000000D+00  5 2 -1 25 24 21 0 0.44608173D+00 0.18151497D-02 0.32237632D+05 0.32237632D+05 0.32237632D+05 0.12116331D+01  1  2  2  1  5  1        2 0.287792173614D+00 0.100000000000D+01
-.735171700757D-04 0.000000000000D+00 -.508730852763D-05 0.209434414529D-02 0.000000000000D+00  5 2 -1 25 24 21 2 0.44608173D+00 0.18151497D-02 0.32237632D+05 0.32237632D+05 0.32237632D+05 0.12116331D+01  1  2  3  1  5  1        2 -.234467642134D-01 0.100000000000D+01
0.913268642631D-04 0.000000000000D+00 0.000000000000D+00 0.209434414529D-02 0.000000000000D+00  5 2 -1 25 24 21 2 0.44608173D+00 0.18151497D-02 0.32237632D+05 0.32237632D+05 0.32237632D+05 0.12116331D+01  1  2 15  1  5  1        2 0.291267937888D-01 0.100000000000D+01
0.527046181028D-02 0.000000000000D+00 0.000000000000D+00 0.209434414529D-02 0.000000000000D+00  5 2 -1 25 24 21 2 0.47555066D+00 0.18151497D-02 0.33974247D+05 0.33974247D+05 0.33974247D+05 0.12092685D+01  1  2 12  1  5  1        2 0.129284346227D+01 0.100000000000D+01
-.535310589730D-02 0.000000000000D+00 0.000000000000D+00 0.209434414529D-02 0.000000000000D+00  5 2 -1 25 24 21 2 0.44608173D+00 0.18151497D-02 0.32237632D+05 0.32237632D+05 0.32237632D+05 0.12116331D+01  1  2  4  1  5  1        2 -.170726119700D+01 0.100000000000D+01
-.150658026931D-01 0.000000000000D+00 -.188418181211D-02 0.209434414529D-02 0.000000000000D+00  5 2 -1 25 24 21 2 0.47462964D+00 0.18151497D-02 0.32237632D+05 0.32237632D+05 0.32237632D+05 0.12116331D+01  1  2  5  1  5  1        2 -.374439233284D+01 0.100000000000D+01
0.151571307970D-01 0.000000000000D+00 0.188056240813D-02 0.209434414529D-02 0.000000000000D+00  5 2 -1 25 24 21 2 0.44608173D+00 0.18151497D-02 0.32237632D+05 0.32237632D+05 0.32237632D+05 0.12116331D+01  1  2  6  1  5  1        2 0.483404994483D+01 0.100000000000D+01
0.128068938413D-06 0.000000000000D+00 0.000000000000D+00 0.209434414529D-02 0.184801642293D-03  5 2 -1 25 24 21 2 0.47318448D+00 0.18351668D-02 0.33974247D+05 0.33974247D+05 0.33974247D+05 0.12092685D+01  1  2 11  1  5  1        2 0.315773278652D-04 0.100000000000D+01
0.708500509131D-04 0.000000000000D+00 0.000000000000D+00 0.209434414529D-02 0.000000000000D+00  5 21 -1 25 24 -2 2 0.47555066D+00 0.18151497D-02 0.33974247D+05 0.33974247D+05 0.33974247D+05 0.12092685D+01  1  2 12  3  5  1        2 0.202349690273D-02 0.100000000000D+01
-.157521288794D-03 0.000000000000D+00 -.200144251295D-04 0.209434414529D-02 0.000000000000D+00  5 21 -1 25 24 -2 2 0.47462964D+00 0.18151497D-02 0.32237632D+05 0.32237632D+05 0.32237632D+05 0.12116331D+01  1  2  5  3  5  1        2 -.461212994487D-02 0.100000000000D+01
0.141955791717D-08 0.000000000000D+00 0.000000000000D+00 0.209434414529D-02 0.189647075981D-05  5 21 -1 25 24 -2 2 0.47318448D+00 0.18351668D-02 0.33974247D+05 0.33974247D+05 0.33974247D+05 0.12092685D+01  1  2 11  3  5  1        2 0.414151834188D-07 0.100000000000D+01
  </mgrwgt>
  </event>
  <event>
  5     66 0.48098993E-03 0.16298642E+03 0.75467711E-02 0.11559772E+00
        2 -1    0    0  502    0 0.00000000E+00 0.00000000E+00 0.61125374E+03 0.61125383E+03 0.32000000E+00 0.0000E+00 0.9000E+01
       -1 -1    0    0    0  501 0.00000000E+00 0.00000000E+00 -.71596766E+02 0.71597481E+02 0.32000000E+00 0.0000E+00 0.9000E+01
       25  1    1    2    0    0 0.65589718E+02 -.11748245E+03 0.15739046E+03 0.24186958E+03 0.12500000E+03 0.0000E+00 0.9000E+01
       24  1    1    2    0    0 -.98540323E+02 0.73335665E+02 0.34366081E+03 0.37370883E+03 0.80419002E+02 0.0000E+00 0.9000E+01
       21  1    1    2  502  501 0.32950605E+02 0.44146782E+02 0.38605703E+02 0.67272903E+02 0.75000000E+00 0.0000E+00 0.9000E+01
#aMCatNLO 2  0  0  1  2 0.55087936D+02 0.00000000D+00  -5  5  0 0.00000000D+00 0.00000000D+00 0.00000000D+00 0.00000000D+00 0.00000000D+00
  <mgrwgt>
 0.1074420645D+00    1    2    0
 0.176670394148540D+03 0.000000000000000D+00 0.000000000000000D+00 0.176670394148540D+03
 0.176670394148540D+03 0.000000000000000D+00 0.000000000000000D+00 -.176670394148540D+03
 0.189629249096712D+03 0.834544973338558D+02 -.935474538244630D+02 -.679593471915110D+02
 0.163711539200367D+03 -.834544973338558D+02 0.935474538244630D+02 0.679593471915110D+02
 0.000000000000000D+00 0.000000000000000D+00 0.000000000000000D+00 -.000000000000000D+00
 0.195756664691543D+03 0.000000000000000D+00 0.000000000000000D+00 0.195756664691543D+03
 0.223558586994623D+03 0.000000000000000D+00 0.000000000000000D+00 -.223558586994623D+03
 0.195825456376401D+03 0.655897184805386D+02 -.117482446876005D+03 -.679593471915110D+02
 0.161783818365348D+03 -.985403232379803D+02 0.733356649656865D+02 0.679593471915110D+02
 0.617059769444166D+02 0.329506047574417D+02 0.441467819103180D+02 -.278019223030810D+02
0.253932827551D-03 0.000000000000D+00 0.000000000000D+00 0.193642455883D-02 0.513759153187D-05  5 2 -1 25 24 21 2 0.94038045D-01 0.11014825D-01 0.37164301D+05 0.37164301D+05 0.37164301D+05 0.12052567D+01  1  2  1  1  5  1        2 0.107442064509D+00 0.100000000000D+01
  </mgrwgt>
  </event>
  <event>
  4     66 0.48098993E-03 0.14788458E+03 0.75467711E-02 0.11515683E+00
        4 -1    0    0  501    0 0.00000000E+00 0.00000000E+00 0.81105164E+02 0.81119974E+02 0.15500000E+01 0.0000E+00 0.9000E+01
       -3 -1    0    0    0  501 0.00000000E+00 0.00000000E+00 -.27042148E+03 0.27042195E+03 0.50000000E+00 0.0000E+00 0.9000E+01
       25  1    1    2    0    0 -.10518061E+03 0.67057224E+00 -.94991715E+02 0.18897576E+03 0.12500000E+03 0.0000E+00 0.9000E+01
       24  1    1    2    0    0 0.10518061E+03 -.67057224E+00 -.94324605E+02 0.16256616E+03 0.80419002E+02 0.0000E+00 0.9000E+01
#aMCatNLO 1  0  0  2  1 0.87309461D+02 0.00000000D+00  -5  5  0 0.00000000D+00 0.00000000D+00 0.00000000D+00 0.00000000D+00 0.00000000D+00
  <mgrwgt>
 0.6775429852D-01    3    2    0
 0.148105581433031D+03 0.000000000000000D+00 0.000000000000000D+00 0.148105581433031D+03
 0.148105581433031D+03 0.000000000000000D+00 0.000000000000000D+00 -.148105581433031D+03
 0.163563783543007D+03 -.105180611290346D+03 0.670572244244371D+00 0.804367008014441D+01
 0.132647379323055D+03 0.105180611290346D+03 -.670572244244371D+00 -.804367008014441D+01
 0.000000000000000D+00 0.000000000000000D+00 -.000000000000000D+00 0.000000000000000D+00
 0.264771007038321D+03 0.000000000000000D+00 0.000000000000000D+00 0.264771007038321D+03
 0.171672768345118D+03 0.000000000000000D+00 0.000000000000000D+00 -.171672768345118D+03
 0.173793659439919D+03 -.110010804693410D+03 0.491137280591536D+02 0.804367008014441D+01
 0.135016954015180D+03 0.101348265142313D+03 0.377649366668608D+02 -.804367008014441D+01
 0.127633161928341D+03 0.866253955109789D+01 -.868786647260144D+02 0.930982386932031D+02
0.111648146576D-02 0.000000000000D+00 0.000000000000D+00 0.241842581400D-02 0.000000000000D+00  5 4 -3 25 24 21 0 0.12478892D-01 0.41604480D-01 0.21869848D+05 0.21869848D+05 0.21869848D+05 0.12295755D+01  1  2  2  2  5  2       -3 0.664063770398D-01 0.100000000000D+01
-.620265799192D-04 0.000000000000D+00 -.428758280485D-05 0.241842581400D-02 0.000000000000D+00  5 4 -3 25 24 21 2 0.12478892D-01 0.41604480D-01 0.21869848D+05 0.21869848D+05 0.21869848D+05 0.12295755D+01  1  2  3  2  5  2       -3 -.557758914529D-02 0.100000000000D+01
0.770163823601D-04 0.000000000000D+00 0.000000000000D+00 0.241842581400D-02 0.000000000000D+00  5 4 -3 25 24 21 2 0.12478892D-01 0.41604480D-01 0.21869848D+05 0.21869848D+05 0.21869848D+05 0.12295755D+01  1  2 15  2  5  2       -3 0.692551062498D-02 0.100000000000D+01
  </mgrwgt>
  </event>
  <event>
  4     66 0.48098993E-03 0.10346256E+03 0.75467711E-02 0.11314570E+00
        2 -1    0    0  501    0 0.00000000E+00 0.00000000E+00 0.21138068E+04 0.21138068E+04 0.32000000E+00 0.0000E+00 0.9000E+01
       -1 -1    0    0    0  501 0.00000000E+00 0.00000000E+00 -.84388408E+01 0.84449058E+01 0.32000000E+00 0.0000E+00 0.9000E+01
       25  1    1    2    0    0 -.11831058E+02 -.28424977E+01 0.52579674E+03 0.54058788E+03 0.12500000E+03 0.0000E+00 0.9000E+01
       24  1    1    2    0    0 0.11831058E+02 0.28424977E+01 0.15795712E+04 0.15816638E+04 0.80419002E+02 0.0000E+00 0.9000E+01
#aMCatNLO 1  0  0  2  1 0.17552312D+03 0.00000000D+00  -5  5  0 0.00000000D+00 0.00000000D+00 0.00000000D+00 0.00000000D+00 0.00000000D+00
  <mgrwgt>
 0.5154897565D+00    5    2    0
 0.133583458849087D+03 0.000000000000000D+00 0.000000000000000D+00 0.133583458849087D+03
 0.133583458849087D+03 0.000000000000000D+00 0.000000000000000D+00 -.133583458849087D+03
 0.150722152749758D+03 -.118310578609044D+02 -.284249766214582D+01 -.833313482817487D+02
 0.116444764948417D+03 0.118310578609044D+02 0.284249766214582D+01 0.833313482817487D+02
 0.000000000000000D+00 0.000000000000000D+00 -.000000000000000D+00 -.000000000000000D+00
 0.244358388978649D+03 0.000000000000000D+00 0.000000000000000D+00 0.244358388978649D+03
 0.250954923009654D+03 0.000000000000000D+00 0.000000000000000D+00 -.250954923009654D+03
 0.184392703844584D+03 -.814275296222537D+02 0.692900645423225D+02 -.833313482817487D+02
 0.135273573054735D+03 -.404456701262903D+02 0.570241858706068D+02 0.833313482817487D+02
 0.175647035088984D+03 0.121873199748544D+03 -.126314250412929D+03 -.659653403100565D+01
0.370136006571D-03 0.000000000000D+00 0.000000000000D+00 0.168142690907D-02 0.000000000000D+00  5 2 -1 25 24 21 0 0.32520152D+00 0.12987516D-02 0.10704502D+05 0.10704502D+05 0.10704502D+05 0.12648808D+01  1  2  2  2  5  2       -1 0.343063941888D+00 0.100000000000D+01
-.189307791692D-04 0.000000000000D+00 -.142141972428D-05 0.168142690907D-02 0.000000000000D+00  5 2 -1 25 24 21 2 0.32520152D+00 0.12987516D-02 0.10704502D+05 0.10704502D+05 0.10704502D+05 0.12648808D+01  1  2  3  2  5  2       -1 -.280725224692D-01 0.100000000000D+01
0.253527253919D-04 0.000000000000D+00 0.000000000000D+00 0.168142690907D-02 0.000000000000D+00  5 2 -1 25 24 21 2 0.32520152D+00 0.12987516D-02 0.10704502D+05 0.10704502D+05 0.10704502D+05 0.12648808D+01  1  2 15  2  5  2       -1 0.375956502824D-01 0.100000000000D+01
0.257340213018D-03 0.000000000000D+00 -.139093436521D-03 0.168142690907D-02 0.000000000000D+00  5 2 -1 25 24 21 2 0.32520152D+00 0.61323071D-02 0.10704502D+05 0.10704502D+05 0.10704502D+05 0.12648808D+01  1  2  5  2  5  2       -1 0.404642195804D-01 0.100000000000D+01
0.460456146386D-04 0.000000000000D+00 -.262110946491D-04 0.168142690907D-02 0.000000000000D+00  5 2 21 25 24 1 2 0.32520152D+00 0.61323071D-02 0.10704502D+05 0.10704502D+05 0.10704502D+05 0.12648808D+01  1  2  5  4  5  2       -1 0.122438467199D+00 0.100000000000D+01
  </mgrwgt>
  </event>
  <event>
  4     66 0.48098993E-03 0.11040767E+03 0.75467711E-02 0.11784485E+00
        2 -1    0    0  501    0 0.00000000E+00 0.00000000E+00 0.81903331E+03 0.81903337E+03 0.32000000E+00 0.0000E+00 0.9000E+01
       -1 -1    0    0    0  501 0.00000000E+00 0.00000000E+00 -.51596513E+02 0.51597505E+02 0.32000000E+00 0.0000E+00 0.9000E+01
       25  1    1    2    0    0 0.11592001E+03 0.61293782E+02 0.15267182E+03 0.23691361E+03 0.12500000E+03 0.0000E+00 0.9000E+01
       24  1    1    2    0    0 -.11592001E+03 -.61293782E+02 0.61476498E+03 0.63371726E+03 0.80419002E+02 0.0000E+00 0.9000E+01
#aMCatNLO 1  0  0  1  2 0.38363300D+01 0.00000000D+00  -5  5  0 0.00000000D+00 0.00000000D+00 0.00000000D+00 0.00000000D+00 0.00000000D+00
  <mgrwgt>
 0.5737228047D+00   11    2    0
 0.205571695201100D+03 0.000000000000000D+00 0.000000000000000D+00 0.205571695201100D+03
 0.205571695201100D+03 0.000000000000000D+00 0.000000000000000D+00 -.205571695201100D+03
 0.216708666218281D+03 0.115920008817181D+03 0.612937821080006D+02 -.118925480216932D+03
 0.194434724183919D+03 -.115920008817181D+03 -.612937821080006D+02 0.118925480216932D+03
 0.000000000000000D+00 -.000000000000000D+00 0.000000000000000D+00 0.000000000000000D+00
 0.207546511121408D+03 0.000000000000000D+00 0.000000000000000D+00 0.207546511121408D+03
 0.207452264575164D+03 0.000000000000000D+00 0.000000000000000D+00 -.207452264575164D+03
 0.216603674904902D+03 0.116693684454117D+03 0.594261402583364D+02 -.118925480216932D+03
 0.194557613277034D+03 -.115225466183873D+03 -.629703980261108D+02 0.118925480216932D+03
 0.383748751463569D+01 -.146821827024349D+01 0.354425776777440D+01 0.942465462434408D-01
0.629767232661D-03 0.000000000000D+00 0.000000000000D+00 0.146197325313D-02 0.000000000000D+00  5 2 -1 25 24 21 0 0.12600521D+00 0.79380062D-02 0.28053643D+05 0.28053643D+05 0.28053643D+05 0.12179678D+01  1  2  2  1  5  1        2 0.211958208489D+00 0.100000000000D+01
-.332018361790D-04 0.000000000000D+00 -.241847199494D-05 0.146197325313D-02 0.000000000000D+00  5 2 -1 25 24 21 2 0.12600521D+00 0.79380062D-02 0.28053643D+05 0.28053643D+05 0.28053643D+05 0.12179678D+01  1  2  3  1  5  1        2 -.165769233036D-01 0.100000000000D+01
0.431305640921D-04 0.000000000000D+00 0.000000000000D+00 0.146197325313D-02 0.000000000000D+00  5 2 -1 25 24 21 2 0.12600521D+00 0.79380062D-02 0.28053643D+05 0.28053643D+05 0.28053643D+05 0.12179678D+01  1  2 15  1  5  1        2 0.215341118226D-01 0.100000000000D+01
0.269269809199D-04 0.000000000000D+00 0.000000000000D+00 0.146197325313D-02 0.000000000000D+00  5 2 -1 25 24 21 2 0.12778663D+00 0.79380062D-02 0.28704910D+05 0.28704910D+05 0.28704910D+05 0.12169150D+01  1  2 12  1  5  1        2 0.131875276086D-01 0.100000000000D+01
-.495078214591D-02 0.000000000000D+00 0.000000000000D+00 0.146197325313D-02 0.000000000000D+00  5 2 -1 25 24 21 2 0.12600521D+00 0.79380062D-02 0.28053643D+05 0.28053643D+05 0.28053643D+05 0.12179678D+01  1  2  4  1  5  1        2 -.247181316970D+01 0.100000000000D+01
-.419285332023D-01 0.000000000000D+00 -.516247217920D-02 0.146197325313D-02 0.000000000000D+00  5 2 -1 25 24 21 2 0.12811098D+00 0.79380062D-02 0.28053643D+05 0.28053643D+05 0.28053643D+05 0.12179678D+01  1  2  5  1  5  1        2 -.204977133467D+02 0.100000000000D+01
0.420090335637D-01 0.000000000000D+00 0.516176322782D-02 0.146197325313D-02 0.000000000000D+00  5 2 -1 25 24 21 2 0.12600521D+00 0.79380062D-02 0.28053643D+05 0.28053643D+05 0.28053643D+05 0.12179678D+01  1  2  6  1  5  1        2 0.209741570825D+02 0.100000000000D+01
0.493069073557D-02 0.000000000000D+00 0.000000000000D+00 0.146197325313D-02 0.784661451541D-03  5 2 -1 25 24 21 2 0.12721567D+00 0.80106231D-02 0.28704910D+05 0.28704910D+05 0.28704910D+05 0.12169150D+01  1  2 11  1  5  1        2 0.239530591807D+01 0.100000000000D+01
0.141757772149D-05 0.000000000000D+00 0.000000000000D+00 0.146197325313D-02 0.000000000000D+00  5 21 -1 25 24 -2 2 0.12778663D+00 0.79380062D-02 0.28704910D+05 0.28704910D+05 0.28704910D+05 0.12169150D+01  1  2 12  3  5  1        2 0.740311651065D-03 0.100000000000D+01
-.126595101037D-03 0.000000000000D+00 -.156512135836D-04 0.146197325313D-02 0.000000000000D+00  5 21 -1 25 24 -2 2 0.12811098D+00 0.79380062D-02 0.28053643D+05 0.28053643D+05 0.28053643D+05 0.12179678D+01  1  2  5  3  5  1        2 -.658507729868D-01 0.100000000000D+01
0.168828194806D-04 0.000000000000D+00 0.000000000000D+00 0.146197325313D-02 0.139236959222D-05  5 21 -1 25 24 -2 2 0.12721567D+00 0.80106231D-02 0.28704910D+05 0.28704910D+05 0.28704910D+05 0.12169150D+01  1  2 11  3  5  1        2 0.879385722964D-02 0.100000000000D+01
  </mgrwgt>
  </event>
  <event>
  4     66 0.48098993E-03 0.20991257E+03 0.75467711E-02 0.10139813E+00
        2 -1    0    0  501    0 0.00000000E+00 0.00000000E+00 0.13447492E+04 0.13447492E+04 0.32000000E+00 0.0000E+00 0.9000E+01
       -1 -1    0    0    0  501 0.00000000E+00 0.00000000E+00 -.50045804E+02 0.50046827E+02 0.32000000E+00 0.0000E+00 0.9000E+01
       25  1    1    2    0    0 0.54204682E+02 -.17377568E+03 0.10787994E+04 0.11011673E+04 0.12500000E+03 0.0000E+00 0.9000E+01
       24  1    1    2    0    0 -.54204682E+02 0.17377568E+03 0.21590396E+03 0.29362880E+03 0.80419002E+02 0.0000E+00 0.9000E+01
#aMCatNLO 1  0  0  1  2 0.43345463D+03 0.00000000D+00  -5  5  0 0.00000000D+00 0.00000000D+00 0.00000000D+00 0.00000000D+00 0.00000000D+00
  <mgrwgt>
 0.3825000913D+00    5    2    0
 0.259422040034936D+03 0.000000000000000D+00 0.000000000000000D+00 0.259422040034936D+03
 0.259422040034936D+03 0.000000000000000D+00 0.000000000000000D+00 -.259422040034936D+03
 0.268247219310757D+03 0.542046822363907D+02 -.173775677379173D+03 0.152300482740583D+03
 0.250596860759116D+03 -.542046822363907D+02 0.173775677379173D+03 -.152300482740583D+03
 0.000000000000000D+00 -.000000000000000D+00 0.000000000000000D+00 0.000000000000000D+00
 0.846279752876766D+03 0.000000000000000D+00 0.000000000000000D+00 0.846279752876766D+03
 0.430457545549045D+03 0.000000000000000D+00 0.000000000000000D+00 -.430457545549045D+03
 0.499581397264917D+03 0.927088602089615D+02 -.449628961132296D+03 0.152300482740583D+03
 0.176497073473285D+03 -.327872715021699D+02 0.203361445385310D+02 -.152300482740583D+03
 0.600658827687609D+03 -.599215887067917D+02 0.429292816593765D+03 0.415822207327722D+03
0.216477712453D-02 0.000000000000D+00 0.000000000000D+00 0.136311444448D-02 0.000000000000D+00  5 2 -1 25 24 21 0 0.20688458D+00 0.76994360D-02 0.44063286D+05 0.44063286D+05 0.44063286D+05 0.11977567D+01  1  2  2  1  5  1        2 0.373535428059D+00 0.100000000000D+01
-.113708004637D-03 0.000000000000D+00 -.831331415710D-05 0.136311444448D-02 0.000000000000D+00  5 2 -1 25 24 21 2 0.20688458D+00 0.76994360D-02 0.44063286D+05 0.44063286D+05 0.44063286D+05 0.11977567D+01  1  2  3  1  5  1        2 -.281479565019D-01 0.100000000000D+01
0.148664207897D-03 0.000000000000D+00 0.000000000000D+00 0.136311444448D-02 0.000000000000D+00  5 2 -1 25 24 21 2 0.20688458D+00 0.76994360D-02 0.44063286D+05 0.44063286D+05 0.44063286D+05 0.11977567D+01  1  2 15  1  5  1        2 0.368012231912D-01 0.100000000000D+01
0.201100310250D-03 0.000000000000D+00 -.703637911935D-03 0.136311444448D-02 0.000000000000D+00  5 2 -1 25 24 21 2 0.72934963D+00 0.76994360D-02 0.44063286D+05 0.44063286D+05 0.44063286D+05 0.11977567D+01  1  2  5  1  5  1        2 0.309878512718D-03 0.100000000000D+01
0.514536550863D-04 0.000000000000D+00 -.103846912945D-03 0.136311444448D-02 0.000000000000D+00  5 21 -1 25 24 -2 2 0.72934963D+00 0.76994360D-02 0.44063286D+05 0.44063286D+05 0.44063286D+05 0.11977567D+01  1  2  5  3  5  1        2 0.151802013290D-05 0.100000000000D+01
  </mgrwgt>
  </event>
  <event>
  4     66 0.48098993E-03 0.19712853E+03 0.75467711E-02 0.10745602E+00
        2 -1    0    0  501    0 0.00000000E+00 0.00000000E+00 0.19537075E+04 0.19537075E+04 0.32000000E+00 0.0000E+00 0.9000E+01
       -1 -1    0    0    0  501 0.00000000E+00 0.00000000E+00 -.19888972E+02 0.19891546E+02 0.32000000E+00 0.0000E+00 0.9000E+01
       25  1    1    2    0    0 0.10403649E+03 0.13086192E+03 0.10220021E+04 0.10431020E+04 0.12500000E+03 0.0000E+00 0.9000E+01
       24  1    1    2    0    0 -.10403649E+03 -.13086192E+03 0.91181640E+03 0.93049707E+03 0.80419002E+02 0.0000E+00 0.9000E+01
#aMCatNLO 1  0  0  2  2 0.20183706D+03 0.00000000D+00  -5  5  0 0.00000000D+00 0.00000000D+00 0.00000000D+00 0.00000000D+00 0.00000000D+00
  <mgrwgt>
 0.3183739191D+00    5    2    0
 0.197128890463260D+03 0.000000000000000D+00 0.000000000000000D+00 0.197128890463260D+03
 0.197128890463260D+03 0.000000000000000D+00 0.000000000000000D+00 -.197128890463260D+03
 0.208742845201335D+03 0.104036493711872D+03 0.130861924874056D+03 -.374188649294802D+00
 0.185514935725184D+03 -.104036493711872D+03 -.130861924874056D+03 0.374188649294802D+00
 0.000000000000000D+00 -.000000000000000D+00 -.000000000000000D+00 -.000000000000000D+00
 0.266526300717141D+03 0.000000000000000D+00 0.000000000000000D+00 0.266526300717141D+03
 0.447447894794083D+03 0.000000000000000D+00 0.000000000000000D+00 -.447447894794083D+03
 0.320024314919693D+03 0.187284548881555D+03 0.227409146414357D+03 -.374188649294802D+00
 0.122894862306873D+03 -.554810655049335D+02 -.745495981233075D+02 0.374188649294802D+00
 0.271055018284658D+03 -.131803483376621D+03 -.152859548291049D+03 -.180921594076942D+03
0.997910382449D-03 0.000000000000D+00 0.000000000000D+00 0.217246711068D-02 0.000000000000D+00  5 2 -1 25 24 21 0 0.30057058D+00 0.30600419D-02 0.38859659D+05 0.38859659D+05 0.38859659D+05 0.12032779D+01  1  2  2  2  5  2       -1 0.327052671913D+00 0.100000000000D+01
-.554394656914D-04 0.000000000000D+00 -.383223862444D-05 0.217246711068D-02 0.000000000000D+00  5 2 -1 25 24 21 2 0.30057058D+00 0.30600419D-02 0.38859659D+05 0.38859659D+05 0.38859659D+05 0.12032779D+01  1  2  3  2  5  2       -1 -.263073492599D-01 0.100000000000D+01
0.689930641930D-04 0.000000000000D+00 0.000000000000D+00 0.217246711068D-02 0.000000000000D+00  5 2 -1 25 24 21 2 0.30057058D+00 0.30600419D-02 0.38859659D+05 0.38859659D+05 0.38859659D+05 0.12032779D+01  1  2 15  2  5  2       -1 0.327388551387D-01 0.100000000000D+01
-.123125563100D-03 0.000000000000D+00 -.308360367087D-03 0.217246711068D-02 0.000000000000D+00  5 2 -1 25 24 21 2 0.30057058D+00 0.10030181D-01 0.38859659D+05 0.38859659D+05 0.38859659D+05 0.12032779D+01  1  2  5  2  5  2       -1 -.983322661889D-02 0.100000000000D+01
-.444280412119D-05 0.000000000000D+00 -.423431635384D-04 0.217246711068D-02 0.000000000000D+00  5 2 21 25 24 1 2 0.30057058D+00 0.10030181D-01 0.38859659D+05 0.38859659D+05 0.38859659D+05 0.12032779D+01  1  2  5  4  5  2       -1 -.527703208451D-02 0.100000000000D+01
  </mgrwgt>
  </event>
  <event>
  5     66 0.48098993E-03 0.11337396E+03 0.75467711E-02 0.12134294E+00
        2 -1    0    0  501    0 0.00000000E+00 0.00000000E+00 0.40320021E+03 0.40320034E+03 0.32000000E+00 0.0000E+00 0.9000E+01
       21 -1    0    0  502  501 0.00000000E+00 0.00000000E+00 -.50975598E+02 0.50981115E+02 0.75000000E+00 0.0000E+00 0.9000E+01
       25  1    1    2    0    0 0.24326162E+02 0.59940677E+02 0.22649593E+03 0.26666469E+03 0.12500000E+03 0.0000E+00 0.9000E+01
       24  1    1    2    0    0 -.40003534E+02 -.14432835E+02 0.80841779E+02 0.12170127E+03 0.80419002E+02 0.0000E+00 0.9000E+01
        1  1    1    2  502    0 0.15677372E+02 -.45507842E+02 0.44886902E+02 0.65815500E+02 0.32000000E+00 0.0000E+00 0.9000E+01
#aMCatNLO 2  0  0  2  1 0.48132564D+02 0.00000000D+00  -5  5  0 0.00000000D+00 0.00000000D+00 0.00000000D+00 0.00000000D+00 0.00000000D+00
  <mgrwgt>
 0.5577790812D-01    2    2    0
 0.116248549607392D+03 0.000000000000000D+00 0.000000000000000D+00 0.116248549607392D+03
 0.116248549607392D+03 0.000000000000000D+00 0.000000000000000D+00 -.116248549607392D+03
 0.135942954562461D+03 0.336322072945625D+02 0.329273459272902D+02 0.253012137624150D+02
 0.965541446523235D+02 -.336322072945625D+02 -.329273459272902D+02 -.253012137624150D+02
 0.000000000000000D+00 0.000000000000000D+00 -.000000000000000D+00 -.000000000000000D+00
 0.137603117822638D+03 0.000000000000000D+00 0.000000000000000D+00 0.137603117822638D+03
 0.149375279233084D+03 0.000000000000000D+00 0.000000000000000D+00 -.149375279233084D+03
 0.143002791372312D+03 0.243261618585568D+02 0.599406771037242D+02 0.253012137624150D+02
 0.944243444919032D+02 -.400035340603469D+02 -.144328348977714D+02 -.253012137624150D+02
 0.495512611915070D+02 0.156773722017901D+02 -.455078422059529D+02 -.117721614104455D+02
-.295174143437D-05 0.000000000000D+00 0.000000000000D+00 0.274351740997D-02 0.000000000000D+00  5 2 21 25 24 1 2 0.52404445D-01 0.82715780D-02 0.19579113D+05 0.19579113D+05 0.19579113D+05 0.12348443D+01  1  2 13  4  5  2       -1 -.597716319948D-01 0.100000000000D+01
0.622963729711D-05 0.000000000000D+00 0.000000000000D+00 0.274351740997D-02 0.427347800575D-06  5 2 21 25 24 1 2 0.62031011D-01 0.78428053D-02 0.19579113D+05 0.19579113D+05 0.19579113D+05 0.12348443D+01  1  2  1  4  5  2       -1 0.115549540115D+00 0.100000000000D+01
  </mgrwgt>
  </event>
  <event>
  4     66 0.48098993E-03 0.39231942E+02 0.75467711E-02 0.12559755E+00
        2 -1    0    0  501    0 0.00000000E+00 0.00000000E+00 0.16736916E+04 0.16736916E+04 0.32000000E+00 0.0000E+00 0.9000E+01
       -1 -1    0    0    0  501 0.00000000E+00 0.00000000E+00 -.66525610E+01 0.66602528E+01 0.32000000E+00 0.0000E+00 0.9000E+01
       25  1    1    2    0    0 -.66928162E+01 0.22333410E+02 0.10418226E+04 0.10495537E+04 0.12500000E+03 0.0000E+00 0.9000E+01
       24  1    1    2    0    0 0.66928162E+01 -.22333410E+02 0.62521643E+03 0.63079820E+03 0.80419002E+02 0.0000E+00 0.9000E+01
#aMCatNLO 1  0  0  1  2 0.13705076D+02 0.00000000D+00  -5  5  0 0.00000000D+00 0.00000000D+00 0.00000000D+00 0.00000000D+00 0.00000000D+00
  <mgrwgt>
 0.6825509463D+00    9    2    0
 0.105550099085335D+03 0.000000000000000D+00 0.000000000000000D+00 0.105550099085335D+03
 0.105550099085335D+03 0.000000000000000D+00 0.000000000000000D+00 -.105550099085335D+03
 0.127240708864454D+03 -.669281616464540D+01 0.223334098398157D+02 0.465005473537145D+01
 0.838594893062162D+02 0.669281616464540D+01 -.223334098398157D+02 -.465005473537145D+01
 0.000000000000000D+00 -.000000000000000D+00 0.000000000000000D+00 0.000000000000000D+00
 0.115931944679523D+03 0.000000000000000D+00 0.000000000000000D+00 0.115931944679523D+03
 0.110394249683984D+03 0.000000000000000D+00 0.000000000000000D+00 -.110394249683984D+03
 0.126097031432826D+03 -.165258494197485D+01 0.158463652027439D+02 0.465005473537145D+01
 0.854475803744685D+02 0.100612316949256D+02 -.266687391006736D+02 -.465005473537145D+01
 0.147815825562121D+02 -.840864675295072D+01 0.108223738979297D+02 0.553769499553865D+01
0.126482263632D-03 0.000000000000D+00 0.000000000000D+00 0.313975204878D-02 0.000000000000D+00  5 2 -1 25 24 21 0 0.25749161D+00 0.10240650D-02 0.11118245D+05 0.11118245D+05 0.11118245D+05 0.12629273D+01  1  2  2  1  5  1        2 0.274419539441D+00 0.100000000000D+01
-.702678363350D-05 0.000000000000D+00 -.485725195891D-06 0.313975204878D-02 0.000000000000D+00  5 2 -1 25 24 21 2 0.25749161D+00 0.10240650D-02 0.11118245D+05 0.11118245D+05 0.11118245D+05 0.12629273D+01  1  2  3  1  5  1        2 -.243163674128D-01 0.100000000000D+01
0.878237320827D-05 0.000000000000D+00 0.000000000000D+00 0.313975204878D-02 0.000000000000D+00  5 2 -1 25 24 21 2 0.25749161D+00 0.10240650D-02 0.11118245D+05 0.11118245D+05 0.11118245D+05 0.12629273D+01  1  2 15  1  5  1        2 0.303916307699D-01 0.100000000000D+01
0.240060829309D-03 0.000000000000D+00 0.000000000000D+00 0.313975204878D-02 0.000000000000D+00  5 2 -1 25 24 21 2 0.28828616D+00 0.10240650D-02 0.12660446D+05 0.12660446D+05 0.12660446D+05 0.12563063D+01  1  2 12  1  5  1        2 0.653474687947D+00 0.100000000000D+01
-.228238825283D-03 0.000000000000D+00 0.000000000000D+00 0.313975204878D-02 0.000000000000D+00  5 2 -1 25 24 21 2 0.25749161D+00 0.10240650D-02 0.11118245D+05 0.11118245D+05 0.11118245D+05 0.12629273D+01  1  2  4  1  5  1        2 -.789826387567D+00 0.100000000000D+01
-.690403257783D-03 0.000000000000D+00 -.133729542647D-03 0.313975204878D-02 0.000000000000D+00  5 2 -1 25 24 21 2 0.28898324D+00 0.10240650D-02 0.11118245D+05 0.11118245D+05 0.11118245D+05 0.12629273D+01  1  2  5  1  5  1        2 -.188278082093D+01 0.100000000000D+01
0.702040151487D-03 0.000000000000D+00 0.132844289368D-03 0.313975204878D-02 0.000000000000D+00  5 2 -1 25 24 21 2 0.25749161D+00 0.10240650D-02 0.11118245D+05 0.11118245D+05 0.11118245D+05 0.12629273D+01  1  2  6  1  5  1        2 0.242942819254D+01 0.100000000000D+01
0.432826992888D-05 0.000000000000D+00 0.000000000000D+00 0.313975204878D-02 0.000000000000D+00  5 21 -1 25 24 -2 2 0.28828616D+00 0.10240650D-02 0.12660446D+05 0.12660446D+05 0.12660446D+05 0.12563063D+01  1  2 12  3  5  1        2 0.453355524352D-02 0.100000000000D+01
-.120976936635D-04 0.000000000000D+00 -.245473746906D-05 0.313975204878D-02 0.000000000000D+00  5 21 -1 25 24 -2 2 0.28898324D+00 0.10240650D-02 0.11118245D+05 0.11118245D+05 0.11118245D+05 0.12629273D+01  1  2  5  3  5  1        2 -.127730837428D-01 0.100000000000D+01
  </mgrwgt>
  </event>
  <event>
  4     66 0.48098993E-03 0.68157642E+02 0.75467711E-02 0.11601945E+00
        2 -1    0    0  501    0 0.00000000E+00 0.00000000E+00 0.88931749E+03 0.88931755E+03 0.32000000E+00 0.0000E+00 0.9000E+01
       -1 -1    0    0    0  501 0.00000000E+00 0.00000000E+00 -.37225248E+02 0.37226623E+02 0.32000000E+00 0.0000E+00 0.9000E+01
       25  1    1    2    0    0 -.35152496E+02 0.14472108E+03 0.47121754E+03 0.50975568E+03 0.12500000E+03 0.0000E+00 0.9000E+01
       24  1    1    2    0    0 0.35152496E+02 -.14472108E+03 0.38087471E+03 0.41678849E+03 0.80419002E+02 0.0000E+00 0.9000E+01
#aMCatNLO 1  0  0  2  1 0.12284985D+02 0.00000000D+00  -5  5  0 0.00000000D+00 0.00000000D+00 0.00000000D+00 0.00000000D+00 0.00000000D+00
  <mgrwgt>
 0.2645309469D+00    9    2    0
 0.181949795090492D+03 0.000000000000000D+00 0.000000000000000D+00 0.181949795090492D+03
 0.181949795090492D+03 0.000000000000000D+00 0.000000000000000D+00 -.181949795090492D+03
 0.194532639771733D+03 -.351524955625321D+02 0.144721076282539D+03 0.616928455401687D+01
 0.169366950409250D+03 0.351524955625321D+02 -.144721076282539D+03 -.616928455401687D+01
 0.000000000000000D+00 0.000000000000000D+00 0.000000000000000D+00 -.000000000000000D+00
 0.182988410832017D+03 0.000000000000000D+00 0.000000000000000D+00 0.182988410832017D+03
 0.222408252421235D+03 0.000000000000000D+00 0.000000000000000D+00 -.222408252421235D+03
 0.193006983223295D+03 -.406589046149560D+02 0.141193091107748D+03 0.616928455401687D+01
 0.171099913995315D+03 0.303149261555151D+02 -.147820532386780D+03 -.616928455401687D+01
 0.412897660346418D+02 0.103439784594409D+02 0.662744127903125D+01 -.394198415892184D+02
0.615058536875D-03 0.000000000000D+00 0.000000000000D+00 0.222367885378D-02 0.000000000000D+00  5 2 -1 25 24 21 0 0.13681819D+00 0.57270714D-02 0.33067485D+05 0.33067485D+05 0.33067485D+05 0.12104859D+01  1  2  2  2  5  2       -1 0.305148703409D+00 0.100000000000D+01
-.341699048391D-04 0.000000000000D+00 -.236198673023D-05 0.222367885378D-02 0.000000000000D+00  5 2 -1 25 24 21 2 0.13681819D+00 0.57270714D-02 0.33067485D+05 0.33067485D+05 0.33067485D+05 0.12104859D+01  1  2  3  2  5  2       -1 -.248403828301D-01 0.100000000000D+01
0.424330889552D-04 0.000000000000D+00 0.000000000000D+00 0.222367885378D-02 0.000000000000D+00  5 2 -1 25 24 21 2 0.13681819D+00 0.57270714D-02 0.33067485D+05 0.33067485D+05 0.33067485D+05 0.12104859D+01  1  2 15  2  5  2       -1 0.308474424870D-01 0.100000000000D+01
0.746075807657D-02 0.000000000000D+00 0.000000000000D+00 0.222367885378D-02 0.000000000000D+00  5 2 -1 25 24 21 2 0.13681819D+00 0.70145008D-02 0.35378225D+05 0.35378225D+05 0.35378225D+05 0.12074532D+01  1  2 12  2  5  2       -1 0.398155730133D+01 0.100000000000D+01
-.739726716868D-02 0.000000000000D+00 0.000000000000D+00 0.222367885378D-02 0.000000000000D+00  5 2 -1 25 24 21 2 0.13681819D+00 0.57270714D-02 0.33067485D+05 0.33067485D+05 0.33067485D+05 0.12104859D+01  1  2  4  2  5  2       -1 -.537756687446D+01 0.100000000000D+01
-.837109329056D-02 0.000000000000D+00 -.404345836825D-03 0.222367885378D-02 0.000000000000D+00  5 2 -1 25 24 21 2 0.13681819D+00 0.70330682D-02 0.33067485D+05 0.33067485D+05 0.33067485D+05 0.12104859D+01  1  2  5  2  5  2       -1 -.446801063344D+01 0.100000000000D+01
0.828707709519D-02 0.000000000000D+00 0.395962237005D-03 0.222367885378D-02 0.000000000000D+00  5 2 -1 25 24 21 2 0.13681819D+00 0.57270714D-02 0.33067485D+05 0.33067485D+05 0.33067485D+05 0.12104859D+01  1  2  6  2  5  2       -1 0.602442905698D+01 0.100000000000D+01
0.215768789934D-03 0.000000000000D+00 0.000000000000D+00 0.222367885378D-02 0.000000000000D+00  5 2 21 25 24 1 2 0.13681819D+00 0.70145008D-02 0.35378225D+05 0.35378225D+05 0.35378225D+05 0.12074532D+01  1  2 12  4  5  2       -1 0.185678447541D+01 0.100000000000D+01
-.239628662081D-03 0.000000000000D+00 -.118101821518D-04 0.222367885378D-02 0.000000000000D+00  5 2 21 25 24 1 2 0.13681819D+00 0.70330682D-02 0.33067485D+05 0.33067485D+05 0.33067485D+05 0.12104859D+01  1  2  5  4  5  2       -1 -.206381814197D+01 0.100000000000D+01
  </mgrwgt>
  </event>
  <event>
  4     66 0.48098993E-03 0.84032250E+02 0.75467711E-02 0.11376020E+00
        2 -1    0    0  501    0 0.00000000E+00 0.00000000E+00 0.40664291E+04 0.40664291E+04 0.32000000E+00 0.0000E+00 0.9000E+01
       -1 -1    0    0    0  501 0.00000000E+00 0.00000000E+00 -.82698426E+01 0.82760314E+01 0.32000000E+00 0.0000E+00 0.9000E+01
       25  1    1    2    0    0 0.10499269E+03 -.10758047E+03 0.23050299E+04 0.23133061E+04 0.12500000E+03 0.0000E+00 0.9000E+01
       24  1    1    2    0    0 -.10499269E+03 0.10758047E+03 0.17531293E+04 0.17613991E+04 0.80419002E+02 0.0000E+00 0.9000E+01
#aMCatNLO 1  0  0  2  1 0.59391379D+02 0.00000000D+00  -5  5  0 0.00000000D+00 0.00000000D+00 0.00000000D+00 0.00000000D+00 0.00000000D+00
  <mgrwgt>
 0.3937135576D+00    9    2    0
 0.183415819996281D+03 0.000000000000000D+00 0.000000000000000D+00 0.183415819996281D+03
 0.183415819996281D+03 0.000000000000000D+00 0.000000000000000D+00 -.183415819996281D+03
 0.195898091217236D+03 0.104992688459068D+03 -.107580472062189D+03 0.124112667995762D+02
 0.170933548775327D+03 -.104992688459068D+03 0.107580472062189D+03 -.124112667995762D+02
 0.000000000000000D+00 0.000000000000000D+00 -.000000000000000D+00 -.000000000000000D+00
 0.215470342271633D+03 0.000000000000000D+00 0.000000000000000D+00 0.215470342271633D+03
 0.215529446583159D+03 0.000000000000000D+00 0.000000000000000D+00 -.215529446583159D+03
 0.177685636307081D+03 0.758707059146382D+02 -.100183740149269D+03 0.124112667995762D+02
 0.193922743653298D+03 -.133434341016432D+03 0.114804406037366D+03 -.124112667995762D+02
 0.593914088944135D+02 0.575636351017935D+02 -.146206658880966D+02 -.591043115262307D-01
0.405861587048D-02 0.000000000000D+00 0.000000000000D+00 0.221065302045D-02 0.000000000000D+00  5 2 -1 25 24 21 0 0.62560495D+00 0.12727605D-02 0.33486603D+05 0.33486603D+05 0.33486603D+05 0.12099186D+01  1  2  2  2  5  2       -1 0.250815354099D+00 0.100000000000D+01
-.225477202346D-03 0.000000000000D+00 -.155861536008D-04 0.221065302045D-02 0.000000000000D+00  5 2 -1 25 24 21 2 0.62560495D+00 0.12727605D-02 0.33486603D+05 0.33486603D+05 0.33486603D+05 0.12099186D+01  1  2  3  2  5  2       -1 -.203981654096D-01 0.100000000000D+01
0.280076684730D-03 0.000000000000D+00 0.000000000000D+00 0.221065302045D-02 0.000000000000D+00  5 2 -1 25 24 21 2 0.62560495D+00 0.12727605D-02 0.33486603D+05 0.33486603D+05 0.33486603D+05 0.12099186D+01  1  2 15  2  5  2       -1 0.253375972517D-01 0.100000000000D+01
0.119731043425D-02 0.000000000000D+00 0.000000000000D+00 0.221065302045D-02 0.000000000000D+00  5 2 -1 25 24 21 2 0.62560495D+00 0.15887737D-02 0.46261169D+05 0.46261169D+05 0.46261169D+05 0.11956391D+01  1  2 12  2  5  2       -1 0.757647378314D-01 0.100000000000D+01
-.107955330002D-02 0.000000000000D+00 0.000000000000D+00 0.221065302045D-02 0.000000000000D+00  5 2 -1 25 24 21 2 0.62560495D+00 0.12727605D-02 0.33486603D+05 0.33486603D+05 0.33486603D+05 0.12099186D+01  1  2  4  2  5  2       -1 -.976635622275D-01 0.100000000000D+01
-.144857858778D-02 0.000000000000D+00 -.127918372513D-02 0.221065302045D-02 0.000000000000D+00  5 2 -1 25 24 21 2 0.62560495D+00 0.23226889D-02 0.33486603D+05 0.33486603D+05 0.33486603D+05 0.12099186D+01  1  2  5  2  5  2       -1 -.548038499837D-01 0.100000000000D+01
0.203892592915D-02 0.000000000000D+00 0.107816485397D-02 0.221065302045D-02 0.000000000000D+00  5 2 -1 25 24 21 2 0.62560495D+00 0.12727605D-02 0.33486603D+05 0.33486603D+05 0.33486603D+05 0.12099186D+01  1  2  6  2  5  2       -1 0.184454782692D+00 0.100000000000D+01
0.370614666307D-04 0.000000000000D+00 0.000000000000D+00 0.221065302045D-02 0.000000000000D+00  5 2 21 25 24 1 2 0.62560495D+00 0.15887737D-02 0.46261169D+05 0.46261169D+05 0.46261169D+05 0.11956391D+01  1  2 12  4  5  2       -1 0.498471384114D-01 0.100000000000D+01
-.259019009366D-04 0.000000000000D+00 -.841488893529D-04 0.221065302045D-02 0.000000000000D+00  5 2 21 25 24 1 2 0.62560495D+00 0.23226889D-02 0.33486603D+05 0.33486603D+05 0.33486603D+05 0.12099186D+01  1  2  5  4  5  2       -1 -.196404751011D-01 0.100000000000D+01
  </mgrwgt>
  </event>
  <event>
  4     66 0.48098993E-03 0.22831132E+03 0.75467711E-02 0.10120479E+00
        2 -1    0    0  501    0 0.00000000E+00 0.00000000E+00 0.47894409E+03 0.47894419E+03 0.32000000E+00 0.0000E+00 0.9000E+01
       -1 -1    0    0    0  501 0.00000000E+00 0.00000000E+00 -.22988477E+03 0.22988500E+03 0.32000000E+00 0.0000E+00 0.9000E+01
       25  1    1    2    0    0 0.30317554E+02 -.30628940E+03 0.56501188E+02 0.33697142E+03 0.12500000E+03 0.0000E+00 0.9000E+01
       24  1    1    2    0    0 -.30317554E+02 0.30628940E+03 0.19255812E+03 0.37185777E+03 0.80419002E+02 0.0000E+00 0.9000E+01
#aMCatNLO 1  0  0  1  2 0.29950746D+03 0.00000000D+00  -5  5  0 0.00000000D+00 0.00000000D+00 0.00000000D+00 0.00000000D+00 0.00000000D+00
  <mgrwgt>
 0.4011789093D+00    7    2    0
 0.331816319221891D+03 0.000000000000000D+00 0.000000000000000D+00 0.331816319221891D+03
 0.331816319221891D+03 0.000000000000000D+00 0.000000000000000D+00 -.331816319221891D+03
 0.338716058260574D+03 0.303175544003427D+02 -.306289404748194D+03 -.661151613305146D+02
 0.324916580183208D+03 -.303175544003427D+02 0.306289404748194D+03 0.661151613305146D+02
 0.000000000000000D+00 0.000000000000000D+00 0.000000000000000D+00 0.000000000000000D+00
 0.824422446753124D+03 0.000000000000000D+00 0.000000000000000D+00 0.824422446753124D+03
 0.412756814130359D+03 0.000000000000000D+00 0.000000000000000D+00 -.412756814130359D+03
 0.501046486348356D+03 -.183825038566173D+02 -.480326399936788D+03 -.661151613305146D+02
 0.227042104467031D+03 -.623271031358364D+02 0.191898459877568D+03 0.661151613305146D+02
 0.509090670068096D+03 0.807096069924537D+02 0.288427940059220D+03 0.411665632622766D+03
0.858659280680D-02 0.000000000000D+00 0.000000000000D+00 0.191045450527D-02 0.000000000000D+00  5 2 -1 25 24 21 0 0.73683731D-01 0.35366914D-01 0.10572889D+06 0.10572889D+06 0.10572889D+06 0.11613557D+01  1  2  2  1  5  1        2 0.491942211512D+00 0.100000000000D+01
-.476794747444D-03 0.000000000000D+00 -.329747772799D-04 0.191045450527D-02 0.000000000000D+00  5 2 -1 25 24 21 2 0.73683731D-01 0.35366914D-01 0.10572889D+06 0.10572889D+06 0.10572889D+06 0.11613557D+01  1  2  3  1  5  1        2 -.368430174035D-01 0.100000000000D+01
0.588551266020D-03 0.000000000000D+00 0.000000000000D+00 0.191045450527D-02 0.000000000000D+00  5 2 -1 25 24 21 2 0.73683731D-01 0.35366914D-01 0.10572889D+06 0.10572889D+06 0.10572889D+06 0.11613557D+01  1  2 15  1  5  1        2 0.454786984401D-01 0.100000000000D+01
0.711577859118D-04 0.000000000000D+00 0.000000000000D+00 0.191045450527D-02 0.000000000000D+00  5 2 -1 25 24 21 2 0.17936720D+00 0.35366914D-01 0.25673230D+06 0.25673230D+06 0.25673230D+06 0.11277309D+01  1  2 12  1  5  1        2 0.161560061867D-02 0.100000000000D+01
-.490178934647D-02 0.000000000000D+00 -.300824998546D-02 0.191045450527D-02 0.000000000000D+00  5 2 -1 25 24 21 2 0.20554457D+00 0.35366914D-01 0.10572889D+06 0.10572889D+06 0.10572889D+06 0.11613557D+01  1  2  5  1  5  1        2 -.968599566988D-01 0.100000000000D+01
0.694019076868D-05 0.000000000000D+00 0.000000000000D+00 0.191045450527D-02 0.000000000000D+00  5 21 -1 25 24 -2 2 0.17936720D+00 0.35366914D-01 0.25673230D+06 0.25673230D+06 0.25673230D+06 0.11277309D+01  1  2 12  3  5  1        2 0.986356880471D-04 0.100000000000D+01
-.395670208600D-03 0.000000000000D+00 -.346328830324D-03 0.191045450527D-02 0.000000000000D+00  5 21 -1 25 24 -2 2 0.20554457D+00 0.35366914D-01 0.10572889D+06 0.10572889D+06 0.10572889D+06 0.11613557D+01  1  2  5  3  5  1        2 -.425326289059D-02 0.100000000000D+01
  </mgrwgt>
  </event>
  <event>
  4     66 0.48098993E-03 0.76036981E+02 0.75467711E-02 0.12446689E+00
        2 -1    0    0  501    0 0.00000000E+00 0.00000000E+00 0.27403822E+04 0.27403822E+04 0.32000000E+00 0.0000E+00 0.9000E+01
       -1 -1    0    0    0  501 0.00000000E+00 0.00000000E+00 -.55341336E+01 0.55433775E+01 0.32000000E+00 0.0000E+00 0.9000E+01
       25  1    1    2    0    0 0.57084891E+02 0.14910981E+01 0.11849642E+04 0.11929066E+04 0.12500000E+03 0.0000E+00 0.9000E+01
       24  1    1    2    0    0 -.57084891E+02 -.14910981E+01 0.15498839E+04 0.15530190E+04 0.80419002E+02 0.0000E+00 0.9000E+01
#aMCatNLO 1  0  0  1  2 0.20315366D+01 0.00000000D+00  -5  5  0 0.00000000D+00 0.00000000D+00 0.00000000D+00 0.00000000D+00 0.00000000D+00
  <mgrwgt>
 0.5311217842D+00   11    2    0
 0.123200480494386D+03 0.000000000000000D+00 0.000000000000000D+00 0.123200480494386D+03
 0.123200480494386D+03 0.000000000000000D+00 0.000000000000000D+00 -.123200480494386D+03
 0.141783573695160D+03 0.570848912818586D+02 0.149109806828387D+01 -.348808483793063D+02
 0.104617387293612D+03 -.570848912818586D+02 -.149109806828387D+01 0.348808483793063D+02
 0.000000000000000D+00 0.000000000000000D+00 -.000000000000000D+00 0.000000000000000D+00
 0.137818762963355D+03 0.000000000000000D+00 0.000000000000000D+00 0.137818762963355D+03
 0.123275269910789D+03 0.000000000000000D+00 0.000000000000000D+00 -.123275269910789D+03
 0.141553060829550D+03 0.564748576591583D+02 0.248714674517160D+01 -.348808483793063D+02
 0.104856274864707D+03 -.575358953576326D+02 -.754709128019862D+00 0.348808483793063D+02
 0.146846971798859D+02 0.106103769847427D+01 -.173243761715174D+01 0.145434930525662D+02
0.274251669467D-03 0.000000000000D+00 0.000000000000D+00 0.253508765062D-02 0.000000000000D+00  5 2 -1 25 24 21 0 0.42159797D+00 0.85211768D-03 0.13930758D+05 0.13930758D+05 0.13930758D+05 0.12515006D+01  1  2  2  1  5  1        2 0.217038686186D+00 0.100000000000D+01
-.152021329602D-04 0.000000000000D+00 -.105319862288D-05 0.253508765062D-02 0.000000000000D+00  5 2 -1 25 24 21 2 0.42159797D+00 0.85211768D-03 0.13930758D+05 0.13930758D+05 0.13930758D+05 0.12515006D+01  1  2  3  1  5  1        2 -.188431928229D-01 0.100000000000D+01
0.189916507993D-04 0.000000000000D+00 0.000000000000D+00 0.253508765062D-02 0.000000000000D+00  5 2 -1 25 24 21 2 0.42159797D+00 0.85211768D-03 0.13930758D+05 0.13930758D+05 0.13930758D+05 0.12515006D+01  1  2 15  1  5  1        2 0.235403373311D-01 0.100000000000D+01
0.294578281278D-04 0.000000000000D+00 0.000000000000D+00 0.253508765062D-02 0.000000000000D+00  5 2 -1 25 24 21 2 0.47174151D+00 0.85211768D-03 0.14173416D+05 0.14173416D+05 0.14173416D+05 0.12506387D+01  1  2 12  1  5  1        2 0.238539895614D-01 0.100000000000D+01
-.215361854055D-01 0.000000000000D+00 0.000000000000D+00 0.253508765062D-02 0.000000000000D+00  5 2 -1 25 24 21 2 0.42159797D+00 0.85211768D-03 0.13930758D+05 0.13930758D+05 0.13930758D+05 0.12515006D+01  1  2  4  1  5  1        2 -.266943129183D+02 0.100000000000D+01
-.223953419231D-01 0.000000000000D+00 -.231687195924D-03 0.253508765062D-02 0.000000000000D+00  5 2 -1 25 24 21 2 0.47169403D+00 0.85211768D-03 0.13930758D+05 0.13930758D+05 0.13930758D+05 0.12515006D+01  1  2  5  1  5  1        2 -.181679959885D+02 0.100000000000D+01
0.222822109605D-01 0.000000000000D+00 0.230234453608D-03 0.253508765062D-02 0.000000000000D+00  5 2 -1 25 24 21 2 0.42159797D+00 0.85211768D-03 0.13930758D+05 0.13930758D+05 0.13930758D+05 0.12515006D+01  1  2  6  1  5  1        2 0.276190189066D+02 0.100000000000D+01
0.216446557616D-01 0.000000000000D+00 0.000000000000D+00 0.253508765062D-02 0.515679942227D-02  5 2 -1 25 24 21 2 0.47162244D+00 0.85263496D-03 0.14173416D+05 0.14173416D+05 0.14173416D+05 0.12506387D+01  1  2 11  1  5  1        2 0.175302669882D+02 0.100000000000D+01
0.528775264111D-06 0.000000000000D+00 0.000000000000D+00 0.253508765062D-02 0.000000000000D+00  5 21 -1 25 24 -2 2 0.47174151D+00 0.85211768D-03 0.14173416D+05 0.14173416D+05 0.14173416D+05 0.12506387D+01  1  2 12  3  5  1        2 0.560673084601D-04 0.100000000000D+01
-.400748289511D-03 0.000000000000D+00 -.415567831515D-05 0.253508765062D-02 0.000000000000D+00  5 21 -1 25 24 -2 2 0.47169403D+00 0.85211768D-03 0.13930758D+05 0.13930758D+05 0.13930758D+05 0.12515006D+01  1  2  5  3  5  1        2 -.426622738928D-01 0.100000000000D+01
0.387812917612D-03 0.000000000000D+00 0.000000000000D+00 0.253508765062D-02 0.923590539625D-04  5 21 -1 25 24 -2 2 0.47162244D+00 0.85263496D-03 0.14173416D+05 0.14173416D+05 0.14173416D+05 0.12506387D+01  1  2 11  3  5  1        2 0.411611824898D-01 0.100000000000D+01
  </mgrwgt>
  </event>
  <event>
  4     66 0.48098993E-03 0.10338533E+03 0.75467711E-02 0.12276009E+00
        2 -1    0    0  501    0 0.00000000E+00 0.00000000E+00 0.58338545E+02 0.58339422E+02 0.32000000E+00 0.0000E+00 0.9000E+01
       -1 -1    0    0    0  501 0.00000000E+00 0.00000000E+00 -.20294029E+03 0.20294054E+03 0.32000000E+00 0.0000E+00 0.9000E+01
       25  1    1    2    0    0 0.73740119E+00 0.11500725E+02 -.12616043E+03 0.17797265E+03 0.12500000E+03 0.0000E+00 0.9000E+01
       24  1    1    2    0    0 -.73740119E+00 -.11500725E+02 -.18441316E+02 0.83307314E+02 0.80419002E+02 0.0000E+00 0.9000E+01
#aMCatNLO 1  0  0  1  2 0.47568268D+02 0.00000000D+00  -5  5  0 0.00000000D+00 0.00000000D+00 0.00000000D+00 0.00000000D+00 0.00000000D+00
  <mgrwgt>
 0.2936235975D+00    4    2    0
 0.108808955257948D+03 0.000000000000000D+00 0.000000000000000D+00 0.108808955257948D+03
 0.108808955257948D+03 0.000000000000000D+00 0.000000000000000D+00 -.108808955257948D+03
 0.129849925699948D+03 0.737401193400677D+00 0.115007248653383D+02 -.332143458664143D+02
 0.877679848159485D+02 -.737401193400677D+00 -.115007248653383D+02 0.332143458664143D+02
 0.000000000000000D+00 0.000000000000000D+00 0.000000000000000D+00 -.000000000000000D+00
 0.124797217437593D+03 0.000000000000000D+00 0.000000000000000D+00 0.124797217437593D+03
 0.153533122180619D+03 0.000000000000000D+00 0.000000000000000D+00 -.153533122180619D+03
 0.131428348104450D+03 -.230591942432955D+02 -.367307432279292D+01 -.332143458664143D+02
 0.913277856285535D+02 -.170490123030247D+02 -.219017552173796D+02 0.332143458664143D+02
 0.555742058852076D+02 0.401082065463202D+02 0.255748295401725D+02 -.287359047430263D+02
0.560657951830D-03 0.000000000000D+00 0.000000000000D+00 0.280792685431D-02 0.000000000000D+00  5 2 -1 25 24 21 0 0.89752476D-02 0.31221670D-01 0.10688527D+05 0.10688527D+05 0.10688527D+05 0.12649579D+01  1  2  2  1  5  1        2 0.414909662140D+00 0.100000000000D+01
-.310486565524D-04 0.000000000000D+00 -.215307415965D-05 0.280792685431D-02 0.000000000000D+00  5 2 -1 25 24 21 2 0.89752476D-02 0.31221670D-01 0.10688527D+05 0.10688527D+05 0.10688527D+05 0.12649579D+01  1  2  3  1  5  1        2 -.367663524013D-01 0.100000000000D+01
0.384338153654D-04 0.000000000000D+00 0.000000000000D+00 0.280792685431D-02 0.000000000000D+00  5 2 -1 25 24 21 2 0.89752476D-02 0.31221670D-01 0.10688527D+05 0.10688527D+05 0.10688527D+05 0.12649579D+01  1  2 15  1  5  1        2 0.455115086047D-01 0.100000000000D+01
-.109809498433D-03 0.000000000000D+00 0.000000000000D+00 0.280792685431D-02 0.000000000000D+00  5 2 -1 25 24 21 2 0.89752476D-02 0.31221670D-01 0.10688527D+05 0.10688527D+05 0.10688527D+05 0.12649579D+01  1  2  4  1  5  1        2 -.130031220823D+00 0.100000000000D+01
  </mgrwgt>
  </event>
  <event>
  4     66 0.48098993E-03 0.11280201E+03 0.75467711E-02 0.11940252E+00
        2 -1    0    0  501    0 0.00000000E+00 0.00000000E+00 0.57624691E+02 0.57625580E+02 0.32000000E+00 0.0000E+00 0.9000E+01
       -1 -1    0    0    0  501 0.00000000E+00 0.00000000E+00 -.23356992E+03 0.23357014E+03 0.32000000E+00 0.0000E+00 0.9000E+01
       25  1    1    2    0    0 -.33487908E+01 0.45595010E+02 -.69431486E+02 0.15011945E+03 0.12500000E+03 0.0000E+00 0.9000E+01
       24  1    1    2    0    0 0.33487908E+01 -.45595010E+02 -.10651375E+03 0.14107627E+03 0.80419002E+02 0.0000E+00 0.9000E+01
#aMCatNLO 1  0  0  1  2 0.73664160D+02 0.00000000D+00  -5  5  0 0.00000000D+00 0.00000000D+00 0.00000000D+00 0.00000000D+00 0.00000000D+00
  <mgrwgt>
 0.3774878310D+00    3    2    0
 0.116015326374366D+03 0.000000000000000D+00 0.000000000000000D+00 0.116015326374366D+03
 0.116015326374366D+03 0.000000000000000D+00 0.000000000000000D+00 -.116015326374366D+03
 0.135749322588104D+03 -.334879075283492D+01 0.455950095703504D+02 0.266975520582417D+02
 0.962813301606271D+02 0.334879075283492D+01 -.455950095703504D+02 -.266975520582417D+02
 0.000000000000000D+00 -.000000000000000D+00 -.000000000000000D+00 -.000000000000000D+00
 0.125761574036055D+03 0.000000000000000D+00 0.000000000000000D+00 0.125761574036055D+03
 0.457519864061581D+03 0.000000000000000D+00 0.000000000000000D+00 -.457519864061581D+03
 0.152663607662441D+03 0.259326972323330D+02 0.793467896821625D+02 0.266975520582417D+02
 0.907796757118968D+02 0.223403962650825D+02 -.237040287040655D+02 -.266975520582417D+02
 0.339838154723298D+03 -.482730934974156D+02 -.556427609780970D+02 -.331758290025525D+03
0.619964067747D-03 0.000000000000D+00 0.000000000000D+00 0.273478237730D-02 0.000000000000D+00  5 2 -1 25 24 21 0 0.88654223D-02 0.35933919D-01 0.12724294D+05 0.12724294D+05 0.12724294D+05 0.12560520D+01  1  2  2  1  5  1        2 0.369527839779D+00 0.100000000000D+01
-.344094096287D-04 0.000000000000D+00 -.238082526044D-05 0.273478237730D-02 0.000000000000D+00  5 2 -1 25 24 21 2 0.88654223D-02 0.35933919D-01 0.12724294D+05 0.12724294D+05 0.12724294D+05 0.12560520D+01  1  2  3  1  5  1        2 -.323573621726D-01 0.100000000000D+01
0.428742095767D-04 0.000000000000D+00 0.000000000000D+00 0.273478237730D-02 0.000000000000D+00  5 2 -1 25 24 21 2 0.88654223D-02 0.35933919D-01 0.12724294D+05 0.12724294D+05 0.12724294D+05 0.12560520D+01  1  2 15  1  5  1        2 0.403173533666D-01 0.100000000000D+01
  </mgrwgt>
  </event>
  <event>
  5     66 0.48098993E-03 0.10646274E+03 0.75467711E-02 0.12576298E+00
        2 -1    0    0  501    0 0.00000000E+00 0.00000000E+00 0.13195508E+03 0.13195547E+03 0.32000000E+00 0.0000E+00 0.9000E+01
       -1 -1    0    0    0  502 0.00000000E+00 0.00000000E+00 -.10746956E+03 0.10747003E+03 0.32000000E+00 0.0000E+00 0.9000E+01
       25  1    1    2    0    0 0.18067801E+02 0.15297398E+02 0.47272201E+02 0.13572073E+03 0.12500000E+03 0.0000E+00 0.9000E+01
       24  1    1    2    0    0 -.27695834E+02 -.12580284E+02 -.30309008E+02 0.91165644E+02 0.80419002E+02 0.0000E+00 0.9000E+01
       21  1    1    2  501  502 0.96280332E+01 -.27171138E+01 0.75223332E+01 0.12539128E+02 0.75000000E+00 0.0000E+00 0.9000E+01
#aMCatNLO 2  0  0  2  1 0.10004086D+02 0.00000000D+00  -5  5  0 0.00000000D+00 0.00000000D+00 0.00000000D+00 0.00000000D+00 0.00000000D+00
  <mgrwgt>
 0.1972939341D+00    2    2    0
 0.113015038358653D+03 0.000000000000000D+00 0.000000000000000D+00 0.113015038358653D+03
 0.113015038358653D+03 0.000000000000000D+00 0.000000000000000D+00 -.113015038358653D+03
 0.133272926553513D+03 0.237267188398021D+02 0.137004022679012D+02 0.372292189406738D+02
 0.927571501637932D+02 -.237267188398021D+02 -.137004022679012D+02 -.372292189406738D+02
 0.000000000000000D+00 0.000000000000000D+00 -.000000000000000D+00 0.000000000000000D+00
 0.122420277427217D+03 0.000000000000000D+00 0.000000000000000D+00 0.122420277427217D+03
 0.115817612058712D+03 0.000000000000000D+00 0.000000000000000D+00 -.115817612058712D+03
 0.132557423600813D+03 0.180678011135241D+02 0.152973975458215D+02 0.372292189406738D+02
 0.936939350940422D+02 -.276958342957190D+02 -.125802837315978D+02 -.372292189406738D+02
 0.119865307910737D+02 0.962803318219490D+01 -.271711381422364D+01 0.660266536850593D+01
-.110220566942D-07 0.000000000000D+00 0.000000000000D+00 0.266397286832D-02 0.000000000000D+00  5 2 -1 25 24 21 2 0.18739313D-01 0.16132144D-01 0.11334315D+05 0.11334315D+05 0.11334315D+05 0.12619394D+01  1  2  8  2  5  2       -1 -.158544868353D-04 0.100000000000D+01
0.156576475018D-03 0.000000000000D+00 0.000000000000D+00 0.266397286832D-02 0.225115976928D-03  5 2 -1 25 24 21 2 0.20298820D-01 0.16532193D-01 0.12455233D+05 0.12455233D+05 0.12455233D+05 0.12571333D+01  1  2  1  2  5  2       -1 0.197309788578D+00 0.100000000000D+01
  </mgrwgt>
  </event>
  <event>
  4     66 0.48098993E-03 0.47593328E+02 0.75467711E-02 0.12658333E+00
        2 -1    0    0  501    0 0.00000000E+00 0.00000000E+00 0.16237443E+03 0.16237474E+03 0.32000000E+00 0.0000E+00 0.9000E+01
       -1 -1    0    0    0  501 0.00000000E+00 0.00000000E+00 -.86244655E+02 0.86245249E+02 0.32000000E+00 0.0000E+00 0.9000E+01
       25  1    1    2    0    0 -.87273594E+01 -.21376444E+02 -.11288273E+02 0.12761483E+03 0.12500000E+03 0.0000E+00 0.9000E+01
       24  1    1    2    0    0 0.87273594E+01 0.21376444E+02 0.87418046E+02 0.12100516E+03 0.80419002E+02 0.0000E+00 0.9000E+01
#aMCatNLO 1  0  0  1  2 0.35864923D+01 0.00000000D+00  -5  5  0 0.00000000D+00 0.00000000D+00 0.00000000D+00 0.00000000D+00 0.00000000D+00
  <mgrwgt>
 0.2702324271D+00   11    2    0
 0.118338664588394D+03 0.000000000000000D+00 0.000000000000000D+00 0.118338664588394D+03
 0.118338664588394D+03 0.000000000000000D+00 0.000000000000000D+00 -.118338664588394D+03
 0.137685224052882D+03 -.872735943369631D+01 -.213764436299156D+02 -.529065381360783D+02
 0.989921051239074D+02 0.872735943369631D+01 0.213764436299156D+02 0.529065381360783D+02
 0.000000000000000D+00 -.000000000000000D+00 0.000000000000000D+00 0.000000000000000D+00
 0.120406932217979D+03 0.000000000000000D+00 0.000000000000000D+00 0.120406932217979D+03
 0.119917326364691D+03 0.000000000000000D+00 0.000000000000000D+00 -.119917326364691D+03
 0.137578311100121D+03 -.664276680025749D+01 -.214374335417003D+02 -.529065381360783D+02
 0.991261904900498D+02 0.102277250355431D+02 0.213325467244802D+02 0.529065381360783D+02
 0.361975699249867D+01 -.358495823528560D+01 0.104886817220097D+00 0.489605853288569D+00
0.229573293949D-03 0.000000000000D+00 0.000000000000D+00 0.233125304987D-02 0.000000000000D+00  5 2 -1 25 24 21 0 0.24980751D-01 0.13268478D-01 0.11107326D+05 0.11107326D+05 0.11107326D+05 0.12629778D+01  1  2  2  1  5  1        2 0.203894087908D+00 0.100000000000D+01
-.125458741555D-04 0.000000000000D+00 -.881621896799D-06 0.233125304987D-02 0.000000000000D+00  5 2 -1 25 24 21 2 0.24980751D-01 0.13268478D-01 0.11107326D+05 0.11107326D+05 0.11107326D+05 0.12629778D+01  1  2  3  1  5  1        2 -.177736096555D-01 0.100000000000D+01
0.157233116809D-04 0.000000000000D+00 0.000000000000D+00 0.233125304987D-02 0.000000000000D+00  5 2 -1 25 24 21 2 0.24980751D-01 0.13268478D-01 0.11107326D+05 0.11107326D+05 0.11107326D+05 0.12629778D+01  1  2 15  1  5  1        2 0.222750524073D-01 0.100000000000D+01
0.136771648814D-04 0.000000000000D+00 0.000000000000D+00 0.233125304987D-02 0.000000000000D+00  5 2 -1 25 24 21 2 0.25581415D-01 0.13268478D-01 0.11493113D+05 0.11493113D+05 0.11493113D+05 0.12612268D+01  1  2 12  1  5  1        2 0.188530444475D-01 0.100000000000D+01
-.137100327751D-02 0.000000000000D+00 0.000000000000D+00 0.233125304987D-02 0.000000000000D+00  5 2 -1 25 24 21 2 0.24980751D-01 0.13268478D-01 0.11107326D+05 0.11107326D+05 0.11107326D+05 0.12629778D+01  1  2  4  1  5  1        2 -.194228610848D+01 0.100000000000D+01
-.851954098920D-02 0.000000000000D+00 -.117462897331D-02 0.233125304987D-02 0.000000000000D+00  5 2 -1 25 24 21 2 0.25737098D-01 0.13268478D-01 0.11107326D+05 0.11107326D+05 0.11107326D+05 0.12629778D+01  1  2  5  1  5  1        2 -.116824045190D+02 0.100000000000D+01
0.855129568622D-02 0.000000000000D+00 0.117410663183D-02 0.233125304987D-02 0.000000000000D+00  5 2 -1 25 24 21 2 0.24980751D-01 0.13268478D-01 0.11107326D+05 0.11107326D+05 0.11107326D+05 0.12629778D+01  1  2  6  1  5  1        2 0.121145318128D+02 0.100000000000D+01
0.135997365301D-02 0.000000000000D+00 0.000000000000D+00 0.233125304987D-02 0.153801289735D-02  5 2 -1 25 24 21 2 0.25417353D-01 0.13445483D-01 0.11493113D+05 0.11493113D+05 0.11493113D+05 0.12612268D+01  1  2 11  1  5  1        2 0.184961492169D+01 0.100000000000D+01
0.375545074479D-06 0.000000000000D+00 0.000000000000D+00 0.233125304987D-02 0.000000000000D+00  5 21 -1 25 24 -2 2 0.25581415D-01 0.13268478D-01 0.11493113D+05 0.11493113D+05 0.11493113D+05 0.12612268D+01  1  2 12  3  5  1        2 0.298980686918D-02 0.100000000000D+01
-.452083533037D-04 0.000000000000D+00 -.628512775905D-05 0.233125304987D-02 0.000000000000D+00  5 21 -1 25 24 -2 2 0.25737098D-01 0.13268478D-01 0.11107326D+05 0.11107326D+05 0.11107326D+05 0.12629778D+01  1  2  5  3  5  1        2 -.356570823471D+00 0.100000000000D+01
0.723345317007D-05 0.000000000000D+00 0.000000000000D+00 0.233125304987D-02 0.490177207705D-05  5 21 -1 25 24 -2 2 0.25417353D-01 0.13445483D-01 0.11493113D+05 0.11493113D+05 0.11493113D+05 0.12612268D+01  1  2 11  3  5  1        2 0.571087616150D-01 0.100000000000D+01
  </mgrwgt>
  </event>
  <event>
  4     66 0.48098993E-03 0.51272603E+02 0.75467711E-02 0.11747406E+00
        4 -1    0    0  501    0 0.00000000E+00 0.00000000E+00 0.43517601E+03 0.43517877E+03 0.15500000E+01 0.0000E+00 0.9000E+01
       -3 -1    0    0    0  501 0.00000000E+00 0.00000000E+00 -.42417971E+02 0.42420918E+02 0.50000000E+00 0.0000E+00 0.9000E+01
       25  1    1    2    0    0 0.61488177E+02 0.23289375E+02 0.32284282E+03 0.35238569E+03 0.12500000E+03 0.0000E+00 0.9000E+01
       24  1    1    2    0    0 -.61488177E+02 -.23289375E+02 0.69915221E+02 0.12521400E+03 0.80419002E+02 0.0000E+00 0.9000E+01
#aMCatNLO 1  0  0  1  2 0.87402508D+02 0.00000000D+00  -5  5  0 0.00000000D+00 0.00000000D+00 0.00000000D+00 0.00000000D+00 0.00000000D+00
  <mgrwgt>
 0.1074137191D-01    7    2    0
 0.135869961396432D+03 0.000000000000000D+00 0.000000000000000D+00 0.135869961396432D+03
 0.135869961396432D+03 0.000000000000000D+00 0.000000000000000D+00 -.135869961396432D+03
 0.152720234907052D+03 0.614881771447068D+02 0.232893745200168D+02 0.580971535959620D+02
 0.119019687885811D+03 -.614881771447068D+02 -.232893745200168D+02 -.580971535959620D+02
 0.000000000000000D+00 -.000000000000000D+00 -.000000000000000D+00 0.000000000000000D+00
 0.746480786641420D+03 0.000000000000000D+00 0.000000000000000D+00 0.746480786641420D+03
 0.145888270690950D+03 0.000000000000000D+00 0.000000000000000D+00 -.145888270690950D+03
 0.178120926832972D+03 0.920305907285384D+02 0.652468826078345D+02 0.580971535959620D+02
 0.107329216088258D+03 -.405922227142982D+02 0.541635217738688D+01 -.580971535959620D+02
 0.606918914411139D+03 -.514383680142402D+02 -.706632347852213D+02 0.600592515950471D+03
0.304890745958D-03 0.000000000000D+00 0.000000000000D+00 0.212982533890D-02 0.000000000000D+00  5 4 -3 25 24 21 0 0.66950594D-01 0.65262808D-02 0.15020334D+05 0.15020334D+05 0.15020334D+05 0.12477555D+01  1  2  2  1  5  1        4 0.182479365887D-01 0.100000000000D+01
-.167193851133D-04 0.000000000000D+00 -.117086074406D-05 0.212982533890D-02 0.000000000000D+00  5 4 -3 25 24 21 2 0.66950594D-01 0.65262808D-02 0.15020334D+05 0.15020334D+05 0.15020334D+05 0.12477555D+01  1  2  3  1  5  1        4 -.155793302904D-02 0.100000000000D+01
0.210543463251D-04 0.000000000000D+00 0.000000000000D+00 0.212982533890D-02 0.000000000000D+00  5 4 -3 25 24 21 2 0.66950594D-01 0.65262808D-02 0.15020334D+05 0.15020334D+05 0.15020334D+05 0.12477555D+01  1  2 15  1  5  1        4 0.196187008808D-02 0.100000000000D+01
0.504011159743D-03 0.000000000000D+00 0.000000000000D+00 0.212982533890D-02 0.000000000000D+00  5 4 -3 25 24 21 2 0.35439570D+00 0.65262808D-02 0.29933855D+05 0.29933855D+05 0.29933855D+05 0.12149990D+01  1  2 12  1  5  1        4 0.399470955177D-03 0.100000000000D+01
-.249641032199D-02 0.000000000000D+00 -.153309867879D-03 0.212982533890D-02 0.000000000000D+00  5 4 -3 25 24 21 2 0.37177493D+00 0.65262808D-02 0.15020334D+05 0.15020334D+05 0.15020334D+05 0.12477555D+01  1  2  5  1  5  1        4 -.162272648074D-02 0.100000000000D+01
0.102656189308D-03 0.000000000000D+00 0.000000000000D+00 0.212982533890D-02 0.000000000000D+00  5 21 -3 25 24 -4 2 0.35439570D+00 0.65262808D-02 0.29933855D+05 0.29933855D+05 0.29933855D+05 0.12149990D+01  1  2 12  3  5  1        4 0.186184043467D-02 0.100000000000D+01
-.531376468293D-03 0.000000000000D+00 -.321743768399D-04 0.212982533890D-02 0.000000000000D+00  5 21 -3 25 24 -4 2 0.37177493D+00 0.65262808D-02 0.15020334D+05 0.15020334D+05 0.15020334D+05 0.12477555D+01  1  2  5  3  5  1        4 -.854908664716D-02 0.100000000000D+01
  </mgrwgt>
  </event>
  <event>
  4     66 0.48098993E-03 0.43523862E+02 0.75467711E-02 0.12464518E+00
        2 -1    0    0  501    0 0.00000000E+00 0.00000000E+00 0.54316578E+02 0.54317521E+02 0.32000000E+00 0.0000E+00 0.9000E+01
       -1 -1    0    0    0  501 0.00000000E+00 0.00000000E+00 -.29770160E+03 0.29770177E+03 0.32000000E+00 0.0000E+00 0.9000E+01
       25  1    1    2    0    0 -.32059321E+02 -.29545875E+02 -.22136343E+03 0.25792931E+03 0.12500000E+03 0.0000E+00 0.9000E+01
       24  1    1    2    0    0 0.32059321E+02 0.29545875E+02 -.22021589E+02 0.94089984E+02 0.80419002E+02 0.0000E+00 0.9000E+01
#aMCatNLO 1  0  0  2  1 0.11970849D+02 0.00000000D+00  -5  5  0 0.00000000D+00 0.00000000D+00 0.00000000D+00 0.00000000D+00 0.00000000D+00
  <mgrwgt>
 0.3372612111D+00    9    2    0
 0.127162605677313D+03 0.000000000000000D+00 0.000000000000000D+00 0.127162605677313D+03
 0.127162605677313D+03 0.000000000000000D+00 0.000000000000000D+00 -.127162605677313D+03
 0.145166687924708D+03 -.320593206667491D+02 -.295458748531236D+02 -.595618042085674D+02
 0.109158523429919D+03 0.320593206667491D+02 0.295458748531236D+02 0.595618042085674D+02
 0.000000000000000D+00 0.000000000000000D+00 0.000000000000000D+00 -.000000000000000D+00
 0.132105621525061D+03 0.000000000000000D+00 0.000000000000000D+00 0.132105621525061D+03
 0.134763532139521D+03 0.000000000000000D+00 0.000000000000000D+00 -.134763532139521D+03
 0.147043663029060D+03 -.388398777066496D+02 -.306707387611785D+02 -.595618042085674D+02
 0.107563120769923D+03 0.270304314933107D+02 0.287116047635837D+02 0.595618042085674D+02
 0.122623698655984D+02 0.118094462133389D+02 0.195913399759478D+01 -.265791061446005D+01
0.457235079138D-03 0.000000000000D+00 0.000000000000D+00 0.214819247554D-02 0.000000000000D+00  5 2 -1 25 24 21 0 0.83564824D-02 0.45800331D-01 0.12528495D+05 0.12528495D+05 0.12528495D+05 0.12568363D+01  1  2  2  2  5  2       -1 0.191747262610D+00 0.100000000000D+01
-.248991947975D-04 0.000000000000D+00 -.175590309665D-05 0.214819247554D-02 0.000000000000D+00  5 2 -1 25 24 21 2 0.83564824D-02 0.45800331D-01 0.12528495D+05 0.12528495D+05 0.12528495D+05 0.12568363D+01  1  2  3  2  5  2       -1 -.164942425516D-01 0.100000000000D+01
0.313556880904D-04 0.000000000000D+00 0.000000000000D+00 0.214819247554D-02 0.000000000000D+00  5 2 -1 25 24 21 2 0.83564824D-02 0.45800331D-01 0.12528495D+05 0.12528495D+05 0.12528495D+05 0.12568363D+01  1  2 15  2  5  2       -1 0.207712871418D-01 0.100000000000D+01
0.913547463285D-03 0.000000000000D+00 0.000000000000D+00 0.214819247554D-02 0.000000000000D+00  5 2 -1 25 24 21 2 0.83564824D-02 0.49384095D-01 0.13921417D+05 0.13921417D+05 0.13921417D+05 0.12515341D+01  1  2 12  2  5  2       -1 0.525645743820D+00 0.100000000000D+01
-.808416445370D-03 0.000000000000D+00 0.000000000000D+00 0.214819247554D-02 0.000000000000D+00  5 2 -1 25 24 21 2 0.83564824D-02 0.45800331D-01 0.12528495D+05 0.12528495D+05 0.12528495D+05 0.12568363D+01  1  2  4  2  5  2       -1 -.535528037799D+00 0.100000000000D+01
-.304996382753D-02 0.000000000000D+00 -.600071412789D-03 0.214819247554D-02 0.000000000000D+00  5 2 -1 25 24 21 2 0.83564824D-02 0.50207995D-01 0.12528495D+05 0.12528495D+05 0.12528495D+05 0.12568363D+01  1  2  5  2  5  2       -1 -.171215407322D+01 0.100000000000D+01
0.309455228521D-02 0.000000000000D+00 0.597547248838D-03 0.214819247554D-02 0.000000000000D+00  5 2 -1 25 24 21 2 0.83564824D-02 0.45800331D-01 0.12528495D+05 0.12528495D+05 0.12528495D+05 0.12568363D+01  1  2  6  2  5  2       -1 0.204995769526D+01 0.100000000000D+01
0.116606090799D-04 0.000000000000D+00 0.000000000000D+00 0.214819247554D-02 0.000000000000D+00  5 2 21 25 24 1 2 0.83564824D-02 0.49384095D-01 0.13921417D+05 0.13921417D+05 0.13921417D+05 0.12515341D+01  1  2 12  4  5  2       -1 0.690485613220D-01 0.100000000000D+01
-.443368439902D-04 0.000000000000D+00 -.905541761978D-05 0.214819247554D-02 0.000000000000D+00  5 2 21 25 24 1 2 0.83564824D-02 0.50207995D-01 0.12528495D+05 0.12528495D+05 0.12528495D+05 0.12568363D+01  1  2  5  4  5  2       -1 -.255732985490D+00 0.100000000000D+01
  </mgrwgt>
  </event>
  <event>
  4     66 0.48098993E-03 0.35927215E+03 0.75467711E-02 0.10456687E+00
        2 -1    0    0  501    0 0.00000000E+00 0.00000000E+00 0.12317263E+04 0.12317263E+04 0.32000000E+00 0.0000E+00 0.9000E+01
       -1 -1    0    0    0  501 0.00000000E+00 0.00000000E+00 -.12017547E+03 0.12017589E+03 0.32000000E+00 0.0000E+00 0.9000E+01
       25  1    1    2    0    0 -.92476009E+02 0.33093680E+03 0.32256836E+03 0.48759237E+03 0.12500000E+03 0.0000E+00 0.9000E+01
       24  1    1    2    0    0 0.92476009E+02 -.33093680E+03 0.78898245E+03 0.86430984E+03 0.80419002E+02 0.0000E+00 0.9000E+01
#aMCatNLO 1  0  0  2  1 0.67468684D+02 0.00000000D+00  -5  5  0 0.00000000D+00 0.00000000D+00 0.00000000D+00 0.00000000D+00 0.00000000D+00
  <mgrwgt>
 0.4463131460D+00    4    2    0
 0.384738346651926D+03 0.000000000000000D+00 0.000000000000000D+00 0.384738346651926D+03
 0.384738346651926D+03 0.000000000000000D+00 0.000000000000000D+00 -.384738346651926D+03
 0.390689003848773D+03 -.924760085922289D+02 0.330936795134343D+03 -.137629659555661D+03
 0.378787689455079D+03 0.924760085922289D+02 -.330936795134343D+03 0.137629659555661D+03
 0.000000000000000D+00 0.000000000000000D+00 0.000000000000000D+00 0.000000000000000D+00
 0.486122060089066D+03 0.000000000000000D+00 0.000000000000000D+00 0.486122060089066D+03
 0.397605031971881D+03 0.000000000000000D+00 0.000000000000000D+00 -.397605031971881D+03
 0.389841534408257D+03 -.124553593369243D+03 0.319211373762256D+03 -.137629659555661D+03
 0.382587365179827D+03 0.611856597012132D+02 -.342374455674474D+03 0.137629659555661D+03
 0.111298192472862D+03 0.633679336680297D+02 0.231630819122178D+02 0.885170281171845D+02
0.101601459529D-01 0.000000000000D+00 0.000000000000D+00 0.171592670953D-02 0.000000000000D+00  5 2 -1 25 24 21 0 0.18949639D+00 0.18488569D-01 0.12907647D+06 0.12907647D+06 0.12907647D+06 0.11535243D+01  1  2  2  2  5  2       -1 0.506210665767D+00 0.100000000000D+01
-.561233867519D-03 0.000000000000D+00 -.390176356868D-04 0.171592670953D-02 0.000000000000D+00  5 2 -1 25 24 21 2 0.18949639D+00 0.18488569D-01 0.12907647D+06 0.12907647D+06 0.12907647D+06 0.11535243D+01  1  2  3  2  5  2       -1 -.372073477437D-01 0.100000000000D+01
0.698603413309D-03 0.000000000000D+00 0.000000000000D+00 0.171592670953D-02 0.000000000000D+00  5 2 -1 25 24 21 2 0.18949639D+00 0.18488569D-01 0.12907647D+06 0.12907647D+06 0.12907647D+06 0.11535243D+01  1  2 15  2  5  2       -1 0.463143470811D-01 0.100000000000D+01
-.104086089093D-02 0.000000000000D+00 0.000000000000D+00 0.171592670953D-02 0.000000000000D+00  5 2 -1 25 24 21 2 0.18949639D+00 0.18488569D-01 0.12907647D+06 0.12907647D+06 0.12907647D+06 0.11535243D+01  1  2  4  2  5  2       -1 -.690045190836D-01 0.100000000000D+01
  </mgrwgt>
  </event>
  <event>
  4     66 0.48098993E-03 0.11182826E+03 0.75467711E-02 0.10686516E+00
        2 -1    0    0  501    0 0.00000000E+00 0.00000000E+00 0.21374453E+03 0.21374477E+03 0.32000000E+00 0.0000E+00 0.9000E+01
       -1 -1    0    0    0  501 0.00000000E+00 0.00000000E+00 -.60670553E+02 0.60671397E+02 0.32000000E+00 0.0000E+00 0.9000E+01
       25  1    1    2    0    0 -.19448326E+02 -.38734380E+02 0.11554111E+03 0.17565118E+03 0.12500000E+03 0.0000E+00 0.9000E+01
       24  1    1    2    0    0 0.19448326E+02 0.38734380E+02 0.37532861E+02 0.98764979E+02 0.80419002E+02 0.0000E+00 0.9000E+01
#aMCatNLO 1  0  0  1  2 0.29837923D+03 0.00000000D+00  -5  5  0 0.00000000D+00 0.00000000D+00 0.00000000D+00 0.00000000D+00 0.00000000D+00
  <mgrwgt>
 0.3856784491D+00    3    2    0
 0.113877773262411D+03 0.000000000000000D+00 0.000000000000000D+00 0.113877773262411D+03
 0.113877773262411D+03 0.000000000000000D+00 0.000000000000000D+00 -.113877773262411D+03
 0.133982188248923D+03 -.194483256664069D+02 -.387343795252535D+02 0.211574393426234D+02
 0.937733582759001D+02 0.194483256664069D+02 0.387343795252535D+02 -.211574393426234D+02
 0.000000000000000D+00 0.000000000000000D+00 -.000000000000000D+00 -.000000000000000D+00
 0.243126509441921D+03 0.000000000000000D+00 0.000000000000000D+00 0.243126509441921D+03
 0.589145517770992D+03 0.000000000000000D+00 0.000000000000000D+00 -.589145517770992D+03
 0.186433891242939D+03 -.891094930432341D+02 0.103655471703259D+03 0.211574393426234D+02
 0.188936265207745D+03 -.420151390628474D+02 0.164367841155969D+03 -.211574393426234D+02
 0.456901870762229D+03 0.131124632106081D+03 -.268023312859228D+03 -.346019008329071D+03
0.332783860795D-03 0.000000000000D+00 0.000000000000D+00 0.282762886416D-02 0.000000000000D+00  5 2 -1 25 24 21 0 0.32883857D-01 0.93340146D-02 0.12505559D+05 0.12505559D+05 0.12505559D+05 0.12569291D+01  1  2  2  1  5  1        2 0.377599707412D+00 0.100000000000D+01
-.184805779362D-04 0.000000000000D+00 -.127797764945D-05 0.282762886416D-02 0.000000000000D+00  5 2 -1 25 24 21 2 0.32883857D-01 0.93340146D-02 0.12505559D+05 0.12505559D+05 0.12505559D+05 0.12569291D+01  1  2  3  1  5  1        2 -.331288607116D-01 0.100000000000D+01
0.229872169474D-04 0.000000000000D+00 0.000000000000D+00 0.282762886416D-02 0.000000000000D+00  5 2 -1 25 24 21 2 0.32883857D-01 0.93340146D-02 0.12505559D+05 0.12505559D+05 0.12505559D+05 0.12569291D+01  1  2 15  1  5  1        2 0.412076024369D-01 0.100000000000D+01
  </mgrwgt>
  </event>
  <event>
  4     66 0.48098993E-03 0.63365986E+02 0.75467711E-02 0.11648589E+00
        2 -1    0    0  501    0 0.00000000E+00 0.00000000E+00 0.23988166E+04 0.23988166E+04 0.32000000E+00 0.0000E+00 0.9000E+01
       -1 -1    0    0    0  501 0.00000000E+00 0.00000000E+00 -.18247424E+02 0.18250230E+02 0.32000000E+00 0.0000E+00 0.9000E+01
       25  1    1    2    0    0 -.49453188E+02 0.12113925E+03 0.52811322E+03 0.55825524E+03 0.12500000E+03 0.0000E+00 0.9000E+01
       24  1    1    2    0    0 0.49453188E+02 -.12113925E+03 0.18524559E+04 0.18588116E+04 0.80419002E+02 0.0000E+00 0.9000E+01
#aMCatNLO 1  0  0  1  2 0.31024373D+02 0.00000000D+00  -5  5  0 0.00000000D+00 0.00000000D+00 0.00000000D+00 0.00000000D+00 0.00000000D+00
  <mgrwgt>
 0.5649859095D+00    9    2    0
 0.209226288297752D+03 0.000000000000000D+00 0.000000000000000D+00 0.209226288297752D+03
 0.209226288297752D+03 0.000000000000000D+00 0.000000000000000D+00 -.209226288297752D+03
 0.220168727845067D+03 -.494531882800839D+02 0.121139249061466D+03 -.125415043861070D+03
 0.198283848750436D+03 0.494531882800839D+02 -.121139249061466D+03 0.125415043861070D+03
 0.000000000000000D+00 0.000000000000000D+00 -.000000000000000D+00 0.000000000000000D+00
 0.236026896905278D+03 0.000000000000000D+00 0.000000000000000D+00 0.236026896905278D+03
 0.218975585454595D+03 0.000000000000000D+00 0.000000000000000D+00 -.218975585454595D+03
 0.229021485083868D+03 -.629002383455005D+02 0.130921607916439D+03 -.125415043861070D+03
 0.190579599959079D+03 0.378120925640588D+02 -.112670672295167D+03 0.125415043861070D+03
 0.354013973169258D+02 0.250881457814416D+02 -.182509356212716D+02 0.170513114506823D+02
0.119097869995D-02 0.000000000000D+00 0.000000000000D+00 0.140400704812D-02 0.000000000000D+00  5 2 -1 25 24 21 0 0.36904892D+00 0.28075135D-02 0.27979105D+05 0.27979105D+05 0.27979105D+05 0.12180901D+01  1  2  2  1  5  1        2 0.259300104451D+00 0.100000000000D+01
-.621357991109D-04 0.000000000000D+00 -.457367179972D-05 0.140400704812D-02 0.000000000000D+00  5 2 -1 25 24 21 2 0.36904892D+00 0.28075135D-02 0.27979105D+05 0.27979105D+05 0.27979105D+05 0.12180901D+01  1  2  3  1  5  1        2 -.200724044780D-01 0.100000000000D+01
0.817861016658D-04 0.000000000000D+00 0.000000000000D+00 0.140400704812D-02 0.000000000000D+00  5 2 -1 25 24 21 2 0.36904892D+00 0.28075135D-02 0.27979105D+05 0.27979105D+05 0.27979105D+05 0.12180901D+01  1  2 15  1  5  1        2 0.264202559041D-01 0.100000000000D+01
0.187737003141D-02 0.000000000000D+00 0.000000000000D+00 0.140400704812D-02 0.000000000000D+00  5 2 -1 25 24 21 2 0.42411829D+00 0.28075135D-02 0.33516802D+05 0.33516802D+05 0.33516802D+05 0.12098780D+01  1  2 12  1  5  1        2 0.380779014427D+00 0.100000000000D+01
-.186043988159D-02 0.000000000000D+00 0.000000000000D+00 0.140400704812D-02 0.000000000000D+00  5 2 -1 25 24 21 2 0.36904892D+00 0.28075135D-02 0.27979105D+05 0.27979105D+05 0.27979105D+05 0.12180901D+01  1  2  4  1  5  1        2 -.600998174075D+00 0.100000000000D+01
-.429039151394D-02 0.000000000000D+00 -.919638835557D-03 0.140400704812D-02 0.000000000000D+00  5 2 -1 25 24 21 2 0.42279521D+00 0.28075135D-02 0.27979105D+05 0.27979105D+05 0.27979105D+05 0.12180901D+01  1  2  5  1  5  1        2 -.894782138847D+00 0.100000000000D+01
0.438328465527D-02 0.000000000000D+00 0.911204154793D-03 0.140400704812D-02 0.000000000000D+00  5 2 -1 25 24 21 2 0.36904892D+00 0.28075135D-02 0.27979105D+05 0.27979105D+05 0.27979105D+05 0.12180901D+01  1  2  6  1  5  1        2 0.141598022077D+01 0.100000000000D+01
0.402669091039D-04 0.000000000000D+00 0.000000000000D+00 0.140400704812D-02 0.000000000000D+00  5 21 -1 25 24 -2 2 0.42411829D+00 0.28075135D-02 0.33516802D+05 0.33516802D+05 0.33516802D+05 0.12098780D+01  1  2 12  3  5  1        2 0.133697138155D-02 0.100000000000D+01
-.849756777937D-04 0.000000000000D+00 -.193599433546D-04 0.140400704812D-02 0.000000000000D+00  5 21 -1 25 24 -2 2 0.42279521D+00 0.28075135D-02 0.27979105D+05 0.27979105D+05 0.27979105D+05 0.12180901D+01  1  2  5  3  5  1        2 -.297794007584D-02 0.100000000000D+01
  </mgrwgt>
  </event>
  <event>
  4     66 0.48098993E-03 0.14181148E+03 0.75467711E-02 0.12016909E+00
        2 -1    0    0  501    0 0.00000000E+00 0.00000000E+00 0.81169028E+02 0.81169659E+02 0.32000000E+00 0.0000E+00 0.9000E+01
       -1 -1    0    0    0  501 0.00000000E+00 0.00000000E+00 -.47455675E+03 0.47455686E+03 0.32000000E+00 0.0000E+00 0.9000E+01
       25  1    1    2    0    0 0.45763318E+02 0.85033789E+02 -.16944972E+02 0.15886207E+03 0.12500000E+03 0.0000E+00 0.9000E+01
       24  1    1    2    0    0 -.45763318E+02 -.85033789E+02 -.37644275E+03 0.39686444E+03 0.80419002E+02 0.0000E+00 0.9000E+01
#aMCatNLO 1  0  0  2  2 0.14593161D+02 0.00000000D+00  -5  5  0 0.00000000D+00 0.00000000D+00 0.00000000D+00 0.00000000D+00 0.00000000D+00
  <mgrwgt>
 0.2052015723D+00    4    2    0
 0.196263892362574D+03 0.000000000000000D+00 0.000000000000000D+00 0.196263892362574D+03
 0.196263892362574D+03 0.000000000000000D+00 0.000000000000000D+00 -.196263892362574D+03
 0.207929033534736D+03 0.457633182339323D+02 0.850337885052951D+02 0.135220029963559D+03
 0.184598751190412D+03 -.457633182339323D+02 -.850337885052951D+02 -.135220029963559D+03
 0.000000000000000D+00 -.000000000000000D+00 -.000000000000000D+00 0.000000000000000D+00
 0.260876113275164D+03 0.000000000000000D+00 0.000000000000000D+00 0.260876113275164D+03
 0.197225206285203D+03 0.000000000000000D+00 0.000000000000000D+00 -.197225206285203D+03
 0.211311525427677D+03 0.520534258155401D+02 0.896300459449407D+02 0.135220029963559D+03
 0.181487433489219D+03 -.402707163457126D+02 -.810202780900587D+02 -.135220029963559D+03
 0.653023606434713D+02 -.117827094698275D+02 -.860976785488199D+01 0.636509069899611D+02
0.193872648885D-02 0.000000000000D+00 0.000000000000D+00 0.119420630521D-02 0.000000000000D+00  5 2 -1 25 24 21 0 0.12487600D-01 0.73008787D-01 0.20110496D+05 0.20110496D+05 0.20110496D+05 0.12335627D+01  1  2  2  2  5  2       -1 0.208955736717D+00 0.100000000000D+01
-.938780668899D-04 0.000000000000D+00 -.744522019559D-05 0.119420630521D-02 0.000000000000D+00  5 2 -1 25 24 21 2 0.12487600D-01 0.73008787D-01 0.20110496D+05 0.20110496D+05 0.20110496D+05 0.12335627D+01  1  2  3  2  5  2       -1 -.153965832859D-01 0.100000000000D+01
0.132854065320D-03 0.000000000000D+00 0.000000000000D+00 0.119420630521D-02 0.000000000000D+00  5 2 -1 25 24 21 2 0.12487600D-01 0.73008787D-01 0.20110496D+05 0.20110496D+05 0.20110496D+05 0.12335627D+01  1  2 15  2  5  2       -1 0.217888879621D-01 0.100000000000D+01
-.618663822612D-04 0.000000000000D+00 0.000000000000D+00 0.119420630521D-02 0.000000000000D+00  5 2 -1 25 24 21 2 0.12487600D-01 0.73008787D-01 0.20110496D+05 0.20110496D+05 0.20110496D+05 0.12335627D+01  1  2  4  2  5  2       -1 -.101464691236D-01 0.100000000000D+01
  </mgrwgt>
  </event>
  <event>
  4     66 0.48098993E-03 0.11842692E+03 0.75467711E-02 0.12266665E+00
        2 -1    0    0  501    0 0.00000000E+00 0.00000000E+00 0.14433303E+03 0.14433339E+03 0.32000000E+00 0.0000E+00 0.9000E+01
       -1 -1    0    0    0  501 0.00000000E+00 0.00000000E+00 -.99659879E+02 0.99660393E+02 0.32000000E+00 0.0000E+00 0.9000E+01
       25  1    1    2    0    0 -.55301265E+02 -.17156028E+02 0.44922942E+02 0.14489869E+03 0.12500000E+03 0.0000E+00 0.9000E+01
       24  1    1    2    0    0 0.55301265E+02 0.17156028E+02 -.24978644E+00 0.99095094E+02 0.80419002E+02 0.0000E+00 0.9000E+01
#aMCatNLO 1  0  0  1  2 0.23063479D+02 0.00000000D+00  -5  5  0 0.00000000D+00 0.00000000D+00 0.00000000D+00 0.00000000D+00 0.00000000D+00
  <mgrwgt>
 0.2280320066D+00    4    2    0
 0.119934643585753D+03 0.000000000000000D+00 0.000000000000000D+00 0.119934643585753D+03
 0.119934643585753D+03 0.000000000000000D+00 0.000000000000000D+00 -.119934643585753D+03
 0.139023756980837D+03 -.553012651994326D+02 -.171560282352458D+02 0.187095100844528D+02
 0.100845530190670D+03 0.553012651994326D+02 0.171560282352458D+02 -.187095100844528D+02
 0.000000000000000D+00 -.000000000000000D+00 0.000000000000000D+00 -.000000000000000D+00
 0.125142723913856D+03 0.000000000000000D+00 0.000000000000000D+00 0.125142723913856D+03
 0.149055316338702D+03 0.000000000000000D+00 0.000000000000000D+00 -.149055316338702D+03
 0.135782232793052D+03 -.437225251102860D+02 -.234544190430444D+02 0.187095100844528D+02
 0.105193282583193D+03 0.639825529084372D+02 0.124337404660003D+02 -.187095100844528D+02
 0.332225248763120D+02 -.202600277981512D+02 0.110206785770441D+02 -.239125924248457D+02
0.390203747180D-03 0.000000000000D+00 0.000000000000D+00 0.272592532126D-02 0.000000000000D+00  5 2 -1 25 24 21 0 0.22205149D-01 0.15332356D-01 0.14024936D+05 0.14024936D+05 0.14024936D+05 0.12511641D+01  1  2  2  1  5  1        2 0.318139199899D+00 0.100000000000D+01
-.216737676036D-04 0.000000000000D+00 -.149848513218D-05 0.272592532126D-02 0.000000000000D+00  5 2 -1 25 24 21 2 0.22205149D-01 0.15332356D-01 0.14024936D+05 0.14024936D+05 0.14024936D+05 0.12511641D+01  1  2  3  1  5  1        2 -.276623252868D-01 0.100000000000D+01
0.270263522623D-04 0.000000000000D+00 0.000000000000D+00 0.272592532126D-02 0.000000000000D+00  5 2 -1 25 24 21 2 0.22205149D-01 0.15332356D-01 0.14024936D+05 0.14024936D+05 0.14024936D+05 0.12511641D+01  1  2 15  1  5  1        2 0.344938527195D-01 0.100000000000D+01
-.759526642876D-04 0.000000000000D+00 0.000000000000D+00 0.272592532126D-02 0.000000000000D+00  5 2 -1 25 24 21 2 0.22205149D-01 0.15332356D-01 0.14024936D+05 0.14024936D+05 0.14024936D+05 0.12511641D+01  1  2  4  1  5  1        2 -.969387207772D-01 0.100000000000D+01
  </mgrwgt>
  </event>
  <event>
  5     66 0.48098993E-03 0.11599190E+03 0.75467711E-02 0.11867875E+00
        2 -1    0    0  502    0 0.00000000E+00 0.00000000E+00 0.19877856E+03 0.19877881E+03 0.32000000E+00 0.0000E+00 0.9000E+01
       -1 -1    0    0    0  501 0.00000000E+00 0.00000000E+00 -.14946645E+03 0.14946679E+03 0.32000000E+00 0.0000E+00 0.9000E+01
       25  1    1    2    0    0 0.17558627E+02 0.85898037E+02 0.52713892E+02 0.16152564E+03 0.12500000E+03 0.0000E+00 0.9000E+01
       24  1    1    2    0    0 -.42908455E+02 -.11192786E+02 -.39489549E+02 0.99965266E+02 0.80419002E+02 0.0000E+00 0.9000E+01
       21  1    1    2  502  501 0.25349828E+02 -.74705251E+02 0.36087763E+02 0.86754697E+02 0.75000000E+00 0.0000E+00 0.9000E+01
#aMCatNLO 2  0  0  1  2 0.78889089D+02 0.00000000D+00  -5  5  0 0.00000000D+00 0.00000000D+00 0.00000000D+00 0.00000000D+00 0.00000000D+00
  <mgrwgt>
 0.6278063864D-01    2    2    0
 0.124478033079646D+03 0.000000000000000D+00 0.000000000000000D+00 0.124478033079646D+03
 0.124478033079646D+03 0.000000000000000D+00 0.000000000000000D+00 -.124478033079646D+03
 0.142870402839718D+03 0.325631001341102D+02 0.416802648708803D+02 0.446021528351769D+02
 0.106085663319573D+03 -.325631001341102D+02 -.416802648708803D+02 -.446021528351769D+02
 0.000000000000000D+00 0.000000000000000D+00 -.000000000000000D+00 0.000000000000000D+00
 0.188965978717162D+03 0.000000000000000D+00 0.000000000000000D+00 0.188965978717162D+03
 0.157225346125510D+03 0.000000000000000D+00 0.000000000000000D+00 -.157225346125510D+03
 0.159063289990620D+03 0.175586272452237D+02 0.858980371974295D+02 0.446021528351769D+02
 0.102093006457146D+03 -.429084550278565D+02 -.111927861892500D+02 -.446021528351769D+02
 0.850350283949061D+02 0.253498277826329D+02 -.747052510081794D+02 0.317406325916521D+02
-.437386310004D-04 0.000000000000D+00 0.000000000000D+00 0.240057438602D-02 0.000000000000D+00  5 2 -1 25 24 21 2 0.32123000D-01 0.18205269D-01 0.26147834D+05 0.26147834D+05 0.26147834D+05 0.12212130D+01  1  2 13  1  5  1        2 -.275686866408D-01 0.100000000000D+01
0.198220875049D-03 0.000000000000D+00 0.000000000000D+00 0.240057438602D-02 0.348579713324D-05  5 2 -1 25 24 21 2 0.30581060D-01 0.22994657D-01 0.26147834D+05 0.26147834D+05 0.26147834D+05 0.12212130D+01  1  2  1  1  5  1        2 0.903493252811D-01 0.100000000000D+01
  </mgrwgt>
  </event>
  <event>
  4     66 0.48098993E-03 0.22892333E+03 0.75467711E-02 0.10290033E+00
        2 -1    0    0  501    0 0.00000000E+00 0.00000000E+00 0.89170456E+03 0.89170461E+03 0.32000000E+00 0.0000E+00 0.9000E+01
       -1 -1    0    0    0  501 0.00000000E+00 0.00000000E+00 -.15929140E+03 0.15929172E+03 0.32000000E+00 0.0000E+00 0.9000E+01
       25  1    1    2    0    0 -.29782267E+03 -.19761667E+03 0.45197821E+03 0.58962700E+03 0.12500000E+03 0.0000E+00 0.9000E+01
       24  1    1    2    0    0 0.29782267E+03 0.19761667E+03 0.28043494E+03 0.46136934E+03 0.80419002E+02 0.0000E+00 0.9000E+01
#aMCatNLO 1  0  0  2  1 0.13447145D+03 0.00000000D+00  -5  5  0 0.00000000D+00 0.00000000D+00 0.00000000D+00 0.00000000D+00 0.00000000D+00
  <mgrwgt>
 0.6152666573D+00    9    2    0
 0.376883359484221D+03 0.000000000000000D+00 0.000000000000000D+00 0.376883359484221D+03
 0.376883359484221D+03 0.000000000000000D+00 0.000000000000000D+00 -.376883359484221D+03
 0.382958040028729D+03 -.297822670404954D+03 -.197616672654829D+03 0.572814813385761D+02
 0.370808678939714D+03 0.297822670404954D+03 0.197616672654829D+03 -.572814813385761D+02
 0.000000000000000D+00 -.000000000000000D+00 0.000000000000000D+00 -.000000000000000D+00
 0.440443965466713D+03 0.000000000000000D+00 0.000000000000000D+00 0.440443965466713D+03
 0.461303300689616D+03 0.000000000000000D+00 0.000000000000000D+00 -.461303300689616D+03
 0.414537507433305D+03 -.285614565296789D+03 -.267131984335464D+03 0.572814813385761D+02
 0.351130068507829D+03 0.308874147919211D+03 0.134687422199631D+03 -.572814813385761D+02
 0.136079690215194D+03 -.232595826224226D+02 0.132444562135832D+03 -.208593352229033D+02
0.863613090209D-02 0.000000000000D+00 0.000000000000D+00 0.192211252447D-02 0.000000000000D+00  5 2 -1 25 24 21 0 0.13718535D+00 0.24506398D-01 0.13875903D+06 0.13875903D+06 0.13875903D+06 0.11507251D+01  1  2  2  2  5  2       -1 0.434409787840D+00 0.100000000000D+01
-.479705349577D-03 0.000000000000D+00 -.331650166095D-04 0.192211252447D-02 0.000000000000D+00  5 2 -1 25 24 21 2 0.13718535D+00 0.24506398D-01 0.13875903D+06 0.13875903D+06 0.13875903D+06 0.11507251D+01  1  2  3  2  5  2       -1 -.319520079166D-01 0.100000000000D+01
0.594087412120D-03 0.000000000000D+00 0.000000000000D+00 0.192211252447D-02 0.000000000000D+00  5 2 -1 25 24 21 2 0.13718535D+00 0.24506398D-01 0.13875903D+06 0.13875903D+06 0.13875903D+06 0.11507251D+01  1  2 15  2  5  2       -1 0.395707192174D-01 0.100000000000D+01
0.402521276733D-02 0.000000000000D+00 0.000000000000D+00 0.192211252447D-02 0.000000000000D+00  5 2 -1 25 24 21 2 0.13718535D+00 0.31667276D-01 0.19867457D+06 0.19867457D+06 0.19867457D+06 0.11371384D+01  1  2 12  2  5  2       -1 0.168060948793D+00 0.100000000000D+01
-.413252390131D-02 0.000000000000D+00 0.000000000000D+00 0.192211252447D-02 0.000000000000D+00  5 2 -1 25 24 21 2 0.13718535D+00 0.24506398D-01 0.13875903D+06 0.13875903D+06 0.13875903D+06 0.11507251D+01  1  2  4  2  5  2       -1 -.275257377318D+00 0.100000000000D+01
-.883161962744D-02 0.000000000000D+00 -.361534276277D-02 0.192211252447D-02 0.000000000000D+00  5 2 -1 25 24 21 2 0.13718535D+00 0.34903125D-01 0.13875903D+06 0.13875903D+06 0.13875903D+06 0.11507251D+01  1  2  5  2  5  2       -1 -.320770092228D+00 0.100000000000D+01
0.971139685673D-02 0.000000000000D+00 0.340048070209D-02 0.192211252447D-02 0.000000000000D+00  5 2 -1 25 24 21 2 0.13718535D+00 0.24506398D-01 0.13875903D+06 0.13875903D+06 0.13875903D+06 0.11507251D+01  1  2  6  2  5  2       -1 0.646852551303D+00 0.100000000000D+01
0.138765459765D-03 0.000000000000D+00 0.000000000000D+00 0.192211252447D-02 0.000000000000D+00  5 2 21 25 24 1 2 0.13718535D+00 0.31667276D-01 0.19867457D+06 0.19867457D+06 0.19867457D+06 0.11371384D+01  1  2 12  4  5  2       -1 0.625515034949D-01 0.100000000000D+01
-.280582032913D-03 0.000000000000D+00 -.157349453148D-03 0.192211252447D-02 0.000000000000D+00  5 2 21 25 24 1 2 0.13718535D+00 0.34903125D-01 0.13875903D+06 0.13875903D+06 0.13875903D+06 0.11507251D+01  1  2  5  4  5  2       -1 -.108199375865D+00 0.100000000000D+01
  </mgrwgt>
  </event>
  <event>
  4     66 0.48098993E-03 0.74156884E+02 0.75467711E-02 0.11885187E+00
        2 -1    0    0  501    0 0.00000000E+00 0.00000000E+00 0.52138276E+03 0.52138286E+03 0.32000000E+00 0.0000E+00 0.9000E+01
       -1 -1    0    0    0  501 0.00000000E+00 0.00000000E+00 -.47250690E+02 0.47251773E+02 0.32000000E+00 0.0000E+00 0.9000E+01
       25  1    1    2    0    0 0.93514614E+02 0.48090790E+02 0.16419218E+03 0.23160695E+03 0.12500000E+03 0.0000E+00 0.9000E+01
       24  1    1    2    0    0 -.93514614E+02 -.48090790E+02 0.30993988E+03 0.33702768E+03 0.80419002E+02 0.0000E+00 0.9000E+01
#aMCatNLO 1  0  0  1  2 0.23610643D+02 0.00000000D+00  -5  5  0 0.00000000D+00 0.00000000D+00 0.00000000D+00 0.00000000D+00 0.00000000D+00
  <mgrwgt>
 0.4999277179D+00    9    2    0
 0.156958691827000D+03 0.000000000000000D+00 0.000000000000000D+00 0.156958691827000D+03
 0.156958691827000D+03 0.000000000000000D+00 0.000000000000000D+00 -.156958691827000D+03
 0.171544988289835D+03 0.935146141029937D+02 0.480907904038261D+02 -.523925169739261D+02
 0.142372395364165D+03 -.935146141029937D+02 -.480907904038261D+02 0.523925169739261D+02
 0.000000000000000D+00 0.000000000000000D+00 -.000000000000000D+00 0.000000000000000D+00
 0.180044532265756D+03 0.000000000000000D+00 0.000000000000000D+00 0.180044532265756D+03
 0.163557064699447D+03 0.000000000000000D+00 0.000000000000000D+00 -.163557064699447D+03
 0.170620779639445D+03 0.856967805460198D+02 0.582883900442981D+02 -.523925169739261D+02
 0.144183264522738D+03 -.100061863020856D+03 -.395505442187026D+02 0.523925169739261D+02
 0.287975528030204D+02 0.143650824748367D+02 -.187378458255955D+02 0.164874675663092D+02
0.452790195152D-03 0.000000000000D+00 0.000000000000D+00 0.211571857822D-02 0.000000000000D+00  5 2 -1 25 24 21 0 0.80212823D-01 0.72694278D-02 0.21864081D+05 0.21864081D+05 0.21864081D+05 0.12295880D+01  1  2  2  1  5  1        2 0.294542785581D+00 0.100000000000D+01
-.250460678830D-04 0.000000000000D+00 -.173883357178D-05 0.211571857822D-02 0.000000000000D+00  5 2 -1 25 24 21 2 0.80212823D-01 0.72694278D-02 0.21864081D+05 0.21864081D+05 0.21864081D+05 0.12295880D+01  1  2  3  1  5  1        2 -.246325945087D-01 0.100000000000D+01
0.312510118958D-04 0.000000000000D+00 0.000000000000D+00 0.211571857822D-02 0.000000000000D+00  5 2 -1 25 24 21 2 0.80212823D-01 0.72694278D-02 0.21864081D+05 0.21864081D+05 0.21864081D+05 0.12295880D+01  1  2 15  1  5  1        2 0.307351041135D-01 0.100000000000D+01
0.101119000551D-02 0.000000000000D+00 0.000000000000D+00 0.211571857822D-02 0.000000000000D+00  5 2 -1 25 24 21 2 0.93521484D-01 0.72694278D-02 0.25650515D+05 0.25650515D+05 0.25650515D+05 0.12221034D+01  1  2 12  1  5  1        2 0.829574133699D+00 0.100000000000D+01
-.101438177947D-02 0.000000000000D+00 0.000000000000D+00 0.211571857822D-02 0.000000000000D+00  5 2 -1 25 24 21 2 0.80212823D-01 0.72694278D-02 0.21864081D+05 0.21864081D+05 0.21864081D+05 0.12295880D+01  1  2  4  1  5  1        2 -.997635843173D+00 0.100000000000D+01
-.209094506741D-02 0.000000000000D+00 -.424328719705D-03 0.211571857822D-02 0.000000000000D+00  5 2 -1 25 24 21 2 0.94746409D-01 0.72694278D-02 0.21864081D+05 0.21864081D+05 0.21864081D+05 0.12295880D+01  1  2  5  1  5  1        2 -.170433557948D+01 0.100000000000D+01
0.213771345261D-02 0.000000000000D+00 0.418512808130D-03 0.211571857822D-02 0.000000000000D+00  5 2 -1 25 24 21 2 0.80212823D-01 0.72694278D-02 0.21864081D+05 0.21864081D+05 0.21864081D+05 0.12295880D+01  1  2  6  1  5  1        2 0.210242297913D+01 0.100000000000D+01
0.235009949880D-04 0.000000000000D+00 0.000000000000D+00 0.211571857822D-02 0.000000000000D+00  5 21 -1 25 24 -2 2 0.93521484D-01 0.72694278D-02 0.25650515D+05 0.25650515D+05 0.25650515D+05 0.12221034D+01  1  2 12  3  5  1        2 0.300590344234D-01 0.100000000000D+01
-.483158680566D-04 0.000000000000D+00 -.105251801740D-04 0.211571857822D-02 0.000000000000D+00  5 21 -1 25 24 -2 2 0.94746409D-01 0.72694278D-02 0.21864081D+05 0.21864081D+05 0.21864081D+05 0.12295880D+01  1  2  5  3  5  1        2 -.608023018594D-01 0.100000000000D+01
  </mgrwgt>
  </event>
  <event>
  4     66 0.48098993E-03 0.22445736E+03 0.75467711E-02 0.10841783E+00
        2 -1    0    0  501    0 0.00000000E+00 0.00000000E+00 0.11316106E+04 0.11316107E+04 0.32000000E+00 0.0000E+00 0.9000E+01
       -1 -1    0    0    0  501 0.00000000E+00 0.00000000E+00 -.47983891E+02 0.47984958E+02 0.32000000E+00 0.0000E+00 0.9000E+01
       25  1    1    2    0    0 0.15849464E+03 0.11965988E+03 0.72294843E+03 0.76007793E+03 0.12500000E+03 0.0000E+00 0.9000E+01
       24  1    1    2    0    0 -.15849464E+03 -.11965988E+03 0.36067830E+03 0.41951769E+03 0.80419002E+02 0.0000E+00 0.9000E+01
#aMCatNLO 1  0  0  2  1 0.13545611D+03 0.00000000D+00  -5  5  0 0.00000000D+00 0.00000000D+00 0.00000000D+00 0.00000000D+00 0.00000000D+00
  <mgrwgt>
 0.3428321396D+00    4    2    0
 0.233023037652204D+03 0.000000000000000D+00 0.000000000000000D+00 0.233023037652204D+03
 0.233023037652204D+03 0.000000000000000D+00 0.000000000000000D+00 -.233023037652204D+03
 0.242848014763799D+03 0.158494637121238D+03 0.119659881919515D+03 0.625389553601046D+02
 0.223198060540608D+03 -.158494637121238D+03 -.119659881919515D+03 -.625389553601046D+02
 0.000000000000000D+00 -.000000000000000D+00 0.000000000000000D+00 0.000000000000000D+00
 0.325650908751252D+03 0.000000000000000D+00 0.000000000000000D+00 0.325650908751252D+03
 0.297942315970703D+03 0.000000000000000D+00 0.000000000000000D+00 -.297942315970703D+03
 0.262857231620029D+03 0.211143034286500D+03 0.705437619474784D+02 0.625389553601046D+02
 0.222474924114808D+03 -.112096130343326D+03 -.162945428073443D+03 -.625389553601046D+02
 0.138261068987119D+03 -.990469039431737D+02 0.924016661259650D+02 0.277085927805488D+02
0.194949893322D-02 0.000000000000D+00 0.000000000000D+00 0.194343476635D-02 0.000000000000D+00  5 2 -1 25 24 21 0 0.17409403D+00 0.73822226D-02 0.50381107D+05 0.50381107D+05 0.50381107D+05 0.11919553D+01  1  2  2  2  5  2       -1 0.472003791677D+00 0.100000000000D+01
-.108120794186D-03 0.000000000000D+00 -.748658921843D-05 0.194343476635D-02 0.000000000000D+00  5 2 -1 25 24 21 2 0.17409403D+00 0.73822226D-02 0.50381107D+05 0.50381107D+05 0.50381107D+05 0.11919553D+01  1  2  3  2  5  2       -1 -.371921817014D-01 0.100000000000D+01
0.133911119153D-03 0.000000000000D+00 0.000000000000D+00 0.194343476635D-02 0.000000000000D+00  5 2 -1 25 24 21 2 0.17409403D+00 0.73822226D-02 0.50381107D+05 0.50381107D+05 0.50381107D+05 0.11919553D+01  1  2 15  2  5  2       -1 0.460637263430D-01 0.100000000000D+01
-.401303160397D-03 0.000000000000D+00 0.000000000000D+00 0.194343476635D-02 0.000000000000D+00  5 2 -1 25 24 21 2 0.17409403D+00 0.73822226D-02 0.50381107D+05 0.50381107D+05 0.50381107D+05 0.11919553D+01  1  2  4  2  5  2       -1 -.138043196697D+00 0.100000000000D+01
  </mgrwgt>
  </event>
  <event>
  4     66 0.48098993E-03 0.69499258E+02 0.75467711E-02 0.12332630E+00
        2 -1    0    0  501    0 0.00000000E+00 0.00000000E+00 0.24695062E+03 0.24695083E+03 0.32000000E+00 0.0000E+00 0.9000E+01
       -1 -1    0    0    0  501 0.00000000E+00 0.00000000E+00 -.61700440E+02 0.61701269E+02 0.32000000E+00 0.0000E+00 0.9000E+01
       25  1    1    2    0    0 0.66283253E+00 0.48176959E+02 0.16536349E+03 0.21281810E+03 0.12500000E+03 0.0000E+00 0.9000E+01
       24  1    1    2    0    0 -.66283253E+00 -.48176959E+02 0.19886688E+02 0.95833997E+02 0.80419002E+02 0.0000E+00 0.9000E+01
#aMCatNLO 1  0  0  2  1 0.23394568D+02 0.00000000D+00  -5  5  0 0.00000000D+00 0.00000000D+00 0.00000000D+00 0.00000000D+00 0.00000000D+00
  <mgrwgt>
 0.3442936909D+00    9    2    0
 0.123438736966945D+03 0.000000000000000D+00 0.000000000000000D+00 0.123438736966945D+03
 0.123438736966945D+03 0.000000000000000D+00 0.000000000000000D+00 -.123438736966945D+03
 0.141985961830567D+03 0.662832529351474D+00 0.481769589813896D+02 0.470484285953820D+02
 0.104891512103324D+03 -.662832529351474D+00 -.481769589813896D+02 -.470484285953820D+02
 0.000000000000000D+00 -.000000000000000D+00 0.000000000000000D+00 -.000000000000000D+00
 0.127898749669938D+03 0.000000000000000D+00 0.000000000000000D+00 0.127898749669938D+03
 0.159012367895421D+03 0.000000000000000D+00 0.000000000000000D+00 -.159012367895421D+03
 0.142286391398773D+03 0.140505951242657D+02 0.470047159404670D+02 0.470484285953820D+02
 0.105697061607514D+03 0.925480384300374D+01 -.490453550361800D+02 -.470484285953820D+02
 0.389276645590718D+02 -.233053989672695D+02 0.204063909571301D+01 -.311136182254822D+02
0.299599190817D-03 0.000000000000D+00 0.000000000000D+00 0.237663836374D-02 0.000000000000D+00  5 2 -1 25 24 21 0 0.37992483D-01 0.94924551D-02 0.12963226D+05 0.12963226D+05 0.12963226D+05 0.12551131D+01  1  2  2  2  5  2       -1 0.284584969070D+00 0.100000000000D+01
-.165122487184D-04 0.000000000000D+00 -.115053977902D-05 0.237663836374D-02 0.000000000000D+00  5 2 -1 25 24 21 2 0.37992483D-01 0.94924551D-02 0.12963226D+05 0.12963226D+05 0.12963226D+05 0.12551131D+01  1  2  3  2  5  2       -1 -.247083230864D-01 0.100000000000D+01
0.206946209915D-04 0.000000000000D+00 0.000000000000D+00 0.237663836374D-02 0.000000000000D+00  5 2 -1 25 24 21 2 0.37992483D-01 0.94924551D-02 0.12963226D+05 0.12963226D+05 0.12963226D+05 0.12551131D+01  1  2 15  2  5  2       -1 0.309666714889D-01 0.100000000000D+01
0.627537055539D-03 0.000000000000D+00 0.000000000000D+00 0.237663836374D-02 0.000000000000D+00  5 2 -1 25 24 21 2 0.37992483D-01 0.12364072D-01 0.15917066D+05 0.15917066D+05 0.15917066D+05 0.12448952D+01  1  2 12  2  5  2       -1 0.621280141715D+00 0.100000000000D+01
-.637992221100D-03 0.000000000000D+00 0.000000000000D+00 0.237663836374D-02 0.000000000000D+00  5 2 -1 25 24 21 2 0.37992483D-01 0.94924551D-02 0.12963226D+05 0.12963226D+05 0.12963226D+05 0.12551131D+01  1  2  4  2  5  2       -1 -.954668149345D+00 0.100000000000D+01
-.853165765104D-03 0.000000000000D+00 -.149445285063D-03 0.237663836374D-02 0.000000000000D+00  5 2 -1 25 24 21 2 0.37992483D-01 0.12632461D-01 0.12963226D+05 0.12963226D+05 0.12963226D+05 0.12551131D+01  1  2  5  2  5  2       -1 -.825104239023D+00 0.100000000000D+01
0.866165007875D-03 0.000000000000D+00 0.143543963687D-03 0.237663836374D-02 0.000000000000D+00  5 2 -1 25 24 21 2 0.37992483D-01 0.94924551D-02 0.12963226D+05 0.12963226D+05 0.12963226D+05 0.12551131D+01  1  2  6  2  5  2       -1 0.129609753497D+01 0.100000000000D+01
0.221236940634D-04 0.000000000000D+00 0.000000000000D+00 0.237663836374D-02 0.000000000000D+00  5 2 21 25 24 1 2 0.37992483D-01 0.12364072D-01 0.15917066D+05 0.15917066D+05 0.15917066D+05 0.12448952D+01  1  2 12  4  5  2       -1 0.315503836962D+00 0.100000000000D+01
-.287339619342D-04 0.000000000000D+00 -.557719653853D-05 0.237663836374D-02 0.000000000000D+00  5 2 21 25 24 1 2 0.37992483D-01 0.12632461D-01 0.12963226D+05 0.12963226D+05 0.12963226D+05 0.12551131D+01  1  2  5  4  5  2       -1 -.399658751888D+00 0.100000000000D+01
  </mgrwgt>
  </event>
  <event>
  4     66 0.48098993E-03 0.11515358E+03 0.75467711E-02 0.10149928E+00
        2 -1    0    0  501    0 0.00000000E+00 0.00000000E+00 0.61452703E+02 0.61453536E+02 0.32000000E+00 0.0000E+00 0.9000E+01
       -1 -1    0    0    0  501 0.00000000E+00 0.00000000E+00 -.21837174E+03 0.21837197E+03 0.32000000E+00 0.0000E+00 0.9000E+01
       25  1    1    2    0    0 -.16001296E+02 0.48512666E+02 -.10686433E+03 0.17220483E+03 0.12500000E+03 0.0000E+00 0.9000E+01
       24  1    1    2    0    0 0.16001296E+02 -.48512666E+02 -.50054710E+02 0.10762068E+03 0.80419002E+02 0.0000E+00 0.9000E+01
#aMCatNLO 1  0  0  1  1 0.46860284D+03 0.00000000D+00  -5  5  0 0.00000000D+00 0.00000000D+00 0.00000000D+00 0.00000000D+00 0.00000000D+00
  <mgrwgt>
 0.4373465492D+00    3    2    0
 0.115843355611722D+03 0.000000000000000D+00 0.000000000000000D+00 0.115843355611722D+03
 0.115843355611722D+03 0.000000000000000D+00 0.000000000000000D+00 -.115843355611722D+03
 0.135606647164507D+03 -.160012957359687D+02 0.485126660695145D+02 -.124355346003656D+02
 0.960800640589378D+02 0.160012957359687D+02 -.485126660695145D+02 0.124355346003656D+02
 0.000000000000000D+00 -.000000000000000D+00 0.000000000000000D+00 -.000000000000000D+00
 0.317679617422271D+03 0.000000000000000D+00 0.000000000000000D+00 0.317679617422271D+03
 0.123637594700935D+04 0.000000000000000D+00 0.000000000000000D+00 -.123637594700935D+04
 0.231509197768283D+03 0.185607362170947D+03 -.580239023029291D+02 -.124355346003656D+02
 0.291240606256868D+03 0.228705818299609D+03 -.160912650011136D+03 0.124355346003656D+02
 0.103130576040647D+04 -.414313180470556D+03 0.218936552314066D+03 -.918696329587081D+03
0.692207785746D-03 0.000000000000D+00 0.000000000000D+00 0.284003412906D-02 0.000000000000D+00  5 2 -1 25 24 21 0 0.94543442D-02 0.33595734D-01 0.13260347D+05 0.13260347D+05 0.13260347D+05 0.12539723D+01  1  2  2  1  5  1        2 0.428165269421D+00 0.100000000000D+01
-.384543204277D-04 0.000000000000D+00 -.265826015976D-05 0.284003412906D-02 0.000000000000D+00  5 2 -1 25 24 21 2 0.94543442D-02 0.33595734D-01 0.13260347D+05 0.13260347D+05 0.13260347D+05 0.12539723D+01  1  2  3  1  5  1        2 -.374021009252D-01 0.100000000000D+01
0.478938937286D-04 0.000000000000D+00 0.000000000000D+00 0.284003412906D-02 0.000000000000D+00  5 2 -1 25 24 21 2 0.94543442D-02 0.33595734D-01 0.13260347D+05 0.13260347D+05 0.13260347D+05 0.12539723D+01  1  2 15  1  5  1        2 0.465833806713D-01 0.100000000000D+01
  </mgrwgt>
  </event>
  <event>
  4     66 0.48098993E-03 0.10641730E+03 0.75467711E-02 0.10686055E+00
        2 -1    0    0  501    0 0.00000000E+00 0.00000000E+00 0.12641564E+04 0.12641564E+04 0.32000000E+00 0.0000E+00 0.9000E+01
       -1 -1    0    0    0  501 0.00000000E+00 0.00000000E+00 -.11578695E+02 0.11583116E+02 0.32000000E+00 0.0000E+00 0.9000E+01
       25  1    1    2    0    0 0.23144595E+02 -.14342513E+02 0.42551375E+03 0.44432908E+03 0.12500000E+03 0.0000E+00 0.9000E+01
       24  1    1    2    0    0 -.23144595E+02 0.14342513E+02 0.82706395E+03 0.83141047E+03 0.80419002E+02 0.0000E+00 0.9000E+01
#aMCatNLO 1  0  0  2  1 0.30175650D+03 0.00000000D+00  -5  5  0 0.00000000D+00 0.00000000D+00 0.00000000D+00 0.00000000D+00 0.00000000D+00
  <mgrwgt>
 0.4933174064D+00    5    2    0
 0.120996395430606D+03 0.000000000000000D+00 0.000000000000000D+00 0.120996395430606D+03
 0.120996395430606D+03 0.000000000000000D+00 0.000000000000000D+00 -.120996395430606D+03
 0.139918000518589D+03 0.231445954683052D+02 -.143425131602300D+02 -.566627468975606D+02
 0.102074790342623D+03 -.231445954683052D+02 0.143425131602300D+02 0.566627468975606D+02
 0.000000000000000D+00 0.000000000000000D+00 0.000000000000000D+00 -.000000000000000D+00
 0.276618104714431D+03 0.000000000000000D+00 0.000000000000000D+00 0.276618104714431D+03
 0.466958242705320D+03 0.000000000000000D+00 0.000000000000000D+00 -.466958242705320D+03
 0.199260121412395D+03 -.135886710589080D+03 -.490278592698599D+02 -.566627468975606D+02
 0.187544091185684D+03 -.158938934814573D+03 -.152747601724447D+02 0.566627468975606D+02
 0.356772134821671D+03 0.294825645403653D+03 0.643026194423046D+02 -.190340137990889D+03
0.229800745338D-03 0.000000000000D+00 0.000000000000D+00 0.223898415133D-02 0.000000000000D+00  5 2 -1 25 24 21 0 0.19448594D+00 0.17816809D-02 0.11324642D+05 0.11324642D+05 0.11324642D+05 0.12619832D+01  1  2  2  2  5  2       -1 0.369986204745D+00 0.100000000000D+01
-.125108257580D-04 0.000000000000D+00 -.882495370024D-06 0.223898415133D-02 0.000000000000D+00  5 2 -1 25 24 21 2 0.19448594D+00 0.17816809D-02 0.11324642D+05 0.11324642D+05 0.11324642D+05 0.12619832D+01  1  2  3  2  5  2       -1 -.320794717106D-01 0.100000000000D+01
0.157792502438D-04 0.000000000000D+00 0.000000000000D+00 0.223898415133D-02 0.000000000000D+00  5 2 -1 25 24 21 2 0.19448594D+00 0.17816809D-02 0.11324642D+05 0.11324642D+05 0.11324642D+05 0.12619832D+01  1  2 15  2  5  2       -1 0.404601599928D-01 0.100000000000D+01
0.384170547234D-03 0.000000000000D+00 -.159092129564D-03 0.223898415133D-02 0.000000000000D+00  5 2 -1 25 24 21 2 0.19448594D+00 0.18390362D-01 0.11324642D+05 0.11324642D+05 0.11324642D+05 0.12619832D+01  1  2  5  2  5  2       -1 0.306565949272D-01 0.100000000000D+01
0.800976905857D-04 0.000000000000D+00 -.440378904881D-04 0.223898415133D-02 0.000000000000D+00  5 2 21 25 24 1 2 0.19448594D+00 0.18390362D-01 0.11324642D+05 0.11324642D+05 0.11324642D+05 0.12619832D+01  1  2  5  4  5  2       -1 0.842939184859D-01 0.100000000000D+01
  </mgrwgt>
  </event>
  <event>
  4     66 0.48098993E-03 0.19288159E+03 0.75467711E-02 0.11382554E+00
        2 -1    0    0  501    0 0.00000000E+00 0.00000000E+00 0.17719000E+03 0.17719029E+03 0.32000000E+00 0.0000E+00 0.9000E+01
       -1 -1    0    0    0  501 0.00000000E+00 0.00000000E+00 -.27685525E+03 0.27685544E+03 0.32000000E+00 0.0000E+00 0.9000E+01
       25  1    1    2    0    0 0.35985468E+02 0.15812380E+03 -.16359000E+03 0.26207781E+03 0.12500000E+03 0.0000E+00 0.9000E+01
       24  1    1    2    0    0 -.35985468E+02 -.15812380E+03 0.63924750E+02 0.19196791E+03 0.80419002E+02 0.0000E+00 0.9000E+01
#aMCatNLO 1  0  0  1  1 0.40420320D+02 0.00000000D+00  -5  5  0 0.00000000D+00 0.00000000D+00 0.00000000D+00 0.00000000D+00 0.00000000D+00
  <mgrwgt>
 0.3571427142D+00    4    2    0
 0.221486093760473D+03 0.000000000000000D+00 0.000000000000000D+00 0.221486093760473D+03
 0.221486093760473D+03 0.000000000000000D+00 0.000000000000000D+00 -.221486093760473D+03
 0.231822842097745D+03 0.359854678606580D+02 0.158123801834977D+03 -.108714026300098D+03
 0.211149345423202D+03 -.359854678606580D+02 -.158123801834977D+03 0.108714026300098D+03
 0.000000000000000D+00 -.000000000000000D+00 0.000000000000000D+00 -.000000000000000D+00
 0.225196407061236D+03 0.000000000000000D+00 0.000000000000000D+00 0.225196407061236D+03
 0.368796092945971D+03 0.000000000000000D+00 0.000000000000000D+00 -.368796092945971D+03
 0.223000441089607D+03 0.480928482042963D+02 0.141324220016881D+03 -.108714026300098D+03
 0.221812060069329D+03 -.244600499583934D+02 -.174115882329796D+03 0.108714026300098D+03
 0.149179998848271D+03 -.236327982459029D+02 0.327916623129159D+02 -.143599685884734D+03
0.301659942172D-02 0.000000000000D+00 0.000000000000D+00 0.162204760837D-02 0.000000000000D+00  5 2 -1 25 24 21 0 0.27260037D-01 0.42593152D-01 0.37203309D+05 0.37203309D+05 0.37203309D+05 0.12052101D+01  1  2  2  1  5  1        2 0.367734268760D+00 0.100000000000D+01
-.163692432931D-03 0.000000000000D+00 -.115845360683D-04 0.162204760837D-02 0.000000000000D+00  5 2 -1 25 24 21 2 0.27260037D-01 0.42593152D-01 0.37203309D+05 0.37203309D+05 0.37203309D+05 0.12052101D+01  1  2  3  1  5  1        2 -.289848171374D-01 0.100000000000D+01
0.206844242783D-03 0.000000000000D+00 0.000000000000D+00 0.162204760837D-02 0.000000000000D+00  5 2 -1 25 24 21 2 0.27260037D-01 0.42593152D-01 0.37203309D+05 0.37203309D+05 0.37203309D+05 0.12052101D+01  1  2 15  1  5  1        2 0.366256548678D-01 0.100000000000D+01
-.102967862274D-03 0.000000000000D+00 0.000000000000D+00 0.162204760837D-02 0.000000000000D+00  5 2 -1 25 24 21 2 0.27260037D-01 0.42593152D-01 0.37203309D+05 0.37203309D+05 0.37203309D+05 0.12052101D+01  1  2  4  1  5  1        2 -.182323923324D-01 0.100000000000D+01
  </mgrwgt>
  </event>
  <event>
  4     66 0.48098993E-03 0.94989998E+02 0.75467711E-02 0.11675230E+00
        2 -1    0    0  501    0 0.00000000E+00 0.00000000E+00 0.98370348E+03 0.98370354E+03 0.32000000E+00 0.0000E+00 0.9000E+01
       -1 -1    0    0    0  501 0.00000000E+00 0.00000000E+00 -.21892068E+02 0.21894407E+02 0.32000000E+00 0.0000E+00 0.9000E+01
       25  1    1    2    0    0 -.30412048E+02 0.79980471E+02 0.33189870E+03 0.36483355E+03 0.12500000E+03 0.0000E+00 0.9000E+01
       24  1    1    2    0    0 0.30412048E+02 -.79980471E+02 0.62991272E+03 0.64076440E+03 0.80419002E+02 0.0000E+00 0.9000E+01
#aMCatNLO 1  0  0  1  2 0.80007942D+02 0.00000000D+00  -5  5  0 0.00000000D+00 0.00000000D+00 0.00000000D+00 0.00000000D+00 0.00000000D+00
  <mgrwgt>
 0.3840037317D+00    9    2    0
 0.146753213768898D+03 0.000000000000000D+00 0.000000000000000D+00 0.146753213768898D+03
 0.146753213768898D+03 0.000000000000000D+00 0.000000000000000D+00 -.146753213768898D+03
 0.162353867087555D+03 -.304120479735786D+02 0.799804706298222D+02 -.584124114736620D+02
 0.131152560450241D+03 0.304120479735786D+02 -.799804706298222D+02 0.584124114736620D+02
 0.000000000000000D+00 -.000000000000000D+00 -.000000000000000D+00 0.000000000000000D+00
 0.226811305242589D+03 0.000000000000000D+00 0.000000000000000D+00 0.226811305242589D+03
 0.173530229227615D+03 0.000000000000000D+00 0.000000000000000D+00 -.173530229227615D+03
 0.168066675842242D+03 0.110691442471987D+02 0.953250846321557D+02 -.584124114736620D+02
 0.136149191353486D+03 0.639692694744122D+02 -.675670711262471D+02 0.584124114736620D+02
 0.961256672744761D+02 -.750384137216109D+02 -.277580135059085D+02 0.532810760149741D+02
0.388452598956D-03 0.000000000000D+00 0.000000000000D+00 0.208529139671D-02 0.000000000000D+00  5 2 -1 25 24 21 0 0.15133918D+00 0.33681944D-02 0.18077934D+05 0.18077934D+05 0.18077934D+05 0.12386864D+01  1  2  2  1  5  1        2 0.364303751516D+00 0.100000000000D+01
-.213796759682D-04 0.000000000000D+00 -.149176026191D-05 0.208529139671D-02 0.000000000000D+00  5 2 -1 25 24 21 2 0.15133918D+00 0.33681944D-02 0.18077934D+05 0.18077934D+05 0.18077934D+05 0.12386864D+01  1  2  3  1  5  1        2 -.307644738349D-01 0.100000000000D+01
0.268808923813D-04 0.000000000000D+00 0.000000000000D+00 0.208529139671D-02 0.000000000000D+00  5 2 -1 25 24 21 2 0.15133918D+00 0.33681944D-02 0.18077934D+05 0.18077934D+05 0.18077934D+05 0.12386864D+01  1  2 15  1  5  1        2 0.386804978501D-01 0.100000000000D+01
0.108492820369D-03 0.000000000000D+00 0.000000000000D+00 0.208529139671D-02 0.000000000000D+00  5 2 -1 25 24 21 2 0.24161006D+00 0.33681944D-02 0.32504368D+05 0.32504368D+05 0.32504368D+05 0.12112608D+01  1  2 12  1  5  1        2 0.716024334321D-01 0.100000000000D+01
-.256427657998D-03 0.000000000000D+00 0.000000000000D+00 0.208529139671D-02 0.000000000000D+00  5 2 -1 25 24 21 2 0.15133918D+00 0.33681944D-02 0.18077934D+05 0.18077934D+05 0.18077934D+05 0.12386864D+01  1  2  4  1  5  1        2 -.368988846546D+00 0.100000000000D+01
-.302367019350D-03 0.000000000000D+00 -.142433764324D-03 0.208529139671D-02 0.000000000000D+00  5 2 -1 25 24 21 2 0.25495665D+00 0.33681944D-02 0.18077934D+05 0.18077934D+05 0.18077934D+05 0.12386864D+01  1  2  5  1  5  1        2 -.187356268159D+00 0.100000000000D+01
0.345924372333D-03 0.000000000000D+00 0.125037411003D-03 0.208529139671D-02 0.000000000000D+00  5 2 -1 25 24 21 2 0.15133918D+00 0.33681944D-02 0.18077934D+05 0.18077934D+05 0.18077934D+05 0.12386864D+01  1  2  6  1  5  1        2 0.497770935226D+00 0.100000000000D+01
0.580739835670D-05 0.000000000000D+00 0.000000000000D+00 0.208529139671D-02 0.000000000000D+00  5 21 -1 25 24 -2 2 0.24161006D+00 0.33681944D-02 0.32504368D+05 0.32504368D+05 0.32504368D+05 0.12112608D+01  1  2 12  3  5  1        2 0.178769252926D-02 0.100000000000D+01
-.109046454116D-04 0.000000000000D+00 -.830706855681D-05 0.208529139671D-02 0.000000000000D+00  5 21 -1 25 24 -2 2 0.25495665D+00 0.33681944D-02 0.18077934D+05 0.18077934D+05 0.18077934D+05 0.12386864D+01  1  2  5  3  5  1        2 -.303199027846D-02 0.100000000000D+01
  </mgrwgt>
  </event>
  <event>
  5     66 -.48098993E-03 0.15518312E+03 0.75467711E-02 0.11795024E+00
        2 -1    0    0  501    0 0.00000000E+00 0.00000000E+00 0.25955258E+04 0.25955258E+04 0.32000000E+00 0.0000E+00 0.9000E+01
       -1 -1    0    0    0  502 0.00000000E+00 0.00000000E+00 -.11067993E+02 0.11072618E+02 0.32000000E+00 0.0000E+00 0.9000E+01
       25  1    1    2    0    0 -.10093254E+03 -.11921788E+02 0.11089678E+04 0.11206088E+04 0.12500000E+03 0.0000E+00 0.9000E+01
       24  1    1    2    0    0 0.12587197E+03 0.16864259E+02 0.13011139E+04 0.13097682E+04 0.80419002E+02 0.0000E+00 0.9000E+01
       21  1    1    2  501  502 -.24939421E+02 -.49424712E+01 0.17437608E+03 0.17622140E+03 0.75000000E+00 0.0000E+00 0.9000E+01
#aMCatNLO 2  0  0  2  1 0.25424452D+02 0.00000000D+00  -5  5  0 0.00000000D+00 0.00000000D+00 0.00000000D+00 0.00000000D+00 0.00000000D+00
  <mgrwgt>
 -.1084554369D+00    2    2    0
 0.156198750558404D+03 0.000000000000000D+00 0.000000000000000D+00 0.156198750558404D+03
 0.156198750558404D+03 0.000000000000000D+00 0.000000000000000D+00 -.156198750558404D+03
 0.170856012560966D+03 -.114199895496979D+03 -.145510987809771D+02 -.177038532805282D+02
 0.141541488555842D+03 0.114199895496979D+03 0.145510987809771D+02 0.177038532805282D+02
 0.000000000000000D+00 -.000000000000000D+00 -.000000000000000D+00 -.000000000000000D+00
 0.168060715954603D+03 0.000000000000000D+00 0.000000000000000D+00 0.168060715954603D+03
 0.170958747493208D+03 0.000000000000000D+00 0.000000000000000D+00 -.170958747493208D+03
 0.162073853507065D+03 -.100932544557747D+03 -.119217875651873D+02 -.177038532805282D+02
 0.151356523841144D+03 0.125871965551157D+03 0.168642587211567D+02 0.177038532805282D+02
 0.255890860996020D+02 -.249394209934093D+02 -.494247115596934D+01 -.289803153860548D+01
-.596587069033D-03 0.000000000000D+00 0.000000000000D+00 0.233506261091D-02 0.000000000000D+00  5 2 -1 25 24 21 2 0.37111596D+00 0.17572062D-02 0.28366315D+05 0.28366315D+05 0.28366315D+05 0.12174590D+01  1  2 13  2  5  2       -1 -.374211039778D+00 0.100000000000D+01
0.508280093748D-03 0.000000000000D+00 0.000000000000D+00 0.233506261091D-02 0.286505093062D-04  5 2 -1 25 24 21 2 0.39929906D+00 0.17030701D-02 0.28366315D+05 0.28366315D+05 0.28366315D+05 0.12174590D+01  1  2  1  2  5  2       -1 0.265755602855D+00 0.100000000000D+01
  </mgrwgt>
  </event>
  <event>
  4     66 0.48098993E-03 0.92404045E+02 0.75467711E-02 0.12198793E+00
        2 -1    0    0  501    0 0.00000000E+00 0.00000000E+00 0.21922596E+04 0.21922596E+04 0.32000000E+00 0.0000E+00 0.9000E+01
       -1 -1    0    0    0  501 0.00000000E+00 0.00000000E+00 -.78422065E+01 0.78487326E+01 0.32000000E+00 0.0000E+00 0.9000E+01
       25  1    1    2    0    0 -.66101513E+02 -.40772567E+00 0.85426975E+03 0.86589340E+03 0.12500000E+03 0.0000E+00 0.9000E+01
       24  1    1    2    0    0 0.66101513E+02 0.40772567E+00 0.13301476E+04 0.13342149E+04 0.80419002E+02 0.0000E+00 0.9000E+01
#aMCatNLO 1  0  0  2  1 0.23662457D+02 0.00000000D+00  -5  5  0 0.00000000D+00 0.00000000D+00 0.00000000D+00 0.00000000D+00 0.00000000D+00
  <mgrwgt>
 0.3346205613D+00    9    2    0
 0.131146318760186D+03 0.000000000000000D+00 0.000000000000000D+00 0.131146318760186D+03
 0.131146318760186D+03 0.000000000000000D+00 0.000000000000000D+00 -.131146318760186D+03
 0.148603507288625D+03 -.661015128191425D+02 -.407725665036191D+00 -.456993013216102D+02
 0.113689130231747D+03 0.661015128191425D+02 0.407725665036191D+00 0.456993013216102D+02
 0.000000000000000D+00 -.000000000000000D+00 -.000000000000000D+00 -.000000000000000D+00
 0.136411511453268D+03 0.000000000000000D+00 0.000000000000000D+00 0.136411511453268D+03
 0.161256280401189D+03 0.000000000000000D+00 0.000000000000000D+00 -.161256280401189D+03
 0.143945830129351D+03 -.545214749319884D+02 0.586384187929057D+01 -.456993013216102D+02
 0.119411986455464D+03 0.753284001079666D+02 0.540486362085779D+01 0.456993013216102D+02
 0.343099752696419D+02 -.208069251759782D+02 -.112687055001484D+02 -.248447689479216D+02
0.378612676539D-03 0.000000000000D+00 0.000000000000D+00 0.232476850868D-02 0.000000000000D+00  5 2 -1 25 24 21 0 0.33727120D+00 0.12069971D-02 0.15067819D+05 0.15067819D+05 0.15067819D+05 0.12475993D+01  1  2  2  2  5  2       -1 0.356908394319D+00 0.100000000000D+01
-.209221108093D-04 0.000000000000D+00 -.145397236892D-05 0.232476850868D-02 0.000000000000D+00  5 2 -1 25 24 21 2 0.33727120D+00 0.12069971D-02 0.15067819D+05 0.15067819D+05 0.15067819D+05 0.12475993D+01  1  2  3  2  5  2       -1 -.306985116322D-01 0.100000000000D+01
0.261955090247D-04 0.000000000000D+00 0.000000000000D+00 0.232476850868D-02 0.000000000000D+00  5 2 -1 25 24 21 2 0.33727120D+00 0.12069971D-02 0.15067819D+05 0.15067819D+05 0.15067819D+05 0.12475993D+01  1  2 15  2  5  2       -1 0.384360424165D-01 0.100000000000D+01
0.689546281444D-03 0.000000000000D+00 0.000000000000D+00 0.232476850868D-02 0.000000000000D+00  5 2 -1 25 24 21 2 0.33727120D+00 0.15044195D-02 0.18290234D+05 0.18290234D+05 0.18290234D+05 0.12381218D+01  1  2 12  2  5  2       -1 0.728712032859D+00 0.100000000000D+01
-.703444927798D-03 0.000000000000D+00 0.000000000000D+00 0.232476850868D-02 0.000000000000D+00  5 2 -1 25 24 21 2 0.33727120D+00 0.12069971D-02 0.15067819D+05 0.15067819D+05 0.15067819D+05 0.12475993D+01  1  2  4  2  5  2       -1 -.103214787913D+01 0.100000000000D+01
-.105800546880D-02 0.000000000000D+00 -.210203244271D-03 0.232476850868D-02 0.000000000000D+00  5 2 -1 25 24 21 2 0.33727120D+00 0.15538883D-02 0.15067819D+05 0.15067819D+05 0.15067819D+05 0.12475993D+01  1  2  5  2  5  2       -1 -.108203045037D+01 0.100000000000D+01
0.108290248444D-02 0.000000000000D+00 0.203669582986D-03 0.232476850868D-02 0.000000000000D+00  5 2 -1 25 24 21 2 0.33727120D+00 0.12069971D-02 0.15067819D+05 0.15067819D+05 0.15067819D+05 0.12475993D+01  1  2  6  2  5  2       -1 0.158891685538D+01 0.100000000000D+01
0.212351744498D-04 0.000000000000D+00 0.000000000000D+00 0.232476850868D-02 0.000000000000D+00  5 2 21 25 24 1 2 0.33727120D+00 0.15044195D-02 0.18290234D+05 0.18290234D+05 0.18290234D+05 0.12381218D+01  1  2 12  4  5  2       -1 0.489146693180D+00 0.100000000000D+01
-.324995800684D-04 0.000000000000D+00 -.716893909300D-05 0.232476850868D-02 0.000000000000D+00  5 2 21 25 24 1 2 0.33727120D+00 0.15538883D-02 0.15067819D+05 0.15067819D+05 0.15067819D+05 0.12475993D+01  1  2  5  4  5  2       -1 -.722622615758D+00 0.100000000000D+01
  </mgrwgt>
  </event>
  <event>
  5     66 0.48098993E-03 0.12303610E+03 0.75467711E-02 0.11858647E+00
        4 -1    0    0  502    0 0.00000000E+00 0.00000000E+00 0.16593769E+02 0.16666003E+02 0.15500000E+01 0.0000E+00 0.9000E+01
       -3 -1    0    0    0  501 0.00000000E+00 0.00000000E+00 -.19831583E+04 0.19831584E+04 0.50000000E+00 0.0000E+00 0.9000E+01
       25  1    1    2    0    0 0.62967710E+02 -.66744252E+02 -.11675282E+04 0.11777804E+04 0.12500000E+03 0.0000E+00 0.9000E+01
       24  1    1    2    0    0 -.60375056E+02 -.26182652E+01 -.64873007E+03 0.65648299E+03 0.80419002E+02 0.0000E+00 0.9000E+01
       21  1    1    2  502  501 -.25926536E+01 0.69362518E+02 -.15030633E+03 0.16556097E+03 0.75000000E+00 0.0000E+00 0.9000E+01
#aMCatNLO 2  0  0  1  2 0.69410955D+02 0.00000000D+00  -5  5  0 0.00000000D+00 0.00000000D+00 0.00000000D+00 0.00000000D+00 0.00000000D+00
  <mgrwgt>
 0.1093580968D-01    2    2    0
 0.123400221186625D+03 0.000000000000000D+00 0.000000000000000D+00 0.123400221186625D+03
 0.123400221186625D+03 0.000000000000000D+00 0.000000000000000D+00 -.123400221186625D+03
 0.141953235025594D+03 0.614358511972671D+02 -.257616948196378D+02 -.936441145607964D+01
 0.104847207347655D+03 -.614358511972671D+02 0.257616948196378D+02 0.936441145607964D+01
 0.000000000000000D+00 -.000000000000000D+00 0.000000000000000D+00 0.000000000000000D+00
 0.236791032693377D+03 0.000000000000000D+00 0.000000000000000D+00 0.236791032693377D+03
 0.139278238089446D+03 0.000000000000000D+00 0.000000000000000D+00 -.139278238089446D+03
 0.155346129408238D+03 0.629677099050843D+02 -.667442524080651D+02 -.936441145607964D+01
 0.101029257591469D+03 -.603750562771292D+02 -.261826521336554D+01 0.936441145607964D+01
 0.119693883783117D+03 -.259265362795504D+01 0.693625176214306D+02 0.975127946039311D+02
-.160217571064D-02 0.000000000000D+00 0.000000000000D+00 0.270845924768D-02 0.000000000000D+00  5 4 -3 25 24 21 2 0.25729293D-02 0.27032187D+00 0.26417449D+05 0.26417449D+05 0.26417449D+05 0.12207381D+01  1  2 13  1  5  1        4 -.216188473629D-01 0.100000000000D+01
0.365573712649D-02 0.000000000000D+00 0.000000000000D+00 0.270845924768D-02 0.547904792554D-05  5 4 -3 25 24 21 2 0.25584286D-02 0.30510442D+00 0.26417449D+05 0.26417449D+05 0.26417449D+05 0.12207381D+01  1  2  1  1  5  1        4 0.325546570413D-01 0.100000000000D+01
  </mgrwgt>
  </event>
  <event>
  4     66 0.48098993E-03 0.15441599E+03 0.75467711E-02 0.11807251E+00
        2 -1    0    0  501    0 0.00000000E+00 0.00000000E+00 0.32730806E+03 0.32730822E+03 0.32000000E+00 0.0000E+00 0.9000E+01
       -1 -1    0    0    0  501 0.00000000E+00 0.00000000E+00 -.99535083E+02 0.99535598E+02 0.32000000E+00 0.0000E+00 0.9000E+01
       25  1    1    2    0    0 -.90319649E+02 0.69716389E+02 0.11756126E+02 0.16965029E+03 0.12500000E+03 0.0000E+00 0.9000E+01
       24  1    1    2    0    0 0.90319649E+02 -.69716389E+02 0.21601685E+03 0.25719353E+03 0.80419002E+02 0.0000E+00 0.9000E+01
#aMCatNLO 1  0  0  2  1 0.24473190D+02 0.00000000D+00  -5  5  0 0.00000000D+00 0.00000000D+00 0.00000000D+00 0.00000000D+00 0.00000000D+00
  <mgrwgt>
 0.2644355600D+00    4    2    0
 0.180495922928777D+03 0.000000000000000D+00 0.000000000000000D+00 0.180495922928777D+03
 0.180495922928777D+03 0.000000000000000D+00 0.000000000000000D+00 -.180495922928777D+03
 0.193180120855568D+03 -.903196488130534D+02 0.697163893249985D+02 -.931426067465574D+02
 0.167811725001987D+03 0.903196488130534D+02 -.697163893249985D+02 0.931426067465574D+02
 0.000000000000000D+00 -.000000000000000D+00 -.000000000000000D+00 0.000000000000000D+00
 0.209663679517304D+03 0.000000000000000D+00 0.000000000000000D+00 0.209663679517304D+03
 0.186117756775311D+03 0.000000000000000D+00 0.000000000000000D+00 -.186117756775311D+03
 0.187889193429508D+03 -.774568917923571D+02 0.707264712106743D+02 -.931426067465574D+02
 0.173931272803741D+03 0.101854970549852D+03 -.688105477925001D+02 0.931426067465574D+02
 0.339609700593651D+02 -.243980787574944D+02 -.191592341817422D+01 0.235459227419926D+02
0.110331501335D-02 0.000000000000D+00 0.000000000000D+00 0.167284643807D-02 0.000000000000D+00  5 2 -1 25 24 21 0 0.50355138D-01 0.15313141D-01 0.23844297D+05 0.23844297D+05 0.23844297D+05 0.12255076D+01  1  2  2  2  5  2       -1 0.378470400982D+00 0.100000000000D+01
-.594802617090D-04 0.000000000000D+00 -.423702016078D-05 0.167284643807D-02 0.000000000000D+00  5 2 -1 25 24 21 2 0.50355138D-01 0.15313141D-01 0.23844297D+05 0.23844297D+05 0.23844297D+05 0.12255076D+01  1  2  3  2  5  2       -1 -.306434233667D-01 0.100000000000D+01
0.761324536887D-04 0.000000000000D+00 0.000000000000D+00 0.167284643807D-02 0.000000000000D+00  5 2 -1 25 24 21 2 0.50355138D-01 0.15313141D-01 0.23844297D+05 0.23844297D+05 0.23844297D+05 0.12255076D+01  1  2 15  2  5  2       -1 0.392224066152D-01 0.100000000000D+01
-.237998942385D-03 0.000000000000D+00 0.000000000000D+00 0.167284643807D-02 0.000000000000D+00  5 2 -1 25 24 21 2 0.50355138D-01 0.15313141D-01 0.23844297D+05 0.23844297D+05 0.23844297D+05 0.12255076D+01  1  2  4  2  5  2       -1 -.122613824196D+00 0.100000000000D+01
  </mgrwgt>
  </event>
  <event>
  4     66 0.48098993E-03 0.10524334E+03 0.75467711E-02 0.11519752E+00
        2 -1    0    0  501    0 0.00000000E+00 0.00000000E+00 0.11843615E+04 0.11843615E+04 0.32000000E+00 0.0000E+00 0.9000E+01
       -1 -1    0    0    0  501 0.00000000E+00 0.00000000E+00 -.11308110E+02 0.11312637E+02 0.32000000E+00 0.0000E+00 0.9000E+01
       25  1    1    2    0    0 0.18110274E+02 0.13240092E+02 0.93110460E+03 0.93972552E+03 0.12500000E+03 0.0000E+00 0.9000E+01
       24  1    1    2    0    0 -.18110274E+02 -.13240092E+02 0.24194879E+03 0.25594865E+03 0.80419002E+02 0.0000E+00 0.9000E+01
#aMCatNLO 1  0  0  1  1 0.14166888D+03 0.00000000D+00  -5  5  0 0.00000000D+00 0.00000000D+00 0.00000000D+00 0.00000000D+00 0.00000000D+00
  <mgrwgt>
 0.3860550532D+00    5    2    0
 0.115739458093116D+03 0.000000000000000D+00 0.000000000000000D+00 0.115739458093116D+03
 0.115739458093116D+03 0.000000000000000D+00 0.000000000000000D+00 -.115739458093116D+03
 0.135520490846574D+03 0.181102744780552D+02 0.132400917294403D+02 0.473024456938736D+02
 0.959584253396589D+02 -.181102744780552D+02 -.132400917294403D+02 -.473024456938736D+02
 0.000000000000000D+00 -.000000000000000D+00 0.000000000000000D+00 0.000000000000000D+00
 0.269479407366419D+03 0.000000000000000D+00 0.000000000000000D+00 0.269479407366419D+03
 0.173199539384662D+03 0.000000000000000D+00 0.000000000000000D+00 -.173199539384662D+03
 0.168744669943155D+03 0.103006255554732D+03 0.139770604768584D+01 0.473024456938736D+02
 0.102645382961172D+03 0.373041052277937D+02 -.209700036577700D+02 -.473024456938736D+02
 0.171288893846754D+03 -.140310360782525D+03 0.195722976100842D+02 0.962798679817566D+02
0.208723924410D-03 0.000000000000D+00 0.000000000000D+00 0.246082419962D-02 0.000000000000D+00  5 2 -1 25 24 21 0 0.18220981D+00 0.17400608D-02 0.11076161D+05 0.11076161D+05 0.11076161D+05 0.12631222D+01  1  2  2  1  5  1        2 0.383794296505D+00 0.100000000000D+01
-.114683542139D-04 0.000000000000D+00 -.801554828005D-06 0.246082419962D-02 0.000000000000D+00  5 2 -1 25 24 21 2 0.18220981D+00 0.17400608D-02 0.11076161D+05 0.11076161D+05 0.11076161D+05 0.12631222D+01  1  2  3  1  5  1        2 -.336448155507D-01 0.100000000000D+01
0.143874997029D-04 0.000000000000D+00 0.000000000000D+00 0.246082419962D-02 0.000000000000D+00  5 2 -1 25 24 21 2 0.18220981D+00 0.17400608D-02 0.11076161D+05 0.11076161D+05 0.11076161D+05 0.12631222D+01  1  2 15  1  5  1        2 0.422087393460D-01 0.100000000000D+01
-.240881631953D-04 0.000000000000D+00 -.640383621006D-04 0.246082419962D-02 0.000000000000D+00  5 2 -1 25 24 21 2 0.48654600D+00 0.17400608D-02 0.11076161D+05 0.11076161D+05 0.11076161D+05 0.12631222D+01  1  2  5  1  5  1        2 -.633951587307D-02 0.100000000000D+01
0.113552004764D-05 0.000000000000D+00 -.700175731871D-05 0.246082419962D-02 0.000000000000D+00  5 21 -1 25 24 -2 2 0.48654600D+00 0.17400608D-02 0.11076161D+05 0.11076161D+05 0.11076161D+05 0.12631222D+01  1  2  5  3  5  1        2 0.363487469801D-04 0.100000000000D+01
  </mgrwgt>
  </event>
  <event>
  5     66 0.48098993E-03 0.19426110E+03 0.75467711E-02 0.10323533E+00
        2 -1    0    0  501    0 0.00000000E+00 0.00000000E+00 0.55377760E+03 0.55377770E+03 0.32000000E+00 0.0000E+00 0.9000E+01
       21 -1    0    0  502  501 0.00000000E+00 0.00000000E+00 -.56344269E+03 0.56344319E+03 0.75000000E+00 0.0000E+00 0.9000E+01
       25  1    1    2    0    0 -.21416954E+03 0.32665353E+03 -.35403810E+03 0.54179248E+03 0.12500000E+03 0.0000E+00 0.9000E+01
       24  1    1    2    0    0 -.17510617E+02 -.41783950E+02 0.88561911E+02 0.12791774E+03 0.80419002E+02 0.0000E+00 0.9000E+01
        1  1    1    2  502    0 0.23168015E+03 -.28486958E+03 0.25581110E+03 0.44751066E+03 0.32000000E+00 0.0000E+00 0.9000E+01
#aMCatNLO 2  0  0  2  1 0.36718710D+03 0.00000000D+00  -5  5  0 0.00000000D+00 0.00000000D+00 0.00000000D+00 0.00000000D+00 0.00000000D+00
  <mgrwgt>
 0.1790416843D-01    1    2    0
 0.246580517715852D+03 0.000000000000000D+00 0.000000000000000D+00 0.246580517715852D+03
 0.246580517715852D+03 0.000000000000000D+00 0.000000000000000D+00 -.246580517715852D+03
 0.255865298332809D+03 -.692366644632566D+02 0.148446781553974D+03 -.151696698155255D+03
 0.237295737098895D+03 0.692366644632566D+02 -.148446781553974D+03 0.151696698155255D+03
 0.000000000000000D+00 0.000000000000000D+00 -.000000000000000D+00 0.000000000000000D+00
 0.842302776897487D+03 0.000000000000000D+00 0.000000000000000D+00 0.842302776897487D+03
 0.370439488772861D+03 0.000000000000000D+00 0.000000000000000D+00 -.370439488772861D+03
 0.437273376645615D+03 -.214169537941440D+03 0.326653527012646D+03 -.151696698155255D+03
 0.177571462751161D+03 -.175106165018228D+02 -.417839503605871D+02 0.151696698155255D+03
 0.597897426273572D+03 0.231680154443262D+03 -.284869576652059D+03 0.471863288124627D+03
0.190198796074D-03 0.000000000000D+00 0.000000000000D+00 0.130915010186D-02 0.629477671935D-08  5 2 21 25 24 1 2 0.85196591D-01 0.86683528D-01 0.18905396D+06 0.18905396D+06 0.18905396D+06 0.11389879D+01  1  2  1  4  5  2       -1 0.179041684267D-01 0.100000000000D+01
  </mgrwgt>
  </event>
  <event>
  5     66 0.48098993E-03 0.14145277E+03 0.75467711E-02 0.11896014E+00
        2 -1    0    0  502    0 0.00000000E+00 0.00000000E+00 0.25761547E+03 0.25761567E+03 0.32000000E+00 0.0000E+00 0.9000E+01
       -1 -1    0    0    0  501 0.00000000E+00 0.00000000E+00 -.15489763E+03 0.15489796E+03 0.32000000E+00 0.0000E+00 0.9000E+01
       25  1    1    2    0    0 0.26944591E+02 0.80839002E+02 0.17022177E+03 0.22773100E+03 0.12500000E+03 0.0000E+00 0.9000E+01
       24  1    1    2    0    0 -.68341652E+01 -.10706186E+03 -.70699271E+02 0.15157358E+03 0.80419002E+02 0.0000E+00 0.9000E+01
       21  1    1    2  502  501 -.20110426E+02 0.26222863E+02 0.31953400E+01 0.33209042E+02 0.75000000E+00 0.0000E+00 0.9000E+01
#aMCatNLO 2  0  0  1  1 0.33046449D+02 0.00000000D+00  -5  5  0 0.00000000D+00 0.00000000D+00 0.00000000D+00 0.00000000D+00 0.00000000D+00
  <mgrwgt>
 0.2449504826D+00    1    2    0
 0.182260232471282D+03 0.000000000000000D+00 0.000000000000000D+00 0.182260232471282D+03
 0.182260232471282D+03 0.000000000000000D+00 0.000000000000000D+00 -.182260232471282D+03
 0.194821645240072D+03 0.163589485913023D+02 0.946420830578047D+02 0.114480279391322D+03
 0.169698819702492D+03 -.163589485913023D+02 -.946420830578047D+02 -.114480279391322D+03
 0.000000000000000D+00 -.000000000000000D+00 0.000000000000000D+00 -.000000000000000D+00
 0.196917284831581D+03 0.000000000000000D+00 0.000000000000000D+00 0.196917284831581D+03
 0.202635612746150D+03 0.000000000000000D+00 0.000000000000000D+00 -.202635612746150D+03
 0.189714758259276D+03 0.269445907022948D+02 0.808390015014172D+02 0.114480279391322D+03
 0.176300592678911D+03 -.683416519822758D+01 -.107061864550796D+03 -.114480279391322D+03
 0.335375466395451D+02 -.201104255040672D+02 0.262228630493790D+02 -.571832791456904D+01
0.752003072682D-03 0.000000000000D+00 0.000000000000D+00 0.139800537487D-02 0.103458134279D-04  5 2 -1 25 24 21 2 0.39632356D-01 0.23829943D-01 0.25345072D+05 0.25345072D+05 0.25345072D+05 0.12226599D+01  1  2  1  1  5  1        2 0.244950482581D+00 0.100000000000D+01
  </mgrwgt>
  </event>
  <event>
  4     66 0.48098993E-03 0.10857799E+03 0.75467711E-02 0.11821007E+00
        2 -1    0    0  501    0 0.00000000E+00 0.00000000E+00 0.35955210E+02 0.35956634E+02 0.32000000E+00 0.0000E+00 0.9000E+01
       -1 -1    0    0    0  501 0.00000000E+00 0.00000000E+00 -.37377271E+03 0.37377285E+03 0.32000000E+00 0.0000E+00 0.9000E+01
       25  1    1    2    0    0 0.29727210E+02 -.17434825E+02 -.12709304E+03 0.18156354E+03 0.12500000E+03 0.0000E+00 0.9000E+01
       24  1    1    2    0    0 -.29727210E+02 0.17434825E+02 -.21072446E+03 0.22816594E+03 0.80419002E+02 0.0000E+00 0.9000E+01
#aMCatNLO 1  0  0  1  1 0.94670603D+02 0.00000000D+00  -5  5  0 0.00000000D+00 0.00000000D+00 0.00000000D+00 0.00000000D+00 0.00000000D+00
  <mgrwgt>
 0.1860099155D+00    5    2    0
 0.115928409773010D+03 0.000000000000000D+00 0.000000000000000D+00 0.115928409773010D+03
 0.115928409773010D+03 0.000000000000000D+00 0.000000000000000D+00 -.115928409773010D+03
 0.135677201427189D+03 0.297272096341277D+02 -.174348249035842D+02 0.399452484666685D+02
 0.961796181188324D+02 -.297272096341277D+02 0.174348249035842D+02 -.399452484666685D+02
 0.000000000000000D+00 0.000000000000000D+00 -.000000000000000D+00 0.000000000000000D+00
 0.187437261208197D+03 0.000000000000000D+00 0.000000000000000D+00 0.187437261208197D+03
 0.161232873652820D+03 0.000000000000000D+00 0.000000000000000D+00 -.161232873652820D+03
 0.132863738804601D+03 -.206876360107103D+02 -.204253038210238D+01 0.399452484666685D+02
 0.117576090027394D+03 -.698568860350273D+02 0.296869262501971D+02 -.399452484666685D+02
 0.982303060290224D+02 0.905445220457376D+02 -.276443958680948D+02 0.262043875553769D+02
0.426470326657D-03 0.000000000000D+00 0.000000000000D+00 0.257543012330D-02 0.000000000000D+00  5 2 -1 25 24 21 0 0.55316909D-02 0.57503614D-01 0.11789180D+05 0.11789180D+05 0.11789180D+05 0.12599273D+01  1  2  2  1  5  1        2 0.198583757447D+00 0.100000000000D+01
-.235691912205D-04 0.000000000000D+00 -.163775834658D-05 0.257543012330D-02 0.000000000000D+00  5 2 -1 25 24 21 2 0.55316909D-02 0.57503614D-01 0.11789180D+05 0.11789180D+05 0.11789180D+05 0.12599273D+01  1  2  3  1  5  1        2 -.174217000317D-01 0.100000000000D+01
0.292952906461D-04 0.000000000000D+00 0.000000000000D+00 0.257543012330D-02 0.000000000000D+00  5 2 -1 25 24 21 2 0.55316909D-02 0.57503614D-01 0.11789180D+05 0.11789180D+05 0.11789180D+05 0.12599273D+01  1  2 15  1  5  1        2 0.216542757536D-01 0.100000000000D+01
-.857297926566D-04 0.000000000000D+00 -.158635749617D-03 0.257543012330D-02 0.000000000000D+00  5 2 -1 25 24 21 2 0.12387862D-01 0.57503614D-01 0.11789180D+05 0.11789180D+05 0.11789180D+05 0.12599273D+01  1  2  5  1  5  1        2 -.232947795932D-01 0.100000000000D+01
0.252080802230D-05 0.000000000000D+00 -.138822656338D-04 0.257543012330D-02 0.000000000000D+00  5 21 -1 25 24 -2 2 0.12387862D-01 0.57503614D-01 0.11789180D+05 0.11789180D+05 0.11789180D+05 0.12599273D+01  1  2  5  3  5  1        2 0.648836196087D-02 0.100000000000D+01
  </mgrwgt>
  </event>
  <event>
  5     66 0.48098993E-03 0.11948793E+03 0.75467711E-02 0.11874514E+00
        2 -1    0    0  501    0 0.00000000E+00 0.00000000E+00 0.24617057E+04 0.24617057E+04 0.32000000E+00 0.0000E+00 0.9000E+01
       21 -1    0    0  502  501 0.00000000E+00 0.00000000E+00 -.13952392E+02 0.13972536E+02 0.75000000E+00 0.0000E+00 0.9000E+01
       25  1    1    2    0    0 -.94746000E+02 -.22701463E+02 0.91616301E+03 0.92976977E+03 0.12500000E+03 0.0000E+00 0.9000E+01
       24  1    1    2    0    0 0.35753695E+02 -.20802109E+02 0.12966402E+04 0.12997900E+04 0.80419002E+02 0.0000E+00 0.9000E+01
        1  1    1    2  502    0 0.58992305E+02 0.43503572E+02 0.23495010E+03 0.24611848E+03 0.32000000E+00 0.0000E+00 0.9000E+01
#aMCatNLO 2  0  0  2  1 0.73298382D+02 0.00000000D+00  -5  5  0 0.00000000D+00 0.00000000D+00 0.00000000D+00 0.00000000D+00 0.00000000D+00
  <mgrwgt>
 0.1576985668D+00    2    2    0
 0.131402169635935D+03 0.000000000000000D+00 0.000000000000000D+00 0.131402169635935D+03
 0.131402169635935D+03 0.000000000000000D+00 0.000000000000000D+00 -.131402169635935D+03
 0.148825367576658D+03 -.599121156777788D+02 0.298660594496810D+01 -.540888954802116D+02
 0.113978971695212D+03 0.599121156777788D+02 -.298660594496810D+01 0.540888954802116D+02
 0.000000000000000D+00 0.000000000000000D+00 0.000000000000000D+00 -.000000000000000D+00
 0.151189914727821D+03 0.000000000000000D+00 0.000000000000000D+00 0.151189914727821D+03
 0.227340167893833D+03 0.000000000000000D+00 0.000000000000000D+00 -.227340167893833D+03
 0.167459755177924D+03 -.947460002812482D+02 -.227014629635744D+02 -.540888954802116D+02
 0.105374944909684D+03 0.357536950989427D+02 -.208021088558574D+02 0.540888954802116D+02
 0.105695382534047D+03 0.589923051823055D+02 0.435035718194318D+02 -.761502531660124D+02
-.617229858978D-05 0.000000000000D+00 0.000000000000D+00 0.221073348263D-02 0.000000000000D+00  5 2 21 25 24 1 2 0.32915740D+00 0.21835177D-02 0.25955807D+05 0.25955807D+05 0.25955807D+05 0.12215545D+01  1  2 13  4  5  2       -1 -.805566481782D-01 0.100000000000D+01
0.262674171680D-04 0.000000000000D+00 0.000000000000D+00 0.221073348263D-02 0.304983577869D-06  5 2 21 25 24 1 2 0.37872494D+00 0.21480698D-02 0.25955807D+05 0.25955807D+05 0.25955807D+05 0.12215545D+01  1  2  1  4  5  2       -1 0.238255214930D+00 0.100000000000D+01
  </mgrwgt>
  </event>
  <event>
  4     66 0.48098993E-03 0.15128890E+03 0.75467711E-02 0.10240213E+00
        2 -1    0    0  501    0 0.00000000E+00 0.00000000E+00 0.25583007E+03 0.25583027E+03 0.32000000E+00 0.0000E+00 0.9000E+01
       -1 -1    0    0    0  501 0.00000000E+00 0.00000000E+00 -.89814169E+02 0.89814739E+02 0.32000000E+00 0.0000E+00 0.9000E+01
       25  1    1    2    0    0 -.20762024E+02 0.10788961E+03 0.10197892E+03 0.19518179E+03 0.12500000E+03 0.0000E+00 0.9000E+01
       24  1    1    2    0    0 0.20762024E+02 -.10788961E+03 0.64036981E+02 0.15046322E+03 0.80419002E+02 0.0000E+00 0.9000E+01
#aMCatNLO 1  0  0  2  1 0.41317191D+03 0.00000000D+00  -5  5  0 0.00000000D+00 0.00000000D+00 0.00000000D+00 0.00000000D+00 0.00000000D+00
  <mgrwgt>
 0.3197990496D+00    5    2    0
 0.151582643916909D+03 0.000000000000000D+00 0.000000000000000D+00 0.151582643916909D+03
 0.151582643916909D+03 0.000000000000000D+00 0.000000000000000D+00 -.151582643916909D+03
 0.166686259688794D+03 -.207620243055049D+02 0.107889611108449D+03 0.938505890472895D+01
 0.136479028145025D+03 0.207620243055049D+02 -.107889611108449D+03 -.938505890472895D+01
 0.000000000000000D+00 0.000000000000000D+00 0.000000000000000D+00 -.000000000000000D+00
 0.261471724501052D+03 0.000000000000000D+00 0.000000000000000D+00 0.261471724501052D+03
 0.840193106496055D+04 0.000000000000000D+00 0.000000000000000D+00 -.840193106496055D+04
 0.180006813048198D+03 -.124726414117266D+03 -.336555349767616D+02 0.938505890472895D+01
 0.332458036290520D+03 -.119860213627541D+03 -.299343581521792D+03 -.938505890472895D+01
 0.815093794012289D+04 0.244586627744807D+03 0.332999116498553D+03 -.814045934045950D+04
0.599353155611D-03 0.000000000000D+00 0.000000000000D+00 0.238843902777D-02 0.000000000000D+00  5 2 -1 25 24 21 0 0.39358531D-01 0.13817624D-01 0.22888332D+05 0.22888332D+05 0.22888332D+05 0.12274281D+01  1  2  2  2  5  2       -1 0.313662328875D+00 0.100000000000D+01
-.332972452106D-04 0.000000000000D+00 -.230167393086D-05 0.238843902777D-02 0.000000000000D+00  5 2 -1 25 24 21 2 0.39358531D-01 0.13817624D-01 0.22888332D+05 0.22888332D+05 0.22888332D+05 0.12274281D+01  1  2  3  2  5  2       -1 -.262530641642D-01 0.100000000000D+01
0.412372976979D-04 0.000000000000D+00 0.000000000000D+00 0.238843902777D-02 0.000000000000D+00  5 2 -1 25 24 21 2 0.39358531D-01 0.13817624D-01 0.22888332D+05 0.22888332D+05 0.22888332D+05 0.12274281D+01  1  2 15  2  5  2       -1 0.325133630597D-01 0.100000000000D+01
-.396740857089D-01 0.000000000000D+00 -.208709199928D-02 0.238843902777D-02 0.000000000000D+00  5 2 -1 25 24 21 2 0.39358531D-01 0.79728360D+00 0.22888332D+05 0.22888332D+05 0.22888332D+05 0.12274281D+01  1  2  5  2  5  2       -1 -.104921629981D-03 0.100000000000D+01
-.148084795866D-01 0.000000000000D+00 -.742676072227D-03 0.238843902777D-02 0.000000000000D+00  5 2 21 25 24 1 2 0.39358531D-01 0.79728360D+00 0.22888332D+05 0.22888332D+05 0.22888332D+05 0.12274281D+01  1  2  5  4  5  2       -1 -.186565412676D-04 0.100000000000D+01
  </mgrwgt>
  </event>
  <event>
  4     66 0.48098993E-03 0.14939767E+03 0.75467711E-02 0.11037921E+00
        2 -1    0    0  501    0 0.00000000E+00 0.00000000E+00 0.22493980E+04 0.22493980E+04 0.32000000E+00 0.0000E+00 0.9000E+01
       -1 -1    0    0    0  501 0.00000000E+00 0.00000000E+00 -.10060989E+02 0.10066076E+02 0.32000000E+00 0.0000E+00 0.9000E+01
       25  1    1    2    0    0 0.73619356E+02 -.78029391E+02 0.10998569E+04 0.11121234E+04 0.12500000E+03 0.0000E+00 0.9000E+01
       24  1    1    2    0    0 -.73619356E+02 0.78029391E+02 0.11394801E+04 0.11473406E+04 0.80419002E+02 0.0000E+00 0.9000E+01
#aMCatNLO 1  0  0  2  1 0.18184877D+03 0.00000000D+00  -5  5  0 0.00000000D+00 0.00000000D+00 0.00000000D+00 0.00000000D+00 0.00000000D+00
  <mgrwgt>
 0.4654926170D+00    5    2    0
 0.150455777269375D+03 0.000000000000000D+00 0.000000000000000D+00 0.150455777269375D+03
 0.150455777269375D+03 0.000000000000000D+00 0.000000000000000D+00 -.150455777269375D+03
 0.165672514392791D+03 0.736193564161973D+02 -.780293908744610D+02 -.177196655119408D+02
 0.135239040145958D+03 -.736193564161973D+02 0.780293908744610D+02 0.177196655119408D+02
 0.000000000000000D+00 -.000000000000000D+00 0.000000000000000D+00 -.000000000000000D+00
 0.246448763231546D+03 0.000000000000000D+00 0.000000000000000D+00 0.246448763231546D+03
 0.292807946955133D+03 0.000000000000000D+00 0.000000000000000D+00 -.292807946955133D+03
 0.245413188467888D+03 0.864401731866623D+02 -.191876895398013D+03 -.177196655119408D+02
 0.106178532189144D+03 -.660900980680231D+02 0.111703686140828D+02 0.177196655119408D+02
 0.187664989529647D+03 -.203500751186392D+02 0.180706526783930D+03 -.463591837235863D+02
0.600439980086D-03 0.000000000000D+00 0.000000000000D+00 0.237518519695D-02 0.000000000000D+00  5 2 -1 25 24 21 0 0.34606162D+00 0.15482375D-02 0.22319663D+05 0.22319663D+05 0.22319663D+05 0.12286136D+01  1  2  2  2  5  2       -1 0.371510801735D+00 0.100000000000D+01
-.333557565098D-04 0.000000000000D+00 -.230584762301D-05 0.237518519695D-02 0.000000000000D+00  5 2 -1 25 24 21 2 0.34606162D+00 0.15482375D-02 0.22319663D+05 0.22319663D+05 0.22319663D+05 0.12286136D+01  1  2  3  2  5  2       -1 -.311532441728D-01 0.100000000000D+01
0.414325603570D-04 0.000000000000D+00 0.000000000000D+00 0.237518519695D-02 0.000000000000D+00  5 2 -1 25 24 21 2 0.34606162D+00 0.15482375D-02 0.22319663D+05 0.22319663D+05 0.22319663D+05 0.12286136D+01  1  2 15  2  5  2       -1 0.386967289776D-01 0.100000000000D+01
0.181609914491D-03 0.000000000000D+00 -.205942351070D-03 0.237518519695D-02 0.000000000000D+00  5 2 -1 25 24 21 2 0.34606162D+00 0.62868949D-02 0.22319663D+05 0.22319663D+05 0.22319663D+05 0.12286136D+01  1  2  5  2  5  2       -1 0.218212652195D-01 0.100000000000D+01
0.323209812964D-04 0.000000000000D+00 -.345074590074D-04 0.237518519695D-02 0.000000000000D+00  5 2 21 25 24 1 2 0.34606162D+00 0.62868949D-02 0.22319663D+05 0.22319663D+05 0.22319663D+05 0.12286136D+01  1  2  5  4  5  2       -1 0.646170652617D-01 0.100000000000D+01
  </mgrwgt>
  </event>
  <event>
  4     66 0.48098993E-03 0.50896899E+02 0.75467711E-02 0.12655631E+00
        2 -1    0    0  501    0 0.00000000E+00 0.00000000E+00 0.96634975E+03 0.96634980E+03 0.32000000E+00 0.0000E+00 0.9000E+01
       -1 -1    0    0    0  501 0.00000000E+00 0.00000000E+00 -.10975303E+02 0.10979968E+02 0.32000000E+00 0.0000E+00 0.9000E+01
       25  1    1    2    0    0 -.57169513E+01 0.39430565E+00 0.60375076E+03 0.61658156E+03 0.12500000E+03 0.0000E+00 0.9000E+01
       24  1    1    2    0    0 0.57169513E+01 -.39430565E+00 0.35162369E+03 0.36074821E+03 0.80419002E+02 0.0000E+00 0.9000E+01
#aMCatNLO 1  0  0  1  2 0.87539629D+01 0.00000000D+00  -5  5  0 0.00000000D+00 0.00000000D+00 0.00000000D+00 0.00000000D+00 0.00000000D+00
  <mgrwgt>
 0.1627808668D+00   11    2    0
 0.102996537743046D+03 0.000000000000000D+00 0.000000000000000D+00 0.102996537743046D+03
 0.102996537743046D+03 0.000000000000000D+00 0.000000000000000D+00 -.102996537743046D+03
 0.125224916109696D+03 -.571695132004121D+01 0.394305645840401D+00 0.484154989051370D+01
 0.807681593763961D+02 0.571695132004121D+01 -.394305645840401D+00 -.484154989051370D+01
 0.000000000000000D+00 0.000000000000000D+00 0.000000000000000D+00 0.000000000000000D+00
 0.135425207863436D+03 0.000000000000000D+00 0.000000000000000D+00 0.135425207863436D+03
 0.103681969660868D+03 0.000000000000000D+00 0.000000000000000D+00 -.103681969660868D+03
 0.125518318696559D+03 -.989830832870023D+01 -.290365550616970D+01 0.484154989051370D+01
 0.806606788164939D+02 0.302498794763325D+01 -.251753755511062D+01 -.484154989051370D+01
 0.329281800112517D+02 0.687332038106698D+01 0.542119306128032D+01 0.317432382025673D+02
0.438293176391D-04 0.000000000000D+00 0.000000000000D+00 0.322717966554D-02 0.000000000000D+00  5 2 -1 25 24 21 0 0.14866955D+00 0.16888711D-02 0.10583698D+05 0.10583698D+05 0.10583698D+05 0.12654673D+01  1  2  2  1  5  1        2 0.111874684267D+00 0.100000000000D+01
-.243495810544D-05 0.000000000000D+00 -.168316120259D-06 0.322717966554D-02 0.000000000000D+00  5 2 -1 25 24 21 2 0.14866955D+00 0.16888711D-02 0.10583698D+05 0.10583698D+05 0.10583698D+05 0.12654673D+01  1  2  3  1  5  1        2 -.995314754990D-02 0.100000000000D+01
0.303119025317D-05 0.000000000000D+00 0.000000000000D+00 0.322717966554D-02 0.000000000000D+00  5 2 -1 25 24 21 2 0.14866955D+00 0.16888711D-02 0.10583698D+05 0.10583698D+05 0.10583698D+05 0.12654673D+01  1  2 15  1  5  1        2 0.123903092107D-01 0.100000000000D+01
0.533843987707D-03 0.000000000000D+00 0.000000000000D+00 0.322717966554D-02 0.000000000000D+00  5 2 -1 25 24 21 2 0.19586281D+00 0.16888711D-02 0.11523391D+05 0.11523391D+05 0.11523391D+05 0.12610922D+01  1  2 12  1  5  1        2 0.146014956181D+01 0.100000000000D+01
-.520196064574D-03 0.000000000000D+00 0.000000000000D+00 0.322717966554D-02 0.000000000000D+00  5 2 -1 25 24 21 2 0.14866955D+00 0.16888711D-02 0.10583698D+05 0.10583698D+05 0.10583698D+05 0.12654673D+01  1  2  4  1  5  1        2 -.212635616769D+01 0.100000000000D+01
-.574899828718D-03 0.000000000000D+00 -.247510420866D-04 0.322717966554D-02 0.000000000000D+00  5 2 -1 25 24 21 2 0.19595293D+00 0.16888711D-02 0.10583698D+05 0.10583698D+05 0.10583698D+05 0.12654673D+01  1  2  5  1  5  1        2 -.157763073988D+01 0.100000000000D+01
0.561118267876D-03 0.000000000000D+00 0.238363945433D-04 0.322717966554D-02 0.000000000000D+00  5 2 -1 25 24 21 2 0.14866955D+00 0.16888711D-02 0.10583698D+05 0.10583698D+05 0.10583698D+05 0.12654673D+01  1  2  6  1  5  1        2 0.229362998099D+01 0.100000000000D+01
0.280236399838D-06 0.000000000000D+00 0.000000000000D+00 0.322717966554D-02 0.370693808105D-03  5 2 -1 25 24 21 2 0.19547847D+00 0.17001103D-02 0.11523391D+05 0.11523391D+05 0.11523391D+05 0.12610922D+01  1  2 11  1  5  1        2 0.761609840890D-03 0.100000000000D+01
0.194092914497D-04 0.000000000000D+00 0.000000000000D+00 0.322717966554D-02 0.000000000000D+00  5 21 -1 25 24 -2 2 0.19586281D+00 0.16888711D-02 0.11523391D+05 0.11523391D+05 0.11523391D+05 0.12610922D+01  1  2 12  3  5  1        2 0.346204379918D-01 0.100000000000D+01
-.204402078347D-04 0.000000000000D+00 -.900981709004D-06 0.322717966554D-02 0.000000000000D+00  5 21 -1 25 24 -2 2 0.19595293D+00 0.16888711D-02 0.10583698D+05 0.10583698D+05 0.10583698D+05 0.12654673D+01  1  2  5  3  5  1        2 -.367239029440D-01 0.100000000000D+01
0.102662884214D-07 0.000000000000D+00 0.000000000000D+00 0.322717966554D-02 0.135300477576D-04  5 21 -1 25 24 -2 2 0.19547847D+00 0.17001103D-02 0.11523391D+05 0.11523391D+05 0.11523391D+05 0.12610922D+01  1  2 11  3  5  1        2 0.182407358258D-04 0.100000000000D+01
  </mgrwgt>
  </event>
  <event>
  5     66 0.48098993E-03 0.10780417E+03 0.75467711E-02 0.12373743E+00
        2 -1    0    0  501    0 0.00000000E+00 0.00000000E+00 0.10324462E+04 0.10324462E+04 0.32000000E+00 0.0000E+00 0.9000E+01
       21 -1    0    0  502  501 0.00000000E+00 0.00000000E+00 -.16762547E+02 0.16779317E+02 0.75000000E+00 0.0000E+00 0.9000E+01
       25  1    1    2    0    0 -.35429897E+02 0.34838324E+02 0.69427390E+03 0.70718473E+03 0.12500000E+03 0.0000E+00 0.9000E+01
       24  1    1    2    0    0 0.14023992E+02 -.14265170E+02 0.18944503E+03 0.20677718E+03 0.80419002E+02 0.0000E+00 0.9000E+01
        1  1    1    2  502    0 0.21405905E+02 -.20573154E+02 0.13196471E+03 0.13526365E+03 0.32000000E+00 0.0000E+00 0.9000E+01
#aMCatNLO 2  0  0  2  2 0.29689517D+02 0.00000000D+00  -5  5  0 0.00000000D+00 0.00000000D+00 0.00000000D+00 0.00000000D+00 0.00000000D+00
  <mgrwgt>
 0.1910889009D+00    1    2    0
 0.115634933063112D+03 0.000000000000000D+00 0.000000000000000D+00 0.115634933063112D+03
 0.115634933063112D+03 0.000000000000000D+00 0.000000000000000D+00 -.115634933063112D+03
 0.135433846339240D+03 -.227048406808517D+02 0.226083088112336D+02 0.411178953327367D+02
 0.958360197869850D+02 0.227048406808517D+02 -.226083088112336D+02 -.411178953327367D+02
 0.000000000000000D+00 0.000000000000000D+00 -.000000000000000D+00 0.000000000000000D+00
 0.133913422565220D+03 0.000000000000000D+00 0.000000000000000D+00 0.133913422565220D+03
 0.129300159663222D+03 0.000000000000000D+00 0.000000000000000D+00 -.129300159663222D+03
 0.140657981486178D+03 -.354298972992920D+02 0.348383239627524D+02 0.411178953327367D+02
 0.925098087428940D+02 0.140239921719807D+02 -.142651703895402D+02 -.411178953327367D+02
 0.300457919993695D+02 0.214059051273113D+02 -.205731535732122D+02 0.461326290199770D+01
0.479867103874D-05 0.000000000000D+00 0.000000000000D+00 0.256256302302D-02 0.511546984599D-06  5 2 21 25 24 1 2 0.15883814D+00 0.25801305D-02 0.15261277D+05 0.15261277D+05 0.15261277D+05 0.12469685D+01  1  2  1  4  5  2       -1 0.191088900894D+00 0.100000000000D+01
  </mgrwgt>
  </event>
  <event>
  5     66 0.48098993E-03 0.10305801E+03 0.75467711E-02 0.12013340E+00
       21 -1    0    0  501  502 0.00000000E+00 0.00000000E+00 0.11340295E+04 0.11340297E+04 0.75000000E+00 0.0000E+00 0.9000E+01
       -3 -1    0    0    0  501 0.00000000E+00 0.00000000E+00 -.27097799E+02 0.27102412E+02 0.50000000E+00 0.0000E+00 0.9000E+01
       25  1    1    2    0    0 -.39833641E+02 -.10937309E+02 0.20368691E+03 0.24252773E+03 0.12500000E+03 0.0000E+00 0.9000E+01
       24  1    1    2    0    0 -.30537187E+02 -.22686807E+02 0.50909549E+03 0.51681007E+03 0.80419002E+02 0.0000E+00 0.9000E+01
       -4  1    1    2    0  502 0.70370827E+02 0.33624115E+02 0.39414929E+03 0.40179435E+03 0.15500000E+01 0.0000E+00 0.9000E+01
#aMCatNLO 2  0  0  1  2 0.77991246D+02 0.00000000D+00  -5  5  0 0.00000000D+00 0.00000000D+00 0.00000000D+00 0.00000000D+00 0.00000000D+00
  <mgrwgt>
 0.6260185882D-02    2    2    0
 0.124952500147224D+03 0.000000000000000D+00 0.000000000000000D+00 0.124952500147224D+03
 0.124952500147224D+03 0.000000000000000D+00 0.000000000000000D+00 -.124952500147224D+03
 0.143275030778543D+03 0.345009137565482D+00 0.826058352216334D+01 -.695296927446157D+02
 0.106629969515905D+03 -.345009137565482D+00 -.826058352216334D+01 0.695296927446157D+02
 0.000000000000000D+00 0.000000000000000D+00 0.000000000000000D+00 0.000000000000000D+00
 0.201660768977114D+03 0.000000000000000D+00 0.000000000000000D+00 0.201660768977114D+03
 0.152385037284411D+03 0.000000000000000D+00 0.000000000000000D+00 -.152385037284411D+03
 0.148881569805257D+03 -.398336407050542D+02 -.109373087502189D+02 -.695296927446157D+02
 0.112910606646566D+03 -.305371866144827D+02 -.226868067263005D+02 0.695296927446157D+02
 0.922536298097028D+02 0.703708273195369D+02 0.336241154765193D+02 0.492757316927034D+02
-.910160659871D-06 0.000000000000D+00 0.000000000000D+00 0.196560272970D-02 0.000000000000D+00  5 21 -3 25 24 -4 2 0.18038758D+00 0.34185740D-02 0.22290919D+05 0.22290919D+05 0.22290919D+05 0.12286744D+01  1  2 13  3  5  1        4 -.510941875764D-03 0.100000000000D+01
0.149960108915D-04 0.000000000000D+00 0.000000000000D+00 0.196560272970D-02 0.252953885858D-06  5 21 -3 25 24 -4 2 0.17445952D+00 0.41691005D-02 0.22290919D+05 0.22290919D+05 0.22290919D+05 0.12286744D+01  1  2  1  3  5  1        4 0.677112775814D-02 0.100000000000D+01
  </mgrwgt>
  </event>
  <event>
  4     66 0.48098993E-03 0.11073509E+03 0.75467711E-02 0.11676596E+00
        2 -1    0    0  501    0 0.00000000E+00 0.00000000E+00 0.10686786E+04 0.10686787E+04 0.32000000E+00 0.0000E+00 0.9000E+01
       -1 -1    0    0    0  501 0.00000000E+00 0.00000000E+00 -.36614040E+02 0.36615438E+02 0.32000000E+00 0.0000E+00 0.9000E+01
       25  1    1    2    0    0 -.12815589E+03 0.30293031E+02 0.83758142E+03 0.85703514E+03 0.12500000E+03 0.0000E+00 0.9000E+01
       24  1    1    2    0    0 0.12815589E+03 -.30293031E+02 0.19448318E+03 0.24825898E+03 0.80419002E+02 0.0000E+00 0.9000E+01
#aMCatNLO 1  0  0  1  2 0.23348765D+02 0.00000000D+00  -5  5  0 0.00000000D+00 0.00000000D+00 0.00000000D+00 0.00000000D+00 0.00000000D+00
  <mgrwgt>
 0.5185778541D+00    9    2    0
 0.197811630588405D+03 0.000000000000000D+00 0.000000000000000D+00 0.197811630588405D+03
 0.197811630588405D+03 0.000000000000000D+00 0.000000000000000D+00 -.197811630588405D+03
 0.209385500156121D+03 -.128155888254124D+03 0.302930305159025D+02 0.104286568088071D+03
 0.186237761020689D+03 0.128155888254124D+03 -.302930305159025D+02 -.104286568088071D+03
 0.000000000000000D+00 -.000000000000000D+00 -.000000000000000D+00 0.000000000000000D+00
 0.214161659835796D+03 0.000000000000000D+00 0.000000000000000D+00 0.214161659835796D+03
 0.206670925665357D+03 0.000000000000000D+00 0.000000000000000D+00 -.206670925665357D+03
 0.202298965151223D+03 -.116037351452297D+03 0.309760566503235D+02 0.104286568088071D+03
 0.194012692022522D+03 0.139349118743586D+03 -.296621565846745D+02 -.104286568088071D+03
 0.245209283274086D+02 -.233117672912890D+02 -.131390006564903D+01 0.749073417043925D+01
0.584017496678D-03 0.000000000000D+00 0.000000000000D+00 0.159679043112D-02 0.000000000000D+00  5 2 -1 25 24 21 0 0.16441221D+00 0.56330404D-02 0.28201849D+05 0.28201849D+05 0.28201849D+05 0.12177259D+01  1  2  2  1  5  1        2 0.230208233809D+00 0.100000000000D+01
-.313877112297D-04 0.000000000000D+00 -.224278096258D-05 0.159679043112D-02 0.000000000000D+00  5 2 -1 25 24 21 2 0.16441221D+00 0.56330404D-02 0.28201849D+05 0.28201849D+05 0.28201849D+05 0.12177259D+01  1  2  3  1  5  1        2 -.183465205056D-01 0.100000000000D+01
0.403601740485D-04 0.000000000000D+00 0.000000000000D+00 0.159679043112D-02 0.000000000000D+00  5 2 -1 25 24 21 2 0.16441221D+00 0.56330404D-02 0.28201849D+05 0.28201849D+05 0.28201849D+05 0.12177259D+01  1  2 15  1  5  1        2 0.235910403078D-01 0.100000000000D+01
0.123806974712D-02 0.000000000000D+00 0.000000000000D+00 0.159679043112D-02 0.000000000000D+00  5 2 -1 25 24 21 2 0.18144439D+00 0.56330404D-02 0.32453412D+05 0.32453412D+05 0.32453412D+05 0.12113316D+01  1  2 12  1  5  1        2 0.619539424252D+00 0.100000000000D+01
-.114676669904D-02 0.000000000000D+00 0.000000000000D+00 0.159679043112D-02 0.000000000000D+00  5 2 -1 25 24 21 2 0.16441221D+00 0.56330404D-02 0.28201849D+05 0.28201849D+05 0.28201849D+05 0.12177259D+01  1  2  4  1  5  1        2 -.670299870072D+00 0.100000000000D+01
-.360977150198D-02 0.000000000000D+00 -.744720924942D-03 0.159679043112D-02 0.000000000000D+00  5 2 -1 25 24 21 2 0.18300331D+00 0.56330404D-02 0.28201849D+05 0.28201849D+05 0.28201849D+05 0.12177259D+01  1  2  5  1  5  1        2 -.179950319701D+01 0.100000000000D+01
0.367270984177D-02 0.000000000000D+00 0.740467944759D-03 0.159679043112D-02 0.000000000000D+00  5 2 -1 25 24 21 2 0.16441221D+00 0.56330404D-02 0.28201849D+05 0.28201849D+05 0.28201849D+05 0.12177259D+01  1  2  6  1  5  1        2 0.214674609213D+01 0.100000000000D+01
0.198606264364D-04 0.000000000000D+00 0.000000000000D+00 0.159679043112D-02 0.000000000000D+00  5 21 -1 25 24 -2 2 0.18144439D+00 0.56330404D-02 0.32453412D+05 0.32453412D+05 0.32453412D+05 0.12113316D+01  1  2 12  3  5  1        2 0.678639237016D-02 0.100000000000D+01
-.594136582786D-04 0.000000000000D+00 -.128335424229D-04 0.159679043112D-02 0.000000000000D+00  5 21 -1 25 24 -2 2 0.18300331D+00 0.56330404D-02 0.28201849D+05 0.28201849D+05 0.28201849D+05 0.12177259D+01  1  2  5  3  5  1        2 -.201437411344D-01 0.100000000000D+01
  </mgrwgt>
  </event>
  <event>
  4     66 0.48098993E-03 0.13395579E+03 0.75467711E-02 0.98653865E-01
        2 -1    0    0  501    0 0.00000000E+00 0.00000000E+00 0.47974589E+03 0.47974600E+03 0.32000000E+00 0.0000E+00 0.9000E+01
       -1 -1    0    0    0  501 0.00000000E+00 0.00000000E+00 -.40568627E+02 0.40569889E+02 0.32000000E+00 0.0000E+00 0.9000E+01
       25  1    1    2    0    0 0.27313106E+02 0.80275424E+02 0.31754701E+03 0.35164080E+03 0.12500000E+03 0.0000E+00 0.9000E+01
       24  1    1    2    0    0 -.27313106E+02 -.80275424E+02 0.12163025E+03 0.16867508E+03 0.80419002E+02 0.0000E+00 0.9000E+01
#aMCatNLO 1  0  0  1  2 0.59124254D+03 0.00000000D+00  -5  5  0 0.00000000D+00 0.00000000D+00 0.00000000D+00 0.00000000D+00 0.00000000D+00
  <mgrwgt>
 0.3678241581D+00    5    2    0
 0.139509813200740D+03 0.000000000000000D+00 0.000000000000000D+00 0.139509813200740D+03
 0.139509813200740D+03 0.000000000000000D+00 0.000000000000000D+00 -.139509813200740D+03
 0.155920458150233D+03 0.273131064150587D+02 0.802754239151461D+02 0.386786737490023D+02
 0.123099168251248D+03 -.273131064150587D+02 -.802754239151461D+02 -.386786737490023D+02
 0.000000000000000D+00 0.000000000000000D+00 0.000000000000000D+00 0.000000000000000D+00
 0.631209598205372D+03 0.000000000000000D+00 0.000000000000000D+00 0.631209598205372D+03
 0.614055167993132D+03 0.000000000000000D+00 0.000000000000000D+00 -.614055167993132D+03
 0.187192229109152D+03 -.689836686269256D+02 -.114722030572345D+03 0.386786737490023D+02
 0.466581193047232D+03 -.192810679682316D+03 -.415401968878903D+03 -.386786737490023D+02
 0.591491344042120D+03 0.261794348309242D+03 0.530123999451248D+03 0.171544302122392D+02
0.398413336406D-03 0.000000000000D+00 0.000000000000D+00 0.233262203139D-02 0.000000000000D+00  5 2 -1 25 24 21 0 0.73807165D-01 0.62414325D-02 0.17944153D+05 0.17944153D+05 0.17944153D+05 0.12390461D+01  1  2  2  1  5  1        2 0.354827922289D+00 0.100000000000D+01
-.220896589509D-04 0.000000000000D+00 -.153001211644D-05 0.233262203139D-02 0.000000000000D+00  5 2 -1 25 24 21 2 0.73807165D-01 0.62414325D-02 0.17944153D+05 0.17944153D+05 0.17944153D+05 0.12390461D+01  1  2  3  1  5  1        2 -.302028442063D-01 0.100000000000D+01
0.274590310589D-04 0.000000000000D+00 0.000000000000D+00 0.233262203139D-02 0.000000000000D+00  5 2 -1 25 24 21 2 0.73807165D-01 0.62414325D-02 0.17944153D+05 0.17944153D+05 0.17944153D+05 0.12390461D+01  1  2 15  1  5  1        2 0.375443024708D-01 0.100000000000D+01
0.690778574927D-03 0.000000000000D+00 -.282419475792D-03 0.233262203139D-02 0.000000000000D+00  5 2 -1 25 24 21 2 0.63986027D+00 0.62414325D-02 0.17944153D+05 0.17944153D+05 0.17944153D+05 0.12390461D+01  1  2  5  1  5  1        2 0.561007683284D-02 0.100000000000D+01
0.142031486727D-03 0.000000000000D+00 -.735907417826D-04 0.233262203139D-02 0.000000000000D+00  5 21 -1 25 24 -2 2 0.63986027D+00 0.62414325D-02 0.17944153D+05 0.17944153D+05 0.17944153D+05 0.12390461D+01  1  2  5  3  5  1        2 0.447007124372D-04 0.100000000000D+01
  </mgrwgt>
  </event>
  <event>
  4     66 0.48098993E-03 0.89266675E+02 0.75467711E-02 0.11593057E+00
        2 -1    0    0  501    0 0.00000000E+00 0.00000000E+00 0.11614371E+04 0.11614372E+04 0.32000000E+00 0.0000E+00 0.9000E+01
       -1 -1    0    0    0  501 0.00000000E+00 0.00000000E+00 -.22782845E+02 0.22785092E+02 0.32000000E+00 0.0000E+00 0.9000E+01
       25  1    1    2    0    0 -.97812017E+02 -.76051059E+02 0.55953063E+03 0.58655816E+03 0.12500000E+03 0.0000E+00 0.9000E+01
       24  1    1    2    0    0 0.97812017E+02 0.76051059E+02 0.57912364E+03 0.59766409E+03 0.80419002E+02 0.0000E+00 0.9000E+01
#aMCatNLO 1  0  0  1  2 0.50501081D+02 0.00000000D+00  -5  5  0 0.00000000D+00 0.00000000D+00 0.00000000D+00 0.00000000D+00 0.00000000D+00
  <mgrwgt>
 0.6860349234D+00    9    2    0
 0.162672057841769D+03 0.000000000000000D+00 0.000000000000000D+00 0.162672057841769D+03
 0.162672057841769D+03 0.000000000000000D+00 0.000000000000000D+00 -.162672057841769D+03
 0.176746054579637D+03 -.978120171263691D+02 -.760510590113127D+02 -.162238570752083D+02
 0.148598061103901D+03 0.978120171263691D+02 0.760510590113127D+02 0.162238570752083D+02
 0.000000000000000D+00 -.000000000000000D+00 0.000000000000000D+00 0.000000000000000D+00
 0.190672457329013D+03 0.000000000000000D+00 0.000000000000000D+00 0.190672457329013D+03
 0.189093565557771D+03 0.000000000000000D+00 0.000000000000000D+00 -.189093565557771D+03
 0.173737954136658D+03 -.761265198373663D+02 -.922031243865725D+02 -.162238570752083D+02
 0.155502311947486D+03 0.116627619697066D+03 0.620365847870612D+02 0.162238570752083D+02
 0.505257568026405D+02 -.405010998597001D+02 0.301665395995113D+02 0.157889177124117D+01
0.525993540951D-03 0.000000000000D+00 0.000000000000D+00 0.229983192082D-02 0.000000000000D+00  5 2 -1 25 24 21 0 0.17868281D+00 0.35052293D-02 0.26196980D+05 0.26196980D+05 0.26196980D+05 0.12211260D+01  1  2  2  1  5  1        2 0.369838507462D+00 0.100000000000D+01
-.292209621109D-04 0.000000000000D+00 -.201995369453D-05 0.229983192082D-02 0.000000000000D+00  5 2 -1 25 24 21 2 0.17868281D+00 0.35052293D-02 0.26196980D+05 0.26196980D+05 0.26196980D+05 0.12211260D+01  1  2  3  1  5  1        2 -.306370669758D-01 0.100000000000D+01
0.363205043167D-04 0.000000000000D+00 0.000000000000D+00 0.229983192082D-02 0.000000000000D+00  5 2 -1 25 24 21 2 0.17868281D+00 0.35052293D-02 0.26196980D+05 0.26196980D+05 0.26196980D+05 0.12211260D+01  1  2 15  1  5  1        2 0.380806668556D-01 0.100000000000D+01
0.339834579744D-03 0.000000000000D+00 0.000000000000D+00 0.229983192082D-02 0.000000000000D+00  5 2 -1 25 24 21 2 0.22166991D+00 0.35052293D-02 0.35746243D+05 0.35746243D+05 0.35746243D+05 0.12069907D+01  1  2 12  1  5  1        2 0.246019350826D+00 0.100000000000D+01
-.306700957454D-03 0.000000000000D+00 0.000000000000D+00 0.229983192082D-02 0.000000000000D+00  5 2 -1 25 24 21 2 0.17868281D+00 0.35052293D-02 0.26196980D+05 0.26196980D+05 0.26196980D+05 0.12211260D+01  1  2  4  1  5  1        2 -.321564284550D+00 0.100000000000D+01
-.915684448275D-03 0.000000000000D+00 -.304238208687D-03 0.229983192082D-02 0.000000000000D+00  5 2 -1 25 24 21 2 0.23089014D+00 0.35052293D-02 0.26196980D+05 0.26196980D+05 0.26196980D+05 0.12211260D+01  1  2  5  1  5  1        2 -.628907423975D+00 0.100000000000D+01
0.971313084103D-03 0.000000000000D+00 0.294509740670D-03 0.229983192082D-02 0.000000000000D+00  5 2 -1 25 24 21 2 0.17868281D+00 0.35052293D-02 0.26196980D+05 0.26196980D+05 0.26196980D+05 0.12211260D+01  1  2  6  1  5  1        2 0.101838481222D+01 0.100000000000D+01
0.102966827785D-04 0.000000000000D+00 0.000000000000D+00 0.229983192082D-02 0.000000000000D+00  5 21 -1 25 24 -2 2 0.22166991D+00 0.35052293D-02 0.35746243D+05 0.35746243D+05 0.35746243D+05 0.12069907D+01  1  2 12  3  5  1        2 0.389064967283D-02 0.100000000000D+01
-.262543855576D-04 0.000000000000D+00 -.104877326000D-04 0.229983192082D-02 0.000000000000D+00  5 21 -1 25 24 -2 2 0.23089014D+00 0.35052293D-02 0.26196980D+05 0.26196980D+05 0.26196980D+05 0.12211260D+01  1  2  5  3  5  1        2 -.907028809786D-02 0.100000000000D+01
  </mgrwgt>
  </event>
  <event>
  4     66 0.48098993E-03 0.11398202E+03 0.75467711E-02 0.10698418E+00
        2 -1    0    0  501    0 0.00000000E+00 0.00000000E+00 0.26836207E+03 0.26836226E+03 0.32000000E+00 0.0000E+00 0.9000E+01
       -1 -1    0    0    0  501 0.00000000E+00 0.00000000E+00 -.48504226E+02 0.48505282E+02 0.32000000E+00 0.0000E+00 0.9000E+01
       25  1    1    2    0    0 -.29130962E+02 -.38737957E+02 0.12243002E+03 0.18155812E+03 0.12500000E+03 0.0000E+00 0.9000E+01
       24  1    1    2    0    0 0.29130962E+02 0.38737957E+02 0.97427823E+02 0.13530942E+03 0.80419002E+02 0.0000E+00 0.9000E+01
#aMCatNLO 1  0  0  1  2 0.29392286D+03 0.00000000D+00  -5  5  0 0.00000000D+00 0.00000000D+00 0.00000000D+00 0.00000000D+00 0.00000000D+00
  <mgrwgt>
 0.3986046150D+00    3    2    0
 0.114091594985727D+03 0.000000000000000D+00 0.000000000000000D+00 0.114091594985727D+03
 0.114091594985727D+03 0.000000000000000D+00 0.000000000000000D+00 -.114091594985727D+03
 0.134158331818478D+03 -.291309619802495D+02 -.387379570639939D+02 -.492094837712064D+01
 0.940248581529767D+02 0.291309619802495D+02 0.387379570639939D+02 0.492094837712064D+01
 0.000000000000000D+00 0.000000000000000D+00 -.000000000000000D+00 -.000000000000000D+00
 0.231945970467981D+03 0.000000000000000D+00 0.000000000000000D+00 0.231945970467981D+03
 0.656627151226355D+03 0.000000000000000D+00 0.000000000000000D+00 -.656627151226355D+03
 0.222677869703506D+03 -.175068764323746D+03 0.573336348134143D+02 -.492094837712064D+01
 0.149421870513662D+03 -.704331529211751D+02 0.104281516435479D+03 0.492094837712064D+01
 0.516473381477169D+03 0.245501917244921D+03 -.161615151248894D+03 -.424681180758374D+03
0.312295527907D-03 0.000000000000D+00 0.000000000000D+00 0.290344795430D-02 0.000000000000D+00  5 2 -1 25 24 21 0 0.41286568D-01 0.74622845D-02 0.12991902D+05 0.12991902D+05 0.12991902D+05 0.12550017D+01  1  2  2  1  5  1        2 0.390319147250D+00 0.100000000000D+01
-.173497320754D-04 0.000000000000D+00 -.119929705646D-05 0.290344795430D-02 0.000000000000D+00  5 2 -1 25 24 21 2 0.41286568D-01 0.74622845D-02 0.12991902D+05 0.12991902D+05 0.12991902D+05 0.12550017D+01  1  2  3  1  5  1        2 -.341535232345D-01 0.100000000000D+01
0.215586871790D-04 0.000000000000D+00 0.000000000000D+00 0.290344795430D-02 0.000000000000D+00  5 2 -1 25 24 21 2 0.41286568D-01 0.74622845D-02 0.12991902D+05 0.12991902D+05 0.12991902D+05 0.12550017D+01  1  2 15  1  5  1        2 0.424389910042D-01 0.100000000000D+01
  </mgrwgt>
  </event>
  <event>
  4     66 0.48098993E-03 0.11529906E+03 0.75467711E-02 0.10934561E+00
        2 -1    0    0  501    0 0.00000000E+00 0.00000000E+00 0.76690840E+02 0.76691507E+02 0.32000000E+00 0.0000E+00 0.9000E+01
       -1 -1    0    0    0  501 0.00000000E+00 0.00000000E+00 -.64576601E+03 0.64576608E+03 0.32000000E+00 0.0000E+00 0.9000E+01
       25  1    1    2    0    0 -.12799410E+03 -.11777693E+03 -.44584275E+03 0.49462577E+03 0.12500000E+03 0.0000E+00 0.9000E+01
       24  1    1    2    0    0 0.12799410E+03 0.11777693E+03 -.12323241E+03 0.22783182E+03 0.80419002E+02 0.0000E+00 0.9000E+01
#aMCatNLO 1  0  0  2  1 0.14006427D+03 0.00000000D+00  -5  5  0 0.00000000D+00 0.00000000D+00 0.00000000D+00 0.00000000D+00 0.00000000D+00
  <mgrwgt>
 0.2717936032D+00    9    2    0
 0.222541247989352D+03 0.000000000000000D+00 0.000000000000000D+00 0.222541247989352D+03
 0.222541247989352D+03 0.000000000000000D+00 0.000000000000000D+00 -.222541247989352D+03
 0.232828985800174D+03 -.127994098427815D+03 -.117776930997187D+03 -.912712546274682D+02
 0.212253510178531D+03 0.127994098427815D+03 0.117776930997187D+03 0.912712546274682D+02
 0.000000000000000D+00 -.000000000000000D+00 -.000000000000000D+00 -.000000000000000D+00
 0.270645709535271D+03 0.000000000000000D+00 0.000000000000000D+00 0.270645709535271D+03
 0.364629087771989D+03 0.000000000000000D+00 0.000000000000000D+00 -.364629087771989D+03
 0.195906325677070D+03 -.106498228899609D+03 -.555155271997377D+02 -.912712546274682D+02
 0.270694603124527D+03 0.152208081635044D+03 0.187911176277736D+03 0.912712546274682D+02
 0.168673868505663D+03 -.457098527354355D+02 -.132395649077998D+03 -.939833782367174D+02
0.426646049871D-02 0.000000000000D+00 0.000000000000D+00 0.176756596466D-02 0.000000000000D+00  5 2 -1 25 24 21 0 0.11798648D-01 0.99348674D-01 0.41172696D+05 0.41172696D+05 0.41172696D+05 0.12007280D+01  1  2  2  2  5  2       -1 0.259188805546D+00 0.100000000000D+01
-.234567911288D-03 0.000000000000D+00 -.163843316999D-04 0.176756596466D-02 0.000000000000D+00  5 2 -1 25 24 21 2 0.11798648D-01 0.99348674D-01 0.41172696D+05 0.41172696D+05 0.41172696D+05 0.12007280D+01  1  2  3  2  5  2       -1 -.205450103174D-01 0.100000000000D+01
0.293590031304D-03 0.000000000000D+00 0.000000000000D+00 0.176756596466D-02 0.000000000000D+00  5 2 -1 25 24 21 2 0.11798648D-01 0.99348674D-01 0.41172696D+05 0.41172696D+05 0.41172696D+05 0.12007280D+01  1  2 15  2  5  2       -1 0.257145582663D-01 0.100000000000D+01
0.468664201919D-03 0.000000000000D+00 0.000000000000D+00 0.176756596466D-02 0.000000000000D+00  5 2 -1 25 24 21 2 0.11798648D-01 0.16790452D+00 0.80728048D+05 0.80728048D+05 0.80728048D+05 0.11722105D+01  1  2 12  2  5  2       -1 0.106664566437D-01 0.100000000000D+01
-.202733745961D-02 0.000000000000D+00 0.000000000000D+00 0.176756596466D-02 0.000000000000D+00  5 2 -1 25 24 21 2 0.11798648D-01 0.99348674D-01 0.41172696D+05 0.41172696D+05 0.41172696D+05 0.12007280D+01  1  2  4  2  5  2       -1 -.177567634020D+00 0.100000000000D+01
-.204333486663D-02 0.000000000000D+00 -.120128619973D-02 0.176756596466D-02 0.000000000000D+00  5 2 -1 25 24 21 2 0.11798648D-01 0.18394745D+00 0.41172696D+05 0.41172696D+05 0.41172696D+05 0.12007280D+01  1  2  5  2  5  2       -1 -.380039879373D-01 0.100000000000D+01
0.249207293937D-02 0.000000000000D+00 0.100457666922D-02 0.176756596466D-02 0.000000000000D+00  5 2 -1 25 24 21 2 0.11798648D-01 0.99348674D-01 0.41172696D+05 0.41172696D+05 0.41172696D+05 0.12007280D+01  1  2  6  2  5  2       -1 0.218272243504D+00 0.100000000000D+01
0.274690725902D-04 0.000000000000D+00 0.000000000000D+00 0.176756596466D-02 0.000000000000D+00  5 2 21 25 24 1 2 0.11798648D-01 0.16790452D+00 0.80728048D+05 0.80728048D+05 0.80728048D+05 0.11722105D+01  1  2 12  4  5  2       -1 0.505773466871D-02 0.100000000000D+01
-.708236249417D-04 0.000000000000D+00 -.807123161472D-04 0.176756596466D-02 0.000000000000D+00  5 2 21 25 24 1 2 0.11798648D-01 0.18394745D+00 0.41172696D+05 0.41172696D+05 0.41172696D+05 0.12007280D+01  1  2  5  4  5  2       -1 -.109895631822D-01 0.100000000000D+01
  </mgrwgt>
  </event>
  <event>
  4     66 0.48098993E-03 0.12695805E+03 0.75467711E-02 0.11473874E+00
        2 -1    0    0  501    0 0.00000000E+00 0.00000000E+00 0.10906644E+04 0.10906644E+04 0.32000000E+00 0.0000E+00 0.9000E+01
       -1 -1    0    0    0  501 0.00000000E+00 0.00000000E+00 -.15519113E+02 0.15522412E+02 0.32000000E+00 0.0000E+00 0.9000E+01
       25  1    1    2    0    0 0.72510804E+02 -.11815845E+02 0.49048416E+03 0.51146568E+03 0.12500000E+03 0.0000E+00 0.9000E+01
       24  1    1    2    0    0 -.72510804E+02 0.11815845E+02 0.58466108E+03 0.59472113E+03 0.80419002E+02 0.0000E+00 0.9000E+01
#aMCatNLO 1  0  0  1  1 0.12326443D+03 0.00000000D+00  -5  5  0 0.00000000D+00 0.00000000D+00 0.00000000D+00 0.00000000D+00 0.00000000D+00
  <mgrwgt>
 0.5316201266D+00    3    2    0
 0.130107625933496D+03 0.000000000000000D+00 0.000000000000000D+00 0.130107625933496D+03
 0.130107625933496D+03 0.000000000000000D+00 0.000000000000000D+00 -.130107625933496D+03
 0.147704181054543D+03 0.725108035445297D+02 -.118158449242693D+02 -.281796784766186D+02
 0.112511070812449D+03 -.725108035445297D+02 0.118158449242693D+02 0.281796784766186D+02
 0.000000000000000D+00 0.000000000000000D+00 -.000000000000000D+00 -.000000000000000D+00
 0.158276780299831D+03 0.000000000000000D+00 0.000000000000000D+00 0.158276780299831D+03
 0.409418773052551D+03 0.000000000000000D+00 0.000000000000000D+00 -.409418773052551D+03
 0.140408091567951D+03 0.380069432410070D+02 0.430210432716769D+02 -.281796784766186D+02
 0.147526097933738D+03 -.103652434765141D+03 0.613091518893948D+02 0.281796784766186D+02
 0.279761363850693D+03 0.656454915241341D+02 -.104330195161072D+03 -.251141992752720D+03
0.390505467964D-03 0.000000000000D+00 0.000000000000D+00 0.251068424963D-02 0.000000000000D+00  5 2 -1 25 24 21 0 0.16779477D+00 0.23878133D-02 0.16118346D+05 0.16118346D+05 0.16118346D+05 0.12442780D+01  1  2  2  1  5  1        2 0.520731831913D+00 0.100000000000D+01
-.216789082059D-04 0.000000000000D+00 -.149964381943D-05 0.251068424963D-02 0.000000000000D+00  5 2 -1 25 24 21 2 0.16779477D+00 0.23878133D-02 0.16118346D+05 0.16118346D+05 0.16118346D+05 0.12442780D+01  1  2  3  1  5  1        2 -.447568245481D-01 0.100000000000D+01
0.269528824846D-04 0.000000000000D+00 0.000000000000D+00 0.251068424963D-02 0.000000000000D+00  5 2 -1 25 24 21 2 0.16779477D+00 0.23878133D-02 0.16118346D+05 0.16118346D+05 0.16118346D+05 0.12442780D+01  1  2 15  1  5  1        2 0.556451192547D-01 0.100000000000D+01
  </mgrwgt>
  </event>
  <event>
  5     66 0.48098993E-03 0.10968265E+03 0.75467711E-02 0.11287390E+00
        2 -1    0    0  501    0 0.00000000E+00 0.00000000E+00 0.10793059E+04 0.10793060E+04 0.32000000E+00 0.0000E+00 0.9000E+01
       21 -1    0    0  502  501 0.00000000E+00 0.00000000E+00 -.47969893E+02 0.47975756E+02 0.75000000E+00 0.0000E+00 0.9000E+01
       25  1    1    2    0    0 -.57919635E+02 -.20015886E+02 0.32631015E+03 0.35476561E+03 0.12500000E+03 0.0000E+00 0.9000E+01
       24  1    1    2    0    0 -.11548671E+03 0.50137736E+01 0.34469653E+03 0.37235096E+03 0.80419002E+02 0.0000E+00 0.9000E+01
        1  1    1    2  502    0 0.17340634E+03 0.15002113E+02 0.36032937E+03 0.40016519E+03 0.32000000E+00 0.0000E+00 0.9000E+01
#aMCatNLO 2  0  0  2  1 0.17405408D+03 0.00000000D+00  -5  5  0 0.00000000D+00 0.00000000D+00 0.00000000D+00 0.00000000D+00 0.00000000D+00
  <mgrwgt>
 0.7586073087D-01    1    2    0
 0.109719754437882D+03 0.000000000000000D+00 0.000000000000000D+00 0.109719754437882D+03
 0.109719754437882D+03 0.000000000000000D+00 0.000000000000000D+00 -.109719754437882D+03
 0.130586060812123D+03 0.357487209882985D+02 -.119122424568477D+02 -.280119720433148D+01
 0.888534480636403D+02 -.357487209882985D+02 0.119122424568477D+02 0.280119720433148D+01
 0.000000000000000D+00 0.000000000000000D+00 0.000000000000000D+00 -.000000000000000D+00
 0.216218276097497D+03 0.000000000000000D+00 0.000000000000000D+00 0.216218276097497D+03
 0.239468449197722D+03 0.000000000000000D+00 0.000000000000000D+00 -.239468449197722D+03
 0.139241396570970D+03 -.579196349012771D+02 -.200158863445873D+02 -.280119720433148D+01
 0.140845234163502D+03 -.115486706599123D+03 0.501377356007760D+01 0.280119720433148D+01
 0.175600094560746D+03 0.173406341500401D+03 0.150021127845097D+02 -.232501731002249D+02
0.130060221736D-04 0.000000000000D+00 0.000000000000D+00 0.301769655883D-02 0.220335436396D-06  5 2 21 25 24 1 2 0.16604742D+00 0.73804334D-02 0.51548222D+05 0.51548222D+05 0.51548222D+05 0.11909724D+01  1  2  1  4  5  2       -1 0.758607308650D-01 0.100000000000D+01
  </mgrwgt>
  </event>
  <event>
  4     66 0.48098993E-03 0.13197640E+03 0.75467711E-02 0.11679352E+00
        2 -1    0    0  501    0 0.00000000E+00 0.00000000E+00 0.62954908E+03 0.62954916E+03 0.32000000E+00 0.0000E+00 0.9000E+01
       -1 -1    0    0    0  501 0.00000000E+00 0.00000000E+00 -.34628738E+02 0.34630217E+02 0.32000000E+00 0.0000E+00 0.9000E+01
       25  1    1    2    0    0 0.26501070E+02 -.77267641E+02 0.18082261E+03 0.23450887E+03 0.12500000E+03 0.0000E+00 0.9000E+01
       24  1    1    2    0    0 -.26501070E+02 0.77267641E+02 0.41409773E+03 0.42967051E+03 0.80419002E+02 0.0000E+00 0.9000E+01
#aMCatNLO 1  0  0  1  2 0.82986501D+02 0.00000000D+00  -5  5  0 0.00000000D+00 0.00000000D+00 0.00000000D+00 0.00000000D+00 0.00000000D+00
  <mgrwgt>
 0.2969900475D+00    7    2    0
 0.147651644945037D+03 0.000000000000000D+00 0.000000000000000D+00 0.147651644945037D+03
 0.147651644945037D+03 0.000000000000000D+00 0.000000000000000D+00 -.147651644945037D+03
 0.163157371361154D+03 0.265010701183113D+02 -.772676414939657D+02 -.657474918915229D+02
 0.132145918528920D+03 -.265010701183113D+02 0.772676414939657D+02 0.657474918915229D+02
 0.000000000000000D+00 0.000000000000000D+00 0.000000000000000D+00 0.000000000000000D+00
 0.199019591432163D+03 0.000000000000000D+00 0.000000000000000D+00 0.199019591432163D+03
 0.191087370571831D+03 0.000000000000000D+00 0.000000000000000D+00 -.191087370571831D+03
 0.168690455358458D+03 -.172503288886614D+02 -.906154688353546D+02 -.657474918915229D+02
 0.138051769218477D+03 -.621244067670884D+02 0.663995513824639D+02 0.657474918915229D+02
 0.833647374270588D+02 0.793747356557498D+02 0.242159174528907D+02 0.793222086033177D+01
0.342714869340D-03 0.000000000000D+00 0.000000000000D+00 0.199005143971D-02 0.000000000000D+00  5 2 -1 25 24 21 0 0.96853824D-01 0.53276182D-02 0.17417771D+05 0.17417771D+05 0.17417771D+05 0.12404909D+01  1  2  2  1  5  1        2 0.284812624133D+00 0.100000000000D+01
-.187481200187D-04 0.000000000000D+00 -.131611533716D-05 0.199005143971D-02 0.000000000000D+00  5 2 -1 25 24 21 2 0.96853824D-01 0.53276182D-02 0.17417771D+05 0.17417771D+05 0.17417771D+05 0.12404909D+01  1  2  3  1  5  1        2 -.239756938032D-01 0.100000000000D+01
0.236290063866D-04 0.000000000000D+00 0.000000000000D+00 0.199005143971D-02 0.000000000000D+00  5 2 -1 25 24 21 2 0.96853824D-01 0.53276182D-02 0.17417771D+05 0.17417771D+05 0.17417771D+05 0.12404909D+01  1  2 15  1  5  1        2 0.302175269537D-01 0.100000000000D+01
-.136955066447D-03 0.000000000000D+00 0.000000000000D+00 0.199005143971D-02 0.000000000000D+00  5 2 -1 25 24 21 2 0.96853824D-01 0.53276182D-02 0.17417771D+05 0.17417771D+05 0.17417771D+05 0.12404909D+01  1  2  4  1  5  1        2 -.175142506803D+00 0.100000000000D+01
-.198825219289D-03 0.000000000000D+00 -.137678469655D-03 0.199005143971D-02 0.000000000000D+00  5 2 -1 25 24 21 2 0.15868463D+00 0.53276182D-02 0.17417771D+05 0.17417771D+05 0.17417771D+05 0.12404909D+01  1  2  5  1  5  1        2 -.136840642574D+00 0.100000000000D+01
0.250831837369D-03 0.000000000000D+00 0.122449043864D-03 0.199005143971D-02 0.000000000000D+00  5 2 -1 25 24 21 2 0.96853824D-01 0.53276182D-02 0.17417771D+05 0.17417771D+05 0.17417771D+05 0.12404909D+01  1  2  6  1  5  1        2 0.320771753266D+00 0.100000000000D+01
-.497744146459D-05 0.000000000000D+00 -.768548162245D-05 0.199005143971D-02 0.000000000000D+00  5 21 -1 25 24 -2 2 0.15868463D+00 0.53276182D-02 0.17417771D+05 0.17417771D+05 0.17417771D+05 0.12404909D+01  1  2  5  3  5  1        2 -.285301362622D-02 0.100000000000D+01
  </mgrwgt>
  </event>
  <event>
  4     66 0.48098993E-03 0.16708207E+03 0.75467711E-02 0.11214567E+00
        2 -1    0    0  501    0 0.00000000E+00 0.00000000E+00 0.26947060E+04 0.26947060E+04 0.32000000E+00 0.0000E+00 0.9000E+01
       -1 -1    0    0    0  501 0.00000000E+00 0.00000000E+00 -.10411827E+02 0.10416743E+02 0.32000000E+00 0.0000E+00 0.9000E+01
       25  1    1    2    0    0 -.94622689E+02 0.90025639E+02 0.13540540E+04 0.13660693E+04 0.12500000E+03 0.0000E+00 0.9000E+01
       24  1    1    2    0    0 0.94622689E+02 -.90025639E+02 0.13302401E+04 0.13390534E+04 0.80419002E+02 0.0000E+00 0.9000E+01
#aMCatNLO 1  0  0  1  2 0.11998153D+03 0.00000000D+00  -5  5  0 0.00000000D+00 0.00000000D+00 0.00000000D+00 0.00000000D+00 0.00000000D+00
  <mgrwgt>
 0.7989729457D+00    6    2    0
 0.167521603958961D+03 0.000000000000000D+00 0.000000000000000D+00 0.167521603958961D+03
 0.167521603958961D+03 0.000000000000000D+00 0.000000000000000D+00 -.167521603958961D+03
 0.181188175656593D+03 -.946226889590983D+02 0.900256392301639D+02 -.120866046975358D+02
 0.153855032261330D+03 0.946226889590983D+02 -.900256392301639D+02 0.120866046975358D+02
 0.000000000000000D+00 -.000000000000000D+00 -.000000000000000D+00 0.000000000000000D+00
 0.239995755389406D+03 0.000000000000000D+00 0.000000000000000D+00 0.239995755389406D+03
 0.235933056924198D+03 0.000000000000000D+00 0.000000000000000D+00 -.235933056924198D+03
 0.179811462201846D+03 -.407424835000760D+02 0.122070168199677D+03 -.120866046975358D+02
 0.176067055003939D+03 0.143864483086030D+03 -.607397431395983D+02 0.120866046975358D+02
 0.120050295107820D+03 -.103121999585954D+03 -.613304250600783D+02 0.406269846520803D+01
0.128568292925D-02 0.000000000000D+00 0.000000000000D+00 0.228250571983D-02 0.000000000000D+00  5 2 -1 25 24 21 0 0.41457053D+00 0.16021992D-02 0.27916418D+05 0.27916418D+05 0.27916418D+05 0.12181932D+01  1  2  2  1  5  1        2 0.436965048808D+00 0.100000000000D+01
-.714262299865D-04 0.000000000000D+00 -.493736097642D-05 0.228250571983D-02 0.000000000000D+00  5 2 -1 25 24 21 2 0.41457053D+00 0.16021992D-02 0.27916418D+05 0.27916418D+05 0.27916418D+05 0.12181932D+01  1  2  3  1  5  1        2 -.360249070578D-01 0.100000000000D+01
0.888105712619D-04 0.000000000000D+00 0.000000000000D+00 0.228250571983D-02 0.000000000000D+00  5 2 -1 25 24 21 2 0.41457053D+00 0.16021992D-02 0.27916418D+05 0.27916418D+05 0.27916418D+05 0.12181932D+01  1  2 15  1  5  1        2 0.447929643782D-01 0.100000000000D+01
-.653568520200D-03 0.000000000000D+00 -.355490157728D-03 0.228250571983D-02 0.000000000000D+00  5 2 -1 25 24 21 2 0.64699913D+00 0.16021992D-02 0.27916418D+05 0.27916418D+05 0.27916418D+05 0.12181932D+01  1  2  5  1  5  1        2 -.336098530110D-01 0.100000000000D+01
0.767074341786D-03 0.000000000000D+00 0.322966150468D-03 0.228250571983D-02 0.000000000000D+00  5 2 -1 25 24 21 2 0.41457053D+00 0.16021992D-02 0.27916418D+05 0.27916418D+05 0.27916418D+05 0.12181932D+01  1  2  6  1  5  1        2 0.386885628353D+00 0.100000000000D+01
-.197287662826D-04 0.000000000000D+00 -.183207168739D-04 0.228250571983D-02 0.000000000000D+00  5 21 -1 25 24 -2 2 0.64699913D+00 0.16021992D-02 0.27916418D+05 0.27916418D+05 0.27916418D+05 0.12181932D+01  1  2  5  3  5  1        2 -.359357235736D-04 0.100000000000D+01
  </mgrwgt>
  </event>
  <event>
  4     66 0.48098993E-03 0.11192401E+03 0.75467711E-02 0.11620240E+00
        2 -1    0    0  501    0 0.00000000E+00 0.00000000E+00 0.74086783E+02 0.74087474E+02 0.32000000E+00 0.0000E+00 0.9000E+01
       -1 -1    0    0    0  501 0.00000000E+00 0.00000000E+00 -.17069892E+03 0.17069922E+03 0.32000000E+00 0.0000E+00 0.9000E+01
       25  1    1    2    0    0 0.98350692E+01 -.42456662E+02 -.68758392E+02 0.14917109E+03 0.12500000E+03 0.0000E+00 0.9000E+01
       24  1    1    2    0    0 -.98350692E+01 0.42456662E+02 -.27853742E+02 0.95615604E+02 0.80419002E+02 0.0000E+00 0.9000E+01
#aMCatNLO 1  0  0  1  2 0.11879920D+03 0.00000000D+00  -5  5  0 0.00000000D+00 0.00000000D+00 0.00000000D+00 0.00000000D+00 0.00000000D+00
  <mgrwgt>
 0.2304579390D+00    5    2    0
 0.112457346896095D+03 0.000000000000000D+00 0.000000000000000D+00 0.112457346896095D+03
 0.112457346896095D+03 0.000000000000000D+00 0.000000000000000D+00 -.112457346896095D+03
 0.132815696746930D+03 0.983506923750425D+01 -.424566621648830D+02 -.107569769583690D+02
 0.920989970452606D+02 -.983506923750425D+01 0.424566621648830D+02 0.107569769583690D+02
 0.000000000000000D+00 0.000000000000000D+00 0.000000000000000D+00 0.000000000000000D+00
 0.216595009953347D+03 0.000000000000000D+00 0.000000000000000D+00 0.216595009953347D+03
 0.166641176898272D+03 0.000000000000000D+00 0.000000000000000D+00 -.166641176898272D+03
 0.154258878839169D+03 -.555750881862446D+02 -.704733901591628D+02 -.107569769583690D+02
 0.100102812003448D+03 -.536283956278268D+02 0.236989376498078D+02 0.107569769583690D+02
 0.128874496009003D+03 0.109203483814071D+03 0.467744525093550D+02 0.499538330550756D+02
0.302873507198D-03 0.000000000000D+00 0.000000000000D+00 0.292470260841D-02 0.000000000000D+00  5 2 -1 25 24 21 0 0.11398043D-01 0.26261448D-01 0.12526983D+05 0.12526983D+05 0.12526983D+05 0.12568424D+01  1  2  2  1  5  1        2 0.224755879374D+00 0.100000000000D+01
-.168258436067D-04 0.000000000000D+00 -.116311401607D-05 0.292470260841D-02 0.000000000000D+00  5 2 -1 25 24 21 2 0.11398043D-01 0.26261448D-01 0.12526983D+05 0.12526983D+05 0.12526983D+05 0.12568424D+01  1  2  3  1  5  1        2 -.197236955350D-01 0.100000000000D+01
0.209621243707D-04 0.000000000000D+00 0.000000000000D+00 0.292470260841D-02 0.000000000000D+00  5 2 -1 25 24 21 2 0.11398043D-01 0.26261448D-01 0.12526983D+05 0.12526983D+05 0.12526983D+05 0.12568424D+01  1  2 15  1  5  1        2 0.245723524192D-01 0.100000000000D+01
-.180605813431D-04 0.000000000000D+00 -.113308735919D-03 0.292470260841D-02 0.000000000000D+00  5 2 -1 25 24 21 2 0.31879554D-01 0.26261448D-01 0.12526983D+05 0.12526983D+05 0.12526983D+05 0.12568424D+01  1  2  5  1  5  1        2 -.660385690593D-02 0.100000000000D+01
0.424539918854D-05 0.000000000000D+00 -.130849075502D-04 0.292470260841D-02 0.000000000000D+00  5 21 -1 25 24 -2 2 0.31879554D-01 0.26261448D-01 0.12526983D+05 0.12526983D+05 0.12526983D+05 0.12568424D+01  1  2  5  3  5  1        2 0.745725963396D-02 0.100000000000D+01
  </mgrwgt>
  </event>
  <event>
  5     66 -.48098993E-03 0.10299749E+03 0.75467711E-02 0.12573886E+00
        2 -1    0    0  502    0 0.00000000E+00 0.00000000E+00 0.39316535E+02 0.39317837E+02 0.32000000E+00 0.0000E+00 0.9000E+01
       -1 -1    0    0    0  501 0.00000000E+00 0.00000000E+00 -.32083174E+03 0.32083190E+03 0.32000000E+00 0.0000E+00 0.9000E+01
       25  1    1    2    0    0 0.65993168E+01 0.52273352E+01 -.17386136E+03 0.21429803E+03 0.12500000E+03 0.0000E+00 0.9000E+01
       24  1    1    2    0    0 -.51019125E+01 0.11497612E+02 -.85590557E+02 0.11811513E+03 0.80419002E+02 0.0000E+00 0.9000E+01
       21  1    1    2  502  501 -.14974043E+01 -.16724948E+02 -.22063290E+02 0.27736571E+02 0.75000000E+00 0.0000E+00 0.9000E+01
#aMCatNLO 2  0  0  1  2 0.16791846D+02 0.00000000D+00  -5  5  0 0.00000000D+00 0.00000000D+00 0.00000000D+00 0.00000000D+00 0.00000000D+00
  <mgrwgt>
 -.1102546792D+00    2    2    0
 0.103563084847112D+03 0.000000000000000D+00 0.000000000000000D+00 0.103563084847112D+03
 0.103563084847112D+03 0.000000000000000D+00 0.000000000000000D+00 -.103563084847112D+03
 0.125669861743409D+03 0.569207635294881D+01 -.490589966022986D+01 -.105568255609096D+02
 0.814563079508153D+02 -.569207635294881D+01 0.490589966022986D+01 0.105568255609096D+02
 0.000000000000000D+00 -.000000000000000D+00 -.000000000000000D+00 -.000000000000000D+00
 0.111973739857519D+03 0.000000000000000D+00 0.000000000000000D+00 0.111973739857519D+03
 0.112636914311890D+03 0.000000000000000D+00 0.000000000000000D+00 -.112636914311890D+03
 0.125727175194298D+03 0.659931684455516D+01 0.522733522928222D+01 -.105568255609096D+02
 0.820785424005703D+02 -.510191252351463D+01 0.114976124004338D+02 0.105568255609096D+02
 0.168049365745409D+02 -.149740432104053D+01 -.167249476297160D+02 -.663174454370866D+00
-.375280859147D-03 0.000000000000D+00 0.000000000000D+00 0.318527412915D-02 0.000000000000D+00  5 2 -1 25 24 21 2 0.62736633D-02 0.45379201D-01 0.12484916D+05 0.12484916D+05 0.12484916D+05 0.12570128D+01  1  2 13  1  5  1        2 -.362702106317D+00 0.100000000000D+01
0.289894755673D-03 0.000000000000D+00 0.000000000000D+00 0.318527412915D-02 0.958295193257D-04  5 2 -1 25 24 21 2 0.60483596D-02 0.49355166D-01 0.12484916D+05 0.12484916D+05 0.12484916D+05 0.12570128D+01  1  2  1  1  5  1        2 0.252447427128D+00 0.100000000000D+01
  </mgrwgt>
  </event>
  <event>
  4     66 0.48098993E-03 0.13027682E+03 0.75467711E-02 0.11047911E+00
        2 -1    0    0  501    0 0.00000000E+00 0.00000000E+00 0.39247642E+03 0.39247655E+03 0.32000000E+00 0.0000E+00 0.9000E+01
       -1 -1    0    0    0  501 0.00000000E+00 0.00000000E+00 -.49557574E+02 0.49558607E+02 0.32000000E+00 0.0000E+00 0.9000E+01
       25  1    1    2    0    0 0.36183987E+02 0.70181883E+02 0.11337572E+03 0.18631648E+03 0.12500000E+03 0.0000E+00 0.9000E+01
       24  1    1    2    0    0 -.36183987E+02 -.70181883E+02 0.22954313E+03 0.25571868E+03 0.80419002E+02 0.0000E+00 0.9000E+01
#aMCatNLO 1  0  0  1  2 0.19964387D+03 0.00000000D+00  -5  5  0 0.00000000D+00 0.00000000D+00 0.00000000D+00 0.00000000D+00 0.00000000D+00
  <mgrwgt>
 0.3367395967D+00    5    2    0
 0.139464820900765D+03 0.000000000000000D+00 0.000000000000000D+00 0.139464820900765D+03
 0.139464820900765D+03 0.000000000000000D+00 0.000000000000000D+00 -.139464820900765D+03
 0.155880760035957D+03 0.361839868880380D+02 0.701818827864566D+02 -.493865748035014D+02
 0.123048881765573D+03 -.361839868880380D+02 -.701818827864566D+02 0.493865748035014D+02
 0.000000000000000D+00 0.000000000000000D+00 -.000000000000000D+00 0.000000000000000D+00
 0.339891320211818D+03 0.000000000000000D+00 0.000000000000000D+00 0.339891320211818D+03
 0.230684446011586D+03 0.000000000000000D+00 0.000000000000000D+00 -.230684446011586D+03
 0.191504430926689D+03 -.631007663498389D+02 0.120947123073664D+03 -.493865748035014D+02
 0.151510758182401D+03 -.114654764602469D+03 -.300590264939821D+02 0.493865748035014D+02
 0.227560577114314D+03 0.177755530952308D+03 -.908880965796818D+02 0.109206874200232D+03
0.382468952483D-03 0.000000000000D+00 0.000000000000D+00 0.222357953447D-02 0.000000000000D+00  5 2 -1 25 24 21 0 0.60381077D-01 0.76243317D-02 0.16972051D+05 0.16972051D+05 0.16972051D+05 0.12417532D+01  1  2  2  1  5  1        2 0.312768881535D+00 0.100000000000D+01
-.211282845847D-04 0.000000000000D+00 -.146878148392D-05 0.222357953447D-02 0.000000000000D+00  5 2 -1 25 24 21 2 0.60381077D-01 0.76243317D-02 0.16972051D+05 0.16972051D+05 0.16972051D+05 0.12417532D+01  1  2  3  1  5  1        2 -.266417122000D-01 0.100000000000D+01
0.264129070444D-04 0.000000000000D+00 0.000000000000D+00 0.222357953447D-02 0.000000000000D+00  5 2 -1 25 24 21 2 0.60381077D-01 0.76243317D-02 0.16972051D+05 0.16972051D+05 0.16972051D+05 0.12417532D+01  1  2 15  1  5  1        2 0.333053573290D-01 0.100000000000D+01
0.575031202658D-04 0.000000000000D+00 -.146166132724D-03 0.222357953447D-02 0.000000000000D+00  5 2 -1 25 24 21 2 0.20928608D+00 0.76243317D-02 0.16972051D+05 0.16972051D+05 0.16972051D+05 0.12417532D+01  1  2  5  1  5  1        2 0.152505169047D-01 0.100000000000D+01
0.132117941315D-04 0.000000000000D+00 -.212214329614D-04 0.222357953447D-02 0.000000000000D+00  5 21 -1 25 24 -2 2 0.20928608D+00 0.76243317D-02 0.16972051D+05 0.16972051D+05 0.16972051D+05 0.12417532D+01  1  2  5  3  5  1        2 0.205655311450D-02 0.100000000000D+01
  </mgrwgt>
  </event>
  <event>
  4     66 0.48098993E-03 0.78371813E+02 0.75467711E-02 0.11828614E+00
        2 -1    0    0  501    0 0.00000000E+00 0.00000000E+00 0.12128636E+04 0.12128637E+04 0.32000000E+00 0.0000E+00 0.9000E+01
       -1 -1    0    0    0  501 0.00000000E+00 0.00000000E+00 -.42290952E+02 0.42292163E+02 0.32000000E+00 0.0000E+00 0.9000E+01
       25  1    1    2    0    0 0.40470244E+01 0.12359855E+03 0.17277873E+03 0.24651667E+03 0.12500000E+03 0.0000E+00 0.9000E+01
       24  1    1    2    0    0 -.40470244E+01 -.12359855E+03 0.99779395E+03 0.10086392E+04 0.80419002E+02 0.0000E+00 0.9000E+01
#aMCatNLO 1  0  0  1  2 0.72156768D+01 0.00000000D+00  -5  5  0 0.00000000D+00 0.00000000D+00 0.00000000D+00 0.00000000D+00 0.00000000D+00
  <mgrwgt>
 0.7028026370D+00   11    2    0
 0.226481663432743D+03 0.000000000000000D+00 0.000000000000000D+00 0.226481663432743D+03
 0.226481663432743D+03 0.000000000000000D+00 0.000000000000000D+00 -.226481663432743D+03
 0.236590411208199D+03 0.404702435564629D+01 0.123598551835678D+03 -.158294163675269D+03
 0.216372915657287D+03 -.404702435564629D+01 -.123598551835678D+03 0.158294163675269D+03
 0.000000000000000D+00 -.000000000000000D+00 -.000000000000000D+00 0.000000000000000D+00
 0.230405945027314D+03 0.000000000000000D+00 0.000000000000000D+00 0.230405945027314D+03
 0.229851776613713D+03 0.000000000000000D+00 0.000000000000000D+00 -.229851776613713D+03
 0.237296846103964D+03 0.763232786600321D+01 0.124777796456667D+03 -.158294163675269D+03
 0.215723949751203D+03 -.777895708570696D+00 -.122523300504446D+03 0.158294163675269D+03
 0.723692578586089D+01 -.685443215743251D+01 -.225449595222067D+01 0.554168413601752D+00
0.798403376063D-03 0.000000000000D+00 0.000000000000D+00 0.111281953428D-02 0.000000000000D+00  5 2 -1 25 24 21 0 0.18659450D+00 0.65063967D-02 0.26138558D+05 0.26138558D+05 0.26138558D+05 0.12212294D+01  1  2  2  1  5  1        2 0.209796083141D+00 0.100000000000D+01
-.382280248619D-04 0.000000000000D+00 -.306607918852D-05 0.111281953428D-02 0.000000000000D+00  5 2 -1 25 24 21 2 0.18659450D+00 0.65063967D-02 0.26138558D+05 0.26138558D+05 0.26138558D+05 0.12212294D+01  1  2  3  1  5  1        2 -.149813645358D-01 0.100000000000D+01
0.542585214488D-04 0.000000000000D+00 0.000000000000D+00 0.111281953428D-02 0.000000000000D+00  5 2 -1 25 24 21 2 0.18659450D+00 0.65063967D-02 0.26138558D+05 0.26138558D+05 0.26138558D+05 0.12212294D+01  1  2 15  1  5  1        2 0.212636329482D-01 0.100000000000D+01
0.884080915073D-03 0.000000000000D+00 0.000000000000D+00 0.111281953428D-02 0.000000000000D+00  5 2 -1 25 24 21 2 0.19119369D+00 0.65063967D-02 0.27317474D+05 0.27317474D+05 0.27317474D+05 0.12191913D+01  1  2 12  1  5  1        2 0.332473127111D+00 0.100000000000D+01
-.830583594337D-03 0.000000000000D+00 0.000000000000D+00 0.111281953428D-02 0.000000000000D+00  5 2 -1 25 24 21 2 0.18659450D+00 0.65063967D-02 0.26138558D+05 0.26138558D+05 0.26138558D+05 0.12212294D+01  1  2  4  1  5  1        2 -.325501399802D+00 0.100000000000D+01
-.260747428967D-01 0.000000000000D+00 -.375864706421D-02 0.111281953428D-02 0.000000000000D+00  5 2 -1 25 24 21 2 0.19170211D+00 0.65063967D-02 0.26138558D+05 0.26138558D+05 0.26138558D+05 0.12212294D+01  1  2  5  1  5  1        2 -.979547787111D+01 0.100000000000D+01
0.261680723806D-01 0.000000000000D+00 0.375727696304D-02 0.111281953428D-02 0.000000000000D+00  5 2 -1 25 24 21 2 0.18659450D+00 0.65063967D-02 0.26138558D+05 0.26138558D+05 0.26138558D+05 0.12212294D+01  1  2  6  1  5  1        2 0.102551317508D+02 0.100000000000D+01
0.120734731321D-03 0.000000000000D+00 0.000000000000D+00 0.111281953428D-02 0.169514681539D-03  5 2 -1 25 24 21 2 0.18982765D+00 0.66032137D-02 0.27317474D+05 0.27317474D+05 0.27317474D+05 0.12191913D+01  1  2 11  1  5  1        2 0.449119771273D-01 0.100000000000D+01
0.223965526470D-04 0.000000000000D+00 0.000000000000D+00 0.111281953428D-02 0.000000000000D+00  5 21 -1 25 24 -2 2 0.19119369D+00 0.65063967D-02 0.27317474D+05 0.27317474D+05 0.27317474D+05 0.12191913D+01  1  2 12  3  5  1        2 0.542307792883D-02 0.100000000000D+01
-.125844905392D-03 0.000000000000D+00 -.182836289431D-04 0.111281953428D-02 0.000000000000D+00  5 21 -1 25 24 -2 2 0.19170211D+00 0.65063967D-02 0.26138558D+05 0.26138558D+05 0.26138558D+05 0.12212294D+01  1  2  5  3  5  1        2 -.304038295287D-01 0.100000000000D+01
0.692705119063D-06 0.000000000000D+00 0.000000000000D+00 0.111281953428D-02 0.541141128798D-06  5 21 -1 25 24 -2 2 0.18982765D+00 0.66032137D-02 0.27317474D+05 0.27317474D+05 0.27317474D+05 0.12191913D+01  1  2 11  3  5  1        2 0.167452856324D-03 0.100000000000D+01
  </mgrwgt>
  </event>
  <event>
  4     66 0.48098993E-03 0.87768009E+02 0.75467711E-02 0.11303971E+00
        2 -1    0    0  501    0 0.00000000E+00 0.00000000E+00 0.15985906E+04 0.15985906E+04 0.32000000E+00 0.0000E+00 0.9000E+01
       -1 -1    0    0    0  501 0.00000000E+00 0.00000000E+00 -.16243256E+02 0.16246408E+02 0.32000000E+00 0.0000E+00 0.9000E+01
       25  1    1    2    0    0 -.10310427E+03 0.28116375E+02 0.11658431E+04 0.11773853E+04 0.12500000E+03 0.0000E+00 0.9000E+01
       24  1    1    2    0    0 0.10310427E+03 -.28116375E+02 0.41650426E+03 0.43745175E+03 0.80419002E+02 0.0000E+00 0.9000E+01
#aMCatNLO 1  0  0  1  2 0.12785293D+03 0.00000000D+00  -5  5  0 0.00000000D+00 0.00000000D+00 0.00000000D+00 0.00000000D+00 0.00000000D+00
  <mgrwgt>
 0.6086863074D+00    8    2    0
 0.161148647633473D+03 0.000000000000000D+00 0.000000000000000D+00 0.161148647633473D+03
 0.161148647633473D+03 0.000000000000000D+00 0.000000000000000D+00 -.161148647633473D+03
 0.175355692154347D+03 -.103104265737421D+03 0.281163752689874D+02 0.608571984190112D+02
 0.146941603112599D+03 0.103104265737421D+03 -.281163752689874D+02 -.608571984190112D+02
 0.000000000000000D+00 0.000000000000000D+00 -.000000000000000D+00 0.000000000000000D+00
 0.291648928877130D+03 0.000000000000000D+00 0.000000000000000D+00 0.291648928877130D+03
 0.207914223152539D+03 0.000000000000000D+00 0.000000000000000D+00 -.207914223152539D+03
 0.228367064965272D+03 -.165741798374682D+03 0.731612878028294D+02 0.608571984190112D+02
 0.118363260371903D+03 0.619422510818762D+02 0.148471646962235D+01 -.608571984190112D+02
 0.152832826692495D+03 0.103799547292805D+03 -.746460042724518D+02 0.837347057245912D+02
0.517913236267D-03 0.000000000000D+00 0.000000000000D+00 0.202291257257D-02 0.000000000000D+00  5 2 -1 25 24 21 0 0.24593726D+00 0.24992074D-02 0.22231355D+05 0.22231355D+05 0.22231355D+05 0.12288007D+01  1  2  2  1  5  1        2 0.347054921758D+00 0.100000000000D+01
-.285617629662D-04 0.000000000000D+00 -.198892319695D-05 0.202291257257D-02 0.000000000000D+00  5 2 -1 25 24 21 2 0.24593726D+00 0.24992074D-02 0.22231355D+05 0.22231355D+05 0.22231355D+05 0.12288007D+01  1  2  3  1  5  1        2 -.288994200973D-01 0.100000000000D+01
0.357927420485D-04 0.000000000000D+00 0.000000000000D+00 0.202291257257D-02 0.000000000000D+00  5 2 -1 25 24 21 2 0.24593726D+00 0.24992074D-02 0.22231355D+05 0.22231355D+05 0.22231355D+05 0.12288007D+01  1  2 15  1  5  1        2 0.362158838064D-01 0.100000000000D+01
0.886987942168D-05 0.000000000000D+00 0.000000000000D+00 0.202291257257D-02 0.000000000000D+00  5 2 -1 25 24 21 2 0.45693757D+00 0.24992074D-02 0.50508421D+05 0.50508421D+05 0.50508421D+05 0.11918469D+01  1  2 12  1  5  1        2 0.154976669291D-02 0.100000000000D+01
-.217966715696D-03 0.000000000000D+00 -.151801758616D-03 0.202291257257D-02 0.000000000000D+00  5 2 -1 25 24 21 2 0.48206094D+00 0.24992074D-02 0.22231355D+05 0.22231355D+05 0.22231355D+05 0.12288007D+01  1  2  5  1  5  1        2 -.330481582467D-01 0.100000000000D+01
0.282581774958D-03 0.000000000000D+00 0.122902670094D-03 0.202291257257D-02 0.000000000000D+00  5 2 -1 25 24 21 2 0.24593726D+00 0.24992074D-02 0.22231355D+05 0.22231355D+05 0.22231355D+05 0.12288007D+01  1  2  6  1  5  1        2 0.285922456398D+00 0.100000000000D+01
0.598950654951D-06 0.000000000000D+00 0.000000000000D+00 0.202291257257D-02 0.000000000000D+00  5 21 -1 25 24 -2 2 0.45693757D+00 0.24992074D-02 0.50508421D+05 0.50508421D+05 0.50508421D+05 0.11918469D+01  1  2 12  3  5  1        2 0.132741693302D-04 0.100000000000D+01
-.693971195472D-05 0.000000000000D+00 -.110669452475D-04 0.202291257257D-02 0.000000000000D+00  5 21 -1 25 24 -2 2 0.48206094D+00 0.24992074D-02 0.22231355D+05 0.22231355D+05 0.22231355D+05 0.12288007D+01  1  2  5  3  5  1        2 -.122417083660D-03 0.100000000000D+01
  </mgrwgt>
  </event>
  <event>
  4     66 0.48098993E-03 0.11924702E+03 0.75467711E-02 0.10751699E+00
        2 -1    0    0  501    0 0.00000000E+00 0.00000000E+00 0.27166879E+04 0.27166879E+04 0.32000000E+00 0.0000E+00 0.9000E+01
       -1 -1    0    0    0  501 0.00000000E+00 0.00000000E+00 -.56740027E+01 0.56830191E+01 0.32000000E+00 0.0000E+00 0.9000E+01
       25  1    1    2    0    0 -.10441437E+02 0.58594610E+02 0.19328325E+04 0.19377845E+04 0.12500000E+03 0.0000E+00 0.9000E+01
       24  1    1    2    0    0 0.10441437E+02 -.58594610E+02 0.77818133E+03 0.78458636E+03 0.80419002E+02 0.0000E+00 0.9000E+01
#aMCatNLO 1  0  0  1  2 0.27681123D+03 0.00000000D+00  -5  5  0 0.00000000D+00 0.00000000D+00 0.00000000D+00 0.00000000D+00 0.00000000D+00
  <mgrwgt>
 0.7003516213D+00    3    2    0
 0.124204641004033D+03 0.000000000000000D+00 0.000000000000000D+00 0.124204641004033D+03
 0.124204641004033D+03 0.000000000000000D+00 0.000000000000000D+00 -.124204641004033D+03
 0.142637494985174D+03 -.104414368734127D+02 0.585946098085217D+02 0.343235061299279D+02
 0.105771787022892D+03 0.104414368734127D+02 -.585946098085217D+02 -.343235061299279D+02
 0.000000000000000D+00 -.000000000000000D+00 0.000000000000000D+00 -.000000000000000D+00
 0.286603031690280D+03 0.000000000000000D+00 0.000000000000000D+00 0.286603031690280D+03
 0.376311097164477D+03 0.000000000000000D+00 0.000000000000000D+00 -.376311097164477D+03
 0.149798665126854D+03 0.469032928468872D+02 -.586226758247630D+02 0.343235061299279D+02
 0.222130937176088D+03 0.747409170968474D+02 -.190027970401274D+03 -.343235061299279D+02
 0.290984526551815D+03 -.121644209943735D+03 0.248650646226037D+03 -.897080654741976D+02
0.870802250057D-03 0.000000000000D+00 0.000000000000D+00 0.252789262382D-02 0.000000000000D+00  5 2 -1 25 24 21 0 0.41795267D+00 0.87361851D-03 0.14219851D+05 0.14219851D+05 0.14219851D+05 0.12504756D+01  1  2  2  1  5  1        2 0.685521951728D+00 0.100000000000D+01
-.482803071570D-04 0.000000000000D+00 -.334410992772D-05 0.252789262382D-02 0.000000000000D+00  5 2 -1 25 24 21 2 0.41795267D+00 0.87361851D-03 0.14219851D+05 0.14219851D+05 0.14219851D+05 0.12504756D+01  1  2  3  1  5  1        2 -.594322690362D-01 0.100000000000D+01
0.603273148454D-04 0.000000000000D+00 0.000000000000D+00 0.252789262382D-02 0.000000000000D+00  5 2 -1 25 24 21 2 0.41795267D+00 0.87361851D-03 0.14219851D+05 0.14219851D+05 0.14219851D+05 0.12504756D+01  1  2 15  1  5  1        2 0.742619386091D-01 0.100000000000D+01
  </mgrwgt>
  </event>
  <event>
  4     66 0.48098993E-03 0.10806846E+03 0.75467711E-02 0.11266619E+00
        2 -1    0    0  501    0 0.00000000E+00 0.00000000E+00 0.10289089E+04 0.10289090E+04 0.32000000E+00 0.0000E+00 0.9000E+01
       -1 -1    0    0    0  501 0.00000000E+00 0.00000000E+00 -.11348528E+02 0.11353038E+02 0.32000000E+00 0.0000E+00 0.9000E+01
       25  1    1    2    0    0 -.23138906E+02 0.23368469E+02 0.61052717E+03 0.62405923E+03 0.12500000E+03 0.0000E+00 0.9000E+01
       24  1    1    2    0    0 0.23138906E+02 -.23368469E+02 0.40703322E+03 0.41620278E+03 0.80419002E+02 0.0000E+00 0.9000E+01
#aMCatNLO 1  0  0  1  1 0.17918422D+03 0.00000000D+00  -5  5  0 0.00000000D+00 0.00000000D+00 0.00000000D+00 0.00000000D+00 0.00000000D+00
  <mgrwgt>
 0.4194098279D+00    3    2    0
 0.108069298543761D+03 0.000000000000000D+00 0.000000000000000D+00 0.108069298543761D+03
 0.108069298543761D+03 0.000000000000000D+00 0.000000000000000D+00 -.108069298543761D+03
 0.129254279313117D+03 -.231389061733648D+02 0.233684685423965D+02 0.417636009583062D+00
 0.868843177744050D+02 0.231389061733648D+02 -.233684685423965D+02 -.417636009583062D+00
 0.000000000000000D+00 -.000000000000000D+00 -.000000000000000D+00 -.000000000000000D+00
 0.205991454232391D+03 0.000000000000000D+00 0.000000000000000D+00 0.205991454232391D+03
 0.262709157630889D+03 0.000000000000000D+00 0.000000000000000D+00 -.262709157630889D+03
 0.154328957375830D+03 0.756966830507925D+02 0.496212136085166D+02 0.417636009583062D+00
 0.126425166015356D+03 0.974823996873577D+02 -.362132282425707D+01 -.417636009583062D+00
 0.187946488472094D+03 -.173179082738150D+03 -.459998907842595D+02 -.567177033984979D+02
0.182894011027D-03 0.000000000000D+00 0.000000000000D+00 0.306645788786D-02 0.000000000000D+00  5 2 -1 25 24 21 0 0.15829403D+00 0.17462781D-02 0.11678792D+05 0.11678792D+05 0.11678792D+05 0.12604074D+01  1  2  2  1  5  1        2 0.410445604362D+00 0.100000000000D+01
-.101607783896D-04 0.000000000000D+00 -.702361159441D-06 0.306645788786D-02 0.000000000000D+00  5 2 -1 25 24 21 2 0.15829403D+00 0.17462781D-02 0.11678792D+05 0.11678792D+05 0.11678792D+05 0.12604074D+01  1  2  3  1  5  1        2 -.362247189898D-01 0.100000000000D+01
0.126751799284D-04 0.000000000000D+00 0.000000000000D+00 0.306645788786D-02 0.000000000000D+00  5 2 -1 25 24 21 2 0.15829403D+00 0.17462781D-02 0.11678792D+05 0.11678792D+05 0.11678792D+05 0.12604074D+01  1  2 15  1  5  1        2 0.451889425635D-01 0.100000000000D+01
  </mgrwgt>
  </event>
  <event>
  4     66 0.48098993E-03 0.17179767E+03 0.75467711E-02 0.10642977E+00
        2 -1    0    0  501    0 0.00000000E+00 0.00000000E+00 0.19391597E+03 0.19391623E+03 0.32000000E+00 0.0000E+00 0.9000E+01
       -1 -1    0    0    0  501 0.00000000E+00 0.00000000E+00 -.23569014E+03 0.23569036E+03 0.32000000E+00 0.0000E+00 0.9000E+01
       25  1    1    2    0    0 0.77110765E+01 0.13633218E+03 -.14952952E+03 0.23797059E+03 0.12500000E+03 0.0000E+00 0.9000E+01
       24  1    1    2    0    0 -.77110765E+01 -.13633218E+03 0.10775535E+03 0.19163600E+03 0.80419002E+02 0.0000E+00 0.9000E+01
#aMCatNLO 1  0  0  1  1 0.26429503D+03 0.00000000D+00  -5  5  0 0.00000000D+00 0.00000000D+00 0.00000000D+00 0.00000000D+00 0.00000000D+00
  <mgrwgt>
 0.3278513605D+00    3    2    0
 0.213785371124342D+03 0.000000000000000D+00 0.000000000000000D+00 0.213785371124342D+03
 0.213785371124342D+03 0.000000000000000D+00 0.000000000000000D+00 -.213785371124342D+03
 0.224494457528930D+03 0.771107646589507D+01 0.136332177911341D+03 -.126991488009614D+03
 0.203076284719755D+03 -.771107646589507D+01 -.136332177911341D+03 0.126991488009614D+03
 0.000000000000000D+00 0.000000000000000D+00 -.000000000000000D+00 -.000000000000000D+00
 0.343257283845434D+03 0.000000000000000D+00 0.000000000000000D+00 0.343257283845434D+03
 0.441297328967222D+03 0.000000000000000D+00 0.000000000000000D+00 -.441297328967222D+03
 0.310483892197837D+03 -.114127283086731D+03 0.227207773948567D+03 -.126991488009614D+03
 0.192177628609235D+03 -.977279686099522D+02 -.691912646796880D+02 0.126991488009614D+03
 0.281893092005585D+03 0.211855251696683D+03 -.158016509268879D+03 -.980400451217879D+02
0.218968520457D-02 0.000000000000D+00 0.000000000000D+00 0.140846172485D-02 0.000000000000D+00  5 2 -1 25 24 21 0 0.29833263D-01 0.36260058D-01 0.29514438D+05 0.29514438D+05 0.29514438D+05 0.12156429D+01  1  2  2  1  5  1        2 0.320232239417D+00 0.100000000000D+01
-.114577701811D-03 0.000000000000D+00 -.840896774289D-05 0.140846172485D-02 0.000000000000D+00  5 2 -1 25 24 21 2 0.29833263D-01 0.36260058D-01 0.29514438D+05 0.29514438D+05 0.29514438D+05 0.12156429D+01  1  2  3  1  5  1        2 -.247625575381D-01 0.100000000000D+01
0.149831789881D-03 0.000000000000D+00 0.000000000000D+00 0.140846172485D-02 0.000000000000D+00  5 2 -1 25 24 21 2 0.29833263D-01 0.36260058D-01 0.29514438D+05 0.29514438D+05 0.29514438D+05 0.12156429D+01  1  2 15  1  5  1        2 0.323816786279D-01 0.100000000000D+01
  </mgrwgt>
  </event>
  <event>
  4     66 0.48098993E-03 0.45904684E+02 0.75467711E-02 0.11884508E+00
        2 -1    0    0  501    0 0.00000000E+00 0.00000000E+00 0.87153737E+03 0.87153743E+03 0.32000000E+00 0.0000E+00 0.9000E+01
       -1 -1    0    0    0  501 0.00000000E+00 0.00000000E+00 -.23690966E+02 0.23693127E+02 0.32000000E+00 0.0000E+00 0.9000E+01
       25  1    1    2    0    0 0.81407189E+02 -.71382512E+01 0.64653728E+03 0.66356126E+03 0.12500000E+03 0.0000E+00 0.9000E+01
       24  1    1    2    0    0 -.81407189E+02 0.71382512E+01 0.20130912E+03 0.23166930E+03 0.80419002E+02 0.0000E+00 0.9000E+01
#aMCatNLO 1  0  0  2  1 0.51994959D+02 0.00000000D+00  -5  5  0 0.00000000D+00 0.00000000D+00 0.00000000D+00 0.00000000D+00 0.00000000D+00
  <mgrwgt>
 0.3806505570D+00    9    2    0
 0.143696052545393D+03 0.000000000000000D+00 0.000000000000000D+00 0.143696052545393D+03
 0.143696052545393D+03 0.000000000000000D+00 0.000000000000000D+00 -.143696052545393D+03
 0.159628612771320D+03 0.814071892242096D+02 -.713825120282533D+01 0.563756057854378D+02
 0.127763492319467D+03 -.814071892242096D+02 0.713825120282533D+01 -.563756057854378D+02
 0.000000000000000D+00 -.000000000000000D+00 -.000000000000000D+00 -.000000000000000D+00
 0.153397997088198D+03 0.000000000000000D+00 0.000000000000000D+00 0.153397997088198D+03
 0.237744857294145D+03 0.000000000000000D+00 0.000000000000000D+00 -.237744857294145D+03
 0.172740132312544D+03 0.104377830811204D+03 0.118832999973916D+02 0.563756057854378D+02
 0.119317563765097D+03 -.643309434393587D+02 0.212787654010852D+02 -.563756057854378D+02
 0.990851583047013D+02 -.400468873718449D+02 -.331620653984768D+02 -.843468602059474D+02
0.381984440287D-03 0.000000000000D+00 0.000000000000D+00 0.212062806873D-02 0.000000000000D+00  5 2 -1 25 24 21 0 0.13408284D+00 0.36449347D-02 0.17423358D+05 0.17423358D+05 0.17423358D+05 0.12404753D+01  1  2  2  2  5  2       -1 0.374278275016D+00 0.100000000000D+01
-.210353024069D-04 0.000000000000D+00 -.146692082952D-05 0.212062806873D-02 0.000000000000D+00  5 2 -1 25 24 21 2 0.13408284D+00 0.36449347D-02 0.17423358D+05 0.17423358D+05 0.17423358D+05 0.12404753D+01  1  2  3  2  5  2       -1 -.317156751711D-01 0.100000000000D+01
0.263663459618D-04 0.000000000000D+00 0.000000000000D+00 0.212062806873D-02 0.000000000000D+00  5 2 -1 25 24 21 2 0.13408284D+00 0.36449347D-02 0.17423358D+05 0.17423358D+05 0.17423358D+05 0.12404753D+01  1  2 15  2  5  2       -1 0.397534795457D-01 0.100000000000D+01
0.450886118176D-03 0.000000000000D+00 0.000000000000D+00 0.212062806873D-02 0.000000000000D+00  5 2 -1 25 24 21 2 0.13408284D+00 0.60850002D-02 0.25669811D+05 0.25669811D+05 0.25669811D+05 0.12220685D+01  1  2 12  2  5  2       -1 0.311925737084D+00 0.100000000000D+01
-.513746573886D-03 0.000000000000D+00 0.000000000000D+00 0.212062806873D-02 0.000000000000D+00  5 2 -1 25 24 21 2 0.13408284D+00 0.36449347D-02 0.17423358D+05 0.17423358D+05 0.17423358D+05 0.12404753D+01  1  2  4  2  5  2       -1 -.774594020204D+00 0.100000000000D+01
-.568232335406D-03 0.000000000000D+00 -.123116722661D-03 0.212062806873D-02 0.000000000000D+00  5 2 -1 25 24 21 2 0.13408284D+00 0.64309570D-02 0.17423358D+05 0.17423358D+05 0.17423358D+05 0.12404753D+01  1  2  5  2  5  2       -1 -.370383845957D+00 0.100000000000D+01
0.562494208064D-03 0.000000000000D+00 0.105628180210D-03 0.212062806873D-02 0.000000000000D+00  5 2 -1 25 24 21 2 0.13408284D+00 0.36449347D-02 0.17423358D+05 0.17423358D+05 0.17423358D+05 0.12404753D+01  1  2  6  2  5  2       -1 0.848092565699D+00 0.100000000000D+01
0.259270921095D-04 0.000000000000D+00 0.000000000000D+00 0.212062806873D-02 0.000000000000D+00  5 2 21 25 24 1 2 0.13408284D+00 0.60850002D-02 0.25669811D+05 0.25669811D+05 0.25669811D+05 0.12220685D+01  1  2 12  4  5  2       -1 0.299859457253D+00 0.100000000000D+01
-.292179361071D-04 0.000000000000D+00 -.770414724608D-05 0.212062806873D-02 0.000000000000D+00  5 2 21 25 24 1 2 0.13408284D+00 0.64309570D-02 0.17423358D+05 0.17423358D+05 0.17423358D+05 0.12404753D+01  1  2  5  4  5  2       -1 -.316565416226D+00 0.100000000000D+01
  </mgrwgt>
  </event>
  <event>
  4     66 0.48098993E-03 0.14416012E+03 0.75467711E-02 0.10905923E+00
        4 -1    0    0  501    0 0.00000000E+00 0.00000000E+00 0.56865520E+02 0.56886641E+02 0.15500000E+01 0.0000E+00 0.9000E+01
       -3 -1    0    0    0  501 0.00000000E+00 0.00000000E+00 -.36670489E+03 0.36670523E+03 0.50000000E+00 0.0000E+00 0.9000E+01
       25  1    1    2    0    0 -.97794207E+02 -.20604372E+02 -.15927864E+03 0.22579400E+03 0.12500000E+03 0.0000E+00 0.9000E+01
       24  1    1    2    0    0 0.97794207E+02 0.20604372E+02 -.15056073E+03 0.19779786E+03 0.80419002E+02 0.0000E+00 0.9000E+01
#aMCatNLO 1  0  0  2  1 0.21775716D+03 0.00000000D+00  -5  5  0 0.00000000D+00 0.00000000D+00 0.00000000D+00 0.00000000D+00 0.00000000D+00
  <mgrwgt>
 0.6406230138D-01    5    2    0
 0.144420945570797D+03 0.000000000000000D+00 0.000000000000000D+00 0.144420945570797D+03
 0.144420945570797D+03 0.000000000000000D+00 0.000000000000000D+00 -.144420945570797D+03
 0.160273535389806D+03 -.977942067058089D+02 -.206043715391159D+02 0.862317543640850D+01
 0.128568355751787D+03 0.977942067058089D+02 0.206043715391159D+02 -.862317543640850D+01
 0.000000000000000D+00 -.000000000000000D+00 0.000000000000000D+00 -.000000000000000D+00
 0.244013268660091D+03 0.000000000000000D+00 0.000000000000000D+00 0.244013268660091D+03
 0.368588451611481D+03 0.000000000000000D+00 0.000000000000000D+00 -.368588451611481D+03
 0.160322637206398D+03 -.228237544772390D+02 -.973810303794835D+02 0.862317543640850D+01
 0.201406292769589D+03 0.174957787366422D+03 -.584182531239829D+02 -.862317543640850D+01
 0.250872790295585D+03 -.152134032889183D+03 0.155799283503466D+03 -.124575182951390D+03
0.102415352340D-02 0.000000000000D+00 0.000000000000D+00 0.244955573988D-02 0.000000000000D+00  5 4 -3 25 24 21 0 0.87501925D-02 0.56417787D-01 0.20782140D+05 0.20782140D+05 0.20782140D+05 0.12319961D+01  1  2  2  2  5  2       -3 0.603768896245D-01 0.100000000000D+01
-.568971919195D-04 0.000000000000D+00 -.393301919567D-05 0.244955573988D-02 0.000000000000D+00  5 4 -3 25 24 21 2 0.87501925D-02 0.56417787D-01 0.20782140D+05 0.20782140D+05 0.20782140D+05 0.12319961D+01  1  2  3  2  5  2       -3 -.509114155606D-02 0.100000000000D+01
0.708775209227D-04 0.000000000000D+00 0.000000000000D+00 0.244955573988D-02 0.000000000000D+00  5 4 -3 25 24 21 2 0.87501925D-02 0.56417787D-01 0.20782140D+05 0.20782140D+05 0.20782140D+05 0.12319961D+01  1  2 15  2  5  2       -3 0.634209668328D-02 0.100000000000D+01
0.121169383871D-03 0.000000000000D+00 -.315830738968D-03 0.244955573988D-02 0.000000000000D+00  5 4 -3 25 24 21 2 0.87501925D-02 0.20840727D+00 0.20782140D+05 0.20782140D+05 0.20782140D+05 0.12319961D+01  1  2  5  2  5  2       -3 0.507125563965D-03 0.100000000000D+01
0.263270596983D-04 0.000000000000D+00 -.487005425888D-04 0.244955573988D-02 0.000000000000D+00  5 4 21 25 24 3 2 0.87501925D-02 0.20840727D+00 0.20782140D+05 0.20782140D+05 0.20782140D+05 0.12319961D+01  1  2  5  4  5  2       -3 0.192733106154D-02 0.100000000000D+01
  </mgrwgt>
  </event>
  <event>
  5     66 -.48098993E-03 0.10302623E+03 0.75467711E-02 0.12529012E+00
        2 -1    0    0  501    0 0.00000000E+00 0.00000000E+00 0.49037158E+04 0.49037158E+04 0.32000000E+00 0.0000E+00 0.9000E+01
       -1 -1    0    0    0  502 0.00000000E+00 0.00000000E+00 -.27405385E+01 0.27591577E+01 0.32000000E+00 0.0000E+00 0.9000E+01
       25  1    1    2    0    0 -.10530905E+01 0.15301460E+02 0.31081227E+04 0.31106730E+04 0.12500000E+03 0.0000E+00 0.9000E+01
       24  1    1    2    0    0 -.11138417E+02 0.22127990E+01 0.14730794E+04 0.14753166E+04 0.80419002E+02 0.0000E+00 0.9000E+01
       21  1    1    2  501  502 0.12191508E+02 -.17514259E+02 0.31977318E+03 0.32048531E+03 0.75000000E+00 0.0000E+00 0.9000E+01
#aMCatNLO 2  0  0  2  1 0.21339685D+02 0.00000000D+00  -5  5  0 0.00000000D+00 0.00000000D+00 0.00000000D+00 0.00000000D+00 0.00000000D+00
  <mgrwgt>
 -.6424961799D-01    2    2    0
 0.104203272873470D+03 0.000000000000000D+00 0.000000000000000D+00 0.104203272873470D+03
 0.104203272873470D+03 0.000000000000000D+00 0.000000000000000D+00 -.104203272873470D+03
 0.126174233557089D+03 0.632865031516020D+01 0.469688816624719D+01 0.152585923486068D+02
 0.822323121898521D+02 -.632865031516020D+01 -.469688816624719D+01 -.152585923486068D+02
 0.000000000000000D+00 0.000000000000000D+00 -.000000000000000D+00 -.000000000000000D+00
 0.112057970682323D+03 0.000000000000000D+00 0.000000000000000D+00 0.112057970682323D+03
 0.120322367396406D+03 0.000000000000000D+00 0.000000000000000D+00 -.120322367396406D+03
 0.126858457868577D+03 -.105309052320808D+01 0.153014604754730D+02 0.152585923486068D+02
 0.826377722938079D+02 -.111384171037959D+02 0.221279896818681D+01 -.152585923486068D+02
 0.228841079163436D+02 0.121915076270039D+02 -.175142594436598D+02 -.826439671408268D+01
-.667192181187D-03 0.000000000000D+00 0.000000000000D+00 0.313398137080D-02 0.000000000000D+00  5 2 -1 25 24 21 2 0.70150070D+00 0.43517992D-03 0.13052376D+05 0.13052376D+05 0.13052376D+05 0.12547678D+01  1  2 13  2  5  2       -1 -.118233546784D+00 0.100000000000D+01
0.651957285828D-03 0.000000000000D+00 0.000000000000D+00 0.313398137080D-02 0.585535313178D-04  5 2 -1 25 24 21 2 0.75437885D+00 0.42303169D-03 0.13052376D+05 0.13052376D+05 0.13052376D+05 0.12547678D+01  1  2  1  2  5  2       -1 0.539839287936D-01 0.100000000000D+01
  </mgrwgt>
  </event>
  <event>
  5     66 0.48098993E-03 0.10684046E+03 0.75467711E-02 0.12212041E+00
        2 -1    0    0  501    0 0.00000000E+00 0.00000000E+00 0.10681470E+04 0.10681471E+04 0.32000000E+00 0.0000E+00 0.9000E+01
       21 -1    0    0  502  501 0.00000000E+00 0.00000000E+00 -.27895371E+02 0.27905452E+02 0.75000000E+00 0.0000E+00 0.9000E+01
       25  1    1    2    0    0 -.44251806E+02 0.20318515E+02 0.18213017E+03 0.22620226E+03 0.12500000E+03 0.0000E+00 0.9000E+01
       24  1    1    2    0    0 0.16319070E+02 0.20891842E+02 0.66689429E+03 0.67224846E+03 0.80419002E+02 0.0000E+00 0.9000E+01
        1  1    1    2  502    0 0.27932736E+02 -.41210357E+02 0.19122721E+03 0.19760182E+03 0.32000000E+00 0.0000E+00 0.9000E+01
#aMCatNLO 2  0  0  2  2 0.49784850D+02 0.00000000D+00  -5  5  0 0.00000000D+00 0.00000000D+00 0.00000000D+00 0.00000000D+00 0.00000000D+00
  <mgrwgt>
 0.1378148416D+00    1    2    0
 0.144821124494215D+03 0.000000000000000D+00 0.000000000000000D+00 0.144821124494215D+03
 0.144821124494215D+03 0.000000000000000D+00 0.000000000000000D+00 -.144821124494215D+03
 0.160629909430827D+03 -.286470284025998D+02 -.270387838114863D+01 -.966902508485536D+02
 0.129012339557603D+03 0.286470284025998D+02 0.270387838114863D+01 0.966902508485536D+02
 0.000000000000000D+00 0.000000000000000D+00 -.000000000000000D+00 0.000000000000000D+00
 0.179640895500665D+03 0.000000000000000D+00 0.000000000000000D+00 0.179640895500665D+03
 0.165896168358479D+03 0.000000000000000D+00 0.000000000000000D+00 -.165896168358479D+03
 0.165363445154498D+03 -.442518058954790D+02 0.203185151819078D+02 -.966902508485536D+02
 0.128526268306244D+03 0.163190695193480D+02 0.208918417384546D+02 0.966902508485536D+02
 0.516473503984013D+02 0.279327363761310D+02 -.412103569203625D+02 0.137447271421861D+02
0.849359622553D-05 0.000000000000D+00 0.000000000000D+00 0.146120051879D-02 0.134159088671D-06  5 2 21 25 24 1 2 0.16433062D+00 0.42923622D-02 0.18037846D+05 0.18037846D+05 0.18037846D+05 0.12387939D+01  1  2  1  4  5  2       -1 0.137814841636D+00 0.100000000000D+01
  </mgrwgt>
  </event>
  <event>
  4     66 0.48098993E-03 0.13365955E+03 0.75467711E-02 0.10981553E+00
        2 -1    0    0  501    0 0.00000000E+00 0.00000000E+00 0.15277008E+04 0.15277008E+04 0.32000000E+00 0.0000E+00 0.9000E+01
       -1 -1    0    0    0  501 0.00000000E+00 0.00000000E+00 -.52917813E+02 0.52918780E+02 0.32000000E+00 0.0000E+00 0.9000E+01
       25  1    1    2    0    0 -.24362558E+03 -.72246202E+01 0.47404531E+03 0.54749391E+03 0.12500000E+03 0.0000E+00 0.9000E+01
       24  1    1    2    0    0 0.24362558E+03 0.72246202E+01 0.10007377E+04 0.10331257E+04 0.80419002E+02 0.0000E+00 0.9000E+01
#aMCatNLO 1  0  0  1  2 0.20071345D+02 0.00000000D+00  -5  5  0 0.00000000D+00 0.00000000D+00 0.00000000D+00 0.00000000D+00 0.00000000D+00
  <mgrwgt>
 0.3474046250D+00    9    2    0
 0.284329695612423D+03 0.000000000000000D+00 0.000000000000000D+00 0.284329695612423D+03
 0.284329695612423D+03 0.000000000000000D+00 0.000000000000000D+00 -.284329695612423D+03
 0.292381777567760D+03 -.243625580684773D+03 -.722462017699505D+01 -.102256956501690D+03
 0.276277613657086D+03 0.243625580684773D+03 0.722462017699505D+01 0.102256956501690D+03
 0.000000000000000D+00 -.000000000000000D+00 0.000000000000000D+00 0.000000000000000D+00
 0.433694127742239D+03 0.000000000000000D+00 0.000000000000000D+00 0.433694127742239D+03
 0.285181838277445D+03 0.000000000000000D+00 0.000000000000000D+00 -.285181838277445D+03
 0.284229319816675D+03 -.233699557457376D+03 -.945187466525531D+01 -.102256956501690D+03
 0.284784179241152D+03 0.253283931718208D+03 0.505742741554392D+01 0.102256956501690D+03
 0.149862466961857D+03 -.195843742608322D+02 0.439444724971139D+01 0.148512289464795D+03
0.231395064780D-02 0.000000000000D+00 0.000000000000D+00 0.176718676300D-02 0.000000000000D+00  5 2 -1 25 24 21 0 0.23503097D+00 0.81412790D-02 0.70377249D+05 0.70377249D+05 0.70377249D+05 0.11778526D+01  1  2  2  1  5  1        2 0.291396175030D+00 0.100000000000D+01
-.127801704996D-03 0.000000000000D+00 -.888617976474D-05 0.176718676300D-02 0.000000000000D+00  5 2 -1 25 24 21 2 0.23503097D+00 0.81412790D-02 0.70377249D+05 0.70377249D+05 0.70377249D+05 0.11778526D+01  1  2  3  1  5  1        2 -.223279230042D-01 0.100000000000D+01
0.159253516829D-03 0.000000000000D+00 0.000000000000D+00 0.176718676300D-02 0.000000000000D+00  5 2 -1 25 24 21 2 0.23503097D+00 0.81412790D-02 0.70377249D+05 0.70377249D+05 0.70377249D+05 0.11778526D+01  1  2 15  1  5  1        2 0.278227920513D-01 0.100000000000D+01
0.632657222272D-01 0.000000000000D+00 0.000000000000D+00 0.176718676300D-02 0.000000000000D+00  5 2 -1 25 24 21 2 0.35869972D+00 0.81412790D-02 0.75917150D+05 0.75917150D+05 0.75917150D+05 0.11747266D+01  1  2 12  1  5  1        2 0.412302698815D+01 0.100000000000D+01
-.582401985784D-01 0.000000000000D+00 0.000000000000D+00 0.176718676300D-02 0.000000000000D+00  5 2 -1 25 24 21 2 0.23503097D+00 0.81412790D-02 0.70377249D+05 0.70377249D+05 0.70377249D+05 0.11778526D+01  1  2  4  1  5  1        2 -.101750025138D+02 0.100000000000D+01
-.638124978874D-01 0.000000000000D+00 -.862933644543D-03 0.176718676300D-02 0.000000000000D+00  5 2 -1 25 24 21 2 0.35877324D+00 0.81412790D-02 0.70377249D+05 0.70377249D+05 0.70377249D+05 0.11778526D+01  1  2  5  1  5  1        2 -.418747079985D+01 0.100000000000D+01
0.589013840655D-01 0.000000000000D+00 0.791105382243D-03 0.176718676300D-02 0.000000000000D+00  5 2 -1 25 24 21 2 0.23503097D+00 0.81412790D-02 0.70377249D+05 0.70377249D+05 0.70377249D+05 0.11778526D+01  1  2  6  1  5  1        2 0.102905166116D+02 0.100000000000D+01
0.313711593979D-02 0.000000000000D+00 0.000000000000D+00 0.176718676300D-02 0.000000000000D+00  5 21 -1 25 24 -2 2 0.35869972D+00 0.81412790D-02 0.75917150D+05 0.75917150D+05 0.75917150D+05 0.11747266D+01  1  2 12  3  5  1        2 0.462109546654D-01 0.100000000000D+01
-.313364138279D-02 0.000000000000D+00 -.428051507254D-04 0.176718676300D-02 0.000000000000D+00  5 21 -1 25 24 -2 2 0.35877324D+00 0.81412790D-02 0.70377249D+05 0.70377249D+05 0.70377249D+05 0.11778526D+01  1  2  5  3  5  1        2 -.467676598482D-01 0.100000000000D+01
  </mgrwgt>
  </event>
  <event>
  5     66 0.48098993E-03 0.13502416E+03 0.75467711E-02 0.10660128E+00
        2 -1    0    0  502    0 0.00000000E+00 0.00000000E+00 0.16286852E+04 0.16286852E+04 0.32000000E+00 0.0000E+00 0.9000E+01
       -1 -1    0    0    0  501 0.00000000E+00 0.00000000E+00 -.12800114E+03 0.12800154E+03 0.32000000E+00 0.0000E+00 0.9000E+01
       25  1    1    2    0    0 0.37056785E+02 0.99783462E+00 0.42122991E+02 0.13701660E+03 0.12500000E+03 0.0000E+00 0.9000E+01
       24  1    1    2    0    0 0.25171063E+03 0.85576396E+01 0.20864730E+03 0.33679725E+03 0.80419002E+02 0.0000E+00 0.9000E+01
       21  1    1    2  502  501 -.28876742E+03 -.95554743E+01 0.12499138E+04 0.12828729E+04 0.75000000E+00 0.0000E+00 0.9000E+01
#aMCatNLO 2  0  0  1  2 0.28892547D+03 0.00000000D+00  -5  5  0 0.00000000D+00 0.00000000D+00 0.00000000D+00 0.00000000D+00 0.00000000D+00
  <mgrwgt>
 0.5298298357D-01    1    2    0
 0.139763990170762D+03 0.000000000000000D+00 0.000000000000000D+00 0.139763990170762D+03
 0.139763990170762D+03 0.000000000000000D+00 0.000000000000000D+00 -.139763990170762D+03
 0.156144790465674D+03 -.863908943200337D+02 -.308711770110945D+01 -.358228791759336D+02
 0.123383189875849D+03 0.863908943200337D+02 0.308711770110945D+01 0.358228791759336D+02
 0.000000000000000D+00 -.000000000000000D+00 -.000000000000000D+00 0.000000000000000D+00
 0.903623084562530D+03 0.000000000000000D+00 0.000000000000000D+00 0.903623084562530D+03
 0.230708608360470D+03 0.000000000000000D+00 0.000000000000000D+00 -.230708608360470D+03
 0.135212720175424D+03 0.370567854901085D+02 0.997834617649017D+00 -.358228791759336D+02
 0.266799493170619D+03 0.251710630949429D+03 0.855763964627203D+01 0.358228791759336D+02
 0.732319479576958D+03 -.288767416439537D+03 -.955547426392105D+01 0.672914476202060D+03
0.145039113832D-02 0.000000000000D+00 0.000000000000D+00 0.235525072402D-02 0.849234289078D-06  5 2 -1 25 24 21 2 0.25056680D+00 0.19692501D-01 0.11685802D+06 0.11685802D+06 0.11685802D+06 0.11574071D+01  1  2  1  1  5  1        2 0.529829835738D-01 0.100000000000D+01
  </mgrwgt>
  </event>
  <event>
  4     66 0.48098993E-03 0.16715327E+03 0.75467711E-02 0.11801943E+00
        2 -1    0    0  501    0 0.00000000E+00 0.00000000E+00 0.76673293E+03 0.76673300E+03 0.32000000E+00 0.0000E+00 0.9000E+01
       -1 -1    0    0    0  501 0.00000000E+00 0.00000000E+00 -.39818239E+02 0.39819525E+02 0.32000000E+00 0.0000E+00 0.9000E+01
       25  1    1    2    0    0 0.98922427E+02 0.85416985E+02 0.50781638E+03 0.53905861E+03 0.12500000E+03 0.0000E+00 0.9000E+01
       24  1    1    2    0    0 -.98922427E+02 -.85416985E+02 0.21909831E+03 0.26749391E+03 0.80419002E+02 0.0000E+00 0.9000E+01
#aMCatNLO 1  0  0  2  2 0.12234849D+01 0.00000000D+00  -5  5  0 0.00000000D+00 0.00000000D+00 0.00000000D+00 0.00000000D+00 0.00000000D+00
  <mgrwgt>
 0.4896265175D+00    6    2    0
 0.174729794099731D+03 0.000000000000000D+00 0.000000000000000D+00 0.174729794099731D+03
 0.174729794099731D+03 0.000000000000000D+00 0.000000000000000D+00 -.174729794099731D+03
 0.187832573870081D+03 0.989224272356748D+02 0.854169850199308D+02 0.507382288473582D+02
 0.161627014329381D+03 -.989224272356748D+02 -.854169850199308D+02 -.507382288473582D+02
 0.000000000000000D+00 0.000000000000000D+00 0.000000000000000D+00 0.000000000000000D+00
 0.176787486203071D+03 0.000000000000000D+00 0.000000000000000D+00 0.176787486203071D+03
 0.174912827916419D+03 0.000000000000000D+00 0.000000000000000D+00 -.174912827916419D+03
 0.187400033712989D+03 0.983143239144165D+02 0.851686472964886D+02 0.507382288473582D+02
 0.162061696237413D+03 -.994469983309679D+02 -.856312097857470D+02 -.507382288473582D+02
 0.223858416908839D+01 0.113267441655139D+01 0.462562489258417D+00 0.187465828665232D+01
0.719224075790D-03 0.000000000000D+00 0.000000000000D+00 0.207913020205D-02 0.000000000000D+00  5 2 -1 25 24 21 0 0.11795902D+00 0.61259870D-02 0.27940217D+05 0.27940217D+05 0.27940217D+05 0.12181540D+01  1  2  2  2  5  2       -1 0.388457021965D+00 0.100000000000D+01
-.398614246405D-04 0.000000000000D+00 -.276200982708D-05 0.207913020205D-02 0.000000000000D+00  5 2 -1 25 24 21 2 0.11795902D+00 0.61259870D-02 0.27940217D+05 0.27940217D+05 0.27940217D+05 0.12181540D+01  1  2  3  2  5  2       -1 -.319474329711D-01 0.100000000000D+01
0.495798170094D-04 0.000000000000D+00 0.000000000000D+00 0.207913020205D-02 0.000000000000D+00  5 2 -1 25 24 21 2 0.11795902D+00 0.61259870D-02 0.27940217D+05 0.27940217D+05 0.27940217D+05 0.12181540D+01  1  2 15  2  5  2       -1 0.397363590217D-01 0.100000000000D+01
-.108274155068D-02 0.000000000000D+00 0.000000000000D+00 0.207913020205D-02 0.000000000000D+00  5 2 -1 25 24 21 2 0.11795902D+00 0.61259870D-02 0.27940217D+05 0.27940217D+05 0.27940217D+05 0.12181540D+01  1  2  4  2  5  2       -1 -.867776639383D+00 0.100000000000D+01
0.108279274784D-02 0.000000000000D+00 0.000000000000D+00 0.207913020205D-02 0.109867056117D-01  5 2 -1 25 24 21 2 0.11934815D+00 0.61324042D-02 0.28146523D+05 0.28146523D+05 0.28146523D+05 0.12178160D+01  1  2 11  2  5  2       -1 0.853643008296D+00 0.100000000000D+01
0.818471657435D-05 0.000000000000D+00 0.000000000000D+00 0.207913020205D-02 0.216297931580D-05  5 2 21 25 24 1 2 0.11934815D+00 0.61324042D-02 0.28146523D+05 0.28146523D+05 0.28146523D+05 0.12178160D+01  1  2 11  4  5  2       -1 0.107514200533D+00 0.100000000000D+01
  </mgrwgt>
  </event>
  <event>
  5     66 0.48098993E-03 0.32611338E+03 0.75467711E-02 0.10448249E+00
        2 -1    0    0  501    0 0.00000000E+00 0.00000000E+00 0.96401438E+03 0.96401443E+03 0.32000000E+00 0.0000E+00 0.9000E+01
       -1 -1    0    0    0  502 0.00000000E+00 0.00000000E+00 -.19385184E+03 0.19385211E+03 0.32000000E+00 0.0000E+00 0.9000E+01
       25  1    1    2    0    0 0.27686458E+03 0.23596556E+03 0.21814091E+03 0.44220379E+03 0.12500000E+03 0.0000E+00 0.9000E+01
       24  1    1    2    0    0 -.24364511E+03 -.11016451E+03 0.50547975E+03 0.57747394E+03 0.80419002E+02 0.0000E+00 0.9000E+01
       21  1    1    2  501  502 -.33219463E+02 -.12580105E+03 0.46541875E+02 0.13818880E+03 0.75000000E+00 0.0000E+00 0.9000E+01
#aMCatNLO 2  0  0  2  1 0.13011317D+03 0.00000000D+00  -5  5  0 0.00000000D+00 0.00000000D+00 0.00000000D+00 0.00000000D+00 0.00000000D+00
  <mgrwgt>
 0.2786010701D-01    2    2    0
 0.353265619962950D+03 0.000000000000000D+00 0.000000000000000D+00 0.353265619962950D+03
 0.353265619962950D+03 0.000000000000000D+00 0.000000000000000D+00 -.353265619962950D+03
 0.359746426138336D+03 0.258968116590070D+03 0.168192230547030D+03 -.135791676080354D+03
 0.346784813787564D+03 -.258968116590070D+03 -.168192230547030D+03 0.135791676080354D+03
 0.000000000000000D+00 -.000000000000000D+00 -.000000000000000D+00 -.000000000000000D+00
 0.397268798736590D+03 0.000000000000000D+00 0.000000000000000D+00 0.397268798736590D+03
 0.470400144477645D+03 0.000000000000000D+00 0.000000000000000D+00 -.470400144477645D+03
 0.407919254159756D+03 0.276864577656898D+03 0.235965557360407D+03 -.135791676080354D+03
 0.310492764634848D+03 -.243645114801365D+03 -.110164511876280D+03 0.135791676080354D+03
 0.149256924419630D+03 -.332194628555336D+02 -.125801045484127D+03 -.731313457410552D+02
-.392892621915D-02 0.000000000000D+00 0.000000000000D+00 0.168928645489D-02 0.000000000000D+00  5 2 -1 25 24 21 2 0.13188219D+00 0.30857262D-01 0.15760575D+06 0.15760575D+06 0.15760575D+06 0.11458471D+01  1  2 13  2  5  2       -1 -.184478944913D+00 0.100000000000D+01
0.500873031739D-02 0.000000000000D+00 0.000000000000D+00 0.168928645489D-02 0.737782441248D-06  5 2 -1 25 24 21 2 0.14830959D+00 0.29823317D-01 0.15760575D+06 0.15760575D+06 0.15760575D+06 0.11458471D+01  1  2  1  2  5  2       -1 0.212339051920D+00 0.100000000000D+01
  </mgrwgt>
  </event>
  <event>
  4     66 0.48098993E-03 0.10579384E+03 0.75467711E-02 0.11807310E+00
        2 -1    0    0  501    0 0.00000000E+00 0.00000000E+00 0.34479163E+04 0.34479163E+04 0.32000000E+00 0.0000E+00 0.9000E+01
       -1 -1    0    0    0  501 0.00000000E+00 0.00000000E+00 -.73258735E+01 0.73328591E+01 0.32000000E+00 0.0000E+00 0.9000E+01
       25  1    1    2    0    0 0.39867369E+02 0.11212869E+03 0.20547693E+04 0.20620048E+04 0.12500000E+03 0.0000E+00 0.9000E+01
       24  1    1    2    0    0 -.39867369E+02 -.11212869E+03 0.13858212E+04 0.13932443E+04 0.80419002E+02 0.0000E+00 0.9000E+01
#aMCatNLO 1  0  0  2  1 0.17823399D+02 0.00000000D+00  -5  5  0 0.00000000D+00 0.00000000D+00 0.00000000D+00 0.00000000D+00 0.00000000D+00
  <mgrwgt>
 0.3365717832D+00    9    2    0
 0.158968841770631D+03 0.000000000000000D+00 0.000000000000000D+00 0.158968841770631D+03
 0.158968841770631D+03 0.000000000000000D+00 0.000000000000000D+00 -.158968841770631D+03
 0.173370695529563D+03 0.398673688832974D+02 0.112128692400056D+03 0.164361585348041D+02
 0.144566988011700D+03 -.398673688832974D+02 -.112128692400056D+03 -.164361585348041D+02
 0.000000000000000D+00 -.000000000000000D+00 -.000000000000000D+00 -.000000000000000D+00
 0.167592184365135D+03 0.000000000000000D+00 0.000000000000000D+00 0.167592184365135D+03
 0.168702650746361D+03 0.000000000000000D+00 0.000000000000000D+00 -.168702650746361D+03
 0.180131682866201D+03 0.452609626869068D+02 0.120431395912705D+03 0.164361585348041D+02
 0.138305193411813D+03 -.355514215568237D+02 -.105484878955309D+03 -.164361585348041D+02
 0.178579588334821D+02 -.970954113008310D+01 -.149465169573962D+02 -.111046638122591D+01
0.210595504720D-02 0.000000000000D+00 0.000000000000D+00 0.232124024718D-02 0.000000000000D+00  5 2 -1 25 24 21 0 0.53044920D+00 0.11275960D-02 0.24998685D+05 0.24998685D+05 0.24998685D+05 0.12233001D+01  1  2  2  2  5  2       -1 0.424878088165D+00 0.100000000000D+01
-.116993325370D-03 0.000000000000D+00 -.808742189195D-05 0.232124024718D-02 0.000000000000D+00  5 2 -1 25 24 21 2 0.53044920D+00 0.11275960D-02 0.24998685D+05 0.24998685D+05 0.24998685D+05 0.12233001D+01  1  2  3  2  5  2       -1 -.353217603413D-01 0.100000000000D+01
0.145629641505D-03 0.000000000000D+00 0.000000000000D+00 0.232124024718D-02 0.000000000000D+00  5 2 -1 25 24 21 2 0.53044920D+00 0.11275960D-02 0.24998685D+05 0.24998685D+05 0.24998685D+05 0.12233001D+01  1  2 15  2  5  2       -1 0.439674253173D-01 0.100000000000D+01
0.236966456277D-02 0.000000000000D+00 0.000000000000D+00 0.232124024718D-02 0.000000000000D+00  5 2 -1 25 24 21 2 0.53044920D+00 0.12254903D-02 0.27977369D+05 0.27977369D+05 0.27977369D+05 0.12180929D+01  1  2 12  2  5  2       -1 0.628129251416D+00 0.100000000000D+01
-.192002810513D-02 0.000000000000D+00 0.000000000000D+00 0.232124024718D-02 0.000000000000D+00  5 2 -1 25 24 21 2 0.53044920D+00 0.11275960D-02 0.24998685D+05 0.24998685D+05 0.24998685D+05 0.12233001D+01  1  2  4  2  5  2       -1 -.579680698564D+00 0.100000000000D+01
-.724146300166D-02 0.000000000000D+00 -.177951520467D-02 0.232124024718D-02 0.000000000000D+00  5 2 -1 25 24 21 2 0.53044920D+00 0.13170508D-02 0.24998685D+05 0.24998685D+05 0.24998685D+05 0.12233001D+01  1  2  5  2  5  2       -1 -.174941592466D+01 0.100000000000D+01
0.744906441007D-02 0.000000000000D+00 0.175826758877D-02 0.232124024718D-02 0.000000000000D+00  5 2 -1 25 24 21 2 0.53044920D+00 0.11275960D-02 0.24998685D+05 0.24998685D+05 0.24998685D+05 0.12233001D+01  1  2  6  2  5  2       -1 0.224896648614D+01 0.100000000000D+01
0.327896916318D-04 0.000000000000D+00 0.000000000000D+00 0.232124024718D-02 0.000000000000D+00  5 2 21 25 24 1 2 0.53044920D+00 0.12254903D-02 0.27977369D+05 0.27977369D+05 0.27977369D+05 0.12180929D+01  1  2 12  4  5  2       -1 0.194518237434D+00 0.100000000000D+01
-.156740081905D-03 0.000000000000D+00 -.417474968319D-04 0.232124024718D-02 0.000000000000D+00  5 2 21 25 24 1 2 0.53044920D+00 0.13170508D-02 0.24998685D+05 0.24998685D+05 0.24998685D+05 0.12233001D+01  1  2  5  4  5  2       -1 -.839469321730D+00 0.100000000000D+01
  </mgrwgt>
  </event>
  <event>
  4     66 0.48098993E-03 0.11149441E+03 0.75467711E-02 0.12098809E+00
        4 -1    0    0  501    0 0.00000000E+00 0.00000000E+00 0.33135694E+03 0.33136057E+03 0.15500000E+01 0.0000E+00 0.9000E+01
       -3 -1    0    0    0  501 0.00000000E+00 0.00000000E+00 -.37559176E+02 0.37562504E+02 0.50000000E+00 0.0000E+00 0.9000E+01
       25  1    1    2    0    0 -.93437893E+01 0.41463740E+02 0.16746502E+03 0.21325122E+03 0.12500000E+03 0.0000E+00 0.9000E+01
       24  1    1    2    0    0 0.93437893E+01 -.41463740E+02 0.12633275E+03 0.15567186E+03 0.80419002E+02 0.0000E+00 0.9000E+01
#aMCatNLO 1  0  0  2  1 0.55414031D+02 0.00000000D+00  -5  5  0 0.00000000D+00 0.00000000D+00 0.00000000D+00 0.00000000D+00 0.00000000D+00
  <mgrwgt>
 0.1936146441D-01    4    2    0
 0.111565121749158D+03 0.000000000000000D+00 0.000000000000000D+00 0.111565121749158D+03
 0.111565121749158D+03 0.000000000000000D+00 0.000000000000000D+00 -.111565121749158D+03
 0.132086284416420D+03 -.934378933141692D+01 0.414637395255933D+02 -.390364399238977D+01
 0.910439590818963D+02 0.934378933141692D+01 -.414637395255933D+02 0.390364399238977D+01
 0.000000000000000D+00 0.000000000000000D+00 0.000000000000000D+00 0.000000000000000D+00
 0.149138390346482D+03 0.000000000000000D+00 0.000000000000000D+00 0.149138390346482D+03
 0.137411233907898D+03 0.000000000000000D+00 0.000000000000000D+00 -.137411233907898D+03
 0.130021800414368D+03 -.308593666205501D+02 0.176954694301373D+02 -.390364399238977D+01
 0.998864866208317D+02 -.632905328241442D+01 -.587775374034341D+02 0.390364399238977D+01
 0.566413372191795D+02 0.371884199029646D+02 0.410820679732968D+02 0.117271564385840D+02
0.237143770685D-03 0.000000000000D+00 0.000000000000D+00 0.296703942090D-02 0.000000000000D+00  5 4 -3 25 24 21 0 0.50978526D-01 0.57788696D-02 0.12431004D+05 0.12431004D+05 0.12431004D+05 0.12572320D+01  1  2  2  2  5  2       -3 0.298585896853D-01 0.100000000000D+01
-.131746474880D-04 0.000000000000D+00 -.910694520821D-06 0.296703942090D-02 0.000000000000D+00  5 4 -3 25 24 21 2 0.50978526D-01 0.57788696D-02 0.12431004D+05 0.12431004D+05 0.12431004D+05 0.12572320D+01  1  2  3  2  5  2       -3 -.262196823044D-02 0.100000000000D+01
0.163820665962D-04 0.000000000000D+00 0.000000000000D+00 0.296703942090D-02 0.000000000000D+00  5 4 -3 25 24 21 2 0.50978526D-01 0.57788696D-02 0.12431004D+05 0.12431004D+05 0.12431004D+05 0.12572320D+01  1  2 15  2  5  2       -3 0.326029658123D-02 0.100000000000D+01
-.559524995146D-04 0.000000000000D+00 0.000000000000D+00 0.296703942090D-02 0.000000000000D+00  5 4 -3 25 24 21 2 0.50978526D-01 0.57788696D-02 0.12431004D+05 0.12431004D+05 0.12431004D+05 0.12572320D+01  1  2  4  2  5  2       -3 -.111354536259D-01 0.100000000000D+01
  </mgrwgt>
  </event>
  <event>
  4     66 0.48098993E-03 0.11814959E+03 0.75467711E-02 0.10593986E+00
        2 -1    0    0  501    0 0.00000000E+00 0.00000000E+00 0.52646403E+03 0.52646413E+03 0.32000000E+00 0.0000E+00 0.9000E+01
       -1 -1    0    0    0  501 0.00000000E+00 0.00000000E+00 -.26787296E+02 0.26789208E+02 0.32000000E+00 0.0000E+00 0.9000E+01
       25  1    1    2    0    0 0.52782588E+02 -.22421063E+02 0.26283974E+03 0.29664530E+03 0.12500000E+03 0.0000E+00 0.9000E+01
       24  1    1    2    0    0 -.52782588E+02 0.22421063E+02 0.23683700E+03 0.25660804E+03 0.80419002E+02 0.0000E+00 0.9000E+01
#aMCatNLO 1  0  0  2  1 0.31902217D+03 0.00000000D+00  -5  5  0 0.00000000D+00 0.00000000D+00 0.00000000D+00 0.00000000D+00 0.00000000D+00
  <mgrwgt>
 0.3109557944D+00    5    2    0
 0.118756489127459D+03 0.000000000000000D+00 0.000000000000000D+00 0.118756489127459D+03
 0.118756489127459D+03 0.000000000000000D+00 0.000000000000000D+00 -.118756489127459D+03
 0.138034981008018D+03 0.527825882562703D+02 -.224210633401593D+02 -.118300582225702D+02
 0.994779972469005D+02 -.527825882562703D+02 0.224210633401593D+02 0.118300582225702D+02
 0.000000000000000D+00 -.000000000000000D+00 0.000000000000000D+00 -.000000000000000D+00
 0.222812518224809D+03 0.000000000000000D+00 0.000000000000000D+00 0.222812518224809D+03
 0.126130076809219D+04 0.000000000000000D+00 0.000000000000000D+00 -.126130076809219D+04
 0.281158687902563D+03 0.115989113897030D+03 -.223230336117033D+03 -.118300582225702D+02
 0.116569311446871D+03 -.202067151710237D+02 -.810735888022405D+02 0.118300582225702D+02
 0.108638528696756D+04 -.957823987260063D+02 0.304303924919273D+03 -.103848824986738D+04
0.214513698253D-03 0.000000000000D+00 0.000000000000D+00 0.278341758624D-02 0.000000000000D+00  5 2 -1 25 24 21 0 0.80994621D-01 0.41212770D-02 0.13959325D+05 0.13959325D+05 0.13959325D+05 0.12513982D+01  1  2  2  2  5  2       -1 0.315653808447D+00 0.100000000000D+01
-.119170473093D-04 0.000000000000D+00 -.823789084045D-06 0.278341758624D-02 0.000000000000D+00  5 2 -1 25 24 21 2 0.80994621D-01 0.41212770D-02 0.13959325D+05 0.13959325D+05 0.13959325D+05 0.12513982D+01  1  2  3  2  5  2       -1 -.274609608874D-01 0.100000000000D+01
0.148161003450D-04 0.000000000000D+00 0.000000000000D+00 0.278341758624D-02 0.000000000000D+00  5 2 -1 25 24 21 2 0.80994621D-01 0.41212770D-02 0.13959325D+05 0.13959325D+05 0.13959325D+05 0.12513982D+01  1  2 15  2  5  2       -1 0.341413725663D-01 0.100000000000D+01
0.233168592749D-06 0.000000000000D+00 -.255243219868D-03 0.278341758624D-02 0.000000000000D+00  5 2 -1 25 24 21 2 0.80994621D-01 0.77322518D-01 0.13959325D+05 0.13959325D+05 0.13959325D+05 0.12513982D+01  1  2  5  2  5  2       -1 0.449076272124D-05 0.100000000000D+01
-.634106582010D-04 0.000000000000D+00 -.812391285826D-04 0.278341758624D-02 0.000000000000D+00  5 2 21 25 24 1 2 0.80994621D-01 0.77322518D-01 0.13959325D+05 0.13959325D+05 0.13959325D+05 0.12513982D+01  1  2  5  4  5  2       -1 -.113829164821D-01 0.100000000000D+01
  </mgrwgt>
  </event>
  <event>
  4     66 0.48098993E-03 0.12153591E+03 0.75467711E-02 0.11726605E+00
        2 -1    0    0  501    0 0.00000000E+00 0.00000000E+00 0.32302199E+03 0.32302215E+03 0.32000000E+00 0.0000E+00 0.9000E+01
       -1 -1    0    0    0  501 0.00000000E+00 0.00000000E+00 -.60712778E+02 0.60713622E+02 0.32000000E+00 0.0000E+00 0.9000E+01
       25  1    1    2    0    0 -.39349119E+02 -.84444306E+02 0.12947873E+03 0.20265472E+03 0.12500000E+03 0.0000E+00 0.9000E+01
       24  1    1    2    0    0 0.39349119E+02 0.84444306E+02 0.13283048E+03 0.18108105E+03 0.80419002E+02 0.0000E+00 0.9000E+01
#aMCatNLO 1  0  0  1  2 0.63927431D+02 0.00000000D+00  -5  5  0 0.00000000D+00 0.00000000D+00 0.00000000D+00 0.00000000D+00 0.00000000D+00
  <mgrwgt>
 0.1307037885D+00    7    2    0
 0.140041974470010D+03 0.000000000000000D+00 0.000000000000000D+00 0.140041974470010D+03
 0.140041974470010D+03 0.000000000000000D+00 0.000000000000000D+00 -.140041974470010D+03
 0.156390258761715D+03 -.393491187561939D+02 -.844443059859666D+02 -.123983496972555D+02
 0.123693690178305D+03 0.393491187561939D+02 0.844443059859666D+02 0.123983496972555D+02
 0.000000000000000D+00 0.000000000000000D+00 -.000000000000000D+00 0.000000000000000D+00
 0.450822543009080D+03 0.000000000000000D+00 0.000000000000000D+00 0.450822543009080D+03
 0.146969430103979D+03 0.000000000000000D+00 0.000000000000000D+00 -.146969430103979D+03
 0.146406439593609D+03 -.531262897749464D+02 -.532327325431453D+02 -.123983496972555D+02
 0.140880411684636D+03 0.273110659362746D+02 0.111715983835219D+03 0.123983496972555D+02
 0.310505121834814D+03 0.258152238386719D+02 -.584832512920737D+02 0.303853112905101D+03
0.354346056837D-03 0.000000000000D+00 0.000000000000D+00 0.248279884988D-02 0.000000000000D+00  5 2 -1 25 24 21 0 0.49695768D-01 0.93405045D-02 0.19455894D+05 0.19455894D+05 0.19455894D+05 0.12351470D+01  1  2  2  1  5  1        2 0.263345023751D+00 0.100000000000D+01
-.196855110888D-04 0.000000000000D+00 -.136078215971D-05 0.248279884988D-02 0.000000000000D+00  5 2 -1 25 24 21 2 0.49695768D-01 0.93405045D-02 0.19455894D+05 0.19455894D+05 0.19455894D+05 0.12351470D+01  1  2  3  1  5  1        2 -.223193475387D-01 0.100000000000D+01
0.244070924038D-04 0.000000000000D+00 0.000000000000D+00 0.248279884988D-02 0.000000000000D+00  5 2 -1 25 24 21 2 0.49695768D-01 0.93405045D-02 0.19455894D+05 0.19455894D+05 0.19455894D+05 0.12351470D+01  1  2 15  1  5  1        2 0.276726560623D-01 0.100000000000D+01
0.141760516988D-02 0.000000000000D+00 0.000000000000D+00 0.248279884988D-02 0.000000000000D+00  5 2 -1 25 24 21 2 0.15784653D+00 0.93405045D-02 0.30649809D+05 0.30649809D+05 0.30649809D+05 0.12139229D+01  1  2 12  1  5  1        2 0.406691070178D+00 0.100000000000D+01
-.186554725290D-02 0.000000000000D+00 -.133633890647D-03 0.248279884988D-02 0.000000000000D+00  5 2 -1 25 24 21 2 0.16233697D+00 0.93405045D-02 0.19455894D+05 0.19455894D+05 0.19455894D+05 0.12351470D+01  1  2  5  1  5  1        2 -.531548844106D+00 0.100000000000D+01
0.188417119314D-03 0.000000000000D+00 0.000000000000D+00 0.248279884988D-02 0.000000000000D+00  5 21 -1 25 24 -2 2 0.15784653D+00 0.93405045D-02 0.30649809D+05 0.30649809D+05 0.30649809D+05 0.12139229D+01  1  2 12  3  5  1        2 0.442025995492D-01 0.100000000000D+01
-.249820788081D-03 0.000000000000D+00 -.182861681058D-04 0.248279884988D-02 0.000000000000D+00  5 21 -1 25 24 -2 2 0.16233697D+00 0.93405045D-02 0.19455894D+05 0.19455894D+05 0.19455894D+05 0.12351470D+01  1  2  5  3  5  1        2 -.573393694097D-01 0.100000000000D+01
  </mgrwgt>
  </event>
  <event>
  4     66 0.48098993E-03 0.51512283E+02 0.75467711E-02 0.12047596E+00
        4 -1    0    0  501    0 0.00000000E+00 0.00000000E+00 0.61528783E+02 0.61548303E+02 0.15500000E+01 0.0000E+00 0.9000E+01
       -3 -1    0    0    0  501 0.00000000E+00 0.00000000E+00 -.43520623E+03 0.43520652E+03 0.50000000E+00 0.0000E+00 0.9000E+01
       25  1    1    2    0    0 0.92296808E+02 0.34113779E+02 -.82827698E+02 0.17935406E+03 0.12500000E+03 0.0000E+00 0.9000E+01
       24  1    1    2    0    0 -.92296808E+02 -.34113779E+02 -.29084975E+03 0.31740076E+03 0.80419002E+02 0.0000E+00 0.9000E+01
#aMCatNLO 1  0  0  2  1 0.69463680D+01 0.00000000D+00  -5  5  0 0.00000000D+00 0.00000000D+00 0.00000000D+00 0.00000000D+00 0.00000000D+00
  <mgrwgt>
 0.2937597661D-01   11    2    0
 0.163653992250822D+03 0.000000000000000D+00 0.000000000000000D+00 0.163653992250822D+03
 0.163653992250822D+03 0.000000000000000D+00 0.000000000000000D+00 -.163653992250822D+03
 0.177643544109101D+03 0.922968084553720D+02 0.341137787426591D+02 0.790555375194647D+02
 0.149664440392542D+03 -.922968084553720D+02 -.341137787426591D+02 -.790555375194647D+02
 0.000000000000000D+00 -.000000000000000D+00 -.000000000000000D+00 -.000000000000000D+00
 0.164245223962775D+03 0.000000000000000D+00 0.000000000000000D+00 0.164245223962775D+03
 0.185450273688348D+03 0.000000000000000D+00 0.000000000000000D+00 -.185450273688348D+03
 0.178739341454410D+03 0.929589311945021D+02 0.378366394152591D+02 0.790555375194647D+02
 0.148642345184522D+03 -.917425851355426D+02 -.309975948702530D+02 -.790555375194647D+02
 0.223138110121905D+02 -.121634605895953D+01 -.683904454500613D+01 -.212050497255731D+02
0.107927163534D-02 0.000000000000D+00 0.000000000000D+00 0.181410945500D-02 0.000000000000D+00  5 4 -3 25 24 21 0 0.94674902D-02 0.66956328D-01 0.20472530D+05 0.20472530D+05 0.20472530D+05 0.12327111D+01  1  2  2  2  5  2       -3 0.390665732233D-01 0.100000000000D+01
-.586439571866D-04 0.000000000000D+00 -.414468725845D-05 0.181410945500D-02 0.000000000000D+00  5 4 -3 25 24 21 2 0.94674902D-02 0.66956328D-01 0.20472530D+05 0.20472530D+05 0.20472530D+05 0.12327111D+01  1  2  3  2  5  2       -3 -.322567379360D-02 0.100000000000D+01
0.744807128917D-04 0.000000000000D+00 0.000000000000D+00 0.181410945500D-02 0.000000000000D+00  5 4 -3 25 24 21 2 0.94674902D-02 0.66956328D-01 0.20472530D+05 0.20472530D+05 0.20472530D+05 0.12327111D+01  1  2 15  2  5  2       -3 0.409676453005D-02 0.100000000000D+01
0.176659174634D-01 0.000000000000D+00 0.000000000000D+00 0.181410945500D-02 0.000000000000D+00  5 4 -3 25 24 21 2 0.94674902D-02 0.75985131D-01 0.21481043D+05 0.21481043D+05 0.21481043D+05 0.12304250D+01  1  2 12  2  5  2       -3 0.742374910611D+00 0.100000000000D+01
-.186139836040D-01 0.000000000000D+00 0.000000000000D+00 0.181410945500D-02 0.000000000000D+00  5 4 -3 25 24 21 2 0.94674902D-02 0.66956328D-01 0.20472530D+05 0.20472530D+05 0.20472530D+05 0.12327111D+01  1  2  4  2  5  2       -3 -.102385040141D+01 0.100000000000D+01
-.215665207308D-01 0.000000000000D+00 -.102500352874D-02 0.181410945500D-02 0.000000000000D+00  5 4 -3 25 24 21 2 0.94674902D-02 0.76006767D-01 0.20472530D+05 0.20472530D+05 0.20472530D+05 0.12327111D+01  1  2  5  2  5  2       -3 -.905833385290D+00 0.100000000000D+01
0.215313799187D-01 0.000000000000D+00 0.101682058205D-02 0.181410945500D-02 0.000000000000D+00  5 4 -3 25 24 21 2 0.94674902D-02 0.66956328D-01 0.20472530D+05 0.20472530D+05 0.20472530D+05 0.12327111D+01  1  2  6  2  5  2       -3 0.118431994149D+01 0.100000000000D+01
0.898558055030D-03 0.000000000000D+00 0.000000000000D+00 0.181410945500D-02 0.305697347829D-03  5 4 -3 25 24 21 2 0.95016934D-02 0.75873917D-01 0.21481043D+05 0.21481043D+05 0.21481043D+05 0.12304250D+01  1  2 11  2  5  2       -3 0.376504904317D-01 0.100000000000D+01
0.350318128566D-03 0.000000000000D+00 0.000000000000D+00 0.181410945500D-02 0.000000000000D+00  5 4 21 25 24 3 2 0.94674902D-02 0.75985131D-01 0.21481043D+05 0.21481043D+05 0.21481043D+05 0.12304250D+01  1  2 12  4  5  2       -3 0.283688521609D+00 0.100000000000D+01
-.423226065948D-03 0.000000000000D+00 -.203641182988D-04 0.181410945500D-02 0.000000000000D+00  5 4 21 25 24 3 2 0.94674902D-02 0.76006767D-01 0.20472530D+05 0.20472530D+05 0.20472530D+05 0.12327111D+01  1  2  5  4  5  2       -3 -.343371649413D+00 0.100000000000D+01
0.179062799365D-04 0.000000000000D+00 0.000000000000D+00 0.181410945500D-02 0.606229505406D-05  5 4 21 25 24 3 2 0.95016934D-02 0.75873917D-01 0.21481043D+05 0.21481043D+05 0.21481043D+05 0.12304250D+01  1  2 11  4  5  2       -3 0.144598846305D-01 0.100000000000D+01
  </mgrwgt>
  </event>
  <event>
  5     66 0.48098993E-03 0.16829160E+03 0.75467711E-02 0.11378006E+00
        2 -1    0    0  501    0 0.00000000E+00 0.00000000E+00 0.37460928E+03 0.37460941E+03 0.32000000E+00 0.0000E+00 0.9000E+01
       -1 -1    0    0    0  502 0.00000000E+00 0.00000000E+00 -.12421112E+03 0.12421153E+03 0.32000000E+00 0.0000E+00 0.9000E+01
       25  1    1    2    0    0 -.14650829E+03 -.13396911E+02 0.99278429E+02 0.21708377E+03 0.12500000E+03 0.0000E+00 0.9000E+01
       24  1    1    2    0    0 0.10122406E+03 0.82949366E+02 0.11124838E+03 0.18965845E+03 0.80419002E+02 0.0000E+00 0.9000E+01
       21  1    1    2  501  502 0.45284228E+02 -.69552455E+02 0.39871350E+02 0.92078729E+02 0.75000000E+00 0.0000E+00 0.9000E+01
#aMCatNLO 2  0  0  2  1 0.82995212D+02 0.00000000D+00  -5  5  0 0.00000000D+00 0.00000000D+00 0.00000000D+00 0.00000000D+00 0.00000000D+00
  <mgrwgt>
 0.9336224151D-01    1    2    0
 0.168989263822127D+03 0.000000000000000D+00 0.000000000000000D+00 0.168989263822127D+03
 0.168989263822127D+03 0.000000000000000D+00 0.000000000000000D+00 -.168989263822127D+03
 0.182537142306391D+03 -.121674913588036D+03 -.515387156038351D+02 -.152900136898093D+02
 0.155441385337863D+03 0.121674913588036D+03 0.515387156038351D+02 0.152900136898093D+02
 0.000000000000000D+00 0.000000000000000D+00 -.000000000000000D+00 -.000000000000000D+00
 0.211205271913247D+03 0.000000000000000D+00 0.000000000000000D+00 0.211205271913247D+03
 0.220307215198035D+03 0.000000000000000D+00 0.000000000000000D+00 -.220307215198035D+03
 0.193656758968805D+03 -.146508288340342D+03 -.133969109592612D+02 -.152900136898093D+02
 0.154362910543709D+03 0.101224060574676D+03 0.829493655147188D+02 0.152900136898093D+02
 0.834928175987684D+02 0.452842277656659D+02 -.695524545554576D+02 -.910194328478854D+01
0.309910462649D-03 0.000000000000D+00 0.000000000000D+00 0.226836765882D-02 0.266409418762D-05  5 2 -1 25 24 21 2 0.57631788D-01 0.19109295D-01 0.46150041D+05 0.46150041D+05 0.46150041D+05 0.11957435D+01  1  2  1  2  5  2       -1 0.933622415106D-01 0.100000000000D+01
  </mgrwgt>
  </event>
  <event>
  4     66 0.48098993E-03 0.11294030E+03 0.75467711E-02 0.11760280E+00
        2 -1    0    0  501    0 0.00000000E+00 0.00000000E+00 0.47207318E+04 0.47207319E+04 0.32000000E+00 0.0000E+00 0.9000E+01
       -1 -1    0    0    0  501 0.00000000E+00 0.00000000E+00 -.64080803E+01 0.64160653E+01 0.32000000E+00 0.0000E+00 0.9000E+01
       25  1    1    2    0    0 -.38026642E+02 -.11236836E+03 0.35267072E+04 0.35309151E+04 0.12500000E+03 0.0000E+00 0.9000E+01
       24  1    1    2    0    0 0.38026642E+02 0.11236836E+03 0.11876166E+04 0.11962328E+04 0.80419002E+02 0.0000E+00 0.9000E+01
#aMCatNLO 1  0  0  1  2 0.26891679D+02 0.00000000D+00  -5  5  0 0.00000000D+00 0.00000000D+00 0.00000000D+00 0.00000000D+00 0.00000000D+00
  <mgrwgt>
 0.3373437069D+00    9    2    0
 0.173981974498170D+03 0.000000000000000D+00 0.000000000000000D+00 0.173981974498170D+03
 0.173981974498170D+03 0.000000000000000D+00 0.000000000000000D+00 -.173981974498170D+03
 0.187141073410635D+03 -.380266416687285D+02 -.112368360136668D+03 0.729664821742065D+02
 0.160822875585705D+03 0.380266416687285D+02 0.112368360136668D+03 -.729664821742065D+02
 0.000000000000000D+00 -.000000000000000D+00 0.000000000000000D+00 0.000000000000000D+00
 0.190358308992185D+03 0.000000000000000D+00 0.000000000000000D+00 0.190358308992185D+03
 0.185901690682503D+03 0.000000000000000D+00 0.000000000000000D+00 -.185901690682503D+03
 0.191758968842394D+03 -.276857143657730D+02 -.122702468722826D+03 0.729664821742065D+02
 0.157242567245198D+03 0.467072731153205D+02 0.103693452622343D+03 -.729664821742065D+02
 0.272584635870974D+02 -.190215587495475D+02 0.190090161004834D+02 0.445661830968186D+01
0.450214450920D-02 0.000000000000D+00 0.000000000000D+00 0.188863844764D-02 0.000000000000D+00  5 2 -1 25 24 21 0 0.72626705D+00 0.98647357D-03 0.24908348D+05 0.24908348D+05 0.24908348D+05 0.12234687D+01  1  2  2  1  5  1        2 0.107793772428D+00 0.100000000000D+01
-.247229835914D-03 0.000000000000D+00 -.172894203572D-04 0.188863844764D-02 0.000000000000D+00  5 2 -1 25 24 21 2 0.72626705D+00 0.98647357D-03 0.24908348D+05 0.24908348D+05 0.24908348D+05 0.12234687D+01  1  2  3  1  5  1        2 -.886055330061D-02 0.100000000000D+01
0.310182057657D-03 0.000000000000D+00 0.000000000000D+00 0.188863844764D-02 0.000000000000D+00  5 2 -1 25 24 21 2 0.72626705D+00 0.98647357D-03 0.24908348D+05 0.24908348D+05 0.24908348D+05 0.12234687D+01  1  2 15  1  5  1        2 0.111167191638D-01 0.100000000000D+01
0.294400981906D-02 0.000000000000D+00 0.000000000000D+00 0.188863844764D-02 0.000000000000D+00  5 2 -1 25 24 21 2 0.81749780D+00 0.98647357D-03 0.29500416D+05 0.29500416D+05 0.29500416D+05 0.12156646D+01  1  2 12  1  5  1        2 0.197085604221D-01 0.100000000000D+01
-.270871893470D-02 0.000000000000D+00 0.000000000000D+00 0.188863844764D-02 0.000000000000D+00  5 2 -1 25 24 21 2 0.72626705D+00 0.98647357D-03 0.24908348D+05 0.24908348D+05 0.24908348D+05 0.12234687D+01  1  2  4  1  5  1        2 -.970786895867D-01 0.100000000000D+01
-.101852299455D-01 0.000000000000D+00 -.205923768180D-02 0.188863844764D-02 0.000000000000D+00  5 2 -1 25 24 21 2 0.80046052D+00 0.98647357D-03 0.24908348D+05 0.24908348D+05 0.24908348D+05 0.12234687D+01  1  2  5  1  5  1        2 -.100286693452D+00 0.100000000000D+01
0.112994422670D-01 0.000000000000D+00 0.246763281124D-02 0.188863844764D-02 0.000000000000D+00  5 2 -1 25 24 21 2 0.72626705D+00 0.98647357D-03 0.24908348D+05 0.24908348D+05 0.24908348D+05 0.12234687D+01  1  2  6  1  5  1        2 0.404964514512D+00 0.100000000000D+01
0.552040402775D-04 0.000000000000D+00 0.000000000000D+00 0.188863844764D-02 0.000000000000D+00  5 21 -1 25 24 -2 2 0.81749780D+00 0.98647357D-03 0.29500416D+05 0.29500416D+05 0.29500416D+05 0.12156646D+01  1  2 12  3  5  1        2 0.361247025312D-05 0.100000000000D+01
-.155065547800D-03 0.000000000000D+00 -.326548346538D-04 0.188863844764D-02 0.000000000000D+00  5 21 -1 25 24 -2 2 0.80046052D+00 0.98647357D-03 0.24908348D+05 0.24908348D+05 0.24908348D+05 0.12234687D+01  1  2  5  3  5  1        2 -.175357336661D-04 0.100000000000D+01
  </mgrwgt>
  </event>
  <event>
  4     66 0.48098993E-03 0.71268601E+02 0.75467711E-02 0.11880312E+00
        2 -1    0    0  501    0 0.00000000E+00 0.00000000E+00 0.89099965E+03 0.89099970E+03 0.32000000E+00 0.0000E+00 0.9000E+01
       -1 -1    0    0    0  501 0.00000000E+00 0.00000000E+00 -.26076355E+02 0.26078318E+02 0.32000000E+00 0.0000E+00 0.9000E+01
       25  1    1    2    0    0 -.35735930E+02 -.69631106E+02 0.71363109E+03 0.72871111E+03 0.12500000E+03 0.0000E+00 0.9000E+01
       24  1    1    2    0    0 0.35735930E+02 0.69631106E+02 0.15129220E+03 0.18836691E+03 0.80419002E+02 0.0000E+00 0.9000E+01
#aMCatNLO 1  0  0  2  1 0.56760223D+02 0.00000000D+00  -5  5  0 0.00000000D+00 0.00000000D+00 0.00000000D+00 0.00000000D+00 0.00000000D+00
  <mgrwgt>
 0.3243082367D+00    9    2    0
 0.152430147340132D+03 0.000000000000000D+00 0.000000000000000D+00 0.152430147340132D+03
 0.152430147340132D+03 0.000000000000000D+00 0.000000000000000D+00 -.152430147340132D+03
 0.167449787820428D+03 -.357359304278498D+02 -.696311064572730D+02 0.793024825027455D+02
 0.137410506859836D+03 0.357359304278498D+02 0.696311064572730D+02 -.793024825027455D+02
 0.000000000000000D+00 0.000000000000000D+00 0.000000000000000D+00 -.000000000000000D+00
 0.177028812636606D+03 0.000000000000000D+00 0.000000000000000D+00 0.177028812636606D+03
 0.191694730318395D+03 0.000000000000000D+00 0.000000000000000D+00 -.191694730318395D+03
 0.181959445567499D+03 -.647722998916765D+02 -.836654365127930D+02 0.793024825027455D+02
 0.128139767826484D+03 0.136683513537387D+02 0.589650454458166D+02 -.793024825027455D+02
 0.586243295610176D+02 0.511039485379378D+02 0.247003910669764D+02 -.146659176817898D+02
0.313177608663D-03 0.000000000000D+00 0.000000000000D+00 0.179732559321D-02 0.000000000000D+00  5 2 -1 25 24 21 0 0.13707702D+00 0.40119024D-02 0.16860783D+05 0.16860783D+05 0.16860783D+05 0.12420741D+01  1  2  2  2  5  2       -1 0.258893394497D+00 0.100000000000D+01
-.168549439279D-04 0.000000000000D+00 -.120268447882D-05 0.179732559321D-02 0.000000000000D+00  5 2 -1 25 24 21 2 0.13707702D+00 0.40119024D-02 0.16860783D+05 0.16860783D+05 0.16860783D+05 0.12420741D+01  1  2  3  2  5  2       -1 -.214957480004D-01 0.100000000000D+01
0.215491389420D-04 0.000000000000D+00 0.000000000000D+00 0.179732559321D-02 0.000000000000D+00  5 2 -1 25 24 21 2 0.13707702D+00 0.40119024D-02 0.16860783D+05 0.16860783D+05 0.16860783D+05 0.12420741D+01  1  2 15  2  5  2       -1 0.274824325909D-01 0.100000000000D+01
0.130626908864D-03 0.000000000000D+00 0.000000000000D+00 0.179732559321D-02 0.000000000000D+00  5 2 -1 25 24 21 2 0.13707702D+00 0.53004823D-02 0.25789452D+05 0.25789452D+05 0.25789452D+05 0.12218527D+01  1  2 12  2  5  2       -1 0.107862611201D+00 0.100000000000D+01
-.162165698006D-03 0.000000000000D+00 0.000000000000D+00 0.179732559321D-02 0.000000000000D+00  5 2 -1 25 24 21 2 0.13707702D+00 0.40119024D-02 0.16860783D+05 0.16860783D+05 0.16860783D+05 0.12420741D+01  1  2  4  2  5  2       -1 -.206816053115D+00 0.100000000000D+01
-.265521083034D-03 0.000000000000D+00 -.126686947567D-03 0.179732559321D-02 0.000000000000D+00  5 2 -1 25 24 21 2 0.13707702D+00 0.58823634D-02 0.16860783D+05 0.16860783D+05 0.16860783D+05 0.12420741D+01  1  2  5  2  5  2       -1 -.192470852409D+00 0.100000000000D+01
0.300473325432D-03 0.000000000000D+00 0.117944317045D-03 0.179732559321D-02 0.000000000000D+00  5 2 -1 25 24 21 2 0.13707702D+00 0.40119024D-02 0.16860783D+05 0.16860783D+05 0.16860783D+05 0.12420741D+01  1  2  6  2  5  2       -1 0.383205005721D+00 0.100000000000D+01
0.478488442582D-05 0.000000000000D+00 0.000000000000D+00 0.179732559321D-02 0.000000000000D+00  5 2 21 25 24 1 2 0.13707702D+00 0.53004823D-02 0.25789452D+05 0.25789452D+05 0.25789452D+05 0.12218527D+01  1  2 12  4  5  2       -1 0.679590748549D-01 0.100000000000D+01
-.816756438543D-05 0.000000000000D+00 -.583842442516D-05 0.179732559321D-02 0.000000000000D+00  5 2 21 25 24 1 2 0.13707702D+00 0.58823634D-02 0.16860783D+05 0.16860783D+05 0.16860783D+05 0.12420741D+01  1  2  5  4  5  2       -1 -.100311628662D+00 0.100000000000D+01
  </mgrwgt>
  </event>
  <event>
  5     66 0.48098993E-03 0.11372301E+03 0.75467711E-02 0.12431223E+00
        2 -1    0    0  502    0 0.00000000E+00 0.00000000E+00 0.16481420E+04 0.16481420E+04 0.32000000E+00 0.0000E+00 0.9000E+01
       -1 -1    0    0    0  501 0.00000000E+00 0.00000000E+00 -.96084838E+01 0.96138110E+01 0.32000000E+00 0.0000E+00 0.9000E+01
       25  1    1    2    0    0 0.35441521E+02 0.28080419E+02 0.11393157E+04 0.11470439E+04 0.12500000E+03 0.0000E+00 0.9000E+01
       24  1    1    2    0    0 -.31214123E+02 -.39490806E+02 0.45827208E+03 0.46798971E+03 0.80419002E+02 0.0000E+00 0.9000E+01
       21  1    1    2  502  501 -.42273982E+01 0.11410387E+02 0.40945739E+02 0.42722170E+02 0.75000000E+00 0.0000E+00 0.9000E+01
#aMCatNLO 2  0  0  1  2 0.12168312D+02 0.00000000D+00  -5  5  0 0.00000000D+00 0.00000000D+00 0.00000000D+00 0.00000000D+00 0.00000000D+00
  <mgrwgt>
 0.2415791203D+00    1    2    0
 0.118214831175366D+03 0.000000000000000D+00 0.000000000000000D+00 0.118214831175366D+03
 0.118214831175366D+03 0.000000000000000D+00 0.000000000000000D+00 -.118214831175366D+03
 0.137581656713619D+03 0.329912293577748D+02 0.346941268923090D+02 0.318057952063331D+02
 0.988480056371127D+02 -.329912293577748D+02 -.346941268923090D+02 -.318057952063331D+02
 0.000000000000000D+00 -.000000000000000D+00 0.000000000000000D+00 -.000000000000000D+00
 0.121444938062679D+03 0.000000000000000D+00 0.000000000000000D+00 0.121444938062679D+03
 0.130414639474772D+03 0.000000000000000D+00 0.000000000000000D+00 -.130414639474772D+03
 0.136679259402285D+03 0.354415211764611D+02 0.280804187780079D+02 0.318057952063331D+02
 0.100063328787497D+03 -.312141230085106D+02 -.394908056358254D+02 -.318057952063331D+02
 0.151169893476695D+02 -.422739816795044D+01 0.114103868578175D+02 -.896970141209322D+01
0.115795042381D-03 0.000000000000D+00 0.000000000000D+00 0.264270650538D-02 0.149535246061D-03  5 2 -1 25 24 21 2 0.25354160D+00 0.14785289D-02 0.14396319D+05 0.14396319D+05 0.14396319D+05 0.12498614D+01  1  2  1  1  5  1        2 0.241579120301D+00 0.100000000000D+01
  </mgrwgt>
  </event>
  <event>
  4     66 0.48098993E-03 0.12009622E+03 0.75467711E-02 0.10561716E+00
        2 -1    0    0  501    0 0.00000000E+00 0.00000000E+00 0.49336444E+02 0.49337482E+02 0.32000000E+00 0.0000E+00 0.9000E+01
       -1 -1    0    0    0  501 0.00000000E+00 0.00000000E+00 -.32084462E+03 0.32084478E+03 0.32000000E+00 0.0000E+00 0.9000E+01
       25  1    1    2    0    0 -.42346587E+02 0.44126813E+02 -.10085398E+03 0.17186313E+03 0.12500000E+03 0.0000E+00 0.9000E+01
       24  1    1    2    0    0 0.42346587E+02 -.44126813E+02 -.17065420E+03 0.19831914E+03 0.80419002E+02 0.0000E+00 0.9000E+01
#aMCatNLO 1  0  0  2  1 0.32689845D+03 0.00000000D+00  -5  5  0 0.00000000D+00 0.00000000D+00 0.00000000D+00 0.00000000D+00 0.00000000D+00
  <mgrwgt>
 0.3874350802D+00    3    2    0
 0.125815557172134D+03 0.000000000000000D+00 0.000000000000000D+00 0.125815557172134D+03
 0.125815557172134D+03 0.000000000000000D+00 0.000000000000000D+00 -.125815557172134D+03
 0.144012400733181D+03 -.423465873931291D+02 0.441268125773054D+02 0.370696980410937D+02
 0.107618713611086D+03 0.423465873931291D+02 -.441268125773054D+02 -.370696980410937D+02
 0.000000000000000D+00 -.000000000000000D+00 0.000000000000000D+00 0.000000000000000D+00
 0.444757684635566D+03 0.000000000000000D+00 0.000000000000000D+00 0.444757684635566D+03
 0.318283569588775D+03 0.000000000000000D+00 0.000000000000000D+00 -.318283569588775D+03
 0.158737242496252D+03 0.826256338436718D+02 -.370318008526116D+02 0.370696980410937D+02
 0.253792531020050D+03 0.191533769051610D+03 -.141010941586881D+03 -.370696980410937D+02
 0.350511480708039D+03 -.274159402895282D+03 0.178042742439493D+03 0.126474115046790D+03
0.913769433850D-03 0.000000000000D+00 0.000000000000D+00 0.247840076051D-02 0.000000000000D+00  5 2 -1 25 24 21 0 0.75903143D-02 0.49360803D-01 0.14423103D+05 0.14423103D+05 0.14423103D+05 0.12497690D+01  1  2  2  2  5  2       -1 0.379307582368D+00 0.100000000000D+01
-.506313721859D-04 0.000000000000D+00 -.350911522700D-05 0.247840076051D-02 0.000000000000D+00  5 2 -1 25 24 21 2 0.75903143D-02 0.49360803D-01 0.14423103D+05 0.14423103D+05 0.14423103D+05 0.12497690D+01  1  2  3  2  5  2       -1 -.328272163060D-01 0.100000000000D+01
0.631668964819D-04 0.000000000000D+00 0.000000000000D+00 0.247840076051D-02 0.000000000000D+00  5 2 -1 25 24 21 2 0.75903143D-02 0.49360803D-01 0.14423103D+05 0.14423103D+05 0.14423103D+05 0.12497690D+01  1  2 15  2  5  2       -1 0.409547141360D-01 0.100000000000D+01
  </mgrwgt>
  </event>
  <event>
  4     66 0.48098993E-03 0.12665954E+03 0.75467711E-02 0.11016440E+00
        2 -1    0    0  501    0 0.00000000E+00 0.00000000E+00 0.52855427E+03 0.52855437E+03 0.32000000E+00 0.0000E+00 0.9000E+01
       -1 -1    0    0    0  501 0.00000000E+00 0.00000000E+00 -.30444606E+02 0.30446288E+02 0.32000000E+00 0.0000E+00 0.9000E+01
       25  1    1    2    0    0 -.72894612E+02 0.31036299E+01 0.29982947E+03 0.33293538E+03 0.12500000E+03 0.0000E+00 0.9000E+01
       24  1    1    2    0    0 0.72894612E+02 -.31036299E+01 0.19828019E+03 0.22606527E+03 0.80419002E+02 0.0000E+00 0.9000E+01
#aMCatNLO 1  0  0  2  1 0.20980680D+03 0.00000000D+00  -5  5  0 0.00000000D+00 0.00000000D+00 0.00000000D+00 0.00000000D+00 0.00000000D+00
  <mgrwgt>
 0.3330589363D+00    5    2    0
 0.126854735133504D+03 0.000000000000000D+00 0.000000000000000D+00 0.126854735133504D+03
 0.126854735133504D+03 0.000000000000000D+00 0.000000000000000D+00 -.126854735133504D+03
 0.144902512451378D+03 -.728946116298539D+02 0.310362994798817D+01 0.696284361454046D+01
 0.108806957815630D+03 0.728946116298539D+02 -.310362994798817D+01 -.696284361454046D+01
 0.000000000000000D+00 -.000000000000000D+00 0.000000000000000D+00 -.000000000000000D+00
 0.220115457851590D+03 0.000000000000000D+00 0.000000000000000D+00 0.220115457851590D+03
 0.362879288589831D+03 0.000000000000000D+00 0.000000000000000D+00 -.362879288589831D+03
 0.141365443160369D+03 0.394361441337409D+01 -.655374338381178D+02 0.696284361454046D+01
 0.187856956061522D+03 0.152523254747274D+03 -.742374269248854D+02 -.696284361454046D+01
 0.253772347219530D+03 -.156466869160648D+03 0.139774860763003D+03 -.142763830738241D+03
0.235828202665D-03 0.000000000000D+00 0.000000000000D+00 0.265950226440D-02 0.000000000000D+00  5 2 -1 25 24 21 0 0.81316179D-01 0.46839224D-02 0.16042638D+05 0.16042638D+05 0.16042638D+05 0.12445091D+01  1  2  2  2  5  2       -1 0.287843887497D+00 0.100000000000D+01
-.131015290385D-04 0.000000000000D+00 -.905642393225D-06 0.265950226440D-02 0.000000000000D+00  5 2 -1 25 24 21 2 0.81316179D-01 0.46839224D-02 0.16042638D+05 0.16042638D+05 0.16042638D+05 0.12445091D+01  1  2  3  2  5  2       -1 -.247673436541D-01 0.100000000000D+01
0.163470001211D-04 0.000000000000D+00 0.000000000000D+00 0.265950226440D-02 0.000000000000D+00  5 2 -1 25 24 21 2 0.81316179D-01 0.46839224D-02 0.16042638D+05 0.16042638D+05 0.16042638D+05 0.12445091D+01  1  2 15  2  5  2       -1 0.309026349919D-01 0.100000000000D+01
0.786919512896D-04 0.000000000000D+00 -.908827566163D-04 0.265950226440D-02 0.000000000000D+00  5 2 -1 25 24 21 2 0.81316179D-01 0.23100807D-01 0.16042638D+05 0.16042638D+05 0.16042638D+05 0.12445091D+01  1  2  5  2  5  2       -1 0.128601454956D-01 0.100000000000D+01
0.129472937387D-04 0.000000000000D+00 -.176604846615D-04 0.265950226440D-02 0.000000000000D+00  5 2 21 25 24 1 2 0.81316179D-01 0.23100807D-01 0.16042638D+05 0.16042638D+05 0.16042638D+05 0.12445091D+01  1  2  5  4  5  2       -1 0.262196119750D-01 0.100000000000D+01
  </mgrwgt>
  </event>
  <event>
  4     66 0.48098993E-03 0.11791490E+03 0.75467711E-02 0.11584265E+00
        2 -1    0    0  501    0 0.00000000E+00 0.00000000E+00 0.78844544E+03 0.78844550E+03 0.32000000E+00 0.0000E+00 0.9000E+01
       -1 -1    0    0    0  501 0.00000000E+00 0.00000000E+00 -.18368600E+02 0.18371387E+02 0.32000000E+00 0.0000E+00 0.9000E+01
       25  1    1    2    0    0 -.10206684E+02 0.55951985E+02 0.52556129E+03 0.54320758E+03 0.12500000E+03 0.0000E+00 0.9000E+01
       24  1    1    2    0    0 0.10206684E+02 -.55951985E+02 0.24451555E+03 0.26360931E+03 0.80419002E+02 0.0000E+00 0.9000E+01
#aMCatNLO 1  0  0  2  2 0.11720221D+03 0.00000000D+00  -5  5  0 0.00000000D+00 0.00000000D+00 0.00000000D+00 0.00000000D+00 0.00000000D+00
  <mgrwgt>
 0.4314762447D+00    3    2    0
 0.120348615427261D+03 0.000000000000000D+00 0.000000000000000D+00 0.120348615427261D+03
 0.120348615427261D+03 0.000000000000000D+00 0.000000000000000D+00 -.120348615427261D+03
 0.139372066617616D+03 -.102066836502582D+02 0.559519852605423D+02 0.237649302025673D+02
 0.101325164236905D+03 0.102066836502582D+02 -.559519852605423D+02 -.237649302025673D+02
 0.000000000000000D+00 -.000000000000000D+00 -.000000000000000D+00 0.000000000000000D+00
 0.235848271078590D+03 0.000000000000000D+00 0.000000000000000D+00 0.235848271078590D+03
 0.167528329423685D+03 0.000000000000000D+00 0.000000000000000D+00 -.167528329423685D+03
 0.179458294745014D+03 0.121503808138601D+02 0.125967757348195D+03 0.237649302025673D+02
 0.882570661325672D+02 0.235005937016941D+02 -.143193559943459D+02 -.237649302025673D+02
 0.135661239624693D+03 -.356509745155542D+02 -.111648401353849D+03 0.683199416549049D+02
0.264452513225D-03 0.000000000000D+00 0.000000000000D+00 0.268296254587D-02 0.000000000000D+00  5 2 -1 25 24 21 0 0.12129952D+00 0.28261578D-02 0.13903925D+05 0.13903925D+05 0.13903925D+05 0.12515969D+01  1  2  2  2  5  2       -1 0.422429785375D+00 0.100000000000D+01
-.146843509077D-04 0.000000000000D+00 -.101556728273D-05 0.268296254587D-02 0.000000000000D+00  5 2 -1 25 24 21 2 0.12129952D+00 0.28261578D-02 0.13903925D+05 0.13903925D+05 0.13903925D+05 0.12515969D+01  1  2  3  2  5  2       -1 -.367443479264D-01 0.100000000000D+01
0.182996384518D-04 0.000000000000D+00 0.000000000000D+00 0.268296254587D-02 0.000000000000D+00  5 2 -1 25 24 21 2 0.12129952D+00 0.28261578D-02 0.13903925D+05 0.13903925D+05 0.13903925D+05 0.12515969D+01  1  2 15  2  5  2       -1 0.457908072632D-01 0.100000000000D+01
  </mgrwgt>
  </event>
  <event>
  5     66 0.48098993E-03 0.10382697E+03 0.75467711E-02 0.12326927E+00
        2 -1    0    0  501    0 0.00000000E+00 0.00000000E+00 0.18115031E+04 0.18115032E+04 0.32000000E+00 0.0000E+00 0.9000E+01
       21 -1    0    0  502  501 0.00000000E+00 0.00000000E+00 -.11003627E+02 0.11029157E+02 0.75000000E+00 0.0000E+00 0.9000E+01
       25  1    1    2    0    0 -.23890960E+02 -.30989691E+02 0.12220332E+04 0.12290327E+04 0.12500000E+03 0.0000E+00 0.9000E+01
       24  1    1    2    0    0 -.35613987E+01 -.24795268E+00 0.25587325E+03 0.26823698E+03 0.80419002E+02 0.0000E+00 0.9000E+01
        1  1    1    2  502    0 0.27452359E+02 0.31237644E+02 0.32259306E+03 0.32526267E+03 0.32000000E+00 0.0000E+00 0.9000E+01
#aMCatNLO 2  0  0  2  1 0.41586325D+02 0.00000000D+00  -5  5  0 0.00000000D+00 0.00000000D+00 0.00000000D+00 0.00000000D+00 0.00000000D+00
  <mgrwgt>
 0.1867951498D+00    1    2    0
 0.118194225575087D+03 0.000000000000000D+00 0.000000000000000D+00 0.118194225575087D+03
 0.118194225575087D+03 0.000000000000000D+00 0.000000000000000D+00 -.118194225575087D+03
 0.137564427463274D+03 -.776702675671198D+01 -.126424996525115D+02 0.554870453456949D+02
 0.988240236869000D+02 0.776702675671198D+01 0.126424996525115D+02 -.554870453456949D+02
 0.000000000000000D+00 0.000000000000000D+00 0.000000000000000D+00 0.000000000000000D+00
 0.146141141715126D+03 0.000000000000000D+00 0.000000000000000D+00 0.146141141715126D+03
 0.136554453384598D+03 0.000000000000000D+00 0.000000000000000D+00 -.136554453384598D+03
 0.142249608576505D+03 -.238909600382307D+02 -.309896913089734D+02 0.554870453456949D+02
 0.977689787045371D+02 -.356139871842160D+01 -.247952678772604D+00 -.554870453456949D+02
 0.426770078186813D+02 0.274523587566523D+02 0.312376439877460D+02 0.958668833052740D+01
0.619910449224D-05 0.000000000000D+00 0.000000000000D+00 0.228410588560D-02 0.320325805810D-06  5 2 21 25 24 1 2 0.27869356D+00 0.16948244D-02 0.16010597D+05 0.16010597D+05 0.16010597D+05 0.12446073D+01  1  2  1  4  5  2       -1 0.186795149829D+00 0.100000000000D+01
  </mgrwgt>
  </event>
  <event>
  5     66 0.48098993E-03 0.11478358E+03 0.75467711E-02 0.12419489E+00
        2 -1    0    0  502    0 0.00000000E+00 0.00000000E+00 0.19229603E+04 0.19229603E+04 0.32000000E+00 0.0000E+00 0.9000E+01
       -1 -1    0    0    0  501 0.00000000E+00 0.00000000E+00 -.94508167E+01 0.94562327E+01 0.32000000E+00 0.0000E+00 0.9000E+01
       25  1    1    2    0    0 -.26032682E+02 0.35381642E+02 0.14537243E+04 0.14597496E+04 0.12500000E+03 0.0000E+00 0.9000E+01
       24  1    1    2    0    0 0.34528311E+02 -.42983198E+02 0.42549175E+03 0.43652057E+03 0.80419002E+02 0.0000E+00 0.9000E+01
       21  1    1    2  502  501 -.84956290E+01 0.76015560E+01 0.34293397E+02 0.36146355E+02 0.75000000E+00 0.0000E+00 0.9000E+01
#aMCatNLO 2  0  0  1  1 0.11399972D+02 0.00000000D+00  -5  5  0 0.00000000D+00 0.00000000D+00 0.00000000D+00 0.00000000D+00 0.00000000D+00
  <mgrwgt>
 0.2006416886D+00    1    2    0
 0.126745444345464D+03 0.000000000000000D+00 0.000000000000000D+00 0.126745444345464D+03
 0.126745444345464D+03 0.000000000000000D+00 0.000000000000000D+00 -.126745444345464D+03
 0.144808784004183D+03 -.308486302253240D+02 0.396907630980814D+02 0.530809689312775D+02
 0.108682104686745D+03 0.308486302253240D+02 -.396907630980814D+02 -.530809689312775D+02
 0.000000000000000D+00 -.000000000000000D+00 0.000000000000000D+00 -.000000000000000D+00
 0.129232046138222D+03 0.000000000000000D+00 0.000000000000000D+00 0.129232046138222D+03
 0.140649205142829D+03 0.000000000000000D+00 0.000000000000000D+00 -.140649205142829D+03
 0.142731042111161D+03 -.260326824092076D+02 0.353816416526442D+02 0.530809689312775D+02
 0.111016056422879D+03 0.345283113793922D+02 -.429831976465423D+02 -.530809689312775D+02
 0.161341527470108D+02 -.849562897018462D+01 0.760155599389815D+01 -.114171590046065D+02
0.129673648640D-03 0.000000000000D+00 0.000000000000D+00 0.225694076358D-02 0.145558153919D-03  5 2 -1 25 24 21 2 0.29582077D+00 0.14542937D-02 0.14568166D+05 0.14568166D+05 0.14568166D+05 0.12492714D+01  1  2  1  1  5  1        2 0.200641688618D+00 0.100000000000D+01
  </mgrwgt>
  </event>
  <event>
  4     66 0.48098993E-03 0.13747562E+03 0.75467711E-02 0.10250121E+00
        2 -1    0    0  501    0 0.00000000E+00 0.00000000E+00 0.58068683E+03 0.58068691E+03 0.32000000E+00 0.0000E+00 0.9000E+01
       -1 -1    0    0    0  501 0.00000000E+00 0.00000000E+00 -.49038295E+02 0.49039339E+02 0.32000000E+00 0.0000E+00 0.9000E+01
       25  1    1    2    0    0 0.32699371E+01 0.90111511E+02 0.46889957E+03 0.49358139E+03 0.12500000E+03 0.0000E+00 0.9000E+01
       24  1    1    2    0    0 -.32699371E+01 -.90111511E+02 0.62748960E+02 0.13614487E+03 0.80419002E+02 0.0000E+00 0.9000E+01
#aMCatNLO 1  0  0  2  1 0.42140958D+03 0.00000000D+00  -5  5  0 0.00000000D+00 0.00000000D+00 0.00000000D+00 0.00000000D+00 0.00000000D+00
  <mgrwgt>
 0.3856675927D+00    5    2    0
 0.168749068679655D+03 0.000000000000000D+00 0.000000000000000D+00 0.168749068679655D+03
 0.168749068679655D+03 0.000000000000000D+00 0.000000000000000D+00 -.168749068679655D+03
 0.182316231030954D+03 0.326993713196208D+01 0.901115106560048D+02 0.973829104914099D+02
 0.155181906328356D+03 -.326993713196208D+01 -.901115106560048D+02 -.973829104914099D+02
 0.000000000000000D+00 0.000000000000000D+00 -.000000000000000D+00 -.000000000000000D+00
 0.348970925937229D+03 0.000000000000000D+00 0.000000000000000D+00 0.348970925937229D+03
 0.831778629366208D+03 0.000000000000000D+00 0.000000000000000D+00 -.831778629366208D+03
 0.365297030815690D+03 -.189309986299132D+03 0.269249361288757D+03 0.973829104914099D+02
 0.174602061609652D+03 -.119245527423801D+03 0.177689869607592D+02 -.973829104914099D+02
 0.640850462878095D+03 0.308555513722933D+03 -.287018348249517D+03 -.482807703428979D+03
0.618406231715D-03 0.000000000000D+00 0.000000000000D+00 0.157708289091D-02 0.000000000000D+00  5 2 -1 25 24 21 0 0.89336522D-01 0.75444401D-02 0.18899547D+05 0.18899547D+05 0.18899547D+05 0.12365411D+01  1  2  2  2  5  2       -1 0.335958030028D+00 0.100000000000D+01
-.326010220534D-04 0.000000000000D+00 -.237484275989D-05 0.157708289091D-02 0.000000000000D+00  5 2 -1 25 24 21 2 0.89336522D-01 0.75444401D-02 0.18899547D+05 0.18899547D+05 0.18899547D+05 0.12365411D+01  1  2  3  2  5  2       -1 -.270806776896D-01 0.100000000000D+01
0.426512142895D-04 0.000000000000D+00 0.000000000000D+00 0.157708289091D-02 0.000000000000D+00  5 2 -1 25 24 21 2 0.89336522D-01 0.75444401D-02 0.18899547D+05 0.18899547D+05 0.18899547D+05 0.12365411D+01  1  2 15  2  5  2       -1 0.354290667745D-01 0.100000000000D+01
0.798693766831D-03 0.000000000000D+00 -.405324307111D-03 0.157708289091D-02 0.000000000000D+00  5 2 -1 25 24 21 2 0.89336522D-01 0.73611752D-01 0.18899547D+05 0.18899547D+05 0.18899547D+05 0.12365411D+01  1  2  5  2  5  2       -1 0.147596336511D-01 0.100000000000D+01
0.154097898335D-03 0.000000000000D+00 -.110164307783D-03 0.157708289091D-02 0.000000000000D+00  5 2 21 25 24 1 2 0.89336522D-01 0.73611752D-01 0.18899547D+05 0.18899547D+05 0.18899547D+05 0.12365411D+01  1  2  5  4  5  2       -1 0.266015399311D-01 0.100000000000D+01
  </mgrwgt>
  </event>
  <event>
  4     66 0.48098993E-03 0.68750136E+02 0.75467711E-02 0.11922664E+00
        2 -1    0    0  501    0 0.00000000E+00 0.00000000E+00 0.23543516E+03 0.23543538E+03 0.32000000E+00 0.0000E+00 0.9000E+01
       -1 -1    0    0    0  501 0.00000000E+00 0.00000000E+00 -.10163338E+03 0.10163389E+03 0.32000000E+00 0.0000E+00 0.9000E+01
       25  1    1    2    0    0 -.61927767E+02 0.50114445E+02 0.16284567E+03 0.22020494E+03 0.12500000E+03 0.0000E+00 0.9000E+01
       24  1    1    2    0    0 0.61927767E+02 -.50114445E+02 -.29043888E+02 0.11686432E+03 0.80419002E+02 0.0000E+00 0.9000E+01
#aMCatNLO 1  0  0  1  2 0.47427022D+02 0.00000000D+00  -5  5  0 0.00000000D+00 0.00000000D+00 0.00000000D+00 0.00000000D+00 0.00000000D+00
  <mgrwgt>
 0.2314287729D+00    9    2    0
 0.154687404451905D+03 0.000000000000000D+00 0.000000000000000D+00 0.154687404451905D+03
 0.154687404451905D+03 0.000000000000000D+00 0.000000000000000D+00 -.154687404451905D+03
 0.169487872657571D+03 -.619277671266938D+02 0.501144448649092D+02 0.821865746492265D+02
 0.139886936246239D+03 0.619277671266938D+02 -.501144448649092D+02 -.821865746492265D+02
 0.000000000000000D+00 -.000000000000000D+00 0.000000000000000D+00 0.000000000000000D+00
 0.260708529192841D+03 0.000000000000000D+00 0.000000000000000D+00 0.260708529192841D+03
 0.161890404064646D+03 0.000000000000000D+00 0.000000000000000D+00 -.161890404064646D+03
 0.159259617369804D+03 -.420390243642581D+02 0.348814148609965D+02 0.821865746492265D+02
 0.153729351723975D+03 0.796911235003488D+02 -.637196155809360D+02 -.821865746492265D+02
 0.109609964163708D+03 -.376520991360907D+02 0.288382007199395D+02 0.988181251281956D+02
0.565270735032D-03 0.000000000000D+00 0.000000000000D+00 0.175786049774D-02 0.000000000000D+00  5 2 -1 25 24 21 0 0.36220849D-01 0.15635960D-01 0.17085836D+05 0.17085836D+05 0.17085836D+05 0.12414274D+01  1  2  2  1  5  1        2 0.264238679628D+00 0.100000000000D+01
-.303210773275D-04 0.000000000000D+00 -.217078846173D-05 0.175786049774D-02 0.000000000000D+00  5 2 -1 25 24 21 2 0.36220849D-01 0.15635960D-01 0.17085836D+05 0.17085836D+05 0.17085836D+05 0.12414274D+01  1  2  3  1  5  1        2 -.218437493294D-01 0.100000000000D+01
0.390020273453D-04 0.000000000000D+00 0.000000000000D+00 0.175786049774D-02 0.000000000000D+00  5 2 -1 25 24 21 2 0.36220849D-01 0.15635960D-01 0.17085836D+05 0.17085836D+05 0.17085836D+05 0.12414274D+01  1  2 15  1  5  1        2 0.280976331899D-01 0.100000000000D+01
0.128519355468D-02 0.000000000000D+00 0.000000000000D+00 0.175786049774D-02 0.000000000000D+00  5 2 -1 25 24 21 2 0.61387901D-01 0.15635960D-01 0.24610938D+05 0.24610938D+05 0.24610938D+05 0.12240286D+01  1  2 12  1  5  1        2 0.517509419808D+00 0.100000000000D+01
-.136408223942D-02 0.000000000000D+00 0.000000000000D+00 0.175786049774D-02 0.000000000000D+00  5 2 -1 25 24 21 2 0.36220849D-01 0.15635960D-01 0.17085836D+05 0.17085836D+05 0.17085836D+05 0.12414274D+01  1  2  4  1  5  1        2 -.982704874919D+00 0.100000000000D+01
-.149082337044D-02 0.000000000000D+00 -.229274964721D-03 0.175786049774D-02 0.000000000000D+00  5 2 -1 25 24 21 2 0.62786604D-01 0.15635960D-01 0.17085836D+05 0.17085836D+05 0.17085836D+05 0.12414274D+01  1  2  5  1  5  1        2 -.598965794319D+00 0.100000000000D+01
0.142641806737D-02 0.000000000000D+00 0.198478420657D-03 0.175786049774D-02 0.000000000000D+00  5 2 -1 25 24 21 2 0.36220849D-01 0.15635960D-01 0.17085836D+05 0.17085836D+05 0.17085836D+05 0.12414274D+01  1  2  6  1  5  1        2 0.102761252069D+01 0.100000000000D+01
0.756558925754D-04 0.000000000000D+00 0.000000000000D+00 0.175786049774D-02 0.000000000000D+00  5 21 -1 25 24 -2 2 0.61387901D-01 0.15635960D-01 0.24610938D+05 0.24610938D+05 0.24610938D+05 0.12240286D+01  1  2 12  3  5  1        2 0.762827176044D-01 0.100000000000D+01
-.793899362436D-04 0.000000000000D+00 -.139700636020D-04 0.175786049774D-02 0.000000000000D+00  5 21 -1 25 24 -2 2 0.62786604D-01 0.15635960D-01 0.17085836D+05 0.17085836D+05 0.17085836D+05 0.12414274D+01  1  2  5  3  5  1        2 -.787977794650D-01 0.100000000000D+01
  </mgrwgt>
  </event>
  <event>
  4     66 0.48098993E-03 0.55566600E+02 0.75467711E-02 0.12102518E+00
        2 -1    0    0  501    0 0.00000000E+00 0.00000000E+00 0.42936889E+04 0.42936889E+04 0.32000000E+00 0.0000E+00 0.9000E+01
       -1 -1    0    0    0  501 0.00000000E+00 0.00000000E+00 -.29432619E+01 0.29606064E+01 0.32000000E+00 0.0000E+00 0.9000E+01
       25  1    1    2    0    0 0.39598791E+02 0.18689366E+02 0.23197021E+04 0.23234802E+04 0.12500000E+03 0.0000E+00 0.9000E+01
       24  1    1    2    0    0 -.39598791E+02 -.18689366E+02 0.19710435E+04 0.19731693E+04 0.80419002E+02 0.0000E+00 0.9000E+01
#aMCatNLO 1  0  0  1  2 0.54134927D+02 0.00000000D+00  -5  5  0 0.00000000D+00 0.00000000D+00 0.00000000D+00 0.00000000D+00 0.00000000D+00
  <mgrwgt>
 0.4111969586D+00    7    2    0
 0.112582139587962D+03 0.000000000000000D+00 0.000000000000000D+00 0.112582139587962D+03
 0.112582139587962D+03 0.000000000000000D+00 0.000000000000000D+00 -.112582139587962D+03
 0.132917923041594D+03 0.395987912522125D+02 0.186893661516615D+02 -.111721792817623D+02
 0.922463561343295D+02 -.395987912522125D+02 -.186893661516615D+02 0.111721792817623D+02
 0.000000000000000D+00 0.000000000000000D+00 0.000000000000000D+00 0.000000000000000D+00
 0.168636817621160D+03 0.000000000000000D+00 0.000000000000000D+00 0.168636817621160D+03
 0.129653944173836D+03 0.000000000000000D+00 0.000000000000000D+00 -.129653944173836D+03
 0.127607558631880D+03 0.220975958888424D+02 -.675038413857302D+01 -.111721792817623D+02
 0.103972973623745D+03 -.527801230824312D+02 -.378497596728563D+02 0.111721792817623D+02
 0.667102295393707D+02 0.306825271935889D+02 0.446001438114293D+02 0.389828734473234D+02
0.147162902964D-02 0.000000000000D+00 0.000000000000D+00 0.291987851450D-02 0.000000000000D+00  5 2 -1 25 24 21 0 0.66056886D+00 0.45414464D-03 0.12545666D+05 0.12545666D+05 0.12545666D+05 0.12567670D+01  1  2  2  1  5  1        2 0.267128113601D+00 0.100000000000D+01
-.817545647006D-04 0.000000000000D+00 -.565144296262D-05 0.291987851450D-02 0.000000000000D+00  5 2 -1 25 24 21 2 0.66056886D+00 0.45414464D-03 0.12545666D+05 0.12545666D+05 0.12545666D+05 0.12567670D+01  1  2  3  1  5  1        2 -.234392003037D-01 0.100000000000D+01
0.101841385123D-03 0.000000000000D+00 0.000000000000D+00 0.291987851450D-02 0.000000000000D+00  5 2 -1 25 24 21 2 0.66056886D+00 0.45414464D-03 0.12545666D+05 0.12545666D+05 0.12545666D+05 0.12567670D+01  1  2 15  1  5  1        2 0.291981326527D-01 0.100000000000D+01
-.585249511630D-03 0.000000000000D+00 0.000000000000D+00 0.291987851450D-02 0.000000000000D+00  5 2 -1 25 24 21 2 0.66056886D+00 0.45414464D-03 0.12545666D+05 0.12545666D+05 0.12545666D+05 0.12567670D+01  1  2  4  1  5  1        2 -.167792227639D+00 0.100000000000D+01
-.746833917927D-03 0.000000000000D+00 -.250548309153D-03 0.291987851450D-02 0.000000000000D+00  5 2 -1 25 24 21 2 0.99011513D+00 0.45414464D-03 0.12545666D+05 0.12545666D+05 0.12545666D+05 0.12567670D+01  1  2  5  1  5  1        2 -.159801452089D-05 0.100000000000D+01
0.106767200143D-02 0.000000000000D+00 0.319207788334D-03 0.291987851450D-02 0.000000000000D+00  5 2 -1 25 24 21 2 0.66056886D+00 0.45414464D-03 0.12545666D+05 0.12545666D+05 0.12545666D+05 0.12567670D+01  1  2  6  1  5  1        2 0.306103738571D+00 0.100000000000D+01
-.271685378734D-04 0.000000000000D+00 -.120292945947D-04 0.291987851450D-02 0.000000000000D+00  5 21 -1 25 24 -2 2 0.99011513D+00 0.45414464D-03 0.12545666D+05 0.12545666D+05 0.12545666D+05 0.12567670D+01  1  2  5  3  5  1        2 -.277085761557D-09 0.100000000000D+01
  </mgrwgt>
  </event>
  <event>
  4     66 0.48098993E-03 0.11886652E+03 0.75467711E-02 0.11041947E+00
        2 -1    0    0  501    0 0.00000000E+00 0.00000000E+00 0.69666563E+02 0.69667298E+02 0.32000000E+00 0.0000E+00 0.9000E+01
       -1 -1    0    0    0  501 0.00000000E+00 0.00000000E+00 -.24556704E+03 0.24556725E+03 0.32000000E+00 0.0000E+00 0.9000E+01
       25  1    1    2    0    0 0.52541758E+02 -.26333961E+02 -.16477171E+03 0.21500890E+03 0.12500000E+03 0.0000E+00 0.9000E+01
       24  1    1    2    0    0 -.52541758E+02 0.26333961E+02 -.11128771E+02 0.10022564E+03 0.80419002E+02 0.0000E+00 0.9000E+01
#aMCatNLO 1  0  0  1  1 0.21143583D+03 0.00000000D+00  -5  5  0 0.00000000D+00 0.00000000D+00 0.00000000D+00 0.00000000D+00 0.00000000D+00
  <mgrwgt>
 0.3356305412D+00    5    2    0
 0.130797401911123D+03 0.000000000000000D+00 0.000000000000000D+00 0.130797401911123D+03
 0.130797401911123D+03 0.000000000000000D+00 0.000000000000000D+00 -.130797401911123D+03
 0.148301159462538D+03 0.525417575558513D+02 -.263339610680109D+02 -.539825907616879D+02
 0.113293644359707D+03 -.525417575558513D+02 0.263339610680109D+02 0.539825907616879D+02
 0.000000000000000D+00 0.000000000000000D+00 -.000000000000000D+00 0.000000000000000D+00
 0.337815156513233D+03 0.000000000000000D+00 0.000000000000000D+00 0.337815156513233D+03
 0.234063075742942D+03 0.000000000000000D+00 0.000000000000000D+00 -.234063075742942D+03
 0.159043187386571D+03 0.241430664401072D+02 0.785667085450606D+02 -.539825907616879D+02
 0.177315182238126D+03 -.793940825999572D+02 0.125522577413534D+03 0.539825907616879D+02
 0.235519862631477D+03 0.552510161598501D+02 -.204089285958595D+03 0.103752080770291D+03
0.619238551827D-03 0.000000000000D+00 0.000000000000D+00 0.221599592053D-02 0.000000000000D+00  5 2 -1 25 24 21 0 0.10718005D-01 0.37779617D-01 0.14129249D+05 0.14129249D+05 0.14129249D+05 0.12507943D+01  1  2  2  1  5  1        2 0.269331271241D+00 0.100000000000D+01
-.340194735117D-04 0.000000000000D+00 -.237803908827D-05 0.221599592053D-02 0.000000000000D+00  5 2 -1 25 24 21 2 0.10718005D-01 0.37779617D-01 0.14129249D+05 0.14129249D+05 0.14129249D+05 0.12507943D+01  1  2  3  1  5  1        2 -.231487834071D-01 0.100000000000D+01
0.427241821052D-04 0.000000000000D+00 0.000000000000D+00 0.221599592053D-02 0.000000000000D+00  5 2 -1 25 24 21 2 0.10718005D-01 0.37779617D-01 0.14129249D+05 0.14129249D+05 0.14129249D+05 0.12507943D+01  1  2 15  1  5  1        2 0.290719619003D-01 0.100000000000D+01
0.300402893699D-03 0.000000000000D+00 -.285144585083D-03 0.221599592053D-02 0.000000000000D+00  5 2 -1 25 24 21 2 0.47817869D-01 0.37779617D-01 0.14129249D+05 0.14129249D+05 0.14129249D+05 0.12507943D+01  1  2  5  1  5  1        2 0.384148739942D-01 0.100000000000D+01
0.522214571179D-04 0.000000000000D+00 -.515190079566D-04 0.221599592053D-02 0.000000000000D+00  5 21 -1 25 24 -2 2 0.47817869D-01 0.37779617D-01 0.14129249D+05 0.14129249D+05 0.14129249D+05 0.12507943D+01  1  2  5  3  5  1        2 0.219612175025D-01 0.100000000000D+01
  </mgrwgt>
  </event>
  <event>
  4     66 0.48098993E-03 0.11330867E+03 0.75467711E-02 0.11744799E+00
        2 -1    0    0  501    0 0.00000000E+00 0.00000000E+00 0.15837274E+03 0.15837306E+03 0.32000000E+00 0.0000E+00 0.9000E+01
       -1 -1    0    0    0  501 0.00000000E+00 0.00000000E+00 -.84879854E+02 0.84880457E+02 0.32000000E+00 0.0000E+00 0.9000E+01
       25  1    1    2    0    0 -.37848978E+02 -.27721095E+02 0.68389633E+02 0.15001049E+03 0.12500000E+03 0.0000E+00 0.9000E+01
       24  1    1    2    0    0 0.37848978E+02 0.27721095E+02 0.51032534E+01 0.93243034E+02 0.80419002E+02 0.0000E+00 0.9000E+01
#aMCatNLO 1  0  0  2  1 0.99119769D+02 0.00000000D+00  -5  5  0 0.00000000D+00 0.00000000D+00 0.00000000D+00 0.00000000D+00 0.00000000D+00
  <mgrwgt>
 0.3685237516D+00    3    2    0
 0.115942950555029D+03 0.000000000000000D+00 0.000000000000000D+00 0.115942950555029D+03
 0.115942950555029D+03 0.000000000000000D+00 0.000000000000000D+00 -.115942950555029D+03
 0.135689265449100D+03 -.378489783523730D+02 -.277210949502655D+02 0.241986051365859D+02
 0.961966356609574D+02 0.378489783523730D+02 0.277210949502655D+02 -.241986051365859D+02
 0.000000000000000D+00 0.000000000000000D+00 -.000000000000000D+00 0.000000000000000D+00
 0.345914836232851D+03 0.000000000000000D+00 0.000000000000000D+00 0.345914836232851D+03
 0.137264451387824D+03 0.000000000000000D+00 0.000000000000000D+00 -.137264451387824D+03
 0.141448676886131D+03 -.558173905861917D+02 0.261069839397271D+02 0.241986051365859D+02
 0.110733399484852D+03 0.244325397957178D+02 0.679127993508994D+02 -.241986051365859D+02
 0.230997211249692D+03 0.313848507904739D+02 -.940197832906266D+02 0.208650384845028D+03
0.383390638206D-03 0.000000000000D+00 0.000000000000D+00 0.275934708519D-02 0.000000000000D+00  5 2 -1 25 24 21 0 0.24365108D-01 0.13058510D-01 0.12838854D+05 0.12838854D+05 0.12838854D+05 0.12555994D+01  1  2  2  2  5  2       -1 0.360774989872D+00 0.100000000000D+01
-.212858010882D-04 0.000000000000D+00 -.147232099979D-05 0.275934708519D-02 0.000000000000D+00  5 2 -1 25 24 21 2 0.24365108D-01 0.13058510D-01 0.12838854D+05 0.12838854D+05 0.12838854D+05 0.12555994D+01  1  2  3  2  5  2       -1 -.315781806109D-01 0.100000000000D+01
0.265089835791D-04 0.000000000000D+00 0.000000000000D+00 0.275934708519D-02 0.000000000000D+00  5 2 -1 25 24 21 2 0.24365108D-01 0.13058510D-01 0.12838854D+05 0.12838854D+05 0.12838854D+05 0.12555994D+01  1  2 15  2  5  2       -1 0.393269423031D-01 0.100000000000D+01
  </mgrwgt>
  </event>
  <event>
  4     66 0.48098993E-03 0.57771169E+02 0.75467711E-02 0.11485177E+00
        2 -1    0    0  501    0 0.00000000E+00 0.00000000E+00 0.10124476E+03 0.10124526E+03 0.32000000E+00 0.0000E+00 0.9000E+01
       -1 -1    0    0    0  501 0.00000000E+00 0.00000000E+00 -.19272060E+03 0.19272087E+03 0.32000000E+00 0.0000E+00 0.9000E+01
       25  1    1    2    0    0 -.58915560E+02 -.72400420E+02 -.46200181E+02 0.16270317E+03 0.12500000E+03 0.0000E+00 0.9000E+01
       24  1    1    2    0    0 0.58915560E+02 0.72400420E+02 -.45275662E+02 0.13126296E+03 0.80419002E+02 0.0000E+00 0.9000E+01
#aMCatNLO 1  0  0  2  1 0.10470658D+03 0.00000000D+00  -5  5  0 0.00000000D+00 0.00000000D+00 0.00000000D+00 0.00000000D+00 0.00000000D+00
  <mgrwgt>
 0.2155996351D+00    7    2    0
 0.139685589757465D+03 0.000000000000000D+00 0.000000000000000D+00 0.139685589757465D+03
 0.139685589757465D+03 0.000000000000000D+00 0.000000000000000D+00 -.139685589757465D+03
 0.156075583996545D+03 -.589155596318355D+02 -.724004196941588D+02 0.466089918790936D+01
 0.123295595518385D+03 0.589155596318355D+02 0.724004196941588D+02 -.466089918790936D+01
 0.000000000000000D+00 -.000000000000000D+00 -.000000000000000D+00 -.000000000000000D+00
 0.171142193836155D+03 0.000000000000000D+00 0.000000000000000D+00 0.171142193836155D+03
 0.273940318870499D+03 0.000000000000000D+00 0.000000000000000D+00 -.273940318870499D+03
 0.140685312584258D+03 -.577031057919682D+01 -.641275035496488D+02 0.466089918790936D+01
 0.157663012690536D+03 0.109230865249199D+03 0.802328094482373D+02 -.466089918790936D+01
 0.146734187431860D+03 -.103460554670002D+03 -.161053058985884D+02 -.102798125034344D+03
0.595603296618D-03 0.000000000000D+00 0.000000000000D+00 0.250166750606D-02 0.000000000000D+00  5 2 -1 25 24 21 0 0.15576176D-01 0.29649383D-01 0.19490036D+05 0.19490036D+05 0.19490036D+05 0.12350629D+01  1  2  2  2  5  2       -1 0.253279788938D+00 0.100000000000D+01
-.330890592015D-04 0.000000000000D+00 -.228727348496D-05 0.250166750606D-02 0.000000000000D+00  5 2 -1 25 24 21 2 0.15576176D-01 0.29649383D-01 0.19490036D+05 0.19490036D+05 0.19490036D+05 0.12350629D+01  1  2  3  2  5  2       -1 -.214637701195D-01 0.100000000000D+01
0.410932251420D-04 0.000000000000D+00 0.000000000000D+00 0.250166750606D-02 0.000000000000D+00  5 2 -1 25 24 21 2 0.15576176D-01 0.29649383D-01 0.19490036D+05 0.19490036D+05 0.19490036D+05 0.12350629D+01  1  2 15  2  5  2       -1 0.266558058526D-01 0.100000000000D+01
0.454415206645D-04 0.000000000000D+00 0.000000000000D+00 0.250166750606D-02 0.000000000000D+00  5 2 -1 25 24 21 2 0.15576176D-01 0.58689292D-01 0.40583868D+05 0.40583868D+05 0.40583868D+05 0.12013617D+01  1  2 12  2  5  2       -1 0.838522643208D-02 0.100000000000D+01
-.268500194793D-03 0.000000000000D+00 -.168014423404D-03 0.250166750606D-02 0.000000000000D+00  5 2 -1 25 24 21 2 0.15576176D-01 0.68673616D-01 0.19490036D+05 0.19490036D+05 0.19490036D+05 0.12350629D+01  1  2  5  2  5  2       -1 -.383638435257D-01 0.100000000000D+01
0.335905979271D-05 0.000000000000D+00 0.000000000000D+00 0.250166750606D-02 0.000000000000D+00  5 2 21 25 24 1 2 0.15576176D-01 0.58689292D-01 0.40583868D+05 0.40583868D+05 0.40583868D+05 0.12013617D+01  1  2 12  4  5  2       -1 0.596820161579D-02 0.100000000000D+01
-.139384338013D-04 0.000000000000D+00 -.153701902992D-04 0.250166750606D-02 0.000000000000D+00  5 2 21 25 24 1 2 0.15576176D-01 0.68673616D-01 0.19490036D+05 0.19490036D+05 0.19490036D+05 0.12350629D+01  1  2  5  4  5  2       -1 -.188617740643D-01 0.100000000000D+01
  </mgrwgt>
  </event>
  <event>
  5     66 0.48098993E-03 0.33961897E+03 0.75467711E-02 0.10620633E+00
        2 -1    0    0  502    0 0.00000000E+00 0.00000000E+00 0.77464002E+02 0.77464663E+02 0.32000000E+00 0.0000E+00 0.9000E+01
       -1 -1    0    0    0  501 0.00000000E+00 0.00000000E+00 -.16051173E+04 0.16051174E+04 0.32000000E+00 0.0000E+00 0.9000E+01
       25  1    1    2    0    0 0.30829292E+03 -.96387864E+02 -.77930498E+03 0.85280501E+03 0.12500000E+03 0.0000E+00 0.9000E+01
       24  1    1    2    0    0 -.30102557E+03 0.11827868E+03 -.67345636E+03 0.75140996E+03 0.80419002E+02 0.0000E+00 0.9000E+01
       21  1    1    2  502  501 -.72673470E+01 -.21890816E+02 -.74891996E+02 0.78367058E+02 0.75000000E+00 0.0000E+00 0.9000E+01
#aMCatNLO 2  0  0  1  1 0.23065605D+02 0.00000000D+00  -5  5  0 0.00000000D+00 0.00000000D+00 0.00000000D+00 0.00000000D+00 0.00000000D+00
  <mgrwgt>
 0.2409412585D+00    2    2    0
 0.340021379778683D+03 0.000000000000000D+00 0.000000000000000D+00 0.340021379778683D+03
 0.340021379778683D+03 0.000000000000000D+00 0.000000000000000D+00 -.340021379778683D+03
 0.346754621120441D+03 0.304588396275047D+03 -.107546687319180D+03 -.165343935372892D+02
 0.333288138436925D+03 -.304588396275047D+03 0.107546687319180D+03 0.165343935372892D+02
 0.000000000000000D+00 -.000000000000000D+00 -.000000000000000D+00 -.000000000000000D+00
 0.348017479288447D+03 0.000000000000000D+00 0.000000000000000D+00 0.348017479288447D+03
 0.357267649566615D+03 0.000000000000000D+00 0.000000000000000D+00 -.357267649566615D+03
 0.346747070508907D+03 0.308292919786984D+03 -.963878641016545D+02 -.165343935372892D+02
 0.333686744761261D+03 -.301025572757091D+03 0.118278679615627D+03 0.165343935372892D+02
 0.248513135848945D+02 -.726734702989301D+01 -.218908155139722D+02 -.925017027816791D+01
-.709449071736D-02 0.000000000000D+00 0.000000000000D+00 0.197890865188D-02 0.000000000000D+00  5 2 -1 25 24 21 2 0.11643584D-01 0.23501688D+00 0.11534105D+06 0.11534105D+06 0.11534105D+06 0.11579203D+01  1  2  8  1  5  1        2 -.561728671667D-01 0.100000000000D+01
0.463072849733D-01 0.000000000000D+00 0.000000000000D+00 0.197890865188D-02 0.265157627058D-04  5 2 -1 25 24 21 2 0.11917400D-01 0.24693720D+00 0.12344510D+06 0.12344510D+06 0.12344510D+06 0.11552611D+01  1  2  1  1  5  1        2 0.297114125688D+00 0.100000000000D+01
  </mgrwgt>
  </event>
  <event>
  4     66 0.48098993E-03 0.10878810E+03 0.75467711E-02 0.10334735E+00
        2 -1    0    0  501    0 0.00000000E+00 0.00000000E+00 0.13479366E+03 0.13479404E+03 0.32000000E+00 0.0000E+00 0.9000E+01
       -1 -1    0    0    0  501 0.00000000E+00 0.00000000E+00 -.87827400E+02 0.87827983E+02 0.32000000E+00 0.0000E+00 0.9000E+01
       25  1    1    2    0    0 -.12660423E+02 0.32731451E+02 0.29989670E+02 0.13325170E+03 0.12500000E+03 0.0000E+00 0.9000E+01
       24  1    1    2    0    0 0.12660423E+02 -.32731451E+02 0.16976586E+02 0.89370323E+02 0.80419002E+02 0.0000E+00 0.9000E+01
#aMCatNLO 1  0  0  1  1 0.40378269D+03 0.00000000D+00  -5  5  0 0.00000000D+00 0.00000000D+00 0.00000000D+00 0.00000000D+00 0.00000000D+00
  <mgrwgt>
 0.3922121320D+00    3    2    0
 0.108805714757974D+03 0.000000000000000D+00 0.000000000000000D+00 0.108805714757974D+03
 0.108805714757974D+03 0.000000000000000D+00 0.000000000000000D+00 -.108805714757974D+03
 0.129847311851472D+03 -.126604232188881D+02 0.327314513604671D+02 0.192098173062588D+01
 0.877641176644756D+02 0.126604232188881D+02 -.327314513604671D+02 -.192098173062588D+01
 0.000000000000000D+00 0.000000000000000D+00 -.000000000000000D+00 -.000000000000000D+00
 0.351433115131154D+03 0.000000000000000D+00 0.000000000000000D+00 0.351433115131154D+03
 0.563200483325822D+03 0.000000000000000D+00 0.000000000000000D+00 -.563200483325822D+03
 0.330901973459674D+03 -.222421488457056D+03 0.210703837984135D+03 0.192098173062588D+01
 0.127786586016913D+03 -.854713518233926D+02 0.505287389330064D+02 -.192098173062588D+01
 0.455945038980389D+03 0.307892840280449D+03 -.261232576917142D+03 -.211767368194668D+03
0.360886770478D-03 0.000000000000D+00 0.000000000000D+00 0.304428396462D-02 0.000000000000D+00  5 2 -1 25 24 21 0 0.20737560D-01 0.13511982D-01 0.11834850D+05 0.11834850D+05 0.11834850D+05 0.12597301D+01  1  2  2  1  5  1        2 0.383931520672D+00 0.100000000000D+01
-.200492643873D-04 0.000000000000D+00 -.138590022231D-05 0.304428396462D-02 0.000000000000D+00  5 2 -1 25 24 21 2 0.20737560D-01 0.13511982D-01 0.11834850D+05 0.11834850D+05 0.11834850D+05 0.12597301D+01  1  2  3  1  5  1        2 -.338482521981D-01 0.100000000000D+01
0.249541015409D-04 0.000000000000D+00 0.000000000000D+00 0.304428396462D-02 0.000000000000D+00  5 2 -1 25 24 21 2 0.20737560D-01 0.13511982D-01 0.11834850D+05 0.11834850D+05 0.11834850D+05 0.12597301D+01  1  2 15  1  5  1        2 0.421288634843D-01 0.100000000000D+01
  </mgrwgt>
  </event>
  <event>
  4     66 0.48098993E-03 0.10522700E+03 0.75467711E-02 0.11289138E+00
        2 -1    0    0  501    0 0.00000000E+00 0.00000000E+00 0.38084579E+03 0.38084593E+03 0.32000000E+00 0.0000E+00 0.9000E+01
       -1 -1    0    0    0  501 0.00000000E+00 0.00000000E+00 -.34443869E+02 0.34445355E+02 0.32000000E+00 0.0000E+00 0.9000E+01
       25  1    1    2    0    0 0.52756826E+01 0.21729194E+02 0.28392907E+03 0.31103168E+03 0.12500000E+03 0.0000E+00 0.9000E+01
       24  1    1    2    0    0 -.52756826E+01 -.21729194E+02 0.62472855E+02 0.10425960E+03 0.80419002E+02 0.0000E+00 0.9000E+01
#aMCatNLO 1  0  0  2  1 0.17836372D+03 0.00000000D+00  -5  5  0 0.00000000D+00 0.00000000D+00 0.00000000D+00 0.00000000D+00 0.00000000D+00
  <mgrwgt>
 0.4520905509D+00    3    2    0
 0.114534444479503D+03 0.000000000000000D+00 0.000000000000000D+00 0.114534444479503D+03
 0.114534444479503D+03 0.000000000000000D+00 0.000000000000000D+00 -.114534444479503D+03
 0.134523592912638D+03 0.527568258579295D+01 0.217291940546889D+02 0.444027741150559D+02
 0.945452960463691D+02 -.527568258579295D+01 -.217291940546889D+02 -.444027741150559D+02
 0.000000000000000D+00 0.000000000000000D+00 -.000000000000000D+00 0.000000000000000D+00
 0.374311042226200D+03 0.000000000000000D+00 0.000000000000000D+00 0.374311042226200D+03
 0.179868597040863D+03 0.000000000000000D+00 0.000000000000000D+00 -.179868597040863D+03
 0.183043698352991D+03 -.496400533040810D+02 0.115949360781317D+03 0.444027741150559D+02
 0.107277112064194D+03 -.401760843755588D+02 0.381502124974207D+02 -.444027741150559D+02
 0.263858828849879D+03 0.898161376796399D+02 -.154099573278737D+03 0.194442445185336D+03
0.310092473321D-03 0.000000000000D+00 0.000000000000D+00 0.252691254184D-02 0.000000000000D+00  5 2 -1 25 24 21 0 0.58591785D-01 0.52991814D-02 0.11072723D+05 0.11072723D+05 0.11072723D+05 0.12631382D+01  1  2  2  2  5  2       -1 0.442470292219D+00 0.100000000000D+01
-.170768939631D-04 0.000000000000D+00 -.119083674678D-05 0.252691254184D-02 0.000000000000D+00  5 2 -1 25 24 21 2 0.58591785D-01 0.52991814D-02 0.11072723D+05 0.11072723D+05 0.11072723D+05 0.12631382D+01  1  2  3  2  5  2       -1 -.388779645575D-01 0.100000000000D+01
0.213025302239D-04 0.000000000000D+00 0.000000000000D+00 0.252691254184D-02 0.000000000000D+00  5 2 -1 25 24 21 2 0.58591785D-01 0.52991814D-02 0.11072723D+05 0.11072723D+05 0.11072723D+05 0.12631382D+01  1  2 15  2  5  2       -1 0.484982232026D-01 0.100000000000D+01
  </mgrwgt>
  </event>
  <event>
  4     66 0.48098993E-03 0.74884570E+02 0.75467711E-02 0.11809946E+00
        2 -1    0    0  501    0 0.00000000E+00 0.00000000E+00 0.10836071E+04 0.10836072E+04 0.32000000E+00 0.0000E+00 0.9000E+01
       -1 -1    0    0    0  501 0.00000000E+00 0.00000000E+00 -.18972214E+02 0.18974912E+02 0.32000000E+00 0.0000E+00 0.9000E+01
       25  1    1    2    0    0 -.47171243E+02 0.84461884E+02 0.66942856E+03 0.68783612E+03 0.12500000E+03 0.0000E+00 0.9000E+01
       24  1    1    2    0    0 0.47171243E+02 -.84461884E+02 0.39520636E+03 0.41474597E+03 0.80419002E+02 0.0000E+00 0.9000E+01
#aMCatNLO 1  0  0  2  1 0.46370440D+02 0.00000000D+00  -5  5  0 0.00000000D+00 0.00000000D+00 0.00000000D+00 0.00000000D+00 0.00000000D+00
  <mgrwgt>
 0.3127626444D+00    7    2    0
 0.143387375922922D+03 0.000000000000000D+00 0.000000000000000D+00 0.143387375922922D+03
 0.143387375922922D+03 0.000000000000000D+00 0.000000000000000D+00 -.143387375922922D+03
 0.159354234906645D+03 -.471712431631210D+02 0.844618836713149D+02 0.202444117677273D+02
 0.127420516939200D+03 0.471712431631210D+02 -.844618836713149D+02 -.202444117677273D+02
 0.000000000000000D+00 -.000000000000000D+00 0.000000000000000D+00 -.000000000000000D+00
 0.148322722010415D+03 0.000000000000000D+00 0.000000000000000D+00 0.148322722010415D+03
 0.320180388900472D+03 0.000000000000000D+00 0.000000000000000D+00 -.320180388900472D+03
 0.146090591644139D+03 -.396833989984639D+02 0.610970752413077D+02 0.202444117677273D+02
 0.144408936770205D+03 0.538350214032853D+02 -.105255305459710D+03 -.202444117677273D+02
 0.178003582496544D+03 -.141516224048214D+02 0.441582302184026D+02 -.171857666890057D+03
0.351942334482D-03 0.000000000000D+00 0.000000000000D+00 0.242266171977D-02 0.000000000000D+00  5 2 -1 25 24 21 0 0.16670900D+00 0.29190133D-02 0.20144850D+05 0.20144850D+05 0.20144850D+05 0.12334812D+01  1  2  2  2  5  2       -1 0.356164406411D+00 0.100000000000D+01
-.195498796070D-04 0.000000000000D+00 -.135155123295D-05 0.242266171977D-02 0.000000000000D+00  5 2 -1 25 24 21 2 0.16670900D+00 0.29190133D-02 0.20144850D+05 0.20144850D+05 0.20144850D+05 0.12334812D+01  1  2  3  2  5  2       -1 -.301014998911D-01 0.100000000000D+01
0.243292329945D-04 0.000000000000D+00 0.000000000000D+00 0.242266171977D-02 0.000000000000D+00  5 2 -1 25 24 21 2 0.16670900D+00 0.29190133D-02 0.20144850D+05 0.20144850D+05 0.20144850D+05 0.12334812D+01  1  2 15  2  5  2       -1 0.374604048238D-01 0.100000000000D+01
0.123515634013D-02 0.000000000000D+00 0.000000000000D+00 0.242266171977D-02 0.000000000000D+00  5 2 -1 25 24 21 2 0.16670900D+00 0.65036112D-02 0.27894751D+05 0.27894751D+05 0.27894751D+05 0.12182289D+01  1  2 12  2  5  2       -1 0.570982733388D+00 0.100000000000D+01
-.132730844217D-02 0.000000000000D+00 -.102056131141D-03 0.242266171977D-02 0.000000000000D+00  5 2 -1 25 24 21 2 0.16670900D+00 0.67262485D-02 0.20144850D+05 0.20144850D+05 0.20144850D+05 0.12334812D+01  1  2  5  2  5  2       -1 -.596213737209D+00 0.100000000000D+01
0.107356681988D-03 0.000000000000D+00 0.000000000000D+00 0.242266171977D-02 0.000000000000D+00  5 2 21 25 24 1 2 0.16670900D+00 0.65036112D-02 0.27894751D+05 0.27894751D+05 0.27894751D+05 0.12182289D+01  1  2 12  4  5  2       -1 0.816869738072D+00 0.100000000000D+01
-.114153564059D-03 0.000000000000D+00 -.927357077190D-05 0.242266171977D-02 0.000000000000D+00  5 2 21 25 24 1 2 0.16670900D+00 0.67262485D-02 0.20144850D+05 0.20144850D+05 0.20144850D+05 0.12334812D+01  1  2  5  4  5  2       -1 -.842399401204D+00 0.100000000000D+01
  </mgrwgt>
  </event>
  <event>
  4     66 0.48098993E-03 0.11366201E+03 0.75467711E-02 0.11370887E+00
        2 -1    0    0  501    0 0.00000000E+00 0.00000000E+00 0.54510318E+03 0.54510327E+03 0.32000000E+00 0.0000E+00 0.9000E+01
       -1 -1    0    0    0  501 0.00000000E+00 0.00000000E+00 -.68750335E+02 0.68751080E+02 0.32000000E+00 0.0000E+00 0.9000E+01
       25  1    1    2    0    0 0.10202533E+03 0.11815133E+03 0.32711090E+03 0.38339985E+03 0.12500000E+03 0.0000E+00 0.9000E+01
       24  1    1    2    0    0 -.10202533E+03 -.11815133E+03 0.14924194E+03 0.23045450E+03 0.80419002E+02 0.0000E+00 0.9000E+01
#aMCatNLO 1  0  0  1  2 0.52281417D+02 0.00000000D+00  -5  5  0 0.00000000D+00 0.00000000D+00 0.00000000D+00 0.00000000D+00 0.00000000D+00
  <mgrwgt>
 0.2349094014D+01    8    2    0
 0.193587922622208D+03 0.000000000000000D+00 0.000000000000000D+00 0.193587922622208D+03
 0.193587922622208D+03 0.000000000000000D+00 0.000000000000000D+00 -.193587922622208D+03
 0.205414311274951D+03 0.102025326199469D+03 0.118151331000510D+03 0.469162559595528D+02
 0.181761533969465D+03 -.102025326199469D+03 -.118151331000510D+03 -.469162559595528D+02
 0.000000000000000D+00 -.000000000000000D+00 0.000000000000000D+00 0.000000000000000D+00
 0.382601221552889D+03 0.000000000000000D+00 0.000000000000000D+00 0.382601221552889D+03
 0.198994079781861D+03 0.000000000000000D+00 0.000000000000000D+00 -.198994079781861D+03
 0.204608906205393D+03 0.120434224415049D+03 0.976435712929971D+02 0.469162559595528D+02
 0.186080845004008D+03 -.855102299190394D+02 -.136549369932511D+03 -.469162559595528D+02
 0.190905550125349D+03 -.349239944960097D+02 0.389057986395143D+02 0.183607141771028D+03
0.968193979213D-03 0.000000000000D+00 0.000000000000D+00 0.206203815347D-02 0.000000000000D+00  5 2 -1 25 24 21 0 0.83862092D-01 0.10577039D-01 0.35266384D+05 0.35266384D+05 0.35266384D+05 0.12075949D+01  1  2  2  1  5  1        2 0.341959727466D+00 0.100000000000D+01
-.537281588109D-04 0.000000000000D+00 -.371811981151D-05 0.206203815347D-02 0.000000000000D+00  5 2 -1 25 24 21 2 0.83862092D-01 0.10577039D-01 0.35266384D+05 0.35266384D+05 0.35266384D+05 0.12075949D+01  1  2  3  1  5  1        2 -.276730526842D-01 0.100000000000D+01
0.668523572275D-04 0.000000000000D+00 0.000000000000D+00 0.206203815347D-02 0.000000000000D+00  5 2 -1 25 24 21 2 0.83862092D-01 0.10577039D-01 0.35266384D+05 0.35266384D+05 0.35266384D+05 0.12075949D+01  1  2 15  1  5  1        2 0.344327601125D-01 0.100000000000D+01
0.447782176667D-02 0.000000000000D+00 0.000000000000D+00 0.206203815347D-02 0.000000000000D+00  5 2 -1 25 24 21 2 0.16579933D+00 0.10577039D-01 0.46549809D+05 0.46549809D+05 0.46549809D+05 0.11953693D+01  1  2 12  1  5  1        2 0.959103154046D+00 0.100000000000D+01
-.465084248466D-02 0.000000000000D+00 -.342164477212D-03 0.206203815347D-02 0.000000000000D+00  5 2 -1 25 24 21 2 0.16730600D+00 0.10577039D-01 0.35266384D+05 0.35266384D+05 0.35266384D+05 0.12075949D+01  1  2  5  1  5  1        2 -.100358482561D+01 0.100000000000D+01
0.397007963579D-02 0.000000000000D+00 0.274141350722D-03 0.206203815347D-02 0.000000000000D+00  5 2 -1 25 24 21 2 0.83862092D-01 0.10577039D-01 0.35266384D+05 0.35266384D+05 0.35266384D+05 0.12075949D+01  1  2  6  1  5  1        2 0.204481644920D+01 0.100000000000D+01
0.330439052194D-03 0.000000000000D+00 0.000000000000D+00 0.206203815347D-02 0.000000000000D+00  5 21 -1 25 24 -2 2 0.16579933D+00 0.10577039D-01 0.46549809D+05 0.46549809D+05 0.46549809D+05 0.11953693D+01  1  2 12  3  5  1        2 0.532993278380D-01 0.100000000000D+01
-.327107016322D-03 0.000000000000D+00 -.255727518220D-04 0.206203815347D-02 0.000000000000D+00  5 21 -1 25 24 -2 2 0.16730600D+00 0.10577039D-01 0.35266384D+05 0.35266384D+05 0.35266384D+05 0.12075949D+01  1  2  5  3  5  1        2 -.532595260658D-01 0.100000000000D+01
  </mgrwgt>
  </event>
  <event>
  4     66 0.48098993E-03 0.69108898E+02 0.75467711E-02 0.12030384E+00
        2 -1    0    0  501    0 0.00000000E+00 0.00000000E+00 0.29382715E+04 0.29382716E+04 0.32000000E+00 0.0000E+00 0.9000E+01
       -1 -1    0    0    0  501 0.00000000E+00 0.00000000E+00 -.55527346E+01 0.55619476E+01 0.32000000E+00 0.0000E+00 0.9000E+01
       25  1    1    2    0    0 -.29547484E+02 0.61757517E+02 0.13231686E+04 0.13308220E+04 0.12500000E+03 0.0000E+00 0.9000E+01
       24  1    1    2    0    0 0.29547484E+02 -.61757517E+02 0.16095502E+04 0.16130115E+04 0.80419002E+02 0.0000E+00 0.9000E+01
#aMCatNLO 1  0  0  2  1 0.44042993D+02 0.00000000D+00  -5  5  0 0.00000000D+00 0.00000000D+00 0.00000000D+00 0.00000000D+00 0.00000000D+00
  <mgrwgt>
 0.4963950637D+00    9    2    0
 0.127785086904502D+03 0.000000000000000D+00 0.000000000000000D+00 0.127785086904502D+03
 0.127785086904502D+03 0.000000000000000D+00 0.000000000000000D+00 -.127785086904502D+03
 0.145701465621827D+03 -.295474838547045D+02 0.617575166231497D+02 -.302799013001351D+02
 0.109868708187177D+03 0.295474838547045D+02 -.617575166231497D+02 0.302799013001351D+02
 0.000000000000000D+00 0.000000000000000D+00 -.000000000000000D+00 -.000000000000000D+00
 0.145283609199703D+03 0.000000000000000D+00 0.000000000000000D+00 0.145283609199703D+03
 0.160725355520426D+03 0.000000000000000D+00 0.000000000000000D+00 -.160725355520426D+03
 0.156567785059532D+03 -.535068220176460D+02 0.714746031347767D+02 -.302799013001351D+02
 0.102769638021485D+03 0.126927292551617D+02 -.549218057423991D+02 0.302799013001351D+02
 0.466715416391116D+02 0.408140927624843D+02 -.165527973923776D+02 -.154417463207226D+02
0.609305229922D-03 0.000000000000D+00 0.000000000000D+00 0.252141077924D-02 0.000000000000D+00  5 2 -1 25 24 21 0 0.45204249D+00 0.85497689D-03 0.15392628D+05 0.15392628D+05 0.15392628D+05 0.12465453D+01  1  2  2  2  5  2       -1 0.372083866877D+00 0.100000000000D+01
-.338144060095D-04 0.000000000000D+00 -.233989251665D-05 0.252141077924D-02 0.000000000000D+00  5 2 -1 25 24 21 2 0.45204249D+00 0.85497689D-03 0.15392628D+05 0.15392628D+05 0.15392628D+05 0.12465453D+01  1  2  3  2  5  2       -1 -.320866091585D-01 0.100000000000D+01
0.422131712901D-04 0.000000000000D+00 0.000000000000D+00 0.252141077924D-02 0.000000000000D+00  5 2 -1 25 24 21 2 0.45204249D+00 0.85497689D-03 0.15392628D+05 0.15392628D+05 0.15392628D+05 0.12465453D+01  1  2 15  2  5  2       -1 0.400562271638D-01 0.100000000000D+01
0.300649435376D-03 0.000000000000D+00 0.000000000000D+00 0.252141077924D-02 0.000000000000D+00  5 2 -1 25 24 21 2 0.45204249D+00 0.11218185D-02 0.21883641D+05 0.21883641D+05 0.21883641D+05 0.12295457D+01  1  2 12  2  5  2       -1 0.188321181515D+00 0.100000000000D+01
-.325805864025D-03 0.000000000000D+00 0.000000000000D+00 0.252141077924D-02 0.000000000000D+00  5 2 -1 25 24 21 2 0.45204249D+00 0.85497689D-03 0.15392628D+05 0.15392628D+05 0.15392628D+05 0.12465453D+01  1  2  4  2  5  2       -1 -.309158333806D+00 0.100000000000D+01
-.522984667589D-03 0.000000000000D+00 -.231075713390D-03 0.252141077924D-02 0.000000000000D+00  5 2 -1 25 24 21 2 0.45204249D+00 0.13066906D-02 0.15392628D+05 0.15392628D+05 0.15392628D+05 0.12465453D+01  1  2  5  2  5  2       -1 -.271302172242D+00 0.100000000000D+01
0.586755303741D-03 0.000000000000D+00 0.211739504754D-03 0.252141077924D-02 0.000000000000D+00  5 2 -1 25 24 21 2 0.45204249D+00 0.85497689D-03 0.15392628D+05 0.15392628D+05 0.15392628D+05 0.12465453D+01  1  2  6  2  5  2       -1 0.556774177774D+00 0.100000000000D+01
0.108134456597D-04 0.000000000000D+00 0.000000000000D+00 0.252141077924D-02 0.000000000000D+00  5 2 21 25 24 1 2 0.45204249D+00 0.11218185D-02 0.21883641D+05 0.21883641D+05 0.21883641D+05 0.12295457D+01  1  2 12  4  5  2       -1 0.154302417011D+00 0.100000000000D+01
-.174695579851D-04 0.000000000000D+00 -.114866248125D-04 0.252141077924D-02 0.000000000000D+00  5 2 21 25 24 1 2 0.45204249D+00 0.13066906D-02 0.15392628D+05 0.15392628D+05 0.15392628D+05 0.12465453D+01  1  2  5  4  5  2       -1 -.202595691427D+00 0.100000000000D+01
  </mgrwgt>
  </event>
  <event>
  4     66 0.48098993E-03 0.45258938E+02 0.75467711E-02 0.12317396E+00
        2 -1    0    0  501    0 0.00000000E+00 0.00000000E+00 0.69337196E+03 0.69337203E+03 0.32000000E+00 0.0000E+00 0.9000E+01
       -1 -1    0    0    0  501 0.00000000E+00 0.00000000E+00 -.20256824E+02 0.20259352E+02 0.32000000E+00 0.0000E+00 0.9000E+01
       25  1    1    2    0    0 0.43363342E+02 0.16988581E+02 0.49590104E+03 0.51352881E+03 0.12500000E+03 0.0000E+00 0.9000E+01
       24  1    1    2    0    0 -.43363342E+02 -.16988581E+02 0.17721410E+03 0.20010258E+03 0.80419002E+02 0.0000E+00 0.9000E+01
#aMCatNLO 1  0  0  1  2 0.26438865D+02 0.00000000D+00  -5  5  0 0.00000000D+00 0.00000000D+00 0.00000000D+00 0.00000000D+00 0.00000000D+00
  <mgrwgt>
 0.5386296039D+00    9    2    0
 0.118517686881268D+03 0.000000000000000D+00 0.000000000000000D+00 0.118517686881268D+03
 0.118517686881268D+03 0.000000000000000D+00 0.000000000000000D+00 -.118517686881268D+03
 0.137835023151093D+03 0.433633422241584D+02 0.169885805596181D+02 0.347059402520997D+02
 0.992003506114417D+02 -.433633422241584D+02 -.169885805596181D+02 -.347059402520997D+02
 0.000000000000000D+00 -.000000000000000D+00 0.000000000000000D+00 0.000000000000000D+00
 0.137529215994854D+03 0.000000000000000D+00 0.000000000000000D+00 0.137529215994854D+03
 0.128814265899029D+03 0.000000000000000D+00 0.000000000000000D+00 -.128814265899029D+03
 0.138509980620712D+03 0.484693068488290D+02 0.249774625646704D+01 0.347059402520997D+02
 0.999953274565253D+02 -.396828483787108D+02 -.274338990035524D+02 -.347059402520997D+02
 0.278381738166460D+02 -.878645847011823D+01 0.249361527470854D+02 0.871495009582431D+01
0.183674155475D-03 0.000000000000D+00 0.000000000000D+00 0.260448007879D-02 0.000000000000D+00  5 2 -1 25 24 21 0 0.10667281D+00 0.31166346D-02 0.12805787D+05 0.12805787D+05 0.12805787D+05 0.12557296D+01  1  2  2  1  5  1        2 0.296138109508D+00 0.100000000000D+01
-.101775970964D-04 0.000000000000D+00 -.705357119540D-06 0.260448007879D-02 0.000000000000D+00  5 2 -1 25 24 21 2 0.10667281D+00 0.31166346D-02 0.12805787D+05 0.12805787D+05 0.12805787D+05 0.12557296D+01  1  2  3  1  5  1        2 -.258752013696D-01 0.100000000000D+01
0.127359885240D-04 0.000000000000D+00 0.000000000000D+00 0.260448007879D-02 0.000000000000D+00  5 2 -1 25 24 21 2 0.10667281D+00 0.31166346D-02 0.12805787D+05 0.12805787D+05 0.12805787D+05 0.12557296D+01  1  2 15  1  5  1        2 0.323795749211D-01 0.100000000000D+01
0.214042547509D-03 0.000000000000D+00 0.000000000000D+00 0.260448007879D-02 0.000000000000D+00  5 2 -1 25 24 21 2 0.12782693D+00 0.31166346D-02 0.16168347D+05 0.16168347D+05 0.16168347D+05 0.12441260D+01  1  2 12  1  5  1        2 0.432493598423D+00 0.100000000000D+01
-.205530316955D-03 0.000000000000D+00 0.000000000000D+00 0.260448007879D-02 0.000000000000D+00  5 2 -1 25 24 21 2 0.10667281D+00 0.31166346D-02 0.12805787D+05 0.12805787D+05 0.12805787D+05 0.12557296D+01  1  2  4  1  5  1        2 -.522533785569D+00 0.100000000000D+01
-.508412305862D-03 0.000000000000D+00 -.136921382449D-03 0.260448007879D-02 0.000000000000D+00  5 2 -1 25 24 21 2 0.13149692D+00 0.31166346D-02 0.12805787D+05 0.12805787D+05 0.12805787D+05 0.12557296D+01  1  2  5  1  5  1        2 -.100185350441D+01 0.100000000000D+01
0.528394911398D-03 0.000000000000D+00 0.133978431434D-03 0.260448007879D-02 0.000000000000D+00  5 2 -1 25 24 21 2 0.10667281D+00 0.31166346D-02 0.12805787D+05 0.12805787D+05 0.12805787D+05 0.12557296D+01  1  2  6  1  5  1        2 0.134337453189D+01 0.100000000000D+01
0.566746362838D-05 0.000000000000D+00 0.000000000000D+00 0.260448007879D-02 0.000000000000D+00  5 21 -1 25 24 -2 2 0.12782693D+00 0.31166346D-02 0.16168347D+05 0.16168347D+05 0.16168347D+05 0.12441260D+01  1  2 12  3  5  1        2 0.124849118713D-01 0.100000000000D+01
-.133551350236D-04 0.000000000000D+00 -.405543081856D-05 0.260448007879D-02 0.000000000000D+00  5 21 -1 25 24 -2 2 0.13149692D+00 0.31166346D-02 0.12805787D+05 0.12805787D+05 0.12805787D+05 0.12557296D+01  1  2  5  3  5  1        2 -.279786313985D-01 0.100000000000D+01
  </mgrwgt>
  </event>
  <event>
  4     66 0.48098993E-03 0.89275459E+02 0.75467711E-02 0.12204974E+00
        2 -1    0    0  501    0 0.00000000E+00 0.00000000E+00 0.23814559E+04 0.23814559E+04 0.32000000E+00 0.0000E+00 0.9000E+01
       -1 -1    0    0    0  501 0.00000000E+00 0.00000000E+00 -.73054219E+01 0.73124271E+01 0.32000000E+00 0.0000E+00 0.9000E+01
       25  1    1    2    0    0 -.13935100E+02 0.79379730E+02 0.14597256E+04 0.14672829E+04 0.12500000E+03 0.0000E+00 0.9000E+01
       24  1    1    2    0    0 0.13935100E+02 -.79379730E+02 0.91442488E+03 0.92148543E+03 0.80419002E+02 0.0000E+00 0.9000E+01
#aMCatNLO 1  0  0  2  1 0.69294690D+01 0.00000000D+00  -5  5  0 0.00000000D+00 0.00000000D+00 0.00000000D+00 0.00000000D+00 0.00000000D+00
  <mgrwgt>
 0.7040258513D+00    8    2    0
 0.131931545218221D+03 0.000000000000000D+00 0.000000000000000D+00 0.131931545218221D+03
 0.131931545218221D+03 0.000000000000000D+00 0.000000000000000D+00 -.131931545218221D+03
 0.149284832543254D+03 -.139350997146265D+02 0.793797304338470D+02 0.128698337075734D+02
 0.114578257893188D+03 0.139350997146265D+02 -.793797304338470D+02 -.128698337075734D+02
 0.000000000000000D+00 -.000000000000000D+00 0.000000000000000D+00 0.000000000000000D+00
 0.136145367771333D+03 0.000000000000000D+00 0.000000000000000D+00 0.136145367771333D+03
 0.134856930972914D+03 0.000000000000000D+00 0.000000000000000D+00 -.134856930972914D+03
 0.147791914083562D+03 -.108163079504616D+02 0.770378136446196D+02 0.128698337075734D+02
 0.116162150167691D+03 0.163574747153340D+02 -.811987042906928D+02 -.128698337075734D+02
 0.704823449299359D+01 -.554116676487241D+01 0.416089064607319D+01 0.128843679841844D+01
0.416435444749D-03 0.000000000000D+00 0.000000000000D+00 0.257303986218D-02 0.000000000000D+00  5 2 -1 25 24 21 0 0.36637837D+00 0.11244516D-02 0.17237355D+05 0.17237355D+05 0.17237355D+05 0.12409974D+01  1  2  2  2  5  2       -1 0.346749855891D+00 0.100000000000D+01
-.231346364075D-04 0.000000000000D+00 -.159922175781D-05 0.257303986218D-02 0.000000000000D+00  5 2 -1 25 24 21 2 0.36637837D+00 0.11244516D-02 0.17237355D+05 0.17237355D+05 0.17237355D+05 0.12409974D+01  1  2  3  2  5  2       -1 -.296669594409D-01 0.100000000000D+01
0.288242722913D-04 0.000000000000D+00 0.000000000000D+00 0.257303986218D-02 0.000000000000D+00  5 2 -1 25 24 21 2 0.36637837D+00 0.11244516D-02 0.17237355D+05 0.17237355D+05 0.17237355D+05 0.12409974D+01  1  2 15  2  5  2       -1 0.369631275770D-01 0.100000000000D+01
0.481177340679D-03 0.000000000000D+00 0.000000000000D+00 0.257303986218D-02 0.000000000000D+00  5 2 -1 25 24 21 2 0.36637837D+00 0.11668675D-02 0.18171980D+05 0.18171980D+05 0.18171980D+05 0.12384354D+01  1  2 12  2  5  2       -1 0.583139906955D+00 0.100000000000D+01
-.340620417336D-03 0.000000000000D+00 0.000000000000D+00 0.257303986218D-02 0.000000000000D+00  5 2 -1 25 24 21 2 0.36637837D+00 0.11244516D-02 0.17237355D+05 0.17237355D+05 0.17237355D+05 0.12409974D+01  1  2  4  2  5  2       -1 -.436798397340D+00 0.100000000000D+01
0.299781577408D-04 0.000000000000D+00 0.000000000000D+00 0.257303986218D-02 0.438583129970D-03  5 2 -1 25 24 21 2 0.37808030D+00 0.11493846D-02 0.18171980D+05 0.18171980D+05 0.18171980D+05 0.12384354D+01  1  2 11  2  5  2       -1 0.338396392433D-01 0.100000000000D+01
0.586352371105D-05 0.000000000000D+00 0.000000000000D+00 0.257303986218D-02 0.000000000000D+00  5 2 21 25 24 1 2 0.36637837D+00 0.11668675D-02 0.18171980D+05 0.18171980D+05 0.18171980D+05 0.12384354D+01  1  2 12  4  5  2       -1 0.161339246891D+00 0.100000000000D+01
0.329293178085D-06 0.000000000000D+00 0.000000000000D+00 0.257303986218D-02 0.177335119009D-05  5 2 21 25 24 1 2 0.37808030D+00 0.11493846D-02 0.18171980D+05 0.18171980D+05 0.18171980D+05 0.12384354D+01  1  2 11  4  5  2       -1 0.845943149650D-02 0.100000000000D+01
  </mgrwgt>
  </event>
  <event>
  4     66 0.48098993E-03 0.12769136E+03 0.75467711E-02 0.10253527E+00
        2 -1    0    0  501    0 0.00000000E+00 0.00000000E+00 0.30972263E+03 0.30972280E+03 0.32000000E+00 0.0000E+00 0.9000E+01
       -1 -1    0    0    0  501 0.00000000E+00 0.00000000E+00 -.85749276E+02 0.85749873E+02 0.32000000E+00 0.0000E+00 0.9000E+01
       25  1    1    2    0    0 0.70048510E+02 -.25954783E+02 -.47677315E+00 0.14562167E+03 0.12500000E+03 0.0000E+00 0.9000E+01
       24  1    1    2    0    0 -.70048510E+02 0.25954783E+02 0.22445013E+03 0.24985100E+03 0.80419002E+02 0.0000E+00 0.9000E+01
#aMCatNLO 1  0  0  2  2 0.42216875D+03 0.00000000D+00  -5  5  0 0.00000000D+00 0.00000000D+00 0.00000000D+00 0.00000000D+00 0.00000000D+00
  <mgrwgt>
 0.3362193247D+00    5    2    0
 0.162968225218763D+03 0.000000000000000D+00 0.000000000000000D+00 0.162968225218763D+03
 0.162968225218763D+03 0.000000000000000D+00 0.000000000000000D+00 -.162968225218763D+03
 0.177016644831446D+03 0.700485095633867D+02 -.259547826308715D+02 -.100645159416211D+03
 0.148919805606080D+03 -.700485095633867D+02 0.259547826308715D+02 0.100645159416211D+03
 0.000000000000000D+00 -.000000000000000D+00 -.000000000000000D+00 -.000000000000000D+00
 0.393044907994464D+03 0.000000000000000D+00 0.000000000000000D+00 0.393044907994464D+03
 0.619261663317909D+03 0.000000000000000D+00 0.000000000000000D+00 -.619261663317909D+03
 0.269367960866075D+03 0.101417243570020D+03 0.191099955347697D+03 -.100645159416211D+03
 0.263980914987341D+03 -.410327847598772D+02 0.226727964715688D+03 0.100645159416211D+03
 0.478957695458957D+03 -.603844588101430D+02 -.417827920063385D+03 -.226216755323445D+03
0.637262269759D-03 0.000000000000D+00 0.000000000000D+00 0.149923470845D-02 0.000000000000D+00  5 2 -1 25 24 21 0 0.47649695D-01 0.13192255D-01 0.16305084D+05 0.16305084D+05 0.16305084D+05 0.12437131D+01  1  2  2  2  5  2       -1 0.289946445544D+00 0.100000000000D+01
-.328419846790D-04 0.000000000000D+00 -.244725491088D-05 0.149923470845D-02 0.000000000000D+00  5 2 -1 25 24 21 2 0.47649695D-01 0.13192255D-01 0.16305084D+05 0.16305084D+05 0.16305084D+05 0.12437131D+01  1  2  3  2  5  2       -1 -.231136962069D-01 0.100000000000D+01
0.436392989510D-04 0.000000000000D+00 0.000000000000D+00 0.149923470845D-02 0.000000000000D+00  5 2 -1 25 24 21 2 0.47649695D-01 0.13192255D-01 0.16305084D+05 0.16305084D+05 0.16305084D+05 0.12437131D+01  1  2 15  2  5  2       -1 0.307126840382D-01 0.100000000000D+01
0.882940652664D-03 0.000000000000D+00 -.363819580911D-03 0.149923470845D-02 0.000000000000D+00  5 2 -1 25 24 21 2 0.47649695D-01 0.11017538D+00 0.16305084D+05 0.16305084D+05 0.16305084D+05 0.12437131D+01  1  2  5  2  5  2       -1 0.138555277427D-01 0.100000000000D+01
0.180345145797D-03 0.000000000000D+00 -.934398545672D-04 0.149923470845D-02 0.000000000000D+00  5 2 21 25 24 1 2 0.47649695D-01 0.11017538D+00 0.16305084D+05 0.16305084D+05 0.16305084D+05 0.12437131D+01  1  2  5  4  5  2       -1 0.248183636318D-01 0.100000000000D+01
  </mgrwgt>
  </event>
  <event>
  5     66 0.48098993E-03 0.14320213E+03 0.75467711E-02 0.11741302E+00
       21 -1    0    0  501  502 0.00000000E+00 0.00000000E+00 0.47150164E+03 0.47150223E+03 0.75000000E+00 0.0000E+00 0.9000E+01
       -3 -1    0    0    0  501 0.00000000E+00 0.00000000E+00 -.70577130E+02 0.70578901E+02 0.50000000E+00 0.0000E+00 0.9000E+01
       25  1    1    2    0    0 0.49624901E+02 0.88390030E+02 0.13003821E+03 0.20690666E+03 0.12500000E+03 0.0000E+00 0.9000E+01
       24  1    1    2    0    0 -.90038095E+02 -.50382166E+02 0.23538151E+03 0.26928961E+03 0.80419002E+02 0.0000E+00 0.9000E+01
       -4  1    1    2    0  502 0.40413194E+02 -.38007864E+02 0.35504786E+02 0.65884872E+02 0.15500000E+01 0.0000E+00 0.9000E+01
#aMCatNLO 2  0  0  1  2 0.55478140D+02 0.00000000D+00  -5  5  0 0.00000000D+00 0.00000000D+00 0.00000000D+00 0.00000000D+00 0.00000000D+00
  <mgrwgt>
 0.1601164140D-01    1    2    0
 0.150127849490945D+03 0.000000000000000D+00 0.000000000000000D+00 0.150127849490945D+03
 0.150127849490945D+03 0.000000000000000D+00 0.000000000000000D+00 -.150127849490945D+03
 0.165377824889716D+03 0.718095071171638D+02 0.675258168344559D+02 -.448161099793714D+02
 0.134877874092173D+03 -.718095071171638D+02 -.675258168344559D+02 0.448161099793714D+02
 0.000000000000000D+00 0.000000000000000D+00 -.000000000000000D+00 -.000000000000000D+00
 0.171051512515766D+03 0.000000000000000D+00 0.000000000000000D+00 0.171051512515766D+03
 0.194527082280678D+03 0.000000000000000D+00 0.000000000000000D+00 -.194527082280678D+03
 0.167059605925993D+03 0.496249005433906D+02 0.883900303457546D+02 -.448161099793714D+02
 0.138278417889331D+03 -.900380948423521D+02 -.503821661213803D+02 0.448161099793714D+02
 0.602405709811199D+02 0.404131942989615D+02 -.380078642243743D+02 -.234755697649122D+02
0.200428218348D-04 0.000000000000D+00 0.000000000000D+00 0.221215979951D-02 0.152589857595D-06  5 21 -3 25 24 -4 2 0.72534838D-01 0.10857595D-01 0.30141952D+05 0.30141952D+05 0.30141952D+05 0.12146833D+01  1  2  1  3  5  1        4 0.160116414043D-01 0.100000000000D+01
  </mgrwgt>
  </event>
  <event>
  4     66 0.48098993E-03 0.26387863E+03 0.75467711E-02 0.10544719E+00
        2 -1    0    0  501    0 0.00000000E+00 0.00000000E+00 0.14649569E+04 0.14649569E+04 0.32000000E+00 0.0000E+00 0.9000E+01
       -1 -1    0    0    0  501 0.00000000E+00 0.00000000E+00 -.47548094E+02 0.47549171E+02 0.32000000E+00 0.0000E+00 0.9000E+01
       25  1    1    2    0    0 0.24005799E+03 0.32144359E+02 0.74626451E+03 0.79447896E+03 0.12500000E+03 0.0000E+00 0.9000E+01
       24  1    1    2    0    0 -.24005799E+03 -.32144359E+02 0.67114425E+03 0.71802710E+03 0.80419002E+02 0.0000E+00 0.9000E+01
#aMCatNLO 1  0  0  1  2 0.18268303D+03 0.00000000D+00  -5  5  0 0.00000000D+00 0.00000000D+00 0.00000000D+00 0.00000000D+00 0.00000000D+00
  <mgrwgt>
 0.6143392268D+00    6    2    0
 0.263925648431180D+03 0.000000000000000D+00 0.000000000000000D+00 0.263925648431180D+03
 0.263925648431180D+03 0.000000000000000D+00 0.000000000000000D+00 -.263925648431180D+03
 0.272600235478768D+03 0.240057989647639D+03 0.321443589748182D+02 0.497897333913370D+01
 0.255251061383592D+03 -.240057989647639D+03 -.321443589748182D+02 -.497897333913370D+01
 0.000000000000000D+00 0.000000000000000D+00 0.000000000000000D+00 0.000000000000000D+00
 0.404115649098371D+03 0.000000000000000D+00 0.000000000000000D+00 0.404115649098371D+03
 0.346121483057956D+03 0.000000000000000D+00 0.000000000000000D+00 -.346121483057956D+03
 0.205336485789158D+03 0.162434264787716D+03 0.113310124703648D+02 0.497897333913370D+01
 0.353233189615858D+03 -.338884491105556D+03 -.586428325069551D+02 -.497897333913370D+01
 0.191667456751309D+03 0.176450226317840D+03 0.473118200365903D+02 0.579941660404150D+02
0.221096307885D-02 0.000000000000D+00 0.000000000000D+00 0.204325277590D-02 0.000000000000D+00  5 2 -1 25 24 21 0 0.22537806D+00 0.73151770D-02 0.69631931D+05 0.69631931D+05 0.69631931D+05 0.11782939D+01  1  2  2  1  5  1        2 0.354406931948D+00 0.100000000000D+01
-.122831277417D-03 0.000000000000D+00 -.849068038273D-05 0.204325277590D-02 0.000000000000D+00  5 2 -1 25 24 21 2 0.22537806D+00 0.73151770D-02 0.69631931D+05 0.69631931D+05 0.69631931D+05 0.11782939D+01  1  2  3  1  5  1        2 -.273361264165D-01 0.100000000000D+01
0.152105797874D-03 0.000000000000D+00 0.000000000000D+00 0.204325277590D-02 0.000000000000D+00  5 2 -1 25 24 21 2 0.22537806D+00 0.73151770D-02 0.69631931D+05 0.69631931D+05 0.69631931D+05 0.11782939D+01  1  2 15  1  5  1        2 0.338511770519D-01 0.100000000000D+01
-.119981373066D-02 0.000000000000D+00 -.723282675714D-03 0.204325277590D-02 0.000000000000D+00  5 2 -1 25 24 21 2 0.38911791D+00 0.73151770D-02 0.69631931D+05 0.69631931D+05 0.69631931D+05 0.11782939D+01  1  2  5  1  5  1        2 -.725369186924D-01 0.100000000000D+01
0.146653083633D-02 0.000000000000D+00 0.627382708088D-03 0.204325277590D-02 0.000000000000D+00  5 2 -1 25 24 21 2 0.22537806D+00 0.73151770D-02 0.69631931D+05 0.69631931D+05 0.69631931D+05 0.11782939D+01  1  2  6  1  5  1        2 0.326376743598D+00 0.100000000000D+01
-.368121046346D-04 0.000000000000D+00 -.438035662201D-04 0.204325277590D-02 0.000000000000D+00  5 21 -1 25 24 -2 2 0.38911791D+00 0.73151770D-02 0.69631931D+05 0.69631931D+05 0.69631931D+05 0.11782939D+01  1  2  5  3  5  1        2 -.422580730965D-03 0.100000000000D+01
  </mgrwgt>
  </event>
  <event>
  4     66 0.48098993E-03 0.28236912E+03 0.75467711E-02 0.10839971E+00
        2 -1    0    0  501    0 0.00000000E+00 0.00000000E+00 0.13349966E+04 0.13349966E+04 0.32000000E+00 0.0000E+00 0.9000E+01
       -1 -1    0    0    0  501 0.00000000E+00 0.00000000E+00 -.60753785E+02 0.60754628E+02 0.32000000E+00 0.0000E+00 0.9000E+01
       25  1    1    2    0    0 -.69358696E+02 -.25286621E+03 0.56429679E+03 0.63467143E+03 0.12500000E+03 0.0000E+00 0.9000E+01
       24  1    1    2    0    0 0.69358696E+02 0.25286621E+03 0.70994603E+03 0.76107984E+03 0.80419002E+02 0.0000E+00 0.9000E+01
#aMCatNLO 1  0  0  1  2 0.38919956D+02 0.00000000D+00  -5  5  0 0.00000000D+00 0.00000000D+00 0.00000000D+00 0.00000000D+00 0.00000000D+00
  <mgrwgt>
 0.5438014317D+00    3    2    0
 0.284792400356125D+03 0.000000000000000D+00 0.000000000000000D+00 0.284792400356125D+03
 0.284792400356125D+03 0.000000000000000D+00 0.000000000000000D+00 -.284792400356125D+03
 0.292831400022354D+03 -.693586957428539D+02 -.252866213038445D+03 -.370577720255485D+02
 0.276753400689896D+03 0.693586957428539D+02 0.252866213038445D+03 0.370577720255485D+02
 0.000000000000000D+00 0.000000000000000D+00 -.000000000000000D+00 -.000000000000000D+00
 0.286735474152510D+03 0.000000000000000D+00 0.000000000000000D+00 0.286735474152510D+03
 0.581541315795271D+03 0.000000000000000D+00 0.000000000000000D+00 -.581541315795271D+03
 0.286852079450761D+03 -.851223508261924D+02 -.240914969247556D+03 -.370577720255485D+02
 0.284060880780137D+03 0.541081612495486D+02 0.264428433520135D+03 0.370577720255485D+02
 0.297363829716882D+03 0.310141895766439D+02 -.235134642725786D+02 -.294805841642761D+03
0.413083210534D-02 0.000000000000D+00 0.000000000000D+00 0.198876470478D-02 0.000000000000D+00  5 2 -1 25 24 21 0 0.20538416D+00 0.93468039D-02 0.79732319D+05 0.79732319D+05 0.79732319D+05 0.11727174D+01  1  2  2  1  5  1        2 0.534316376183D+00 0.100000000000D+01
-.229470297111D-03 0.000000000000D+00 -.158634829576D-04 0.198876470478D-02 0.000000000000D+00  5 2 -1 25 24 21 2 0.20538416D+00 0.93468039D-02 0.79732319D+05 0.79732319D+05 0.79732319D+05 0.11727174D+01  1  2  3  1  5  1        2 -.408201073869D-01 0.100000000000D+01
0.282790551310D-03 0.000000000000D+00 0.000000000000D+00 0.198876470478D-02 0.000000000000D+00  5 2 -1 25 24 21 2 0.20538416D+00 0.93468039D-02 0.79732319D+05 0.79732319D+05 0.79732319D+05 0.11727174D+01  1  2 15  1  5  1        2 0.503051628809D-01 0.100000000000D+01
  </mgrwgt>
  </event>
  <event>
  4     66 0.48098993E-03 0.84164293E+02 0.75467711E-02 0.11037307E+00
        2 -1    0    0  501    0 0.00000000E+00 0.00000000E+00 0.34202695E+03 0.34202710E+03 0.32000000E+00 0.0000E+00 0.9000E+01
       -1 -1    0    0    0  501 0.00000000E+00 0.00000000E+00 -.10823114E+03 0.10823161E+03 0.32000000E+00 0.0000E+00 0.9000E+01
       25  1    1    2    0    0 0.94167107E+01 0.15830996E+03 0.16043626E+03 0.25790601E+03 0.12500000E+03 0.0000E+00 0.9000E+01
       24  1    1    2    0    0 -.94167107E+01 -.15830996E+03 0.73359557E+02 0.19235270E+03 0.80419002E+02 0.0000E+00 0.9000E+01
#aMCatNLO 1  0  0  2  1 0.13012796D+03 0.00000000D+00  -5  5  0 0.00000000D+00 0.00000000D+00 0.00000000D+00 0.00000000D+00 0.00000000D+00
  <mgrwgt>
 0.3016702456D+00    7    2    0
 0.192400897407953D+03 0.000000000000000D+00 0.000000000000000D+00 0.192400897407953D+03
 0.192400897407953D+03 0.000000000000000D+00 0.000000000000000D+00 -.192400897407953D+03
 0.204300249449711D+03 0.941671074181536D+01 0.158309962822054D+03 0.310301974743808D+02
 0.180501545366196D+03 -.941671074181536D+01 -.158309962822054D+03 -.310301974743808D+02
 0.000000000000000D+00 0.000000000000000D+00 -.000000000000000D+00 -.000000000000000D+00
 0.239054329281539D+03 0.000000000000000D+00 0.000000000000000D+00 0.239054329281539D+03
 0.320860749182439D+03 0.000000000000000D+00 0.000000000000000D+00 -.320860749182439D+03
 0.222847529222280D+03 -.595382008229114D+02 0.171838152829767D+03 0.310301974743808D+02
 0.183361415262440D+03 -.681554881032074D+02 -.146786065206439D+03 -.310301974743808D+02
 0.153706133979258D+03 0.127693688926119D+03 -.250520876233278D+02 -.818064199009003D+02
0.120966498624D-02 0.000000000000D+00 0.000000000000D+00 0.213369269809D-02 0.000000000000D+00  5 2 -1 25 24 21 0 0.52619579D-01 0.16650992D-01 0.36051436D+05 0.36051436D+05 0.36051436D+05 0.12066111D+01  1  2  2  2  5  2       -1 0.349428829832D+00 0.100000000000D+01
-.671893079656D-04 0.000000000000D+00 -.464543205927D-05 0.213369269809D-02 0.000000000000D+00  5 2 -1 25 24 21 2 0.52619579D-01 0.16650992D-01 0.36051436D+05 0.36051436D+05 0.36051436D+05 0.12066111D+01  1  2  3  2  5  2       -1 -.282571550975D-01 0.100000000000D+01
0.835671641413D-04 0.000000000000D+00 0.000000000000D+00 0.213369269809D-02 0.000000000000D+00  5 2 -1 25 24 21 2 0.52619579D-01 0.16650992D-01 0.36051436D+05 0.36051436D+05 0.36051436D+05 0.12066111D+01  1  2 15  2  5  2       -1 0.351450311024D-01 0.100000000000D+01
0.130238337053D-03 0.000000000000D+00 0.000000000000D+00 0.213369269809D-02 0.000000000000D+00  5 2 -1 25 24 21 2 0.52619579D-01 0.28684003D-01 0.70628711D+05 0.70628711D+05 0.70628711D+05 0.11777049D+01  1  2 12  2  5  2       -1 0.215216952870D-01 0.100000000000D+01
-.507241141190D-03 0.000000000000D+00 -.355028999597D-03 0.213369269809D-02 0.000000000000D+00  5 2 -1 25 24 21 2 0.52619579D-01 0.33936534D-01 0.36051436D+05 0.36051436D+05 0.36051436D+05 0.12066111D+01  1  2  5  2  5  2       -1 -.658515052697D-01 0.100000000000D+01
0.786074800750D-05 0.000000000000D+00 0.000000000000D+00 0.213369269809D-02 0.000000000000D+00  5 2 21 25 24 1 2 0.52619579D-01 0.28684003D-01 0.70628711D+05 0.70628711D+05 0.70628711D+05 0.11777049D+01  1  2 12  4  5  2       -1 0.147487368593D-01 0.100000000000D+01
-.174555232784D-04 0.000000000000D+00 -.273370865109D-04 0.213369269809D-02 0.000000000000D+00  5 2 21 25 24 1 2 0.52619579D-01 0.33936534D-01 0.36051436D+05 0.36051436D+05 0.36051436D+05 0.12066111D+01  1  2  5  4  5  2       -1 -.250653870891D-01 0.100000000000D+01
  </mgrwgt>
  </event>
  <event>
  4     66 -.48098993E-03 0.54482256E+02 0.75467711E-02 0.12688976E+00
        4 -1    0    0  501    0 0.00000000E+00 0.00000000E+00 0.48621369E+02 0.48646069E+02 0.15500000E+01 0.0000E+00 0.9000E+01
       -3 -1    0    0    0  501 0.00000000E+00 0.00000000E+00 -.22655398E+03 0.22655453E+03 0.50000000E+00 0.0000E+00 0.9000E+01
       25  1    1    2    0    0 0.38251002E+01 0.20700735E+02 -.10444192E+03 0.16424453E+03 0.12500000E+03 0.0000E+00 0.9000E+01
       24  1    1    2    0    0 -.38251002E+01 -.20700735E+02 -.73490690E+02 0.11095607E+03 0.80419002E+02 0.0000E+00 0.9000E+01
#aMCatNLO 1  0  0  2  1 0.13521416D+01 0.00000000D+00  -5  5  0 0.00000000D+00 0.00000000D+00 0.00000000D+00 0.00000000D+00 0.00000000D+00
  <mgrwgt>
 -.5223343725D-01   11    2    0
 0.104970659508583D+03 0.000000000000000D+00 0.000000000000000D+00 0.104970659508583D+03
 0.104970659508583D+03 0.000000000000000D+00 0.000000000000000D+00 -.104970659508583D+03
 0.126781001771129D+03 0.382510018903498D+01 0.207007347022295D+02 0.229577904483829D+01
 0.831603172460369D+02 -.382510018903498D+01 -.207007347022295D+02 -.229577904483829D+01
 0.000000000000000D+00 0.000000000000000D+00 0.000000000000000D+00 -.000000000000000D+00
 0.105166792567805D+03 0.000000000000000D+00 0.000000000000000D+00 0.105166792567805D+03
 0.107329411483439D+03 0.000000000000000D+00 0.000000000000000D+00 -.107329411483439D+03
 0.126686739232355D+03 0.315766792278095D+01 0.202308781122701D+02 0.229577904483829D+01
 0.832589340201515D+02 -.426331602502716D+01 -.210092283258912D+02 -.229577904483829D+01
 0.255053079873705D+01 0.110564810224621D+01 0.778350213621149D+00 -.216261891563482D+01
0.259972132136D-03 0.000000000000D+00 0.000000000000D+00 0.316273270105D-02 0.000000000000D+00  5 4 -3 25 24 21 0 0.74821531D-02 0.34856401D-01 0.11013331D+05 0.11013331D+05 0.11013331D+05 0.12634148D+01  1  2  2  2  5  2       -3 0.479117699016D-01 0.100000000000D+01
-.144428951321D-04 0.000000000000D+00 -.998361439638D-06 0.316273270105D-02 0.000000000000D+00  5 4 -3 25 24 21 2 0.74821531D-02 0.34856401D-01 0.11013331D+05 0.11013331D+05 0.11013331D+05 0.12634148D+01  1  2  3  2  5  2       -3 -.424875428623D-02 0.100000000000D+01
0.179565256424D-04 0.000000000000D+00 0.000000000000D+00 0.316273270105D-02 0.000000000000D+00  5 4 -3 25 24 21 2 0.74821531D-02 0.34856401D-01 0.11013331D+05 0.11013331D+05 0.11013331D+05 0.12634148D+01  1  2 15  2  5  2       -3 0.528238033936D-02 0.100000000000D+01
0.728920002976D-07 0.000000000000D+00 0.000000000000D+00 0.316273270105D-02 0.000000000000D+00  5 4 -3 25 24 21 2 0.74821531D-02 0.35671801D-01 0.11156150D+05 0.11156150D+05 0.11156150D+05 0.12627525D+01  1  2 12  2  5  2       -3 0.205381576718D-04 0.100000000000D+01
-.885406492032D-02 0.000000000000D+00 0.000000000000D+00 0.316273270105D-02 0.000000000000D+00  5 4 -3 25 24 21 2 0.74821531D-02 0.34856401D-01 0.11013331D+05 0.11013331D+05 0.11013331D+05 0.12634148D+01  1  2  4  2  5  2       -3 -.260465411794D+01 0.100000000000D+01
-.171958018175D-01 0.000000000000D+00 -.129712624424D-02 0.316273270105D-02 0.000000000000D+00  5 4 -3 25 24 21 2 0.74821531D-02 0.35686617D-01 0.11013331D+05 0.11013331D+05 0.11013331D+05 0.12634148D+01  1  2  5  2  5  2       -3 -.483961894219D+01 0.100000000000D+01
0.172219226846D-01 0.000000000000D+00 0.129676696981D-02 0.316273270105D-02 0.000000000000D+00  5 4 -3 25 24 21 2 0.74821531D-02 0.34856401D-01 0.11013331D+05 0.11013331D+05 0.11013331D+05 0.12634148D+01  1  2  6  2  5  2       -3 0.506627772024D+01 0.100000000000D+01
0.885619229793D-02 0.000000000000D+00 0.000000000000D+00 0.316273270105D-02 0.147150355556D-01  5 4 -3 25 24 21 2 0.74961332D-02 0.35639645D-01 0.11156150D+05 0.11156150D+05 0.11156150D+05 0.12627525D+01  1  2 11  2  5  2       -3 0.249193444154D+01 0.100000000000D+01
0.343522728580D-08 0.000000000000D+00 0.000000000000D+00 0.316273270105D-02 0.000000000000D+00  5 4 21 25 24 3 2 0.74821531D-02 0.35671801D-01 0.11156150D+05 0.11156150D+05 0.11156150D+05 0.12627525D+01  1  2 12  4  5  2       -3 0.202924231880D-04 0.100000000000D+01
-.730229285372D-04 0.000000000000D+00 -.552805614754D-05 0.316273270105D-02 0.000000000000D+00  5 4 21 25 24 3 2 0.74821531D-02 0.35686617D-01 0.11013331D+05 0.11013331D+05 0.11013331D+05 0.12634148D+01  1  2  5  4  5  2       -3 -.431124089880D+00 0.100000000000D+01
0.366073539221D-04 0.000000000000D+00 0.000000000000D+00 0.316273270105D-02 0.593795311124D-04  5 4 21 25 24 3 2 0.74961332D-02 0.35639645D-01 0.11156150D+05 0.11156150D+05 0.11156150D+05 0.12627525D+01  1  2 11  4  5  2       -3 0.215965324455D+00 0.100000000000D+01
  </mgrwgt>
  </event>
  <event>
  4     66 0.48098993E-03 0.10671762E+03 0.75467711E-02 0.11322326E+00
        2 -1    0    0  501    0 0.00000000E+00 0.00000000E+00 0.54149986E+03 0.54149996E+03 0.32000000E+00 0.0000E+00 0.9000E+01
       -1 -1    0    0    0  501 0.00000000E+00 0.00000000E+00 -.24651203E+02 0.24653280E+02 0.32000000E+00 0.0000E+00 0.9000E+01
       25  1    1    2    0    0 -.76891450E+01 0.27270203E+02 0.19614684E+03 0.23431041E+03 0.12500000E+03 0.0000E+00 0.9000E+01
       24  1    1    2    0    0 0.76891450E+01 -.27270203E+02 0.32070182E+03 0.33184283E+03 0.80419002E+02 0.0000E+00 0.9000E+01
#aMCatNLO 1  0  0  1  1 0.17068426D+03 0.00000000D+00  -5  5  0 0.00000000D+00 0.00000000D+00 0.00000000D+00 0.00000000D+00 0.00000000D+00
  <mgrwgt>
 0.3720569700D+00    5    2    0
 0.115538902253904D+03 0.000000000000000D+00 0.000000000000000D+00 0.115538902253904D+03
 0.115538902253904D+03 0.000000000000000D+00 0.000000000000000D+00 -.115538902253904D+03
 0.135354271508289D+03 -.768914496132226D+01 0.272702030814848D+02 -.435085266263751D+02
 0.957235329995199D+02 0.768914496132226D+01 -.272702030814848D+02 0.435085266263751D+02
 0.000000000000000D+00 -.000000000000000D+00 0.000000000000000D+00 0.000000000000000D+00
 0.241886294464332D+03 0.000000000000000D+00 0.000000000000000D+00 0.241886294464332D+03
 0.217773275681254D+03 0.000000000000000D+00 0.000000000000000D+00 -.217773275681254D+03
 0.147736780077849D+03 -.104474172546235D+00 -.656365247687590D+02 -.435085266263751D+02
 0.139543689688170D+03 0.139925036209401D+02 -.104481784683445D+03 0.435085266263751D+02
 0.172379100379566D+03 -.138880294483938D+02 0.170118309452205D+03 0.241130187830784D+02
0.212648000875D-03 0.000000000000D+00 0.000000000000D+00 0.252682261465D-02 0.000000000000D+00  5 2 -1 25 24 21 0 0.83307838D-01 0.37926599D-02 0.11388650D+05 0.11388650D+05 0.11388650D+05 0.12616943D+01  1  2  2  1  5  1        2 0.339610315919D+00 0.100000000000D+01
-.117231751399D-04 0.000000000000D+00 -.816624314864D-06 0.252682261465D-02 0.000000000000D+00  5 2 -1 25 24 21 2 0.83307838D-01 0.37926599D-02 0.11388650D+05 0.11388650D+05 0.11388650D+05 0.12616943D+01  1  2  3  1  5  1        2 -.298039011575D-01 0.100000000000D+01
0.145885623453D-04 0.000000000000D+00 0.000000000000D+00 0.252682261465D-02 0.000000000000D+00  5 2 -1 25 24 21 2 0.83307838D-01 0.37926599D-02 0.11388650D+05 0.11388650D+05 0.11388650D+05 0.12616943D+01  1  2 15  1  5  1        2 0.370885928921D-01 0.100000000000D+01
0.476956546398D-04 0.000000000000D+00 -.769966394401D-04 0.252682261465D-02 0.000000000000D+00  5 2 -1 25 24 21 2 0.26880603D+00 0.37926599D-02 0.11388650D+05 0.11388650D+05 0.11388650D+05 0.12616943D+01  1  2  5  1  5  1        2 0.231404055390D-01 0.100000000000D+01
0.970019345660D-05 0.000000000000D+00 -.104032445947D-04 0.252682261465D-02 0.000000000000D+00  5 21 -1 25 24 -2 2 0.26880603D+00 0.37926599D-02 0.11388650D+05 0.11388650D+05 0.11388650D+05 0.12616943D+01  1  2  5  3  5  1        2 0.202155679687D-02 0.100000000000D+01
  </mgrwgt>
  </event>
  <event>
  4     66 0.48098993E-03 0.70833773E+02 0.75467711E-02 0.12293109E+00
        2 -1    0    0  501    0 0.00000000E+00 0.00000000E+00 0.21321798E+02 0.21324199E+02 0.32000000E+00 0.0000E+00 0.9000E+01
       -1 -1    0    0    0  501 0.00000000E+00 0.00000000E+00 -.58506489E+03 0.58506498E+03 0.32000000E+00 0.0000E+00 0.9000E+01
       25  1    1    2    0    0 0.37447936E+02 -.20720795E+02 -.32216814E+03 0.34820829E+03 0.12500000E+03 0.0000E+00 0.9000E+01
       24  1    1    2    0    0 -.37447936E+02 0.20720795E+02 -.24157495E+03 0.25818089E+03 0.80419002E+02 0.0000E+00 0.9000E+01
#aMCatNLO 1  0  0  2  1 0.32012740D+02 0.00000000D+00  -5  5  0 0.00000000D+00 0.00000000D+00 0.00000000D+00 0.00000000D+00 0.00000000D+00
  <mgrwgt>
 0.2806836281D+00    9    2    0
 0.111693284779989D+03 0.000000000000000D+00 0.000000000000000D+00 0.111693284779989D+03
 0.111693284779989D+03 0.000000000000000D+00 0.000000000000000D+00 -.111693284779989D+03
 0.132190900334201D+03 0.374479364769453D+02 -.207207952231771D+02 0.421127416639729D+01
 0.911956692257766D+02 -.374479364769453D+02 0.207207952231771D+02 -.421127416639729D+01
 0.000000000000000D+00 -.000000000000000D+00 0.000000000000000D+00 -.000000000000000D+00
 0.115577340545716D+03 0.000000000000000D+00 0.000000000000000D+00 0.115577340545716D+03
 0.206237968967792D+03 0.000000000000000D+00 0.000000000000000D+00 -.206237968967792D+03
 0.138965499347387D+03 0.480376224898737D+02 -.368925738365389D+02 0.421127416639729D+01
 0.867032290464487D+02 -.305003096572907D+02 0.101108977551560D+02 -.421127416639729D+01
 0.961465811196719D+02 -.175373128325830D+02 0.267816760813829D+02 -.906606284220755D+02
0.650790817544D-03 0.000000000000D+00 0.000000000000D+00 0.296325560058D-02 0.000000000000D+00  5 2 -1 25 24 21 0 0.32804680D-02 0.90010175D-01 0.12457036D+05 0.12457036D+05 0.12457036D+05 0.12571260D+01  1  2  2  2  5  2       -1 0.247779838014D+00 0.100000000000D+01
-.361550215972D-04 0.000000000000D+00 -.249920809652D-05 0.296325560058D-02 0.000000000000D+00  5 2 -1 25 24 21 2 0.32804680D-02 0.90010175D-01 0.12457036D+05 0.12457036D+05 0.12457036D+05 0.12571260D+01  1  2  3  2  5  2       -1 -.217545844733D-01 0.100000000000D+01
0.450490201949D-04 0.000000000000D+00 0.000000000000D+00 0.296325560058D-02 0.000000000000D+00  5 2 -1 25 24 21 2 0.32804680D-02 0.90010175D-01 0.12457036D+05 0.12457036D+05 0.12457036D+05 0.12571260D+01  1  2 15  2  5  2       -1 0.271061299918D-01 0.100000000000D+01
0.174050355706D-02 0.000000000000D+00 0.000000000000D+00 0.296325560058D-02 0.000000000000D+00  5 2 -1 25 24 21 2 0.32804680D-02 0.16653614D+00 0.16578534D+05 0.16578534D+05 0.16578534D+05 0.12428989D+01  1  2 12  2  5  2       -1 0.238227458011D+00 0.100000000000D+01
-.159827283279D-02 0.000000000000D+00 0.000000000000D+00 0.296325560058D-02 0.000000000000D+00  5 2 -1 25 24 21 2 0.32804680D-02 0.90010175D-01 0.12457036D+05 0.12457036D+05 0.12457036D+05 0.12571260D+01  1  2  4  2  5  2       -1 -.961685536792D+00 0.100000000000D+01
-.185557431774D-02 0.000000000000D+00 -.184027036642D-03 0.296325560058D-02 0.000000000000D+00  5 2 -1 25 24 21 2 0.32804680D-02 0.16831203D+00 0.12457036D+05 0.12457036D+05 0.12457036D+05 0.12571260D+01  1  2  5  2  5  2       -1 -.251379179386D+00 0.100000000000D+01
0.166484318026D-02 0.000000000000D+00 0.153055882711D-03 0.296325560058D-02 0.000000000000D+00  5 2 -1 25 24 21 2 0.32804680D-02 0.90010175D-01 0.12457036D+05 0.12457036D+05 0.12457036D+05 0.12571260D+01  1  2  6  2  5  2       -1 0.100174111368D+01 0.100000000000D+01
0.116818182306D-03 0.000000000000D+00 0.000000000000D+00 0.296325560058D-02 0.000000000000D+00  5 2 21 25 24 1 2 0.32804680D-02 0.16653614D+00 0.16578534D+05 0.16578534D+05 0.16578534D+05 0.12428989D+01  1  2 12  4  5  2       -1 0.137593116623D+00 0.100000000000D+01
-.116161000834D-03 0.000000000000D+00 -.125429085810D-04 0.296325560058D-02 0.000000000000D+00  5 2 21 25 24 1 2 0.32804680D-02 0.16831203D+00 0.12457036D+05 0.12457036D+05 0.12457036D+05 0.12571260D+01  1  2  5  4  5  2       -1 -.136944727542D+00 0.100000000000D+01
  </mgrwgt>
  </event>
  <event>
  5     66 0.48098993E-03 0.13084455E+03 0.75467711E-02 0.11952617E+00
        4 -1    0    0  502    0 0.00000000E+00 0.00000000E+00 0.10414012E+03 0.10415166E+03 0.15500000E+01 0.0000E+00 0.9000E+01
       -3 -1    0    0    0  501 0.00000000E+00 0.00000000E+00 -.23763325E+03 0.23763378E+03 0.50000000E+00 0.0000E+00 0.9000E+01
       25  1    1    2    0    0 -.62907579E+02 0.42524816E+02 -.91619954E+02 0.17258314E+03 0.12500000E+03 0.0000E+00 0.9000E+01
       24  1    1    2    0    0 0.38956246E+02 -.78651253E+02 -.20228365E+02 0.12074772E+03 0.80419002E+02 0.0000E+00 0.9000E+01
       21  1    1    2  502  501 0.23951333E+02 0.36126437E+02 -.21644809E+02 0.48454577E+02 0.75000000E+00 0.0000E+00 0.9000E+01
#aMCatNLO 2  0  0  1  2 0.43344963D+02 0.00000000D+00  -5  5  0 0.00000000D+00 0.00000000D+00 0.00000000D+00 0.00000000D+00 0.00000000D+00
  <mgrwgt>
 0.2548580959D-01    1    2    0
 0.133841472239509D+03 0.000000000000000D+00 0.000000000000000D+00 0.133841472239509D+03
 0.133841472239509D+03 0.000000000000000D+00 0.000000000000000D+00 -.133841472239509D+03
 0.150947126959971D+03 -.495798623268411D+02 0.626273683224304D+02 -.279228423719307D+02
 0.116735817519046D+03 0.495798623268411D+02 -.626273683224304D+02 0.279228423719307D+02
 0.000000000000000D+00 0.000000000000000D+00 0.000000000000000D+00 -.000000000000000D+00
 0.155611049979056D+03 0.000000000000000D+00 0.000000000000000D+00 0.155611049979056D+03
 0.159038824459963D+03 0.000000000000000D+00 0.000000000000000D+00 -.159038824459963D+03
 0.148897308956516D+03 -.629075791052366D+02 0.425248160429045D+02 -.279228423719307D+02
 0.122272277422308D+03 0.389562461593913D+02 -.786512532049456D+02 0.279228423719307D+02
 0.434802880601958D+02 0.239513329458453D+02 0.361264371620411D+02 -.342777448090753D+01
0.341306152136D-03 0.000000000000D+00 0.000000000000D+00 0.247097442486D-02 0.108141833953D-04  5 4 -3 25 24 21 2 0.16022155D-01 0.36559137D-01 0.23814958D+05 0.23814958D+05 0.23814958D+05 0.12255653D+01  1  2  1  1  5  1        4 0.254858095885D-01 0.100000000000D+01
  </mgrwgt>
  </event>
  <event>
  4     66 0.48098993E-03 0.15119120E+03 0.75467711E-02 0.11910260E+00
        2 -1    0    0  501    0 0.00000000E+00 0.00000000E+00 0.63379900E+03 0.63379908E+03 0.32000000E+00 0.0000E+00 0.9000E+01
       -1 -1    0    0    0  501 0.00000000E+00 0.00000000E+00 -.39167091E+02 0.39168398E+02 0.32000000E+00 0.0000E+00 0.9000E+01
       25  1    1    2    0    0 -.94849821E+02 0.55185907E+02 0.41898410E+03 0.45079335E+03 0.12500000E+03 0.0000E+00 0.9000E+01
       24  1    1    2    0    0 0.94849821E+02 -.55185907E+02 0.17564781E+03 0.22217413E+03 0.80419002E+02 0.0000E+00 0.9000E+01
#aMCatNLO 1  0  0  2  2 0.13285811D+02 0.00000000D+00  -5  5  0 0.00000000D+00 0.00000000D+00 0.00000000D+00 0.00000000D+00 0.00000000D+00
  <mgrwgt>
 0.3869489350D+00    4    2    0
 0.157558021653972D+03 0.000000000000000D+00 0.000000000000000D+00 0.157558021653972D+03
 0.157558021653972D+03 0.000000000000000D+00 0.000000000000000D+00 -.157558021653972D+03
 0.172088833778761D+03 -.948498209132548D+02 0.551859071536779D+02 0.441315514760499D+02
 0.143027209529182D+03 0.948498209132548D+02 -.551859071536779D+02 -.441315514760499D+02
 0.000000000000000D+00 0.000000000000000D+00 0.000000000000000D+00 0.000000000000000D+00
 0.191150151095062D+03 0.000000000000000D+00 0.000000000000000D+00 0.191150151095062D+03
 0.159017140854193D+03 0.000000000000000D+00 0.000000000000000D+00 -.159017140854193D+03
 0.175054777886915D+03 -.101614549682979D+03 0.524029075345943D+02 0.441315514760499D+02
 0.140341216873781D+03 0.893278683780437D+02 -.574576304296897D+02 -.441315514760499D+02
 0.347712971885583D+02 0.122866813049353D+02 0.505472289509541D+01 0.321330102408691D+02
0.612900694507D-03 0.000000000000D+00 0.000000000000D+00 0.218346109753D-02 0.000000000000D+00  5 2 -1 25 24 21 0 0.97507645D-01 0.60258131D-02 0.22858779D+05 0.22858779D+05 0.22858779D+05 0.12274889D+01  1  2  2  2  5  2       -1 0.423981927024D+00 0.100000000000D+01
-.339795991423D-04 0.000000000000D+00 -.235370004737D-05 0.218346109753D-02 0.000000000000D+00  5 2 -1 25 24 21 2 0.97507645D-01 0.60258131D-02 0.22858779D+05 0.22858779D+05 0.22858779D+05 0.12274889D+01  1  2  3  2  5  2       -1 -.354169069699D-01 0.100000000000D+01
0.423208123521D-04 0.000000000000D+00 0.000000000000D+00 0.218346109753D-02 0.000000000000D+00  5 2 -1 25 24 21 2 0.97507645D-01 0.60258131D-02 0.22858779D+05 0.22858779D+05 0.22858779D+05 0.12274889D+01  1  2 15  2  5  2       -1 0.441109463267D-01 0.100000000000D+01
-.438713126172D-04 0.000000000000D+00 0.000000000000D+00 0.218346109753D-02 0.000000000000D+00  5 2 -1 25 24 21 2 0.97507645D-01 0.60258131D-02 0.22858779D+05 0.22858779D+05 0.22858779D+05 0.12274889D+01  1  2  4  2  5  2       -1 -.457270314198D-01 0.100000000000D+01
  </mgrwgt>
  </event>
  <event>
  4     66 0.48098993E-03 0.75074384E+02 0.75467711E-02 0.12598503E+00
        2 -1    0    0  501    0 0.00000000E+00 0.00000000E+00 0.10191955E+04 0.10191955E+04 0.32000000E+00 0.0000E+00 0.9000E+01
       -1 -1    0    0    0  501 0.00000000E+00 0.00000000E+00 -.14517568E+02 0.14521094E+02 0.32000000E+00 0.0000E+00 0.9000E+01
       25  1    1    2    0    0 -.32598160E+01 -.20172856E+02 0.32200904E+03 0.34602368E+03 0.12500000E+03 0.0000E+00 0.9000E+01
       24  1    1    2    0    0 0.32598160E+01 0.20172856E+02 0.68266885E+03 0.68769291E+03 0.80419002E+02 0.0000E+00 0.9000E+01
#aMCatNLO 1  0  0  2  1 0.10973687D+02 0.00000000D+00  -5  5  0 0.00000000D+00 0.00000000D+00 0.00000000D+00 0.00000000D+00 0.00000000D+00
  <mgrwgt>
 0.2630902905D+00    9    2    0
 0.121647391908662D+03 0.000000000000000D+00 0.000000000000000D+00 0.121647391908662D+03
 0.121647391908662D+03 0.000000000000000D+00 0.000000000000000D+00 -.121647391908662D+03
 0.140467737955426D+03 -.325981603069234D+01 -.201728563706070D+02 -.607339680212909D+02
 0.102827045861898D+03 0.325981603069234D+01 0.201728563706070D+02 0.607339680212909D+02
 0.000000000000000D+00 0.000000000000000D+00 0.000000000000000D+00 -.000000000000000D+00
 0.122707101849795D+03 0.000000000000000D+00 0.000000000000000D+00 0.122707101849795D+03
 0.153933911180659D+03 0.000000000000000D+00 0.000000000000000D+00 -.153933911180659D+03
 0.141483757052991D+03 -.622838218014019D+01 -.257923611489290D+02 -.607339680212909D+02
 0.102058382317743D+03 0.110265085378468D+01 0.160893361089760D+02 0.607339680212909D+02
 0.330988736597192D+02 0.512573132635551D+01 0.970302503995307D+01 -.312268093308637D+02
0.181014674159D-03 0.000000000000D+00 0.000000000000D+00 0.215691676374D-02 0.000000000000D+00  5 2 -1 25 24 21 0 0.15679958D+00 0.22337471D-02 0.10986591D+05 0.10986591D+05 0.10986591D+05 0.12635399D+01  1  2  2  2  5  2       -1 0.288547168075D+00 0.100000000000D+01
-.978524077302D-05 0.000000000000D+00 -.695144011027D-06 0.215691676374D-02 0.000000000000D+00  5 2 -1 25 24 21 2 0.15679958D+00 0.22337471D-02 0.10986591D+05 0.10986591D+05 0.10986591D+05 0.12635399D+01  1  2  3  2  5  2       -1 -.249030466953D-01 0.100000000000D+01
0.123805677898D-04 0.000000000000D+00 0.000000000000D+00 0.215691676374D-02 0.000000000000D+00  5 2 -1 25 24 21 2 0.15679958D+00 0.22337471D-02 0.10986591D+05 0.10986591D+05 0.10986591D+05 0.12635399D+01  1  2 15  2  5  2       -1 0.315080502295D-01 0.100000000000D+01
0.148628212537D-02 0.000000000000D+00 0.000000000000D+00 0.215691676374D-02 0.000000000000D+00  5 2 -1 25 24 21 2 0.15679958D+00 0.28345700D-02 0.12185833D+05 0.12185833D+05 0.12185833D+05 0.12582427D+01  1  2 12  2  5  2       -1 0.267057873454D+01 0.100000000000D+01
-.146705328742D-02 0.000000000000D+00 0.000000000000D+00 0.215691676374D-02 0.000000000000D+00  5 2 -1 25 24 21 2 0.15679958D+00 0.22337471D-02 0.10986591D+05 0.10986591D+05 0.10986591D+05 0.12635399D+01  1  2  4  2  5  2       -1 -.373359198497D+01 0.100000000000D+01
-.165377157924D-02 0.000000000000D+00 -.103400127332D-03 0.215691676374D-02 0.000000000000D+00  5 2 -1 25 24 21 2 0.15679958D+00 0.28501951D-02 0.10986591D+05 0.10986591D+05 0.10986591D+05 0.12635399D+01  1  2  5  2  5  2       -1 -.296317851606D+01 0.100000000000D+01
0.163322565829D-02 0.000000000000D+00 0.100403698174D-03 0.215691676374D-02 0.000000000000D+00  5 2 -1 25 24 21 2 0.15679958D+00 0.22337471D-02 0.10986591D+05 0.10986591D+05 0.10986591D+05 0.12635399D+01  1  2  6  2  5  2       -1 0.415649402767D+01 0.100000000000D+01
0.485330120373D-04 0.000000000000D+00 0.000000000000D+00 0.215691676374D-02 0.000000000000D+00  5 2 21 25 24 1 2 0.15679958D+00 0.28345700D-02 0.12185833D+05 0.12185833D+05 0.12185833D+05 0.12582427D+01  1  2 12  4  5  2       -1 0.171231639306D+01 0.100000000000D+01
-.532624081860D-04 0.000000000000D+00 -.343406848696D-05 0.215691676374D-02 0.000000000000D+00  5 2 21 25 24 1 2 0.15679958D+00 0.28501951D-02 0.10986591D+05 0.10986591D+05 0.10986591D+05 0.12635399D+01  1  2  5  4  5  2       -1 -.187468053537D+01 0.100000000000D+01
  </mgrwgt>
  </event>
  <event>
  4     66 0.48098993E-03 0.12538656E+03 0.75467711E-02 0.11069223E+00
        2 -1    0    0  501    0 0.00000000E+00 0.00000000E+00 0.24546181E+03 0.24546202E+03 0.32000000E+00 0.0000E+00 0.9000E+01
       -1 -1    0    0    0  501 0.00000000E+00 0.00000000E+00 -.10706653E+03 0.10706701E+03 0.32000000E+00 0.0000E+00 0.9000E+01
       25  1    1    2    0    0 0.62030276E+02 0.34078157E+02 -.35790275E+02 0.14803722E+03 0.12500000E+03 0.0000E+00 0.9000E+01
       24  1    1    2    0    0 -.62030276E+02 -.34078157E+02 0.17418555E+03 0.20449181E+03 0.80419002E+02 0.0000E+00 0.9000E+01
#aMCatNLO 1  0  0  2  1 0.19986769D+03 0.00000000D+00  -5  5  0 0.00000000D+00 0.00000000D+00 0.00000000D+00 0.00000000D+00 0.00000000D+00
  <mgrwgt>
 0.3250129068D+00    5    2    0
 0.162113744414399D+03 0.000000000000000D+00 0.000000000000000D+00 0.162113744414399D+03
 0.162113744414399D+03 0.000000000000000D+00 0.000000000000000D+00 -.162113744414399D+03
 0.176236211449366D+03 0.620302757692804D+02 0.340781568421875D+02 -.102103507972311D+03
 0.147991277379432D+03 -.620302757692804D+02 -.340781568421875D+02 0.102103507972311D+03
 0.000000000000000D+00 0.000000000000000D+00 -.000000000000000D+00 -.000000000000000D+00
 0.261232605802550D+03 0.000000000000000D+00 0.000000000000000D+00 0.261232605802550D+03
 0.331512777900005D+03 0.000000000000000D+00 0.000000000000000D+00 -.331512777900005D+03
 0.174541870875492D+03 -.348180817303211D+02 0.565901010167481D+02 -.102103507972311D+03
 0.206339418323592D+03 -.159859494924280D+03 -.113382159994399D+02 0.102103507972311D+03
 0.211864094503471D+03 0.194677576654601D+03 -.452518850173082D+02 -.702801720974555D+02
0.673442024154D-03 0.000000000000D+00 0.000000000000D+00 0.147033957577D-02 0.000000000000D+00  5 2 -1 25 24 21 0 0.37763409D-01 0.16471827D-01 0.15721789D+05 0.15721789D+05 0.15721789D+05 0.12455024D+01  1  2  2  2  5  2       -1 0.276796184370D+00 0.100000000000D+01
-.344113362317D-04 0.000000000000D+00 -.258619469411D-05 0.147033957577D-02 0.000000000000D+00  5 2 -1 25 24 21 2 0.37763409D-01 0.16471827D-01 0.15721789D+05 0.15721789D+05 0.15721789D+05 0.12455024D+01  1  2  3  2  5  2       -1 -.219407035606D-01 0.100000000000D+01
0.460876151620D-04 0.000000000000D+00 0.000000000000D+00 0.147033957577D-02 0.000000000000D+00  5 2 -1 25 24 21 2 0.37763409D-01 0.16471827D-01 0.15721789D+05 0.15721789D+05 0.15721789D+05 0.12455024D+01  1  2 15  2  5  2       -1 0.293855110792D-01 0.100000000000D+01
0.152731736155D-03 0.000000000000D+00 -.203007147463D-03 0.147033957577D-02 0.000000000000D+00  5 2 -1 25 24 21 2 0.37763409D-01 0.52405089D-01 0.15721789D+05 0.15721789D+05 0.15721789D+05 0.12455024D+01  1  2  5  2  5  2       -1 0.138787795358D-01 0.100000000000D+01
0.292469547976D-04 0.000000000000D+00 -.270288599326D-04 0.147033957577D-02 0.000000000000D+00  5 2 21 25 24 1 2 0.37763409D-01 0.52405089D-01 0.15721789D+05 0.15721789D+05 0.15721789D+05 0.12455024D+01  1  2  5  4  5  2       -1 0.268931353919D-01 0.100000000000D+01
  </mgrwgt>
  </event>
  <event>
  4     66 -.48098993E-03 0.68015276E+02 0.75467711E-02 0.12198345E+00
        2 -1    0    0  501    0 0.00000000E+00 0.00000000E+00 0.10326239E+04 0.10326240E+04 0.32000000E+00 0.0000E+00 0.9000E+01
       -1 -1    0    0    0  501 0.00000000E+00 0.00000000E+00 -.10799598E+02 0.10804338E+02 0.32000000E+00 0.0000E+00 0.9000E+01
       25  1    1    2    0    0 0.19730464E+02 0.10581294E+02 0.57243927E+03 0.58635567E+03 0.12500000E+03 0.0000E+00 0.9000E+01
       24  1    1    2    0    0 -.19730464E+02 -.10581294E+02 0.44938505E+03 0.45707264E+03 0.80419002E+02 0.0000E+00 0.9000E+01
#aMCatNLO 1  0  0  2  1 0.53397629D+02 0.00000000D+00  -5  5  0 0.00000000D+00 0.00000000D+00 0.00000000D+00 0.00000000D+00 0.00000000D+00
  <mgrwgt>
 -.8601179494D+00    7    2    0
 0.105614499035392D+03 0.000000000000000D+00 0.000000000000000D+00 0.105614499035392D+03
 0.105614499035392D+03 0.000000000000000D+00 0.000000000000000D+00 -.105614499035392D+03
 0.127291882655231D+03 0.197304637004741D+02 0.105812937760262D+02 -.877316442926075D+01
 0.839371154155519D+02 -.197304637004741D+02 -.105812937760262D+02 0.877316442926075D+01
 0.000000000000000D+00 0.000000000000000D+00 0.000000000000000D+00 -.000000000000000D+00
 0.109486542663383D+03 0.000000000000000D+00 0.000000000000000D+00 0.109486542663383D+03
 0.140583794939419D+04 0.000000000000000D+00 0.000000000000000D+00 -.140583794939419D+04
 0.125704099376120D+03 -.997635619463919D+01 0.156534137747483D+00 -.877316442926075D+01
 0.921697090337221D+02 -.404089490827701D+02 -.178378173808822D+02 0.877316442926075D+01
 0.129745068364773D+04 0.503853052774093D+02 0.176812832431347D+02 -.129635140673081D+04
0.951763130480D-04 0.000000000000D+00 0.000000000000D+00 0.312478420560D-02 0.000000000000D+00  5 2 -1 25 24 21 0 0.15886559D+00 0.16618451D-02 0.11074043D+05 0.11074043D+05 0.11074043D+05 0.12631321D+01  1  2  2  2  5  2       -1 0.227623026891D+00 0.100000000000D+01
-.528748888317D-05 0.000000000000D+00 -.365502102603D-06 0.312478420560D-02 0.000000000000D+00  5 2 -1 25 24 21 2 0.15886559D+00 0.16618451D-02 0.11074043D+05 0.11074043D+05 0.11074043D+05 0.12631321D+01  1  2  3  2  5  2       -1 -.201759648786D-01 0.100000000000D+01
0.659986178653D-05 0.000000000000D+00 0.000000000000D+00 0.312478420560D-02 0.000000000000D+00  5 2 -1 25 24 21 2 0.15886559D+00 0.16618451D-02 0.11074043D+05 0.11074043D+05 0.11074043D+05 0.12631321D+01  1  2 15  2  5  2       -1 0.251837086660D-01 0.100000000000D+01
0.440201564223D-02 0.000000000000D+00 0.000000000000D+00 0.312478420560D-02 0.000000000000D+00  5 2 -1 25 24 21 2 0.15886559D+00 0.21503628D-01 0.18298842D+05 0.18298842D+05 0.18298842D+05 0.12380990D+01  1  2 12  2  5  2       -1 0.352791462448D+00 0.100000000000D+01
-.744567261656D-02 0.000000000000D+00 -.842553673578D-04 0.312478420560D-02 0.000000000000D+00  5 2 -1 25 24 21 2 0.15886559D+00 0.22586402D-01 0.11074043D+05 0.11074043D+05 0.11074043D+05 0.12631321D+01  1  2  5  2  5  2       -1 -.577009607714D+00 0.100000000000D+01
0.129819364992D-02 0.000000000000D+00 0.000000000000D+00 0.312478420560D-02 0.000000000000D+00  5 2 21 25 24 1 2 0.15886559D+00 0.21503628D-01 0.18298842D+05 0.18298842D+05 0.18298842D+05 0.12380990D+01  1  2 12  4  5  2       -1 0.130913408476D+01 0.100000000000D+01
-.223951997423D-02 0.000000000000D+00 -.251444715860D-04 0.312478420560D-02 0.000000000000D+00  5 2 21 25 24 1 2 0.15886559D+00 0.22586402D-01 0.11074043D+05 0.11074043D+05 0.11074043D+05 0.12631321D+01  1  2  5  4  5  2       -1 -.217766465960D+01 0.100000000000D+01
  </mgrwgt>
  </event>
  <event>
  4     66 0.48098993E-03 0.12965751E+03 0.75467711E-02 0.99697582E-01
        2 -1    0    0  501    0 0.00000000E+00 0.00000000E+00 0.42563631E+03 0.42563643E+03 0.32000000E+00 0.0000E+00 0.9000E+01
       -1 -1    0    0    0  501 0.00000000E+00 0.00000000E+00 -.39875094E+02 0.39876378E+02 0.32000000E+00 0.0000E+00 0.9000E+01
       25  1    1    2    0    0 -.76738036E+02 0.13712371E+02 0.19640028E+03 0.24550932E+03 0.12500000E+03 0.0000E+00 0.9000E+01
       24  1    1    2    0    0 0.76738036E+02 -.13712371E+02 0.18936093E+03 0.22000349E+03 0.80419002E+02 0.0000E+00 0.9000E+01
#aMCatNLO 1  0  0  1  1 0.54054670D+03 0.00000000D+00  -5  5  0 0.00000000D+00 0.00000000D+00 0.00000000D+00 0.00000000D+00 0.00000000D+00
  <mgrwgt>
 0.4802027019D+00    3    2    0
 0.130278987269224D+03 0.000000000000000D+00 0.000000000000000D+00 0.130278987269224D+03
 0.130278987269224D+03 0.000000000000000D+00 0.000000000000000D+00 -.130278987269224D+03
 0.147852396914144D+03 -.767380360996134D+02 0.137123714031744D+02 -.125926946811776D+02
 0.112705577624304D+03 0.767380360996134D+02 -.137123714031744D+02 0.125926946811776D+02
 0.000000000000000D+00 0.000000000000000D+00 0.000000000000000D+00 -.000000000000000D+00
 0.379729574982212D+03 0.000000000000000D+00 0.000000000000000D+00 0.379729574982212D+03
 0.121661575862552D+04 0.000000000000000D+00 0.000000000000000D+00 -.121661575862552D+04
 0.443646492059528D+03 -.360318526575182D+03 -.226294483724374D+03 -.125926946811776D+02
 0.156421161699303D+03 -.522885676018792D+02 -.122913358150363D+03 0.125926946811776D+02
 0.996277679848899D+03 0.412607094177061D+03 0.349207841874737D+03 -.836886183643305D+03
0.453310975052D-03 0.000000000000D+00 0.000000000000D+00 0.259543658570D-02 0.000000000000D+00  5 2 -1 25 24 21 0 0.65482617D-01 0.61347378D-02 0.16811071D+05 0.16811071D+05 0.16811071D+05 0.12422182D+01  1  2  2  1  5  1        2 0.470398976746D+00 0.100000000000D+01
-.251832429309D-04 0.000000000000D+00 -.174083350372D-05 0.259543658570D-02 0.000000000000D+00  5 2 -1 25 24 21 2 0.65482617D-01 0.61347378D-02 0.16811071D+05 0.16811071D+05 0.16811071D+05 0.12422182D+01  1  2  3  1  5  1        2 -.403252961900D-01 0.100000000000D+01
0.313056925018D-04 0.000000000000D+00 0.000000000000D+00 0.259543658570D-02 0.000000000000D+00  5 2 -1 25 24 21 2 0.65482617D-01 0.61347378D-02 0.16811071D+05 0.16811071D+05 0.16811071D+05 0.12422182D+01  1  2 15  1  5  1        2 0.501290213509D-01 0.100000000000D+01
  </mgrwgt>
  </event>
  <event>
  4     66 0.48098993E-03 0.15644597E+03 0.75467711E-02 0.10646387E+00
        2 -1    0    0  501    0 0.00000000E+00 0.00000000E+00 0.41737469E+03 0.41737481E+03 0.32000000E+00 0.0000E+00 0.9000E+01
       -1 -1    0    0    0  501 0.00000000E+00 0.00000000E+00 -.60959357E+02 0.60960197E+02 0.32000000E+00 0.0000E+00 0.9000E+01
       25  1    1    2    0    0 -.31805261E+01 0.11676162E+03 0.24069163E+03 0.29529790E+03 0.12500000E+03 0.0000E+00 0.9000E+01
       24  1    1    2    0    0 0.31805261E+01 -.11676162E+03 0.11572370E+03 0.18303711E+03 0.80419002E+02 0.0000E+00 0.9000E+01
#aMCatNLO 1  0  0  2  1 0.27456495D+03 0.00000000D+00  -5  5  0 0.00000000D+00 0.00000000D+00 0.00000000D+00 0.00000000D+00 0.00000000D+00
  <mgrwgt>
 0.4469628477D+00    5    2    0
 0.159509005499339D+03 0.000000000000000D+00 0.000000000000000D+00 0.159509005499339D+03
 0.159509005499339D+03 0.000000000000000D+00 0.000000000000000D+00 -.159509005499339D+03
 0.173862088601075D+03 -.318052607900701D+01 0.116761616298485D+03 0.309779771120445D+02
 0.145155922397602D+03 0.318052607900701D+01 -.116761616298485D+03 -.309779771120445D+02
 0.000000000000000D+00 -.000000000000000D+00 0.000000000000000D+00 -.000000000000000D+00
 0.275744562178039D+03 0.000000000000000D+00 0.000000000000000D+00 0.275744562178039D+03
 0.499092909309098D+03 0.000000000000000D+00 0.000000000000000D+00 -.499092909309098D+03
 0.137182118534918D+03 0.456698515210819D+02 0.121886521738968D+02 0.309779771120445D+02
 0.283719772763704D+03 0.705366740845876D+02 -.260949489453127D+03 -.309779771120445D+02
 0.353935580188515D+03 -.116206525605669D+03 0.248760837279230D+03 -.223348347131059D+03
0.711190270315D-03 0.000000000000D+00 0.000000000000D+00 0.225930917713D-02 0.000000000000D+00  5 2 -1 25 24 21 0 0.64211565D-01 0.93784366D-02 0.24475342D+05 0.24475342D+05 0.24475342D+05 0.12242864D+01  1  2  2  2  5  2       -1 0.402199972249D+00 0.100000000000D+01
-.394925098409D-04 0.000000000000D+00 -.273115789871D-05 0.225930917713D-02 0.000000000000D+00  5 2 -1 25 24 21 2 0.64211565D-01 0.93784366D-02 0.24475342D+05 0.24475342D+05 0.24475342D+05 0.12242864D+01  1  2  3  2  5  2       -1 -.334762683626D-01 0.100000000000D+01
0.491682276088D-04 0.000000000000D+00 0.000000000000D+00 0.225930917713D-02 0.000000000000D+00  5 2 -1 25 24 21 2 0.64211565D-01 0.93784366D-02 0.24475342D+05 0.24475342D+05 0.24475342D+05 0.12242864D+01  1  2 15  2  5  2       -1 0.416779989162D-01 0.100000000000D+01
0.247688694017D-03 0.000000000000D+00 -.283944818085D-03 0.225930917713D-02 0.000000000000D+00  5 2 -1 25 24 21 2 0.64211565D-01 0.49062957D-01 0.24475342D+05 0.24475342D+05 0.24475342D+05 0.12242864D+01  1  2  5  2  5  2       -1 0.139290626652D-01 0.100000000000D+01
0.395338379258D-04 0.000000000000D+00 -.573963018605D-04 0.225930917713D-02 0.000000000000D+00  5 2 21 25 24 1 2 0.64211565D-01 0.49062957D-01 0.24475342D+05 0.24475342D+05 0.24475342D+05 0.12242864D+01  1  2  5  4  5  2       -1 0.226320822719D-01 0.100000000000D+01
  </mgrwgt>
  </event>
  <event>
  5     66 0.48098993E-03 0.15818516E+03 0.75467711E-02 0.11280605E+00
        2 -1    0    0  501    0 0.00000000E+00 0.00000000E+00 0.28811335E+04 0.28811335E+04 0.32000000E+00 0.0000E+00 0.9000E+01
       -1 -1    0    0    0  502 0.00000000E+00 0.00000000E+00 -.25712174E+02 0.25714165E+02 0.32000000E+00 0.0000E+00 0.9000E+01
       25  1    1    2    0    0 -.94051205E+02 0.42855056E+02 0.37563856E+03 0.40915952E+03 0.12500000E+03 0.0000E+00 0.9000E+01
       24  1    1    2    0    0 0.14232190E+03 0.64771390E+02 0.16939602E+04 0.17030617E+04 0.80419002E+02 0.0000E+00 0.9000E+01
       21  1    1    2  501  502 -.48270691E+02 -.10762645E+03 0.78582252E+03 0.79462639E+03 0.75000000E+00 0.0000E+00 0.9000E+01
#aMCatNLO 2  0  0  2  1 0.11795555D+03 0.00000000D+00  -5  5  0 0.00000000D+00 0.00000000D+00 0.00000000D+00 0.00000000D+00 0.00000000D+00
  <mgrwgt>
 0.1979632471D-01    1    2    0
 0.202685742246939D+03 0.000000000000000D+00 0.000000000000000D+00 0.202685742246939D+03
 0.202685742246939D+03 0.000000000000000D+00 0.000000000000000D+00 -.202685742246939D+03
 0.213981287686036D+03 -.118526890076564D+03 -.117170020604886D+02 -.126400473382289D+03
 0.191390196807842D+03 0.118526890076564D+03 0.117170020604886D+02 0.126400473382289D+03
 0.000000000000000D+00 -.000000000000000D+00 -.000000000000000D+00 0.000000000000000D+00
 0.290869630960178D+03 0.000000000000000D+00 0.000000000000000D+00 0.290869630960178D+03
 0.254693120557805D+03 0.000000000000000D+00 0.000000000000000D+00 -.254693120557805D+03
 0.205631380711696D+03 -.940512054404137D+02 0.428550559133574D+02 -.126400473382289D+03
 0.216552882324969D+03 0.142321896534498D+03 0.647713901691040D+02 0.126400473382289D+03
 0.123378488481317D+03 -.482706910940845D+02 -.107626446082461D+03 0.361765104023736D+02
0.198729231489D-03 0.000000000000D+00 0.000000000000D+00 0.135682681152D-02 0.851494491276D-06  5 2 -1 25 24 21 2 0.44324957D+00 0.39558568D-02 0.51980762D+05 0.51980762D+05 0.51980762D+05 0.11906144D+01  1  2  1  2  5  2       -1 0.197963247131D-01 0.100000000000D+01
  </mgrwgt>
  </event>
  <event>
  4     66 0.48098993E-03 0.11158091E+03 0.75467711E-02 0.11684144E+00
        2 -1    0    0  501    0 0.00000000E+00 0.00000000E+00 0.16618512E+04 0.16618512E+04 0.32000000E+00 0.0000E+00 0.9000E+01
       -1 -1    0    0    0  501 0.00000000E+00 0.00000000E+00 -.10049726E+02 0.10054820E+02 0.32000000E+00 0.0000E+00 0.9000E+01
       25  1    1    2    0    0 0.63954983E+01 0.42240836E+02 0.13556387E+04 0.13620597E+04 0.12500000E+03 0.0000E+00 0.9000E+01
       24  1    1    2    0    0 -.63954983E+01 -.42240836E+02 0.29616276E+03 0.30984639E+03 0.80419002E+02 0.0000E+00 0.9000E+01
#aMCatNLO 1  0  0  1  2 0.11006856D+03 0.00000000D+00  -5  5  0 0.00000000D+00 0.00000000D+00 0.00000000D+00 0.00000000D+00 0.00000000D+00
  <mgrwgt>
 0.4800932703D+00    3    2    0
 0.129249500972817D+03 0.000000000000000D+00 0.000000000000000D+00 0.129249500972817D+03
 0.129249500972817D+03 0.000000000000000D+00 0.000000000000000D+00 -.129249500972817D+03
 0.146962884731946D+03 0.639549828670994D+01 0.422408357557219D+02 0.644041837543029D+02
 0.111536117213689D+03 -.639549828670994D+01 -.422408357557219D+02 -.644041837543029D+02
 0.000000000000000D+00 -.000000000000000D+00 0.000000000000000D+00 -.000000000000000D+00
 0.162301165293219D+03 0.000000000000000D+00 0.000000000000000D+00 0.162301165293219D+03
 0.279268602506815D+03 0.000000000000000D+00 0.000000000000000D+00 -.279268602506815D+03
 0.161909167007784D+03 0.693877986325123D+02 0.403362476815887D+02 0.644041837543029D+02
 0.119047808047075D+03 0.406304847801541D+02 -.436626782036379D+02 -.644041837543029D+02
 0.160612792745175D+03 -.110018283412666D+03 0.332643052204925D+01 -.116967437213596D+03
0.382122700849D-03 0.000000000000D+00 0.000000000000D+00 0.205414560371D-02 0.000000000000D+00  5 2 -1 25 24 21 0 0.25566981D+00 0.15465059D-02 0.12450300D+05 0.12450300D+05 0.12450300D+05 0.12571534D+01  1  2  2  1  5  1        2 0.469211214295D+00 0.100000000000D+01
-.206713205030D-04 0.000000000000D+00 -.146745178648D-05 0.205414560371D-02 0.000000000000D+00  5 2 -1 25 24 21 2 0.25566981D+00 0.15465059D-02 0.12450300D+05 0.12450300D+05 0.12450300D+05 0.12571534D+01  1  2  3  1  5  1        2 -.401153253360D-01 0.100000000000D+01
0.262788150178D-04 0.000000000000D+00 0.000000000000D+00 0.205414560371D-02 0.000000000000D+00  5 2 -1 25 24 21 2 0.25566981D+00 0.15465059D-02 0.12450300D+05 0.12450300D+05 0.12450300D+05 0.12571534D+01  1  2 15  1  5  1        2 0.509973813105D-01 0.100000000000D+01
  </mgrwgt>
  </event>
  <event>
  5     66 0.48098993E-03 0.10351161E+03 0.75467711E-02 0.12325545E+00
       21 -1    0    0  501  502 0.00000000E+00 0.00000000E+00 0.11745469E+03 0.11745708E+03 0.75000000E+00 0.0000E+00 0.9000E+01
       -3 -1    0    0    0  501 0.00000000E+00 0.00000000E+00 -.43420613E+03 0.43420642E+03 0.50000000E+00 0.0000E+00 0.9000E+01
       25  1    1    2    0    0 -.36483274E+01 0.11836779E+02 -.38207634E+03 0.40219491E+03 0.12500000E+03 0.0000E+00 0.9000E+01
       24  1    1    2    0    0 -.24867965E+02 0.18301441E+02 0.20859793E+02 0.88632417E+02 0.80419002E+02 0.0000E+00 0.9000E+01
       -4  1    1    2    0  502 0.28516292E+02 -.30138220E+02 0.44465105E+02 0.60836167E+02 0.15500000E+01 0.0000E+00 0.9000E+01
#aMCatNLO 2  0  0  1  2 0.41490857D+02 0.00000000D+00  -5  5  0 0.00000000D+00 0.00000000D+00 0.00000000D+00 0.00000000D+00 0.00000000D+00
  <mgrwgt>
 0.5835668928D-01    2    2    0
 0.164857956712118D+03 0.000000000000000D+00 0.000000000000000D+00 0.164857956712118D+03
 0.164857956712118D+03 0.000000000000000D+00 0.000000000000000D+00 -.164857956712118D+03
 0.178745342295850D+03 0.117496621447502D+02 -.443700551393439D+01 -.127150131002740D+03
 0.150970571128386D+03 -.117496621447502D+02 0.443700551393439D+01 0.127150131002740D+03
 0.000000000000000D+00 0.000000000000000D+00 -.000000000000000D+00 0.000000000000000D+00
 0.301144386113430D+03 0.000000000000000D+00 0.000000000000000D+00 0.301144386113430D+03
 0.169346384430017D+03 0.000000000000000D+00 0.000000000000000D+00 -.169346384430017D+03
 0.178733252219324D+03 -.364832739651740D+01 0.118367792110127D+02 -.127150131002740D+03
 0.153582974858639D+03 -.248679645768840D+02 0.183014408134352D+02 0.127150131002740D+03
 0.138174543465485D+03 0.285162919734014D+02 -.301382200244480D+02 0.131798001683413D+03
-.274394952725D-03 0.000000000000D+00 0.000000000000D+00 0.103291408330D-02 0.000000000000D+00  5 21 -3 25 24 -4 2 0.18101369D-01 0.65028984D-01 0.16033358D+05 0.16033358D+05 0.16033358D+05 0.12445375D+01  1  2 13  3  5  1        4 -.134275348055D+00 0.100000000000D+01
0.415057918403D-03 0.000000000000D+00 0.000000000000D+00 0.103291408330D-02 0.455633099182D-06  5 21 -3 25 24 -4 2 0.18069703D-01 0.66799465D-01 0.16033358D+05 0.16033358D+05 0.16033358D+05 0.12445375D+01  1  2  1  3  5  1        4 0.192632037337D+00 0.100000000000D+01
  </mgrwgt>
  </event>
  <event>
  4     66 0.48098993E-03 0.18067592E+03 0.75467711E-02 0.11515384E+00
        4 -1    0    0  501    0 0.00000000E+00 0.00000000E+00 0.45790616E+02 0.45816842E+02 0.15500000E+01 0.0000E+00 0.9000E+01
       -3 -1    0    0    0  501 0.00000000E+00 0.00000000E+00 -.73928829E+03 0.73928846E+03 0.50000000E+00 0.0000E+00 0.9000E+01
       25  1    1    2    0    0 -.11518094E+03 0.92149887E+02 -.29588821E+03 0.35345874E+03 0.12500000E+03 0.0000E+00 0.9000E+01
       24  1    1    2    0    0 0.11518094E+03 -.92149887E+02 -.39760947E+03 0.43164656E+03 0.80419002E+02 0.0000E+00 0.9000E+01
#aMCatNLO 1  0  0  1  1 0.32894673D+02 0.00000000D+00  -5  5  0 0.00000000D+00 0.00000000D+00 0.00000000D+00 0.00000000D+00 0.00000000D+00
  <mgrwgt>
 0.1205480386D+00    3    2    0
 0.184018552022058D+03 0.000000000000000D+00 0.000000000000000D+00 0.184018552022058D+03
 0.184018552022058D+03 0.000000000000000D+00 0.000000000000000D+00 -.184018552022058D+03
 0.196459938970549D+03 -.115180936094104D+03 0.921498870248269D+02 0.348318518329015D+02
 0.171577165073568D+03 0.115180936094104D+03 -.921498870248269D+02 -.348318518329015D+02
 0.000000000000000D+00 -.000000000000000D+00 -.000000000000000D+00 -.000000000000000D+00
 0.185050839041353D+03 0.000000000000000D+00 0.000000000000000D+00 0.185050839041353D+03
 0.109030654649991D+04 0.000000000000000D+00 0.000000000000000D+00 -.109030654649991D+04
 0.191262358841269D+03 -.994280444242409D+02 0.992829088483420D+02 0.348318518329015D+02
 0.178241862331033D+03 0.129393843821780D+03 -.857141809257958D+02 -.348318518329015D+02
 0.905853164368964D+03 -.299657993975390D+02 -.135687279225462D+02 -.905255707458559D+03
0.626104528428D-02 0.000000000000D+00 0.000000000000D+00 0.214293548078D-02 0.000000000000D+00  5 4 -3 25 24 21 0 0.70467405D-02 0.11373869D+00 0.32643789D+05 0.32643789D+05 0.32643789D+05 0.12110675D+01  1  2  2  1  5  1        4 0.118208929040D+00 0.100000000000D+01
-.347693728181D-03 0.000000000000D+00 -.240440624627D-04 0.214293548078D-02 0.000000000000D+00  5 4 -3 25 24 21 2 0.70467405D-02 0.11373869D+00 0.32643789D+05 0.32643789D+05 0.32643789D+05 0.12110675D+01  1  2  3  1  5  1        4 -.962802049384D-02 0.100000000000D+01
0.432165270167D-03 0.000000000000D+00 0.000000000000D+00 0.214293548078D-02 0.000000000000D+00  5 4 -3 25 24 21 2 0.70467405D-02 0.11373869D+00 0.32643789D+05 0.32643789D+05 0.32643789D+05 0.12110675D+01  1  2 15  1  5  1        4 0.119671300937D-01 0.100000000000D+01
  </mgrwgt>
  </event>
  <event>
  4     66 0.48098993E-03 0.80237320E+02 0.75467711E-02 0.11668173E+00
        2 -1    0    0  501    0 0.00000000E+00 0.00000000E+00 0.37513444E+04 0.37513444E+04 0.32000000E+00 0.0000E+00 0.9000E+01
       -1 -1    0    0    0  501 0.00000000E+00 0.00000000E+00 -.65692769E+01 0.65770661E+01 0.32000000E+00 0.0000E+00 0.9000E+01
       25  1    1    2    0    0 0.11057011E+03 -.39492174E+02 0.21213024E+04 0.21282233E+04 0.12500000E+03 0.0000E+00 0.9000E+01
       24  1    1    2    0    0 -.11057011E+03 0.39492174E+02 0.16234727E+04 0.16296982E+04 0.80419002E+02 0.0000E+00 0.9000E+01
#aMCatNLO 1  0  0  1  2 0.45029086D+02 0.00000000D+00  -5  5  0 0.00000000D+00 0.00000000D+00 0.00000000D+00 0.00000000D+00 0.00000000D+00
  <mgrwgt>
 0.7050616330D+00    9    2    0
 0.157029554882427D+03 0.000000000000000D+00 0.000000000000000D+00 0.157029554882427D+03
 0.157029554882427D+03 0.000000000000000D+00 0.000000000000000D+00 -.157029554882427D+03
 0.171609268956772D+03 0.110570111482767D+03 -.394921736723579D+02 0.627374347566466D+01
 0.142449840808083D+03 -.110570111482767D+03 0.394921736723579D+02 -.627374347566466D+01
 0.000000000000000D+00 -.000000000000000D+00 0.000000000000000D+00 0.000000000000000D+00
 0.198532134700100D+03 0.000000000000000D+00 0.000000000000000D+00 0.198532134700100D+03
 0.171340798821283D+03 0.000000000000000D+00 0.000000000000000D+00 -.171340798821283D+03
 0.185130873648640D+03 0.121198300257436D+03 -.626103229141867D+02 0.627374347566466D+01
 0.132139898771320D+03 -.102389390450020D+03 0.216976901765854D+02 -.627374347566466D+01
 0.526021611014223D+02 -.188089098074156D+02 0.409126327376012D+02 0.271913358788171D+02
0.246588777172D-02 0.000000000000D+00 0.000000000000D+00 0.235383081659D-02 0.000000000000D+00  5 2 -1 25 24 21 0 0.57713050D+00 0.10112582D-02 0.24618578D+05 0.24618578D+05 0.24618578D+05 0.12240142D+01  1  2  2  1  5  1        2 0.364617016654D+00 0.100000000000D+01
-.136993656968D-03 0.000000000000D+00 -.946965832658D-05 0.235383081659D-02 0.000000000000D+00  5 2 -1 25 24 21 2 0.57713050D+00 0.10112582D-02 0.24618578D+05 0.24618578D+05 0.24618578D+05 0.12240142D+01  1  2  3  1  5  1        2 -.303484813523D-01 0.100000000000D+01
0.170635274505D-03 0.000000000000D+00 0.000000000000D+00 0.235383081659D-02 0.000000000000D+00  5 2 -1 25 24 21 2 0.57713050D+00 0.10112582D-02 0.24618578D+05 0.24618578D+05 0.24618578D+05 0.12240142D+01  1  2 15  1  5  1        2 0.378011767914D-01 0.100000000000D+01
0.145896630621D-02 0.000000000000D+00 0.000000000000D+00 0.235383081659D-02 0.000000000000D+00  5 2 -1 25 24 21 2 0.75068073D+00 0.10112582D-02 0.32769057D+05 0.32769057D+05 0.32769057D+05 0.12108947D+01  1  2 12  1  5  1        2 0.330645466602D-01 0.100000000000D+01
-.152756575905D-02 0.000000000000D+00 0.000000000000D+00 0.235383081659D-02 0.000000000000D+00  5 2 -1 25 24 21 2 0.57713050D+00 0.10112582D-02 0.24618578D+05 0.24618578D+05 0.24618578D+05 0.12240142D+01  1  2  4  1  5  1        2 -.338404726020D+00 0.100000000000D+01
-.298072770162D-02 0.000000000000D+00 -.758786003484D-03 0.235383081659D-02 0.000000000000D+00  5 2 -1 25 24 21 2 0.73829225D+00 0.10112582D-02 0.24618578D+05 0.24618578D+05 0.24618578D+05 0.12240142D+01  1  2  5  1  5  1        2 -.857251328425D-01 0.100000000000D+01
0.326853440830D-02 0.000000000000D+00 0.800028568205D-03 0.235383081659D-02 0.000000000000D+00  5 2 -1 25 24 21 2 0.57713050D+00 0.10112582D-02 0.24618578D+05 0.24618578D+05 0.24618578D+05 0.12240142D+01  1  2  6  1  5  1        2 0.724085025065D+00 0.100000000000D+01
0.512379972005D-04 0.000000000000D+00 0.000000000000D+00 0.235383081659D-02 0.000000000000D+00  5 21 -1 25 24 -2 2 0.75068073D+00 0.10112582D-02 0.32769057D+05 0.32769057D+05 0.32769057D+05 0.12108947D+01  1  2 12  3  5  1        2 0.194613016870D-04 0.100000000000D+01
-.873575649325D-04 0.000000000000D+00 -.253963471504D-04 0.235383081659D-02 0.000000000000D+00  5 21 -1 25 24 -2 2 0.73829225D+00 0.10112582D-02 0.24618578D+05 0.24618578D+05 0.24618578D+05 0.12240142D+01  1  2  5  3  5  1        2 -.472532488906D-04 0.100000000000D+01
  </mgrwgt>
  </event>
  <event>
  4     66 0.48098993E-03 0.11154265E+03 0.75467711E-02 0.12536555E+00
        2 -1    0    0  501    0 0.00000000E+00 0.00000000E+00 0.13341855E+04 0.13341855E+04 0.32000000E+00 0.0000E+00 0.9000E+01
       -1 -1    0    0    0  501 0.00000000E+00 0.00000000E+00 -.93233785E+01 0.93288685E+01 0.32000000E+00 0.0000E+00 0.9000E+01
       25  1    1    2    0    0 0.55042371E+00 -.42622044E+02 0.77819850E+03 0.78932557E+03 0.12500000E+03 0.0000E+00 0.9000E+01
       24  1    1    2    0    0 -.55042371E+00 0.42622044E+02 0.54666360E+03 0.55418882E+03 0.80419002E+02 0.0000E+00 0.9000E+01
#aMCatNLO 1  0  0  2  2 0.45086038D+01 0.00000000D+00  -5  5  0 0.00000000D+00 0.00000000D+00 0.00000000D+00 0.00000000D+00 0.00000000D+00
  <mgrwgt>
 0.3737237531D+00    6    2    0
 0.111547433685341D+03 0.000000000000000D+00 0.000000000000000D+00 0.111547433685341D+03
 0.111547433685341D+03 0.000000000000000D+00 0.000000000000000D+00 -.111547433685341D+03
 0.132071850391023D+03 0.550423708942776D+00 -.426220437662620D+02 -.101591566398282D+01
 0.910230169796595D+02 -.550423708942776D+00 0.426220437662620D+02 0.101591566398282D+01
 0.000000000000000D+00 0.000000000000000D+00 -.000000000000000D+00 0.000000000000000D+00
 0.116607384990804D+03 0.000000000000000D+00 0.000000000000000D+00 0.116607384990804D+03
 0.112579084859597D+03 0.000000000000000D+00 0.000000000000000D+00 -.112579084859597D+03
 0.131850015048493D+03 -.201223897886436D+01 -.418849051323199D+02 -.101591566398282D+01
 0.912904056631821D+02 -.232067417650130D+01 0.431312485155254D+02 0.101591566398282D+01
 0.604604913872534D+01 0.433291315536566D+01 -.124634338320554D+01 0.402830013120675D+01
0.161109371401D-03 0.000000000000D+00 0.000000000000D+00 0.297035436002D-02 0.000000000000D+00  5 2 -1 25 24 21 0 0.20525973D+00 0.14347912D-02 0.12441762D+05 0.12441762D+05 0.12441762D+05 0.12571882D+01  1  2  2  2  5  2       -1 0.325278153898D+00 0.100000000000D+01
-.895052061335D-05 0.000000000000D+00 -.618702407252D-06 0.297035436002D-02 0.000000000000D+00  5 2 -1 25 24 21 2 0.20525973D+00 0.14347912D-02 0.12441762D+05 0.12441762D+05 0.12441762D+05 0.12571882D+01  1  2  3  2  5  2       -1 -.285616279728D-01 0.100000000000D+01
0.111326150210D-04 0.000000000000D+00 0.000000000000D+00 0.297035436002D-02 0.000000000000D+00  5 2 -1 25 24 21 2 0.20525973D+00 0.14347912D-02 0.12441762D+05 0.12441762D+05 0.12441762D+05 0.12571882D+01  1  2 15  2  5  2       -1 0.355248171955D-01 0.100000000000D+01
-.882449914432D-04 0.000000000000D+00 0.000000000000D+00 0.297035436002D-02 0.000000000000D+00  5 2 -1 25 24 21 2 0.20525973D+00 0.14347912D-02 0.12441762D+05 0.12441762D+05 0.12441762D+05 0.12571882D+01  1  2  4  2  5  2       -1 -.281594861901D+00 0.100000000000D+01
0.765328805867D-04 0.000000000000D+00 0.000000000000D+00 0.297035436002D-02 0.122900964765D-02  5 2 -1 25 24 21 2 0.21457061D+00 0.14480609D-02 0.12954931D+05 0.12954931D+05 0.12954931D+05 0.12551454D+01  1  2 11  2  5  2       -1 0.223531143660D+00 0.100000000000D+01
0.154622195559D-05 0.000000000000D+00 0.000000000000D+00 0.297035436002D-02 0.214360959937D-05  5 2 21 25 24 1 2 0.21457061D+00 0.14480609D-02 0.12954931D+05 0.12954931D+05 0.12954931D+05 0.12551454D+01  1  2 11  4  5  2       -1 0.995461282254D-01 0.100000000000D+01
  </mgrwgt>
  </event>
  <event>
  4     66 0.48098993E-03 0.12751014E+03 0.75467711E-02 0.11683370E+00
        2 -1    0    0  501    0 0.00000000E+00 0.00000000E+00 0.11770040E+04 0.11770040E+04 0.32000000E+00 0.0000E+00 0.9000E+01
       -1 -1    0    0    0  501 0.00000000E+00 0.00000000E+00 -.14132935E+02 0.14136557E+02 0.32000000E+00 0.0000E+00 0.9000E+01
       25  1    1    2    0    0 -.43042534E+02 0.60683198E+02 0.57256599E+03 0.59075538E+03 0.12500000E+03 0.0000E+00 0.9000E+01
       24  1    1    2    0    0 0.43042534E+02 -.60683198E+02 0.59030505E+03 0.60038519E+03 0.80419002E+02 0.0000E+00 0.9000E+01
#aMCatNLO 1  0  0  1  2 0.88924150D+02 0.00000000D+00  -5  5  0 0.00000000D+00 0.00000000D+00 0.00000000D+00 0.00000000D+00 0.00000000D+00
  <mgrwgt>
 0.3790596067D+00    7    2    0
 0.128983345590797D+03 0.000000000000000D+00 0.000000000000000D+00 0.128983345590797D+03
 0.128983345590797D+03 0.000000000000000D+00 0.000000000000000D+00 -.128983345590797D+03
 0.146733280676763D+03 -.430425338868698D+02 0.606831975880014D+02 -.192495575341108D+02
 0.111233410504831D+03 0.430425338868698D+02 -.606831975880014D+02 0.192495575341108D+02
 0.000000000000000D+00 0.000000000000000D+00 0.000000000000000D+00 0.000000000000000D+00
 0.192908946071022D+03 0.000000000000000D+00 0.000000000000000D+00 0.192908946071022D+03
 0.171434580876731D+03 0.000000000000000D+00 0.000000000000000D+00 -.171434580876731D+03
 0.168017707041721D+03 -.955371983775743D+02 0.557409018626587D+02 -.192495575341108D+02
 0.104845478827261D+03 0.700455706832681D+01 -.640761202880184D+02 0.192495575341108D+02
 0.914803410787701D+02 0.885326413092475D+02 0.833521842535962D+01 0.214743651942910D+02
0.241630486441D-03 0.000000000000D+00 0.000000000000D+00 0.258337312582D-02 0.000000000000D+00  5 2 -1 25 24 21 0 0.18107782D+00 0.21745796D-02 0.16258836D+05 0.16258836D+05 0.16258836D+05 0.12438523D+01  1  2  2  1  5  1        2 0.329789641209D+00 0.100000000000D+01
-.134217621179D-04 0.000000000000D+00 -.927924690702D-06 0.258337312582D-02 0.000000000000D+00  5 2 -1 25 24 21 2 0.18107782D+00 0.21745796D-02 0.16258836D+05 0.16258836D+05 0.16258836D+05 0.12438523D+01  1  2  3  1  5  1        2 -.283421291256D-01 0.100000000000D+01
0.167418567512D-04 0.000000000000D+00 0.000000000000D+00 0.258337312582D-02 0.000000000000D+00  5 2 -1 25 24 21 2 0.18107782D+00 0.21745796D-02 0.16258836D+05 0.16258836D+05 0.16258836D+05 0.12438523D+01  1  2 15  1  5  1        2 0.353530230736D-01 0.100000000000D+01
-.933847649620D-04 0.000000000000D+00 0.000000000000D+00 0.258337312582D-02 0.000000000000D+00  5 2 -1 25 24 21 2 0.18107782D+00 0.21745796D-02 0.16258836D+05 0.16258836D+05 0.16258836D+05 0.12438523D+01  1  2  4  1  5  1        2 -.197196392222D+00 0.100000000000D+01
-.125400215044D-03 0.000000000000D+00 -.828742773981D-04 0.258337312582D-02 0.000000000000D+00  5 2 -1 25 24 21 2 0.31567206D+00 0.21745796D-02 0.16258836D+05 0.16258836D+05 0.16258836D+05 0.12438523D+01  1  2  5  1  5  1        2 -.928932494668D-01 0.100000000000D+01
0.157792007009D-03 0.000000000000D+00 0.715382721700D-04 0.258337312582D-02 0.000000000000D+00  5 2 -1 25 24 21 2 0.18107782D+00 0.21745796D-02 0.16258836D+05 0.16258836D+05 0.16258836D+05 0.12438523D+01  1  2  6  1  5  1        2 0.333202257523D+00 0.100000000000D+01
-.352635031696D-05 0.000000000000D+00 -.509315962283D-05 0.258337312582D-02 0.000000000000D+00  5 21 -1 25 24 -2 2 0.31567206D+00 0.21745796D-02 0.16258836D+05 0.16258836D+05 0.16258836D+05 0.12438523D+01  1  2  5  3  5  1        2 -.853544302377D-03 0.100000000000D+01
  </mgrwgt>
  </event>
  <event>
  4     66 0.48098993E-03 0.10892658E+03 0.75467711E-02 0.12112281E+00
        2 -1    0    0  501    0 0.00000000E+00 0.00000000E+00 0.10030717E+03 0.10030768E+03 0.32000000E+00 0.0000E+00 0.9000E+01
       -1 -1    0    0    0  501 0.00000000E+00 0.00000000E+00 -.12242576E+03 0.12242618E+03 0.32000000E+00 0.0000E+00 0.9000E+01
       25  1    1    2    0    0 0.33460127E+02 -.11877638E+02 0.69869469E+01 0.13013253E+03 0.12500000E+03 0.0000E+00 0.9000E+01
       24  1    1    2    0    0 -.33460127E+02 0.11877638E+02 -.29105539E+02 0.92601332E+02 0.80419002E+02 0.0000E+00 0.9000E+01
#aMCatNLO 1  0  0  2  2 0.57712517D+02 0.00000000D+00  -5  5  0 0.00000000D+00 0.00000000D+00 0.00000000D+00 0.00000000D+00 0.00000000D+00
  <mgrwgt>
 0.2016974515D+00    4    2    0
 0.110816449645804D+03 0.000000000000000D+00 0.000000000000000D+00 0.110816449645804D+03
 0.110816449645804D+03 0.000000000000000D+00 0.000000000000000D+00 -.110816449645804D+03
 0.131476252578716D+03 0.334601272773657D+02 -.118776375104202D+02 0.200086631711361D+02
 0.901566467128906D+02 -.334601272773657D+02 0.118776375104202D+02 -.200086631711361D+02
 0.000000000000000D+00 0.000000000000000D+00 0.000000000000000D+00 0.000000000000000D+00
 0.150285400421287D+03 0.000000000000000D+00 0.000000000000000D+00 0.150285400421287D+03
 0.137788405350181D+03 0.000000000000000D+00 0.000000000000000D+00 -.137788405350181D+03
 0.129893414024531D+03 0.454881958595908D+01 -.287447498758745D+02 0.200086631711361D+02
 0.991303328254905D+02 -.543980355608021D+02 -.337723188026045D+00 -.200086631711361D+02
 0.590500589214464D+02 0.498492159748430D+02 0.290824730639005D+02 0.124969950711061D+02
0.344801058936D-03 0.000000000000D+00 0.000000000000D+00 0.290765688328D-02 0.000000000000D+00  5 2 -1 25 24 21 0 0.15431944D-01 0.18834804D-01 0.11865000D+05 0.11865000D+05 0.11865000D+05 0.12596004D+01  1  2  2  2  5  2       -1 0.305321651470D+00 0.100000000000D+01
-.191487232137D-04 0.000000000000D+00 -.132412685452D-05 0.290765688328D-02 0.000000000000D+00  5 2 -1 25 24 21 2 0.15431944D-01 0.18834804D-01 0.11865000D+05 0.11865000D+05 0.11865000D+05 0.12596004D+01  1  2  3  2  5  2       -1 -.269026086893D-01 0.100000000000D+01
0.238579053199D-04 0.000000000000D+00 0.000000000000D+00 0.290765688328D-02 0.000000000000D+00  5 2 -1 25 24 21 2 0.15431944D-01 0.18834804D-01 0.11865000D+05 0.11865000D+05 0.11865000D+05 0.12596004D+01  1  2 15  2  5  2       -1 0.335186781806D-01 0.100000000000D+01
-.784667550611D-04 0.000000000000D+00 0.000000000000D+00 0.290765688328D-02 0.000000000000D+00  5 2 -1 25 24 21 2 0.15431944D-01 0.18834804D-01 0.11865000D+05 0.11865000D+05 0.11865000D+05 0.12596004D+01  1  2  4  2  5  2       -1 -.110240269441D+00 0.100000000000D+01
  </mgrwgt>
  </event>
  <event>
  4     66 0.48098993E-03 0.11727891E+03 0.75467711E-02 0.11178676E+00
        2 -1    0    0  501    0 0.00000000E+00 0.00000000E+00 0.64001432E+02 0.64002232E+02 0.32000000E+00 0.0000E+00 0.9000E+01
       -1 -1    0    0    0  501 0.00000000E+00 0.00000000E+00 -.26356567E+03 0.26356587E+03 0.32000000E+00 0.0000E+00 0.9000E+01
       25  1    1    2    0    0 -.14448278E+01 0.55562870E+02 -.18290004E+03 0.22840041E+03 0.12500000E+03 0.0000E+00 0.9000E+01
       24  1    1    2    0    0 0.14448278E+01 -.55562870E+02 -.16664198E+02 0.99167694E+02 0.80419002E+02 0.0000E+00 0.9000E+01
#aMCatNLO 1  0  0  1  2 0.18616736D+03 0.00000000D+00  -5  5  0 0.00000000D+00 0.00000000D+00 0.00000000D+00 0.00000000D+00 0.00000000D+00
  <mgrwgt>
 0.3400367581D+00    3    2    0
 0.129879726822326D+03 0.000000000000000D+00 0.000000000000000D+00 0.129879726822326D+03
 0.129879726822326D+03 0.000000000000000D+00 0.000000000000000D+00 -.129879726822326D+03
 0.147507158504095D+03 -.144482781336191D+01 0.555628696969680D+02 -.551728356492557D+02
 0.112252295140558D+03 0.144482781336191D+01 -.555628696969680D+02 0.551728356492557D+02
 0.000000000000000D+00 0.000000000000000D+00 0.000000000000000D+00 -.000000000000000D+00
 0.240522584553627D+03 0.000000000000000D+00 0.000000000000000D+00 0.240522584553627D+03
 0.267117765405640D+03 0.000000000000000D+00 0.000000000000000D+00 -.267117765405640D+03
 0.176970691543923D+03 -.104701846954148D+03 0.410744095069518D+02 -.551728356492557D+02
 0.142612252410414D+03 -.796594862742833D+02 -.669429834720447D+02 0.551728356492557D+02
 0.188057406004931D+03 0.184361333228431D+03 0.258685739650929D+02 -.265951808520128D+02
0.780691596757D-03 0.000000000000D+00 0.000000000000D+00 0.220391420331D-02 0.000000000000D+00  5 2 -1 25 24 21 0 0.98464507D-02 0.40548641D-01 0.13754344D+05 0.13754344D+05 0.13754344D+05 0.12521378D+01  1  2  2  1  5  1        2 0.332633352593D+00 0.100000000000D+01
-.428225340644D-04 0.000000000000D+00 -.299806129237D-05 0.220391420331D-02 0.000000000000D+00  5 2 -1 25 24 21 2 0.98464507D-02 0.40548641D-01 0.13754344D+05 0.13754344D+05 0.13754344D+05 0.12521378D+01  1  2  3  1  5  1        2 -.286063806419D-01 0.100000000000D+01
0.539051169800D-04 0.000000000000D+00 0.000000000000D+00 0.220391420331D-02 0.000000000000D+00  5 2 -1 25 24 21 2 0.98464507D-02 0.40548641D-01 0.13754344D+05 0.13754344D+05 0.13754344D+05 0.12521378D+01  1  2 15  1  5  1        2 0.360097861691D-01 0.100000000000D+01
  </mgrwgt>
  </event>
  <event>
  4     66 0.48098993E-03 0.40492461E+02 0.75467711E-02 0.12373607E+00
        2 -1    0    0  501    0 0.00000000E+00 0.00000000E+00 0.37649449E+02 0.37650809E+02 0.32000000E+00 0.0000E+00 0.9000E+01
       -1 -1    0    0    0  501 0.00000000E+00 0.00000000E+00 -.34429994E+03 0.34430009E+03 0.32000000E+00 0.0000E+00 0.9000E+01
       25  1    1    2    0    0 0.42735553E+02 -.82680292E+01 -.14576234E+03 0.19689171E+03 0.12500000E+03 0.0000E+00 0.9000E+01
       24  1    1    2    0    0 -.42735553E+02 0.82680292E+01 -.16088815E+03 0.18505918E+03 0.80419002E+02 0.0000E+00 0.9000E+01
#aMCatNLO 1  0  0  1  2 0.22239338D+02 0.00000000D+00  -5  5  0 0.00000000D+00 0.00000000D+00 0.00000000D+00 0.00000000D+00 0.00000000D+00
  <mgrwgt>
 0.2479426741D+00    9    2    0
 0.113855132165479D+03 0.000000000000000D+00 0.000000000000000D+00 0.113855132165479D+03
 0.113855132165479D+03 0.000000000000000D+00 0.000000000000000D+00 -.113855132165479D+03
 0.133963545092178D+03 0.427355531902668D+02 -.826802923904732D+01 0.206529319876915D+02
 0.937467192387798D+02 -.427355531902668D+02 0.826802923904732D+01 -.206529319876915D+02
 0.000000000000000D+00 -.000000000000000D+00 -.000000000000000D+00 0.000000000000000D+00
 0.131628021449280D+03 0.000000000000000D+00 0.000000000000000D+00 0.131628021449280D+03
 0.121572619956770D+03 0.000000000000000D+00 0.000000000000000D+00 -.121572619956770D+03
 0.138539489296161D+03 0.557599553455640D+02 -.569858531687516D+01 0.206529319876915D+02
 0.902542008531676D+02 -.339411484395035D+02 0.100029825648535D+02 -.206529319876915D+02
 0.244069512567207D+02 -.218188069060605D+02 -.430439724797838D+01 0.100554014925105D+02
0.378524679731D-03 0.000000000000D+00 0.000000000000D+00 0.283214862691D-02 0.000000000000D+00  5 2 -1 25 24 21 0 0.57923390D-02 0.52969337D-01 0.12522215D+05 0.12522215D+05 0.12522215D+05 0.12568617D+01  1  2  2  1  5  1        2 0.193850210835D+00 0.100000000000D+01
-.210214990691D-04 0.000000000000D+00 -.145363443800D-05 0.283214862691D-02 0.000000000000D+00  5 2 -1 25 24 21 2 0.57923390D-02 0.52969337D-01 0.12522215D+05 0.12522215D+05 0.12522215D+05 0.12568617D+01  1  2  3  1  5  1        2 -.170063356942D-01 0.100000000000D+01
0.262563019990D-04 0.000000000000D+00 0.000000000000D+00 0.283214862691D-02 0.000000000000D+00  5 2 -1 25 24 21 2 0.57923390D-02 0.52969337D-01 0.12522215D+05 0.12522215D+05 0.12522215D+05 0.12568617D+01  1  2 15  1  5  1        2 0.212412770571D-01 0.100000000000D+01
0.562972602575D-03 0.000000000000D+00 0.000000000000D+00 0.283214862691D-02 0.000000000000D+00  5 2 -1 25 24 21 2 0.68695544D-02 0.52969337D-01 0.15263388D+05 0.15263388D+05 0.15263388D+05 0.12469616D+01  1  2 12  1  5  1        2 0.362930475722D+00 0.100000000000D+01
-.549772631742D-03 0.000000000000D+00 0.000000000000D+00 0.283214862691D-02 0.000000000000D+00  5 2 -1 25 24 21 2 0.57923390D-02 0.52969337D-01 0.12522215D+05 0.12522215D+05 0.12522215D+05 0.12568617D+01  1  2  4  1  5  1        2 -.444764566986D+00 0.100000000000D+01
-.124844938273D-02 0.000000000000D+00 -.313578620671D-03 0.283214862691D-02 0.000000000000D+00  5 2 -1 25 24 21 2 0.71428549D-02 0.52969337D-01 0.12522215D+05 0.12522215D+05 0.12522215D+05 0.12568617D+01  1  2  5  1  5  1        2 -.773518104238D+00 0.100000000000D+01
0.129244322076D-02 0.000000000000D+00 0.306815899748D-03 0.283214862691D-02 0.000000000000D+00  5 2 -1 25 24 21 2 0.57923390D-02 0.52969337D-01 0.12522215D+05 0.12522215D+05 0.12522215D+05 0.12568617D+01  1  2  6  1  5  1        2 0.104558305788D+01 0.100000000000D+01
0.142320550033D-04 0.000000000000D+00 0.000000000000D+00 0.283214862691D-02 0.000000000000D+00  5 21 -1 25 24 -2 2 0.68695544D-02 0.52969337D-01 0.15263388D+05 0.15263388D+05 0.15263388D+05 0.12469616D+01  1  2 12  3  5  1        2 0.116620297216D+00 0.100000000000D+01
-.331131979011D-04 0.000000000000D+00 -.929990880496D-05 0.283214862691D-02 0.000000000000D+00  5 21 -1 25 24 -2 2 0.71428549D-02 0.52969337D-01 0.12522215D+05 0.12522215D+05 0.12522215D+05 0.12568617D+01  1  2  5  3  5  1        2 -.256993637734D+00 0.100000000000D+01
  </mgrwgt>
  </event>
  <event>
  4     66 0.48098993E-03 0.13784760E+03 0.75467711E-02 0.10619827E+00
        2 -1    0    0  501    0 0.00000000E+00 0.00000000E+00 0.13175634E+03 0.13175673E+03 0.32000000E+00 0.0000E+00 0.9000E+01
       -1 -1    0    0    0  501 0.00000000E+00 0.00000000E+00 -.22923582E+03 0.22923604E+03 0.32000000E+00 0.0000E+00 0.9000E+01
       25  1    1    2    0    0 -.46521721E+02 0.77893675E+02 0.56982805E+02 0.16463212E+03 0.12500000E+03 0.0000E+00 0.9000E+01
       24  1    1    2    0    0 0.46521721E+02 -.77893675E+02 -.15446228E+03 0.19636065E+03 0.80419002E+02 0.0000E+00 0.9000E+01
#aMCatNLO 1  0  0  1  2 0.30354147D+03 0.00000000D+00  -5  5  0 0.00000000D+00 0.00000000D+00 0.00000000D+00 0.00000000D+00 0.00000000D+00
  <mgrwgt>
 0.3436552130D+00    3    2    0
 0.173791207822675D+03 0.000000000000000D+00 0.000000000000000D+00 0.173791207822675D+03
 0.173791207822675D+03 0.000000000000000D+00 0.000000000000000D+00 -.173791207822675D+03
 0.186964751180193D+03 -.465217211906246D+02 0.778936748721993D+02 0.105352375655404D+03
 0.160617664465158D+03 0.465217211906246D+02 -.778936748721993D+02 -.105352375655404D+03
 0.000000000000000D+00 -.000000000000000D+00 -.000000000000000D+00 -.000000000000000D+00
 0.300608693990774D+03 0.000000000000000D+00 0.000000000000000D+00 0.300608693990774D+03
 0.560380902479501D+03 0.000000000000000D+00 0.000000000000000D+00 -.560380902479501D+03
 0.312429169075166D+03 -.301195708971247D+02 0.264538606032720D+03 0.105352375655404D+03
 0.149036929847800D+03 0.566920516431795D+02 0.378375306849846D+02 -.105352375655404D+03
 0.399523497547309D+03 -.265724807460548D+02 -.302376136717705D+03 -.259772208488727D+03
0.143254712982D-02 0.000000000000D+00 0.000000000000D+00 0.148379105259D-02 0.000000000000D+00  5 2 -1 25 24 21 0 0.20270254D-01 0.35267096D-01 0.19001960D+05 0.19001960D+05 0.19001960D+05 0.12362811D+01  1  2  2  1  5  1        2 0.335152968913D+00 0.100000000000D+01
-.743908723010D-04 0.000000000000D+00 -.550135817685D-05 0.148379105259D-02 0.000000000000D+00  5 2 -1 25 24 21 2 0.20270254D-01 0.35267096D-01 0.19001960D+05 0.19001960D+05 0.19001960D+05 0.12362811D+01  1  2  3  1  5  1        2 -.266004051340D-01 0.100000000000D+01
0.981683054237D-04 0.000000000000D+00 0.000000000000D+00 0.148379105259D-02 0.000000000000D+00  5 2 -1 25 24 21 2 0.20270254D-01 0.35267096D-01 0.19001960D+05 0.19001960D+05 0.19001960D+05 0.12362811D+01  1  2 15  1  5  1        2 0.351026492205D-01 0.100000000000D+01
  </mgrwgt>
  </event>
  <event>
  4     66 0.48098993E-03 0.23837015E+03 0.75467711E-02 0.96974513E-01
        2 -1    0    0  501    0 0.00000000E+00 0.00000000E+00 0.35902078E+03 0.35902092E+03 0.32000000E+00 0.0000E+00 0.9000E+01
       -1 -1    0    0    0  501 0.00000000E+00 0.00000000E+00 -.15826791E+03 0.15826824E+03 0.32000000E+00 0.0000E+00 0.9000E+01
       25  1    1    2    0    0 0.11802270E+03 -.17870958E+03 0.10563694E+03 0.26953781E+03 0.12500000E+03 0.0000E+00 0.9000E+01
       24  1    1    2    0    0 -.11802270E+03 0.17870958E+03 0.95115924E+02 0.24775134E+03 0.80419002E+02 0.0000E+00 0.9000E+01
#aMCatNLO 1  0  0  2  2 0.63184902D+03 0.00000000D+00  -5  5  0 0.00000000D+00 0.00000000D+00 0.00000000D+00 0.00000000D+00 0.00000000D+00
  <mgrwgt>
 0.4328599618D+00    5    2    0
 0.238372794028778D+03 0.000000000000000D+00 0.000000000000000D+00 0.238372794028778D+03
 0.238372794028778D+03 0.000000000000000D+00 0.000000000000000D+00 -.238372794028778D+03
 0.247977271002484D+03 0.118022695151059D+03 -.178709580280322D+03 0.112083859256028D+01
 0.228768317055072D+03 -.118022695151059D+03 0.178709580280322D+03 -.112083859256028D+01
 0.000000000000000D+00 -.000000000000000D+00 -.000000000000000D+00 -.000000000000000D+00
 0.451812294514678D+03 0.000000000000000D+00 0.000000000000000D+00 0.451812294514678D+03
 0.217654988295792D+04 0.000000000000000D+00 0.000000000000000D+00 -.217654988295792D+04
 0.198918122137938D+03 0.148988666803696D+03 0.417676932543605D+02 0.112083859256028D+01
 0.592611747370544D+03 -.611081863388083D+02 0.583940065803358D+03 -.112083859256028D+01
 0.183683230796412D+04 -.878804804648881D+02 -.625707759057718D+03 -.172473758844324D+04
0.286918548157D-02 0.000000000000D+00 0.000000000000D+00 0.207943201893D-02 0.000000000000D+00  5 2 -1 25 24 21 0 0.55234001D-01 0.24348945D-01 0.56820331D+05 0.56820331D+05 0.56820331D+05 0.11868208D+01  1  2  2  2  5  2       -1 0.426473621782D+00 0.100000000000D+01
-.159399193397D-03 0.000000000000D+00 -.110184277231D-04 0.207943201893D-02 0.000000000000D+00  5 2 -1 25 24 21 2 0.55234001D-01 0.24348945D-01 0.56820331D+05 0.56820331D+05 0.56820331D+05 0.11868208D+01  1  2  3  2  5  2       -1 -.333725926391D-01 0.100000000000D+01
0.196622082729D-03 0.000000000000D+00 0.000000000000D+00 0.207943201893D-02 0.000000000000D+00  5 2 -1 25 24 21 2 0.55234001D-01 0.24348945D-01 0.56820331D+05 0.56820331D+05 0.56820331D+05 0.11868208D+01  1  2 15  2  5  2       -1 0.411657583136D-01 0.100000000000D+01
0.338848166654D-03 0.000000000000D+00 -.237629638881D-02 0.207943201893D-02 0.000000000000D+00  5 2 -1 25 24 21 2 0.55234001D-01 0.31539501D+00 0.56820331D+05 0.56820331D+05 0.56820331D+05 0.11868208D+01  1  2  5  2  5  2       -1 0.155256138982D-03 0.100000000000D+01
-.376954630476D-03 0.000000000000D+00 -.700972407675D-03 0.207943201893D-02 0.000000000000D+00  5 2 21 25 24 1 2 0.55234001D-01 0.31539501D+00 0.56820331D+05 0.56820331D+05 0.56820331D+05 0.11868208D+01  1  2  5  4  5  2       -1 -.156208178996D-02 0.100000000000D+01
  </mgrwgt>
  </event>
  <event>
  4     66 0.48098993E-03 0.98909583E+02 0.75467711E-02 0.12539441E+00
        2 -1    0    0  501    0 0.00000000E+00 0.00000000E+00 0.67822467E+03 0.67822474E+03 0.32000000E+00 0.0000E+00 0.9000E+01
       -1 -1    0    0    0  501 0.00000000E+00 0.00000000E+00 -.19646939E+02 0.19649545E+02 0.32000000E+00 0.0000E+00 0.9000E+01
       25  1    1    2    0    0 -.30674952E+02 -.67447690E+01 0.26171831E+03 0.29173261E+03 0.12500000E+03 0.0000E+00 0.9000E+01
       24  1    1    2    0    0 0.30674952E+02 0.67447690E+01 0.39685942E+03 0.40614167E+03 0.80419002E+02 0.0000E+00 0.9000E+01
#aMCatNLO 1  0  0  2  1 0.11816806D+02 0.00000000D+00  -5  5  0 0.00000000D+00 0.00000000D+00 0.00000000D+00 0.00000000D+00 0.00000000D+00
  <mgrwgt>
 0.1240210297D+00    9    2    0
 0.115438183481555D+03 0.000000000000000D+00 0.000000000000000D+00 0.115438183481555D+03
 0.115438183481555D+03 0.000000000000000D+00 0.000000000000000D+00 -.115438183481555D+03
 0.135270841466624D+03 -.306749520404316D+02 -.674476895652427D+01 -.410701346495101D+02
 0.956055254964853D+02 0.306749520404316D+02 0.674476895652427D+01 0.410701346495101D+02
 0.000000000000000D+00 0.000000000000000D+00 -.000000000000000D+00 -.000000000000000D+00
 0.118977636545787D+03 0.000000000000000D+00 0.000000000000000D+00 0.118977636545787D+03
 0.125892012850583D+03 0.000000000000000D+00 0.000000000000000D+00 -.125892012850583D+03
 0.136255027985220D+03 -.353698395385099D+02 -.162823282866350D+01 -.410701346495101D+02
 0.949235474262156D+02 0.273805603705289D+02 0.103350304921372D+02 0.410701346495101D+02
 0.136910739849339D+02 0.798927916798102D+01 -.870679766347371D+01 -.691437630479626D+01
0.142844951568D-03 0.000000000000D+00 0.000000000000D+00 0.256630924753D-02 0.000000000000D+00  5 2 -1 25 24 21 0 0.10434246D+00 0.30228122D-02 0.11579910D+05 0.11579910D+05 0.11579910D+05 0.12608419D+01  1  2  2  2  5  2       -1 0.246029299562D+00 0.100000000000D+01
-.788825150434D-05 0.000000000000D+00 -.548562225961D-06 0.256630924753D-02 0.000000000000D+00  5 2 -1 25 24 21 2 0.10434246D+00 0.30228122D-02 0.11579910D+05 0.11579910D+05 0.11579910D+05 0.12608419D+01  1  2  3  2  5  2       -1 -.215985191142D-01 0.100000000000D+01
0.981395310173D-05 0.000000000000D+00 0.000000000000D+00 0.256630924753D-02 0.000000000000D+00  5 2 -1 25 24 21 2 0.10434246D+00 0.30228122D-02 0.11579910D+05 0.11579910D+05 0.11579910D+05 0.12608419D+01  1  2 15  2  5  2       -1 0.268712088525D-01 0.100000000000D+01
0.340827317770D-03 0.000000000000D+00 0.000000000000D+00 0.256630924753D-02 0.000000000000D+00  5 2 -1 25 24 21 2 0.10434246D+00 0.33399316D-02 0.12917860D+05 0.12917860D+05 0.12917860D+05 0.12552899D+01  1  2 12  2  5  2       -1 0.803912163728D+00 0.100000000000D+01
-.335950079176D-03 0.000000000000D+00 0.000000000000D+00 0.256630924753D-02 0.000000000000D+00  5 2 -1 25 24 21 2 0.10434246D+00 0.30228122D-02 0.11579910D+05 0.11579910D+05 0.11579910D+05 0.12608419D+01  1  2  4  2  5  2       -1 -.919852035969D+00 0.100000000000D+01
-.841143222310D-03 0.000000000000D+00 -.156154136807D-03 0.256630924753D-02 0.000000000000D+00  5 2 -1 25 24 21 2 0.10434246D+00 0.33979666D-02 0.11579910D+05 0.11579910D+05 0.11579910D+05 0.12608419D+01  1  2  5  2  5  2       -1 -.194380281226D+01 0.100000000000D+01
0.854619103223D-03 0.000000000000D+00 0.155091590511D-03 0.256630924753D-02 0.000000000000D+00  5 2 -1 25 24 21 2 0.10434246D+00 0.30228122D-02 0.11579910D+05 0.11579910D+05 0.11579910D+05 0.12608419D+01  1  2  6  2  5  2       -1 0.233999981189D+01 0.100000000000D+01
0.552446826424D-05 0.000000000000D+00 0.000000000000D+00 0.256630924753D-02 0.000000000000D+00  5 2 21 25 24 1 2 0.10434246D+00 0.33399316D-02 0.12917860D+05 0.12917860D+05 0.12917860D+05 0.12552899D+01  1  2 12  4  5  2       -1 0.247942573281D+00 0.100000000000D+01
-.149324682765D-04 0.000000000000D+00 -.290008521374D-05 0.256630924753D-02 0.000000000000D+00  5 2 21 25 24 1 2 0.10434246D+00 0.33979666D-02 0.11579910D+05 0.11579910D+05 0.11579910D+05 0.12608419D+01  1  2  5  4  5  2       -1 -.655480660232D+00 0.100000000000D+01
  </mgrwgt>
  </event>
  <event>
  4     66 0.48098993E-03 0.11102231E+03 0.75467711E-02 0.12329939E+00
        2 -1    0    0  501    0 0.00000000E+00 0.00000000E+00 0.17364018E+03 0.17364047E+03 0.32000000E+00 0.0000E+00 0.9000E+01
       -1 -1    0    0    0  501 0.00000000E+00 0.00000000E+00 -.71934511E+02 0.71935223E+02 0.32000000E+00 0.0000E+00 0.9000E+01
       25  1    1    2    0    0 0.39692342E+02 0.11384578E+02 0.46308060E+02 0.13955116E+03 0.12500000E+03 0.0000E+00 0.9000E+01
       24  1    1    2    0    0 -.39692342E+02 -.11384578E+02 0.55397607E+02 0.10602453E+03 0.80419002E+02 0.0000E+00 0.9000E+01
#aMCatNLO 1  0  0  1  1 0.28780989D+02 0.00000000D+00  -5  5  0 0.00000000D+00 0.00000000D+00 0.00000000D+00 0.00000000D+00 0.00000000D+00
  <mgrwgt>
 0.3656069960D+00    4    2    0
 0.111762448423815D+03 0.000000000000000D+00 0.000000000000000D+00 0.111762448423815D+03
 0.111762448423815D+03 0.000000000000000D+00 0.000000000000000D+00 -.111762448423815D+03
 0.132247379129033D+03 0.396923424846726D+02 0.113845779778457D+02 -.126205633330704D+02
 0.912775177185969D+02 -.396923424846726D+02 -.113845779778457D+02 0.126205633330704D+02
 0.000000000000000D+00 -.000000000000000D+00 0.000000000000000D+00 -.000000000000000D+00
 0.115539674803268D+03 0.000000000000000D+00 0.000000000000000D+00 0.115539674803268D+03
 0.185230454426132D+03 0.000000000000000D+00 0.000000000000000D+00 -.185230454426132D+03
 0.134938738565560D+03 0.491506284877563D+02 -.289832125187554D+01 -.126205633330704D+02
 0.904314564905642D+02 -.332599145493197D+02 -.210981476429137D+02 0.126205633330704D+02
 0.753999341732765D+02 -.158907139384366D+02 0.239964688947892D+02 -.696907796228641D+02
0.355107329113D-03 0.000000000000D+00 0.000000000000D+00 0.293313213428D-02 0.000000000000D+00  5 2 -1 25 24 21 0 0.26713951D-01 0.11066925D-01 0.12325953D+05 0.12325953D+05 0.12325953D+05 0.12576623D+01  1  2  2  1  5  1        2 0.388903692827D+00 0.100000000000D+01
-.197271259634D-04 0.000000000000D+00 -.136370564570D-05 0.293313213428D-02 0.000000000000D+00  5 2 -1 25 24 21 2 0.26713951D-01 0.11066925D-01 0.12325953D+05 0.12325953D+05 0.12325953D+05 0.12576623D+01  1  2  3  1  5  1        2 -.341723089058D-01 0.100000000000D+01
0.246117623489D-04 0.000000000000D+00 0.000000000000D+00 0.293313213428D-02 0.000000000000D+00  5 2 -1 25 24 21 2 0.26713951D-01 0.11066925D-01 0.12325953D+05 0.12325953D+05 0.12325953D+05 0.12576623D+01  1  2 15  1  5  1        2 0.426337190356D-01 0.100000000000D+01
-.183334458917D-04 0.000000000000D+00 0.000000000000D+00 0.293313213428D-02 0.000000000000D+00  5 2 -1 25 24 21 2 0.26713951D-01 0.11066925D-01 0.12325953D+05 0.12325953D+05 0.12325953D+05 0.12576623D+01  1  2  4  1  5  1        2 -.317581069580D-01 0.100000000000D+01
  </mgrwgt>
  </event>
  <event>
  4     66 0.48098993E-03 0.66544495E+02 0.75467711E-02 0.11643412E+00
        2 -1    0    0  501    0 0.00000000E+00 0.00000000E+00 0.29293354E+04 0.29293354E+04 0.32000000E+00 0.0000E+00 0.9000E+01
       -1 -1    0    0    0  501 0.00000000E+00 0.00000000E+00 -.49986495E+01 0.50088818E+01 0.32000000E+00 0.0000E+00 0.9000E+01
       25  1    1    2    0    0 0.16363695E+02 -.44504008E+02 0.21932640E+04 0.21973348E+04 0.12500000E+03 0.0000E+00 0.9000E+01
       24  1    1    2    0    0 -.16363695E+02 0.44504008E+02 0.73107280E+03 0.73700952E+03 0.80419002E+02 0.0000E+00 0.9000E+01
#aMCatNLO 1  0  0  1  2 0.11317409D+03 0.00000000D+00  -5  5  0 0.00000000D+00 0.00000000D+00 0.00000000D+00 0.00000000D+00 0.00000000D+00
  <mgrwgt>
 0.4403502528D+00    7    2    0
 0.121069233117709D+03 0.000000000000000D+00 0.000000000000000D+00 0.121069233117709D+03
 0.121069233117709D+03 0.000000000000000D+00 0.000000000000000D+00 -.121069233117709D+03
 0.139979454587283D+03 0.163636946169437D+02 -.445040084647653D+02 0.414833754123845D+02
 0.102159011648135D+03 -.163636946169437D+02 0.445040084647653D+02 -.414833754123845D+02
 0.000000000000000D+00 -.000000000000000D+00 -.000000000000000D+00 0.000000000000000D+00
 0.248402144210636D+03 0.000000000000000D+00 0.000000000000000D+00 0.248402144210636D+03
 0.161542949504567D+03 0.000000000000000D+00 0.000000000000000D+00 -.161542949504567D+03
 0.136060816615964D+03 0.306166391393082D+02 0.151425490064140D+02 0.414833754123845D+02
 0.131220705161758D+03 -.431346679389046D+01 0.949325080117003D+02 -.414833754123845D+02
 0.142663571937481D+03 -.263031723454177D+02 -.110075057018114D+03 0.868591947060695D+02
0.601333147018D-03 0.000000000000D+00 0.000000000000D+00 0.248197629217D-02 0.000000000000D+00  5 2 -1 25 24 21 0 0.45066777D+00 0.76981145D-03 0.12887777D+05 0.12887777D+05 0.12887777D+05 0.12554075D+01  1  2  2  1  5  1        2 0.430870978059D+00 0.100000000000D+01
-.332392237844D-04 0.000000000000D+00 -.230927761920D-05 0.248197629217D-02 0.000000000000D+00  5 2 -1 25 24 21 2 0.45066777D+00 0.76981145D-03 0.12887777D+05 0.12887777D+05 0.12887777D+05 0.12554075D+01  1  2  3  1  5  1        2 -.375363801279D-01 0.100000000000D+01
0.416675535461D-04 0.000000000000D+00 0.000000000000D+00 0.248197629217D-02 0.000000000000D+00  5 2 -1 25 24 21 2 0.45066777D+00 0.76981145D-03 0.12887777D+05 0.12887777D+05 0.12887777D+05 0.12554075D+01  1  2 15  1  5  1        2 0.470543216968D-01 0.100000000000D+01
0.273177272022D-08 0.000000000000D+00 0.000000000000D+00 0.248197629217D-02 0.000000000000D+00  5 2 -1 25 24 21 2 0.93330190D+00 0.76981145D-03 0.33717730D+05 0.33717730D+05 0.33717730D+05 0.12096091D+01  1  2 12  1  5  1        2 0.492443819355D-09 0.100000000000D+01
-.174770977737D-03 0.000000000000D+00 -.125736167843D-03 0.248197629217D-02 0.000000000000D+00  5 2 -1 25 24 21 2 0.93320827D+00 0.76981145D-03 0.12887777D+05 0.12887777D+05 0.12887777D+05 0.12554075D+01  1  2  5  1  5  1        2 -.386642427261D-04 0.100000000000D+01
0.215044674602D-09 0.000000000000D+00 0.000000000000D+00 0.248197629217D-02 0.000000000000D+00  5 21 -1 25 24 -2 2 0.93330190D+00 0.76981145D-03 0.33717730D+05 0.33717730D+05 0.33717730D+05 0.12096091D+01  1  2 12  3  5  1        2 0.857243265270D-13 0.100000000000D+01
-.602817552052D-05 0.000000000000D+00 -.989656104279D-05 0.248197629217D-02 0.000000000000D+00  5 21 -1 25 24 -2 2 0.93320827D+00 0.76981145D-03 0.12887777D+05 0.12887777D+05 0.12887777D+05 0.12554075D+01  1  2  5  3  5  1        2 -.311820628802D-08 0.100000000000D+01
  </mgrwgt>
  </event>
  <event>
  4     66 0.48098993E-03 0.10471108E+03 0.75467711E-02 0.11447938E+00
        2 -1    0    0  501    0 0.00000000E+00 0.00000000E+00 0.47628109E+03 0.47628120E+03 0.32000000E+00 0.0000E+00 0.9000E+01
       -1 -1    0    0    0  501 0.00000000E+00 0.00000000E+00 -.23692327E+02 0.23694488E+02 0.32000000E+00 0.0000E+00 0.9000E+01
       25  1    1    2    0    0 0.13631505E+02 0.14509877E+02 0.31342359E+03 0.33801731E+03 0.12500000E+03 0.0000E+00 0.9000E+01
       24  1    1    2    0    0 -.13631505E+02 -.14509877E+02 0.13916518E+03 0.16195838E+03 0.80419002E+02 0.0000E+00 0.9000E+01
#aMCatNLO 1  0  0  2  2 0.15269175D+03 0.00000000D+00  -5  5  0 0.00000000D+00 0.00000000D+00 0.00000000D+00 0.00000000D+00 0.00000000D+00
  <mgrwgt>
 0.3917995660D+00    3    2    0
 0.106229818971103D+03 0.000000000000000D+00 0.000000000000000D+00 0.106229818971103D+03
 0.106229818971103D+03 0.000000000000000D+00 0.000000000000000D+00 -.106229818971103D+03
 0.127781639670620D+03 0.136315052947227D+02 0.145098765220001D+02 0.175155069475153D+02
 0.846779982715861D+02 -.136315052947227D+02 -.145098765220001D+02 -.175155069475153D+02
 0.000000000000000D+00 0.000000000000000D+00 0.000000000000000D+00 0.000000000000000D+00
 0.235830492520811D+03 0.000000000000000D+00 0.000000000000000D+00 0.235830492520811D+03
 0.186323444252417D+03 0.000000000000000D+00 0.000000000000000D+00 -.186323444252417D+03
 0.143630455462692D+03 -.258444163766569D+02 -.634821305167212D+02 0.175155069475153D+02
 0.118006446407635D+03 -.431112352169797D+02 -.727525522151987D+02 -.175155069475153D+02
 0.160517034902901D+03 0.689556515936366D+02 0.136234682731920D+03 0.495070482683947D+02
0.197439963527D-03 0.000000000000D+00 0.000000000000D+00 0.305260910669D-02 0.000000000000D+00  5 2 -1 25 24 21 0 0.73274189D-01 0.36451479D-02 0.10964410D+05 0.10964410D+05 0.10964410D+05 0.12636439D+01  1  2  2  2  5  2       -1 0.383580779048D+00 0.100000000000D+01
-.109661214206D-04 0.000000000000D+00 -.758221447079D-06 0.305260910669D-02 0.000000000000D+00  5 2 -1 25 24 21 2 0.73274189D-01 0.36451479D-02 0.10964410D+05 0.10964410D+05 0.10964410D+05 0.12636439D+01  1  2  3  2  5  2       -1 -.340192131949D-01 0.100000000000D+01
0.136154541772D-04 0.000000000000D+00 0.000000000000D+00 0.305260910669D-02 0.000000000000D+00  5 2 -1 25 24 21 2 0.73274189D-01 0.36451479D-02 0.10964410D+05 0.10964410D+05 0.10964410D+05 0.12636439D+01  1  2 15  2  5  2       -1 0.422380001674D-01 0.100000000000D+01
  </mgrwgt>
  </event>
  <event>
  4     66 0.48098993E-03 0.77062302E+02 0.75467711E-02 0.11970348E+00
        2 -1    0    0  501    0 0.00000000E+00 0.00000000E+00 0.10549650E+04 0.10549650E+04 0.32000000E+00 0.0000E+00 0.9000E+01
       -1 -1    0    0    0  501 0.00000000E+00 0.00000000E+00 -.38219011E+02 0.38220351E+02 0.32000000E+00 0.0000E+00 0.9000E+01
       25  1    1    2    0    0 0.39629380E+02 -.68682273E+02 0.95110830E+03 0.96255896E+03 0.12500000E+03 0.0000E+00 0.9000E+01
       24  1    1    2    0    0 -.39629380E+02 0.68682273E+02 0.65637662E+02 0.13062642E+03 0.80419002E+02 0.0000E+00 0.9000E+01
#aMCatNLO 1  0  0  2  1 0.40576369D+02 0.00000000D+00  -5  5  0 0.00000000D+00 0.00000000D+00 0.00000000D+00 0.00000000D+00 0.00000000D+00
  <mgrwgt>
 0.1824622653D+00    9    2    0
 0.200799593758777D+03 0.000000000000000D+00 0.000000000000000D+00 0.200799593758777D+03
 0.200799593758777D+03 0.000000000000000D+00 0.000000000000000D+00 -.200799593758777D+03
 0.212201240388389D+03 0.396293796902828D+02 -.686822733940777D+02 0.152041520674964D+03
 0.189397947129164D+03 -.396293796902828D+02 0.686822733940777D+02 -.152041520674964D+03
 0.000000000000000D+00 0.000000000000000D+00 -.000000000000000D+00 -.000000000000000D+00
 0.206589662462889D+03 0.000000000000000D+00 0.000000000000000D+00 0.206589662462889D+03
 0.288154270633949D+03 0.000000000000000D+00 0.000000000000000D+00 -.288154270633949D+03
 0.207819617605140D+03 0.190065300768075D+02 -.639227758066750D+02 0.152041520674964D+03
 0.195824221890526D+03 -.585436281336119D+02 0.730474470495524D+02 -.152041520674964D+03
 0.911000936011728D+02 0.395370980568044D+02 -.912467124287732D+01 -.815646081710596D+02
0.525098009208D-03 0.000000000000D+00 0.000000000000D+00 0.981350992926D-03 0.000000000000D+00  5 2 -1 25 24 21 0 0.16230241D+00 0.58799546D-02 0.17025994D+05 0.17025994D+05 0.17025994D+05 0.12415984D+01  1  2  2  2  5  2       -1 0.196475589155D+00 0.100000000000D+01
-.225815408892D-04 0.000000000000D+00 -.201651461684D-05 0.981350992926D-03 0.000000000000D+00  5 2 -1 25 24 21 2 0.16230241D+00 0.58799546D-02 0.17025994D+05 0.17025994D+05 0.17025994D+05 0.12415984D+01  1  2  3  2  5  2       -1 -.130251912253D-01 0.100000000000D+01
0.358894496196D-04 0.000000000000D+00 0.000000000000D+00 0.981350992926D-03 0.000000000000D+00  5 2 -1 25 24 21 2 0.16230241D+00 0.58799546D-02 0.17025994D+05 0.17025994D+05 0.17025994D+05 0.12415984D+01  1  2 15  2  5  2       -1 0.207012863542D-01 0.100000000000D+01
0.136577998926D-02 0.000000000000D+00 0.000000000000D+00 0.981350992926D-03 0.000000000000D+00  5 2 -1 25 24 21 2 0.16230241D+00 0.84942000D-02 0.23357816D+05 0.23357816D+05 0.23357816D+05 0.12264739D+01  1  2 12  2  5  2       -1 0.443817475087D+00 0.100000000000D+01
-.143936160172D-02 0.000000000000D+00 0.000000000000D+00 0.981350992926D-03 0.000000000000D+00  5 2 -1 25 24 21 2 0.16230241D+00 0.58799546D-02 0.17025994D+05 0.17025994D+05 0.17025994D+05 0.12415984D+01  1  2  4  2  5  2       -1 -.830233870967D+00 0.100000000000D+01
-.152270694228D-02 0.000000000000D+00 -.210115295119D-03 0.981350992926D-03 0.000000000000D+00  5 2 -1 25 24 21 2 0.16230241D+00 0.86655387D-02 0.17025994D+05 0.17025994D+05 0.17025994D+05 0.12415984D+01  1  2  5  2  5  2       -1 -.491052456827D+00 0.100000000000D+01
0.150449969751D-02 0.000000000000D+00 0.195248393098D-03 0.981350992926D-03 0.000000000000D+00  5 2 -1 25 24 21 2 0.16230241D+00 0.58799546D-02 0.17025994D+05 0.17025994D+05 0.17025994D+05 0.12415984D+01  1  2  6  2  5  2       -1 0.867805981649D+00 0.100000000000D+01
0.611581405726D-04 0.000000000000D+00 0.000000000000D+00 0.981350992926D-03 0.000000000000D+00  5 2 21 25 24 1 2 0.16230241D+00 0.84942000D-02 0.23357816D+05 0.23357816D+05 0.23357816D+05 0.12264739D+01  1  2 12  4  5  2       -1 0.309717259083D+00 0.100000000000D+01
-.639826530415D-04 0.000000000000D+00 -.977737996668D-05 0.981350992926D-03 0.000000000000D+00  5 2 21 25 24 1 2 0.16230241D+00 0.86655387D-02 0.17025994D+05 0.17025994D+05 0.17025994D+05 0.12415984D+01  1  2  5  4  5  2       -1 -.321743807038D+00 0.100000000000D+01
  </mgrwgt>
  </event>
  <event>
  5     66 0.48098993E-03 0.15230272E+03 0.75467711E-02 0.11599776E+00
        2 -1    0    0  501    0 0.00000000E+00 0.00000000E+00 0.11535342E+04 0.11535342E+04 0.32000000E+00 0.0000E+00 0.9000E+01
       -1 -1    0    0    0  502 0.00000000E+00 0.00000000E+00 -.61731682E+02 0.61732512E+02 0.32000000E+00 0.0000E+00 0.9000E+01
       25  1    1    2    0    0 -.13937440E+03 -.52004062E+02 0.17473555E+03 0.26131812E+03 0.12500000E+03 0.0000E+00 0.9000E+01
       24  1    1    2    0    0 0.73907103E+02 0.29686478E+02 0.85033726E+03 0.85783694E+03 0.80419002E+02 0.0000E+00 0.9000E+01
       21  1    1    2  501  502 0.65467296E+02 0.22317583E+02 0.66729696E+02 0.96111686E+02 0.75000000E+00 0.0000E+00 0.9000E+01
#aMCatNLO 2  0  0  2  1 0.69166765D+02 0.00000000D+00  -5  5  0 0.00000000D+00 0.00000000D+00 0.00000000D+00 0.00000000D+00 0.00000000D+00
  <mgrwgt>
 0.5340785960D-01    2    2    0
 0.221895097128174D+03 0.000000000000000D+00 0.000000000000000D+00 0.221895097128174D+03
 0.221895097128174D+03 0.000000000000000D+00 0.000000000000000D+00 -.221895097128174D+03
 0.232212792476282D+03 -.103848431368273D+03 -.398933776486855D+02 -.161002492874370D+03
 0.211577401780066D+03 0.103848431368273D+03 0.398933776486855D+02 0.161002492874370D+03
 0.000000000000000D+00 0.000000000000000D+00 0.000000000000000D+00 -.000000000000000D+00
 0.241627427629682D+03 0.000000000000000D+00 0.000000000000000D+00 0.241627427629682D+03
 0.294706714323008D+03 0.000000000000000D+00 0.000000000000000D+00 -.294706714323008D+03
 0.252341927122301D+03 -.139374398846610D+03 -.520040615546663D+02 -.161002492874370D+03
 0.196805908136005D+03 0.739071025565489D+02 0.296864784506569D+02 0.161002492874370D+03
 0.871863066943847D+02 0.654672962900610D+02 0.223175831040095D+02 -.530792866933261D+02
-.507682492489D-03 0.000000000000D+00 0.000000000000D+00 0.104232953235D-02 0.000000000000D+00  5 2 -1 25 24 21 2 0.16297312D+00 0.97356636D-02 0.35467615D+05 0.35467615D+05 0.35467615D+05 0.12073404D+01  1  2 13  2  5  2       -1 -.129238371101D+00 0.100000000000D+01
0.783175608817D-03 0.000000000000D+00 0.000000000000D+00 0.104232953235D-02 0.186640668598D-05  5 2 -1 25 24 21 2 0.17746573D+00 0.94971883D-02 0.35467615D+05 0.35467615D+05 0.35467615D+05 0.12073404D+01  1  2  1  2  5  2       -1 0.182646230699D+00 0.100000000000D+01
  </mgrwgt>
  </event>
  <event>
  4     66 0.48098993E-03 0.13603810E+03 0.75467711E-02 0.10601115E+00
        2 -1    0    0  501    0 0.00000000E+00 0.00000000E+00 0.12759085E+04 0.12759086E+04 0.32000000E+00 0.0000E+00 0.9000E+01
       -1 -1    0    0    0  501 0.00000000E+00 0.00000000E+00 -.18513627E+02 0.18516392E+02 0.32000000E+00 0.0000E+00 0.9000E+01
       25  1    1    2    0    0 -.44284470E+02 -.76041912E+02 0.98903907E+03 0.10007831E+04 0.12500000E+03 0.0000E+00 0.9000E+01
       24  1    1    2    0    0 0.44284470E+02 0.76041912E+02 0.26835583E+03 0.29364188E+03 0.80419002E+02 0.0000E+00 0.9000E+01
#aMCatNLO 1  0  0  2  2 0.30867518D+03 0.00000000D+00  -5  5  0 0.00000000D+00 0.00000000D+00 0.00000000D+00 0.00000000D+00 0.00000000D+00
  <mgrwgt>
 0.4573091247D+00    5    2    0
 0.153699413492699D+03 0.000000000000000D+00 0.000000000000000D+00 0.153699413492699D+03
 0.153699413492699D+03 0.000000000000000D+00 0.000000000000000D+00 -.153699413492699D+03
 0.168595020179683D+03 -.442844698234512D+02 -.760419117351847D+02 0.711041083306851D+02
 0.138803806805714D+03 0.442844698234512D+02 0.760419117351847D+02 -.711041083306851D+02
 0.000000000000000D+00 0.000000000000000D+00 0.000000000000000D+00 -.000000000000000D+00
 0.321735183737379D+03 0.000000000000000D+00 0.000000000000000D+00 0.321735183737379D+03
 0.447031933322717D+03 0.000000000000000D+00 0.000000000000000D+00 -.447031933322717D+03
 0.317983681285568D+03 -.572812666284537D+02 -.277761919340754D+03 0.711041083306851D+02
 0.117647362748720D+03 0.374345116747132D+02 -.302745622847377D+02 -.711041083306851D+02
 0.333136073025808D+03 0.198467549537405D+02 0.308036481625492D+03 -.125296749585338D+03
0.430413235421D-03 0.000000000000D+00 0.000000000000D+00 0.191311331958D-02 0.000000000000D+00  5 2 -1 25 24 21 0 0.19629383D+00 0.28484660D-02 0.18506364D+05 0.18506364D+05 0.18506364D+05 0.12375544D+01  1  2  2  2  5  2       -1 0.351833913590D+00 0.100000000000D+01
-.234786660632D-04 0.000000000000D+00 -.165290015443D-05 0.191311331958D-02 0.000000000000D+00  5 2 -1 25 24 21 2 0.19629383D+00 0.28484660D-02 0.18506364D+05 0.18506364D+05 0.18506364D+05 0.12375544D+01  1  2  3  2  5  2       -1 -.293936915444D-01 0.100000000000D+01
0.296311561038D-04 0.000000000000D+00 0.000000000000D+00 0.191311331958D-02 0.000000000000D+00  5 2 -1 25 24 21 2 0.19629383D+00 0.28484660D-02 0.18506364D+05 0.18506364D+05 0.18506364D+05 0.12375544D+01  1  2 15  2  5  2       -1 0.370961902297D-01 0.100000000000D+01
0.418282194256D-03 0.000000000000D+00 -.212030187841D-03 0.191311331958D-02 0.000000000000D+00  5 2 -1 25 24 21 2 0.19629383D+00 0.19590176D-01 0.18506364D+05 0.18506364D+05 0.18506364D+05 0.12375544D+01  1  2  5  2  5  2       -1 0.283879747527D-01 0.100000000000D+01
0.794214514220D-04 0.000000000000D+00 -.500058490315D-04 0.191311331958D-02 0.000000000000D+00  5 2 21 25 24 1 2 0.19629383D+00 0.19590176D-01 0.18506364D+05 0.18506364D+05 0.18506364D+05 0.12375544D+01  1  2  5  4  5  2       -1 0.693847376420D-01 0.100000000000D+01
  </mgrwgt>
  </event>
  <event>
  4     66 0.48098993E-03 0.22528768E+03 0.75467711E-02 0.11245060E+00
        2 -1    0    0  501    0 0.00000000E+00 0.00000000E+00 0.50823754E+03 0.50823764E+03 0.32000000E+00 0.0000E+00 0.9000E+01
       -1 -1    0    0    0  501 0.00000000E+00 0.00000000E+00 -.11707555E+03 0.11707599E+03 0.32000000E+00 0.0000E+00 0.9000E+01
       25  1    1    2    0    0 0.27737120E+02 0.19759138E+03 0.83329254E+02 0.24976082E+03 0.12500000E+03 0.0000E+00 0.9000E+01
       24  1    1    2    0    0 -.27737120E+02 -.19759138E+03 0.30783273E+03 0.37555281E+03 0.80419002E+02 0.0000E+00 0.9000E+01
#aMCatNLO 1  0  0  2  2 0.15395738D+02 0.00000000D+00  -5  5  0 0.00000000D+00 0.00000000D+00 0.00000000D+00 0.00000000D+00 0.00000000D+00
  <mgrwgt>
 0.1989365678D+00    4    2    0
 0.243931050955629D+03 0.000000000000000D+00 0.000000000000000D+00 0.243931050955629D+03
 0.243931050955629D+03 0.000000000000000D+00 0.000000000000000D+00 -.243931050955629D+03
 0.253316678584577D+03 0.277371195442541D+02 0.197591383151688D+03 -.934485802605487D+02
 0.234545423326682D+03 -.277371195442541D+02 -.197591383151688D+03 0.934485802605487D+02
 0.000000000000000D+00 -.000000000000000D+00 -.000000000000000D+00 0.000000000000000D+00
 0.262883933405814D+03 0.000000000000000D+00 0.000000000000000D+00 0.262883933405814D+03
 0.247199197632860D+03 0.000000000000000D+00 0.000000000000000D+00 -.247199197632860D+03
 0.259639709254419D+03 0.302646038913184D+02 0.205278335974131D+03 -.934485802605487D+02
 0.228465258166536D+03 -.254557321246963D+02 -.190652896080848D+03 0.934485802605487D+02
 0.219781636177193D+02 -.480887176662206D+01 -.146254398932829D+02 0.156847357729544D+02
0.238347925191D-02 0.000000000000D+00 0.000000000000D+00 0.177658199121D-02 0.000000000000D+00  5 2 -1 25 24 21 0 0.78190432D-01 0.18011664D-01 0.50754538D+05 0.50754538D+05 0.50754538D+05 0.11916381D+01  1  2  2  2  5  2       -1 0.395608265802D+00 0.100000000000D+01
-.131397775804D-03 0.000000000000D+00 -.915318791183D-05 0.177658199121D-02 0.000000000000D+00  5 2 -1 25 24 21 2 0.78190432D-01 0.18011664D-01 0.50754538D+05 0.50754538D+05 0.50754538D+05 0.11916381D+01  1  2  3  2  5  2       -1 -.309692538043D-01 0.100000000000D+01
0.163637645880D-03 0.000000000000D+00 0.000000000000D+00 0.177658199121D-02 0.000000000000D+00  5 2 -1 25 24 21 2 0.78190432D-01 0.18011664D-01 0.50754538D+05 0.50754538D+05 0.50754538D+05 0.11916381D+01  1  2 15  2  5  2       -1 0.385678962691D-01 0.100000000000D+01
-.866687604908D-03 0.000000000000D+00 0.000000000000D+00 0.177658199121D-02 0.000000000000D+00  5 2 -1 25 24 21 2 0.78190432D-01 0.18011664D-01 0.50754538D+05 0.50754538D+05 0.50754538D+05 0.11916381D+01  1  2  4  2  5  2       -1 -.204270340509D+00 0.100000000000D+01
  </mgrwgt>
  </event>
  <event>
  4     66 0.48098993E-03 0.50780235E+02 0.75467711E-02 0.12100965E+00
        2 -1    0    0  501    0 0.00000000E+00 0.00000000E+00 0.15275270E+02 0.15278621E+02 0.32000000E+00 0.0000E+00 0.9000E+01
       -1 -1    0    0    0  501 0.00000000E+00 0.00000000E+00 -.71478410E+03 0.71478417E+03 0.32000000E+00 0.0000E+00 0.9000E+01
       25  1    1    2    0    0 0.14457067E+02 -.17859642E+01 -.46463294E+03 0.48137404E+03 0.12500000E+03 0.0000E+00 0.9000E+01
       24  1    1    2    0    0 -.14457067E+02 0.17859642E+01 -.23487590E+03 0.24868876E+03 0.80419002E+02 0.0000E+00 0.9000E+01
#aMCatNLO 1  0  0  2  1 0.66787015D+02 0.00000000D+00  -5  5  0 0.00000000D+00 0.00000000D+00 0.00000000D+00 0.00000000D+00 0.00000000D+00
  <mgrwgt>
 0.5776990776D+00    8    2    0
 0.104497700282338D+03 0.000000000000000D+00 0.000000000000000D+00 0.104497700282338D+03
 0.104497700282338D+03 0.000000000000000D+00 0.000000000000000D+00 -.104497700282338D+03
 0.126406756703882D+03 0.144570666601829D+02 -.178596417092486D+01 -.118941874862352D+02
 0.825886438607939D+02 -.144570666601829D+02 0.178596417092486D+01 0.118941874862352D+02
 0.000000000000000D+00 0.000000000000000D+00 -.000000000000000D+00 -.000000000000000D+00
 0.125488057451971D+03 0.000000000000000D+00 0.000000000000000D+00 0.125488057451971D+03
 0.180351109589617D+03 0.000000000000000D+00 0.000000000000000D+00 -.180351109589617D+03
 0.128903307747533D+03 -.149795075999237D+02 0.250041077497556D+02 -.118941874862352D+02
 0.905040369072055D+02 -.344141943286762D+02 0.199488414420656D+02 0.118941874862352D+02
 0.864318223868490D+02 0.493937019285999D+02 -.449529491918212D+02 -.548630521376454D+02
0.791158594001D-03 0.000000000000D+00 0.000000000000D+00 0.314613667466D-02 0.000000000000D+00  5 2 -1 25 24 21 0 0.23503048D-02 0.10996705D+00 0.10771699D+05 0.10771699D+05 0.10771699D+05 0.12645578D+01  1  2  2  2  5  2       -1 0.302485069816D+00 0.100000000000D+01
-.439507649773D-04 0.000000000000D+00 -.303825731781D-05 0.314613667466D-02 0.000000000000D+00  5 2 -1 25 24 21 2 0.23503048D-02 0.10996705D+00 0.10771699D+05 0.10771699D+05 0.10771699D+05 0.12645578D+01  1  2  3  2  5  2       -1 -.268710236032D-01 0.100000000000D+01
0.546632999492D-04 0.000000000000D+00 0.000000000000D+00 0.314613667466D-02 0.000000000000D+00  5 2 -1 25 24 21 2 0.23503048D-02 0.10996705D+00 0.10771699D+05 0.10771699D+05 0.10771699D+05 0.12645578D+01  1  2 15  2  5  2       -1 0.334205519272D-01 0.100000000000D+01
0.133188931579D-03 0.000000000000D+00 0.000000000000D+00 0.314613667466D-02 0.000000000000D+00  5 2 -1 25 24 21 2 0.23503048D-02 0.19413245D+00 0.20286227D+05 0.20286227D+05 0.20286227D+05 0.12331472D+01  1  2 12  2  5  2       -1 0.182345023059D-01 0.100000000000D+01
-.433055162721D-03 0.000000000000D+00 -.216100833318D-03 0.314613667466D-02 0.000000000000D+00  5 2 -1 25 24 21 2 0.23503048D-02 0.21026291D+00 0.10771699D+05 0.10771699D+05 0.10771699D+05 0.12645578D+01  1  2  5  2  5  2       -1 -.484741495535D-01 0.100000000000D+01
0.502441916118D-03 0.000000000000D+00 0.177491788428D-03 0.314613667466D-02 0.000000000000D+00  5 2 -1 25 24 21 2 0.23503048D-02 0.10996705D+00 0.10771699D+05 0.10771699D+05 0.10771699D+05 0.12645578D+01  1  2  6  2  5  2       -1 0.307187567594D+00 0.100000000000D+01
0.834160129814D-05 0.000000000000D+00 0.000000000000D+00 0.314613667466D-02 0.000000000000D+00  5 2 21 25 24 1 2 0.23503048D-02 0.19413245D+00 0.20286227D+05 0.20286227D+05 0.20286227D+05 0.12331472D+01  1  2 12  4  5  2       -1 0.986099846708D-02 0.100000000000D+01
-.180500239232D-04 0.000000000000D+00 -.152085500540D-04 0.314613667466D-02 0.000000000000D+00  5 2 21 25 24 1 2 0.23503048D-02 0.21026291D+00 0.10771699D+05 0.10771699D+05 0.10771699D+05 0.12645578D+01  1  2  5  4  5  2       -1 -.181444393751D-01 0.100000000000D+01
  </mgrwgt>
  </event>
  <event>
  4     66 0.48098993E-03 0.67534537E+02 0.75467711E-02 0.12193714E+00
        2 -1    0    0  501    0 0.00000000E+00 0.00000000E+00 0.11823123E+04 0.11823124E+04 0.32000000E+00 0.0000E+00 0.9000E+01
       -1 -1    0    0    0  501 0.00000000E+00 0.00000000E+00 -.98246705E+01 0.98298804E+01 0.32000000E+00 0.0000E+00 0.9000E+01
       25  1    1    2    0    0 -.93441169E+01 0.16307350E+02 0.84497478E+03 0.85437733E+03 0.12500000E+03 0.0000E+00 0.9000E+01
       24  1    1    2    0    0 0.93441169E+01 -.16307350E+02 0.32751289E+03 0.33776494E+03 0.80419002E+02 0.0000E+00 0.9000E+01
#aMCatNLO 1  0  0  1  2 0.55162266D+02 0.00000000D+00  -5  5  0 0.00000000D+00 0.00000000D+00 0.00000000D+00 0.00000000D+00 0.00000000D+00
  <mgrwgt>
 0.3756330299D+00    9    2    0
 0.107791282076143D+03 0.000000000000000D+00 0.000000000000000D+00 0.107791282076143D+03
 0.107791282076143D+03 0.000000000000000D+00 0.000000000000000D+00 -.107791282076143D+03
 0.129030903382346D+03 -.934411691894718D+01 0.163073501320254D+02 0.258984910437055D+02
 0.865516607699405D+02 0.934411691894718D+01 -.163073501320254D+02 -.258984910437055D+02
 0.000000000000000D+00 -.000000000000000D+00 -.000000000000000D+00 0.000000000000000D+00
 0.177433261526461D+03 0.000000000000000D+00 0.000000000000000D+00 0.177433261526461D+03
 0.122760569247307D+03 0.000000000000000D+00 0.000000000000000D+00 -.122760569247307D+03
 0.136979314538204D+03 -.459426443578833D+01 0.494620410750456D+02 0.258984910437055D+02
 0.855487007372650D+02 0.124171241735094D+02 0.514270671751125D+01 -.258984910437055D+02
 0.776658154982989D+02 -.782285973772110D+01 -.546047477925568D+02 0.546726922791535D+02
0.153028390802D-03 0.000000000000D+00 0.000000000000D+00 0.292699945590D-02 0.000000000000D+00  5 2 -1 25 24 21 0 0.18189461D+00 0.15118919D-02 0.10919324D+05 0.10919324D+05 0.10919324D+05 0.12638561D+01  1  2  2  1  5  1        2 0.344581863614D+00 0.100000000000D+01
-.849161028801D-05 0.000000000000D+00 -.587669313979D-06 0.292699945590D-02 0.000000000000D+00  5 2 -1 25 24 21 2 0.18189461D+00 0.15118919D-02 0.10919324D+05 0.10919324D+05 0.10919324D+05 0.12638561D+01  1  2  3  1  5  1        2 -.305425807108D-01 0.100000000000D+01
0.105417692480D-04 0.000000000000D+00 0.000000000000D+00 0.292699945590D-02 0.000000000000D+00  5 2 -1 25 24 21 2 0.18189461D+00 0.15118919D-02 0.10919324D+05 0.10919324D+05 0.10919324D+05 0.12638561D+01  1  2 15  1  5  1        2 0.379165820346D-01 0.100000000000D+01
0.741807685456D-04 0.000000000000D+00 0.000000000000D+00 0.292699945590D-02 0.000000000000D+00  5 2 -1 25 24 21 2 0.30524160D+00 0.15118919D-02 0.18388085D+05 0.18388085D+05 0.18388085D+05 0.12378640D+01  1  2 12  1  5  1        2 0.995581786244D-01 0.100000000000D+01
-.126340115715D-03 0.000000000000D+00 0.000000000000D+00 0.292699945590D-02 0.000000000000D+00  5 2 -1 25 24 21 2 0.18189461D+00 0.15118919D-02 0.10919324D+05 0.10919324D+05 0.10919324D+05 0.12638561D+01  1  2  4  1  5  1        2 -.454419485864D+00 0.100000000000D+01
-.146188890595D-03 0.000000000000D+00 -.527082671875D-04 0.292699945590D-02 0.000000000000D+00  5 2 -1 25 24 21 2 0.31515612D+00 0.15118919D-02 0.10919324D+05 0.10919324D+05 0.10919324D+05 0.12638561D+01  1  2  5  1  5  1        2 -.188234979249D+00 0.100000000000D+01
0.157788285005D-03 0.000000000000D+00 0.456390618935D-04 0.292699945590D-02 0.000000000000D+00  5 2 -1 25 24 21 2 0.18189461D+00 0.15118919D-02 0.10919324D+05 0.10919324D+05 0.10919324D+05 0.12638561D+01  1  2  6  1  5  1        2 0.567532101277D+00 0.100000000000D+01
0.430027797321D-05 0.000000000000D+00 0.000000000000D+00 0.292699945590D-02 0.000000000000D+00  5 21 -1 25 24 -2 2 0.30524160D+00 0.15118919D-02 0.18388085D+05 0.18388085D+05 0.18388085D+05 0.12378640D+01  1  2 12  3  5  1        2 0.197416302364D-02 0.100000000000D+01
-.627161234380D-05 0.000000000000D+00 -.320932340549D-05 0.292699945590D-02 0.000000000000D+00  5 21 -1 25 24 -2 2 0.31515612D+00 0.15118919D-02 0.10919324D+05 0.10919324D+05 0.10919324D+05 0.12638561D+01  1  2  5  3  5  1        2 -.273281288899D-02 0.100000000000D+01
  </mgrwgt>
  </event>
  <event>
  5     66 -.48098993E-03 0.11587531E+03 0.75467711E-02 0.12413924E+00
        4 -1    0    0  501    0 0.00000000E+00 0.00000000E+00 0.47184419E+02 0.47209871E+02 0.15500000E+01 0.0000E+00 0.9000E+01
       -3 -1    0    0    0  502 0.00000000E+00 0.00000000E+00 -.32138098E+03 0.32138137E+03 0.50000000E+00 0.0000E+00 0.9000E+01
       25  1    1    2    0    0 -.23634468E+02 0.44371090E+02 -.18579936E+03 0.22950770E+03 0.12500000E+03 0.0000E+00 0.9000E+01
       24  1    1    2    0    0 0.16996967E+02 -.51978598E+02 -.79754287E+02 0.12577215E+03 0.80419002E+02 0.0000E+00 0.9000E+01
       21  1    1    2  501  502 0.66375017E+01 0.76075089E+01 -.86429103E+01 0.13311387E+02 0.75000000E+00 0.0000E+00 0.9000E+01
#aMCatNLO 2  0  0  2  1 0.10096070D+02 0.00000000D+00  -5  5  0 0.00000000D+00 0.00000000D+00 0.00000000D+00 0.00000000D+00 0.00000000D+00
  <mgrwgt>
 -.4955098338D-01    3    2    0
 0.117901549317854D+03 0.000000000000000D+00 0.000000000000000D+00 0.117901549317854D+03
 0.117901549317854D+03 0.000000000000000D+00 0.000000000000000D+00 -.117901549317854D+03
 0.137319835376464D+03 -.197834293922313D+02 0.487849208246409D+02 -.214565749698156D+02
 0.984832632592449D+02 0.197834293922313D+02 -.487849208246409D+02 0.214565749698156D+02
 0.000000000000000D+00 0.000000000000000D+00 0.000000000000000D+00 0.000000000000000D+00
 0.124135850804586D+03 0.000000000000000D+00 0.000000000000000D+00 0.124135850804586D+03
 0.122169129235211D+03 0.000000000000000D+00 0.000000000000000D+00 -.122169129235211D+03
 0.136428612418543D+03 -.236344683276010D+02 0.443710895052763D+02 -.214565749698156D+02
 0.995905222861018D+02 0.169969666146143D+02 -.519785983969786D+02 0.214565749698156D+02
 0.102858453351523D+02 0.663750171298662D+01 0.760750889170224D+01 0.196672156937515D+01
-.802682632316D-03 0.000000000000D+00 0.000000000000D+00 0.274420934069D-02 0.000000000000D+00  5 4 -3 25 24 21 2 0.68956979D-02 0.50647171D-01 0.14650502D+05 0.14650502D+05 0.14650502D+05 0.12489915D+01  1  2 13  2  5  2       -3 -.131832315715D+00 0.100000000000D+01
-.206791816228D-04 0.000000000000D+00 0.000000000000D+00 0.274420934069D-02 0.000000000000D+00  5 4 -3 25 24 21 2 0.68956979D-02 0.47712710D-01 0.13427088D+05 0.13427088D+05 0.13427088D+05 0.12533446D+01  1  2  8  2  5  2       -3 -.381767968940D-02 0.100000000000D+01
0.543660707542D-03 0.000000000000D+00 0.000000000000D+00 0.274420934069D-02 0.224437284311D-03  5 4 -3 25 24 21 2 0.72603229D-02 0.49439726D-01 0.14650502D+05 0.14650502D+05 0.14650502D+05 0.12489915D+01  1  2  1  2  5  2       -3 0.860990120260D-01 0.100000000000D+01
  </mgrwgt>
  </event>
  <event>
  4     66 0.48098993E-03 0.24136732E+03 0.75467711E-02 0.99127984E-01
        2 -1    0    0  501    0 0.00000000E+00 0.00000000E+00 0.12562622E+03 0.12562663E+03 0.32000000E+00 0.0000E+00 0.9000E+01
       -1 -1    0    0    0  501 0.00000000E+00 0.00000000E+00 -.47539935E+03 0.47539946E+03 0.32000000E+00 0.0000E+00 0.9000E+01
       25  1    1    2    0    0 0.21578501E+03 -.27182320E+02 -.22861534E+03 0.33939950E+03 0.12500000E+03 0.0000E+00 0.9000E+01
       24  1    1    2    0    0 -.21578501E+03 0.27182320E+02 -.12115779E+03 0.26162659E+03 0.80419002E+02 0.0000E+00 0.9000E+01
#aMCatNLO 1  0  0  1  2 0.49885972D+03 0.00000000D+00  -5  5  0 0.00000000D+00 0.00000000D+00 0.00000000D+00 0.00000000D+00 0.00000000D+00
  <mgrwgt>
 0.3395152571D+00    5    2    0
 0.244382447997780D+03 0.000000000000000D+00 0.000000000000000D+00 0.244382447997780D+03
 0.244382447997780D+03 0.000000000000000D+00 0.000000000000000D+00 -.244382447997780D+03
 0.253750739502202D+03 0.215785008028809D+03 -.271823199319016D+02 -.382412027928113D+02
 0.235014156493358D+03 -.215785008028809D+03 0.271823199319016D+02 0.382412027928113D+02
 0.000000000000000D+00 0.000000000000000D+00 -.000000000000000D+00 0.000000000000000D+00
 0.990348246559156D+03 0.000000000000000D+00 0.000000000000000D+00 0.990348246559156D+03
 0.446232945574235D+03 0.000000000000000D+00 0.000000000000000D+00 -.446232945574235D+03
 0.284518425241444D+03 0.163329220032249D+03 0.192839079531321D+03 -.382412027928113D+02
 0.413874117891864D+03 -.279020927869797D+03 0.292420077501588D+03 0.382412027928113D+02
 0.738188649000084D+03 0.115691707837548D+03 -.485259157032909D+03 0.544115300984921D+03
0.462735924844D-02 0.000000000000D+00 0.000000000000D+00 0.202096514098D-02 0.000000000000D+00  5 2 -1 25 24 21 0 0.19327151D-01 0.73138402D-01 0.58258185D+05 0.58258185D+05 0.58258185D+05 0.11857625D+01  1  2  2  1  5  1        2 0.299184320397D+00 0.100000000000D+01
-.257027341365D-03 0.000000000000D+00 -.177702779257D-04 0.202096514098D-02 0.000000000000D+00  5 2 -1 25 24 21 2 0.19327151D-01 0.73138402D-01 0.58258185D+05 0.58258185D+05 0.58258185D+05 0.11857625D+01  1  2  3  1  5  1        2 -.233657839996D-01 0.100000000000D+01
0.317086827246D-03 0.000000000000D+00 0.000000000000D+00 0.202096514098D-02 0.000000000000D+00  5 2 -1 25 24 21 2 0.19327151D-01 0.73138402D-01 0.58258185D+05 0.58258185D+05 0.58258185D+05 0.11857625D+01  1  2 15  1  5  1        2 0.288256582945D-01 0.100000000000D+01
0.281298667010D-02 0.000000000000D+00 -.280018214991D-02 0.202096514098D-02 0.000000000000D+00  5 2 -1 25 24 21 2 0.12857054D+00 0.73138402D-01 0.58258185D+05 0.58258185D+05 0.58258185D+05 0.11857625D+01  1  2  5  1  5  1        2 0.302655452394D-01 0.100000000000D+01
0.416843589216D-03 0.000000000000D+00 -.649619610219D-03 0.202096514098D-02 0.000000000000D+00  5 21 -1 25 24 -2 2 0.12857054D+00 0.73138402D-01 0.58258185D+05 0.58258185D+05 0.58258185D+05 0.11857625D+01  1  2  5  3  5  1        2 0.460551713735D-02 0.100000000000D+01
  </mgrwgt>
  </event>
  <event>
  5     66 0.48098993E-03 0.11697796E+03 0.75467711E-02 0.11553456E+00
        2 -1    0    0  501    0 0.00000000E+00 0.00000000E+00 0.29122466E+03 0.29122483E+03 0.32000000E+00 0.0000E+00 0.9000E+01
       -1 -1    0    0    0  502 0.00000000E+00 0.00000000E+00 -.18306335E+03 0.18306363E+03 0.32000000E+00 0.0000E+00 0.9000E+01
       25  1    1    2    0    0 -.73279833E+02 0.10846305E+03 0.13982267E+03 0.22871280E+03 0.12500000E+03 0.0000E+00 0.9000E+01
       24  1    1    2    0    0 0.21088756E+02 0.27100148E+01 0.50963309E+02 0.97552830E+02 0.80419002E+02 0.0000E+00 0.9000E+01
       21  1    1    2  501  502 0.52191077E+02 -.11117307E+03 -.82624673E+02 0.14802283E+03 0.75000000E+00 0.0000E+00 0.9000E+01
#aMCatNLO 2  0  0  2  1 0.12281433D+03 0.00000000D+00  -5  5  0 0.00000000D+00 0.00000000D+00 0.00000000D+00 0.00000000D+00 0.00000000D+00
  <mgrwgt>
 0.5766511488D-01    1    2    0
 0.117224799747528D+03 0.000000000000000D+00 0.000000000000000D+00 0.117224799747528D+03
 0.117224799747528D+03 0.000000000000000D+00 0.000000000000000D+00 -.117224799747528D+03
 0.136755189360803D+03 -.400376288931145D+02 0.376532905519310D+02 0.749665260887963D+01
 0.976944101342531D+02 0.400376288931145D+02 -.376532905519310D+02 -.749665260887963D+01
 0.000000000000000D+00 0.000000000000000D+00 -.000000000000000D+00 -.000000000000000D+00
 0.149072328051380D+03 0.000000000000000D+00 0.000000000000000D+00 0.149072328051380D+03
 0.357627011466365D+03 0.000000000000000D+00 0.000000000000000D+00 -.357627011466365D+03
 0.181150124771760D+03 -.732798327276414D+02 0.108463053709063D+03 0.749665260887963D+01
 0.835194321809518D+02 0.210887557032568D+02 0.271001476162137D+01 -.749665260887963D+01
 0.242029782565033D+03 0.521910770243846D+02 -.111173068470684D+03 -.208554683414985D+03
0.272932240284D-03 0.000000000000D+00 0.000000000000D+00 0.282868732548D-02 0.247949506404D-05  5 2 -1 25 24 21 2 0.44803669D-01 0.28163528D-01 0.37440619D+05 0.37440619D+05 0.37440619D+05 0.12049274D+01  1  2  1  2  5  2       -1 0.576651148809D-01 0.100000000000D+01
  </mgrwgt>
  </event>
  <event>
  5     66 -.48098993E-03 0.39921121E+03 0.75467711E-02 0.10430727E+00
        2 -1    0    0  501    0 0.00000000E+00 0.00000000E+00 0.17952036E+03 0.17952065E+03 0.32000000E+00 0.0000E+00 0.9000E+01
       -1 -1    0    0    0  502 0.00000000E+00 0.00000000E+00 -.92194816E+03 0.92194821E+03 0.32000000E+00 0.0000E+00 0.9000E+01
       25  1    1    2    0    0 -.36166456E+03 0.13420984E+03 -.29977965E+03 0.50428798E+03 0.12500000E+03 0.0000E+00 0.9000E+01
       24  1    1    2    0    0 0.36247317E+03 -.12861378E+03 -.42581782E+03 0.57941034E+03 0.80419002E+02 0.0000E+00 0.9000E+01
       21  1    1    2  501  502 -.80861601E+00 -.55960658E+01 -.16830325E+02 0.17770542E+02 0.75000000E+00 0.0000E+00 0.9000E+01
#aMCatNLO 2  0  0  2  1 0.56541854D+01 0.00000000D+00  -5  5  0 0.00000000D+00 0.00000000D+00 0.00000000D+00 0.00000000D+00 0.00000000D+00
  <mgrwgt>
 -.1684301702D+00    3    2    0
 0.402454467186238D+03 0.000000000000000D+00 0.000000000000000D+00 0.402454467186238D+03
 0.402454467186238D+03 0.000000000000000D+00 0.000000000000000D+00 -.402454467186238D+03
 0.408143175345981D+03 -.362074855320017D+03 0.131370350740565D+03 0.509851122661335D+02
 0.396765759026495D+03 0.362074855320017D+03 -.131370350740565D+03 -.509851122661335D+02
 0.000000000000000D+00 -.000000000000000D+00 -.000000000000000D+00 -.000000000000000D+00
 0.403505029453117D+03 0.000000000000000D+00 0.000000000000000D+00 0.403505029453117D+03
 0.410144774796714D+03 0.000000000000000D+00 0.000000000000000D+00 -.410144774796714D+03
 0.408702844777703D+03 -.361664556345631D+03 0.134209844422512D+03 0.509851122661335D+02
 0.396225948622463D+03 0.362473172354475D+03 -.128613778647130D+03 -.509851122661335D+02
 0.872101084966471D+01 -.808616008844150D+00 -.559606577538212D+01 -.663974534359621D+01
-.184758191638D-01 0.000000000000D+00 0.000000000000D+00 0.192704146629D-02 0.000000000000D+00  5 2 -1 25 24 21 2 0.27545540D-01 0.14201219D+00 0.16164274D+06 0.16164274D+06 0.16164274D+06 0.11448860D+01  1  2 13  2  5  2       -1 -.229378266392D+00 0.100000000000D+01
-.256635468961D+00 0.000000000000D+00 0.000000000000D+00 0.192704146629D-02 0.000000000000D+00  5 2 -1 25 24 21 2 0.27545540D-01 0.13917317D+00 0.15936959D+06 0.15936959D+06 0.15936959D+06 0.11454239D+01  1  2  8  2  5  2       -1 -.336050047957D+01 0.100000000000D+01
0.275493749037D+00 0.000000000000D+00 0.000000000000D+00 0.192704146629D-02 0.421454319272D-03  5 2 -1 25 24 21 2 0.27617444D-01 0.14183256D+00 0.16164274D+06 0.16164274D+06 0.16164274D+06 0.11448860D+01  1  2  1  2  5  2       -1 0.342144857581D+01 0.100000000000D+01
  </mgrwgt>
  </event>
  <event>
  4     66 0.48098993E-03 0.59883933E+02 0.75467711E-02 0.11986366E+00
        2 -1    0    0  501    0 0.00000000E+00 0.00000000E+00 0.11725671E+04 0.11725671E+04 0.32000000E+00 0.0000E+00 0.9000E+01
       -1 -1    0    0    0  501 0.00000000E+00 0.00000000E+00 -.97221254E+01 0.97273903E+01 0.32000000E+00 0.0000E+00 0.9000E+01
       25  1    1    2    0    0 -.23671581E+01 -.26521587E+02 0.75556664E+03 0.76629951E+03 0.12500000E+03 0.0000E+00 0.9000E+01
       24  1    1    2    0    0 0.23671581E+01 0.26521587E+02 0.40727830E+03 0.41599498E+03 0.80419002E+02 0.0000E+00 0.9000E+01
#aMCatNLO 1  0  0  1  2 0.76974420D+02 0.00000000D+00  -5  5  0 0.00000000D+00 0.00000000D+00 0.00000000D+00 0.00000000D+00 0.00000000D+00
  <mgrwgt>
 0.6414369297D+00    8    2    0
 0.106784746744526D+03 0.000000000000000D+00 0.000000000000000D+00 0.106784746744526D+03
 0.106784746744526D+03 0.000000000000000D+00 0.000000000000000D+00 -.106784746744526D+03
 0.128224569202360D+03 -.236715810210391D+01 -.265215866373913D+02 0.103702532218702D+02
 0.853449242866924D+02 0.236715810210391D+01 0.265215866373913D+02 -.103702532218702D+02
 0.000000000000000D+00 0.000000000000000D+00 -.000000000000000D+00 0.000000000000000D+00
 0.186393890135364D+03 0.000000000000000D+00 0.000000000000000D+00 0.186393890135364D+03
 0.133832095687190D+03 0.000000000000000D+00 0.000000000000000D+00 -.133832095687190D+03
 0.134485064831181D+03 -.464882806699279D+02 -.138755277778951D+02 0.103702532218702D+02
 0.925325332817835D+02 -.275067105753944D+02 0.350840773372995D+02 -.103702532218702D+02
 0.932083877095897D+02 0.739949912453223D+02 -.212085495594044D+02 0.525617944481747D+02
0.146173488479D-03 0.000000000000D+00 0.000000000000D+00 0.308112370293D-02 0.000000000000D+00  5 2 -1 25 24 21 0 0.18039534D+00 0.14961200D-02 0.11290876D+05 0.11290876D+05 0.11290876D+05 0.12621363D+01  1  2  2  1  5  1        2 0.338702549577D+00 0.100000000000D+01
-.812050841002D-05 0.000000000000D+00 -.561344684122D-06 0.308112370293D-02 0.000000000000D+00  5 2 -1 25 24 21 2 0.18039534D+00 0.14961200D-02 0.11290876D+05 0.11290876D+05 0.11290876D+05 0.12621363D+01  1  2  3  1  5  1        2 -.299740615657D-01 0.100000000000D+01
0.101162983628D-04 0.000000000000D+00 0.000000000000D+00 0.308112370293D-02 0.000000000000D+00  5 2 -1 25 24 21 2 0.18039534D+00 0.14961200D-02 0.11290876D+05 0.11290876D+05 0.11290876D+05 0.12621363D+01  1  2 15  1  5  1        2 0.373408331882D-01 0.100000000000D+01
0.136496231011D-04 0.000000000000D+00 0.000000000000D+00 0.308112370293D-02 0.000000000000D+00  5 2 -1 25 24 21 2 0.32365408D+00 0.14961200D-02 0.22953561D+05 0.22953561D+05 0.22953561D+05 0.12272942D+01  1  2 12  1  5  1        2 0.159085887543D-01 0.100000000000D+01
-.807905941041D-04 0.000000000000D+00 -.470076098060D-04 0.308112370293D-02 0.000000000000D+00  5 2 -1 25 24 21 2 0.34676556D+00 0.14961200D-02 0.11290876D+05 0.11290876D+05 0.11290876D+05 0.12621363D+01  1  2  5  1  5  1        2 -.827461105976D-01 0.100000000000D+01
0.982820840431D-04 0.000000000000D+00 0.384917650324D-04 0.308112370293D-02 0.000000000000D+00  5 2 -1 25 24 21 2 0.18039534D+00 0.14961200D-02 0.11290876D+05 0.11290876D+05 0.11290876D+05 0.12621363D+01  1  2  6  1  5  1        2 0.362774482725D+00 0.100000000000D+01
0.875692510532D-06 0.000000000000D+00 0.000000000000D+00 0.308112370293D-02 0.000000000000D+00  5 21 -1 25 24 -2 2 0.32365408D+00 0.14961200D-02 0.22953561D+05 0.22953561D+05 0.22953561D+05 0.12272942D+01  1  2 12  3  5  1        2 0.310852661642D-03 0.100000000000D+01
-.301046113253D-05 0.000000000000D+00 -.333349058779D-05 0.308112370293D-02 0.000000000000D+00  5 21 -1 25 24 -2 2 0.34676556D+00 0.14961200D-02 0.11290876D+05 0.11290876D+05 0.11290876D+05 0.12621363D+01  1  2  5  3  5  1        2 -.880205065528D-03 0.100000000000D+01
  </mgrwgt>
  </event>
  <event>
  5     66 0.48098993E-03 0.11664352E+03 0.75467711E-02 0.11723556E+00
        2 -1    0    0  501    0 0.00000000E+00 0.00000000E+00 0.56283499E+03 0.56283508E+03 0.32000000E+00 0.0000E+00 0.9000E+01
       -1 -1    0    0    0  502 0.00000000E+00 0.00000000E+00 -.33570852E+03 0.33570867E+03 0.32000000E+00 0.0000E+00 0.9000E+01
       25  1    1    2    0    0 0.21809385E+02 0.51012645E+02 0.21562597E+03 0.25533801E+03 0.12500000E+03 0.0000E+00 0.9000E+01
       24  1    1    2    0    0 0.74993181E+02 -.37882371E+02 0.30895463E+03 0.33012003E+03 0.80419002E+02 0.0000E+00 0.9000E+01
       21  1    1    2  501  502 -.96802566E+02 -.13130274E+02 -.29745414E+03 0.31308572E+03 0.75000000E+00 0.0000E+00 0.9000E+01
#aMCatNLO 2  0  0  2  1 0.97689001D+02 0.00000000D+00  -5  5  0 0.00000000D+00 0.00000000D+00 0.00000000D+00 0.00000000D+00 0.00000000D+00
  <mgrwgt>
 0.2397452636D+00    2    2    0
 0.120450363974765D+03 0.000000000000000D+00 0.000000000000000D+00 0.120450363974765D+03
 0.120450363974765D+03 0.000000000000000D+00 0.000000000000000D+00 -.120450363974765D+03
 0.139457745404405D+03 -.321899537228040D+02 0.436881889756381D+02 -.296413862130736D+02
 0.101442982545125D+03 0.321899537228040D+02 -.436881889756381D+02 0.296413862130736D+02
 0.000000000000000D+00 -.000000000000000D+00 -.000000000000000D+00 -.000000000000000D+00
 0.131807445915458D+03 0.000000000000000D+00 0.000000000000000D+00 0.131807445915458D+03
 0.143351768852220D+04 0.000000000000000D+00 0.000000000000000D+00 -.143351768852220D+04
 0.139934095230284D+03 0.218093852973964D+02 0.510126449445177D+02 -.296413862130736D+02
 0.120020326894915D+03 0.749931805451102D+02 -.378823706846278D+02 0.296413862130736D+02
 0.130537071231245D+04 -.968025658425066D+02 -.131302742598899D+02 -.130171024260674D+04
-.289630481135D-03 0.000000000000D+00 0.000000000000D+00 0.262928559266D-02 0.000000000000D+00  5 2 -1 25 24 21 2 0.79128994D-01 0.48251100D-01 0.30756421D+05 0.30756421D+05 0.30756421D+05 0.12137650D+01  1  2 13  2  5  2       -1 -.131010656062D-01 0.100000000000D+01
0.700784201164D-02 0.000000000000D+00 0.000000000000D+00 0.262928559266D-02 0.133884608889D-04  5 2 -1 25 24 21 2 0.86589947D-01 0.51647442D-01 0.30756421D+05 0.30756421D+05 0.30756421D+05 0.12137650D+01  1  2  1  2  5  2       -1 0.252846329181D+00 0.100000000000D+01
  </mgrwgt>
  </event>
  <event>
  5     66 0.48098993E-03 0.13497888E+03 0.75467711E-02 0.11798134E+00
        4 -1    0    0  502    0 0.00000000E+00 0.00000000E+00 0.12977810E+03 0.12978735E+03 0.15500000E+01 0.0000E+00 0.9000E+01
       -3 -1    0    0    0  501 0.00000000E+00 0.00000000E+00 -.58440956E+03 0.58440978E+03 0.50000000E+00 0.0000E+00 0.9000E+01
       25  1    1    2    0    0 -.80080517E+02 -.13765536E+02 -.48253782E+03 0.50504468E+03 0.12500000E+03 0.0000E+00 0.9000E+01
       24  1    1    2    0    0 0.69282953E+02 0.71792222E+02 0.60515434E+02 0.14171656E+03 0.80419002E+02 0.0000E+00 0.9000E+01
       21  1    1    2  502  501 0.10797565E+02 -.58026686E+02 -.32609077E+02 0.67435881E+02 0.75000000E+00 0.0000E+00 0.9000E+01
#aMCatNLO 2  0  0  1  2 0.59022739D+02 0.00000000D+00  -5  5  0 0.00000000D+00 0.00000000D+00 0.00000000D+00 0.00000000D+00 0.00000000D+00
  <mgrwgt>
 0.1766888626D-02    2    2    0
 0.243266072614677D+03 0.000000000000000D+00 0.000000000000000D+00 0.243266072614677D+03
 0.243266072614677D+03 0.000000000000000D+00 0.000000000000000D+00 -.243266072614677D+03
 0.252677356263071D+03 -.745121981485165D+02 -.436899799178157D+02 -.201890971442390D+03
 0.233854788966284D+03 0.745121981485165D+02 0.436899799178157D+02 0.201890971442390D+03
 0.000000000000000D+00 0.000000000000000D+00 -.000000000000000D+00 0.000000000000000D+00
 0.283021475914087D+03 0.000000000000000D+00 0.000000000000000D+00 0.283021475914087D+03
 0.267985535363496D+03 0.000000000000000D+00 0.000000000000000D+00 -.267985535363496D+03
 0.250972794570811D+03 -.800805174359949D+02 -.137655363830789D+02 -.201890971442390D+03
 0.239126391334290D+03 0.692829527595864D+02 0.717922223165596D+02 0.201890971442390D+03
 0.609078253724835D+02 0.107975646764084D+02 -.580266859334807D+02 0.150359405505913D+02
-.161511828173D-02 0.000000000000D+00 0.000000000000D+00 0.690921842981D-03 0.000000000000D+00  5 4 -3 25 24 21 2 0.20721454D-01 0.81615755D-01 0.28267277D+05 0.28267277D+05 0.28267277D+05 0.12176195D+01  1  2 13  1  5  1        4 -.147995776570D-01 0.100000000000D+01
0.209336087714D-02 0.000000000000D+00 0.000000000000D+00 0.690921842981D-03 0.164494048522D-05  5 4 -3 25 24 21 2 0.19966421D-01 0.89909133D-01 0.28267277D+05 0.28267277D+05 0.28267277D+05 0.12176195D+01  1  2  1  1  5  1        4 0.165664662833D-01 0.100000000000D+01
  </mgrwgt>
  </event>
  <event>
  4     66 0.48098993E-03 0.11407491E+03 0.75467711E-02 0.12011131E+00
        2 -1    0    0  501    0 0.00000000E+00 0.00000000E+00 0.40090510E+04 0.40090510E+04 0.32000000E+00 0.0000E+00 0.9000E+01
       -1 -1    0    0    0  501 0.00000000E+00 0.00000000E+00 -.33006690E+01 0.33161447E+01 0.32000000E+00 0.0000E+00 0.9000E+01
       25  1    1    2    0    0 0.30165912E+02 -.38207150E+02 0.20770869E+04 0.20814141E+04 0.12500000E+03 0.0000E+00 0.9000E+01
       24  1    1    2    0    0 -.30165912E+02 0.38207150E+02 0.19286634E+04 0.19309530E+04 0.80419002E+02 0.0000E+00 0.9000E+01
#aMCatNLO 1  0  0  2  2 0.62465489D+02 0.00000000D+00  -5  5  0 0.00000000D+00 0.00000000D+00 0.00000000D+00 0.00000000D+00 0.00000000D+00
  <mgrwgt>
 0.2504427610D+00    4    2    0
 0.115167803672378D+03 0.000000000000000D+00 0.000000000000000D+00 0.115167803672378D+03
 0.115167803672378D+03 0.000000000000000D+00 0.000000000000000D+00 -.115167803672378D+03
 0.135047022849990D+03 0.301659117264437D+02 -.382071504915857D+02 -.155862054930427D+02
 0.952885844947660D+02 -.301659117264437D+02 0.382071504915857D+02 0.155862054930427D+02
 0.000000000000000D+00 -.000000000000000D+00 -.000000000000000D+00 0.000000000000000D+00
 0.161275248562400D+03 0.000000000000000D+00 0.000000000000000D+00 0.161275248562400D+03
 0.142582606650945D+03 0.000000000000000D+00 0.000000000000000D+00 -.142582606650945D+03
 0.146645440079349D+03 0.673473282134621D+02 -.331857300191334D+02 -.155862054930427D+02
 0.920100214065318D+02 -.544381798976829D+01 0.415459159109874D+02 0.155862054930427D+02
 0.652023937274639D+02 -.619035102236938D+02 -.836018589185398D+01 0.186926419114556D+02
0.113849719708D-02 0.000000000000D+00 0.000000000000D+00 0.283827049958D-02 0.000000000000D+00  5 2 -1 25 24 21 0 0.61677827D+00 0.50898665D-03 0.13013085D+05 0.13013085D+05 0.13013085D+05 0.12549196D+01  1  2  2  2  5  2       -1 0.294614783841D+00 0.100000000000D+01
-.632428527361D-04 0.000000000000D+00 -.437212900998D-05 0.283827049958D-02 0.000000000000D+00  5 2 -1 25 24 21 2 0.61677827D+00 0.50898665D-03 0.13013085D+05 0.13013085D+05 0.13013085D+05 0.12549196D+01  1  2  3  2  5  2       -1 -.257730519512D-01 0.100000000000D+01
0.789119322919D-04 0.000000000000D+00 0.000000000000D+00 0.283827049958D-02 0.000000000000D+00  5 2 -1 25 24 21 2 0.61677827D+00 0.50898665D-03 0.13013085D+05 0.13013085D+05 0.13013085D+05 0.12549196D+01  1  2 15  2  5  2       -1 0.321585956758D-01 0.100000000000D+01
-.124059996570D-03 0.000000000000D+00 0.000000000000D+00 0.283827049958D-02 0.000000000000D+00  5 2 -1 25 24 21 2 0.61677827D+00 0.50898665D-03 0.13013085D+05 0.13013085D+05 0.13013085D+05 0.12549196D+01  1  2  4  2  5  2       -1 -.505575665600D-01 0.100000000000D+01
  </mgrwgt>
  </event>
  <event>
  4     66 0.48098993E-03 0.37601475E+02 0.75467711E-02 0.12341084E+00
        2 -1    0    0  501    0 0.00000000E+00 0.00000000E+00 0.59181894E+02 0.59182759E+02 0.32000000E+00 0.0000E+00 0.9000E+01
       -1 -1    0    0    0  501 0.00000000E+00 0.00000000E+00 -.21472982E+03 0.21473006E+03 0.32000000E+00 0.0000E+00 0.9000E+01
       25  1    1    2    0    0 -.34899647E+02 0.13376760E+02 -.12341203E+03 0.17958968E+03 0.12500000E+03 0.0000E+00 0.9000E+01
       24  1    1    2    0    0 0.34899647E+02 -.13376760E+02 -.32135898E+02 0.94323141E+02 0.80419002E+02 0.0000E+00 0.9000E+01
#aMCatNLO 1  0  0  2  1 0.29957210D+02 0.00000000D+00  -5  5  0 0.00000000D+00 0.00000000D+00 0.00000000D+00 0.00000000D+00 0.00000000D+00
  <mgrwgt>
 0.3048770451D+00    9    2    0
 0.112730956278378D+03 0.000000000000000D+00 0.000000000000000D+00 0.112730956278378D+03
 0.112730956278378D+03 0.000000000000000D+00 0.000000000000000D+00 -.112730956278378D+03
 0.133039894364149D+03 -.348996466188117D+02 0.133767598988143D+02 -.260324884118964D+02
 0.924220181926067D+02 0.348996466188117D+02 -.133767598988143D+02 0.260324884118964D+02
 0.000000000000000D+00 -.000000000000000D+00 0.000000000000000D+00 -.000000000000000D+00
 0.121980937543372D+03 0.000000000000000D+00 0.000000000000000D+00 0.121980937543372D+03
 0.140886304442155D+03 0.000000000000000D+00 0.000000000000000D+00 -.140886304442155D+03
 0.129529064639186D+03 -.216956258909200D+02 0.209474356141257D+01 -.260324884118964D+02
 0.979143534186524D+02 0.444712479442938D+02 -.215550992663886D+02 0.260324884118964D+02
 0.354238239276892D+02 -.227756220533738D+02 0.194603557049760D+02 -.189053668987832D+02
0.322345096216D-03 0.000000000000D+00 0.000000000000D+00 0.280795995961D-02 0.000000000000D+00  5 2 -1 25 24 21 0 0.91049916D-02 0.33035442D-01 0.12006469D+05 0.12006469D+05 0.12006469D+05 0.12589967D+01  1  2  2  2  5  2       -1 0.214097132477D+00 0.100000000000D+01
-.178904947289D-04 0.000000000000D+00 -.123789004488D-05 0.280795995961D-02 0.000000000000D+00  5 2 -1 25 24 21 2 0.91049916D-02 0.33035442D-01 0.12006469D+05 0.12006469D+05 0.12006469D+05 0.12589967D+01  1  2  3  2  5  2       -1 -.188348124001D-01 0.100000000000D+01
0.223224259660D-04 0.000000000000D+00 0.000000000000D+00 0.280795995961D-02 0.000000000000D+00  5 2 -1 25 24 21 2 0.91049916D-02 0.33035442D-01 0.12006469D+05 0.12006469D+05 0.12006469D+05 0.12589967D+01  1  2 15  2  5  2       -1 0.235006751772D-01 0.100000000000D+01
0.306824479554D-03 0.000000000000D+00 0.000000000000D+00 0.280795995961D-02 0.000000000000D+00  5 2 -1 25 24 21 2 0.91049916D-02 0.42386899D-01 0.15779585D+05 0.15779585D+05 0.15779585D+05 0.12453218D+01  1  2 12  2  5  2       -1 0.207366094322D+00 0.100000000000D+01
-.319107849741D-03 0.000000000000D+00 0.000000000000D+00 0.280795995961D-02 0.000000000000D+00  5 2 -1 25 24 21 2 0.91049916D-02 0.33035442D-01 0.12006469D+05 0.12006469D+05 0.12006469D+05 0.12589967D+01  1  2  4  2  5  2       -1 -.335951385154D+00 0.100000000000D+01
-.555601575282D-03 0.000000000000D+00 -.154644415592D-03 0.280795995961D-02 0.000000000000D+00  5 2 -1 25 24 21 2 0.91049916D-02 0.44206058D-01 0.12006469D+05 0.12006469D+05 0.12006469D+05 0.12589967D+01  1  2  5  2  5  2       -1 -.353290236117D+00 0.100000000000D+01
0.582113063377D-03 0.000000000000D+00 0.148308234215D-03 0.280795995961D-02 0.000000000000D+00  5 2 -1 25 24 21 2 0.91049916D-02 0.33035442D-01 0.12006469D+05 0.12006469D+05 0.12006469D+05 0.12589967D+01  1  2  6  2  5  2       -1 0.612838857197D+00 0.100000000000D+01
0.103611936246D-04 0.000000000000D+00 0.000000000000D+00 0.280795995961D-02 0.000000000000D+00  5 2 21 25 24 1 2 0.91049916D-02 0.42386899D-01 0.15779585D+05 0.15779585D+05 0.15779585D+05 0.12453218D+01  1  2 12  4  5  2       -1 0.745929600158D-01 0.100000000000D+01
-.177120403759D-04 0.000000000000D+00 -.585163854763D-05 0.280795995961D-02 0.000000000000D+00  5 2 21 25 24 1 2 0.91049916D-02 0.44206058D-01 0.12006469D+05 0.12006469D+05 0.12006469D+05 0.12589967D+01  1  2  5  4  5  2       -1 -.119442240447D+00 0.100000000000D+01
  </mgrwgt>
  </event>
  <event>
  4     66 0.48098993E-03 0.14944116E+03 0.75467711E-02 0.10180022E+00
        2 -1    0    0  501    0 0.00000000E+00 0.00000000E+00 0.15508697E+04 0.15508698E+04 0.32000000E+00 0.0000E+00 0.9000E+01
       -1 -1    0    0    0  501 0.00000000E+00 0.00000000E+00 -.17339206E+02 0.17342159E+02 0.32000000E+00 0.0000E+00 0.9000E+01
       25  1    1    2    0    0 0.55655456E+02 0.91780866E+02 0.51055795E+03 0.53648455E+03 0.12500000E+03 0.0000E+00 0.9000E+01
       24  1    1    2    0    0 -.55655456E+02 -.91780866E+02 0.10229726E+04 0.10317274E+04 0.80419002E+02 0.0000E+00 0.9000E+01
#aMCatNLO 1  0  0  2  1 0.44247988D+03 0.00000000D+00  -5  5  0 0.00000000D+00 0.00000000D+00 0.00000000D+00 0.00000000D+00 0.00000000D+00
  <mgrwgt>
 0.4575473766D+00    3    2    0
 0.163991436045545D+03 0.000000000000000D+00 0.000000000000000D+00 0.163991436045545D+03
 0.163991436045545D+03 0.000000000000000D+00 0.000000000000000D+00 -.163991436045545D+03
 0.177952201720964D+03 0.556554555158005D+02 0.917808660791650D+02 -.672363665766212D+02
 0.150030670370125D+03 -.556554555158005D+02 -.917808660791650D+02 0.672363665766212D+02
 0.000000000000000D+00 -.000000000000000D+00 -.000000000000000D+00 0.000000000000000D+00
 0.510294894224701D+03 0.000000000000000D+00 0.000000000000000D+00 0.510294894224701D+03
 0.483762135760698D+03 0.000000000000000D+00 0.000000000000000D+00 -.483762135760698D+03
 0.425823097428705D+03 0.689566870133098D+02 0.395505444500450D+03 -.672363665766212D+02
 0.124959263615957D+03 -.495973991882478D+02 0.465507315990565D+02 0.672363665766212D+02
 0.443274668940738D+03 -.193592878250620D+02 -.442056176099507D+03 0.265327584640033D+02
0.694407350504D-03 0.000000000000D+00 0.000000000000D+00 0.195250493404D-02 0.000000000000D+00  5 2 -1 25 24 21 0 0.23859557D+00 0.26677999D-02 0.22332661D+05 0.22332661D+05 0.22332661D+05 0.12285861D+01  1  2  2  2  5  2       -1 0.448040851373D+00 0.100000000000D+01
-.381732730735D-04 0.000000000000D+00 -.266670706759D-05 0.195250493404D-02 0.000000000000D+00  5 2 -1 25 24 21 2 0.23859557D+00 0.26677999D-02 0.22332661D+05 0.22332661D+05 0.22332661D+05 0.12285861D+01  1  2  3  2  5  2       -1 -.371769640281D-01 0.100000000000D+01
0.479345645826D-04 0.000000000000D+00 0.000000000000D+00 0.195250493404D-02 0.000000000000D+00  5 2 -1 25 24 21 2 0.23859557D+00 0.26677999D-02 0.22332661D+05 0.22332661D+05 0.22332661D+05 0.12285861D+01  1  2 15  2  5  2       -1 0.466834892507D-01 0.100000000000D+01
  </mgrwgt>
  </event>
  <event>
  4     66 0.48098993E-03 0.11485993E+03 0.75467711E-02 0.10630815E+00
        2 -1    0    0  501    0 0.00000000E+00 0.00000000E+00 0.22565077E+03 0.22565100E+03 0.32000000E+00 0.0000E+00 0.9000E+01
       -1 -1    0    0    0  501 0.00000000E+00 0.00000000E+00 -.83312833E+02 0.83313447E+02 0.32000000E+00 0.0000E+00 0.9000E+01
       25  1    1    2    0    0 -.33271636E+02 0.37907766E+02 0.16330532E+03 0.21174898E+03 0.12500000E+03 0.0000E+00 0.9000E+01
       24  1    1    2    0    0 0.33271636E+02 -.37907766E+02 -.20967384E+02 0.97215470E+02 0.80419002E+02 0.0000E+00 0.9000E+01
#aMCatNLO 1  0  0  2  1 0.31103008D+03 0.00000000D+00  -5  5  0 0.00000000D+00 0.00000000D+00 0.00000000D+00 0.00000000D+00 0.00000000D+00
  <mgrwgt>
 0.3018978554D+00    5    2    0
 0.137112125819585D+03 0.000000000000000D+00 0.000000000000000D+00 0.137112125819585D+03
 0.137112125819585D+03 0.000000000000000D+00 0.000000000000000D+00 -.137112125819585D+03
 0.153809744631358D+03 -.332716358819090D+02 0.379077658045275D+02 0.740839866706326D+02
 0.120414507007811D+03 0.332716358819090D+02 -.379077658045275D+02 -.740839866706326D+02
 0.000000000000000D+00 -.000000000000000D+00 0.000000000000000D+00 -.000000000000000D+00
 0.326886846101489D+03 0.000000000000000D+00 0.000000000000000D+00 0.326886846101489D+03
 0.409611190725013D+03 0.000000000000000D+00 0.000000000000000D+00 -.409611190725013D+03
 0.180022844444017D+03 0.102823543786640D+03 -.268720353501020D+02 0.740839866706326D+02
 0.234632015923823D+03 0.178015204695571D+03 -.106804104594749D+03 -.740839866706326D+02
 0.321843176458662D+03 -.280838748482211D+03 0.133676139944851D+03 -.827243446235246D+02
0.383447035405D-03 0.000000000000D+00 0.000000000000D+00 0.186931616477D-02 0.000000000000D+00  5 2 -1 25 24 21 0 0.34715568D-01 0.12817424D-01 0.13192804D+05 0.13192804D+05 0.13192804D+05 0.12542291D+01  1  2  2  2  5  2       -1 0.253499273697D+00 0.100000000000D+01
-.204903793122D-04 0.000000000000D+00 -.147253757988D-05 0.186931616477D-02 0.000000000000D+00  5 2 -1 25 24 21 2 0.34715568D-01 0.12817424D-01 0.13192804D+05 0.13192804D+05 0.13192804D+05 0.12542291D+01  1  2  3  2  5  2       -1 -.213095895550D-01 0.100000000000D+01
0.263218971418D-04 0.000000000000D+00 0.000000000000D+00 0.186931616477D-02 0.000000000000D+00  5 2 -1 25 24 21 2 0.34715568D-01 0.12817424D-01 0.13192804D+05 0.13192804D+05 0.13192804D+05 0.12542291D+01  1  2 15  2  5  2       -1 0.273742528557D-01 0.100000000000D+01
0.389868774739D-03 0.000000000000D+00 -.181869703625D-03 0.186931616477D-02 0.000000000000D+00  5 2 -1 25 24 21 2 0.34715568D-01 0.85072760D-01 0.13192804D+05 0.13192804D+05 0.13192804D+05 0.12542291D+01  1  2  5  2  5  2       -1 0.153015489555D-01 0.100000000000D+01
0.751121988092D-04 0.000000000000D+00 -.421441437447D-04 0.186931616477D-02 0.000000000000D+00  5 2 21 25 24 1 2 0.34715568D-01 0.85072760D-01 0.13192804D+05 0.13192804D+05 0.13192804D+05 0.12542291D+01  1  2  5  4  5  2       -1 0.270323694076D-01 0.100000000000D+01
  </mgrwgt>
  </event>
  <event>
  4     66 0.48098993E-03 0.11621054E+03 0.75467711E-02 0.10943638E+00
        2 -1    0    0  501    0 0.00000000E+00 0.00000000E+00 0.41781444E+03 0.41781457E+03 0.32000000E+00 0.0000E+00 0.9000E+01
       -1 -1    0    0    0  501 0.00000000E+00 0.00000000E+00 -.35076452E+02 0.35077911E+02 0.32000000E+00 0.0000E+00 0.9000E+01
       25  1    1    2    0    0 -.43127475E+02 0.31415360E+02 0.15865204E+03 0.20890757E+03 0.12500000E+03 0.0000E+00 0.9000E+01
       24  1    1    2    0    0 0.43127475E+02 -.31415360E+02 0.22408595E+03 0.24398490E+03 0.80419002E+02 0.0000E+00 0.9000E+01
#aMCatNLO 1  0  0  1  1 0.23489486D+03 0.00000000D+00  -5  5  0 0.00000000D+00 0.00000000D+00 0.00000000D+00 0.00000000D+00 0.00000000D+00
  <mgrwgt>
 0.3328728986D+00    5    2    0
 0.121061167847866D+03 0.000000000000000D+00 0.000000000000000D+00 0.121061167847866D+03
 0.121061167847866D+03 0.000000000000000D+00 0.000000000000000D+00 -.121061167847866D+03
 0.139972649143705D+03 -.431274753420861D+02 0.314153604063384D+02 -.334729519084363D+02
 0.102149686552027D+03 0.431274753420861D+02 -.314153604063384D+02 0.334729519084363D+02
 0.000000000000000D+00 0.000000000000000D+00 0.000000000000000D+00 0.000000000000000D+00
 0.408199286331793D+03 0.000000000000000D+00 0.000000000000000D+00 0.408199286331793D+03
 0.226258028326955D+03 0.000000000000000D+00 0.000000000000000D+00 -.226258028326955D+03
 0.217338110624702D+03 -.170552485226229D+03 -.374468370307550D+02 -.334729519084363D+02
 0.120002698845357D+03 -.360970347829245D+02 -.742293563640064D+02 0.334729519084363D+02
 0.297116505188689D+03 0.206649520009153D+03 0.111676193394761D+03 0.181941258004837D+03
0.240958537554D-03 0.000000000000D+00 0.000000000000D+00 0.258024812712D-02 0.000000000000D+00  5 2 -1 25 24 21 0 0.64279267D-01 0.53964989D-02 0.13504889D+05 0.13504889D+05 0.13504889D+05 0.12530548D+01  1  2  2  1  5  1        2 0.305916140471D+00 0.100000000000D+01
-.133593686156D-04 0.000000000000D+00 -.925344230046D-06 0.258024812712D-02 0.000000000000D+00  5 2 -1 25 24 21 2 0.64279267D-01 0.53964989D-02 0.13504889D+05 0.13504889D+05 0.13504889D+05 0.12530548D+01  1  2  3  1  5  1        2 -.266309163087D-01 0.100000000000D+01
0.166777871702D-04 0.000000000000D+00 0.000000000000D+00 0.258024812712D-02 0.000000000000D+00  5 2 -1 25 24 21 2 0.64279267D-01 0.53964989D-02 0.13504889D+05 0.13504889D+05 0.13504889D+05 0.12530548D+01  1  2 15  1  5  1        2 0.332459390203D-01 0.100000000000D+01
0.945321143675D-04 0.000000000000D+00 -.110993579201D-03 0.258024812712D-02 0.000000000000D+00  5 2 -1 25 24 21 2 0.31306383D+00 0.53964989D-02 0.13504889D+05 0.13504889D+05 0.13504889D+05 0.12530548D+01  1  2  5  1  5  1        2 0.192715393312D-01 0.100000000000D+01
0.156111561330D-04 0.000000000000D+00 -.213812313144D-04 0.258024812712D-02 0.000000000000D+00  5 21 -1 25 24 -2 2 0.31306383D+00 0.53964989D-02 0.13504889D+05 0.13504889D+05 0.13504889D+05 0.12530548D+01  1  2  5  3  5  1        2 0.107019609816D-02 0.100000000000D+01
  </mgrwgt>
  </event>
  <event>
  5     66 0.48098993E-03 0.15874030E+03 0.75467711E-02 0.11484146E+00
        2 -1    0    0  501    0 0.00000000E+00 0.00000000E+00 0.10430726E+04 0.10430727E+04 0.32000000E+00 0.0000E+00 0.9000E+01
       21 -1    0    0  502  501 0.00000000E+00 0.00000000E+00 -.45406149E+02 0.45412343E+02 0.75000000E+00 0.0000E+00 0.9000E+01
       25  1    1    2    0    0 0.18858121E+02 0.79436378E+02 0.20327882E+03 0.25221627E+03 0.12500000E+03 0.0000E+00 0.9000E+01
       24  1    1    2    0    0 -.44005774E+02 -.15175171E+03 0.45428884E+03 0.48765834E+03 0.80419002E+02 0.0000E+00 0.9000E+01
        1  1    1    2  502    0 0.25147653E+02 0.72315333E+02 0.34009884E+03 0.34861043E+03 0.32000000E+00 0.0000E+00 0.9000E+01
#aMCatNLO 2  0  0  2  2 0.76563123D+02 0.00000000D+00  -5  5  0 0.00000000D+00 0.00000000D+00 0.00000000D+00 0.00000000D+00 0.00000000D+00
  <mgrwgt>
 0.1362572860D+00    1    2    0
 0.165194804834868D+03 0.000000000000000D+00 0.000000000000000D+00 0.165194804834868D+03
 0.165194804834868D+03 0.000000000000000D+00 0.000000000000000D+00 -.165194804834868D+03
 0.179053872701415D+03 0.314462849881787D+02 0.115635274201682D+03 -.455511125014364D+02
 0.151335736968322D+03 -.314462849881787D+02 -.115635274201682D+03 0.455511125014364D+02
 0.000000000000000D+00 0.000000000000000D+00 0.000000000000000D+00 0.000000000000000D+00
 0.253143400944870D+03 0.000000000000000D+00 0.000000000000000D+00 0.253143400944870D+03
 0.187108132955616D+03 0.000000000000000D+00 0.000000000000000D+00 -.187108132955616D+03
 0.156095069336625D+03 0.188581208333782D+02 0.794363776850442D+02 -.455511125014364D+02
 0.183049746372908D+03 -.440057737029123D+02 -.151751710776205D+03 0.455511125014364D+02
 0.101106718190952D+03 0.251476528695341D+02 0.723153330911607D+02 0.660352679892536D+02
0.197965873696D-04 0.000000000000D+00 0.000000000000D+00 0.214356129651D-02 0.884492668595D-07  5 2 21 25 24 1 2 0.16047299D+00 0.69860328D-02 0.40633616D+05 0.40633616D+05 0.40633616D+05 0.12013078D+01  1  2  1  4  5  2       -1 0.136257285958D+00 0.100000000000D+01
  </mgrwgt>
  </event>
  <event>
  4     66 0.48098993E-03 0.86792389E+02 0.75467711E-02 0.12161345E+00
        2 -1    0    0  501    0 0.00000000E+00 0.00000000E+00 0.13856830E+03 0.13856867E+03 0.32000000E+00 0.0000E+00 0.9000E+01
       -1 -1    0    0    0  501 0.00000000E+00 0.00000000E+00 -.16531095E+03 0.16531126E+03 0.32000000E+00 0.0000E+00 0.9000E+01
       25  1    1    2    0    0 -.20451081E+02 0.38687282E+02 0.86554980E+02 0.15821415E+03 0.12500000E+03 0.0000E+00 0.9000E+01
       24  1    1    2    0    0 0.20451081E+02 -.38687282E+02 -.11329763E+03 0.14566579E+03 0.80419002E+02 0.0000E+00 0.9000E+01
#aMCatNLO 1  0  0  1  2 0.46138900D+02 0.00000000D+00  -5  5  0 0.00000000D+00 0.00000000D+00 0.00000000D+00 0.00000000D+00 0.00000000D+00
  <mgrwgt>
 0.2173676787D+00    9    2    0
 0.151350459452368D+03 0.000000000000000D+00 0.000000000000000D+00 0.151350459452368D+03
 0.151350459452368D+03 0.000000000000000D+00 0.000000000000000D+00 -.151350459452368D+03
 0.166477245454150D+03 -.204510811629352D+02 0.386872816503568D+02 0.100869820916735D+03
 0.136223673450586D+03 0.204510811629352D+02 -.386872816503568D+02 -.100869820916735D+03
 0.000000000000000D+00 -.000000000000000D+00 0.000000000000000D+00 0.000000000000000D+00
 0.207665674729729D+03 0.000000000000000D+00 0.000000000000000D+00 0.207665674729729D+03
 0.162851647713834D+03 0.000000000000000D+00 0.000000000000000D+00 -.162851647713834D+03
 0.162612698153892D+03 0.621071715625252D+00 0.253531674360176D+02 0.100869820916735D+03
 0.143584369803300D+03 0.383676355232813D+02 -.500245846561326D+02 -.100869820916735D+03
 0.643202544863706D+02 -.389887072389066D+02 0.246714172201150D+02 0.448140270158945D+02
0.582048258787D-03 0.000000000000D+00 0.000000000000D+00 0.142336934405D-02 0.000000000000D+00  5 2 -1 25 24 21 0 0.21318253D-01 0.25432507D-01 0.12543179D+05 0.12543179D+05 0.12543179D+05 0.12567770D+01  1  2  2  1  5  1        2 0.220394699189D+00 0.100000000000D+01
-.287708332139D-04 0.000000000000D+00 -.223521857057D-05 0.142336934405D-02 0.000000000000D+00  5 2 -1 25 24 21 2 0.21318253D-01 0.25432507D-01 0.12543179D+05 0.12543179D+05 0.12543179D+05 0.12567770D+01  1  2  3  1  5  1        2 -.172072335942D-01 0.100000000000D+01
0.398806168434D-04 0.000000000000D+00 0.000000000000D+00 0.142336934405D-02 0.000000000000D+00  5 2 -1 25 24 21 2 0.21318253D-01 0.25432507D-01 0.12543179D+05 0.12543179D+05 0.12543179D+05 0.12567770D+01  1  2 15  1  5  1        2 0.238517628184D-01 0.100000000000D+01
0.655792851300D-03 0.000000000000D+00 0.000000000000D+00 0.142336934405D-02 0.000000000000D+00  5 2 -1 25 24 21 2 0.29830065D-01 0.25432507D-01 0.19026135D+05 0.19026135D+05 0.19026135D+05 0.12362199D+01  1  2 12  1  5  1        2 0.264976192880D+00 0.100000000000D+01
-.827875604834D-03 0.000000000000D+00 0.000000000000D+00 0.142336934405D-02 0.000000000000D+00  5 2 -1 25 24 21 2 0.21318253D-01 0.25432507D-01 0.12543179D+05 0.12543179D+05 0.12543179D+05 0.12567770D+01  1  2  4  1  5  1        2 -.495135083972D+00 0.100000000000D+01
-.968347275244D-03 0.000000000000D+00 -.297842391860D-03 0.142336934405D-02 0.000000000000D+00  5 2 -1 25 24 21 2 0.31185331D-01 0.25432507D-01 0.12543179D+05 0.12543179D+05 0.12543179D+05 0.12567770D+01  1  2  5  1  5  1        2 -.382092660925D+00 0.100000000000D+01
0.102677921029D-02 0.000000000000D+00 0.277521541590D-03 0.142336934405D-02 0.000000000000D+00  5 2 -1 25 24 21 2 0.21318253D-01 0.25432507D-01 0.12543179D+05 0.12543179D+05 0.12543179D+05 0.12567770D+01  1  2  6  1  5  1        2 0.614095170266D+00 0.100000000000D+01
0.275050919665D-04 0.000000000000D+00 0.000000000000D+00 0.142336934405D-02 0.000000000000D+00  5 21 -1 25 24 -2 2 0.29830065D-01 0.25432507D-01 0.19026135D+05 0.19026135D+05 0.19026135D+05 0.12362199D+01  1  2 12  3  5  1        2 0.559880003818D-01 0.100000000000D+01
-.349444694627D-04 0.000000000000D+00 -.136658694819D-04 0.142336934405D-02 0.000000000000D+00  5 21 -1 25 24 -2 2 0.31185331D-01 0.25432507D-01 0.12543179D+05 0.12543179D+05 0.12543179D+05 0.12567770D+01  1  2  5  3  5  1        2 -.675031683905D-01 0.100000000000D+01
  </mgrwgt>
  </event>
  <event>
  4     66 -.48098993E-03 0.10421869E+03 0.75467711E-02 0.11543691E+00
        2 -1    0    0  501    0 0.00000000E+00 0.00000000E+00 0.15319810E+04 0.15319810E+04 0.32000000E+00 0.0000E+00 0.9000E+01
       -1 -1    0    0    0  501 0.00000000E+00 0.00000000E+00 -.25868947E+02 0.25870926E+02 0.32000000E+00 0.0000E+00 0.9000E+01
       25  1    1    2    0    0 0.12926527E+03 0.97374131E+02 0.59986311E+03 0.63376019E+03 0.12500000E+03 0.0000E+00 0.9000E+01
       24  1    1    2    0    0 -.12926527E+03 -.97374131E+02 0.90624894E+03 0.92409177E+03 0.80419002E+02 0.0000E+00 0.9000E+01
#aMCatNLO 1  0  0  2  1 0.39907980D+01 0.00000000D+00  -5  5  0 0.00000000D+00 0.00000000D+00 0.00000000D+00 0.00000000D+00 0.00000000D+00
  <mgrwgt>
 -.2821928269D+00   11    2    0
 0.199078635121854D+03 0.000000000000000D+00 0.000000000000000D+00 0.199078635121854D+03
 0.199078635121854D+03 0.000000000000000D+00 0.000000000000000D+00 -.199078635121854D+03
 0.210578844624527D+03 0.129265268414960D+03 0.973741309880475D+02 -.502714511361224D+02
 0.187578425619182D+03 -.129265268414960D+03 -.973741309880475D+02 0.502714511361224D+02
 0.000000000000000D+00 -.000000000000000D+00 0.000000000000000D+00 -.000000000000000D+00
 0.199981238504842D+03 0.000000000000000D+00 0.000000000000000D+00 0.199981238504842D+03
 0.203549313202027D+03 0.000000000000000D+00 0.000000000000000D+00 -.203549313202027D+03
 0.210695936207920D+03 0.130643522749272D+03 0.957748855330078D+02 -.502714511361224D+02
 0.187481333756466D+03 -.128038212435097D+03 -.987979347447417D+02 0.502714511361224D+02
 0.535328174248263D+01 -.260531031417454D+01 0.302304921173394D+01 -.356807469718453D+01
0.102605042172D-02 0.000000000000D+00 0.000000000000D+00 0.203512067005D-02 0.000000000000D+00  5 2 -1 25 24 21 0 0.23568954D+00 0.39799928D-02 0.37096042D+05 0.37096042D+05 0.37096042D+05 0.12053385D+01  1  2  2  2  5  2       -1 0.378262769949D+00 0.100000000000D+01
-.569270184402D-04 0.000000000000D+00 -.394030378467D-05 0.203512067005D-02 0.000000000000D+00  5 2 -1 25 24 21 2 0.23568954D+00 0.39799928D-02 0.37096042D+05 0.37096042D+05 0.37096042D+05 0.12053385D+01  1  2  3  2  5  2       -1 -.304902776683D-01 0.100000000000D+01
0.708287288095D-04 0.000000000000D+00 0.000000000000D+00 0.203512067005D-02 0.000000000000D+00  5 2 -1 25 24 21 2 0.23568954D+00 0.39799928D-02 0.37096042D+05 0.37096042D+05 0.37096042D+05 0.12053385D+01  1  2 15  2  5  2       -1 0.379360744242D-01 0.100000000000D+01
0.173118938800D-03 0.000000000000D+00 0.000000000000D+00 0.203512067005D-02 0.000000000000D+00  5 2 -1 25 24 21 2 0.23568954D+00 0.40782690D-02 0.37872517D+05 0.37872517D+05 0.37872517D+05 0.12044181D+01  1  2 12  2  5  2       -1 0.893038516601D-01 0.100000000000D+01
-.136883153067D-01 0.000000000000D+00 0.000000000000D+00 0.203512067005D-02 0.000000000000D+00  5 2 -1 25 24 21 2 0.23568954D+00 0.39799928D-02 0.37096042D+05 0.37096042D+05 0.37096042D+05 0.12053385D+01  1  2  4  2  5  2       -1 -.733150173588D+01 0.100000000000D+01
-.435581030494D-01 0.000000000000D+00 -.462268500502D-02 0.203512067005D-02 0.000000000000D+00  5 2 -1 25 24 21 2 0.23568954D+00 0.40887144D-02 0.37096042D+05 0.37096042D+05 0.37096042D+05 0.12053385D+01  1  2  5  2  5  2       -1 -.224167252561D+02 0.100000000000D+01
0.436685055026D-01 0.000000000000D+00 0.462100670588D-02 0.203512067005D-02 0.000000000000D+00  5 2 -1 25 24 21 2 0.23568954D+00 0.39799928D-02 0.37096042D+05 0.37096042D+05 0.37096042D+05 0.12053385D+01  1  2  6  2  5  2       -1 0.233889793391D+02 0.100000000000D+01
0.135168683607D-01 0.000000000000D+00 0.000000000000D+00 0.203512067005D-02 0.988872494520D-03  5 2 -1 25 24 21 2 0.23675813D+00 0.40693709D-02 0.37872517D+05 0.37872517D+05 0.37872517D+05 0.12044181D+01  1  2 11  2  5  2       -1 0.693661574329D+01 0.100000000000D+01
0.671192312041D-05 0.000000000000D+00 0.000000000000D+00 0.203512067005D-02 0.000000000000D+00  5 2 21 25 24 1 2 0.23568954D+00 0.40782690D-02 0.37872517D+05 0.37872517D+05 0.37872517D+05 0.12044181D+01  1  2 12  4  5  2       -1 0.623279333055D-01 0.100000000000D+01
-.210258916962D-03 0.000000000000D+00 -.224432877266D-04 0.203512067005D-02 0.000000000000D+00  5 2 21 25 24 1 2 0.23568954D+00 0.40887144D-02 0.37096042D+05 0.37096042D+05 0.37096042D+05 0.12053385D+01  1  2  5  4  5  2       -1 -.194774521356D+01 0.100000000000D+01
0.596020214061D-04 0.000000000000D+00 0.000000000000D+00 0.203512067005D-02 0.399332469565D-05  5 2 21 25 24 1 2 0.23675813D+00 0.40693709D-02 0.37872517D+05 0.37872517D+05 0.37872517D+05 0.12044181D+01  1  2 11  4  5  2       -1 0.550843944536D+00 0.100000000000D+01
  </mgrwgt>
  </event>
  <event>
  4     66 0.48098993E-03 0.13181768E+03 0.75467711E-02 0.12147825E+00
        2 -1    0    0  501    0 0.00000000E+00 0.00000000E+00 0.76820255E+03 0.76820262E+03 0.32000000E+00 0.0000E+00 0.9000E+01
       -1 -1    0    0    0  501 0.00000000E+00 0.00000000E+00 -.28137320E+02 0.28139140E+02 0.32000000E+00 0.0000E+00 0.9000E+01
       25  1    1    2    0    0 -.81420454E+02 0.14698897E+01 0.23411314E+03 0.27760658E+03 0.12500000E+03 0.0000E+00 0.9000E+01
       24  1    1    2    0    0 0.81420454E+02 -.14698897E+01 0.50595209E+03 0.51873518E+03 0.80419002E+02 0.0000E+00 0.9000E+01
#aMCatNLO 1  0  0  2  1 0.14041936D+02 0.00000000D+00  -5  5  0 0.00000000D+00 0.00000000D+00 0.00000000D+00 0.00000000D+00 0.00000000D+00
  <mgrwgt>
 0.3565722175D+00    4    2    0
 0.147023509859119D+03 0.000000000000000D+00 0.000000000000000D+00 0.147023509859119D+03
 0.147023509859119D+03 0.000000000000000D+00 0.000000000000000D+00 -.147023509859119D+03
 0.162595482080441D+03 -.814204537777279D+02 0.146988967385132D+01 -.646594148128987D+02
 0.131451537637798D+03 0.814204537777279D+02 -.146988967385132D+01 0.646594148128987D+02
 0.000000000000000D+00 0.000000000000000D+00 -.000000000000000D+00 0.000000000000000D+00
 0.177996141637741D+03 0.000000000000000D+00 0.000000000000000D+00 0.177996141637741D+03
 0.148791244188190D+03 0.000000000000000D+00 0.000000000000000D+00 -.148791244188190D+03
 0.165878059768140D+03 -.875769826034906D+02 0.632162214657088D+01 -.646594148128987D+02
 0.128504048676479D+03 0.765481464023606D+02 0.236979541155271D+01 0.646594148128987D+02
 0.324052773813122D+02 0.110288362011300D+02 -.869141755812360D+01 0.292048974495507D+02
0.446645087142D-03 0.000000000000D+00 0.000000000000D+00 0.200563063782D-02 0.000000000000D+00  5 2 -1 25 24 21 0 0.11818515D+00 0.43289636D-02 0.17375902D+05 0.17375902D+05 0.17375902D+05 0.12406079D+01  1  2  2  2  5  2       -1 0.398323671529D+00 0.100000000000D+01
-.244540324061D-04 0.000000000000D+00 -.171523473898D-05 0.200563063782D-02 0.000000000000D+00  5 2 -1 25 24 21 2 0.11818515D+00 0.43289636D-02 0.17375902D+05 0.17375902D+05 0.17375902D+05 0.12406079D+01  1  2  3  2  5  2       -1 -.335655017259D-01 0.100000000000D+01
0.307892397474D-04 0.000000000000D+00 0.000000000000D+00 0.200563063782D-02 0.000000000000D+00  5 2 -1 25 24 21 2 0.11818515D+00 0.43289636D-02 0.17375902D+05 0.17375902D+05 0.17375902D+05 0.12406079D+01  1  2 15  2  5  2       -1 0.422611805987D-01 0.100000000000D+01
-.367530875356D-04 0.000000000000D+00 0.000000000000D+00 0.200563063782D-02 0.000000000000D+00  5 2 -1 25 24 21 2 0.11818515D+00 0.43289636D-02 0.17375902D+05 0.17375902D+05 0.17375902D+05 0.12406079D+01  1  2  4  2  5  2       -1 -.504471329154D-01 0.100000000000D+01
  </mgrwgt>
  </event>
  <event>
  5     66 0.48098993E-03 0.14466706E+03 0.75467711E-02 0.11541384E+00
        2 -1    0    0  501    0 0.00000000E+00 0.00000000E+00 0.95164882E+03 0.95164888E+03 0.32000000E+00 0.0000E+00 0.9000E+01
       21 -1    0    0  502  501 0.00000000E+00 0.00000000E+00 -.53034735E+02 0.53040038E+02 0.75000000E+00 0.0000E+00 0.9000E+01
       25  1    1    2    0    0 0.89151835E+02 -.48822166E+02 0.52146011E+03 0.54578137E+03 0.12500000E+03 0.0000E+00 0.9000E+01
       24  1    1    2    0    0 -.29037145E+02 0.11234282E+03 0.33137096E+03 0.36019161E+03 0.80419002E+02 0.0000E+00 0.9000E+01
        1  1    1    2  502    0 -.60114690E+02 -.63520655E+02 0.45783017E+02 0.98715939E+02 0.32000000E+00 0.0000E+00 0.9000E+01
#aMCatNLO 2  0  0  2  1 0.87456558D+02 0.00000000D+00  -5  5  0 0.00000000D+00 0.00000000D+00 0.00000000D+00 0.00000000D+00 0.00000000D+00
  <mgrwgt>
 0.1775088033D+00    2    2    0
 0.146473160195477D+03 0.000000000000000D+00 0.000000000000000D+00 0.146473160195477D+03
 0.146473160195477D+03 0.000000000000000D+00 0.000000000000000D+00 -.146473160195477D+03
 0.162103641632158D+03 0.565354605123396D+02 -.832865120462640D+02 0.227966937566011D+02
 0.130842678758796D+03 -.565354605123396D+02 0.832865120462640D+02 -.227966937566011D+02
 0.000000000000000D+00 -.000000000000000D+00 -.000000000000000D+00 -.000000000000000D+00
 0.165419758313385D+03 0.000000000000000D+00 0.000000000000000D+00 0.165419758313385D+03
 0.305121015714393D+03 0.000000000000000D+00 0.000000000000000D+00 -.305121015714393D+03
 0.162715527146549D+03 0.891518346274579D+02 -.488221661840746D+02 0.227966937566011D+02
 0.143006889713390D+03 -.290371450338042D+02 0.112342821369150D+03 -.227966937566011D+02
 0.164818357167839D+03 -.601146895936537D+02 -.635206551850752D+02 -.139701257401009D+03
-.113706193917D-04 0.000000000000D+00 0.000000000000D+00 0.238525695844D-02 0.000000000000D+00  5 2 21 25 24 1 2 0.12963876D+00 0.81540178D-02 0.37975376D+05 0.37975376D+05 0.37975376D+05 0.12042978D+01  1  2 13  4  5  2       -1 -.803818036971D-01 0.100000000000D+01
0.429094197703D-04 0.000000000000D+00 0.000000000000D+00 0.238525695844D-02 0.311193862890D-06  5 2 21 25 24 1 2 0.14640779D+00 0.81595948D-02 0.37975376D+05 0.37975376D+05 0.37975376D+05 0.12042978D+01  1  2  1  4  5  2       -1 0.257890606999D+00 0.100000000000D+01
  </mgrwgt>
  </event>
  <event>
  5     66 0.48098993E-03 0.19622651E+03 0.75467711E-02 0.11178829E+00
       21 -1    0    0  501  502 0.00000000E+00 0.00000000E+00 0.32209625E+03 0.32209712E+03 0.75000000E+00 0.0000E+00 0.9000E+01
       -1 -1    0    0    0  501 0.00000000E+00 0.00000000E+00 -.24226926E+03 0.24226947E+03 0.32000000E+00 0.0000E+00 0.9000E+01
       25  1    1    2    0    0 -.13459463E+03 0.99025043E+02 -.40674472E+02 0.21260547E+03 0.12500000E+03 0.0000E+00 0.9000E+01
       24  1    1    2    0    0 0.74701926E+02 -.15843387E+03 -.13722231E+02 0.19322832E+03 0.80419002E+02 0.0000E+00 0.9000E+01
       -2  1    1    2    0  502 0.59892707E+02 0.59408826E+02 0.13422369E+03 0.15853279E+03 0.32000000E+00 0.0000E+00 0.9000E+01
#aMCatNLO 2  0  0  1  2 0.84359617D+02 0.00000000D+00  -5  5  0 0.00000000D+00 0.00000000D+00 0.00000000D+00 0.00000000D+00 0.00000000D+00
  <mgrwgt>
 0.3032394702D-01    2    2    0
 0.196612259519664D+03 0.000000000000000D+00 0.000000000000000D+00 0.196612259519664D+03
 0.196612259519664D+03 0.000000000000000D+00 0.000000000000000D+00 -.196612259519664D+03
 0.208256731827752D+03 -.103172526155324D+03 0.130193286771809D+03 -.122883797898176D+02
 0.184967787211576D+03 0.103172526155324D+03 -.130193286771809D+03 0.122883797898176D+02
 0.000000000000000D+00 0.000000000000000D+00 0.000000000000000D+00 0.000000000000000D+00
 0.368595484292786D+03 0.000000000000000D+00 0.000000000000000D+00 0.368595484292786D+03
 0.211706942113053D+03 0.000000000000000D+00 0.000000000000000D+00 -.211706942113053D+03
 0.209039897565034D+03 -.134594633334132D+03 0.990250431648051D+02 -.122883797898176D+02
 0.193131791333351D+03 0.747019260007328D+02 -.158433868990127D+03 0.122883797898176D+02
 0.178130737507454D+03 0.598927073333994D+02 0.594088258253216D+02 0.156888542179733D+03
-.164814666127D-03 0.000000000000D+00 0.000000000000D+00 0.216600128540D-02 0.000000000000D+00  5 21 -1 25 24 -2 2 0.49754286D-01 0.34614745D-01 0.58995182D+05 0.58995182D+05 0.58995182D+05 0.11852312D+01  1  2 13  3  5  1        2 -.643112764121D-01 0.100000000000D+01
0.273650007405D-03 0.000000000000D+00 0.000000000000D+00 0.216600128540D-02 0.216691292154D-06  5 21 -1 25 24 -2 2 0.49553320D-01 0.37272253D-01 0.58995182D+05 0.58995182D+05 0.58995182D+05 0.11852312D+01  1  2  1  3  5  1        2 0.946352234274D-01 0.100000000000D+01
  </mgrwgt>
  </event>
  <event>
  4     66 0.48098993E-03 0.67539555E+02 0.75467711E-02 0.12161509E+00
        2 -1    0    0  501    0 0.00000000E+00 0.00000000E+00 0.51724109E+03 0.51724119E+03 0.32000000E+00 0.0000E+00 0.9000E+01
       -1 -1    0    0    0  501 0.00000000E+00 0.00000000E+00 -.28491863E+02 0.28493660E+02 0.32000000E+00 0.0000E+00 0.9000E+01
       25  1    1    2    0    0 0.26823682E+01 -.59118688E+02 0.22986371E+03 0.26826207E+03 0.12500000E+03 0.0000E+00 0.9000E+01
       24  1    1    2    0    0 -.26823682E+01 0.59118688E+02 0.25888552E+03 0.27747278E+03 0.80419002E+02 0.0000E+00 0.9000E+01
#aMCatNLO 1  0  0  1  2 0.35125229D+02 0.00000000D+00  -5  5  0 0.00000000D+00 0.00000000D+00 0.00000000D+00 0.00000000D+00 0.00000000D+00
  <mgrwgt>
 0.4755160716D+00    9    2    0
 0.121398844296213D+03 0.000000000000000D+00 0.000000000000000D+00 0.121398844296213D+03
 0.121398844296213D+03 0.000000000000000D+00 0.000000000000000D+00 -.121398844296213D+03
 0.140257722440235D+03 0.268236822626906D+01 -.591186875326862D+02 -.233455432413412D+02
 0.102539966152191D+03 -.268236822626906D+01 0.591186875326862D+02 0.233455432413412D+02
 0.000000000000000D+00 -.000000000000000D+00 -.000000000000000D+00 0.000000000000000D+00
 0.141501169048309D+03 0.000000000000000D+00 0.000000000000000D+00 0.141501169048309D+03
 0.139035768828031D+03 0.000000000000000D+00 0.000000000000000D+00 -.139035768828031D+03
 0.141986253176984D+03 0.229906002570224D+02 -.588346326735108D+02 -.233455432413412D+02
 0.103339039710625D+03 0.121311937361420D+02 0.593258874627808D+02 0.233455432413412D+02
 0.352116449887308D+02 -.351217939931644D+02 -.491254789270068D+00 0.246540022027821D+01
0.195492943621D-03 0.000000000000D+00 0.000000000000D+00 0.266878421942D-02 0.000000000000D+00  5 2 -1 25 24 21 0 0.79575698D-01 0.43835093D-02 0.14178642D+05 0.14178642D+05 0.14178642D+05 0.12506203D+01  1  2  2  1  5  1        2 0.268120198211D+00 0.100000000000D+01
-.108557823100D-04 0.000000000000D+00 -.750744377978D-06 0.266878421942D-02 0.000000000000D+00  5 2 -1 25 24 21 2 0.79575698D-01 0.43835093D-02 0.14178642D+05 0.14178642D+05 0.14178642D+05 0.12506203D+01  1  2  3  1  5  1        2 -.232868374420D-01 0.100000000000D+01
0.135207660825D-04 0.000000000000D+00 0.000000000000D+00 0.266878421942D-02 0.000000000000D+00  5 2 -1 25 24 21 2 0.79575698D-01 0.43835093D-02 0.14178642D+05 0.14178642D+05 0.14178642D+05 0.12506203D+01  1  2 15  1  5  1        2 0.290035183889D-01 0.100000000000D+01
0.144621687745D-03 0.000000000000D+00 0.000000000000D+00 0.266878421942D-02 0.000000000000D+00  5 2 -1 25 24 21 2 0.97675291D-01 0.43835093D-02 0.19022832D+05 0.19022832D+05 0.19022832D+05 0.12362283D+01  1  2 12  1  5  1        2 0.243312895046D+00 0.100000000000D+01
-.130682347719D-03 0.000000000000D+00 0.000000000000D+00 0.266878421942D-02 0.000000000000D+00  5 2 -1 25 24 21 2 0.79575698D-01 0.43835093D-02 0.14178642D+05 0.14178642D+05 0.14178642D+05 0.12506203D+01  1  2  4  1  5  1        2 -.280327893556D+00 0.100000000000D+01
-.364384494744D-03 0.000000000000D+00 -.123453287255D-03 0.266878421942D-02 0.000000000000D+00  5 2 -1 25 24 21 2 0.10369416D+00 0.43835093D-02 0.14178642D+05 0.14178642D+05 0.14178642D+05 0.12506203D+01  1  2  5  1  5  1        2 -.579648199611D+00 0.100000000000D+01
0.387608068665D-03 0.000000000000D+00 0.119249964141D-03 0.266878421942D-02 0.000000000000D+00  5 2 -1 25 24 21 2 0.79575698D-01 0.43835093D-02 0.14178642D+05 0.14178642D+05 0.14178642D+05 0.12506203D+01  1  2  6  1  5  1        2 0.831461596085D+00 0.100000000000D+01
0.421660932111D-05 0.000000000000D+00 0.000000000000D+00 0.266878421942D-02 0.000000000000D+00  5 21 -1 25 24 -2 2 0.97675291D-01 0.43835093D-02 0.19022832D+05 0.19022832D+05 0.19022832D+05 0.12362283D+01  1  2 12  3  5  1        2 0.106183503314D-01 0.100000000000D+01
-.105910525640D-04 0.000000000000D+00 -.435761617236D-05 0.266878421942D-02 0.000000000000D+00  5 21 -1 25 24 -2 2 0.10369416D+00 0.43835093D-02 0.14178642D+05 0.14178642D+05 0.14178642D+05 0.12506203D+01  1  2  5  3  5  1        2 -.237375558235D-01 0.100000000000D+01
  </mgrwgt>
  </event>
  <event>
  4     66 0.48098993E-03 0.73033820E+02 0.75467711E-02 0.11793843E+00
        2 -1    0    0  501    0 0.00000000E+00 0.00000000E+00 0.78341759E+03 0.78341765E+03 0.32000000E+00 0.0000E+00 0.9000E+01
       -1 -1    0    0    0  501 0.00000000E+00 0.00000000E+00 -.28719233E+02 0.28721016E+02 0.32000000E+00 0.0000E+00 0.9000E+01
       25  1    1    2    0    0 0.81271359E+02 -.69898801E+02 0.45363391E+03 0.48259673E+03 0.12500000E+03 0.0000E+00 0.9000E+01
       24  1    1    2    0    0 -.81271359E+02 0.69898801E+02 0.30106444E+03 0.32954194E+03 0.80419002E+02 0.0000E+00 0.9000E+01
#aMCatNLO 1  0  0  2  1 0.36222658D+02 0.00000000D+00  -5  5  0 0.00000000D+00 0.00000000D+00 0.00000000D+00 0.00000000D+00 0.00000000D+00
  <mgrwgt>
 0.4024422551D+00    9    2    0
 0.149999676343275D+03 0.000000000000000D+00 0.000000000000000D+00 0.149999676343275D+03
 0.149999676343275D+03 0.000000000000000D+00 0.000000000000000D+00 -.149999676343275D+03
 0.165262682685821D+03 0.812713590841039D+02 -.698988007849019D+02 0.139956468221285D+02
 0.134736670000728D+03 -.812713590841039D+02 0.698988007849019D+02 -.139956468221285D+02
 0.000000000000000D+00 0.000000000000000D+00 0.000000000000000D+00 -.000000000000000D+00
 0.159017688245101D+03 0.000000000000000D+00 0.000000000000000D+00 0.159017688245101D+03
 0.192461077597874D+03 0.000000000000000D+00 0.000000000000000D+00 -.192461077597874D+03
 0.174327384096088D+03 0.801024479415861D+02 -.902926162517215D+02 0.139956468221285D+02
 0.127850862219861D+03 -.821752179490218D+02 0.541293122166941D+02 -.139956468221285D+02
 0.493005195270263D+02 0.207277000743564D+01 0.361633040350274D+02 -.334433893527726D+02
0.395722271064D-03 0.000000000000D+00 0.000000000000D+00 0.239017754547D-02 0.000000000000D+00  5 2 -1 25 24 21 0 0.12052592D+00 0.44184857D-02 0.22301957D+05 0.22301957D+05 0.22301957D+05 0.12286511D+01  1  2  2  2  5  2       -1 0.336566908309D+00 0.100000000000D+01
-.219840488128D-04 0.000000000000D+00 -.151967771695D-05 0.239017754547D-02 0.000000000000D+00  5 2 -1 25 24 21 2 0.12052592D+00 0.44184857D-02 0.22301957D+05 0.22301957D+05 0.22301957D+05 0.12286511D+01  1  2  3  2  5  2       -1 -.282257647391D-01 0.100000000000D+01
0.272024109421D-04 0.000000000000D+00 0.000000000000D+00 0.239017754547D-02 0.000000000000D+00  5 2 -1 25 24 21 2 0.12052592D+00 0.44184857D-02 0.22301957D+05 0.22301957D+05 0.22301957D+05 0.12286511D+01  1  2 15  2  5  2       -1 0.349257253805D-01 0.100000000000D+01
0.510108105840D-03 0.000000000000D+00 0.000000000000D+00 0.239017754547D-02 0.000000000000D+00  5 2 -1 25 24 21 2 0.12052592D+00 0.57744180D-02 0.28404018D+05 0.28404018D+05 0.28404018D+05 0.12173981D+01  1  2 12  2  5  2       -1 0.434491075807D+00 0.100000000000D+01
-.526933008650D-03 0.000000000000D+00 0.000000000000D+00 0.239017754547D-02 0.000000000000D+00  5 2 -1 25 24 21 2 0.12052592D+00 0.44184857D-02 0.22301957D+05 0.22301957D+05 0.22301957D+05 0.12286511D+01  1  2  4  2  5  2       -1 -.676539943213D+00 0.100000000000D+01
-.799129592513D-03 0.000000000000D+00 -.187571667957D-03 0.239017754547D-02 0.000000000000D+00  5 2 -1 25 24 21 2 0.12052592D+00 0.60079162D-02 0.22301957D+05 0.22301957D+05 0.22301957D+05 0.12286511D+01  1  2  5  2  5  2       -1 -.650166344855D+00 0.100000000000D+01
0.825983554278D-03 0.000000000000D+00 0.179051770367D-03 0.239017754547D-02 0.000000000000D+00  5 2 -1 25 24 21 2 0.12052592D+00 0.44184857D-02 0.22301957D+05 0.22301957D+05 0.22301957D+05 0.12286511D+01  1  2  6  2  5  2       -1 0.106049698488D+01 0.100000000000D+01
0.181498236008D-04 0.000000000000D+00 0.000000000000D+00 0.239017754547D-02 0.000000000000D+00  5 2 21 25 24 1 2 0.12052592D+00 0.57744180D-02 0.28404018D+05 0.28404018D+05 0.28404018D+05 0.12173981D+01  1  2 12  4  5  2       -1 0.260791323625D+00 0.100000000000D+01
-.270657139067D-04 0.000000000000D+00 -.737726103312D-05 0.239017754547D-02 0.000000000000D+00  5 2 21 25 24 1 2 0.12052592D+00 0.60079162D-02 0.22301957D+05 0.22301957D+05 0.22301957D+05 0.12286511D+01  1  2  5  4  5  2       -1 -.369897710047D+00 0.100000000000D+01
  </mgrwgt>
  </event>
  <event>
  4     66 0.48098993E-03 0.14956738E+03 0.75467711E-02 0.11745784E+00
        2 -1    0    0  501    0 0.00000000E+00 0.00000000E+00 0.11424812E+04 0.11424812E+04 0.32000000E+00 0.0000E+00 0.9000E+01
       -1 -1    0    0    0  501 0.00000000E+00 0.00000000E+00 -.26984283E+02 0.26986180E+02 0.32000000E+00 0.0000E+00 0.9000E+01
       25  1    1    2    0    0 -.10717648E+03 -.84737581E+01 0.90430238E+03 0.91920966E+03 0.12500000E+03 0.0000E+00 0.9000E+01
       24  1    1    2    0    0 0.10717648E+03 0.84737581E+01 0.21119454E+03 0.25025777E+03 0.80419002E+02 0.0000E+00 0.9000E+01
#aMCatNLO 1  0  0  1  1 0.43785455D+02 0.00000000D+00  -5  5  0 0.00000000D+00 0.00000000D+00 0.00000000D+00 0.00000000D+00 0.00000000D+00
  <mgrwgt>
 0.4208139626D+00    4    2    0
 0.175585226251787D+03 0.000000000000000D+00 0.000000000000000D+00 0.175585226251787D+03
 0.175585226251787D+03 0.000000000000000D+00 0.000000000000000D+00 -.175585226251787D+03
 0.188624170702184D+03 -.107176475749307D+03 -.847375814727126D+01 0.916268314518539D+02
 0.162546281801391D+03 0.107176475749307D+03 0.847375814727126D+01 -.916268314518539D+02
 0.000000000000000D+00 -.000000000000000D+00 -.000000000000000D+00 -.000000000000000D+00
 0.181422734770263D+03 0.000000000000000D+00 0.000000000000000D+00 0.181422734770263D+03
 0.283978924798838D+03 0.000000000000000D+00 0.000000000000000D+00 -.283978924798838D+03
 0.185692194220140D+03 -.101314059015482D+03 0.140205634049087D+02 0.916268314518539D+02
 0.168197411194077D+03 0.112356471982776D+03 0.283496056356370D+02 -.916268314518539D+02
 0.111512054154884D+03 -.110424129672936D+02 -.423701690405457D+02 -.102556190028575D+03
0.798666850276D-03 0.000000000000D+00 0.000000000000D+00 0.167824535256D-02 0.000000000000D+00  5 2 -1 25 24 21 0 0.17576649D+00 0.41515776D-02 0.22370402D+05 0.22370402D+05 0.22370402D+05 0.12285065D+01  1  2  2  1  5  1        2 0.447467413016D+00 0.100000000000D+01
-.429827886519D-04 0.000000000000D+00 -.306709099887D-05 0.167824535256D-02 0.000000000000D+00  5 2 -1 25 24 21 2 0.17576649D+00 0.41515776D-02 0.22370402D+05 0.22370402D+05 0.22370402D+05 0.12285065D+01  1  2  3  1  5  1        2 -.363450470620D-01 0.100000000000D+01
0.551666229007D-04 0.000000000000D+00 0.000000000000D+00 0.167824535256D-02 0.000000000000D+00  5 2 -1 25 24 21 2 0.17576649D+00 0.41515776D-02 0.22370402D+05 0.22370402D+05 0.22370402D+05 0.12285065D+01  1  2 15  1  5  1        2 0.466473574299D-01 0.100000000000D+01
-.437050378347D-04 0.000000000000D+00 0.000000000000D+00 0.167824535256D-02 0.000000000000D+00  5 2 -1 25 24 21 2 0.17576649D+00 0.41515776D-02 0.22370402D+05 0.22370402D+05 0.22370402D+05 0.12285065D+01  1  2  4  1  5  1        2 -.369557608236D-01 0.100000000000D+01
  </mgrwgt>
  </event>
  <event>
  4     66 0.48098993E-03 0.14339908E+03 0.75467711E-02 0.10079291E+00
        2 -1    0    0  501    0 0.00000000E+00 0.00000000E+00 0.79195258E+03 0.79195264E+03 0.32000000E+00 0.0000E+00 0.9000E+01
       -1 -1    0    0    0  501 0.00000000E+00 0.00000000E+00 -.37100047E+02 0.37101427E+02 0.32000000E+00 0.0000E+00 0.9000E+01
       25  1    1    2    0    0 -.97456662E+02 -.16561567E+02 0.63294737E+03 0.65270167E+03 0.12500000E+03 0.0000E+00 0.9000E+01
       24  1    1    2    0    0 0.97456662E+02 0.16561567E+02 0.12190515E+03 0.17635240E+03 0.80419002E+02 0.0000E+00 0.9000E+01
#aMCatNLO 1  0  0  1  1 0.48392771D+03 0.00000000D+00  -5  5  0 0.00000000D+00 0.00000000D+00 0.00000000D+00 0.00000000D+00 0.00000000D+00
  <mgrwgt>
 0.3452668244D+00    5    2    0
 0.171412007445182D+03 0.000000000000000D+00 0.000000000000000D+00 0.171412007445182D+03
 0.171412007445182D+03 0.000000000000000D+00 0.000000000000000D+00 -.171412007445182D+03
 0.184768399716240D+03 -.974566621320562D+02 -.165615671820066D+02 0.935001338622263D+02
 0.158055615174124D+03 0.974566621320562D+02 0.165615671820066D+02 -.935001338622263D+02
 0.000000000000000D+00 0.000000000000000D+00 -.000000000000000D+00 0.000000000000000D+00
 0.721795691661563D+03 0.000000000000000D+00 0.000000000000000D+00 0.721795691661563D+03
 0.434197170901837D+03 0.000000000000000D+00 0.000000000000000D+00 -.434197170901837D+03
 0.335475612486030D+03 -.172344094078717D+03 0.241814236092107D+03 0.935001338622263D+02
 0.257579474073680D+03 0.376273440992956D+02 0.222984029592888D+03 -.935001338622263D+02
 0.562937776003689D+03 0.134716749979421D+03 -.464798265684995D+03 0.287598520759726D+03
0.583931646917D-03 0.000000000000D+00 0.000000000000D+00 0.164145601208D-02 0.000000000000D+00  5 2 -1 25 24 21 0 0.12183897D+00 0.57078106D-02 0.20563295D+05 0.20563295D+05 0.20563295D+05 0.12325003D+01  1  2  2  1  5  1        2 0.334578671125D+00 0.100000000000D+01
-.311847662019D-04 0.000000000000D+00 -.224245127690D-05 0.164145601208D-02 0.000000000000D+00  5 2 -1 25 24 21 2 0.12183897D+00 0.57078106D-02 0.20563295D+05 0.20563295D+05 0.20563295D+05 0.12325003D+01  1  2  3  1  5  1        2 -.271426823945D-01 0.100000000000D+01
0.402778800248D-04 0.000000000000D+00 0.000000000000D+00 0.164145601208D-02 0.000000000000D+00  5 2 -1 25 24 21 2 0.12183897D+00 0.57078106D-02 0.20563295D+05 0.20563295D+05 0.20563295D+05 0.12325003D+01  1  2 15  1  5  1        2 0.350571717601D-01 0.100000000000D+01
0.429130699373D-03 0.000000000000D+00 -.273866252946D-03 0.164145601208D-02 0.000000000000D+00  5 2 -1 25 24 21 2 0.66808455D+00 0.57078106D-02 0.20563295D+05 0.20563295D+05 0.20563295D+05 0.12325003D+01  1  2  5  1  5  1        2 0.275815789056D-02 0.100000000000D+01
0.767013509682D-04 0.000000000000D+00 -.570316780906D-04 0.164145601208D-02 0.000000000000D+00  5 21 -1 25 24 -2 2 0.66808455D+00 0.57078106D-02 0.20563295D+05 0.20563295D+05 0.20563295D+05 0.12325003D+01  1  2  5  3  5  1        2 0.155060460667D-04 0.100000000000D+01
  </mgrwgt>
  </event>
  <event>
  4     66 0.48098993E-03 0.12902001E+03 0.75467711E-02 0.10780513E+00
        2 -1    0    0  501    0 0.00000000E+00 0.00000000E+00 0.12581172E+03 0.12581213E+03 0.32000000E+00 0.0000E+00 0.9000E+01
       -1 -1    0    0    0  501 0.00000000E+00 0.00000000E+00 -.13381290E+03 0.13381328E+03 0.32000000E+00 0.0000E+00 0.9000E+01
       25  1    1    2    0    0 0.76868829E+02 0.24737767E+01 -.18175795E+02 0.14788609E+03 0.12500000E+03 0.0000E+00 0.9000E+01
       24  1    1    2    0    0 -.76868829E+02 -.24737767E+01 0.10174619E+02 0.11173932E+03 0.80419002E+02 0.0000E+00 0.9000E+01
#aMCatNLO 1  0  0  1  1 0.26212762D+03 0.00000000D+00  -5  5  0 0.00000000D+00 0.00000000D+00 0.00000000D+00 0.00000000D+00 0.00000000D+00
  <mgrwgt>
 0.3394040698D+00    5    2    0
 0.129751044922428D+03 0.000000000000000D+00 0.000000000000000D+00 0.129751044922428D+03
 0.129751044922428D+03 0.000000000000000D+00 0.000000000000000D+00 -.129751044922428D+03
 0.147395958786329D+03 0.768688292592474D+02 0.247377671037098D+01 -.136246902218402D+02
 0.112106131058527D+03 -.768688292592474D+02 -.247377671037098D+01 0.136246902218402D+02
 0.000000000000000D+00 -.000000000000000D+00 0.000000000000000D+00 0.000000000000000D+00
 0.403121101586819D+03 0.000000000000000D+00 0.000000000000000D+00 0.403121101586819D+03
 0.262972839680664D+03 0.000000000000000D+00 0.000000000000000D+00 -.262972839680664D+03
 0.272683927697184D+03 0.222588363376918D+03 -.948699780220659D+02 -.136246902218402D+02
 0.961686525985863D+02 -.462137009848990D+01 -.507366193496249D+02 0.136246902218402D+02
 0.297241360971713D+03 -.217966993278428D+03 0.145606597371691D+03 0.140148261906154D+03
0.463260093937D-03 0.000000000000D+00 0.000000000000D+00 0.259878893434D-02 0.000000000000D+00  5 2 -1 25 24 21 0 0.19355710D-01 0.20586661D-01 0.16646163D+05 0.16646163D+05 0.16646163D+05 0.12426998D+01  1  2  2  1  5  1        2 0.277912222274D+00 0.100000000000D+01
-.257356729451D-04 0.000000000000D+00 -.177904073990D-05 0.259878893434D-02 0.000000000000D+00  5 2 -1 25 24 21 2 0.19355710D-01 0.20586661D-01 0.16646163D+05 0.16646163D+05 0.16646163D+05 0.12426998D+01  1  2  3  1  5  1        2 -.238424424980D-01 0.100000000000D+01
0.320923129484D-04 0.000000000000D+00 0.000000000000D+00 0.259878893434D-02 0.000000000000D+00  5 2 -1 25 24 21 2 0.19355710D-01 0.20586661D-01 0.16646163D+05 0.16646163D+05 0.16646163D+05 0.12426998D+01  1  2 15  1  5  1        2 0.297314598197D-01 0.100000000000D+01
0.330482492742D-03 0.000000000000D+00 -.250438696811D-03 0.259878893434D-02 0.000000000000D+00  5 2 -1 25 24 21 2 0.11090210D+00 0.20586661D-01 0.16646163D+05 0.16646163D+05 0.16646163D+05 0.12426998D+01  1  2  5  1  5  1        2 0.454752263319D-01 0.100000000000D+01
0.569353183987D-04 0.000000000000D+00 -.535548083611D-04 0.259878893434D-02 0.000000000000D+00  5 21 -1 25 24 -2 2 0.11090210D+00 0.20586661D-01 0.16646163D+05 0.16646163D+05 0.16646163D+05 0.12426998D+01  1  2  5  3  5  1        2 0.101276038484D-01 0.100000000000D+01
  </mgrwgt>
  </event>
  <event>
  4     66 0.48098993E-03 0.11546771E+03 0.75467711E-02 0.10905546E+00
        2 -1    0    0  501    0 0.00000000E+00 0.00000000E+00 0.10290696E+04 0.10290697E+04 0.32000000E+00 0.0000E+00 0.9000E+01
       -1 -1    0    0    0  501 0.00000000E+00 0.00000000E+00 -.14468850E+02 0.14472388E+02 0.32000000E+00 0.0000E+00 0.9000E+01
       25  1    1    2    0    0 0.19871820E+02 0.47800910E+02 0.41873799E+03 0.44005263E+03 0.12500000E+03 0.0000E+00 0.9000E+01
       24  1    1    2    0    0 -.19871820E+02 -.47800910E+02 0.59586281E+03 0.60348945E+03 0.80419002E+02 0.0000E+00 0.9000E+01
#aMCatNLO 1  0  0  1  1 0.24442398D+03 0.00000000D+00  -5  5  0 0.00000000D+00 0.00000000D+00 0.00000000D+00 0.00000000D+00 0.00000000D+00
  <mgrwgt>
 0.4831048769D+00    3    2    0
 0.122030021706447D+03 0.000000000000000D+00 0.000000000000000D+00 0.122030021706447D+03
 0.122030021706447D+03 0.000000000000000D+00 0.000000000000000D+00 -.122030021706447D+03
 0.140791355838754D+03 0.198718201820326D+02 0.478009102591975D+02 -.389536855760774D+02
 0.103268687574140D+03 -.198718201820326D+02 -.478009102591975D+02 0.389536855760774D+02
 0.000000000000000D+00 -.000000000000000D+00 -.000000000000000D+00 -.000000000000000D+00
 0.229727104261188D+03 0.000000000000000D+00 0.000000000000000D+00 0.229727104261188D+03
 0.434635780291977D+03 0.000000000000000D+00 0.000000000000000D+00 -.434635780291977D+03
 0.239631913808926D+03 0.158401445044556D+03 0.123247907501772D+03 -.389536855760774D+02
 0.105778548094359D+03 0.562519015937791D+02 -.634186326752476D+01 0.389536855760774D+02
 0.318952422649880D+03 -.214653346638335D+03 -.116906044234247D+03 -.204908676030788D+03
0.297066088827D-03 0.000000000000D+00 0.000000000000D+00 0.250272728284D-02 0.000000000000D+00  5 2 -1 25 24 21 0 0.15831868D+00 0.22262529D-02 0.13332791D+05 0.13332791D+05 0.13332791D+05 0.12536985D+01  1  2  2  1  5  1        2 0.472799050225D+00 0.100000000000D+01
-.164423605767D-04 0.000000000000D+00 -.114081200039D-05 0.250272728284D-02 0.000000000000D+00  5 2 -1 25 24 21 2 0.15831868D+00 0.22262529D-02 0.13332791D+05 0.13332791D+05 0.13332791D+05 0.12536985D+01  1  2  3  1  5  1        2 -.411314403959D-01 0.100000000000D+01
0.205621316515D-04 0.000000000000D+00 0.000000000000D+00 0.250272728284D-02 0.000000000000D+00  5 2 -1 25 24 21 2 0.15831868D+00 0.22262529D-02 0.13332791D+05 0.13332791D+05 0.13332791D+05 0.12536985D+01  1  2 15  1  5  1        2 0.514372670816D-01 0.100000000000D+01
  </mgrwgt>
  </event>
  <event>
  4     66 0.48098993E-03 0.43807222E+03 0.75467711E-02 0.92657118E-01
        2 -1    0    0  501    0 0.00000000E+00 0.00000000E+00 0.14914374E+04 0.14914375E+04 0.32000000E+00 0.0000E+00 0.9000E+01
       -1 -1    0    0    0  501 0.00000000E+00 0.00000000E+00 -.12889875E+03 0.12889915E+03 0.32000000E+00 0.0000E+00 0.9000E+01
       25  1    1    2    0    0 -.53165724E+02 0.42197379E+03 0.72332628E+03 0.84835982E+03 0.12500000E+03 0.0000E+00 0.9000E+01
       24  1    1    2    0    0 0.53165724E+02 -.42197379E+03 0.63921239E+03 0.77197679E+03 0.80419002E+02 0.0000E+00 0.9000E+01
#aMCatNLO 1  0  0  1  1 0.85549923D+03 0.00000000D+00  -5  5  0 0.00000000D+00 0.00000000D+00 0.00000000D+00 0.00000000D+00 0.00000000D+00
  <mgrwgt>
 0.5982171739D+00    3    2    0
 0.438457267775959D+03 0.000000000000000D+00 0.000000000000000D+00 0.438457267775959D+03
 0.438457267775959D+03 0.000000000000000D+00 0.000000000000000D+00 -.438457267775959D+03
 0.443678862169913D+03 -.531657235832996D+02 0.421973788841545D+03 0.183700871789986D+02
 0.433235673382005D+03 0.531657235832996D+02 -.421973788841545D+03 -.183700871789986D+02
 0.000000000000000D+00 -.000000000000000D+00 -.000000000000000D+00 -.000000000000000D+00
 0.654014235317962D+03 0.000000000000000D+00 0.000000000000000D+00 0.654014235317962D+03
 0.502499946504010D+04 0.000000000000000D+00 0.000000000000000D+00 -.502499946504010D+04
 0.691607131899797D+03 0.388362500476700D+03 0.558150994816979D+03 0.183700871789986D+02
 0.533487978558415D+03 0.429137751272952D+03 -.306015583984548D+03 -.183700871789986D+02
 0.445391858989985D+04 -.817500251749652D+03 -.252135410832431D+03 -.437098522972214D+04
0.186347563984D-01 0.000000000000D+00 0.000000000000D+00 0.194485584636D-02 0.000000000000D+00  5 2 -1 25 24 21 0 0.22945195D+00 0.19830611D-01 0.19190727D+06 0.19190727D+06 0.19190727D+06 0.11384287D+01  1  2  2  1  5  1        2 0.588109183310D+00 0.100000000000D+01
-.103526327274D-02 0.000000000000D+00 -.715623712139D-04 0.194485584636D-02 0.000000000000D+00  5 2 -1 25 24 21 2 0.22945195D+00 0.19830611D-01 0.19190727D+06 0.19190727D+06 0.19190727D+06 0.11384287D+01  1  2  3  1  5  1        2 -.423444737834D-01 0.100000000000D+01
0.128238953149D-02 0.000000000000D+00 0.000000000000D+00 0.194485584636D-02 0.000000000000D+00  5 2 -1 25 24 21 2 0.22945195D+00 0.19830611D-01 0.19190727D+06 0.19190727D+06 0.19190727D+06 0.11384287D+01  1  2 15  1  5  1        2 0.524524643405D-01 0.100000000000D+01
  </mgrwgt>
  </event>
  <event>
  4     66 0.48098993E-03 0.10499720E+03 0.75467711E-02 0.11946993E+00
        2 -1    0    0  501    0 0.00000000E+00 0.00000000E+00 0.61132965E+03 0.61132974E+03 0.32000000E+00 0.0000E+00 0.9000E+01
       -1 -1    0    0    0  501 0.00000000E+00 0.00000000E+00 -.27780254E+02 0.27782097E+02 0.32000000E+00 0.0000E+00 0.9000E+01
       25  1    1    2    0    0 -.14166192E+02 0.15908262E+02 0.14448733E+03 0.19223772E+03 0.12500000E+03 0.0000E+00 0.9000E+01
       24  1    1    2    0    0 0.14166192E+02 -.15908262E+02 0.43906207E+03 0.44687411E+03 0.80419002E+02 0.0000E+00 0.9000E+01
#aMCatNLO 1  0  0  1  1 0.84398189D+02 0.00000000D+00  -5  5  0 0.00000000D+00 0.00000000D+00 0.00000000D+00 0.00000000D+00 0.00000000D+00
  <mgrwgt>
 0.3081085942D+00    4    2    0
 0.130320792255915D+03 0.000000000000000D+00 0.000000000000000D+00 0.130320792255915D+03
 0.130320792255915D+03 0.000000000000000D+00 0.000000000000000D+00 -.130320792255915D+03
 0.147888564610395D+03 -.141661921334405D+02 0.159082617105500D+02 -.761069888532587D+02
 0.112753019901435D+03 0.141661921334405D+02 -.159082617105500D+02 0.761069888532587D+02
 0.000000000000000D+00 0.000000000000000D+00 -.000000000000000D+00 -.000000000000000D+00
 0.165178831754356D+03 0.000000000000000D+00 0.000000000000000D+00 0.165178831754356D+03
 0.200139153175668D+03 0.000000000000000D+00 0.000000000000000D+00 -.200139153175668D+03
 0.161718517772653D+03 -.589274488494806D+02 0.355409764970753D+02 -.761069888532587D+02
 0.112246972394265D+03 -.183630456951522D+02 -.164062725686955D+01 0.761069888532587D+02
 0.913524947631058D+02 0.772904945446329D+02 -.339003492402057D+02 -.349603214213118D+02
0.370238980384D-03 0.000000000000D+00 0.000000000000D+00 0.182635659786D-02 0.000000000000D+00  5 2 -1 25 24 21 0 0.94050864D-01 0.42740335D-02 0.11024411D+05 0.11024411D+05 0.11024411D+05 0.12633631D+01  1  2  2  1  5  1        2 0.433257822209D+00 0.100000000000D+01
-.194013196192D-04 0.000000000000D+00 -.142181517084D-05 0.182635659786D-02 0.000000000000D+00  5 2 -1 25 24 21 2 0.94050864D-01 0.42740335D-02 0.11024411D+05 0.11024411D+05 0.11024411D+05 0.12633631D+01  1  2  3  1  5  1        2 -.362369730786D-01 0.100000000000D+01
0.253594116527D-04 0.000000000000D+00 0.000000000000D+00 0.182635659786D-02 0.000000000000D+00  5 2 -1 25 24 21 2 0.94050864D-01 0.42740335D-02 0.11024411D+05 0.11024411D+05 0.11024411D+05 0.12633631D+01  1  2 15  1  5  1        2 0.473652481062D-01 0.100000000000D+01
-.729631414899D-04 0.000000000000D+00 0.000000000000D+00 0.182635659786D-02 0.000000000000D+00  5 2 -1 25 24 21 2 0.94050864D-01 0.42740335D-02 0.11024411D+05 0.11024411D+05 0.11024411D+05 0.12633631D+01  1  2  4  1  5  1        2 -.136277503067D+00 0.100000000000D+01
  </mgrwgt>
  </event>
  <event>
  4     66 0.48098993E-03 0.15641505E+03 0.75467711E-02 0.11898153E+00
        2 -1    0    0  501    0 0.00000000E+00 0.00000000E+00 0.52570472E+02 0.52571446E+02 0.32000000E+00 0.0000E+00 0.9000E+01
       -1 -1    0    0    0  501 0.00000000E+00 0.00000000E+00 -.47344283E+03 0.47344294E+03 0.32000000E+00 0.0000E+00 0.9000E+01
       25  1    1    2    0    0 0.86932785E+02 0.77951852E+02 -.19562442E+03 0.25986095E+03 0.12500000E+03 0.0000E+00 0.9000E+01
       24  1    1    2    0    0 -.86932785E+02 -.77951852E+02 -.22524794E+03 0.26615343E+03 0.80419002E+02 0.0000E+00 0.9000E+01
#aMCatNLO 1  0  0  1  1 0.51484473D+01 0.00000000D+00  -5  5  0 0.00000000D+00 0.00000000D+00 0.00000000D+00 0.00000000D+00 0.00000000D+00
  <mgrwgt>
 0.2595193485D+00    6    2    0
 0.157763740070649D+03 0.000000000000000D+00 0.000000000000000D+00 0.157763740070649D+03
 0.157763740070649D+03 0.000000000000000D+00 0.000000000000000D+00 -.157763740070649D+03
 0.172275604523039D+03 0.869327853024766D+02 0.779518515096187D+02 0.204959410507175D+02
 0.143251875618259D+03 -.869327853024766D+02 -.779518515096187D+02 -.204959410507175D+02
 0.000000000000000D+00 0.000000000000000D+00 0.000000000000000D+00 -.000000000000000D+00
 0.159437105133912D+03 0.000000000000000D+00 0.000000000000000D+00 0.159437105133912D+03
 0.161795130720518D+03 0.000000000000000D+00 0.000000000000000D+00 -.161795130720518D+03
 0.170475108430650D+03 0.854815069016733D+02 0.755618354244163D+02 0.204959410507175D+02
 0.145094372403710D+03 -.881537037889788D+02 -.799625028221759D+02 -.204959410507175D+02
 0.566275502006905D+01 0.267219688730550D+01 0.440066739775960D+01 -.235802558660585D+01
0.188453852637D-02 0.000000000000D+00 0.000000000000D+00 0.231572593053D-02 0.000000000000D+00  5 2 -1 25 24 21 0 0.80878481D-02 0.72837442D-01 0.24465667D+05 0.24465667D+05 0.24465667D+05 0.12243049D+01  1  2  2  1  5  1        2 0.349068168779D+00 0.100000000000D+01
-.104687201569D-03 0.000000000000D+00 -.723712415165D-05 0.231572593053D-02 0.000000000000D+00  5 2 -1 25 24 21 2 0.80878481D-02 0.72837442D-01 0.24465667D+05 0.24465667D+05 0.24465667D+05 0.12243049D+01  1  2  3  1  5  1        2 -.290655126788D-01 0.100000000000D+01
0.129650150343D-03 0.000000000000D+00 0.000000000000D+00 0.231572593053D-02 0.000000000000D+00  5 2 -1 25 24 21 2 0.80878481D-02 0.72837442D-01 0.24465667D+05 0.24465667D+05 0.24465667D+05 0.12243049D+01  1  2 15  1  5  1        2 0.359962634603D-01 0.100000000000D+01
-.270075968502D-02 0.000000000000D+00 0.000000000000D+00 0.231572593053D-02 0.000000000000D+00  5 2 -1 25 24 21 2 0.80878481D-02 0.72837442D-01 0.24465667D+05 0.24465667D+05 0.24465667D+05 0.12243049D+01  1  2  4  1  5  1        2 -.749842996000D+00 0.100000000000D+01
0.226758651375D-02 0.000000000000D+00 0.000000000000D+00 0.231572593053D-02 0.696868128128D-03  5 2 -1 25 24 21 2 0.81736341D-02 0.74698682D-01 0.25285203D+05 0.25285203D+05 0.25285203D+05 0.12227698D+01  1  2 11  1  5  1        2 0.589451461048D+00 0.100000000000D+01
0.210849184918D-04 0.000000000000D+00 0.000000000000D+00 0.231572593053D-02 0.137903317834D-05  5 21 -1 25 24 -2 2 0.81736341D-02 0.74698682D-01 0.25285203D+05 0.25285203D+05 0.25285203D+05 0.12227698D+01  1  2 11  3  5  1        2 0.639119638688D-01 0.100000000000D+01
  </mgrwgt>
  </event>
  <event>
  5     66 -.48098993E-03 0.17733446E+03 0.75467711E-02 0.11659957E+00
        2 -1    0    0  501    0 0.00000000E+00 0.00000000E+00 0.19626042E+04 0.19626042E+04 0.32000000E+00 0.0000E+00 0.9000E+01
       -1 -1    0    0    0  502 0.00000000E+00 0.00000000E+00 -.17804112E+02 0.17806988E+02 0.32000000E+00 0.0000E+00 0.9000E+01
       25  1    1    2    0    0 0.10805815E+03 0.90931430E+02 0.12308418E+04 0.12452074E+04 0.12500000E+03 0.0000E+00 0.9000E+01
       24  1    1    2    0    0 -.10594546E+03 -.99644331E+02 0.66716857E+03 0.68755695E+03 0.80419002E+02 0.0000E+00 0.9000E+01
       21  1    1    2  501  502 -.21126948E+01 0.87129010E+01 0.46789710E+02 0.47646800E+02 0.75000000E+00 0.0000E+00 0.9000E+01
#aMCatNLO 2  0  0  2  1 0.89653847D+01 0.00000000D+00  -5  5  0 0.00000000D+00 0.00000000D+00 0.00000000D+00 0.00000000D+00 0.00000000D+00
  <mgrwgt>
 -.1874950981D+00    3    2    0
 0.182383183933337D+03 0.000000000000000D+00 0.000000000000000D+00 0.182383183933337D+03
 0.182383183933337D+03 0.000000000000000D+00 0.000000000000000D+00 -.182383183933337D+03
 0.194936128574572D+03 0.106933914823100D+03 0.955678604476556D+02 0.425090123821485D+02
 0.169830239292102D+03 -.106933914823100D+03 -.955678604476556D+02 -.425090123821485D+02
 0.000000000000000D+00 -.000000000000000D+00 0.000000000000000D+00 -.000000000000000D+00
 0.186920086555207D+03 0.000000000000000D+00 0.000000000000000D+00 0.186920086555207D+03
 0.186921827075095D+03 0.000000000000000D+00 0.000000000000000D+00 -.186921827075095D+03
 0.193331594013460D+03 0.108058151327231D+03 0.909314304397589D+02 0.425090123821485D+02
 0.171544934759303D+03 -.105945456576520D+03 -.996443314207586D+02 -.425090123821485D+02
 0.896538485753937D+01 -.211269475071093D+01 0.871290098099968D+01 -.174051988734528D-02
-.910711573441D-03 0.000000000000D+00 0.000000000000D+00 0.211050818453D-02 0.000000000000D+00  5 2 -1 25 24 21 2 0.29458601D+00 0.27715119D-02 0.33080396D+05 0.33080396D+05 0.33080396D+05 0.12104683D+01  1  2 13  2  5  2       -1 -.529724446426D+00 0.100000000000D+01
-.816692000345D-03 0.000000000000D+00 0.000000000000D+00 0.211050818453D-02 0.000000000000D+00  5 2 -1 25 24 21 2 0.29458601D+00 0.26725802D-02 0.31447509D+05 0.31447509D+05 0.31447509D+05 0.12127564D+01  1  2  8  2  5  2       -1 -.502809267739D+00 0.100000000000D+01
0.151137676112D-02 0.000000000000D+00 0.000000000000D+00 0.211050818453D-02 0.205303008405D-03  5 2 -1 25 24 21 2 0.30191403D+00 0.27390880D-02 0.33080396D+05 0.33080396D+05 0.33080396D+05 0.12104683D+01  1  2  1  2  5  2       -1 0.845038616052D+00 0.100000000000D+01
  </mgrwgt>
  </event>
  <event>
  4     66 0.48098993E-03 0.11218187E+03 0.75467711E-02 0.11569153E+00
        2 -1    0    0  501    0 0.00000000E+00 0.00000000E+00 0.97633148E+03 0.97633153E+03 0.32000000E+00 0.0000E+00 0.9000E+01
       -1 -1    0    0    0  501 0.00000000E+00 0.00000000E+00 -.13388116E+02 0.13391940E+02 0.32000000E+00 0.0000E+00 0.9000E+01
       25  1    1    2    0    0 -.43267689E+01 0.44005042E+02 0.65990156E+03 0.67309006E+03 0.12500000E+03 0.0000E+00 0.9000E+01
       24  1    1    2    0    0 0.43267689E+01 -.44005042E+02 0.30304181E+03 0.31663341E+03 0.80419002E+02 0.0000E+00 0.9000E+01
#aMCatNLO 1  0  0  1  1 0.12621142D+03 0.00000000D+00  -5  5  0 0.00000000D+00 0.00000000D+00 0.00000000D+00 0.00000000D+00 0.00000000D+00
  <mgrwgt>
 0.3476522894D+00    5    2    0
 0.114337908318400D+03 0.000000000000000D+00 0.000000000000000D+00 0.114337908318400D+03
 0.114337908318400D+03 0.000000000000000D+00 0.000000000000000D+00 -.114337908318400D+03
 0.134361416226484D+03 -.432676885872571D+01 0.440050417339476D+02 0.217445520446688D+02
 0.943144004103146D+02 0.432676885872571D+01 -.440050417339476D+02 -.217445520446688D+02
 0.000000000000000D+00 -.000000000000000D+00 -.000000000000000D+00 0.000000000000000D+00
 0.390503714430805D+03 0.000000000000000D+00 0.000000000000000D+00 0.390503714430805D+03
 0.145918792817592D+03 0.000000000000000D+00 0.000000000000000D+00 -.145918792817592D+03
 0.166485890022208D+03 0.568744456474308D+02 0.915697737529197D+02 0.217445520446688D+02
 0.947074302898188D+02 0.427793837459017D+02 -.141202046878906D+02 -.217445520446688D+02
 0.275229186936370D+03 -.996538293933325D+02 -.774495690650291D+02 0.244584921613212D+03
0.186195396750D-03 0.000000000000D+00 0.000000000000D+00 0.281297621065D-02 0.000000000000D+00  5 2 -1 25 24 21 0 0.15020514D+00 0.20600083D-02 0.12584772D+05 0.12584772D+05 0.12584772D+05 0.12566095D+01  1  2  2  1  5  1        2 0.355270124510D+00 0.100000000000D+01
-.103396308118D-04 0.000000000000D+00 -.715039349895D-06 0.281297621065D-02 0.000000000000D+00  5 2 -1 25 24 21 2 0.15020514D+00 0.20600083D-02 0.12584772D+05 0.12584772D+05 0.12584772D+05 0.12566095D+01  1  2  3  1  5  1        2 -.311526824356D-01 0.100000000000D+01
0.128978611877D-04 0.000000000000D+00 0.000000000000D+00 0.281297621065D-02 0.000000000000D+00  5 2 -1 25 24 21 2 0.15020514D+00 0.20600083D-02 0.12584772D+05 0.12584772D+05 0.12584772D+05 0.12566095D+01  1  2 15  1  5  1        2 0.388604758711D-01 0.100000000000D+01
-.119811791099D-03 0.000000000000D+00 -.653399561036D-04 0.281297621065D-02 0.000000000000D+00  5 2 -1 25 24 21 2 0.53830655D+00 0.20600083D-02 0.12584772D+05 0.12584772D+05 0.12584772D+05 0.12566095D+01  1  2  5  1  5  1        2 -.151564776078D-01 0.100000000000D+01
-.160905845127D-04 0.000000000000D+00 -.979518769214D-05 0.281297621065D-02 0.000000000000D+00  5 21 -1 25 24 -2 2 0.53830655D+00 0.20600083D-02 0.12584772D+05 0.12584772D+05 0.12584772D+05 0.12566095D+01  1  2  5  3  5  1        2 -.169150893805D-03 0.100000000000D+01
  </mgrwgt>
  </event>
  <event>
  4     66 0.48098993E-03 0.60010009E+02 0.75467711E-02 0.11956320E+00
        2 -1    0    0  501    0 0.00000000E+00 0.00000000E+00 0.28601977E+03 0.28601995E+03 0.32000000E+00 0.0000E+00 0.9000E+01
       -1 -1    0    0    0  501 0.00000000E+00 0.00000000E+00 -.58440019E+02 0.58440895E+02 0.32000000E+00 0.0000E+00 0.9000E+01
       25  1    1    2    0    0 -.60324600E+02 -.11573453E+02 0.66754976E+02 0.15444814E+03 0.12500000E+03 0.0000E+00 0.9000E+01
       24  1    1    2    0    0 0.60324600E+02 0.11573453E+02 0.16082478E+03 0.19001270E+03 0.80419002E+02 0.0000E+00 0.9000E+01
#aMCatNLO 1  0  0  1  2 0.59865004D+02 0.00000000D+00  -5  5  0 0.00000000D+00 0.00000000D+00 0.00000000D+00 0.00000000D+00 0.00000000D+00
  <mgrwgt>
 0.1041555879D+00    7    2    0
 0.129287209698836D+03 0.000000000000000D+00 0.000000000000000D+00 0.129287209698836D+03
 0.129287209698836D+03 0.000000000000000D+00 0.000000000000000D+00 -.129287209698836D+03
 0.146995427060325D+03 -.603246004233910D+02 -.115734531086889D+02 -.470069499494119D+02
 0.111578992337347D+03 0.603246004233910D+02 0.115734531086889D+02 0.470069499494119D+02
 0.000000000000000D+00 -.000000000000000D+00 -.000000000000000D+00 0.000000000000000D+00
 0.379504875625597D+03 0.000000000000000D+00 0.000000000000000D+00 0.379504875625597D+03
 0.136337277146986D+03 0.000000000000000D+00 0.000000000000000D+00 -.136337277146986D+03
 0.139480322433572D+03 -.382349793464464D+02 0.125774940669196D+02 -.470069499494119D+02
 0.125933597815363D+03 0.786387618375625D+02 0.315966279444432D+02 0.470069499494119D+02
 0.250428232523650D+03 -.404037824911161D+02 -.441741220113628D+02 0.243167598478611D+03
0.326591513865D-03 0.000000000000D+00 0.000000000000D+00 0.232358240082D-02 0.000000000000D+00  5 2 -1 25 24 21 0 0.44003123D-01 0.89908533D-02 0.14456536D+05 0.14456536D+05 0.14456536D+05 0.12496538D+01  1  2  2  1  5  1        2 0.289543998138D+00 0.100000000000D+01
-.180277445553D-04 0.000000000000D+00 -.125419740676D-05 0.232358240082D-02 0.000000000000D+00  5 2 -1 25 24 21 2 0.44003123D-01 0.89908533D-02 0.14456536D+05 0.14456536D+05 0.14456536D+05 0.12496538D+01  1  2  3  1  5  1        2 -.249591895868D-01 0.100000000000D+01
0.225722165552D-04 0.000000000000D+00 0.000000000000D+00 0.232358240082D-02 0.000000000000D+00  5 2 -1 25 24 21 2 0.44003123D-01 0.89908533D-02 0.14456536D+05 0.14456536D+05 0.14456536D+05 0.12496538D+01  1  2 15  1  5  1        2 0.312509549194D-01 0.100000000000D+01
0.919931758432D-03 0.000000000000D+00 0.000000000000D+00 0.232358240082D-02 0.000000000000D+00  5 2 -1 25 24 21 2 0.12762469D+00 0.89908533D-02 0.23718650D+05 0.23718650D+05 0.23718650D+05 0.12257551D+01  1  2 12  1  5  1        2 0.378035918236D+00 0.100000000000D+01
-.134556524992D-02 0.000000000000D+00 -.120232019369D-03 0.232358240082D-02 0.000000000000D+00  5 2 -1 25 24 21 2 0.13168848D+00 0.89908533D-02 0.14456536D+05 0.14456536D+05 0.14456536D+05 0.12496538D+01  1  2  5  1  5  1        2 -.549008464976D+00 0.100000000000D+01
0.110742383923D-03 0.000000000000D+00 0.000000000000D+00 0.232358240082D-02 0.000000000000D+00  5 21 -1 25 24 -2 2 0.12762469D+00 0.89908533D-02 0.23718650D+05 0.23718650D+05 0.23718650D+05 0.12257551D+01  1  2 12  3  5  1        2 0.489761481165D-01 0.100000000000D+01
-.161706249334D-03 0.000000000000D+00 -.149887824833D-04 0.232358240082D-02 0.000000000000D+00  5 21 -1 25 24 -2 2 0.13168848D+00 0.89908533D-02 0.14456536D+05 0.14456536D+05 0.14456536D+05 0.12496538D+01  1  2  5  3  5  1        2 -.696837769782D-01 0.100000000000D+01
  </mgrwgt>
  </event>
  <event>
  5     66 -.48098993E-03 0.12874838E+03 0.75467711E-02 0.12235086E+00
        2 -1    0    0  501    0 0.00000000E+00 0.00000000E+00 0.33864464E+03 0.33864479E+03 0.32000000E+00 0.0000E+00 0.9000E+01
       -1 -1    0    0    0  502 0.00000000E+00 0.00000000E+00 -.63575058E+02 0.63575863E+02 0.32000000E+00 0.0000E+00 0.9000E+01
       25  1    1    2    0    0 0.21069437E+02 -.70321239E+02 0.62761239E+02 0.15796509E+03 0.12500000E+03 0.0000E+00 0.9000E+01
       24  1    1    2    0    0 -.27873336E+02 0.73922476E+02 0.20249599E+03 0.23176129E+03 0.80419002E+02 0.0000E+00 0.9000E+01
       21  1    1    2  501  502 0.68038986E+01 -.36012365E+01 0.98123561E+01 0.12494270E+02 0.75000000E+00 0.0000E+00 0.9000E+01
#aMCatNLO 2  0  0  2  1 0.76981777D+01 0.00000000D+00  -5  5  0 0.00000000D+00 0.00000000D+00 0.00000000D+00 0.00000000D+00 0.00000000D+00
  <mgrwgt>
 -.2441592957D+00    3    2    0
 0.142711245066291D+03 0.000000000000000D+00 0.000000000000000D+00 0.142711245066291D+03
 0.142711245066291D+03 0.000000000000000D+00 0.000000000000000D+00 -.142711245066291D+03
 0.158753751109483D+03 0.248358795168173D+02 -.723147801928231D+02 -.610860470616773D+02
 0.126668739023100D+03 -.248358795168173D+02 0.723147801928231D+02 0.610860470616773D+02
 0.000000000000000D+00 0.000000000000000D+00 -.000000000000000D+00 0.000000000000000D+00
 0.147607306743081D+03 0.000000000000000D+00 0.000000000000000D+00 0.147607306743081D+03
 0.145821562282889D+03 0.000000000000000D+00 0.000000000000000D+00 -.145821562282889D+03
 0.157307034363158D+03 0.210694373597963D+02 -.703212394931431D+02 -.610860470616773D+02
 0.128219251316041D+03 -.278733359690504D+02 0.739224759461601D+02 0.610860470616773D+02
 0.790258334677060D+01 0.680389860925407D+01 -.360123645301707D+01 0.178574446019232D+01
-.566074766372D-03 0.000000000000D+00 0.000000000000D+00 0.206366037464D-02 0.000000000000D+00  5 2 -1 25 24 21 2 0.50365040D-01 0.99393648D-02 0.17608358D+05 0.17608358D+05 0.17608358D+05 0.12399622D+01  1  2 13  2  5  2       -1 -.578343290789D+00 0.100000000000D+01
-.257699086426D-03 0.000000000000D+00 0.000000000000D+00 0.206366037464D-02 0.000000000000D+00  5 2 -1 25 24 21 2 0.50365040D-01 0.95710701D-02 0.16576145D+05 0.16576145D+05 0.16576145D+05 0.12429059D+01  1  2  8  2  5  2       -1 -.279645474369D+00 0.100000000000D+01
0.607493856249D-03 0.000000000000D+00 0.000000000000D+00 0.206366037464D-02 0.285817005763D-03  5 2 -1 25 24 21 2 0.52092937D-01 0.97796666D-02 0.17608358D+05 0.17608358D+05 0.17608358D+05 0.12399622D+01  1  2  1  2  5  2       -1 0.613829469494D+00 0.100000000000D+01
  </mgrwgt>
  </event>
  <event>
  5     66 -.48098993E-03 0.16538729E+03 0.75467711E-02 0.11736071E+00
        2 -1    0    0  501    0 0.00000000E+00 0.00000000E+00 0.10755555E+04 0.10755555E+04 0.32000000E+00 0.0000E+00 0.9000E+01
       -1 -1    0    0    0  502 0.00000000E+00 0.00000000E+00 -.28610488E+02 0.28612277E+02 0.32000000E+00 0.0000E+00 0.9000E+01
       25  1    1    2    0    0 -.74283849E+02 0.10090502E+03 0.47021598E+03 0.50242212E+03 0.12500000E+03 0.0000E+00 0.9000E+01
       24  1    1    2    0    0 0.64386071E+02 -.11477926E+03 0.53071118E+03 0.55266755E+03 0.80419002E+02 0.0000E+00 0.9000E+01
       21  1    1    2  501  502 0.98977780E+01 0.13874238E+02 0.46017803E+02 0.49078113E+02 0.75000000E+00 0.0000E+00 0.9000E+01
#aMCatNLO 2  0  0  2  1 0.17042901D+02 0.00000000D+00  -5  5  0 0.00000000D+00 0.00000000D+00 0.00000000D+00 0.00000000D+00 0.00000000D+00
  <mgrwgt>
 -.1288317683D+00    3    2    0
 0.166634746665717D+03 0.000000000000000D+00 0.000000000000000D+00 0.166634746665717D+03
 0.166634746665717D+03 0.000000000000000D+00 0.000000000000000D+00 -.166634746665717D+03
 0.180374054086397D+03 -.689634675831416D+02 0.108362882970789D+03 -.202811518590689D+02
 0.152895439245038D+03 0.689634675831416D+02 -.108362882970789D+03 0.202811518590689D+02
 0.000000000000000D+00 0.000000000000000D+00 0.000000000000000D+00 -.000000000000000D+00
 0.174561666064040D+03 0.000000000000000D+00 0.000000000000000D+00 0.174561666064040D+03
 0.176271803418954D+03 0.000000000000000D+00 0.000000000000000D+00 -.176271803418954D+03
 0.178146678699731D+03 -.742838490190387D+02 0.100905023591154D+03 -.202811518590689D+02
 0.155558304280011D+03 0.643860710177311D+02 -.114779261255120D+03 0.202811518590689D+02
 0.171284865032511D+02 0.989777800130763D+01 0.138742376639661D+02 -.171013735491342D+01
-.754260372267D-03 0.000000000000D+00 0.000000000000D+00 0.226678192302D-02 0.000000000000D+00  5 2 -1 25 24 21 2 0.15794875D+00 0.44953661D-02 0.30321588D+05 0.30321588D+05 0.30321588D+05 0.12144127D+01  1  2 13  2  5  2       -1 -.650209517622D+00 0.100000000000D+01
-.378100734189D-06 0.000000000000D+00 0.000000000000D+00 0.226678192302D-02 0.000000000000D+00  5 2 -1 25 24 21 2 0.15794875D+00 0.41609092D-02 0.27352955D+05 0.27352955D+05 0.27352955D+05 0.12191315D+01  1  2  8  2  5  2       -1 -.367623303916D-03 0.100000000000D+01
0.626857923775D-03 0.000000000000D+00 0.000000000000D+00 0.226678192302D-02 0.615348456282D-04  5 2 -1 25 24 21 2 0.16546247D+00 0.44015488D-02 0.30321588D+05 0.30321588D+05 0.30321588D+05 0.12144127D+01  1  2  1  2  5  2       -1 0.521745372583D+00 0.100000000000D+01
  </mgrwgt>
  </event>
  <event>
  4     66 0.48098993E-03 0.14744947E+03 0.75467711E-02 0.11558884E+00
        2 -1    0    0  501    0 0.00000000E+00 0.00000000E+00 0.34767203E+04 0.34767203E+04 0.32000000E+00 0.0000E+00 0.9000E+01
       -1 -1    0    0    0  501 0.00000000E+00 0.00000000E+00 -.68294589E+01 0.68369517E+01 0.32000000E+00 0.0000E+00 0.9000E+01
       25  1    1    2    0    0 -.63621779E+02 -.82997561E+02 0.24069281E+04 0.24124394E+04 0.12500000E+03 0.0000E+00 0.9000E+01
       24  1    1    2    0    0 0.63621779E+02 0.82997561E+02 0.10629628E+04 0.10711178E+04 0.80419002E+02 0.0000E+00 0.9000E+01
#aMCatNLO 1  0  0  1  1 0.80113404D+02 0.00000000D+00  -5  5  0 0.00000000D+00 0.00000000D+00 0.00000000D+00 0.00000000D+00 0.00000000D+00
  <mgrwgt>
 0.6018481457D+00    3    2    0
 0.154133691680752D+03 0.000000000000000D+00 0.000000000000000D+00 0.154133691680752D+03
 0.154133691680752D+03 0.000000000000000D+00 0.000000000000000D+00 -.154133691680752D+03
 0.168987329366595D+03 -.636217793149068D+02 -.829975605163762D+02 0.446698067109071D+02
 0.139280053994908D+03 0.636217793149068D+02 0.829975605163762D+02 -.446698067109071D+02
 0.000000000000000D+00 -.000000000000000D+00 -.000000000000000D+00 -.000000000000000D+00
 0.172890850822691D+03 0.000000000000000D+00 0.000000000000000D+00 0.172890850822691D+03
 0.276912928892440D+03 0.000000000000000D+00 0.000000000000000D+00 -.276912928892440D+03
 0.147857822118380D+03 -.451043086579165D+02 -.469802646915937D+02 0.446698067109071D+02
 0.170649536074655D+03 0.817350818633233D+02 0.118228731572874D+03 -.446698067109071D+02
 0.131296421522096D+03 -.366307732054068D+02 -.712484668812800D+02 -.104022078069749D+03
0.275170331568D-02 0.000000000000D+00 0.000000000000D+00 0.219427139923D-02 0.000000000000D+00  5 2 -1 25 24 21 0 0.53488063D+00 0.10512635D-02 0.21741347D+05 0.21741347D+05 0.21741347D+05 0.12298544D+01  1  2  2  1  5  1        2 0.589673198643D+00 0.100000000000D+01
-.152507063904D-03 0.000000000000D+00 -.105672652723D-04 0.219427139923D-02 0.000000000000D+00  5 2 -1 25 24 21 2 0.53488063D+00 0.10512635D-02 0.21741347D+05 0.21741347D+05 0.21741347D+05 0.12298544D+01  1  2  3  1  5  1        2 -.494318802710D-01 0.100000000000D+01
0.190069168061D-03 0.000000000000D+00 0.000000000000D+00 0.219427139923D-02 0.000000000000D+00  5 2 -1 25 24 21 2 0.53488063D+00 0.10512635D-02 0.21741347D+05 0.21741347D+05 0.21741347D+05 0.12298544D+01  1  2 15  1  5  1        2 0.616068273711D-01 0.100000000000D+01
  </mgrwgt>
  </event>
  <event>
  4     66 0.48098993E-03 0.11146843E+03 0.75467711E-02 0.11008273E+00
        2 -1    0    0  501    0 0.00000000E+00 0.00000000E+00 0.19724908E+04 0.19724908E+04 0.32000000E+00 0.0000E+00 0.9000E+01
       -1 -1    0    0    0  501 0.00000000E+00 0.00000000E+00 -.66152430E+01 0.66229782E+01 0.32000000E+00 0.0000E+00 0.9000E+01
       25  1    1    2    0    0 0.11777594E+02 -.40770585E+02 0.94130274E+03 0.95051397E+03 0.12500000E+03 0.0000E+00 0.9000E+01
       24  1    1    2    0    0 -.11777594E+02 0.40770585E+02 0.10245728E+04 0.10285998E+04 0.80419002E+02 0.0000E+00 0.9000E+01
#aMCatNLO 1  0  0  1  2 0.22483798D+03 0.00000000D+00  -5  5  0 0.00000000D+00 0.00000000D+00 0.00000000D+00 0.00000000D+00 0.00000000D+00
  <mgrwgt>
 0.5374884225D+00    3    2    0
 0.114263667883793D+03 0.000000000000000D+00 0.000000000000000D+00 0.114263667883793D+03
 0.114263667883793D+03 0.000000000000000D+00 0.000000000000000D+00 -.114263667883793D+03
 0.134300185648440D+03 0.117775935089295D+02 -.407705849365560D+02 -.247100700176048D+02
 0.942271501191455D+02 -.117775935089295D+02 0.407705849365560D+02 0.247100700176048D+02
 0.000000000000000D+00 -.000000000000000D+00 -.000000000000000D+00 -.000000000000000D+00
 0.195018445995337D+03 0.000000000000000D+00 0.000000000000000D+00 0.195018445995337D+03
 0.524247689486497D+03 0.000000000000000D+00 0.000000000000000D+00 -.524247689486497D+03
 0.168588906508212D+03 0.100321997868245D+03 0.460665668471548D+02 -.247100700176048D+02
 0.151999398240281D+03 0.602024930194420D+02 0.111362800723608D+03 0.247100700176048D+02
 0.398677830733341D+03 -.160524490887687D+03 -.157429367570763D+03 -.329229243491159D+03
0.339670176558D-03 0.000000000000D+00 0.000000000000D+00 0.278848361835D-02 0.000000000000D+00  5 2 -1 25 24 21 0 0.30346072D+00 0.10183267D-02 0.12425211D+05 0.12425211D+05 0.12425211D+05 0.12572556D+01  1  2  2  1  5  1        2 0.526101948874D+00 0.100000000000D+01
-.188564912470D-04 0.000000000000D+00 -.130442291519D-05 0.278848361835D-02 0.000000000000D+00  5 2 -1 25 24 21 2 0.30346072D+00 0.10183267D-02 0.12425211D+05 0.12425211D+05 0.12425211D+05 0.12572556D+01  1  2  3  1  5  1        2 -.461658192164D-01 0.100000000000D+01
0.235073118069D-04 0.000000000000D+00 0.000000000000D+00 0.278848361835D-02 0.000000000000D+00  5 2 -1 25 24 21 2 0.30346072D+00 0.10183267D-02 0.12425211D+05 0.12425211D+05 0.12425211D+05 0.12572556D+01  1  2 15  1  5  1        2 0.575522928908D-01 0.100000000000D+01
  </mgrwgt>
  </event>
  <event>
  4     66 0.48098993E-03 0.16094154E+03 0.75467711E-02 0.10951470E+00
        2 -1    0    0  501    0 0.00000000E+00 0.00000000E+00 0.37464398E+03 0.37464411E+03 0.32000000E+00 0.0000E+00 0.9000E+01
       -1 -1    0    0    0  501 0.00000000E+00 0.00000000E+00 -.86330323E+02 0.86330916E+02 0.32000000E+00 0.0000E+00 0.9000E+01
       25  1    1    2    0    0 -.11468424E+03 0.43657238E+02 0.25689634E+03 0.31093272E+03 0.12500000E+03 0.0000E+00 0.9000E+01
       24  1    1    2    0    0 0.11468424E+03 -.43657238E+02 0.31417316E+02 0.15004231E+03 0.80419002E+02 0.0000E+00 0.9000E+01
#aMCatNLO 1  0  0  2  2 0.19046445D+03 0.00000000D+00  -5  5  0 0.00000000D+00 0.00000000D+00 0.00000000D+00 0.00000000D+00 0.00000000D+00
  <mgrwgt>
 0.3882229825D+00    3    2    0
 0.179842440881851D+03 0.000000000000000D+00 0.000000000000000D+00 0.179842440881851D+03
 0.179842440881851D+03 0.000000000000000D+00 0.000000000000000D+00 -.179842440881851D+03
 0.192572728572461D+03 -.114684242534593D+03 0.436572383207479D+02 0.800051613729683D+02
 0.167112153191242D+03 0.114684242534593D+03 -.436572383207479D+02 -.800051613729683D+02
 0.000000000000000D+00 -.000000000000000D+00 0.000000000000000D+00 0.000000000000000D+00
 0.309376628127185D+03 0.000000000000000D+00 0.000000000000000D+00 0.309376628127185D+03
 0.289158987722619D+03 0.000000000000000D+00 0.000000000000000D+00 -.289158987722619D+03
 0.153311406689300D+03 -.315289448736494D+02 0.220110701668889D+02 0.800051613729683D+02
 0.253689723840586D+03 0.215850794491028D+03 -.699919188136737D+02 -.800051613729683D+02
 0.191534485319917D+03 -.184321849617378D+03 0.479808486467848D+02 0.202176404045659D+02
0.102245370130D-02 0.000000000000D+00 0.000000000000D+00 0.181888721671D-02 0.000000000000D+00  5 2 -1 25 24 21 0 0.57637591D-01 0.13281644D-01 0.25902178D+05 0.25902178D+05 0.25902178D+05 0.12216504D+01  1  2  2  2  5  2       -1 0.380160762744D+00 0.100000000000D+01
-.559514311053D-04 0.000000000000D+00 -.392649143122D-05 0.181888721671D-02 0.000000000000D+00  5 2 -1 25 24 21 2 0.57637591D-01 0.13281644D-01 0.25902178D+05 0.25902178D+05 0.25902178D+05 0.12216504D+01  1  2  3  2  5  2       -1 -.310476494029D-01 0.100000000000D+01
0.704804773742D-04 0.000000000000D+00 0.000000000000D+00 0.181888721671D-02 0.000000000000D+00  5 2 -1 25 24 21 2 0.57637591D-01 0.13281644D-01 0.25902178D+05 0.25902178D+05 0.25902178D+05 0.12216504D+01  1  2 15  2  5  2       -1 0.391098691854D-01 0.100000000000D+01
  </mgrwgt>
  </event>
  <event>
  4     66 0.48098993E-03 0.55338900E+02 0.75467711E-02 0.12399994E+00
        2 -1    0    0  501    0 0.00000000E+00 0.00000000E+00 0.18097224E+03 0.18097252E+03 0.32000000E+00 0.0000E+00 0.9000E+01
       -1 -1    0    0    0  501 0.00000000E+00 0.00000000E+00 -.61075764E+02 0.61076602E+02 0.32000000E+00 0.0000E+00 0.9000E+01
       25  1    1    2    0    0 -.20339174E+02 -.69486333E+01 0.67308947E+02 0.14358781E+03 0.12500000E+03 0.0000E+00 0.9000E+01
       24  1    1    2    0    0 0.20339174E+02 0.69486333E+01 0.52587524E+02 0.98461308E+02 0.80419002E+02 0.0000E+00 0.9000E+01
#aMCatNLO 1  0  0  2  1 0.31385185D+02 0.00000000D+00  -5  5  0 0.00000000D+00 0.00000000D+00 0.00000000D+00 0.00000000D+00 0.00000000D+00
  <mgrwgt>
 0.3430027395D+00    9    2    0
 0.105133977400382D+03 0.000000000000000D+00 0.000000000000000D+00 0.105133977400382D+03
 0.105133977400382D+03 0.000000000000000D+00 0.000000000000000D+00 -.105133977400382D+03
 0.126910438902342D+03 -.203391740417410D+02 -.694863333152784D+01 -.439249319964646D+01
 0.833575158984223D+02 0.203391740417410D+02 0.694863333152784D+01 0.439249319964646D+01
 0.000000000000000D+00 -.000000000000000D+00 0.000000000000000D+00 -.000000000000000D+00
 0.111968666744847D+03 0.000000000000000D+00 0.000000000000000D+00 0.111968666744847D+03
 0.149730484341529D+03 0.000000000000000D+00 0.000000000000000D+00 -.149730484341529D+03
 0.125600464173730D+03 -.210021984933983D+01 -.112592930831370D+02 -.439249319964646D+01
 0.869969079715363D+02 0.326439359177104D+02 0.404048184365503D+01 0.439249319964646D+01
 0.491017789411091D+02 -.305437160683706D+02 0.721881123948193D+01 -.377618175966815D+02
0.204373860836D-03 0.000000000000D+00 0.000000000000D+00 0.315398036043D-02 0.000000000000D+00  5 2 -1 25 24 21 0 0.27841969D-01 0.93963576D-02 0.11032993D+05 0.11032993D+05 0.11032993D+05 0.12633231D+01  1  2  2  2  5  2       -1 0.273037564100D+00 0.100000000000D+01
-.113540918771D-04 0.000000000000D+00 -.784849438483D-06 0.315398036043D-02 0.000000000000D+00  5 2 -1 25 24 21 2 0.27841969D-01 0.93963576D-02 0.11032993D+05 0.11032993D+05 0.11032993D+05 0.12633231D+01  1  2  3  2  5  2       -1 -.242090812323D-01 0.100000000000D+01
0.141422173758D-04 0.000000000000D+00 0.000000000000D+00 0.315398036043D-02 0.000000000000D+00  5 2 -1 25 24 21 2 0.27841969D-01 0.93963576D-02 0.11032993D+05 0.11032993D+05 0.11032993D+05 0.12633231D+01  1  2 15  2  5  2       -1 0.301538945572D-01 0.100000000000D+01
0.251636043305D-03 0.000000000000D+00 0.000000000000D+00 0.315398036043D-02 0.000000000000D+00  5 2 -1 25 24 21 2 0.27841969D-01 0.13587067D-01 0.14858972D+05 0.14858972D+05 0.14858972D+05 0.12482905D+01  1  2 12  2  5  2       -1 0.301550415333D+00 0.100000000000D+01
-.265475986597D-03 0.000000000000D+00 0.000000000000D+00 0.315398036043D-02 0.000000000000D+00  5 2 -1 25 24 21 2 0.27841969D-01 0.93963576D-02 0.11032993D+05 0.11032993D+05 0.11032993D+05 0.12633231D+01  1  2  4  2  5  2       -1 -.566045245567D+00 0.100000000000D+01
-.340506090294D-03 0.000000000000D+00 -.782919872725D-04 0.315398036043D-02 0.000000000000D+00  5 2 -1 25 24 21 2 0.27841969D-01 0.14186916D-01 0.11032993D+05 0.11032993D+05 0.11032993D+05 0.12633231D+01  1  2  5  2  5  2       -1 -.386647172382D+00 0.100000000000D+01
0.348931829594D-03 0.000000000000D+00 0.720868576404D-04 0.315398036043D-02 0.000000000000D+00  5 2 -1 25 24 21 2 0.27841969D-01 0.93963576D-02 0.11032993D+05 0.11032993D+05 0.11032993D+05 0.12633231D+01  1  2  6  2  5  2       -1 0.743988959982D+00 0.100000000000D+01
0.112893282257D-04 0.000000000000D+00 0.000000000000D+00 0.315398036043D-02 0.000000000000D+00  5 2 21 25 24 1 2 0.27841969D-01 0.13587067D-01 0.14858972D+05 0.14858972D+05 0.14858972D+05 0.12482905D+01  1  2 12  4  5  2       -1 0.190855461658D+00 0.100000000000D+01
-.137840765007D-04 0.000000000000D+00 -.380866531431D-05 0.315398036043D-02 0.000000000000D+00  5 2 21 25 24 1 2 0.27841969D-01 0.14186916D-01 0.11032993D+05 0.11032993D+05 0.11032993D+05 0.12633231D+01  1  2  5  4  5  2       -1 -.219682056945D+00 0.100000000000D+01
  </mgrwgt>
  </event>
  <event>
  5     66 0.48098993E-03 0.10859510E+03 0.75467711E-02 0.12358118E+00
        2 -1    0    0  501    0 0.00000000E+00 0.00000000E+00 0.73617959E+03 0.73617966E+03 0.32000000E+00 0.0000E+00 0.9000E+01
       21 -1    0    0  502  501 0.00000000E+00 0.00000000E+00 -.23743165E+02 0.23755007E+02 0.75000000E+00 0.0000E+00 0.9000E+01
       25  1    1    2    0    0 0.31838279E+02 -.13847090E+02 0.24506343E+03 0.27728415E+03 0.12500000E+03 0.0000E+00 0.9000E+01
       24  1    1    2    0    0 -.36104678E+02 -.15637685E+02 0.31953095E+03 0.33183630E+03 0.80419002E+02 0.0000E+00 0.9000E+01
        1  1    1    2  502    0 0.42663985E+01 0.29484774E+02 0.14784205E+03 0.15081422E+03 0.32000000E+00 0.0000E+00 0.9000E+01
#aMCatNLO 2  0  0  2  1 0.29791846D+02 0.00000000D+00  -5  5  0 0.00000000D+00 0.00000000D+00 0.00000000D+00 0.00000000D+00 0.00000000D+00
  <mgrwgt>
 0.1490423644D+00    1    2    0
 0.113328459219125D+03 0.000000000000000D+00 0.000000000000000D+00 0.113328459219125D+03
 0.113328459219125D+03 0.000000000000000D+00 0.000000000000000D+00 -.113328459219125D+03
 0.133530322256729D+03 0.343414749282162D+02 0.345231667929829D+01 -.318448044629939D+02
 0.931265961815222D+02 -.343414749282162D+02 -.345231667929829D+01 0.318448044629939D+02
 0.000000000000000D+00 0.000000000000000D+00 0.000000000000000D+00 0.000000000000000D+00
 0.143387335476943D+03 0.000000000000000D+00 0.000000000000000D+00 0.143387335476943D+03
 0.121932430936577D+03 0.000000000000000D+00 0.000000000000000D+00 -.121932430936577D+03
 0.133583342838889D+03 0.318382792005007D+02 -.138470895958975D+02 -.318448044629939D+02
 0.950231153918667D+02 -.361046776981411D+02 -.156376846570235D+02 0.318448044629939D+02
 0.367133081827637D+02 0.426639849764044D+01 0.294847742529210D+02 0.214549045403657D+02
0.428797400268D-05 0.000000000000D+00 0.000000000000D+00 0.273017975533D-02 0.390234261025D-06  5 2 21 25 24 1 2 0.11325869D+00 0.36536907D-02 0.15506744D+05 0.15506744D+05 0.15506744D+05 0.12461809D+01  1  2  1  4  5  2       -1 0.149042364409D+00 0.100000000000D+01
  </mgrwgt>
  </event>
  <event>
  5     66 0.48098993E-03 0.12533990E+03 0.75467711E-02 0.11426113E+00
        2 -1    0    0  501    0 0.00000000E+00 0.00000000E+00 0.11759125E+04 0.11759125E+04 0.32000000E+00 0.0000E+00 0.9000E+01
       21 -1    0    0  502  501 0.00000000E+00 0.00000000E+00 -.45202520E+02 0.45208741E+02 0.75000000E+00 0.0000E+00 0.9000E+01
       25  1    1    2    0    0 -.67886891E+02 -.12808802E+03 0.76786946E+03 0.79136823E+03 0.12500000E+03 0.0000E+00 0.9000E+01
       24  1    1    2    0    0 -.26797349E+02 0.30777319E+02 0.10549346E+03 0.13878554E+03 0.80419002E+02 0.0000E+00 0.9000E+01
        1  1    1    2  502    0 0.94684239E+02 0.97310697E+02 0.25734703E+03 0.29096748E+03 0.32000000E+00 0.0000E+00 0.9000E+01
#aMCatNLO 2  0  0  2  2 0.13577362D+03 0.00000000D+00  -5  5  0 0.00000000D+00 0.00000000D+00 0.00000000D+00 0.00000000D+00 0.00000000D+00
  <mgrwgt>
 0.1103579563D+00    1    2    0
 0.144904088555443D+03 0.000000000000000D+00 0.000000000000000D+00 0.144904088555443D+03
 0.144904088555443D+03 0.000000000000000D+00 0.000000000000000D+00 -.144904088555443D+03
 0.160703822256755D+03 -.111767426946851D+02 -.698047787316810D+02 0.721324599392569D+02
 0.129104354854130D+03 0.111767426946851D+02 0.698047787316810D+02 -.721324599392569D+02
 0.000000000000000D+00 0.000000000000000D+00 0.000000000000000D+00 -.000000000000000D+00
 0.208667555685030D+03 0.000000000000000D+00 0.000000000000000D+00 0.208667555685030D+03
 0.254749458380596D+03 0.000000000000000D+00 0.000000000000000D+00 -.254749458380596D+03
 0.204556255709398D+03 -.678868907133101D+02 -.128088016778460D+03 0.721324599392569D+02
 0.115480080556609D+03 -.267973485677063D+02 0.307773193089128D+02 -.721324599392569D+02
 0.143380677799619D+03 0.946842392810163D+02 0.973106974695472D+02 -.460819026955667D+02
0.191216484891D-04 0.000000000000D+00 0.000000000000D+00 0.190136480980D-02 0.117142325215D-06  5 2 21 25 24 1 2 0.18090995D+00 0.69547102D-02 0.43549542D+05 0.43549542D+05 0.43549542D+05 0.11982687D+01  1  2  1  4  5  2       -1 0.110357956311D+00 0.100000000000D+01
  </mgrwgt>
  </event>
  <event>
  4     66 0.48098993E-03 0.56018362E+02 0.75467711E-02 0.12284100E+00
        2 -1    0    0  501    0 0.00000000E+00 0.00000000E+00 0.42843349E+02 0.42844544E+02 0.32000000E+00 0.0000E+00 0.9000E+01
       -1 -1    0    0    0  501 0.00000000E+00 0.00000000E+00 -.31612066E+03 0.31612082E+03 0.32000000E+00 0.0000E+00 0.9000E+01
       25  1    1    2    0    0 0.52561107E+02 0.87232782E+01 -.17020068E+03 0.21778897E+03 0.12500000E+03 0.0000E+00 0.9000E+01
       24  1    1    2    0    0 -.52561107E+02 -.87232782E+01 -.10307663E+03 0.14117639E+03 0.80419002E+02 0.0000E+00 0.9000E+01
#aMCatNLO 1  0  0  2  1 0.25025112D+02 0.00000000D+00  -5  5  0 0.00000000D+00 0.00000000D+00 0.00000000D+00 0.00000000D+00 0.00000000D+00
  <mgrwgt>
 0.3497676482D+00    9    2    0
 0.116378309899003D+03 0.000000000000000D+00 0.000000000000000D+00 0.116378309899003D+03
 0.116378309899003D+03 0.000000000000000D+00 0.000000000000000D+00 -.116378309899003D+03
 0.136050755850437D+03 0.525611065200780D+02 0.872327817868090D+01 -.678547468328526D+01
 0.967058639475688D+02 -.525611065200780D+02 -.872327817868090D+01 0.678547468328526D+01
 0.000000000000000D+00 0.000000000000000D+00 -.000000000000000D+00 -.000000000000000D+00
 0.128484082927401D+03 0.000000000000000D+00 0.000000000000000D+00 0.128484082927401D+03
 0.130740616543709D+03 0.000000000000000D+00 0.000000000000000D+00 -.130740616543709D+03
 0.136727372109540D+03 0.498969175380750D+02 0.231004163923860D+02 -.678547468328526D+01
 0.973706848644739D+02 -.544566272749022D+02 0.150578742557831D+01 0.678547468328526D+01
 0.251266424970955D+02 0.455970973682720D+01 -.246062038179643D+02 -.225653361630796D+01
0.396099056223D-03 0.000000000000D+00 0.000000000000D+00 0.284832453627D-02 0.000000000000D+00  5 2 -1 25 24 21 0 0.65913888D-02 0.48634051D-01 0.13496509D+05 0.13496509D+05 0.13496509D+05 0.12530859D+01  1  2  2  2  5  2       -1 0.201454387824D+00 0.100000000000D+01
-.220054209034D-04 0.000000000000D+00 -.152112467117D-05 0.284832453627D-02 0.000000000000D+00  5 2 -1 25 24 21 2 0.65913888D-02 0.48634051D-01 0.13496509D+05 0.13496509D+05 0.13496509D+05 0.12530859D+01  1  2  3  2  5  2       -1 -.175737436170D-01 0.100000000000D+01
0.273959449685D-04 0.000000000000D+00 0.000000000000D+00 0.284832453627D-02 0.000000000000D+00  5 2 -1 25 24 21 2 0.65913888D-02 0.48634051D-01 0.13496509D+05 0.13496509D+05 0.13496509D+05 0.12530859D+01  1  2 15  2  5  2       -1 0.218786686760D-01 0.100000000000D+01
0.322609941904D-03 0.000000000000D+00 0.000000000000D+00 0.284832453627D-02 0.000000000000D+00  5 2 -1 25 24 21 2 0.65913888D-02 0.56886181D-01 0.16733747D+05 0.16733747D+05 0.16733747D+05 0.12424434D+01  1  2 12  2  5  2       -1 0.191155432998D+00 0.100000000000D+01
-.276744220797D-03 0.000000000000D+00 0.000000000000D+00 0.284832453627D-02 0.000000000000D+00  5 2 -1 25 24 21 2 0.65913888D-02 0.48634051D-01 0.13496509D+05 0.13496509D+05 0.13496509D+05 0.12530859D+01  1  2  4  2  5  2       -1 -.221010632113D+00 0.100000000000D+01
-.886938178495D-03 0.000000000000D+00 -.250291877545D-03 0.284832453627D-02 0.000000000000D+00  5 2 -1 25 24 21 2 0.65913888D-02 0.59660172D-01 0.13496509D+05 0.13496509D+05 0.13496509D+05 0.12530859D+01  1  2  5  2  5  2       -1 -.485641119494D+00 0.100000000000D+01
0.923863856407D-03 0.000000000000D+00 0.245155786989D-03 0.284832453627D-02 0.000000000000D+00  5 2 -1 25 24 21 2 0.65913888D-02 0.48634051D-01 0.13496509D+05 0.13496509D+05 0.13496509D+05 0.12530859D+01  1  2  6  2  5  2       -1 0.737806680489D+00 0.100000000000D+01
0.762406624984D-05 0.000000000000D+00 0.000000000000D+00 0.284832453627D-02 0.000000000000D+00  5 2 21 25 24 1 2 0.65913888D-02 0.56886181D-01 0.16733747D+05 0.16733747D+05 0.16733747D+05 0.12424434D+01  1  2 12  4  5  2       -1 0.447781285882D-01 0.100000000000D+01
-.228112006774D-04 0.000000000000D+00 -.728124505956D-05 0.284832453627D-02 0.000000000000D+00  5 2 21 25 24 1 2 0.65913888D-02 0.59660172D-01 0.13496509D+05 0.13496509D+05 0.13496509D+05 0.12530859D+01  1  2  5  4  5  2       -1 -.123080155171D+00 0.100000000000D+01
  </mgrwgt>
  </event>
  <event>
  4     66 0.48098993E-03 0.68457167E+02 0.75467711E-02 0.11994566E+00
        2 -1    0    0  501    0 0.00000000E+00 0.00000000E+00 0.17260589E+04 0.17260589E+04 0.32000000E+00 0.0000E+00 0.9000E+01
       -1 -1    0    0    0  501 0.00000000E+00 0.00000000E+00 -.88943885E+01 0.89001431E+01 0.32000000E+00 0.0000E+00 0.9000E+01
       25  1    1    2    0    0 0.65487824E+02 0.19064385E+02 0.98243248E+03 0.99269869E+03 0.12500000E+03 0.0000E+00 0.9000E+01
       24  1    1    2    0    0 -.65487824E+02 -.19064385E+02 0.73473202E+03 0.74226037E+03 0.80419002E+02 0.0000E+00 0.9000E+01
#aMCatNLO 1  0  0  2  1 0.49014471D+02 0.00000000D+00  -5  5  0 0.00000000D+00 0.00000000D+00 0.00000000D+00 0.00000000D+00 0.00000000D+00
  <mgrwgt>
 0.4618049738D+00    9    2    0
 0.123924396750067D+03 0.000000000000000D+00 0.000000000000000D+00 0.123924396750067D+03
 0.123924396750067D+03 0.000000000000000D+00 0.000000000000000D+00 -.123924396750067D+03
 0.142398935028633D+03 0.654878235709743D+02 0.190643854041931D+02 -.592343132177999D+00
 0.105449858471500D+03 -.654878235709743D+02 -.190643854041931D+02 0.592343132177999D+00
 0.000000000000000D+00 -.000000000000000D+00 0.000000000000000D+00 -.000000000000000D+00
 0.149882726578811D+03 0.000000000000000D+00 0.000000000000000D+00 0.149882726578811D+03
 0.151818820385771D+03 0.000000000000000D+00 0.000000000000000D+00 -.151818820385771D+03
 0.156266074934530D+03 0.932539939401618D+02 0.987055820439044D+01 -.592343132177999D+00
 0.963827778056265D+02 -.467239269711545D+02 -.252774144478075D+02 0.592343132177999D+00
 0.490526942244254D+02 -.465300669690074D+02 0.154068562434170D+02 -.193609380696054D+01
0.242447034055D-03 0.000000000000D+00 0.000000000000D+00 0.271324541365D-02 0.000000000000D+00  5 2 -1 25 24 21 0 0.26554797D+00 0.13688124D-02 0.15356897D+05 0.15356897D+05 0.15356897D+05 0.12466600D+01  1  2  2  2  5  2       -1 0.330359667524D+00 0.100000000000D+01
-.134692796675D-04 0.000000000000D+00 -.931060448543D-06 0.271324541365D-02 0.000000000000D+00  5 2 -1 25 24 21 2 0.26554797D+00 0.13688124D-02 0.15356897D+05 0.15356897D+05 0.15356897D+05 0.12466600D+01  1  2  3  2  5  2       -1 -.285240094218D-01 0.100000000000D+01
0.167818148962D-04 0.000000000000D+00 0.000000000000D+00 0.271324541365D-02 0.000000000000D+00  5 2 -1 25 24 21 2 0.26554797D+00 0.13688124D-02 0.15356897D+05 0.15356897D+05 0.15356897D+05 0.12466600D+01  1  2 15  2  5  2       -1 0.355389937719D-01 0.100000000000D+01
0.847071657877D-04 0.000000000000D+00 0.000000000000D+00 0.271324541365D-02 0.000000000000D+00  5 2 -1 25 24 21 2 0.26554797D+00 0.17914317D-02 0.22749746D+05 0.22749746D+05 0.22749746D+05 0.12277140D+01  1  2 12  2  5  2       -1 0.119137964859D+00 0.100000000000D+01
-.879426656332D-04 0.000000000000D+00 0.000000000000D+00 0.271324541365D-02 0.000000000000D+00  5 2 -1 25 24 21 2 0.26554797D+00 0.13688124D-02 0.15356897D+05 0.15356897D+05 0.15356897D+05 0.12466600D+01  1  2  4  2  5  2       -1 -.186236939541D+00 0.100000000000D+01
-.177519874543D-03 0.000000000000D+00 -.914598982041D-04 0.271324541365D-02 0.000000000000D+00  5 2 -1 25 24 21 2 0.26554797D+00 0.20987812D-02 0.15356897D+05 0.15356897D+05 0.15356897D+05 0.12466600D+01  1  2  5  2  5  2       -1 -.203622581285D+00 0.100000000000D+01
0.205330792796D-03 0.000000000000D+00 0.836977603709D-04 0.271324541365D-02 0.000000000000D+00  5 2 -1 25 24 21 2 0.26554797D+00 0.13688124D-02 0.15356897D+05 0.15356897D+05 0.15356897D+05 0.12466600D+01  1  2  6  2  5  2       -1 0.434830786270D+00 0.100000000000D+01
0.302567491498D-05 0.000000000000D+00 0.000000000000D+00 0.271324541365D-02 0.000000000000D+00  5 2 21 25 24 1 2 0.26554797D+00 0.17914317D-02 0.22749746D+05 0.22749746D+05 0.22749746D+05 0.12277140D+01  1  2 12  4  5  2       -1 0.898062257025D-01 0.100000000000D+01
-.546572116514D-05 0.000000000000D+00 -.457222240020D-05 0.271324541365D-02 0.000000000000D+00  5 2 21 25 24 1 2 0.26554797D+00 0.20987812D-02 0.15356897D+05 0.15356897D+05 0.15356897D+05 0.12466600D+01  1  2  5  4  5  2       -1 -.129485134071D+00 0.100000000000D+01
  </mgrwgt>
  </event>
  <event>
  4     66 0.48098993E-03 0.11634813E+03 0.75467711E-02 0.11534304E+00
        2 -1    0    0  501    0 0.00000000E+00 0.00000000E+00 0.13005574E+04 0.13005574E+04 0.32000000E+00 0.0000E+00 0.9000E+01
       -1 -1    0    0    0  501 0.00000000E+00 0.00000000E+00 -.29248032E+02 0.29249783E+02 0.32000000E+00 0.0000E+00 0.9000E+01
       25  1    1    2    0    0 0.51863218E+02 -.13718316E+02 0.14299407E+03 0.19735828E+03 0.12500000E+03 0.0000E+00 0.9000E+01
       24  1    1    2    0    0 -.51863218E+02 0.13718316E+02 0.11283153E+04 0.11324490E+04 0.80419002E+02 0.0000E+00 0.9000E+01
#aMCatNLO 1  0  0  2  2 0.13259034D+03 0.00000000D+00  -5  5  0 0.00000000D+00 0.00000000D+00 0.00000000D+00 0.00000000D+00 0.00000000D+00
  <mgrwgt>
 0.3043675002D+00    3    2    0
 0.195038291756494D+03 0.000000000000000D+00 0.000000000000000D+00 0.195038291756494D+03
 0.195038291756494D+03 0.000000000000000D+00 0.000000000000000D+00 -.195038291756494D+03
 0.206776735478437D+03 0.518632183893912D+02 -.137183164241196D+02 -.155735778509312D+03
 0.183299848034552D+03 -.518632183893912D+02 0.137183164241196D+02 0.155735778509312D+03
 0.000000000000000D+00 -.000000000000000D+00 0.000000000000000D+00 0.000000000000000D+00
 0.349800867831543D+03 0.000000000000000D+00 0.000000000000000D+00 0.349800867831543D+03
 0.236560451643809D+03 0.000000000000000D+00 0.000000000000000D+00 -.236560451643809D+03
 0.236622254505521D+03 0.122125487220838D+03 -.345951440298693D+02 -.155735778509312D+03
 0.175372815834363D+03 0.497307510816619D+01 -.316928941088076D+01 0.155735778509312D+03
 0.174366249135467D+03 -.127098562329004D+03 0.377644334407500D+02 0.113240416187734D+03
0.717870101319D-03 0.000000000000D+00 0.000000000000D+00 0.859971337980D-03 0.000000000000D+00  5 2 -1 25 24 21 0 0.20008589D+00 0.44998350D-02 0.13536888D+05 0.13536888D+05 0.13536888D+05 0.12529361D+01  1  2  2  2  5  2       -1 0.290301801948D+00 0.100000000000D+01
-.269403418241D-04 0.000000000000D+00 -.275681020860D-05 0.859971337980D-03 0.000000000000D+00  5 2 -1 25 24 21 2 0.20008589D+00 0.44998350D-02 0.13536888D+05 0.13536888D+05 0.13536888D+05 0.12529361D+01  1  2  3  2  5  2       -1 -.171027047995D-01 0.100000000000D+01
0.490967622911D-04 0.000000000000D+00 0.000000000000D+00 0.859971337980D-03 0.000000000000D+00  5 2 -1 25 24 21 2 0.20008589D+00 0.44998350D-02 0.13536888D+05 0.13536888D+05 0.13536888D+05 0.12529361D+01  1  2 15  2  5  2       -1 0.311684030424D-01 0.100000000000D+01
  </mgrwgt>
  </event>
  <event>
  4     66 0.48098993E-03 0.21249531E+03 0.75467711E-02 0.11169220E+00
        2 -1    0    0  501    0 0.00000000E+00 0.00000000E+00 0.74254590E+03 0.74254597E+03 0.32000000E+00 0.0000E+00 0.9000E+01
       -1 -1    0    0    0  501 0.00000000E+00 0.00000000E+00 -.68622300E+02 0.68623046E+02 0.32000000E+00 0.0000E+00 0.9000E+01
       25  1    1    2    0    0 -.51827011E+02 -.17758995E+03 0.21540665E+03 0.31024064E+03 0.12500000E+03 0.0000E+00 0.9000E+01
       24  1    1    2    0    0 0.51827011E+02 0.17758995E+03 0.45851695E+03 0.50092838E+03 0.80419002E+02 0.0000E+00 0.9000E+01
#aMCatNLO 1  0  0  2  2 0.60055242D+02 0.00000000D+00  -5  5  0 0.00000000D+00 0.00000000D+00 0.00000000D+00 0.00000000D+00 0.00000000D+00
  <mgrwgt>
 0.5387050401D+00    3    2    0
 0.225733333018607D+03 0.000000000000000D+00 0.000000000000000D+00 0.225733333018607D+03
 0.225733333018607D+03 0.000000000000000D+00 0.000000000000000D+00 -.225733333018607D+03
 0.235875592386295D+03 -.518270106778400D+02 -.177589947253821D+03 -.760793446486593D+02
 0.215591073650919D+03 0.518270106778400D+02 0.177589947253821D+03 0.760793446486593D+02
 0.000000000000000D+00 -.000000000000000D+00 0.000000000000000D+00 0.000000000000000D+00
 0.512594382484786D+03 0.000000000000000D+00 0.000000000000000D+00 0.512594382484786D+03
 0.230886877385417D+03 0.000000000000000D+00 0.000000000000000D+00 -.230886877385417D+03
 0.259581790780924D+03 -.448810781838080D+02 -.209655260472807D+03 -.760793446486593D+02
 0.195861710249526D+03 0.575952631220456D+02 0.150961294944206D+03 0.760793446486593D+02
 0.288037758839753D+03 -.127141849382376D+02 0.586939655286014D+02 0.281707505099369D+03
0.213965965947D-02 0.000000000000D+00 0.000000000000D+00 0.187230930183D-02 0.000000000000D+00  5 2 -1 25 24 21 0 0.11423789D+00 0.10557340D-01 0.45154255D+05 0.45154255D+05 0.45154255D+05 0.11966913D+01  1  2  2  2  5  2       -1 0.528720428084D+00 0.100000000000D+01
-.118342115919D-03 0.000000000000D+00 -.821685647770D-05 0.187230930183D-02 0.000000000000D+00  5 2 -1 25 24 21 2 0.11423789D+00 0.10557340D-01 0.45154255D+05 0.45154255D+05 0.45154255D+05 0.11966913D+01  1  2  3  2  5  2       -1 -.418779055644D-01 0.100000000000D+01
0.146557474335D-03 0.000000000000D+00 0.000000000000D+00 0.187230930183D-02 0.000000000000D+00  5 2 -1 25 24 21 2 0.11423789D+00 0.10557340D-01 0.45154255D+05 0.45154255D+05 0.45154255D+05 0.11966913D+01  1  2 15  2  5  2       -1 0.518625176023D-01 0.100000000000D+01
  </mgrwgt>
  </event>
  <event>
  4     66 0.48098993E-03 0.11744057E+03 0.75467711E-02 0.11483088E+00
        4 -1    0    0  501    0 0.00000000E+00 0.00000000E+00 0.41174208E+03 0.41174499E+03 0.15500000E+01 0.0000E+00 0.9000E+01
       -3 -1    0    0    0  501 0.00000000E+00 0.00000000E+00 -.34239919E+02 0.34243569E+02 0.50000000E+00 0.0000E+00 0.9000E+01
       25  1    1    2    0    0 0.15366053E+02 -.53759642E+02 0.18693143E+03 0.23172090E+03 0.12500000E+03 0.0000E+00 0.9000E+01
       24  1    1    2    0    0 -.15366053E+02 0.53759642E+02 0.19057073E+03 0.21426767E+03 0.80419002E+02 0.0000E+00 0.9000E+01
#aMCatNLO 1  0  0  2  2 0.13328488D+03 0.00000000D+00  -5  5  0 0.00000000D+00 0.00000000D+00 0.00000000D+00 0.00000000D+00 0.00000000D+00
  <mgrwgt>
 0.2169249910D-01    5    2    0
 0.118741230991522D+03 0.000000000000000D+00 0.000000000000000D+00 0.118741230991522D+03
 0.118741230991522D+03 0.000000000000000D+00 0.000000000000000D+00 -.118741230991522D+03
 0.138022200140063D+03 0.153660529973332D+02 -.537596417049491D+02 -.172891026528932D+02
 0.994602618429801D+02 -.153660529973332D+02 0.537596417049491D+02 0.172891026528932D+02
 0.000000000000000D+00 -.000000000000000D+00 -.000000000000000D+00 -.000000000000000D+00
 0.193136663750214D+03 0.000000000000000D+00 0.000000000000000D+00 0.193136663750214D+03
 0.214117960390522D+03 0.000000000000000D+00 0.000000000000000D+00 -.214117960390522D+03
 0.137241508181709D+03 0.534611702331837D+02 0.729532554080628D+01 -.172891026528932D+02
 0.135086932892269D+03 0.170941028846563D+02 0.105783467800486D+03 0.172891026528932D+02
 0.134926183066758D+03 -.705552731178400D+02 -.113078793341292D+03 -.209812966403079D+02
0.195690783248D-03 0.000000000000D+00 0.000000000000D+00 0.275643051960D-02 0.000000000000D+00  5 4 -3 25 24 21 0 0.63345440D-01 0.52681851D-02 0.13792287D+05 0.13792287D+05 0.13792287D+05 0.12520000D+01  1  2  2  2  5  2       -3 0.183737353154D-01 0.100000000000D+01
-.108701066197D-04 0.000000000000D+00 -.751504134239D-06 0.275643051960D-02 0.000000000000D+00  5 4 -3 25 24 21 2 0.63345440D-01 0.52681851D-02 0.13792287D+05 0.13792287D+05 0.13792287D+05 0.12520000D+01  1  2  3  2  5  2       -3 -.159981414240D-02 0.100000000000D+01
0.135346080896D-04 0.000000000000D+00 0.000000000000D+00 0.275643051960D-02 0.000000000000D+00  5 4 -3 25 24 21 2 0.63345440D-01 0.52681851D-02 0.13792287D+05 0.13792287D+05 0.13792287D+05 0.12520000D+01  1  2 15  2  5  2       -3 0.199196366614D-02 0.100000000000D+01
0.127473147941D-04 0.000000000000D+00 -.580721199729D-04 0.275643051960D-02 0.000000000000D+00  5 4 -3 25 24 21 2 0.63345440D-01 0.15391610D-01 0.13792287D+05 0.13792287D+05 0.13792287D+05 0.12520000D+01  1  2  5  2  5  2       -3 0.324046076313D-03 0.100000000000D+01
0.459049310554D-05 0.000000000000D+00 -.704851498766D-05 0.275643051960D-02 0.000000000000D+00  5 4 21 25 24 3 2 0.63345440D-01 0.15391610D-01 0.13792287D+05 0.13792287D+05 0.13792287D+05 0.12520000D+01  1  2  5  4  5  2       -3 0.260256818326D-02 0.100000000000D+01
  </mgrwgt>
  </event>
  <event>
  4     66 0.48098993E-03 0.50286696E+03 0.75467711E-02 0.93853129E-01
        2 -1    0    0  501    0 0.00000000E+00 0.00000000E+00 0.56354143E+03 0.56354152E+03 0.32000000E+00 0.0000E+00 0.9000E+01
       -1 -1    0    0    0  501 0.00000000E+00 0.00000000E+00 -.47305323E+03 0.47305333E+03 0.32000000E+00 0.0000E+00 0.9000E+01
       25  1    1    2    0    0 -.38461670E+02 -.49027595E+03 -.71901204E+02 0.51248862E+03 0.12500000E+03 0.0000E+00 0.9000E+01
       24  1    1    2    0    0 0.38461670E+02 0.49027595E+03 0.16238940E+03 0.52410623E+03 0.80419002E+02 0.0000E+00 0.9000E+01
#aMCatNLO 1  0  0  2  2 0.66192006D+03 0.00000000D+00  -5  5  0 0.00000000D+00 0.00000000D+00 0.00000000D+00 0.00000000D+00 0.00000000D+00
  <mgrwgt>
 0.3117299917D+00    5    2    0
 0.516318886349381D+03 0.000000000000000D+00 0.000000000000000D+00 0.516318886349381D+03
 0.516318886349381D+03 0.000000000000000D+00 0.000000000000000D+00 -.516318886349381D+03
 0.520753056920973D+03 -.384616700540437D+02 -.490275947081174D+03 -.117085190963034D+03
 0.511884715777790D+03 0.384616700540437D+02 0.490275947081174D+03 0.117085190963034D+03
 0.000000000000000D+00 -.000000000000000D+00 -.000000000000000D+00 -.000000000000000D+00
 0.788259438289498D+03 0.000000000000000D+00 0.000000000000000D+00 0.788259438289498D+03
 0.123929273955611D+04 0.000000000000000D+00 0.000000000000000D+00 -.123929273955611D+04
 0.586315976113035D+03 0.285801016294588D+03 -.482441976809141D+03 -.117085190963034D+03
 0.640256049748293D+03 0.375925955056567D+03 0.498428859173378D+03 0.117085190963034D+03
 0.800980151984278D+03 -.661726971351156D+03 -.159868823642379D+02 -.451033301266609D+03
0.254086916363D-01 0.000000000000D+00 0.000000000000D+00 0.183493838088D-02 0.000000000000D+00  5 2 -1 25 24 21 0 0.86698696D-01 0.72777435D-01 0.25287518D+06 0.25287518D+06 0.25287518D+06 0.11282797D+01  1  2  2  2  5  2       -1 0.305544345549D+00 0.100000000000D+01
-.141039789051D-02 0.000000000000D+00 -.975760661455D-04 0.183493838088D-02 0.000000000000D+00  5 2 -1 25 24 21 2 0.86698696D-01 0.72777435D-01 0.25287518D+06 0.25287518D+06 0.25287518D+06 0.11282797D+01  1  2  3  2  5  2       -1 -.215907224142D-01 0.100000000000D+01
0.174817726908D-02 0.000000000000D+00 0.000000000000D+00 0.183493838088D-02 0.000000000000D+00  5 2 -1 25 24 21 2 0.86698696D-01 0.72777435D-01 0.25287518D+06 0.25287518D+06 0.25287518D+06 0.11282797D+01  1  2 15  2  5  2       -1 0.267615333244D-01 0.100000000000D+01
-.628670243106D-03 0.000000000000D+00 -.719290875111D-02 0.183493838088D-02 0.000000000000D+00  5 2 -1 25 24 21 2 0.86698696D-01 0.22903217D+00 0.25287518D+06 0.25287518D+06 0.25287518D+06 0.11282797D+01  1  2  5  2  5  2       -1 -.505543711309D-03 0.100000000000D+01
0.241708526024D-03 0.000000000000D+00 -.946752849851D-03 0.183493838088D-02 0.000000000000D+00  5 2 21 25 24 1 2 0.86698696D-01 0.22903217D+00 0.25287518D+06 0.25287518D+06 0.25287518D+06 0.11282797D+01  1  2  5  4  5  2       -1 0.152037890897D-02 0.100000000000D+01
  </mgrwgt>
  </event>
  <event>
  5     66 -.48098993E-03 0.10493211E+03 0.75467711E-02 0.12629693E+00
        2 -1    0    0  502    0 0.00000000E+00 0.00000000E+00 0.15360439E+02 0.15363772E+02 0.32000000E+00 0.0000E+00 0.9000E+01
       -1 -1    0    0    0  501 0.00000000E+00 0.00000000E+00 -.88203640E+03 0.88203645E+03 0.32000000E+00 0.0000E+00 0.9000E+01
       25  1    1    2    0    0 0.18496036E+02 -.12488206E+02 -.64975817E+03 0.66204889E+03 0.12500000E+03 0.0000E+00 0.9000E+01
       24  1    1    2    0    0 -.19917425E+02 0.51839033E+01 -.18855200E+03 0.20601614E+03 0.80419002E+02 0.0000E+00 0.9000E+01
       21  1    1    2  502  501 0.14213895E+01 0.73043030E+01 -.28365782E+02 0.29335189E+02 0.75000000E+00 0.0000E+00 0.9000E+01
#aMCatNLO 2  0  0  1  2 0.74413164D+01 0.00000000D+00  -5  5  0 0.00000000D+00 0.00000000D+00 0.00000000D+00 0.00000000D+00 0.00000000D+00
  <mgrwgt>
 -.2537193952D+00    3    2    0
 0.112602826456152D+03 0.000000000000000D+00 0.000000000000000D+00 0.112602826456152D+03
 0.112602826456152D+03 0.000000000000000D+00 0.000000000000000D+00 -.112602826456152D+03
 0.132934873914116D+03 0.193355080199463D+02 -.817428684006254D+01 -.400749281575024D+02
 0.922707789981885D+02 -.193355080199463D+02 0.817428684006254D+01 0.400749281575024D+02
 0.000000000000000D+00 0.000000000000000D+00 0.000000000000000D+00 -.000000000000000D+00
 0.116316019134414D+03 0.000000000000000D+00 0.000000000000000D+00 0.116316019134414D+03
 0.116455156497229D+03 0.000000000000000D+00 0.000000000000000D+00 -.116455156497229D+03
 0.133150510698509D+03 0.184960357384978D+02 -.124882062124574D+02 -.400749281575024D+02
 0.921780478412990D+02 -.199174252782085D+02 0.518390325143826D+01 0.400749281575024D+02
 0.744261709183558D+01 0.142138953971069D+01 0.730430296101915D+01 -.139137362814825D+00
-.202492216232D-02 0.000000000000D+00 0.000000000000D+00 0.262831392106D-02 0.000000000000D+00  5 2 -1 25 24 21 2 0.24008621D-02 0.13118804D+00 0.11818812D+05 0.11818812D+05 0.11818812D+05 0.12597992D+01  1  2 13  1  5  1        2 -.792770348559D+00 0.100000000000D+01
-.485532266974D-03 0.000000000000D+00 0.000000000000D+00 0.262831392106D-02 0.000000000000D+00  5 2 -1 25 24 21 2 0.22875871D-02 0.13118804D+00 0.11010748D+05 0.11010748D+05 0.11010748D+05 0.12634269D+01  1  2  8  1  5  1        2 -.203613077235D+00 0.100000000000D+01
0.201550595764D-02 0.000000000000D+00 0.000000000000D+00 0.262831392106D-02 0.402262876690D-03  5 2 -1 25 24 21 2 0.23630226D-02 0.13567620D+00 0.11818812D+05 0.11818812D+05 0.11818812D+05 0.12597992D+01  1  2  1  1  5  1        2 0.742664030577D+00 0.100000000000D+01
  </mgrwgt>
  </event>
  <event>
  4     66 0.48098993E-03 0.82004028E+02 0.75467711E-02 0.11355921E+00
        2 -1    0    0  501    0 0.00000000E+00 0.00000000E+00 0.21309174E+04 0.21309174E+04 0.32000000E+00 0.0000E+00 0.9000E+01
       -1 -1    0    0    0  501 0.00000000E+00 0.00000000E+00 -.91353042E+01 0.91409072E+01 0.32000000E+00 0.0000E+00 0.9000E+01
       25  1    1    2    0    0 0.59644462E+02 0.69436030E+02 0.13221146E+04 0.13311615E+04 0.12500000E+03 0.0000E+00 0.9000E+01
       24  1    1    2    0    0 -.59644462E+02 -.69436030E+02 0.79966750E+03 0.80889687E+03 0.80419002E+02 0.0000E+00 0.9000E+01
#aMCatNLO 1  0  0  2  1 0.12995345D+03 0.00000000D+00  -5  5  0 0.00000000D+00 0.00000000D+00 0.00000000D+00 0.00000000D+00 0.00000000D+00
  <mgrwgt>
 0.3028452364D+00    7    2    0
 0.139544257310353D+03 0.000000000000000D+00 0.000000000000000D+00 0.139544257310353D+03
 0.139544257310353D+03 0.000000000000000D+00 0.000000000000000D+00 -.139544257310353D+03
 0.155950851573244D+03 0.596444621363825D+02 0.694360303216607D+02 0.178001105628870D+02
 0.123137663047463D+03 -.596444621363825D+02 -.694360303216607D+02 -.178001105628870D+02
 0.000000000000000D+00 -.000000000000000D+00 -.000000000000000D+00 -.000000000000000D+00
 0.181732274096716D+03 0.000000000000000D+00 0.000000000000000D+00 0.181732274096716D+03
 0.305789906117834D+03 0.000000000000000D+00 0.000000000000000D+00 -.305789906117834D+03
 0.208480579998657D+03 0.136328256269387D+03 0.945352571428982D+02 0.178001105628870D+02
 0.993802633783049D+02 -.128221592759061D+02 -.541107114185632D+02 -.178001105628870D+02
 0.179661336837587D+03 -.123506096993480D+03 -.404245457243350D+02 -.124057632021118D+03
0.411737525214D-03 0.000000000000D+00 0.000000000000D+00 0.246896003078D-02 0.000000000000D+00  5 2 -1 25 24 21 0 0.32783388D+00 0.14058643D-02 0.19151239D+05 0.19151239D+05 0.19151239D+05 0.12359048D+01  1  2  2  2  5  2       -1 0.336653863491D+00 0.100000000000D+01
-.228723815416D-04 0.000000000000D+00 -.158118050980D-05 0.246896003078D-02 0.000000000000D+00  5 2 -1 25 24 21 2 0.32783388D+00 0.14058643D-02 0.19151239D+05 0.19151239D+05 0.19151239D+05 0.12359048D+01  1  2  3  2  5  2       -1 -.285656811983D-01 0.100000000000D+01
0.284798370712D-04 0.000000000000D+00 0.000000000000D+00 0.246896003078D-02 0.000000000000D+00  5 2 -1 25 24 21 2 0.32783388D+00 0.14058643D-02 0.19151239D+05 0.19151239D+05 0.19151239D+05 0.12359048D+01  1  2 15  2  5  2       -1 0.355689216218D-01 0.100000000000D+01
0.107921994777D-05 0.000000000000D+00 0.000000000000D+00 0.246896003078D-02 0.000000000000D+00  5 2 -1 25 24 21 2 0.32783388D+00 0.30718316D-02 0.47403288D+05 0.47403288D+05 0.47403288D+05 0.11945824D+01  1  2 12  2  5  2       -1 0.405321427604D-03 0.100000000000D+01
-.840434843229D-04 0.000000000000D+00 -.124369637404D-03 0.246896003078D-02 0.000000000000D+00  5 2 -1 25 24 21 2 0.32783388D+00 0.43038691D-02 0.19151239D+05 0.19151239D+05 0.19151239D+05 0.12359048D+01  1  2  5  2  5  2       -1 -.207031758986D-01 0.100000000000D+01
0.913888073634D-07 0.000000000000D+00 0.000000000000D+00 0.246896003078D-02 0.000000000000D+00  5 2 21 25 24 1 2 0.32783388D+00 0.30718316D-02 0.47403288D+05 0.47403288D+05 0.47403288D+05 0.11945824D+01  1  2 12  4  5  2       -1 0.649285203378D-03 0.100000000000D+01
-.476875365468D-05 0.000000000000D+00 -.158935387555D-04 0.246896003078D-02 0.000000000000D+00  5 2 21 25 24 1 2 0.32783388D+00 0.43038691D-02 0.19151239D+05 0.19151239D+05 0.19151239D+05 0.12359048D+01  1  2  5  4  5  2       -1 -.211632982870D-01 0.100000000000D+01
  </mgrwgt>
  </event>
  <event>
  5     66 0.48098993E-03 0.10476255E+03 0.75467711E-02 0.11503639E+00
        2 -1    0    0  502    0 0.00000000E+00 0.00000000E+00 0.61002246E+03 0.61002255E+03 0.32000000E+00 0.0000E+00 0.9000E+01
       -1 -1    0    0    0  501 0.00000000E+00 0.00000000E+00 -.77301740E+02 0.77302402E+02 0.32000000E+00 0.0000E+00 0.9000E+01
       25  1    1    2    0    0 0.38265941E+02 0.51997030E+02 0.69474639E+02 0.15690666E+03 0.12500000E+03 0.0000E+00 0.9000E+01
       24  1    1    2    0    0 0.25246557E+02 0.76926815E+02 0.22179472E+03 0.24942982E+03 0.80419002E+02 0.0000E+00 0.9000E+01
       21  1    1    2  502  501 -.63512498E+02 -.12892385E+03 0.24145136E+03 0.28098847E+03 0.75000000E+00 0.0000E+00 0.9000E+01
#aMCatNLO 2  0  0  1  1 0.14371915D+03 0.00000000D+00  -5  5  0 0.00000000D+00 0.00000000D+00 0.00000000D+00 0.00000000D+00 0.00000000D+00
  <mgrwgt>
 0.4504547137D-01    1    2    0
 0.122082247566328D+03 0.000000000000000D+00 0.000000000000000D+00 0.122082247566328D+03
 0.122082247566328D+03 0.000000000000000D+00 0.000000000000000D+00 -.122082247566328D+03
 0.140835555742142D+03 0.281299640391094D+01 -.199688036473699D+02 -.616683686611091D+02
 0.103328939390515D+03 -.281299640391094D+01 0.199688036473699D+02 0.616683686611091D+02
 0.000000000000000D+00 -.000000000000000D+00 -.000000000000000D+00 0.000000000000000D+00
 0.247750631602795D+03 0.000000000000000D+00 0.000000000000000D+00 0.247750631602795D+03
 0.190335105999272D+03 0.000000000000000D+00 0.000000000000000D+00 -.190335105999272D+03
 0.153609768890963D+03 0.382659408300912D+02 0.519970304709864D+02 -.616683686611091D+02
 0.129712478658316D+03 0.252465574483308D+02 0.769268146292263D+02 0.616683686611091D+02
 0.154763490052787D+03 -.635124982784220D+02 -.128923845100213D+03 0.574155256035236D+02
0.120127694694D-03 0.000000000000D+00 0.000000000000D+00 0.213610150886D-02 0.120593566982D-05  5 2 -1 25 24 21 2 0.93849258D-01 0.11892581D-01 0.39704970D+05 0.39704970D+05 0.39704970D+05 0.12023269D+01  1  2  1  1  5  1        2 0.450454713740D-01 0.100000000000D+01
  </mgrwgt>
  </event>
  <event>
  4     66 0.48098993E-03 0.10977132E+03 0.75467711E-02 0.11947414E+00
        2 -1    0    0  501    0 0.00000000E+00 0.00000000E+00 0.21460019E+03 0.21460043E+03 0.32000000E+00 0.0000E+00 0.9000E+01
       -1 -1    0    0    0  501 0.00000000E+00 0.00000000E+00 -.87042911E+02 0.87043499E+02 0.32000000E+00 0.0000E+00 0.9000E+01
       25  1    1    2    0    0 0.11650897E+02 0.36095488E+02 0.16039611E+03 0.20685874E+03 0.12500000E+03 0.0000E+00 0.9000E+01
       24  1    1    2    0    0 -.11650897E+02 -.36095488E+02 -.32838825E+02 0.94785189E+02 0.80419002E+02 0.0000E+00 0.9000E+01
#aMCatNLO 1  0  0  2  1 0.76050996D+02 0.00000000D+00  -5  5  0 0.00000000D+00 0.00000000D+00 0.00000000D+00 0.00000000D+00 0.00000000D+00
  <mgrwgt>
 0.3149663922D+00    4    2    0
 0.136673151418983D+03 0.000000000000000D+00 0.000000000000000D+00 0.136673151418983D+03
 0.136673151418983D+03 0.000000000000000D+00 0.000000000000000D+00 -.136673151418983D+03
 0.153424400568049D+03 0.116508973518546D+02 0.360954883805084D+02 0.804699881889776D+02
 0.119921902269917D+03 -.116508973518546D+02 -.360954883805084D+02 -.804699881889776D+02
 0.000000000000000D+00 0.000000000000000D+00 0.000000000000000D+00 0.000000000000000D+00
 0.224461501293219D+03 0.000000000000000D+00 0.000000000000000D+00 0.224461501293219D+03
 0.159370241362442D+03 0.000000000000000D+00 0.000000000000000D+00 -.159370241362442D+03
 0.148782505245784D+03 -.584913381669801D+01 -.126589955049263D+01 0.804699881889776D+02
 0.134946159714175D+03 -.264096568070003D+02 -.676044458259614D+02 -.804699881889776D+02
 0.100103077695702D+03 0.322587906236983D+02 0.688703453764540D+02 0.650912599307774D+02
0.558141520074D-03 0.000000000000D+00 0.000000000000D+00 0.174910666211D-02 0.000000000000D+00  5 2 -1 25 24 21 0 0.33015478D-01 0.13391281D-01 0.12049742D+05 0.12049742D+05 0.12049742D+05 0.12588136D+01  1  2  2  2  5  2       -1 0.362731072780D+00 0.100000000000D+01
-.291964932326D-04 0.000000000000D+00 -.214341039912D-05 0.174910666211D-02 0.000000000000D+00  5 2 -1 25 24 21 2 0.33015478D-01 0.13391281D-01 0.12049742D+05 0.12049742D+05 0.12049742D+05 0.12588136D+01  1  2  3  2  5  2       -1 -.300672690185D-01 0.100000000000D+01
0.382337775964D-04 0.000000000000D+00 0.000000000000D+00 0.174910666211D-02 0.000000000000D+00  5 2 -1 25 24 21 2 0.33015478D-01 0.13391281D-01 0.12049742D+05 0.12049742D+05 0.12049742D+05 0.12588136D+01  1  2 15  2  5  2       -1 0.393740874093D-01 0.100000000000D+01
-.554186558514D-04 0.000000000000D+00 0.000000000000D+00 0.174910666211D-02 0.000000000000D+00  5 2 -1 25 24 21 2 0.33015478D-01 0.13391281D-01 0.12049742D+05 0.12049742D+05 0.12049742D+05 0.12588136D+01  1  2  4  2  5  2       -1 -.570714989931D-01 0.100000000000D+01
  </mgrwgt>
  </event>
  <event>
  5     66 0.48098993E-03 0.11514326E+03 0.75467711E-02 0.12023115E+00
        2 -1    0    0  501    0 0.00000000E+00 0.00000000E+00 0.13889899E+04 0.13889899E+04 0.32000000E+00 0.0000E+00 0.9000E+01
       21 -1    0    0  502  501 0.00000000E+00 0.00000000E+00 -.67130793E+02 0.67134983E+02 0.75000000E+00 0.0000E+00 0.9000E+01
       25  1    1    2    0    0 0.33984088E+02 0.64604858E+02 0.31501552E+03 0.34668210E+03 0.12500000E+03 0.0000E+00 0.9000E+01
       24  1    1    2    0    0 -.44782267E+02 -.55230410E+01 0.10377893E+04 0.10418780E+04 0.80419002E+02 0.0000E+00 0.9000E+01
        1  1    1    2  502    0 0.10798178E+02 -.59081817E+02 -.30945713E+02 0.67564794E+02 0.32000000E+00 0.0000E+00 0.9000E+01
#aMCatNLO 2  0  0  2  1 0.60060485D+02 0.00000000D+00  -5  5  0 0.00000000D+00 0.00000000D+00 0.00000000D+00 0.00000000D+00 0.00000000D+00
  <mgrwgt>
 0.6542016020D+00    2    2    0
 0.153631929107685D+03 0.000000000000000D+00 0.000000000000000D+00 0.153631929107685D+03
 0.153631929107685D+03 0.000000000000000D+00 0.000000000000000D+00 -.153631929107685D+03
 0.168534078841174D+03 0.399886932860315D+02 0.317508928912292D+02 -.100853958478229D+03
 0.138729779374197D+03 -.399886932860315D+02 -.317508928912292D+02 0.100853958478229D+03
 0.000000000000000D+00 0.000000000000000D+00 -.000000000000000D+00 -.000000000000000D+00
 0.158630395197184D+03 0.000000000000000D+00 0.000000000000000D+00 0.158630395197184D+03
 0.587825567765037D+03 0.000000000000000D+00 0.000000000000000D+00 -.587825567765037D+03
 0.176423430783543D+03 0.339840882675028D+02 0.646048584344388D+02 -.100853958478229D+03
 0.136655377775294D+03 -.447822665537858D+02 -.552304102059265D+01 0.100853958478229D+03
 0.433377154403384D+03 0.107981782862830D+02 -.590818174138461D+02 -.429195172567853D+03
-.246314229790D-03 0.000000000000D+00 0.000000000000D+00 0.143935670054D-02 0.000000000000D+00  5 2 21 25 24 1 2 0.20695757D+00 0.10206111D-01 0.22056271D+05 0.22056271D+05 0.22056271D+05 0.12291742D+01  1  2 13  4  5  2       -1 -.626731816343D+00 0.100000000000D+01
0.542469611300D-03 0.000000000000D+00 0.000000000000D+00 0.143935670054D-02 0.124927369831D-05  5 2 21 25 24 1 2 0.21369100D+00 0.10328136D-01 0.22056271D+05 0.22056271D+05 0.22056271D+05 0.12291742D+01  1  2  1  4  5  2       -1 0.128093341839D+01 0.100000000000D+01
  </mgrwgt>
  </event>
  <event>
  5     66 0.48098993E-03 0.10344305E+03 0.75467711E-02 0.11934519E+00
        2 -1    0    0  501    0 0.00000000E+00 0.00000000E+00 0.22224015E+04 0.22224015E+04 0.32000000E+00 0.0000E+00 0.9000E+01
       21 -1    0    0  502  501 0.00000000E+00 0.00000000E+00 -.17815579E+02 0.17831359E+02 0.75000000E+00 0.0000E+00 0.9000E+01
       25  1    1    2    0    0 -.88458925E+01 0.62892726E+02 0.10746742E+04 0.10837820E+04 0.12500000E+03 0.0000E+00 0.9000E+01
       24  1    1    2    0    0 0.62515605E+01 0.24328132E+02 0.97516054E+03 0.97879326E+03 0.80419002E+02 0.0000E+00 0.9000E+01
        1  1    1    2  502    0 0.25943321E+01 -.87220857E+02 0.15475116E+03 0.17765763E+03 0.32000000E+00 0.0000E+00 0.9000E+01
#aMCatNLO 2  0  0  2  1 0.87259432D+02 0.00000000D+00  -5  5  0 0.00000000D+00 0.00000000D+00 0.00000000D+00 0.00000000D+00 0.00000000D+00
  <mgrwgt>
 0.4857040010D+00    2    2    0
 0.105806342732926D+03 0.000000000000000D+00 0.000000000000000D+00 0.105806342732926D+03
 0.105806342732926D+03 0.000000000000000D+00 0.000000000000000D+00 -.105806342732926D+03
 0.127444421814691D+03 -.725970403914138D+01 0.956542702423995D+01 -.217458031534563D+02
 0.841682636511612D+02 0.725970403914138D+01 -.956542702423995D+01 0.217458031534563D+02
 0.000000000000000D+00 0.000000000000000D+00 -.000000000000000D+00 -.000000000000000D+00
 0.123699690410516D+03 0.000000000000000D+00 0.000000000000000D+00 0.123699690410516D+03
 0.320219068161335D+03 0.000000000000000D+00 0.000000000000000D+00 -.320219068161335D+03
 0.141885956647770D+03 -.884589253550182D+01 0.628927255277925D+02 -.217458031534563D+02
 0.870116998561751D+02 0.625156047036612D+01 0.243281317488017D+02 0.217458031534563D+02
 0.215021102067907D+03 0.259433206513570D+01 -.872208572765942D+02 -.196519377750819D+03
-.166443536556D-05 0.000000000000D+00 0.000000000000D+00 0.302700366965D-02 0.000000000000D+00  5 2 21 25 24 1 2 0.29245120D+00 0.26496909D-02 0.24292282D+05 0.24292282D+05 0.24292282D+05 0.12246370D+01  1  2 13  4  5  2       -1 -.211518420773D-01 0.100000000000D+01
0.618487510780D-04 0.000000000000D+00 0.000000000000D+00 0.302700366965D-02 0.890198718158D-06  5 2 21 25 24 1 2 0.34190883D+00 0.27420715D-02 0.24292282D+05 0.24292282D+05 0.24292282D+05 0.12246370D+01  1  2  1  4  5  2       -1 0.506855843073D+00 0.100000000000D+01
  </mgrwgt>
  </event>
  <event>
  4     66 0.48098993E-03 0.77030029E+02 0.75467711E-02 0.12268115E+00
        2 -1    0    0  501    0 0.00000000E+00 0.00000000E+00 0.14237331E+04 0.14237331E+04 0.32000000E+00 0.0000E+00 0.9000E+01
       -1 -1    0    0    0  501 0.00000000E+00 0.00000000E+00 -.11501389E+02 0.11505840E+02 0.32000000E+00 0.0000E+00 0.9000E+01
       25  1    1    2    0    0 -.12570744E+02 -.51533866E+02 0.11035596E+04 0.11118825E+04 0.12500000E+03 0.0000E+00 0.9000E+01
       24  1    1    2    0    0 0.12570744E+02 0.51533866E+02 0.30867208E+03 0.32335651E+03 0.80419002E+02 0.0000E+00 0.9000E+01
#aMCatNLO 1  0  0  1  2 0.27474045D+02 0.00000000D+00  -5  5  0 0.00000000D+00 0.00000000D+00 0.00000000D+00 0.00000000D+00 0.00000000D+00
  <mgrwgt>
 0.7071411603D+00    9    2    0
 0.127977062527368D+03 0.000000000000000D+00 0.000000000000000D+00 0.127977062527368D+03
 0.127977062527368D+03 0.000000000000000D+00 0.000000000000000D+00 -.127977062527368D+03
 0.145866565272579D+03 -.125707438693218D+02 -.515338660707594D+02 0.532756221061049D+02
 0.110087559782157D+03 0.125707438693218D+02 0.515338660707594D+02 -.532756221061049D+02
 0.000000000000000D+00 -.000000000000000D+00 0.000000000000000D+00 0.000000000000000D+00
 0.143048666271868D+03 0.000000000000000D+00 0.000000000000000D+00 0.143048666271868D+03
 0.141874871499049D+03 0.000000000000000D+00 0.000000000000000D+00 -.141874871499049D+03
 0.151262041139519D+03 -.632715733428522D+01 -.661579946716063D+02 0.532756221061049D+02
 0.106162389046037D+03 0.171148208769508D+02 0.408904376248159D+02 -.532756221061049D+02
 0.274991075853610D+02 -.107876635426656D+02 0.252675570467904D+02 0.117379477281805D+01
0.237455066259D-03 0.000000000000D+00 0.000000000000D+00 0.224513296508D-02 0.000000000000D+00  5 2 -1 25 24 21 0 0.21903620D+00 0.17697897D-02 0.13470764D+05 0.13470764D+05 0.13470764D+05 0.12531817D+01  1  2  2  1  5  1        2 0.319433727705D+00 0.100000000000D+01
-.130388072717D-04 0.000000000000D+00 -.911889977790D-06 0.224513296508D-02 0.000000000000D+00  5 2 -1 25 24 21 2 0.21903620D+00 0.17697897D-02 0.13470764D+05 0.13470764D+05 0.13470764D+05 0.12531817D+01  1  2  3  1  5  1        2 -.275464265605D-01 0.100000000000D+01
0.164195512907D-04 0.000000000000D+00 0.000000000000D+00 0.224513296508D-02 0.000000000000D+00  5 2 -1 25 24 21 2 0.21903620D+00 0.17697897D-02 0.13470764D+05 0.13470764D+05 0.13470764D+05 0.12531817D+01  1  2 15  1  5  1        2 0.346887529175D-01 0.100000000000D+01
0.226177084005D-03 0.000000000000D+00 0.000000000000D+00 0.224513296508D-02 0.000000000000D+00  5 2 -1 25 24 21 2 0.25543250D+00 0.17697897D-02 0.17013329D+05 0.17013329D+05 0.17013329D+05 0.12416347D+01  1  2 12  1  5  1        2 0.355991116786D+00 0.100000000000D+01
-.190585725039D-03 0.000000000000D+00 0.000000000000D+00 0.224513296508D-02 0.000000000000D+00  5 2 -1 25 24 21 2 0.21903620D+00 0.17697897D-02 0.13470764D+05 0.13470764D+05 0.13470764D+05 0.12531817D+01  1  2  4  1  5  1        2 -.402640791360D+00 0.100000000000D+01
-.665160594099D-03 0.000000000000D+00 -.182600108453D-03 0.224513296508D-02 0.000000000000D+00  5 2 -1 25 24 21 2 0.26041543D+00 0.17697897D-02 0.13470764D+05 0.13470764D+05 0.13470764D+05 0.12531817D+01  1  2  5  1  5  1        2 -.102187591016D+01 0.100000000000D+01
0.689115107061D-03 0.000000000000D+00 0.179899987532D-03 0.224513296508D-02 0.000000000000D+00  5 2 -1 25 24 21 2 0.21903620D+00 0.17697897D-02 0.13470764D+05 0.13470764D+05 0.13470764D+05 0.12531817D+01  1  2  6  1  5  1        2 0.145585852240D+01 0.100000000000D+01
0.526245289326D-05 0.000000000000D+00 0.000000000000D+00 0.224513296508D-02 0.000000000000D+00  5 21 -1 25 24 -2 2 0.25543250D+00 0.17697897D-02 0.17013329D+05 0.17013329D+05 0.17013329D+05 0.12416347D+01  1  2 12  3  5  1        2 0.372157188789D-02 0.100000000000D+01
-.153736836037D-04 0.000000000000D+00 -.466902873022D-05 0.224513296508D-02 0.000000000000D+00  5 21 -1 25 24 -2 2 0.26041543D+00 0.17697897D-02 0.13470764D+05 0.13470764D+05 0.13470764D+05 0.12531817D+01  1  2  5  3  5  1        2 -.104894033168D-01 0.100000000000D+01
  </mgrwgt>
  </event>
  <event>
  5     66 0.48098993E-03 0.10774817E+03 0.75467711E-02 0.12567281E+00
        2 -1    0    0  502    0 0.00000000E+00 0.00000000E+00 0.15565250E+04 0.15565251E+04 0.32000000E+00 0.0000E+00 0.9000E+01
       -1 -1    0    0    0  501 0.00000000E+00 0.00000000E+00 -.83313455E+01 0.83374887E+01 0.32000000E+00 0.0000E+00 0.9000E+01
       25  1    1    2    0    0 -.32693014E+02 0.25962275E+01 0.99832208E+03 0.10066516E+04 0.12500000E+03 0.0000E+00 0.9000E+01
       24  1    1    2    0    0 0.29838671E+02 -.10642100E+02 0.51998849E+03 0.52712318E+03 0.80419002E+02 0.0000E+00 0.9000E+01
       21  1    1    2  502  501 0.28543430E+01 0.80458727E+01 0.29883135E+02 0.31087741E+02 0.75000000E+00 0.0000E+00 0.9000E+01
#aMCatNLO 2  0  0  1  2 0.85371741D+01 0.00000000D+00  -5  5  0 0.00000000D+00 0.00000000D+00 0.00000000D+00 0.00000000D+00 0.00000000D+00
  <mgrwgt>
 0.2731582897D+00    2    2    0
 0.108541885900688D+03 0.000000000000000D+00 0.000000000000000D+00 0.108541885900688D+03
 0.108541885900688D+03 0.000000000000000D+00 0.000000000000000D+00 -.108541885900688D+03
 0.129634628047274D+03 -.309876288300742D+02 0.740339826859799D+01 0.128488654176604D+02
 0.874491437541021D+02 0.309876288300742D+02 -.740339826859799D+01 -.128488654176604D+02
 0.000000000000000D+00 0.000000000000000D+00 0.000000000000000D+00 -.000000000000000D+00
 0.110782690383870D+03 0.000000000000000D+00 0.000000000000000D+00 0.110782690383870D+03
 0.117073474870541D+03 0.000000000000000D+00 0.000000000000000D+00 -.117073474870541D+03
 0.129867882561317D+03 -.326930142532601D+02 0.259622754685165D+01 0.128488654176604D+02
 0.873836935458232D+02 0.298386712669035D+02 -.106421002553225D+02 -.128488654176604D+02
 0.106045891472706D+02 0.285434298635660D+01 0.804587270847084D+01 -.629078448667027D+01
-.793687342253D-06 0.000000000000D+00 0.000000000000D+00 0.301697228686D-02 0.000000000000D+00  5 2 -1 25 24 21 2 0.23459446D+00 0.11886398D-02 0.11609669D+05 0.11609669D+05 0.11609669D+05 0.12607107D+01  1  2  8  1  5  1        2 -.264218876523D-02 0.100000000000D+01
0.961299635170D-04 0.000000000000D+00 0.000000000000D+00 0.301697228686D-02 0.349725827185D-03  5 2 -1 25 24 21 2 0.23943757D+00 0.12820690D-02 0.12566607D+05 0.12566607D+05 0.12566607D+05 0.12566826D+01  1  2  1  1  5  1        2 0.275800478425D+00 0.100000000000D+01
  </mgrwgt>
  </event>
  <event>
  4     66 0.48098993E-03 0.56655153E+02 0.75467711E-02 0.12165880E+00
        2 -1    0    0  501    0 0.00000000E+00 0.00000000E+00 0.64260598E+03 0.64260606E+03 0.32000000E+00 0.0000E+00 0.9000E+01
       -1 -1    0    0    0  501 0.00000000E+00 0.00000000E+00 -.31552804E+02 0.31554427E+02 0.32000000E+00 0.0000E+00 0.9000E+01
       25  1    1    2    0    0 -.30721306E+02 0.31431323E+01 0.12132550E+03 0.17691397E+03 0.12500000E+03 0.0000E+00 0.9000E+01
       24  1    1    2    0    0 0.30721306E+02 -.31431323E+01 0.48972768E+03 0.49724652E+03 0.80419002E+02 0.0000E+00 0.9000E+01
#aMCatNLO 1  0  0  2  1 0.54888039D+02 0.00000000D+00  -5  5  0 0.00000000D+00 0.00000000D+00 0.00000000D+00 0.00000000D+00 0.00000000D+00
  <mgrwgt>
 0.2185957725D+00    9    2    0
 0.142395907010789D+03 0.000000000000000D+00 0.000000000000000D+00 0.142395907010789D+03
 0.142395907010789D+03 0.000000000000000D+00 0.000000000000000D+00 -.142395907010789D+03
 0.158473939444923D+03 -.307213061597625D+02 0.314313232451023D+01 -.923867498628551D+02
 0.126317874576655D+03 0.307213061597625D+02 -.314313232451023D+01 0.923867498628551D+02
 0.000000000000000D+00 0.000000000000000D+00 -.000000000000000D+00 -.000000000000000D+00
 0.156283525632411D+03 0.000000000000000D+00 0.000000000000000D+00 0.156283525632411D+03
 0.211863750860272D+03 0.000000000000000D+00 0.000000000000000D+00 -.211863750860272D+03
 0.167147014803389D+03 -.598341392917234D+02 0.140601843046674D+02 -.923867498628551D+02
 0.122885869754084D+03 0.844071601374837D+01 0.521188965737928D+01 0.923867498628551D+02
 0.781143919352091D+02 0.513934232779750D+02 -.192720739620467D+02 -.555802252278609D+02
0.280177200519D-03 0.000000000000D+00 0.000000000000D+00 0.153399367387D-02 0.000000000000D+00  5 2 -1 25 24 21 0 0.98862590D-01 0.48544085D-02 0.11545806D+05 0.11545806D+05 0.11545806D+05 0.12609928D+01  1  2  2  2  5  2       -1 0.257475237498D+00 0.100000000000D+01
-.140649476515D-04 0.000000000000D+00 -.107595422235D-05 0.153399367387D-02 0.000000000000D+00  5 2 -1 25 24 21 2 0.98862590D-01 0.48544085D-02 0.11545806D+05 0.11545806D+05 0.11545806D+05 0.12609928D+01  1  2  3  2  5  2       -1 -.205525627282D-01 0.100000000000D+01
0.191690684352D-04 0.000000000000D+00 0.000000000000D+00 0.153399367387D-02 0.000000000000D+00  5 2 -1 25 24 21 2 0.98862590D-01 0.48544085D-02 0.11545806D+05 0.11545806D+05 0.11545806D+05 0.12609928D+01  1  2 15  2  5  2       -1 0.280110165510D-01 0.100000000000D+01
0.156891526194D-03 0.000000000000D+00 0.000000000000D+00 0.153399367387D-02 0.000000000000D+00  5 2 -1 25 24 21 2 0.98862590D-01 0.73671907D-02 0.18935214D+05 0.18935214D+05 0.18935214D+05 0.12364504D+01  1  2 12  2  5  2       -1 0.120277528648D+00 0.100000000000D+01
-.258171100556D-03 0.000000000000D+00 0.000000000000D+00 0.153399367387D-02 0.000000000000D+00  5 2 -1 25 24 21 2 0.98862590D-01 0.48544085D-02 0.11545806D+05 0.11545806D+05 0.11545806D+05 0.12609928D+01  1  2  4  2  5  2       -1 -.377255420372D+00 0.100000000000D+01
-.266084721960D-03 0.000000000000D+00 -.972769513378D-04 0.153399367387D-02 0.000000000000D+00  5 2 -1 25 24 21 2 0.98862590D-01 0.79139871D-02 0.11545806D+05 0.11545806D+05 0.11545806D+05 0.12609928D+01  1  2  5  2  5  2       -1 -.188377493153D+00 0.100000000000D+01
0.288985024130D-03 0.000000000000D+00 0.867125789846D-04 0.153399367387D-02 0.000000000000D+00  5 2 -1 25 24 21 2 0.98862590D-01 0.48544085D-02 0.11545806D+05 0.11545806D+05 0.11545806D+05 0.12609928D+01  1  2  6  2  5  2       -1 0.422282612285D+00 0.100000000000D+01
0.770278450614D-05 0.000000000000D+00 0.000000000000D+00 0.153399367387D-02 0.000000000000D+00  5 2 21 25 24 1 2 0.98862590D-01 0.73671907D-02 0.18935214D+05 0.18935214D+05 0.18935214D+05 0.12364504D+01  1  2 12  4  5  2       -1 0.952345058397D-01 0.100000000000D+01
-.104606506562D-04 0.000000000000D+00 -.538717366663D-05 0.153399367387D-02 0.000000000000D+00  5 2 21 25 24 1 2 0.98862590D-01 0.79139871D-02 0.11545806D+05 0.11545806D+05 0.11545806D+05 0.12609928D+01  1  2  5  4  5  2       -1 -.118499652094D+00 0.100000000000D+01
  </mgrwgt>
  </event>
  <event>
  4     66 0.48098993E-03 0.63881770E+02 0.75467711E-02 0.12486491E+00
        2 -1    0    0  501    0 0.00000000E+00 0.00000000E+00 0.31280005E+03 0.31280022E+03 0.32000000E+00 0.0000E+00 0.9000E+01
       -1 -1    0    0    0  501 0.00000000E+00 0.00000000E+00 -.40789781E+02 0.40791037E+02 0.32000000E+00 0.0000E+00 0.9000E+01
       25  1    1    2    0    0 -.32758919E+02 -.32378216E+02 0.15793605E+03 0.20661629E+03 0.12500000E+03 0.0000E+00 0.9000E+01
       24  1    1    2    0    0 0.32758919E+02 0.32378216E+02 0.11407422E+03 0.14697496E+03 0.80419002E+02 0.0000E+00 0.9000E+01
#aMCatNLO 1  0  0  2  1 0.73803468D+01 0.00000000D+00  -5  5  0 0.00000000D+00 0.00000000D+00 0.00000000D+00 0.00000000D+00 0.00000000D+00
  <mgrwgt>
 0.7597958203D-01   11    2    0
 0.112957056733789D+03 0.000000000000000D+00 0.000000000000000D+00 0.112957056733789D+03
 0.112957056733789D+03 0.000000000000000D+00 0.000000000000000D+00 -.112957056733789D+03
 0.133225343440329D+03 -.327589192625831D+02 -.323782163523082D+02 -.158001562788963D+01
 0.926887700272489D+02 0.327589192625831D+02 0.323782163523082D+02 0.158001562788963D+01
 0.000000000000000D+00 -.000000000000000D+00 0.000000000000000D+00 -.000000000000000D+00
 0.114655289196472D+03 0.000000000000000D+00 0.000000000000000D+00 0.114655289196472D+03
 0.121330879542116D+03 0.000000000000000D+00 0.000000000000000D+00 -.121330879542116D+03
 0.132435429275702D+03 -.284923683841344D+02 -.331637063959653D+02 -.158001562788963D+01
 0.935992056428231D+02 0.357507314074991D+02 0.318274110954919D+02 0.158001562788963D+01
 0.995153382006331D+01 -.725836302336474D+01 0.133629530047350D+01 -.667559034564343D+01
0.154817110120D-03 0.000000000000D+00 0.000000000000D+00 0.293470638591D-02 0.000000000000D+00  5 2 -1 25 24 21 0 0.48123194D-01 0.62754601D-02 0.12756717D+05 0.12756717D+05 0.12756717D+05 0.12559234D+01  1  2  2  2  5  2       -1 0.213005068639D+00 0.100000000000D+01
-.860095045534D-05 0.000000000000D+00 -.594538467142D-06 0.293470638591D-02 0.000000000000D+00  5 2 -1 25 24 21 2 0.48123194D-01 0.62754601D-02 0.12756717D+05 0.12756717D+05 0.12756717D+05 0.12559234D+01  1  2  3  2  5  2       -1 -.186656775783D-01 0.100000000000D+01
0.107239161051D-04 0.000000000000D+00 0.000000000000D+00 0.293470638591D-02 0.000000000000D+00  5 2 -1 25 24 21 2 0.48123194D-01 0.62754601D-02 0.12756717D+05 0.12756717D+05 0.12756717D+05 0.12559234D+01  1  2 15  2  5  2       -1 0.232729116895D-01 0.100000000000D+01
0.665884300311D-03 0.000000000000D+00 0.000000000000D+00 0.293470638591D-02 0.000000000000D+00  5 2 -1 25 24 21 2 0.48123194D-01 0.67856067D-02 0.13617982D+05 0.13617982D+05 0.13617982D+05 0.12526367D+01  1  2 12  2  5  2       -1 0.128315617348D+01 0.100000000000D+01
-.689443688083D-03 0.000000000000D+00 0.000000000000D+00 0.293470638591D-02 0.000000000000D+00  5 2 -1 25 24 21 2 0.48123194D-01 0.62754601D-02 0.12756717D+05 0.12756717D+05 0.12756717D+05 0.12559234D+01  1  2  4  2  5  2       -1 -.149622226717D+01 0.100000000000D+01
-.160326879413D-02 0.000000000000D+00 -.225516186660D-03 0.293470638591D-02 0.000000000000D+00  5 2 -1 25 24 21 2 0.48123194D-01 0.68384417D-02 0.12756717D+05 0.12756717D+05 0.12756717D+05 0.12559234D+01  1  2  5  2  5  2       -1 -.306189646267D+01 0.100000000000D+01
0.161750020231D-02 0.000000000000D+00 0.224686464756D-03 0.293470638591D-02 0.000000000000D+00  5 2 -1 25 24 21 2 0.48123194D-01 0.62754601D-02 0.12756717D+05 0.12756717D+05 0.12756717D+05 0.12559234D+01  1  2  6  2  5  2       -1 0.351027917389D+01 0.100000000000D+01
0.148279315639D-04 0.000000000000D+00 0.000000000000D+00 0.293470638591D-02 0.452056496033D-03  5 2 -1 25 24 21 2 0.48846694D-01 0.67406776D-02 0.13617982D+05 0.13617982D+05 0.13617982D+05 0.12526367D+01  1  2 11  2  5  2       -1 0.284074192115D-01 0.100000000000D+01
0.908722806398D-05 0.000000000000D+00 0.000000000000D+00 0.293470638591D-02 0.000000000000D+00  5 2 21 25 24 1 2 0.48123194D-01 0.67856067D-02 0.13617982D+05 0.13617982D+05 0.13617982D+05 0.12526367D+01  1  2 12  4  5  2       -1 0.288855115657D+00 0.100000000000D+01
-.222501271686D-04 0.000000000000D+00 -.320837355260D-05 0.293470638591D-02 0.000000000000D+00  5 2 21 25 24 1 2 0.48123194D-01 0.68384417D-02 0.12756717D+05 0.12756717D+05 0.12756717D+05 0.12559234D+01  1  2  5  4  5  2       -1 -.700490317436D+00 0.100000000000D+01
0.198390856013D-06 0.000000000000D+00 0.000000000000D+00 0.293470638591D-02 0.552255027286D-05  5 2 21 25 24 1 2 0.48846694D-01 0.67406776D-02 0.13617982D+05 0.13617982D+05 0.13617982D+05 0.12526367D+01  1  2 11  4  5  2       -1 0.627844432183D-02 0.100000000000D+01
  </mgrwgt>
  </event>
  <event>
  4     66 0.48098993E-03 0.13659311E+03 0.75467711E-02 0.11793144E+00
        2 -1    0    0  501    0 0.00000000E+00 0.00000000E+00 0.83058568E+03 0.83058574E+03 0.32000000E+00 0.0000E+00 0.9000E+01
       -1 -1    0    0    0  501 0.00000000E+00 0.00000000E+00 -.22516220E+02 0.22518493E+02 0.32000000E+00 0.0000E+00 0.9000E+01
       25  1    1    2    0    0 -.79632852E+02 0.39384167E+02 0.47425169E+03 0.49842971E+03 0.12500000E+03 0.0000E+00 0.9000E+01
       24  1    1    2    0    0 0.79632852E+02 -.39384167E+02 0.33381777E+03 0.35467453E+03 0.80419002E+02 0.0000E+00 0.9000E+01
#aMCatNLO 1  0  0  1  1 0.57943062D+02 0.00000000D+00  -5  5  0 0.00000000D+00 0.00000000D+00 0.00000000D+00 0.00000000D+00 0.00000000D+00
  <mgrwgt>
 0.1868160025D+00    4    2    0
 0.136757617201392D+03 0.000000000000000D+00 0.000000000000000D+00 0.136757617201392D+03
 0.136757617201392D+03 0.000000000000000D+00 0.000000000000000D+00 -.136757617201392D+03
 0.153498520254974D+03 -.796328521301870D+02 0.393841672624654D+02 0.665521984013511D+01
 0.120016714147810D+03 0.796328521301870D+02 -.393841672624654D+02 -.665521984013511D+01
 0.000000000000000D+00 -.000000000000000D+00 -.000000000000000D+00 -.000000000000000D+00
 0.163456914955380D+03 0.000000000000000D+00 0.000000000000000D+00 0.163456914955380D+03
 0.175261818946030D+03 0.000000000000000D+00 0.000000000000000D+00 -.175261818946030D+03
 0.162904448551419D+03 -.751760560080502D+02 0.722296892544598D+02 0.665521984013511D+01
 0.116680926320531D+03 0.829669331286612D+02 -.148127873389942D+02 -.665521984013511D+01
 0.591333590294607D+02 -.779087712061105D+01 -.574169019154656D+02 -.118049039906494D+02
0.332223368928D-03 0.000000000000D+00 0.000000000000D+00 0.253077879278D-02 0.000000000000D+00  5 2 -1 25 24 21 0 0.12778259D+00 0.34642134D-02 0.18657678D+05 0.18657678D+05 0.18657678D+05 0.12371617D+01  1  2  2  1  5  1        2 0.373587767679D+00 0.100000000000D+01
-.184568213196D-04 0.000000000000D+00 -.127582521311D-05 0.253077879278D-02 0.000000000000D+00  5 2 -1 25 24 21 2 0.12778259D+00 0.34642134D-02 0.18657678D+05 0.18657678D+05 0.18657678D+05 0.12371617D+01  1  2  3  1  5  1        2 -.317667129908D-01 0.100000000000D+01
0.229612114030D-04 0.000000000000D+00 0.000000000000D+00 0.253077879278D-02 0.000000000000D+00  5 2 -1 25 24 21 2 0.12778259D+00 0.34642134D-02 0.18657678D+05 0.18657678D+05 0.18657678D+05 0.12371617D+01  1  2 15  1  5  1        2 0.395193841850D-01 0.100000000000D+01
-.113020908547D-03 0.000000000000D+00 0.000000000000D+00 0.253077879278D-02 0.000000000000D+00  5 2 -1 25 24 21 2 0.12778259D+00 0.34642134D-02 0.18657678D+05 0.18657678D+05 0.18657678D+05 0.12371617D+01  1  2  4  1  5  1        2 -.194524436337D+00 0.100000000000D+01
  </mgrwgt>
  </event>
  <event>
  4     66 -.48098993E-03 0.86278355E+02 0.75467711E-02 0.12602364E+00
        2 -1    0    0  501    0 0.00000000E+00 0.00000000E+00 0.24885386E+04 0.24885386E+04 0.32000000E+00 0.0000E+00 0.9000E+01
       -1 -1    0    0    0  501 0.00000000E+00 0.00000000E+00 -.48406874E+01 0.48512529E+01 0.32000000E+00 0.0000E+00 0.9000E+01
       25  1    1    2    0    0 0.30546618E+02 0.19464313E+02 0.16100112E+04 0.16152625E+04 0.12500000E+03 0.0000E+00 0.9000E+01
       24  1    1    2    0    0 -.30546618E+02 -.19464313E+02 0.87368673E+03 0.87812737E+03 0.80419002E+02 0.0000E+00 0.9000E+01
#aMCatNLO 1  0  0  2  1 0.20090065D+01 0.00000000D+00  -5  5  0 0.00000000D+00 0.00000000D+00 0.00000000D+00 0.00000000D+00 0.00000000D+00
  <mgrwgt>
 -.9921107962D+00   11    2    0
 0.109815459271457D+03 0.000000000000000D+00 0.000000000000000D+00 0.109815459271457D+03
 0.109815459271457D+03 0.000000000000000D+00 0.000000000000000D+00 -.109815459271457D+03
 0.130663580534129D+03 0.305466180029706D+02 0.194643134172951D+02 0.116625858956251D+02
 0.889673380087854D+02 -.305466180029706D+02 -.194643134172951D+02 -.116625858956251D+02
 0.000000000000000D+00 -.000000000000000D+00 0.000000000000000D+00 -.000000000000000D+00
 0.110163948764926D+03 0.000000000000000D+00 0.000000000000000D+00 0.110163948764926D+03
 0.112754163046529D+03 0.000000000000000D+00 0.000000000000000D+00 -.112754163046529D+03
 0.130545927478778D+03 0.307682347684016D+02 0.182904073425958D+02 0.116625858956251D+02
 0.890941792577896D+02 -.303955460997901D+02 -.202645426983023D+02 -.116625858956251D+02
 0.327800507488653D+01 -.372688668611532D+00 0.197413535570656D+01 -.259021428160291D+01
0.305384944088D-03 0.000000000000D+00 0.000000000000D+00 0.298817573850D-02 0.000000000000D+00  5 2 -1 25 24 21 0 0.38285291D+00 0.74553545D-03 0.11918271D+05 0.11918271D+05 0.11918271D+05 0.12593721D+01  1  2  2  2  5  2       -1 0.398235938713D+00 0.100000000000D+01
-.169651152384D-04 0.000000000000D+00 -.117275859500D-05 0.298817573850D-02 0.000000000000D+00  5 2 -1 25 24 21 2 0.38285291D+00 0.74553545D-03 0.11918271D+05 0.11918271D+05 0.11918271D+05 0.12593721D+01  1  2  3  2  5  2       -1 -.350879323951D-01 0.100000000000D+01
0.211396728188D-04 0.000000000000D+00 0.000000000000D+00 0.298817573850D-02 0.000000000000D+00  5 2 -1 25 24 21 2 0.38285291D+00 0.74553545D-03 0.11918271D+05 0.11918271D+05 0.11918271D+05 0.12593721D+01  1  2 15  2  5  2       -1 0.437219199691D-01 0.100000000000D+01
0.111704233086D-05 0.000000000000D+00 0.000000000000D+00 0.298817573850D-02 0.000000000000D+00  5 2 -1 25 24 21 2 0.38285291D+00 0.76665096D-03 0.12139687D+05 0.12139687D+05 0.12139687D+05 0.12584355D+01  1  2 12  2  5  2       -1 0.221827074705D-02 0.100000000000D+01
-.618722492370D-02 0.000000000000D+00 0.000000000000D+00 0.298817573850D-02 0.000000000000D+00  5 2 -1 25 24 21 2 0.38285291D+00 0.74553545D-03 0.11918271D+05 0.11918271D+05 0.11918271D+05 0.12593721D+01  1  2  4  2  5  2       -1 -.127966669713D+02 0.100000000000D+01
-.135350117813D-01 0.000000000000D+00 -.123456012327D-02 0.298817573850D-02 0.000000000000D+00  5 2 -1 25 24 21 2 0.38285291D+00 0.76838172D-03 0.11918271D+05 0.11918271D+05 0.11918271D+05 0.12593721D+01  1  2  5  2  5  2       -1 -.268252157391D+02 0.100000000000D+01
0.135666572961D-01 0.000000000000D+00 0.123399795067D-02 0.298817573850D-02 0.000000000000D+00  5 2 -1 25 24 21 2 0.38285291D+00 0.74553545D-03 0.11918271D+05 0.11918271D+05 0.11918271D+05 0.12593721D+01  1  2  6  2  5  2       -1 0.280591052487D+02 0.100000000000D+01
0.618830240525D-02 0.000000000000D+00 0.000000000000D+00 0.298817573850D-02 0.625546487961D-02  5 2 -1 25 24 21 2 0.38406786D+00 0.76548627D-03 0.12139687D+05 0.12139687D+05 0.12139687D+05 0.12584355D+01  1  2 11  2  5  2       -1 0.121975654417D+02 0.100000000000D+01
0.387851333918D-07 0.000000000000D+00 0.000000000000D+00 0.298817573850D-02 0.000000000000D+00  5 2 21 25 24 1 2 0.38285291D+00 0.76665096D-03 0.12139687D+05 0.12139687D+05 0.12139687D+05 0.12584355D+01  1  2 12  4  5  2       -1 0.187396516459D-02 0.100000000000D+01
-.728425393810D-04 0.000000000000D+00 -.668117545671D-05 0.298817573850D-02 0.000000000000D+00  5 2 21 25 24 1 2 0.38285291D+00 0.76838172D-03 0.11918271D+05 0.11918271D+05 0.11918271D+05 0.12593721D+01  1  2  5  4  5  2       -1 -.351233577264D+01 0.100000000000D+01
0.307389428762D-04 0.000000000000D+00 0.000000000000D+00 0.298817573850D-02 0.298330132026D-04  5 2 21 25 24 1 2 0.38406786D+00 0.76548627D-03 0.12139687D+05 0.12139687D+05 0.12139687D+05 0.12584355D+01  1  2 11  4  5  2       -1 0.147447483429D+01 0.100000000000D+01
  </mgrwgt>
  </event>
  <event>
  4     66 0.48098993E-03 0.50468307E+02 0.75467711E-02 0.12172072E+00
        2 -1    0    0  501    0 0.00000000E+00 0.00000000E+00 0.16119091E+04 0.16119091E+04 0.32000000E+00 0.0000E+00 0.9000E+01
       -1 -1    0    0    0  501 0.00000000E+00 0.00000000E+00 -.87851957E+01 0.87910218E+01 0.32000000E+00 0.0000E+00 0.9000E+01
       25  1    1    2    0    0 -.46462538E+02 -.34069640E+01 0.68381639E+03 0.69670670E+03 0.12500000E+03 0.0000E+00 0.9000E+01
       24  1    1    2    0    0 0.46462538E+02 0.34069640E+01 0.91930751E+03 0.92399345E+03 0.80419002E+02 0.0000E+00 0.9000E+01
#aMCatNLO 1  0  0  1  2 0.43708513D+02 0.00000000D+00  -5  5  0 0.00000000D+00 0.00000000D+00 0.00000000D+00 0.00000000D+00 0.00000000D+00
  <mgrwgt>
 0.4662743558D+00    9    2    0
 0.119019678123685D+03 0.000000000000000D+00 0.000000000000000D+00 0.119019678123685D+03
 0.119019678123685D+03 0.000000000000000D+00 0.000000000000000D+00 -.119019678123685D+03
 0.138255539348483D+03 -.464625376908242D+02 -.340696395312381D+01 -.363210592974758D+02
 0.997838168988862D+02 0.464625376908242D+02 0.340696395312381D+01 0.363210592974758D+02
 0.000000000000000D+00 -.000000000000000D+00 -.000000000000000D+00 0.000000000000000D+00
 0.157676958674569D+03 0.000000000000000D+00 0.000000000000000D+00 0.157676958674569D+03
 0.134034868103026D+03 0.000000000000000D+00 0.000000000000000D+00 -.134034868103026D+03
 0.138055622069316D+03 -.408554696821243D+02 0.211179078866303D+02 -.363210592974758D+02
 0.103963321964864D+03 0.505970940305866D+02 0.214911862578264D+02 0.363210592974758D+02
 0.496928827434149D+02 -.974162434846236D+01 -.426090941444566D+02 0.236420905715433D+02
0.193461643806D-03 0.000000000000D+00 0.000000000000D+00 0.257714687488D-02 0.000000000000D+00  5 2 -1 25 24 21 0 0.24798647D+00 0.13520192D-02 0.12807216D+05 0.12807216D+05 0.12807216D+05 0.12557239D+01  1  2  2  1  5  1        2 0.305359915802D+00 0.100000000000D+01
-.107146657267D-04 0.000000000000D+00 -.742943651836D-06 0.257714687488D-02 0.000000000000D+00  5 2 -1 25 24 21 2 0.24798647D+00 0.13520192D-02 0.12807216D+05 0.12807216D+05 0.12807216D+05 0.12557239D+01  1  2  3  1  5  1        2 -.266676114650D-01 0.100000000000D+01
0.134058375277D-04 0.000000000000D+00 0.000000000000D+00 0.257714687488D-02 0.000000000000D+00  5 2 -1 25 24 21 2 0.24798647D+00 0.13520192D-02 0.12807216D+05 0.12807216D+05 0.12807216D+05 0.12557239D+01  1  2 15  1  5  1        2 0.333656388050D-01 0.100000000000D+01
0.128152822242D-03 0.000000000000D+00 0.000000000000D+00 0.257714687488D-02 0.000000000000D+00  5 2 -1 25 24 21 2 0.34020451D+00 0.13520192D-02 0.18811891D+05 0.18811891D+05 0.18811891D+05 0.12367650D+01  1  2 12  1  5  1        2 0.153997823676D+00 0.100000000000D+01
-.150720375985D-03 0.000000000000D+00 0.000000000000D+00 0.257714687488D-02 0.000000000000D+00  5 2 -1 25 24 21 2 0.24798647D+00 0.13520192D-02 0.12807216D+05 0.12807216D+05 0.12807216D+05 0.12557239D+01  1  2  4  1  5  1        2 -.375126254909D+00 0.100000000000D+01
-.256348745411D-03 0.000000000000D+00 -.839842339311D-04 0.257714687488D-02 0.000000000000D+00  5 2 -1 25 24 21 2 0.34528385D+00 0.13520192D-02 0.12807216D+05 0.12807216D+05 0.12807216D+05 0.12557239D+01  1  2  5  1  5  1        2 -.304091847601D+00 0.100000000000D+01
0.273431085783D-03 0.000000000000D+00 0.795847862903D-04 0.257714687488D-02 0.000000000000D+00  5 2 -1 25 24 21 2 0.24798647D+00 0.13520192D-02 0.12807216D+05 0.12807216D+05 0.12807216D+05 0.12557239D+01  1  2  6  1  5  1        2 0.680539565504D+00 0.100000000000D+01
0.514504804565D-05 0.000000000000D+00 0.000000000000D+00 0.257714687488D-02 0.000000000000D+00  5 21 -1 25 24 -2 2 0.34020451D+00 0.13520192D-02 0.18811891D+05 0.18811891D+05 0.18811891D+05 0.12367650D+01  1  2 12  3  5  1        2 0.174906141737D-02 0.100000000000D+01
-.844987351132D-05 0.000000000000D+00 -.348490135667D-05 0.257714687488D-02 0.000000000000D+00  5 21 -1 25 24 -2 2 0.34528385D+00 0.13520192D-02 0.12807216D+05 0.12807216D+05 0.12807216D+05 0.12557239D+01  1  2  5  3  5  1        2 -.285193544497D-02 0.100000000000D+01
  </mgrwgt>
  </event>
  <event>
  5     66 0.48098993E-03 0.10693070E+03 0.75467711E-02 0.12543169E+00
        2 -1    0    0  502    0 0.00000000E+00 0.00000000E+00 0.62402572E+03 0.62402581E+03 0.32000000E+00 0.0000E+00 0.9000E+01
       -1 -1    0    0    0  501 0.00000000E+00 0.00000000E+00 -.21862110E+02 0.21864452E+02 0.32000000E+00 0.0000E+00 0.9000E+01
       25  1    1    2    0    0 0.42674199E+01 0.21495086E+02 0.26911849E+03 0.29753993E+03 0.12500000E+03 0.0000E+00 0.9000E+01
       24  1    1    2    0    0 -.10473552E+02 -.32487826E+02 0.30986401E+03 0.32194421E+03 0.80419002E+02 0.0000E+00 0.9000E+01
       21  1    1    2  502  501 0.62061318E+01 0.10992740E+02 0.23181112E+02 0.26406114E+02 0.75000000E+00 0.0000E+00 0.9000E+01
#aMCatNLO 2  0  0  1  1 0.12623644D+02 0.00000000D+00  -5  5  0 0.00000000D+00 0.00000000D+00 0.00000000D+00 0.00000000D+00 0.00000000D+00
  <mgrwgt>
 0.3931175648D+00    1    2    0
 0.109977851739598D+03 0.000000000000000D+00 0.000000000000000D+00 0.109977851739598D+03
 0.109977851739598D+03 0.000000000000000D+00 0.000000000000000D+00 -.109977851739598D+03
 0.130795188823325D+03 0.793497931654066D+01 0.279913267104685D+02 -.252171202075731D+02
 0.891605146558713D+02 -.793497931654066D+01 -.279913267104685D+02 0.252171202075731D+02
 0.000000000000000D+00 0.000000000000000D+00 0.000000000000000D+00 -.000000000000000D+00
 0.114706281599281D+03 0.000000000000000D+00 0.000000000000000D+00 0.114706281599281D+03
 0.118919571235119D+03 0.000000000000000D+00 0.000000000000000D+00 -.118919571235119D+03
 0.129387606616381D+03 0.426741985257409D+01 0.214950860001520D+02 -.252171202075731D+02
 0.909300456193133D+02 -.104735516214160D+02 -.324878255171103D+02 0.252171202075731D+02
 0.133082005987056D+02 0.620613176884196D+01 0.109927395169584D+02 -.421328963583816D+01
0.152902009045D-03 0.000000000000D+00 0.000000000000D+00 0.287938059295D-02 0.152456673197D-03  5 2 -1 25 24 21 2 0.95995417D-01 0.33632823D-02 0.12870170D+05 0.12870170D+05 0.12870170D+05 0.12554764D+01  1  2  1  1  5  1        2 0.393117564810D+00 0.100000000000D+01
  </mgrwgt>
  </event>
  <event>
  5     66 0.48098993E-03 0.12185310E+03 0.75467711E-02 0.12288766E+00
        2 -1    0    0  501    0 0.00000000E+00 0.00000000E+00 0.32709118E+04 0.32709118E+04 0.32000000E+00 0.0000E+00 0.9000E+01
       -1 -1    0    0    0  502 0.00000000E+00 0.00000000E+00 -.61391187E+01 0.61474530E+01 0.32000000E+00 0.0000E+00 0.9000E+01
       25  1    1    2    0    0 0.13682300E+02 -.58430308E+02 0.23134756E+04 0.23176271E+04 0.12500000E+03 0.0000E+00 0.9000E+01
       24  1    1    2    0    0 -.38912453E+01 0.68264767E+02 0.71759744E+03 0.72531960E+03 0.80419002E+02 0.0000E+00 0.9000E+01
       21  1    1    2  501  502 -.97910548E+01 -.98344598E+01 0.23369967E+03 0.23411253E+03 0.75000000E+00 0.0000E+00 0.9000E+01
#aMCatNLO 2  0  0  2  1 0.13877368D+02 0.00000000D+00  -5  5  0 0.00000000D+00 0.00000000D+00 0.00000000D+00 0.00000000D+00 0.00000000D+00
  <mgrwgt>
 0.1817421309D+00    1    2    0
 0.134097571945511D+03 0.000000000000000D+00 0.000000000000000D+00 0.134097571945511D+03
 0.134097571945511D+03 0.000000000000000D+00 0.000000000000000D+00 -.134097571945511D+03
 0.151170558265783D+03 0.820079101175968D+01 -.639361168846348D+02 0.554297543823194D+02
 0.117024585625240D+03 -.820079101175968D+01 0.639361168846348D+02 -.554297543823194D+02
 0.000000000000000D+00 -.000000000000000D+00 -.000000000000000D+00 0.000000000000000D+00
 0.144609150986535D+03 0.000000000000000D+00 0.000000000000000D+00 0.144609150986535D+03
 0.138936713078034D+03 0.000000000000000D+00 0.000000000000000D+00 -.138936713078034D+03
 0.149327706222658D+03 0.136823001349737D+02 -.584303075283090D+02 0.554297543823194D+02
 0.119226229814199D+03 -.389124532302625D+01 0.682647673422353D+02 -.554297543823194D+02
 0.149919280277114D+02 -.979105481194746D+01 -.983445981392633D+01 0.567243790850008D+01
0.349050528697D-03 0.000000000000D+00 0.000000000000D+00 0.217630087076D-02 0.933690796856D-04  5 2 -1 25 24 21 2 0.50318432D+00 0.94505914D-03 0.16653136D+05 0.16653136D+05 0.16653136D+05 0.12426793D+01  1  2  1  2  5  2       -1 0.181742130937D+00 0.100000000000D+01
  </mgrwgt>
  </event>
  <event>
  4     66 0.48098993E-03 0.13050267E+03 0.75467711E-02 0.11467834E+00
        2 -1    0    0  501    0 0.00000000E+00 0.00000000E+00 0.25691627E+03 0.25691647E+03 0.32000000E+00 0.0000E+00 0.9000E+01
       -1 -1    0    0    0  501 0.00000000E+00 0.00000000E+00 -.13216680E+03 0.13216719E+03 0.32000000E+00 0.0000E+00 0.9000E+01
       25  1    1    2    0    0 0.14210598E+03 0.37698459E+02 0.10676610E+03 0.22054316E+03 0.12500000E+03 0.0000E+00 0.9000E+01
       24  1    1    2    0    0 -.14210598E+03 -.37698459E+02 0.17983371E+02 0.16854051E+03 0.80419002E+02 0.0000E+00 0.9000E+01
#aMCatNLO 1  0  0  2  1 0.43839820D+02 0.00000000D+00  -5  5  0 0.00000000D+00 0.00000000D+00 0.00000000D+00 0.00000000D+00 0.00000000D+00
  <mgrwgt>
 0.4784646029D+00    9    2    0
 0.184271312163257D+03 0.000000000000000D+00 0.000000000000000D+00 0.184271312163257D+03
 0.184271312163257D+03 0.000000000000000D+00 0.000000000000000D+00 -.184271312163257D+03
 0.196695633586545D+03 0.142105983276957D+03 0.376984592359792D+02 0.380642609298374D+02
 0.171846990739968D+03 -.142105983276957D+03 -.376984592359792D+02 -.380642609298374D+02
 0.000000000000000D+00 0.000000000000000D+00 -.000000000000000D+00 -.000000000000000D+00
 0.204753377949011D+03 0.000000000000000D+00 0.000000000000000D+00 0.204753377949011D+03
 0.210617892548440D+03 0.000000000000000D+00 0.000000000000000D+00 -.210617892548440D+03
 0.182453399780831D+03 0.120109854922017D+03 0.422963105017548D+02 0.380642609298374D+02
 0.188687538059435D+03 -.163022201106728D+03 -.333263416945640D+02 -.380642609298374D+02
 0.442303326571859D+02 0.429123461847104D+02 -.896996880719081D+01 -.586451459942885D+01
0.111545469100D-02 0.000000000000D+00 0.000000000000D+00 0.212766911893D-02 0.000000000000D+00  5 2 -1 25 24 21 0 0.39525625D-01 0.20333399D-01 0.32500114D+05 0.32500114D+05 0.32500114D+05 0.12112667D+01  1  2  2  2  5  2       -1 0.317019796398D+00 0.100000000000D+01
-.619335360953D-04 0.000000000000D+00 -.428363971941D-05 0.212766911893D-02 0.000000000000D+00  5 2 -1 25 24 21 2 0.39525625D-01 0.20333399D-01 0.32500114D+05 0.32500114D+05 0.32500114D+05 0.12112667D+01  1  2  3  2  5  2       -1 -.258249721172D-01 0.100000000000D+01
0.769419649290D-04 0.000000000000D+00 0.000000000000D+00 0.212766911893D-02 0.000000000000D+00  5 2 -1 25 24 21 2 0.39525625D-01 0.20333399D-01 0.32500114D+05 0.32500114D+05 0.32500114D+05 0.12112667D+01  1  2 15  2  5  2       -1 0.320831688971D-01 0.100000000000D+01
0.842393758504D-03 0.000000000000D+00 0.000000000000D+00 0.212766911893D-02 0.000000000000D+00  5 2 -1 25 24 21 2 0.39525625D-01 0.24230074D-01 0.41429907D+05 0.41429907D+05 0.41429907D+05 0.12004543D+01  1  2 12  2  5  2       -1 0.259986977767D+00 0.100000000000D+01
-.752138093720D-03 0.000000000000D+00 0.000000000000D+00 0.212766911893D-02 0.000000000000D+00  5 2 -1 25 24 21 2 0.39525625D-01 0.20333399D-01 0.32500114D+05 0.32500114D+05 0.32500114D+05 0.12112667D+01  1  2  4  2  5  2       -1 -.313625646512D+00 0.100000000000D+01
-.211827489935D-02 0.000000000000D+00 -.647337274891D-03 0.212766911893D-02 0.000000000000D+00  5 2 -1 25 24 21 2 0.39525625D-01 0.25691167D-01 0.32500114D+05 0.32500114D+05 0.32500114D+05 0.12112667D+01  1  2  5  2  5  2       -1 -.602066392577D+00 0.100000000000D+01
0.222583037462D-02 0.000000000000D+00 0.630027035566D-03 0.212766911893D-02 0.000000000000D+00  5 2 -1 25 24 21 2 0.39525625D-01 0.20333399D-01 0.32500114D+05 0.32500114D+05 0.32500114D+05 0.12112667D+01  1  2  6  2  5  2       -1 0.928124098612D+00 0.100000000000D+01
0.217637407571D-04 0.000000000000D+00 0.000000000000D+00 0.212766911893D-02 0.000000000000D+00  5 2 21 25 24 1 2 0.39525625D-01 0.24230074D-01 0.41429907D+05 0.41429907D+05 0.41429907D+05 0.12004543D+01  1  2 12  4  5  2       -1 0.806565376891D-01 0.100000000000D+01
-.585147962784D-04 0.000000000000D+00 -.208515835889D-04 0.212766911893D-02 0.000000000000D+00  5 2 21 25 24 1 2 0.39525625D-01 0.25691167D-01 0.32500114D+05 0.32500114D+05 0.32500114D+05 0.12112667D+01  1  2  5  4  5  2       -1 -.197888965282D+00 0.100000000000D+01
  </mgrwgt>
  </event>
  <event>
  4     66 0.48098993E-03 0.10551016E+03 0.75467711E-02 0.11052505E+00
        2 -1    0    0  501    0 0.00000000E+00 0.00000000E+00 0.10182632E+03 0.10182682E+03 0.32000000E+00 0.0000E+00 0.9000E+01
       -1 -1    0    0    0  501 0.00000000E+00 0.00000000E+00 -.39886614E+03 0.39886627E+03 0.32000000E+00 0.0000E+00 0.9000E+01
       25  1    1    2    0    0 0.54767934E+02 0.15694616E+03 -.10042153E+03 0.23095694E+03 0.12500000E+03 0.0000E+00 0.9000E+01
       24  1    1    2    0    0 -.54767934E+02 -.15694616E+03 -.19661830E+03 0.26973616E+03 0.80419002E+02 0.0000E+00 0.9000E+01
#aMCatNLO 1  0  0  1  2 0.11678450D+03 0.00000000D+00  -5  5  0 0.00000000D+00 0.00000000D+00 0.00000000D+00 0.00000000D+00 0.00000000D+00
  <mgrwgt>
 0.1696388867D+00    7    2    0
 0.201532204617540D+03 0.000000000000000D+00 0.000000000000000D+00 0.201532204617540D+03
 0.201532204617540D+03 0.000000000000000D+00 0.000000000000000D+00 -.201532204617540D+03
 0.212892403925398D+03 0.547679343558172D+02 0.156946160159100D+03 0.454593425694408D+02
 0.190172005309681D+03 -.547679343558172D+02 -.156946160159100D+03 -.454593425694408D+02
 0.000000000000000D+00 -.000000000000000D+00 0.000000000000000D+00 0.000000000000000D+00
 0.439338641113636D+03 0.000000000000000D+00 0.000000000000000D+00 0.439338641113636D+03
 0.224676822199881D+03 0.000000000000000D+00 0.000000000000000D+00 -.224676822199881D+03
 0.188616289025625D+03 0.810509770766597D+02 0.106373360264078D+03 0.454593425694408D+02
 0.231025863757341D+03 -.271960242553134D+02 -.209998948112398D+03 -.454593425694408D+02
 0.244373310530551D+03 -.538549528213463D+02 0.103625587848320D+03 0.214661818913755D+03
0.262915216200D-02 0.000000000000D+00 0.000000000000D+00 0.205474584283D-02 0.000000000000D+00  5 2 -1 25 24 21 0 0.15665636D-01 0.61364070D-01 0.38541735D+05 0.38541735D+05 0.38541735D+05 0.12036416D+01  1  2  2  1  5  1        2 0.306396377724D+00 0.100000000000D+01
-.145942095705D-03 0.000000000000D+00 -.100966365737D-04 0.205474584283D-02 0.000000000000D+00  5 2 -1 25 24 21 2 0.15665636D-01 0.61364070D-01 0.38541735D+05 0.38541735D+05 0.38541735D+05 0.12036416D+01  1  2  3  1  5  1        2 -.246401216516D-01 0.100000000000D+01
0.181204897925D-03 0.000000000000D+00 0.000000000000D+00 0.205474584283D-02 0.000000000000D+00  5 2 -1 25 24 21 2 0.15665636D-01 0.61364070D-01 0.38541735D+05 0.38541735D+05 0.38541735D+05 0.12036416D+01  1  2 15  1  5  1        2 0.305937139464D-01 0.100000000000D+01
0.164076395358D-02 0.000000000000D+00 0.000000000000D+00 0.205474584283D-02 0.000000000000D+00  5 2 -1 25 24 21 2 0.34015637D-01 0.61364070D-01 0.69261027D+05 0.69261027D+05 0.69261027D+05 0.11785155D+01  1  2 12  1  5  1        2 0.110660910876D+00 0.100000000000D+01
-.350417909565D-02 0.000000000000D+00 -.963230748387D-03 0.205474584283D-02 0.000000000000D+00  5 2 -1 25 24 21 2 0.37336982D-01 0.61364070D-01 0.38541735D+05 0.38541735D+05 0.38541735D+05 0.12036416D+01  1  2  5  1  5  1        2 -.223359769687D+00 0.100000000000D+01
0.137772639478D-03 0.000000000000D+00 0.000000000000D+00 0.205474584283D-02 0.000000000000D+00  5 21 -1 25 24 -2 2 0.34015637D-01 0.61364070D-01 0.69261027D+05 0.69261027D+05 0.69261027D+05 0.11785155D+01  1  2 12  3  5  1        2 0.403615852754D-01 0.100000000000D+01
-.272028160278D-03 0.000000000000D+00 -.914426767059D-04 0.205474584283D-02 0.000000000000D+00  5 21 -1 25 24 -2 2 0.37336982D-01 0.61364070D-01 0.38541735D+05 0.38541735D+05 0.38541735D+05 0.12036416D+01  1  2  5  3  5  1        2 -.703738098097D-01 0.100000000000D+01
  </mgrwgt>
  </event>
  <event>
  4     66 0.48098993E-03 0.71238132E+02 0.75467711E-02 0.11463812E+00
        2 -1    0    0  501    0 0.00000000E+00 0.00000000E+00 0.16300933E+03 0.16300965E+03 0.32000000E+00 0.0000E+00 0.9000E+01
       -1 -1    0    0    0  501 0.00000000E+00 0.00000000E+00 -.13351899E+03 0.13351937E+03 0.32000000E+00 0.0000E+00 0.9000E+01
       25  1    1    2    0    0 0.93978174E+02 -.17741077E+02 -.26495510E+02 0.15960468E+03 0.12500000E+03 0.0000E+00 0.9000E+01
       24  1    1    2    0    0 -.93978174E+02 0.17741077E+02 0.55985852E+02 0.13692434E+03 0.80419002E+02 0.0000E+00 0.9000E+01
#aMCatNLO 1  0  0  2  1 0.10704067D+03 0.00000000D+00  -5  5  0 0.00000000D+00 0.00000000D+00 0.00000000D+00 0.00000000D+00 0.00000000D+00
  <mgrwgt>
 0.2334000397D+00    7    2    0
 0.147529472353918D+03 0.000000000000000D+00 0.000000000000000D+00 0.147529472353918D+03
 0.147529472353918D+03 0.000000000000000D+00 0.000000000000000D+00 -.147529472353918D+03
 0.163048039423114D+03 0.939781739257889D+02 -.177410771055760D+02 -.425795745449556D+02
 0.132010905284722D+03 -.939781739257889D+02 0.177410771055760D+02 0.425795745449556D+02
 0.000000000000000D+00 -.000000000000000D+00 -.000000000000000D+00 -.000000000000000D+00
 0.183977020281821D+03 0.000000000000000D+00 0.000000000000000D+00 0.183977020281821D+03
 0.262872178248710D+03 0.000000000000000D+00 0.000000000000000D+00 -.262872178248710D+03
 0.200121446834902D+03 0.149781845619202D+03 0.132654452533940D+02 -.425795745449556D+02
 0.113753504772170D+03 -.562146586204405D+02 0.387238412523805D+02 0.425795745449556D+02
 0.132974246923459D+03 -.935671869987611D+02 -.519892865057745D+02 -.788951579668885D+02
0.597677329044D-03 0.000000000000D+00 0.000000000000D+00 0.224546893129D-02 0.000000000000D+00  5 2 -1 25 24 21 0 0.25078413D-01 0.20541437D-01 0.19929749D+05 0.19929749D+05 0.19929749D+05 0.12339943D+01  1  2  2  2  5  2       -1 0.270799785200D+00 0.100000000000D+01
-.331259818461D-04 0.000000000000D+00 -.229523831558D-05 0.224546893129D-02 0.000000000000D+00  5 2 -1 25 24 21 2 0.25078413D-01 0.20541437D-01 0.19929749D+05 0.19929749D+05 0.19929749D+05 0.12339943D+01  1  2  3  2  5  2       -1 -.228547572524D-01 0.100000000000D+01
0.413361139432D-04 0.000000000000D+00 0.000000000000D+00 0.224546893129D-02 0.000000000000D+00  5 2 -1 25 24 21 2 0.25078413D-01 0.20541437D-01 0.19929749D+05 0.19929749D+05 0.19929749D+05 0.12339943D+01  1  2 15  2  5  2       -1 0.285192105194D-01 0.100000000000D+01
0.355433124217D-04 0.000000000000D+00 0.000000000000D+00 0.224546893129D-02 0.000000000000D+00  5 2 -1 25 24 21 2 0.25078413D-01 0.37485864D-01 0.41628994D+05 0.41628994D+05 0.41628994D+05 0.12002438D+01  1  2 12  2  5  2       -1 0.859297785371D-02 0.100000000000D+01
-.224916497177D-03 0.000000000000D+00 -.171710128509D-03 0.224546893129D-02 0.000000000000D+00  5 2 -1 25 24 21 2 0.25078413D-01 0.44586192D-01 0.19929749D+05 0.19929749D+05 0.19929749D+05 0.12339943D+01  1  2  5  2  5  2       -1 -.419267439606D-01 0.100000000000D+01
0.233809494949D-05 0.000000000000D+00 0.000000000000D+00 0.224546893129D-02 0.000000000000D+00  5 2 21 25 24 1 2 0.25078413D-01 0.37485864D-01 0.41628994D+05 0.41628994D+05 0.41628994D+05 0.12002438D+01  1  2 12  4  5  2       -1 0.607415222987D-02 0.100000000000D+01
-.809961615191D-05 0.000000000000D+00 -.144110524704D-04 0.224546893129D-02 0.000000000000D+00  5 2 21 25 24 1 2 0.25078413D-01 0.44586192D-01 0.19929749D+05 0.19929749D+05 0.19929749D+05 0.12339943D+01  1  2  5  4  5  2       -1 -.158045849383D-01 0.100000000000D+01
  </mgrwgt>
  </event>
  <event>
  4     66 0.48098993E-03 0.16971686E+03 0.75467711E-02 0.10369580E+00
        2 -1    0    0  501    0 0.00000000E+00 0.00000000E+00 0.18025195E+04 0.18025195E+04 0.32000000E+00 0.0000E+00 0.9000E+01
       -1 -1    0    0    0  501 0.00000000E+00 0.00000000E+00 -.16472840E+02 0.16475948E+02 0.32000000E+00 0.0000E+00 0.9000E+01
       25  1    1    2    0    0 0.10299723E+03 -.85622726E+02 0.80475730E+03 0.82534780E+03 0.12500000E+03 0.0000E+00 0.9000E+01
       24  1    1    2    0    0 -.10299723E+03 0.85622726E+02 0.98128933E+03 0.99364764E+03 0.80419002E+02 0.0000E+00 0.9000E+01
#aMCatNLO 1  0  0  2  1 0.35239771D+03 0.00000000D+00  -5  5  0 0.00000000D+00 0.00000000D+00 0.00000000D+00 0.00000000D+00 0.00000000D+00
  <mgrwgt>
 0.4560277321D+00    3    2    0
 0.172323730477059D+03 0.000000000000000D+00 0.000000000000000D+00 0.172323730477059D+03
 0.172323730477059D+03 0.000000000000000D+00 0.000000000000000D+00 -.172323730477059D+03
 0.185609457318448D+03 0.102997228273862D+03 -.856227259962867D+02 -.297689503831689D+02
 0.159038003635670D+03 -.102997228273862D+03 0.856227259962867D+02 0.297689503831689D+02
 0.000000000000000D+00 0.000000000000000D+00 -.000000000000000D+00 0.000000000000000D+00
 0.459345921078516D+03 0.000000000000000D+00 0.000000000000000D+00 0.459345921078516D+03
 0.392290641324711D+03 0.000000000000000D+00 0.000000000000000D+00 -.392290641324711D+03
 0.131236601370146D+03 0.194521404431544D+02 0.182611435690849D+02 -.297689503831689D+02
 0.361679234612793D+03 -.240298501909674D+03 0.256349551138237D+03 0.297689503831689D+02
 0.358720726420289D+03 0.220846361466520D+03 -.274610694707322D+03 0.670552797538056D+02
0.865594134252D-03 0.000000000000D+00 0.000000000000D+00 0.220562605399D-02 0.000000000000D+00  5 2 -1 25 24 21 0 0.27731093D+00 0.25345244D-02 0.28803814D+05 0.28803814D+05 0.28803814D+05 0.12167574D+01  1  2  2  2  5  2       -1 0.447187805876D+00 0.100000000000D+01
-.480749772925D-04 0.000000000000D+00 -.332410939170D-05 0.220562605399D-02 0.000000000000D+00  5 2 -1 25 24 21 2 0.27731093D+00 0.25345244D-02 0.28803814D+05 0.28803814D+05 0.28803814D+05 0.12167574D+01  1  2  3  2  5  2       -1 -.367707731381D-01 0.100000000000D+01
0.596325055666D-04 0.000000000000D+00 0.000000000000D+00 0.220562605399D-02 0.000000000000D+00  5 2 -1 25 24 21 2 0.27731093D+00 0.25345244D-02 0.28803814D+05 0.28803814D+05 0.28803814D+05 0.12167574D+01  1  2 15  2  5  2       -1 0.456106993146D-01 0.100000000000D+01
  </mgrwgt>
  </event>
  <event>
  4     66 0.48098993E-03 0.11599333E+03 0.75467711E-02 0.12079533E+00
        2 -1    0    0  501    0 0.00000000E+00 0.00000000E+00 0.36479855E+02 0.36481259E+02 0.32000000E+00 0.0000E+00 0.9000E+01
       -1 -1    0    0    0  501 0.00000000E+00 0.00000000E+00 -.39023598E+03 0.39023611E+03 0.32000000E+00 0.0000E+00 0.9000E+01
       25  1    1    2    0    0 -.31260279E+02 -.42669863E+02 -.25462847E+03 0.28854563E+03 0.12500000E+03 0.0000E+00 0.9000E+01
       24  1    1    2    0    0 0.31260279E+02 0.42669863E+02 -.99127653E+02 0.13817174E+03 0.80419002E+02 0.0000E+00 0.9000E+01
#aMCatNLO 1  0  0  1  1 0.50669590D+02 0.00000000D+00  -5  5  0 0.00000000D+00 0.00000000D+00 0.00000000D+00 0.00000000D+00 0.00000000D+00
  <mgrwgt>
 0.3385283966D+00    3    2    0
 0.119315043992130D+03 0.000000000000000D+00 0.000000000000000D+00 0.119315043992130D+03
 0.119315043992130D+03 0.000000000000000D+00 0.000000000000000D+00 -.119315043992130D+03
 0.138503286604339D+03 -.312602789468602D+02 -.426698632699548D+02 -.275724160873042D+02
 0.100126801379921D+03 0.312602789468602D+02 0.426698632699548D+02 0.275724160873042D+02
 0.000000000000000D+00 -.000000000000000D+00 0.000000000000000D+00 -.000000000000000D+00
 0.125328706102463D+03 0.000000000000000D+00 0.000000000000000D+00 0.125328706102463D+03
 0.313368191513158D+03 0.000000000000000D+00 0.000000000000000D+00 -.313368191513158D+03
 0.140674191009180D+03 -.627867995037793D+01 -.580048969077316D+02 -.275724160873042D+02
 0.103276062524372D+03 0.494613488334056D+02 0.314970788940226D+02 0.275724160873042D+02
 0.194746644082069D+03 -.431826688830277D+02 0.265078180137091D+02 -.188039485410694D+03
0.783005458831D-03 0.000000000000D+00 0.000000000000D+00 0.266754461556D-02 0.000000000000D+00  5 2 -1 25 24 21 0 0.56124035D-02 0.60036423D-01 0.13454452D+05 0.13454452D+05 0.13454452D+05 0.12532425D+01  1  2  2  1  5  1        2 0.331445340646D+00 0.100000000000D+01
-.434581392515D-04 0.000000000000D+00 -.300694713198D-05 0.266754461556D-02 0.000000000000D+00  5 2 -1 25 24 21 2 0.56124035D-02 0.60036423D-01 0.13454452D+05 0.13454452D+05 0.13454452D+05 0.12532425D+01  1  2  3  1  5  1        2 -.288927224365D-01 0.100000000000D+01
0.541119096857D-04 0.000000000000D+00 0.000000000000D+00 0.266754461556D-02 0.000000000000D+00  5 2 -1 25 24 21 2 0.56124035D-02 0.60036423D-01 0.13454452D+05 0.13454452D+05 0.13454452D+05 0.12532425D+01  1  2 15  1  5  1        2 0.359757783925D-01 0.100000000000D+01
  </mgrwgt>
  </event>
  <event>
  5     66 0.48098993E-03 0.20342861E+03 0.75467711E-02 0.11303165E+00
        2 -1    0    0  501    0 0.00000000E+00 0.00000000E+00 0.16651553E+04 0.16651554E+04 0.32000000E+00 0.0000E+00 0.9000E+01
       21 -1    0    0  502  501 0.00000000E+00 0.00000000E+00 -.32892987E+02 0.32901537E+02 0.75000000E+00 0.0000E+00 0.9000E+01
       25  1    1    2    0    0 -.13349879E+01 0.19693024E+03 0.61724503E+03 0.65984826E+03 0.12500000E+03 0.0000E+00 0.9000E+01
       24  1    1    2    0    0 0.12169698E+01 -.15595355E+03 0.76590840E+03 0.78575180E+03 0.80419002E+02 0.0000E+00 0.9000E+01
        1  1    1    2  502    0 0.11801812E+00 -.40976686E+02 0.24910890E+03 0.25245683E+03 0.32000000E+00 0.0000E+00 0.9000E+01
#aMCatNLO 2  0  0  2  1 0.40976856D+02 0.00000000D+00  -5  5  0 0.00000000D+00 0.00000000D+00 0.00000000D+00 0.00000000D+00 0.00000000D+00
  <mgrwgt>
 0.1233722798D+00    1    2    0
 0.209145293582730D+03 0.000000000000000D+00 0.000000000000000D+00 0.209145293582730D+03
 0.209145293582730D+03 0.000000000000000D+00 0.000000000000000D+00 -.209145293582730D+03
 0.220091970757188D+03 -.127048400706127D+01 0.174534051759985D+03 -.484946000954093D+02
 0.198198616408272D+03 0.127048400706127D+01 -.174534051759985D+03 0.484946000954093D+02
 0.000000000000000D+00 0.000000000000000D+00 -.000000000000000D+00 0.000000000000000D+00
 0.247406900072844D+03 0.000000000000000D+00 0.000000000000000D+00 0.247406900072844D+03
 0.221412432442193D+03 0.000000000000000D+00 0.000000000000000D+00 -.221412432442193D+03
 0.238243631911184D+03 -.133498790755282D+01 0.196930240732867D+03 -.484946000954093D+02
 0.182049263637261D+03 0.121696978893425D+01 -.155953554568717D+03 0.484946000954093D+02
 0.485264369665908D+02 0.118018118618570D+00 -.409766861641500D+02 0.259944676306508D+02
0.230993776023D-04 0.000000000000D+00 0.000000000000D+00 0.202903510132D-02 0.957088517419D-07  5 2 21 25 24 1 2 0.25617781D+00 0.50611079D-02 0.50558448D+05 0.50558448D+05 0.50558448D+05 0.11918043D+01  1  2  1  4  5  2       -1 0.123372279846D+00 0.100000000000D+01
  </mgrwgt>
  </event>
  <event>
  4     66 0.48098993E-03 0.13988930E+03 0.75467711E-02 0.10914143E+00
        2 -1    0    0  501    0 0.00000000E+00 0.00000000E+00 0.12510224E+04 0.12510224E+04 0.32000000E+00 0.0000E+00 0.9000E+01
       -1 -1    0    0    0  501 0.00000000E+00 0.00000000E+00 -.15816953E+02 0.15820189E+02 0.32000000E+00 0.0000E+00 0.9000E+01
       25  1    1    2    0    0 0.58454295E+01 0.93576643E+02 0.62265685E+03 0.64196364E+03 0.12500000E+03 0.0000E+00 0.9000E+01
       24  1    1    2    0    0 -.58454295E+01 -.93576643E+02 0.61254860E+03 0.62487900E+03 0.80419002E+02 0.0000E+00 0.9000E+01
#aMCatNLO 1  0  0  2  1 0.22000406D+03 0.00000000D+00  -5  5  0 0.00000000D+00 0.00000000D+00 0.00000000D+00 0.00000000D+00 0.00000000D+00
  <mgrwgt>
 0.4767169534D+00    5    2    0
 0.140674937871346D+03 0.000000000000000D+00 0.000000000000000D+00 0.140674937871346D+03
 0.140674937871346D+03 0.000000000000000D+00 0.000000000000000D+00 -.140674937871346D+03
 0.156949663462489D+03 0.584542951034346D+01 0.935766433451401D+02 -.147458344994356D+02
 0.124400212280202D+03 -.584542951034346D+01 -.935766433451401D+02 0.147458344994356D+02
 0.000000000000000D+00 -.000000000000000D+00 0.000000000000000D+00 -.000000000000000D+00
 0.244397978853359D+03 0.000000000000000D+00 0.000000000000000D+00 0.244397978853359D+03
 0.362417226744394D+03 0.000000000000000D+00 0.000000000000000D+00 -.362417226744394D+03
 0.183632406046417D+03 0.118727674141381D+03 0.614992707947788D+02 -.147458344994356D+02
 0.173522374728502D+03 0.928977908721040D+02 -.121636176333549D+03 0.147458344994356D+02
 0.249660424822835D+03 -.211625465013485D+03 0.601369055387698D+02 -.118019247891035D+03
0.372058337934D-03 0.000000000000D+00 0.000000000000D+00 0.246922167757D-02 0.000000000000D+00  5 2 -1 25 24 21 0 0.19246524D+00 0.24336294D-02 0.19569015D+05 0.19569015D+05 0.19569015D+05 0.12348690D+01  1  2  2  2  5  2       -1 0.394822213833D+00 0.100000000000D+01
-.206691194073D-04 0.000000000000D+00 -.142880198288D-05 0.246922167757D-02 0.000000000000D+00  5 2 -1 25 24 21 2 0.19246524D+00 0.24336294D-02 0.19569015D+05 0.19569015D+05 0.19569015D+05 0.12348690D+01  1  2  3  2  5  2       -1 -.334467771585D-01 0.100000000000D+01
0.257719124831D-04 0.000000000000D+00 0.000000000000D+00 0.246922167757D-02 0.000000000000D+00  5 2 -1 25 24 21 2 0.19246524D+00 0.24336294D-02 0.19569015D+05 0.19569015D+05 0.19569015D+05 0.12348690D+01  1  2 15  2  5  2       -1 0.417041189220D-01 0.100000000000D+01
0.134450251296D-03 0.000000000000D+00 -.140712832778D-03 0.246922167757D-02 0.000000000000D+00  5 2 -1 25 24 21 2 0.19246524D+00 0.11625121D-01 0.19569015D+05 0.19569015D+05 0.19569015D+05 0.12348690D+01  1  2  5  2  5  2       -1 0.212480421713D-01 0.100000000000D+01
0.227660469210D-04 0.000000000000D+00 -.267379901172D-04 0.246922167757D-02 0.000000000000D+00  5 2 21 25 24 1 2 0.19246524D+00 0.11625121D-01 0.19569015D+05 0.19569015D+05 0.19569015D+05 0.12348690D+01  1  2  5  4  5  2       -1 0.523893556018D-01 0.100000000000D+01
  </mgrwgt>
  </event>
  <event>
  4     66 0.48098993E-03 0.12248963E+03 0.75467711E-02 0.11102845E+00
        2 -1    0    0  501    0 0.00000000E+00 0.00000000E+00 0.89566536E+02 0.89567108E+02 0.32000000E+00 0.0000E+00 0.9000E+01
       -1 -1    0    0    0  501 0.00000000E+00 0.00000000E+00 -.18271361E+03 0.18271389E+03 0.32000000E+00 0.0000E+00 0.9000E+01
       25  1    1    2    0    0 0.53091043E+02 -.38578419E+02 -.14243668E+02 0.14189727E+03 0.12500000E+03 0.0000E+00 0.9000E+01
       24  1    1    2    0    0 -.53091043E+02 0.38578419E+02 -.78903408E+02 0.13038373E+03 0.80419002E+02 0.0000E+00 0.9000E+01
#aMCatNLO 1  0  0  1  2 0.19606257D+03 0.00000000D+00  -5  5  0 0.00000000D+00 0.00000000D+00 0.00000000D+00 0.00000000D+00 0.00000000D+00
  <mgrwgt>
 0.3027350466D+00    5    2    0
 0.127926311742466D+03 0.000000000000000D+00 0.000000000000000D+00 0.127926311742466D+03
 0.127926311742466D+03 0.000000000000000D+00 0.000000000000000D+00 -.127926311742466D+03
 0.145822911591419D+03 0.530910425290510D+02 -.385784185346038D+02 0.365016214920155D+02
 0.110029711893513D+03 -.530910425290510D+02 0.385784185346038D+02 -.365016214920155D+02
 0.000000000000000D+00 -.000000000000000D+00 -.000000000000000D+00 0.000000000000000D+00
 0.544650715102957D+03 0.000000000000000D+00 0.000000000000000D+00 0.544650715102957D+03
 0.186228642680704D+03 0.000000000000000D+00 0.000000000000000D+00 -.186228642680704D+03
 0.192218614061238D+03 0.135183347124053D+03 0.414257152070378D+02 0.365016214920155D+02
 0.130118317171662D+03 0.522813915090757D+01 0.954141430747402D+02 -.365016214920155D+02
 0.408542426550760D+03 -.140411486274961D+03 -.136839858281778D+03 0.358422072422253D+03
0.594132024134D-03 0.000000000000D+00 0.000000000000D+00 0.246038716547D-02 0.000000000000D+00  5 2 -1 25 24 21 0 0.13779533D-01 0.28109852D-01 0.15003710D+05 0.15003710D+05 0.15003710D+05 0.12478103D+01  1  2  2  1  5  1        2 0.316346387774D+00 0.100000000000D+01
-.329316458173D-04 0.000000000000D+00 -.228162341123D-05 0.246038716547D-02 0.000000000000D+00  5 2 -1 25 24 21 2 0.13779533D-01 0.28109852D-01 0.15003710D+05 0.15003710D+05 0.15003710D+05 0.12478103D+01  1  2  3  1  5  1        2 -.273017495891D-01 0.100000000000D+01
0.410778410143D-04 0.000000000000D+00 0.000000000000D+00 0.246038716547D-02 0.000000000000D+00  5 2 -1 25 24 21 2 0.13779533D-01 0.28109852D-01 0.15003710D+05 0.15003710D+05 0.15003710D+05 0.12478103D+01  1  2 15  1  5  1        2 0.340552954826D-01 0.100000000000D+01
-.940923501289D-04 0.000000000000D+00 -.326370567093D-03 0.246038716547D-02 0.000000000000D+00  5 2 -1 25 24 21 2 0.80075051D-01 0.28109852D-01 0.15003710D+05 0.15003710D+05 0.15003710D+05 0.12478103D+01  1  2  5  1  5  1        2 -.113872454428D-01 0.100000000000D+01
-.390947527599D-04 0.000000000000D+00 -.703716253286D-04 0.246038716547D-02 0.000000000000D+00  5 21 -1 25 24 -2 2 0.80075051D-01 0.28109852D-01 0.15003710D+05 0.15003710D+05 0.15003710D+05 0.12478103D+01  1  2  5  3  5  1        2 -.897764160241D-02 0.100000000000D+01
  </mgrwgt>
  </event>
  <event>
  4     66 0.48098993E-03 0.29989924E+03 0.75467711E-02 0.89016120E-01
        2 -1    0    0  501    0 0.00000000E+00 0.00000000E+00 0.19878183E+03 0.19878209E+03 0.32000000E+00 0.0000E+00 0.9000E+01
       -1 -1    0    0    0  501 0.00000000E+00 0.00000000E+00 -.47960315E+03 0.47960326E+03 0.32000000E+00 0.0000E+00 0.9000E+01
       25  1    1    2    0    0 -.49887686E+02 0.27651933E+03 -.63103846E+02 0.31394079E+03 0.12500000E+03 0.0000E+00 0.9000E+01
       24  1    1    2    0    0 0.49887686E+02 -.27651933E+03 -.21771747E+03 0.36444456E+03 0.80419002E+02 0.0000E+00 0.9000E+01
#aMCatNLO 1  0  0  2  2 0.14159224D+04 0.00000000D+00  -5  5  0 0.00000000D+00 0.00000000D+00 0.00000000D+00 0.00000000D+00 0.00000000D+00
  <mgrwgt>
 0.5593669745D+00    3    2    0
 0.308766118608016D+03 0.000000000000000D+00 0.000000000000000D+00 0.308766118608016D+03
 0.308766118608016D+03 0.000000000000000D+00 0.000000000000000D+00 -.308766118608016D+03
 0.316180941263198D+03 -.498876856770597D+02 0.276519332309251D+03 0.734415774280135D+02
 0.301351295952834D+03 0.498876856770597D+02 -.276519332309251D+03 -.734415774280135D+02
 0.000000000000000D+00 0.000000000000000D+00 0.000000000000000D+00 0.000000000000000D+00
 0.230965967032841D+04 0.000000000000000D+00 0.000000000000000D+00 0.230965967032841D+04
 0.109839651870963D+04 0.000000000000000D+00 0.000000000000000D+00 -.109839651870963D+04
 0.286546914630423D+03 -.236700545863094D+03 -.711570135490059D+02 0.734415774280135D+02
 0.125818034999604D+04 -.433482320340654D+03 -.117611648650071D+04 -.734415774280135D+02
 0.186332892441157D+04 0.670182866203748D+03 0.124727350004971D+04 0.121126315161877D+04
0.145417408854D-01 0.000000000000D+00 0.000000000000D+00 0.189168327596D-02 0.000000000000D+00  5 2 -1 25 24 21 0 0.30581848D-01 0.73785128D-01 0.89939552D+05 0.89939552D+05 0.89939552D+05 0.11678257D+01  1  2  2  2  5  2       -1 0.549541065977D+00 0.100000000000D+01
-.807040559748D-03 0.000000000000D+00 -.558441139283D-04 0.189168327596D-02 0.000000000000D+00  5 2 -1 25 24 21 2 0.30581848D-01 0.73785128D-01 0.89939552D+05 0.89939552D+05 0.89939552D+05 0.11678257D+01  1  2  3  2  5  2       -1 -.415944290197D-01 0.100000000000D+01
0.997688847921D-03 0.000000000000D+00 0.000000000000D+00 0.189168327596D-02 0.000000000000D+00  5 2 -1 25 24 21 2 0.30581848D-01 0.73785128D-01 0.89939552D+05 0.89939552D+05 0.89939552D+05 0.11678257D+01  1  2 15  2  5  2       -1 0.514203375126D-01 0.100000000000D+01
  </mgrwgt>
  </event>
  <event>
  4     66 0.48098993E-03 0.37990922E+02 0.75467711E-02 0.12649016E+00
        2 -1    0    0  501    0 0.00000000E+00 0.00000000E+00 0.21492812E+03 0.21492836E+03 0.32000000E+00 0.0000E+00 0.9000E+01
       -1 -1    0    0    0  501 0.00000000E+00 0.00000000E+00 -.56356222E+02 0.56357131E+02 0.32000000E+00 0.0000E+00 0.9000E+01
       25  1    1    2    0    0 -.13205270E+02 0.22418799E+02 0.12961476E+03 0.18193946E+03 0.12500000E+03 0.0000E+00 0.9000E+01
       24  1    1    2    0    0 0.13205270E+02 -.22418799E+02 0.28957147E+02 0.89346035E+02 0.80419002E+02 0.0000E+00 0.9000E+01
#aMCatNLO 1  0  0  2  1 0.31522002D+01 0.00000000D+00  -5  5  0 0.00000000D+00 0.00000000D+00 0.00000000D+00 0.00000000D+00 0.00000000D+00
  <mgrwgt>
 0.4043748833D+00    8    2    0
 0.110057679072541D+03 0.000000000000000D+00 0.000000000000000D+00 0.110057679072541D+03
 0.110057679072541D+03 0.000000000000000D+00 0.000000000000000D+00 -.110057679072541D+03
 0.130859916869127D+03 -.132052700522957D+02 0.224187988460436D+02 0.286764039611209D+02
 0.892554412759544D+02 0.132052700522957D+02 -.224187988460436D+02 -.286764039611209D+02
 0.000000000000000D+00 0.000000000000000D+00 0.000000000000000D+00 0.000000000000000D+00
 0.112204324384411D+03 0.000000000000000D+00 0.000000000000000D+00 0.112204324384411D+03
 0.111232276402535D+03 0.000000000000000D+00 0.000000000000000D+00 -.111232276402535D+03
 0.130584488978915D+03 -.134876961703193D+02 0.205682928256118D+02 0.286764039611209D+02
 0.895534388243414D+02 0.130121112133789D+02 -.236844098200439D+02 -.286764039611209D+02
 0.329867298368997D+01 0.475584956940371D+00 0.311611699443212D+01 0.972047981876130D+00
0.246756830427D-03 0.000000000000D+00 0.000000000000D+00 0.283857164939D-02 0.000000000000D+00  5 2 -1 25 24 21 0 0.33065954D-01 0.86702763D-02 0.11257483D+05 0.11257483D+05 0.11257483D+05 0.12622883D+01  1  2  2  2  5  2       -1 0.309698841420D+00 0.100000000000D+01
-.136863725635D-04 0.000000000000D+00 -.947611201404D-06 0.283857164939D-02 0.000000000000D+00  5 2 -1 25 24 21 2 0.33065954D-01 0.86702763D-02 0.11257483D+05 0.11257483D+05 0.11257483D+05 0.12622883D+01  1  2  3  2  5  2       -1 -.273700654523D-01 0.100000000000D+01
0.170090716967D-04 0.000000000000D+00 0.000000000000D+00 0.283857164939D-02 0.000000000000D+00  5 2 -1 25 24 21 2 0.33065954D-01 0.86702763D-02 0.11257483D+05 0.11257483D+05 0.11257483D+05 0.12622883D+01  1  2 15  2  5  2       -1 0.340148131626D-01 0.100000000000D+01
0.371065108251D-05 0.000000000000D+00 0.000000000000D+00 0.283857164939D-02 0.000000000000D+00  5 2 -1 25 24 21 2 0.33065954D-01 0.88461117D-02 0.11597899D+05 0.11597899D+05 0.11597899D+05 0.12607626D+01  1  2 12  2  5  2       -1 0.719172125633D-02 0.100000000000D+01
-.623053475578D-03 0.000000000000D+00 0.000000000000D+00 0.283857164939D-02 0.000000000000D+00  5 2 -1 25 24 21 2 0.33065954D-01 0.86702763D-02 0.11257483D+05 0.11257483D+05 0.11257483D+05 0.12622883D+01  1  2  4  2  5  2       -1 -.124598496261D+01 0.100000000000D+01
0.621121418306D-03 0.000000000000D+00 0.000000000000D+00 0.283857164939D-02 0.242237423962D-02  5 2 -1 25 24 21 2 0.33710896D-01 0.87628103D-02 0.11597899D+05 0.11597899D+05 0.11597899D+05 0.12607626D+01  1  2 11  2  5  2       -1 0.119619648028D+01 0.100000000000D+01
0.910666488853D-07 0.000000000000D+00 0.000000000000D+00 0.283857164939D-02 0.000000000000D+00  5 2 21 25 24 1 2 0.33065954D-01 0.88461117D-02 0.11597899D+05 0.11597899D+05 0.11597899D+05 0.12607626D+01  1  2 12  4  5  2       -1 0.275620598076D-02 0.100000000000D+01
0.424303282123D-05 0.000000000000D+00 0.000000000000D+00 0.283857164939D-02 0.478998208022D-05  5 2 21 25 24 1 2 0.33710896D-01 0.87628103D-02 0.11597899D+05 0.11597899D+05 0.11597899D+05 0.12607626D+01  1  2 11  4  5  2       -1 0.127871849235D+00 0.100000000000D+01
  </mgrwgt>
  </event>
  <event>
  4     66 0.48098993E-03 0.22892607E+03 0.75467711E-02 0.10648348E+00
        2 -1    0    0  501    0 0.00000000E+00 0.00000000E+00 0.37925374E+04 0.37925374E+04 0.32000000E+00 0.0000E+00 0.9000E+01
       -1 -1    0    0    0  501 0.00000000E+00 0.00000000E+00 -.31933503E+02 0.31935106E+02 0.32000000E+00 0.0000E+00 0.9000E+01
       25  1    1    2    0    0 0.37824423E+02 -.32342271E+03 0.15650280E+04 0.16034246E+04 0.12500000E+03 0.0000E+00 0.9000E+01
       24  1    1    2    0    0 -.37824423E+02 0.32342271E+03 0.21955759E+04 0.22210478E+04 0.80419002E+02 0.0000E+00 0.9000E+01
#aMCatNLO 1  0  0  2  1 0.50687074D+01 0.00000000D+00  -5  5  0 0.00000000D+00 0.00000000D+00 0.00000000D+00 0.00000000D+00 0.00000000D+00
  <mgrwgt>
 0.1848728841D+00    8    2    0
 0.348011627710253D+03 0.000000000000000D+00 0.000000000000000D+00 0.348011627710253D+03
 0.348011627710253D+03 0.000000000000000D+00 0.000000000000000D+00 -.348011627710253D+03
 0.354590275747018D+03 0.378244233001392D+02 -.323422712602254D+03 -.638461089602046D+02
 0.341432979673489D+03 -.378244233001392D+02 0.323422712602254D+03 0.638461089602046D+02
 0.000000000000000D+00 -.000000000000000D+00 0.000000000000000D+00 0.000000000000000D+00
 0.350595095839708D+03 0.000000000000000D+00 0.000000000000000D+00 0.350595095839708D+03
 0.350515940852655D+03 0.000000000000000D+00 0.000000000000000D+00 -.350515940852655D+03
 0.356851938017217D+03 0.389153065276671D+02 -.325772280826873D+03 -.638461089602046D+02
 0.339189773290735D+03 -.367807968029791D+02 0.321174926960105D+03 0.638461089602046D+02
 0.506932538441200D+01 -.213450972468799D+01 0.459735386676738D+01 0.791549870526480D-01
0.129096760284D-01 0.000000000000D+00 0.000000000000D+00 0.191388041088D-02 0.000000000000D+00  5 2 -1 25 24 21 0 0.58346741D+00 0.49129709D-02 0.11703426D+06 0.11703426D+06 0.11703426D+06 0.11573480D+01  1  2  2  2  5  2       -1 0.165085265228D+00 0.100000000000D+01
-.716948494568D-03 0.000000000000D+00 -.495765551447D-04 0.191388041088D-02 0.000000000000D+00  5 2 -1 25 24 21 2 0.58346741D+00 0.49129709D-02 0.11703426D+06 0.11703426D+06 0.11703426D+06 0.11573480D+01  1  2  3  2  5  2       -1 -.122802957311D-01 0.100000000000D+01
0.887827367372D-03 0.000000000000D+00 0.000000000000D+00 0.191388041088D-02 0.000000000000D+00  5 2 -1 25 24 21 2 0.58346741D+00 0.49129709D-02 0.11703426D+06 0.11703426D+06 0.11703426D+06 0.11573480D+01  1  2 15  2  5  2       -1 0.152072048579D-01 0.100000000000D+01
0.108738802514D-02 0.000000000000D+00 0.000000000000D+00 0.191388041088D-02 0.000000000000D+00  5 2 -1 25 24 21 2 0.58346741D+00 0.49664279D-02 0.11877995D+06 0.11877995D+06 0.11877995D+06 0.11567674D+01  1  2 12  2  5  2       -1 0.182906964076D-01 0.100000000000D+01
-.403216166681D-01 0.000000000000D+00 0.000000000000D+00 0.191388041088D-02 0.000000000000D+00  5 2 -1 25 24 21 2 0.58346741D+00 0.49129709D-02 0.11703426D+06 0.11703426D+06 0.11703426D+06 0.11573480D+01  1  2  4  2  5  2       -1 -.690651254296D+00 0.100000000000D+01
0.395131979956D-01 0.000000000000D+00 0.000000000000D+00 0.191388041088D-02 0.531638289829D-03  5 2 -1 25 24 21 2 0.58779879D+00 0.49483250D-02 0.11877995D+06 0.11877995D+06 0.11877995D+06 0.11567674D+01  1  2 11  2  5  2       -1 0.637586111939D+00 0.100000000000D+01
0.781367449705D-04 0.000000000000D+00 0.000000000000D+00 0.191388041088D-02 0.000000000000D+00  5 2 21 25 24 1 2 0.58346741D+00 0.49664279D-02 0.11877995D+06 0.11877995D+06 0.11877995D+06 0.11567674D+01  1  2 12  4  5  2       -1 0.222191972915D-01 0.100000000000D+01
0.107754556390D-03 0.000000000000D+00 0.000000000000D+00 0.191388041088D-02 0.708048631512D-06  5 2 21 25 24 1 2 0.58779879D+00 0.49483250D-02 0.11877995D+06 0.11877995D+06 0.11877995D+06 0.11567674D+01  1  2 11  4  5  2       -1 0.294159583546D-01 0.100000000000D+01
  </mgrwgt>
  </event>
  <event>
  4     66 0.48098993E-03 0.49883425E+02 0.75467711E-02 0.11742883E+00
        2 -1    0    0  501    0 0.00000000E+00 0.00000000E+00 0.21698613E+04 0.21698613E+04 0.32000000E+00 0.0000E+00 0.9000E+01
       -1 -1    0    0    0  501 0.00000000E+00 0.00000000E+00 -.13042540E+02 0.13046465E+02 0.32000000E+00 0.0000E+00 0.9000E+01
       25  1    1    2    0    0 0.77880417E+02 0.23303864E+02 0.49033361E+03 0.51250413E+03 0.12500000E+03 0.0000E+00 0.9000E+01
       24  1    1    2    0    0 -.77880417E+02 -.23303864E+02 0.16664852E+04 0.16704037E+04 0.80419002E+02 0.0000E+00 0.9000E+01
#aMCatNLO 1  0  0  1  2 0.73217117D+02 0.00000000D+00  -5  5  0 0.00000000D+00 0.00000000D+00 0.00000000D+00 0.00000000D+00 0.00000000D+00
  <mgrwgt>
 0.4446550127D+00    9    2    0
 0.168240344129354D+03 0.000000000000000D+00 0.000000000000000D+00 0.168240344129354D+03
 0.168240344129354D+03 0.000000000000000D+00 0.000000000000000D+00 -.168240344129354D+03
 0.181848530817602D+03 0.778804167107150D+02 0.233038641187391D+02 -.104093509743024D+03
 0.154632157441105D+03 -.778804167107150D+02 -.233038641187391D+02 0.104093509743024D+03
 0.000000000000000D+00 -.000000000000000D+00 0.000000000000000D+00 0.000000000000000D+00
 0.223730333967507D+03 0.000000000000000D+00 0.000000000000000D+00 0.223730333967507D+03
 0.198173470303631D+03 0.000000000000000D+00 0.000000000000000D+00 -.198173470303631D+03
 0.184008780299256D+03 0.846154158005505D+02 -.154597498523989D+02 -.104093509743024D+03
 0.160345687955838D+03 -.720820482276831D+02 -.566766551971933D+02 0.104093509743024D+03
 0.775493360160444D+02 -.125333675728674D+02 0.721364050495922D+02 0.255568636638755D+02
0.696276403347D-03 0.000000000000D+00 0.000000000000D+00 0.147304527486D-02 0.000000000000D+00  5 2 -1 25 24 21 0 0.33382512D+00 0.20068484D-02 0.17352473D+05 0.17352473D+05 0.17352473D+05 0.12406735D+01  1  2  2  1  5  1        2 0.325627744647D+00 0.100000000000D+01
-.358670411775D-04 0.000000000000D+00 -.267388472264D-05 0.147304527486D-02 0.000000000000D+00  5 2 -1 25 24 21 2 0.33382512D+00 0.20068484D-02 0.17352473D+05 0.17352473D+05 0.17352473D+05 0.12406735D+01  1  2  3  1  5  1        2 -.258196482293D-01 0.100000000000D+01
0.477848098775D-04 0.000000000000D+00 0.000000000000D+00 0.147304527486D-02 0.000000000000D+00  5 2 -1 25 24 21 2 0.33382512D+00 0.20068484D-02 0.17352473D+05 0.17352473D+05 0.17352473D+05 0.12406735D+01  1  2 15  1  5  1        2 0.343989061053D-01 0.100000000000D+01
0.195312936520D-03 0.000000000000D+00 0.000000000000D+00 0.147304527486D-02 0.000000000000D+00  5 2 -1 25 24 21 2 0.46572371D+00 0.20068484D-02 0.30087893D+05 0.30087893D+05 0.30087893D+05 0.12147651D+01  1  2 12  1  5  1        2 0.456930340519D-01 0.100000000000D+01
-.374584351248D-03 0.000000000000D+00 0.000000000000D+00 0.147304527486D-02 0.000000000000D+00  5 2 -1 25 24 21 2 0.33382512D+00 0.20068484D-02 0.17352473D+05 0.17352473D+05 0.17352473D+05 0.12406735D+01  1  2  4  1  5  1        2 -.269652468225D+00 0.100000000000D+01
-.598526946931D-03 0.000000000000D+00 -.262090225392D-03 0.147304527486D-02 0.000000000000D+00  5 2 -1 25 24 21 2 0.46938466D+00 0.20068484D-02 0.17352473D+05 0.17352473D+05 0.17352473D+05 0.12406735D+01  1  2  5  1  5  1        2 -.142873117560D+00 0.100000000000D+01
0.663461637234D-03 0.000000000000D+00 0.247572939918D-03 0.147304527486D-02 0.000000000000D+00  5 2 -1 25 24 21 2 0.33382512D+00 0.20068484D-02 0.17352473D+05 0.17352473D+05 0.17352473D+05 0.12406735D+01  1  2  6  1  5  1        2 0.477606892697D+00 0.100000000000D+01
0.813939187883D-05 0.000000000000D+00 0.000000000000D+00 0.147304527486D-02 0.000000000000D+00  5 21 -1 25 24 -2 2 0.46572371D+00 0.20068484D-02 0.30087893D+05 0.30087893D+05 0.30087893D+05 0.12147651D+01  1  2 12  3  5  1        2 0.239991725302D-03 0.100000000000D+01
-.182356980460D-04 0.000000000000D+00 -.111066888711D-04 0.147304527486D-02 0.000000000000D+00  5 21 -1 25 24 -2 2 0.46938466D+00 0.20068484D-02 0.17352473D+05 0.17352473D+05 0.17352473D+05 0.12406735D+01  1  2  5  3  5  1        2 -.566322467211D-03 0.100000000000D+01
  </mgrwgt>
  </event>
  <event>
  4     66 0.48098993E-03 0.13970839E+03 0.75467711E-02 0.12035147E+00
        2 -1    0    0  501    0 0.00000000E+00 0.00000000E+00 0.42538942E+03 0.42538954E+03 0.32000000E+00 0.0000E+00 0.9000E+01
       -1 -1    0    0    0  501 0.00000000E+00 0.00000000E+00 -.49203371E+02 0.49204411E+02 0.32000000E+00 0.0000E+00 0.9000E+01
       25  1    1    2    0    0 0.63030582E+02 -.69050821E+02 0.26991303E+03 0.31179948E+03 0.12500000E+03 0.0000E+00 0.9000E+01
       24  1    1    2    0    0 -.63030582E+02 0.69050821E+02 0.10627302E+03 0.16279447E+03 0.80419002E+02 0.0000E+00 0.9000E+01
#aMCatNLO 1  0  0  2  2 0.15256700D+02 0.00000000D+00  -5  5  0 0.00000000D+00 0.00000000D+00 0.00000000D+00 0.00000000D+00 0.00000000D+00
  <mgrwgt>
 0.2664490627D+00    4    2    0
 0.144675045688092D+03 0.000000000000000D+00 0.000000000000000D+00 0.144675045688092D+03
 0.144675045688092D+03 0.000000000000000D+00 0.000000000000000D+00 -.144675045688092D+03
 0.160499792799928D+03 0.630305823321719D+02 -.690508206914623D+02 0.373405053731540D+02
 0.128850298576256D+03 -.630305823321719D+02 0.690508206914623D+02 -.373405053731540D+02
 0.000000000000000D+00 -.000000000000000D+00 -.000000000000000D+00 0.000000000000000D+00
 0.165772860260302D+03 0.000000000000000D+00 0.000000000000000D+00 0.165772860260302D+03
 0.147660731804467D+03 0.000000000000000D+00 0.000000000000000D+00 -.147660731804467D+03
 0.159931057595000D+03 0.682705601643879D+02 -.624320467129935D+02 0.373405053731540D+02
 0.129820978267345D+03 -.588005534357004D+02 0.743938977205298D+02 -.373405053731540D+02
 0.236815562024238D+02 -.947000672868757D+01 -.119618510075362D+02 0.181121284558351D+02
0.484053914870D-03 0.000000000000D+00 0.000000000000D+00 0.230676906007D-02 0.000000000000D+00  5 2 -1 25 24 21 0 0.65444616D-01 0.75698386D-02 0.19518434D+05 0.19518434D+05 0.19518434D+05 0.12349931D+01  1  2  2  2  5  2       -1 0.368713225512D+00 0.100000000000D+01
-.268519843533D-04 0.000000000000D+00 -.185889448743D-05 0.230676906007D-02 0.000000000000D+00  5 2 -1 25 24 21 2 0.65444616D-01 0.75698386D-02 0.19518434D+05 0.19518434D+05 0.19518434D+05 0.12349931D+01  1  2  3  2  5  2       -1 -.311961072455D-01 0.100000000000D+01
0.334674731802D-04 0.000000000000D+00 0.000000000000D+00 0.230676906007D-02 0.000000000000D+00  5 2 -1 25 24 21 2 0.65444616D-01 0.75698386D-02 0.19518434D+05 0.19518434D+05 0.19518434D+05 0.12349931D+01  1  2 15  2  5  2       -1 0.388818520385D-01 0.100000000000D+01
-.946391540264D-04 0.000000000000D+00 0.000000000000D+00 0.230676906007D-02 0.000000000000D+00  5 2 -1 25 24 21 2 0.65444616D-01 0.75698386D-02 0.19518434D+05 0.19518434D+05 0.19518434D+05 0.12349931D+01  1  2  4  2  5  2       -1 -.109949907604D+00 0.100000000000D+01
  </mgrwgt>
  </event>
  <event>
  5     66 0.48098993E-03 0.10580526E+03 0.75467711E-02 0.11979416E+00
        2 -1    0    0  502    0 0.00000000E+00 0.00000000E+00 0.11162202E+03 0.11162248E+03 0.32000000E+00 0.0000E+00 0.9000E+01
       -1 -1    0    0    0  501 0.00000000E+00 0.00000000E+00 -.24175183E+03 0.24175204E+03 0.32000000E+00 0.0000E+00 0.9000E+01
       25  1    1    2    0    0 0.24217266E+02 -.22543959E+02 -.16446019E+01 0.12931516E+03 0.12500000E+03 0.0000E+00 0.9000E+01
       24  1    1    2    0    0 -.57426268E+01 -.53393234E+02 -.10433771E+03 0.14225817E+03 0.80419002E+02 0.0000E+00 0.9000E+01
       21  1    1    2  502  501 -.18474639E+02 0.75937193E+02 -.24147495E+02 0.81801184E+02 0.75000000E+00 0.0000E+00 0.9000E+01
#aMCatNLO 2  0  0  1  2 0.78152221D+02 0.00000000D+00  -5  5  0 0.00000000D+00 0.00000000D+00 0.00000000D+00 0.00000000D+00 0.00000000D+00
  <mgrwgt>
 0.6136088054D-01    1    2    0
 0.118756112474533D+03 0.000000000000000D+00 0.000000000000000D+00 0.118756112474533D+03
 0.118756112474533D+03 0.000000000000000D+00 0.000000000000000D+00 -.118756112474533D+03
 0.138034665499737D+03 0.136910818988444D+02 0.207223196030257D+02 0.530255469215863D+02
 0.994775594493285D+02 -.136910818988444D+02 -.207223196030257D+02 -.530255469215863D+02
 0.000000000000000D+00 -.000000000000000D+00 0.000000000000000D+00 0.000000000000000D+00
 0.168546032344416D+03 0.000000000000000D+00 0.000000000000000D+00 0.168546032344416D+03
 0.160100814112653D+03 0.000000000000000D+00 0.000000000000000D+00 -.160100814112653D+03
 0.139754837801123D+03 0.242172661980784D+02 -.225439588443618D+02 0.530255469215863D+02
 0.110284812277975D+03 -.574262683625451D+01 -.533932343607680D+02 -.530255469215863D+02
 0.786071963779702D+02 -.184746393618239D+02 0.759371932051299D+02 0.844521823176264D+01
0.157390673740D-03 0.000000000000D+00 0.000000000000D+00 0.232502534587D-02 0.344655826153D-05  5 2 -1 25 24 21 2 0.17172483D-01 0.37192234D-01 0.23127970D+05 0.23127970D+05 0.23127970D+05 0.12269384D+01  1  2  1  1  5  1        2 0.613608805383D-01 0.100000000000D+01
  </mgrwgt>
  </event>
  <event>
  4     66 0.48098993E-03 0.62713565E+02 0.75467711E-02 0.12367903E+00
        2 -1    0    0  501    0 0.00000000E+00 0.00000000E+00 0.18954203E+03 0.18954230E+03 0.32000000E+00 0.0000E+00 0.9000E+01
       -1 -1    0    0    0  501 0.00000000E+00 0.00000000E+00 -.59926787E+02 0.59927642E+02 0.32000000E+00 0.0000E+00 0.9000E+01
       25  1    1    2    0    0 -.80509927E+01 -.69947899E+01 0.10794615E+03 0.16550262E+03 0.12500000E+03 0.0000E+00 0.9000E+01
       24  1    1    2    0    0 0.80509927E+01 0.69947899E+01 0.21669089E+02 0.83967321E+02 0.80419002E+02 0.0000E+00 0.9000E+01
#aMCatNLO 1  0  0  2  1 0.37772101D+02 0.00000000D+00  -5  5  0 0.00000000D+00 0.00000000D+00 0.00000000D+00 0.00000000D+00 0.00000000D+00
  <mgrwgt>
 0.4608959501D+00    9    2    0
 0.106577601768985D+03 0.000000000000000D+00 0.000000000000000D+00 0.106577601768985D+03
 0.106577601768985D+03 0.000000000000000D+00 0.000000000000000D+00 -.106577601768985D+03
 0.128059094816370D+03 -.805099269274287D+01 -.699478986792232D+01 0.256979803983298D+02
 0.850961087216006D+02 0.805099269274287D+01 0.699478986792232D+01 -.256979803983298D+02
 0.000000000000000D+00 -.000000000000000D+00 0.000000000000000D+00 -.000000000000000D+00
 0.120781998080128D+03 0.000000000000000D+00 0.000000000000000D+00 0.120781998080128D+03
 0.136672598842093D+03 0.000000000000000D+00 0.000000000000000D+00 -.136672598842093D+03
 0.128701912422058D+03 0.144846757187147D+02 -.830603598992190D+01 0.256979803983298D+02
 0.877741194912411D+02 0.232236475406031D+02 0.611196338740933D+01 -.256979803983298D+02
 0.409785650089220D+02 -.377083232593178D+02 0.219407260251256D+01 -.158906007619643D+02
0.265481100983D-03 0.000000000000D+00 0.000000000000D+00 0.296196865935D-02 0.000000000000D+00  5 2 -1 25 24 21 0 0.29160399D-01 0.92195922D-02 0.10668543D+05 0.10668543D+05 0.10668543D+05 0.12650546D+01  1  2  2  2  5  2       -1 0.346684515096D+00 0.100000000000D+01
-.147313300588D-04 0.000000000000D+00 -.101951733055D-05 0.296196865935D-02 0.000000000000D+00  5 2 -1 25 24 21 2 0.29160399D-01 0.92195922D-02 0.10668543D+05 0.10668543D+05 0.10668543D+05 0.12650546D+01  1  2  3  2  5  2       -1 -.307865718831D-01 0.100000000000D+01
0.182803914037D-04 0.000000000000D+00 0.000000000000D+00 0.296196865935D-02 0.000000000000D+00  5 2 -1 25 24 21 2 0.29160399D-01 0.92195922D-02 0.10668543D+05 0.10668543D+05 0.10668543D+05 0.12650546D+01  1  2 15  2  5  2       -1 0.382036504343D-01 0.100000000000D+01
0.152323891921D-03 0.000000000000D+00 0.000000000000D+00 0.296196865935D-02 0.000000000000D+00  5 2 -1 25 24 21 2 0.29160399D-01 0.12300140D-01 0.15352493D+05 0.15352493D+05 0.15352493D+05 0.12466742D+01  1  2 12  2  5  2       -1 0.202204305465D+00 0.100000000000D+01
-.170243944071D-03 0.000000000000D+00 0.000000000000D+00 0.296196865935D-02 0.000000000000D+00  5 2 -1 25 24 21 2 0.29160399D-01 0.92195922D-02 0.10668543D+05 0.10668543D+05 0.10668543D+05 0.12650546D+01  1  2  4  2  5  2       -1 -.355787793829D+00 0.100000000000D+01
-.290821111961D-03 0.000000000000D+00 -.109371709782D-03 0.296196865935D-02 0.000000000000D+00  5 2 -1 25 24 21 2 0.29160399D-01 0.13345500D-01 0.10668543D+05 0.10668543D+05 0.10668543D+05 0.12650546D+01  1  2  5  2  5  2       -1 -.345811467465D+00 0.100000000000D+01
0.316456974411D-03 0.000000000000D+00 0.102295221896D-03 0.296196865935D-02 0.000000000000D+00  5 2 -1 25 24 21 2 0.29160399D-01 0.92195922D-02 0.10668543D+05 0.10668543D+05 0.10668543D+05 0.12650546D+01  1  2  6  2  5  2       -1 0.661354090343D+00 0.100000000000D+01
0.572074669162D-05 0.000000000000D+00 0.000000000000D+00 0.296196865935D-02 0.000000000000D+00  5 2 21 25 24 1 2 0.29160399D-01 0.12300140D-01 0.15352493D+05 0.15352493D+05 0.15352493D+05 0.12466742D+01  1  2 12  4  5  2       -1 0.109585583430D+00 0.100000000000D+01
-.972588354964D-05 0.000000000000D+00 -.491696401614D-05 0.296196865935D-02 0.000000000000D+00  5 2 21 25 24 1 2 0.29160399D-01 0.13345500D-01 0.10668543D+05 0.10668543D+05 0.10668543D+05 0.12650546D+01  1  2  5  4  5  2       -1 -.164750361453D+00 0.100000000000D+01
  </mgrwgt>
  </event>
  <event>
  4     66 0.48098993E-03 0.10132010E+03 0.75467711E-02 0.11719631E+00
        2 -1    0    0  501    0 0.00000000E+00 0.00000000E+00 0.25857773E+04 0.25857773E+04 0.32000000E+00 0.0000E+00 0.9000E+01
       -1 -1    0    0    0  501 0.00000000E+00 0.00000000E+00 -.75947589E+01 0.76014974E+01 0.32000000E+00 0.0000E+00 0.9000E+01
       25  1    1    2    0    0 0.91290327E+02 -.22669753E+02 0.14806309E+04 0.14888723E+04 0.12500000E+03 0.0000E+00 0.9000E+01
       24  1    1    2    0    0 -.91290327E+02 0.22669753E+02 0.10975516E+04 0.11045065E+04 0.80419002E+02 0.0000E+00 0.9000E+01
#aMCatNLO 1  0  0  1  2 0.64102491D+02 0.00000000D+00  -5  5  0 0.00000000D+00 0.00000000D+00 0.00000000D+00 0.00000000D+00 0.00000000D+00
  <mgrwgt>
 0.5373140813D+00    9    2    0
 0.140168178229199D+03 0.000000000000000D+00 0.000000000000000D+00 0.140168178229199D+03
 0.140168178229199D+03 0.000000000000000D+00 0.000000000000000D+00 -.140168178229199D+03
 0.156501742953595D+03 0.912903268865561D+02 -.226697527173875D+02 0.446699856630498D+01
 0.123834613504802D+03 -.912903268865561D+02 0.226697527173875D+02 -.446699856630498D+01
 0.000000000000000D+00 0.000000000000000D+00 -.000000000000000D+00 0.000000000000000D+00
 0.223719155123921D+03 0.000000000000000D+00 0.000000000000000D+00 0.223719155123921D+03
 0.156637714295667D+03 0.000000000000000D+00 0.000000000000000D+00 -.156637714295667D+03
 0.149751987013641D+03 0.816686564218736D+02 0.105325256509731D+02 0.446699856630498D+01
 0.137819920780826D+03 -.995108102901563D+02 0.510368412900706D+02 -.446699856630498D+01
 0.927849616251198D+02 0.178421538682827D+02 -.615693669410437D+02 0.670814408282544D+02
0.669837199871D-03 0.000000000000D+00 0.000000000000D+00 0.249686036390D-02 0.000000000000D+00  5 2 -1 25 24 21 0 0.39781241D+00 0.11689443D-02 0.19626889D+05 0.19626889D+05 0.19626889D+05 0.12347274D+01  1  2  2  1  5  1        2 0.411006858935D+00 0.100000000000D+01
-.372131657668D-04 0.000000000000D+00 -.257235121969D-05 0.249686036390D-02 0.000000000000D+00  5 2 -1 25 24 21 2 0.39781241D+00 0.11689443D-02 0.19626889D+05 0.19626889D+05 0.19626889D+05 0.12347274D+01  1  2  3  1  5  1        2 -.348111706821D-01 0.100000000000D+01
0.462339316133D-04 0.000000000000D+00 0.000000000000D+00 0.249686036390D-02 0.000000000000D+00  5 2 -1 25 24 21 2 0.39781241D+00 0.11689443D-02 0.19626889D+05 0.19626889D+05 0.19626889D+05 0.12347274D+01  1  2 15  1  5  1        2 0.432496739132D-01 0.100000000000D+01
0.353654003466D-03 0.000000000000D+00 0.000000000000D+00 0.249686036390D-02 0.000000000000D+00  5 2 -1 25 24 21 2 0.64681816D+00 0.11689443D-02 0.30894276D+05 0.30894276D+05 0.30894276D+05 0.12135618D+01  1  2 12  1  5  1        2 0.283700629427D-01 0.100000000000D+01
-.479035711830D-03 0.000000000000D+00 0.000000000000D+00 0.249686036390D-02 0.000000000000D+00  5 2 -1 25 24 21 2 0.39781241D+00 0.11689443D-02 0.19626889D+05 0.19626889D+05 0.19626889D+05 0.12347274D+01  1  2  4  1  5  1        2 -.448115433980D+00 0.100000000000D+01
-.597020931908D-03 0.000000000000D+00 -.180978329269D-03 0.249686036390D-02 0.000000000000D+00  5 2 -1 25 24 21 2 0.64680164D+00 0.11689443D-02 0.19626889D+05 0.19626889D+05 0.19626889D+05 0.12347274D+01  1  2  5  1  5  1        2 -.504873917789D-01 0.100000000000D+01
0.628704952556D-03 0.000000000000D+00 0.161519901932D-03 0.249686036390D-02 0.000000000000D+00  5 2 -1 25 24 21 2 0.39781241D+00 0.11689443D-02 0.19626889D+05 0.19626889D+05 0.19626889D+05 0.12347274D+01  1  2  6  1  5  1        2 0.588123986797D+00 0.100000000000D+01
0.195017593261D-04 0.000000000000D+00 0.000000000000D+00 0.249686036390D-02 0.000000000000D+00  5 21 -1 25 24 -2 2 0.64681816D+00 0.11689443D-02 0.30894276D+05 0.30894276D+05 0.30894276D+05 0.12135618D+01  1  2 12  3  5  1        2 0.549880070582D-04 0.100000000000D+01
-.250176384671D-04 0.000000000000D+00 -.997938860931D-05 0.249686036390D-02 0.000000000000D+00  5 21 -1 25 24 -2 2 0.64680164D+00 0.11689443D-02 0.19626889D+05 0.19626889D+05 0.19626889D+05 0.12347274D+01  1  2  5  3  5  1        2 -.774928344173D-04 0.100000000000D+01
  </mgrwgt>
  </event>
  <event>
  4     66 0.48098993E-03 0.11767570E+03 0.75467711E-02 0.11586711E+00
        2 -1    0    0  501    0 0.00000000E+00 0.00000000E+00 0.17384268E+04 0.17384268E+04 0.32000000E+00 0.0000E+00 0.9000E+01
       -1 -1    0    0    0  501 0.00000000E+00 0.00000000E+00 -.10124181E+02 0.10129237E+02 0.32000000E+00 0.0000E+00 0.9000E+01
       25  1    1    2    0    0 -.29535262E+02 -.48038007E+02 0.57701252E+03 0.59308383E+03 0.12500000E+03 0.0000E+00 0.9000E+01
       24  1    1    2    0    0 0.29535262E+02 0.48038007E+02 0.11512901E+04 0.11554722E+04 0.80419002E+02 0.0000E+00 0.9000E+01
#aMCatNLO 1  0  0  2  2 0.11887475D+03 0.00000000D+00  -5  5  0 0.00000000D+00 0.00000000D+00 0.00000000D+00 0.00000000D+00 0.00000000D+00
  <mgrwgt>
 0.5049257700D+00    3    2    0
 0.132682306473165D+03 0.000000000000000D+00 0.000000000000000D+00 0.132682306473165D+03
 0.132682306473165D+03 0.000000000000000D+00 0.000000000000000D+00 -.132682306473165D+03
 0.149937403043787D+03 -.295352618148987D+02 -.480380070582015D+02 -.606320296453673D+02
 0.115427209902543D+03 0.295352618148987D+02 0.480380070582015D+02 0.606320296453673D+02
 0.000000000000000D+00 0.000000000000000D+00 0.000000000000000D+00 0.000000000000000D+00
 0.326528958298641D+03 0.000000000000000D+00 0.000000000000000D+00 0.326528958298641D+03
 0.164890007643280D+03 0.000000000000000D+00 0.000000000000000D+00 -.164890007643280D+03
 0.189481209873865D+03 -.721700034672263D+02 -.106739760520097D+03 -.606320296453673D+02
 0.101292902776472D+03 0.231281241677222D+01 0.105567077406414D+02 0.606320296453673D+02
 0.200644853291584D+03 0.698571910504540D+02 0.961830527794552D+02 0.161638950655361D+03
0.443551169798D-03 0.000000000000D+00 0.000000000000D+00 0.210504704660D-02 0.000000000000D+00  5 2 -1 25 24 21 0 0.26745067D+00 0.15579576D-02 0.13847571D+05 0.13847571D+05 0.13847571D+05 0.12517999D+01  1  2  2  2  5  2       -1 0.493911976805D+00 0.100000000000D+01
-.242101168012D-04 0.000000000000D+00 -.170335328173D-05 0.210504704660D-02 0.000000000000D+00  5 2 -1 25 24 21 2 0.26745067D+00 0.15579576D-02 0.13847571D+05 0.13847571D+05 0.13847571D+05 0.12517999D+01  1  2  3  2  5  2       -1 -.422447307931D-01 0.100000000000D+01
0.305220334507D-04 0.000000000000D+00 0.000000000000D+00 0.210504704660D-02 0.000000000000D+00  5 2 -1 25 24 21 2 0.26745067D+00 0.15579576D-02 0.13847571D+05 0.13847571D+05 0.13847571D+05 0.12517999D+01  1  2 15  2  5  2       -1 0.532585239868D-01 0.100000000000D+01
  </mgrwgt>
  </event>
  <event>
  4     66 0.48098993E-03 0.20437449E+03 0.75467711E-02 0.10532722E+00
        2 -1    0    0  501    0 0.00000000E+00 0.00000000E+00 0.80407382E+03 0.80407389E+03 0.32000000E+00 0.0000E+00 0.9000E+01
       -1 -1    0    0    0  501 0.00000000E+00 0.00000000E+00 -.53233850E+02 0.53234812E+02 0.32000000E+00 0.0000E+00 0.9000E+01
       25  1    1    2    0    0 0.44570861E+02 -.16988747E+03 0.32892795E+03 0.39327715E+03 0.12500000E+03 0.0000E+00 0.9000E+01
       24  1    1    2    0    0 -.44570861E+02 0.16988747E+03 0.42191202E+03 0.46403155E+03 0.80419002E+02 0.0000E+00 0.9000E+01
#aMCatNLO 1  0  0  2  2 0.26252704D+03 0.00000000D+00  -5  5  0 0.00000000D+00 0.00000000D+00 0.00000000D+00 0.00000000D+00 0.00000000D+00
  <mgrwgt>
 0.4201332197D+00    3    2    0
 0.206892206552836D+03 0.000000000000000D+00 0.000000000000000D+00 0.206892206552836D+03
 0.206892206552836D+03 0.000000000000000D+00 0.000000000000000D+00 -.206892206552836D+03
 0.217958094676672D+03 0.445708605080979D+02 -.169887471656524D+03 -.321312371813915D+02
 0.195826318428999D+03 -.445708605080979D+02 0.169887471656524D+03 0.321312371813915D+02
 0.000000000000000D+00 -.000000000000000D+00 0.000000000000000D+00 0.000000000000000D+00
 0.388308461330332D+03 0.000000000000000D+00 0.000000000000000D+00 0.388308461330332D+03
 0.365266582301682D+03 0.000000000000000D+00 0.000000000000000D+00 -.365266582301682D+03
 0.344218099052081D+03 0.176864574573648D+03 -.265607992298997D+03 -.321312371813915D+02
 0.145820660170471D+03 0.358269724175790D+02 0.111715981948711D+03 0.321312371813915D+02
 0.263536284409462D+03 -.212691546991226D+03 0.153892010350286D+03 0.230418790286505D+02
0.124903384594D-02 0.000000000000D+00 0.000000000000D+00 0.209536315410D-02 0.000000000000D+00  5 2 -1 25 24 21 0 0.12370374D+00 0.81899020D-02 0.41768933D+05 0.41768933D+05 0.41768933D+05 0.12000965D+01  1  2  2  2  5  2       -1 0.412421508385D+00 0.100000000000D+01
-.693781212777D-04 0.000000000000D+00 -.479661884657D-05 0.209536315410D-02 0.000000000000D+00  5 2 -1 25 24 21 2 0.12370374D+00 0.81899020D-02 0.41768933D+05 0.41768933D+05 0.41768933D+05 0.12000965D+01  1  2  3  2  5  2       -1 -.329930107607D-01 0.100000000000D+01
0.855944055937D-04 0.000000000000D+00 0.000000000000D+00 0.209536315410D-02 0.000000000000D+00  5 2 -1 25 24 21 2 0.12370374D+00 0.81899020D-02 0.41768933D+05 0.41768933D+05 0.41768933D+05 0.12000965D+01  1  2 15  2  5  2       -1 0.407047220766D-01 0.100000000000D+01
  </mgrwgt>
  </event>
  <event>
  4     66 0.48098993E-03 0.14364032E+03 0.75467711E-02 0.10004495E+00
        2 -1    0    0  501    0 0.00000000E+00 0.00000000E+00 0.60885327E+03 0.60885335E+03 0.32000000E+00 0.0000E+00 0.9000E+01
       -1 -1    0    0    0  501 0.00000000E+00 0.00000000E+00 -.47006119E+02 0.47007208E+02 0.32000000E+00 0.0000E+00 0.9000E+01
       25  1    1    2    0    0 0.88720307E+01 0.98801644E+02 0.13092358E+03 0.20641333E+03 0.12500000E+03 0.0000E+00 0.9000E+01
       24  1    1    2    0    0 -.88720307E+01 -.98801644E+02 0.43092356E+03 0.44944723E+03 0.80419002E+02 0.0000E+00 0.9000E+01
#aMCatNLO 1  0  0  2  1 0.52142148D+03 0.00000000D+00  -5  5  0 0.00000000D+00 0.00000000D+00 0.00000000D+00 0.00000000D+00 0.00000000D+00
  <mgrwgt>
 0.4106988306D+00    5    2    0
 0.169175097973877D+03 0.000000000000000D+00 0.000000000000000D+00 0.169175097973877D+03
 0.169175097973877D+03 0.000000000000000D+00 0.000000000000000D+00 -.169175097973877D+03
 0.182708094489480D+03 0.887203074840089D+01 0.988016440988917D+02 -.889762327013915D+02
 0.155642101458273D+03 -.887203074840089D+01 -.988016440988917D+02 0.889762327013915D+02
 0.000000000000000D+00 0.000000000000000D+00 -.000000000000000D+00 -.000000000000000D+00
 0.536023488625844D+03 0.000000000000000D+00 0.000000000000000D+00 0.536023488625844D+03
 0.612565678582740D+03 0.000000000000000D+00 0.000000000000000D+00 -.612565678582740D+03
 0.451145756450552D+03 -.192530737012356D+03 0.378051106178897D+03 -.889762327013915D+02
 0.170433857935665D+03 -.112480458187610D+03 0.448537681431227D+02 0.889762327013915D+02
 0.527009552822368D+03 0.305011195199966D+03 -.422904874322020D+03 -.765421899568961D+02
0.625198812893D-03 0.000000000000D+00 0.000000000000D+00 0.169547878840D-02 0.000000000000D+00  5 2 -1 25 24 21 0 0.93669824D-01 0.72318008D-02 0.20632542D+05 0.20632542D+05 0.20632542D+05 0.12323401D+01  1  2  2  2  5  2       -1 0.343716905367D+00 0.100000000000D+01
-.336026654744D-04 0.000000000000D+00 -.240092806014D-05 0.169547878840D-02 0.000000000000D+00  5 2 -1 25 24 21 2 0.93669824D-01 0.72318008D-02 0.20632542D+05 0.20632542D+05 0.20632542D+05 0.12323401D+01  1  2  3  2  5  2       -1 -.280554749255D-01 0.100000000000D+01
0.430460956007D-04 0.000000000000D+00 0.000000000000D+00 0.169547878840D-02 0.000000000000D+00  5 2 -1 25 24 21 2 0.93669824D-01 0.72318008D-02 0.20632542D+05 0.20632542D+05 0.20632542D+05 0.12323401D+01  1  2 15  2  5  2       -1 0.359399660330D-01 0.100000000000D+01
0.143188109696D-02 0.000000000000D+00 -.473722551808D-03 0.169547878840D-02 0.000000000000D+00  5 2 -1 25 24 21 2 0.93669824D-01 0.83204708D-01 0.20632542D+05 0.20632542D+05 0.20632542D+05 0.12323401D+01  1  2  5  2  5  2       -1 0.193628563506D-01 0.100000000000D+01
0.322856020357D-03 0.000000000000D+00 -.135436834145D-03 0.169547878840D-02 0.000000000000D+00  5 2 21 25 24 1 2 0.93669824D-01 0.83204708D-01 0.20632542D+05 0.20632542D+05 0.20632542D+05 0.12323401D+01  1  2  5  4  5  2       -1 0.397345777839D-01 0.100000000000D+01
  </mgrwgt>
  </event>
  <event>
  4     66 0.48098993E-03 0.48694686E+02 0.75467711E-02 0.12370637E+00
        2 -1    0    0  501    0 0.00000000E+00 0.00000000E+00 0.82018462E+03 0.82018468E+03 0.32000000E+00 0.0000E+00 0.9000E+01
       -1 -1    0    0    0  501 0.00000000E+00 0.00000000E+00 -.15206314E+02 0.15209680E+02 0.32000000E+00 0.0000E+00 0.9000E+01
       25  1    1    2    0    0 -.41260147E+02 0.11493540E+02 0.46286604E+03 0.48135691E+03 0.12500000E+03 0.0000E+00 0.9000E+01
       24  1    1    2    0    0 0.41260147E+02 -.11493540E+02 0.34211226E+03 0.35403745E+03 0.80419002E+02 0.0000E+00 0.9000E+01
#aMCatNLO 1  0  0  1  2 0.23033520D+02 0.00000000D+00  -5  5  0 0.00000000D+00 0.00000000D+00 0.00000000D+00 0.00000000D+00 0.00000000D+00
  <mgrwgt>
 0.5533634394D+00    9    2    0
 0.111684452349513D+03 0.000000000000000D+00 0.000000000000000D+00 0.111684452349513D+03
 0.111684452349513D+03 0.000000000000000D+00 0.000000000000000D+00 -.111684452349513D+03
 0.132183688932977D+03 -.412601465486902D+02 0.114935403320708D+02 -.360921838433269D+01
 0.911852157660477D+02 0.412601465486902D+02 -.114935403320708D+02 0.360921838433269D+01
 0.000000000000000D+00 0.000000000000000D+00 -.000000000000000D+00 0.000000000000000D+00
 0.125151241976463D+03 0.000000000000000D+00 0.000000000000000D+00 0.125151241976463D+03
 0.122578835560142D+03 0.000000000000000D+00 0.000000000000000D+00 -.122578835560142D+03
 0.137286328625672D+03 -.542576747336747D+02 0.162976778304426D+02 -.360921838433269D+01
 0.872670294774117D+02 0.326527396533357D+02 -.831207646900424D+01 0.360921838433269D+01
 0.231767194335220D+02 0.216049350803390D+02 -.798560136143836D+01 0.257240641632076D+01
0.132731498546D-03 0.000000000000D+00 0.000000000000D+00 0.296442629073D-02 0.000000000000D+00  5 2 -1 25 24 21 0 0.12618251D+00 0.23396967D-02 0.12459936D+05 0.12459936D+05 0.12459936D+05 0.12571142D+01  1  2  2  1  5  1        2 0.264103693115D+00 0.100000000000D+01
-.737396952042D-05 0.000000000000D+00 -.509723903424D-06 0.296442629073D-02 0.000000000000D+00  5 2 -1 25 24 21 2 0.12618251D+00 0.23396967D-02 0.12459936D+05 0.12459936D+05 0.12459936D+05 0.12571142D+01  1  2  3  1  5  1        2 -.231873590227D-01 0.100000000000D+01
0.918366725319D-05 0.000000000000D+00 0.000000000000D+00 0.296442629073D-02 0.000000000000D+00  5 2 -1 25 24 21 2 0.12618251D+00 0.23396967D-02 0.12459936D+05 0.12459936D+05 0.12459936D+05 0.12571142D+01  1  2 15  1  5  1        2 0.288779319137D-01 0.100000000000D+01
0.144416372789D-03 0.000000000000D+00 0.000000000000D+00 0.296442629073D-02 0.000000000000D+00  5 2 -1 25 24 21 2 0.14689591D+00 0.23396967D-02 0.15309702D+05 0.15309702D+05 0.15309702D+05 0.12468120D+01  1  2 12  1  5  1        2 0.370094272042D+00 0.100000000000D+01
-.124759504242D-03 0.000000000000D+00 0.000000000000D+00 0.296442629073D-02 0.000000000000D+00  5 2 -1 25 24 21 2 0.12618251D+00 0.23396967D-02 0.12459936D+05 0.12459936D+05 0.12459936D+05 0.12571142D+01  1  2  4  1  5  1        2 -.392304769952D+00 0.100000000000D+01
-.415144587924D-03 0.000000000000D+00 -.109130468537D-03 0.296442629073D-02 0.000000000000D+00  5 2 -1 25 24 21 2 0.15139826D+00 0.23396967D-02 0.12459936D+05 0.12459936D+05 0.12459936D+05 0.12571142D+01  1  2  5  1  5  1        2 -.103094399027D+01 0.100000000000D+01
0.429662588279D-03 0.000000000000D+00 0.107344096665D-03 0.296442629073D-02 0.000000000000D+00  5 2 -1 25 24 21 2 0.12618251D+00 0.23396967D-02 0.12459936D+05 0.12459936D+05 0.12459936D+05 0.12571142D+01  1  2  6  1  5  1        2 0.135106887348D+01 0.100000000000D+01
0.332965488501D-05 0.000000000000D+00 0.000000000000D+00 0.296442629073D-02 0.000000000000D+00  5 21 -1 25 24 -2 2 0.14689591D+00 0.23396967D-02 0.15309702D+05 0.15309702D+05 0.15309702D+05 0.12468120D+01  1  2 12  3  5  1        2 0.786348189730D-02 0.100000000000D+01
-.998361334677D-05 0.000000000000D+00 -.290545790621D-05 0.296442629073D-02 0.000000000000D+00  5 21 -1 25 24 -2 2 0.15139826D+00 0.23396967D-02 0.12459936D+05 0.12459936D+05 0.12459936D+05 0.12571142D+01  1  2  5  3  5  1        2 -.222086937615D-01 0.100000000000D+01
  </mgrwgt>
  </event>
  <event>
  4     66 0.48098993E-03 0.65186150E+02 0.75467711E-02 0.12013540E+00
        2 -1    0    0  501    0 0.00000000E+00 0.00000000E+00 0.33917760E+03 0.33917776E+03 0.32000000E+00 0.0000E+00 0.9000E+01
       -1 -1    0    0    0  501 0.00000000E+00 0.00000000E+00 -.54030217E+02 0.54031165E+02 0.32000000E+00 0.0000E+00 0.9000E+01
       25  1    1    2    0    0 0.53579645E+01 -.79598669E+02 0.21072207E+03 0.25766926E+03 0.12500000E+03 0.0000E+00 0.9000E+01
       24  1    1    2    0    0 -.53579645E+01 0.79598669E+02 0.74425315E+02 0.13553966E+03 0.80419002E+02 0.0000E+00 0.9000E+01
#aMCatNLO 1  0  0  1  2 0.34836039D+02 0.00000000D+00  -5  5  0 0.00000000D+00 0.00000000D+00 0.00000000D+00 0.00000000D+00 0.00000000D+00
  <mgrwgt>
 0.3915205366D+00    9    2    0
 0.135373762442954D+03 0.000000000000000D+00 0.000000000000000D+00 0.135373762442954D+03
 0.135373762442954D+03 0.000000000000000D+00 0.000000000000000D+00 -.135373762442954D+03
 0.152285798941696D+03 0.535796448663334D+01 -.795986690192717D+02 0.346598999743392D+02
 0.118461725944211D+03 -.535796448663334D+01 0.795986690192717D+02 -.346598999743392D+02
 0.000000000000000D+00 0.000000000000000D+00 0.000000000000000D+00 0.000000000000000D+00
 0.162322980588753D+03 0.000000000000000D+00 0.000000000000000D+00 0.162322980588753D+03
 0.148233777527431D+03 0.000000000000000D+00 0.000000000000000D+00 -.148233777527431D+03
 0.159918432159004D+03 -.944596634360930D+01 -.930503626956838D+02 0.346598999743392D+02
 0.113061002629441D+03 -.163361836073341D+02 0.696232346283926D+02 -.346598999743392D+02
 0.375773233277381D+02 0.257821499509434D+02 0.234271280672912D+02 0.140892030613225D+02
0.292443926620D-03 0.000000000000D+00 0.000000000000D+00 0.240264826085D-02 0.000000000000D+00  5 2 -1 25 24 21 0 0.52181254D-01 0.83124256D-02 0.17104317D+05 0.17104317D+05 0.17104317D+05 0.12413747D+01  1  2  2  1  5  1        2 0.245242742338D+00 0.100000000000D+01
-.162233776009D-04 0.000000000000D+00 -.112306168047D-05 0.240264826085D-02 0.000000000000D+00  5 2 -1 25 24 21 2 0.52181254D-01 0.83124256D-02 0.17104317D+05 0.17104317D+05 0.17104317D+05 0.12413747D+01  1  2  3  1  5  1        2 -.209652788802D-01 0.100000000000D+01
0.202392554254D-04 0.000000000000D+00 0.000000000000D+00 0.240264826085D-02 0.000000000000D+00  5 2 -1 25 24 21 2 0.52181254D-01 0.83124256D-02 0.17104317D+05 0.17104317D+05 0.17104317D+05 0.12413747D+01  1  2 15  1  5  1        2 0.261549502674D-01 0.100000000000D+01
0.313689720085D-03 0.000000000000D+00 0.000000000000D+00 0.240264826085D-02 0.000000000000D+00  5 2 -1 25 24 21 2 0.64662244D-01 0.83124256D-02 0.22286098D+05 0.22286098D+05 0.22286098D+05 0.12286846D+01  1  2 12  1  5  1        2 0.318510182829D+00 0.100000000000D+01
-.313645709241D-03 0.000000000000D+00 0.000000000000D+00 0.240264826085D-02 0.000000000000D+00  5 2 -1 25 24 21 2 0.52181254D-01 0.83124256D-02 0.17104317D+05 0.17104317D+05 0.17104317D+05 0.12413747D+01  1  2  4  1  5  1        2 -.405320638252D+00 0.100000000000D+01
-.664024209758D-03 0.000000000000D+00 -.194365307776D-03 0.240264826085D-02 0.000000000000D+00  5 2 -1 25 24 21 2 0.67519505D-01 0.83124256D-02 0.17104317D+05 0.17104317D+05 0.17104317D+05 0.12413747D+01  1  2  5  1  5  1        2 -.651952619073D+00 0.100000000000D+01
0.697115819473D-03 0.000000000000D+00 0.188085683534D-03 0.240264826085D-02 0.000000000000D+00  5 2 -1 25 24 21 2 0.52181254D-01 0.83124256D-02 0.17104317D+05 0.17104317D+05 0.17104317D+05 0.12413747D+01  1  2  6  1  5  1        2 0.900874523577D+00 0.100000000000D+01
0.946702563141D-05 0.000000000000D+00 0.000000000000D+00 0.240264826085D-02 0.000000000000D+00  5 21 -1 25 24 -2 2 0.64662244D-01 0.83124256D-02 0.22286098D+05 0.22286098D+05 0.22286098D+05 0.12286846D+01  1  2 12  3  5  1        2 0.228272519061D-01 0.100000000000D+01
-.195572021766D-04 0.000000000000D+00 -.672634792843D-05 0.240264826085D-02 0.000000000000D+00  5 21 -1 25 24 -2 2 0.67519505D-01 0.83124256D-02 0.17104317D+05 0.17104317D+05 0.17104317D+05 0.12413747D+01  1  2  5  3  5  1        2 -.438505780888D-01 0.100000000000D+01
  </mgrwgt>
  </event>
  <event>
  4     66 -.48098993E-03 0.68507525E+02 0.75467711E-02 0.11881084E+00
        2 -1    0    0  501    0 0.00000000E+00 0.00000000E+00 0.20697036E+02 0.20699510E+02 0.32000000E+00 0.0000E+00 0.9000E+01
       -1 -1    0    0    0  501 0.00000000E+00 0.00000000E+00 -.65175068E+03 0.65175076E+03 0.32000000E+00 0.0000E+00 0.9000E+01
       25  1    1    2    0    0 -.34144419E+02 -.11102773E+02 -.25534594E+03 0.28655831E+03 0.12500000E+03 0.0000E+00 0.9000E+01
       24  1    1    2    0    0 0.34144419E+02 0.11102773E+02 -.37570770E+03 0.38589196E+03 0.80419002E+02 0.0000E+00 0.9000E+01
#aMCatNLO 1  0  0  1  2 0.86145656D+02 0.00000000D+00  -5  5  0 0.00000000D+00 0.00000000D+00 0.00000000D+00 0.00000000D+00 0.00000000D+00
  <mgrwgt>
 -.1422166086D+01    7    2    0
 0.116147171486433D+03 0.000000000000000D+00 0.000000000000000D+00 0.116147171486433D+03
 0.116147171486433D+03 0.000000000000000D+00 0.000000000000000D+00 -.116147171486433D+03
 0.135858766543871D+03 -.341444187230971D+02 -.111027725879719D+02 0.392872951186980D+02
 0.964355764289954D+02 0.341444187230971D+02 0.111027725879719D+02 -.392872951186980D+02
 0.000000000000000D+00 -.000000000000000D+00 -.000000000000000D+00 0.000000000000000D+00
 0.154210066659198D+04 0.000000000000000D+00 0.000000000000000D+00 0.154210066659198D+04
 0.125184851794080D+03 0.000000000000000D+00 0.000000000000000D+00 -.125184851794080D+03
 0.132090468789752D+03 0.578970487712890D+01 0.156805518011534D+02 0.392872951186980D+02
 0.115662908260025D+03 0.657547612286320D+02 0.323034396128094D+02 -.392872951186980D+02
 0.141953214133628D+04 -.715444661057609D+02 -.479839914139629D+02 0.141691581479790D+04
0.890372092109D-03 0.000000000000D+00 0.000000000000D+00 0.258150855751D-02 0.000000000000D+00  5 2 -1 25 24 21 0 0.31843557D-02 0.10026953D+00 0.11894552D+05 0.11894552D+05 0.11894552D+05 0.12594736D+01  1  2  2  1  5  1        2 0.279264469998D+00 0.100000000000D+01
-.492268637849D-04 0.000000000000D+00 -.341926327405D-05 0.258150855751D-02 0.000000000000D+00  5 2 -1 25 24 21 2 0.31843557D-02 0.10026953D+00 0.11894552D+05 0.11894552D+05 0.11894552D+05 0.12594736D+01  1  2  3  1  5  1        2 -.244920112260D-01 0.100000000000D+01
0.616867984202D-04 0.000000000000D+00 0.000000000000D+00 0.258150855751D-02 0.000000000000D+00  5 2 -1 25 24 21 2 0.31843557D-02 0.10026953D+00 0.11894552D+05 0.11894552D+05 0.11894552D+05 0.12594736D+01  1  2 15  1  5  1        2 0.306912454551D-01 0.100000000000D+01
0.350627889851D-02 0.000000000000D+00 0.000000000000D+00 0.258150855751D-02 0.000000000000D+00  5 2 -1 25 24 21 2 0.39877691D-01 0.10026953D+00 0.25767379D+05 0.25767379D+05 0.25767379D+05 0.12218924D+01  1  2 12  1  5  1        2 0.785707807672D-01 0.100000000000D+01
-.414849121274D-01 0.000000000000D+00 -.102818202443D-02 0.258150855751D-02 0.000000000000D+00  5 2 -1 25 24 21 2 0.44184095D-01 0.10026953D+00 0.11894552D+05 0.11894552D+05 0.11894552D+05 0.12594736D+01  1  2  5  1  5  1        2 -.897574330125D+00 0.100000000000D+01
0.102552754372D-02 0.000000000000D+00 0.000000000000D+00 0.258150855751D-02 0.000000000000D+00  5 21 -1 25 24 -2 2 0.39877691D-01 0.10026953D+00 0.25767379D+05 0.25767379D+05 0.25767379D+05 0.12218924D+01  1  2 12  3  5  1        2 0.886997278328D-01 0.100000000000D+01
-.126567474264D-01 0.000000000000D+00 -.308324932055D-03 0.258150855751D-02 0.000000000000D+00  5 21 -1 25 24 -2 2 0.44184095D-01 0.10026953D+00 0.11894552D+05 0.11894552D+05 0.11894552D+05 0.12594736D+01  1  2  5  3  5  1        2 -.977325968312D+00 0.100000000000D+01
  </mgrwgt>
  </event>
  <event>
  4     66 0.48098993E-03 0.11316984E+03 0.75467711E-02 0.12504165E+00
        2 -1    0    0  501    0 0.00000000E+00 0.00000000E+00 0.84203685E+03 0.84203691E+03 0.32000000E+00 0.0000E+00 0.9000E+01
       -1 -1    0    0    0  501 0.00000000E+00 0.00000000E+00 -.16359967E+02 0.16363097E+02 0.32000000E+00 0.0000E+00 0.9000E+01
       25  1    1    2    0    0 0.11135562E+01 0.46576011E+02 0.36928237E+03 0.39263855E+03 0.12500000E+03 0.0000E+00 0.9000E+01
       24  1    1    2    0    0 -.11135562E+01 -.46576011E+02 0.45639452E+03 0.46576146E+03 0.80419002E+02 0.0000E+00 0.9000E+01
#aMCatNLO 1  0  0  1  2 0.49319884D+01 0.00000000D+00  -5  5  0 0.00000000D+00 0.00000000D+00 0.00000000D+00 0.00000000D+00 0.00000000D+00
  <mgrwgt>
 0.3155822475D+00    6    2    0
 0.117375740775959D+03 0.000000000000000D+00 0.000000000000000D+00 0.117375740775959D+03
 0.117375740775959D+03 0.000000000000000D+00 0.000000000000000D+00 -.117375740775959D+03
 0.136881015002746D+03 0.111355621605838D+01 0.465760106799547D+02 -.306732373556571D+02
 0.978704665491720D+02 -.111355621605838D+01 -.465760106799547D+02 0.306732373556571D+02
 0.000000000000000D+00 -.000000000000000D+00 0.000000000000000D+00 -.000000000000000D+00
 0.117857050124386D+03 0.000000000000000D+00 0.000000000000000D+00 0.117857050124386D+03
 0.130754793133527D+03 0.000000000000000D+00 0.000000000000000D+00 -.130754793133527D+03
 0.136379768520717D+03 0.348590797100039D+01 0.449604517048649D+02 -.306732373556571D+02
 0.984235163796536D+02 0.590597482402239D+00 -.477365303190619D+02 0.306732373556571D+02
 0.138085583575433D+02 -.407650545340263D+01 0.277607861419698D+01 -.128977430091414D+02
0.196240815399D-03 0.000000000000D+00 0.000000000000D+00 0.266924007642D-02 0.000000000000D+00  5 2 -1 25 24 21 0 0.12954438D+00 0.25171634D-02 0.12807413D+05 0.12807413D+05 0.12807413D+05 0.12557232D+01  1  2  2  1  5  1        2 0.340408238402D+00 0.100000000000D+01
-.108846169343D-04 0.000000000000D+00 -.753616402525D-06 0.266924007642D-02 0.000000000000D+00  5 2 -1 25 24 21 2 0.12954438D+00 0.25171634D-02 0.12807413D+05 0.12807413D+05 0.12807413D+05 0.12557232D+01  1  2  3  1  5  1        2 -.297722512599D-01 0.100000000000D+01
0.135814562654D-04 0.000000000000D+00 0.000000000000D+00 0.266924007642D-02 0.000000000000D+00  5 2 -1 25 24 21 2 0.12954438D+00 0.25171634D-02 0.12807413D+05 0.12807413D+05 0.12807413D+05 0.12557232D+01  1  2 15  1  5  1        2 0.371488065083D-01 0.100000000000D+01
-.296613507436D-04 0.000000000000D+00 0.000000000000D+00 0.266924007642D-02 0.000000000000D+00  5 2 -1 25 24 21 2 0.12954438D+00 0.25171634D-02 0.12807413D+05 0.12807413D+05 0.12807413D+05 0.12557232D+01  1  2  4  1  5  1        2 -.811314897324D-01 0.100000000000D+01
0.188208481679D-04 0.000000000000D+00 0.000000000000D+00 0.266924007642D-02 0.924789936388D-03  5 2 -1 25 24 21 2 0.13007558D+00 0.28040819D-02 0.13379492D+05 0.13379492D+05 0.13379492D+05 0.12535229D+01  1  2 11  1  5  1        2 0.437359505322D-01 0.100000000000D+01
0.207804115258D-05 0.000000000000D+00 0.000000000000D+00 0.266924007642D-02 0.746021448368D-06  5 21 -1 25 24 -2 2 0.13007558D+00 0.28040819D-02 0.13379492D+05 0.13379492D+05 0.13379492D+05 0.12535229D+01  1  2 11  3  5  1        2 0.519299300356D-02 0.100000000000D+01
  </mgrwgt>
  </event>
  <event>
  4     66 0.48098993E-03 0.11904685E+03 0.75467711E-02 0.11990283E+00
        2 -1    0    0  501    0 0.00000000E+00 0.00000000E+00 0.16930050E+03 0.16930080E+03 0.32000000E+00 0.0000E+00 0.9000E+01
       -1 -1    0    0    0  501 0.00000000E+00 0.00000000E+00 -.12225535E+03 0.12225577E+03 0.32000000E+00 0.0000E+00 0.9000E+01
       25  1    1    2    0    0 -.57340887E+02 -.14419277E+02 0.10724518E+03 0.17499263E+03 0.12500000E+03 0.0000E+00 0.9000E+01
       24  1    1    2    0    0 0.57340887E+02 0.14419277E+02 -.60200032E+02 0.11656394E+03 0.80419002E+02 0.0000E+00 0.9000E+01
#aMCatNLO 1  0  0  1  2 0.57631076D+02 0.00000000D+00  -5  5  0 0.00000000D+00 0.00000000D+00 0.00000000D+00 0.00000000D+00 0.00000000D+00
  <mgrwgt>
 0.2807899578D+00    4    2    0
 0.143867986206336D+03 0.000000000000000D+00 0.000000000000000D+00 0.143867986206336D+03
 0.143867986206336D+03 0.000000000000000D+00 0.000000000000000D+00 -.143867986206336D+03
 0.159781505758378D+03 -.573408873419357D+02 -.144192774889795D+02 0.800577082981375D+02
 0.127954466654294D+03 0.573408873419357D+02 0.144192774889795D+02 -.800577082981375D+02
 0.000000000000000D+00 0.000000000000000D+00 -.000000000000000D+00 -.000000000000000D+00
 0.158133259626189D+03 0.000000000000000D+00 0.000000000000000D+00 0.158133259626189D+03
 0.219511381624988D+03 0.000000000000000D+00 0.000000000000000D+00 -.219511381624988D+03
 0.164962401649286D+03 -.703742870483865D+02 0.150272094010182D+02 0.800577082981375D+02
 0.128488327972587D+03 0.470487113596602D+02 0.376724909219735D+02 -.800577082981375D+02
 0.841939116293044D+02 0.233255756887263D+02 -.526997003229917D+02 -.613781219987993D+02
0.676915407207D-03 0.000000000000D+00 0.000000000000D+00 0.177158679502D-02 0.000000000000D+00  5 2 -1 25 24 21 0 0.26046286D-01 0.18808571D-01 0.14172151D+05 0.14172151D+05 0.14172151D+05 0.12506431D+01  1  2  2  1  5  1        2 0.335438395864D+00 0.100000000000D+01
-.359665498035D-04 0.000000000000D+00 -.259953339959D-05 0.177158679502D-02 0.000000000000D+00  5 2 -1 25 24 21 2 0.26046286D-01 0.18808571D-01 0.14172151D+05 0.14172151D+05 0.14172151D+05 0.12506431D+01  1  2  3  1  5  1        2 -.278768659521D-01 0.100000000000D+01
0.464543018510D-04 0.000000000000D+00 0.000000000000D+00 0.177158679502D-02 0.000000000000D+00  5 2 -1 25 24 21 2 0.26046286D-01 0.18808571D-01 0.14172151D+05 0.14172151D+05 0.14172151D+05 0.12506431D+01  1  2 15  1  5  1        2 0.360056873032D-01 0.100000000000D+01
-.809948088455D-04 0.000000000000D+00 0.000000000000D+00 0.177158679502D-02 0.000000000000D+00  5 2 -1 25 24 21 2 0.26046286D-01 0.18808571D-01 0.14172151D+05 0.14172151D+05 0.14172151D+05 0.12506431D+01  1  2  4  1  5  1        2 -.627772594630D-01 0.100000000000D+01
  </mgrwgt>
  </event>
  <event>
  4     66 0.48098993E-03 0.11951769E+03 0.75467711E-02 0.11311902E+00
        2 -1    0    0  501    0 0.00000000E+00 0.00000000E+00 0.20803805E+04 0.20803805E+04 0.32000000E+00 0.0000E+00 0.9000E+01
       -1 -1    0    0    0  501 0.00000000E+00 0.00000000E+00 -.13062284E+02 0.13066203E+02 0.32000000E+00 0.0000E+00 0.9000E+01
       25  1    1    2    0    0 0.34769978E+02 -.48952629E+02 0.18368138E+04 0.18420410E+04 0.12500000E+03 0.0000E+00 0.9000E+01
       24  1    1    2    0    0 -.34769978E+02 0.48952629E+02 0.23050444E+03 0.25140570E+03 0.80419002E+02 0.0000E+00 0.9000E+01
#aMCatNLO 1  0  0  2  2 0.16312128D+03 0.00000000D+00  -5  5  0 0.00000000D+00 0.00000000D+00 0.00000000D+00 0.00000000D+00 0.00000000D+00
  <mgrwgt>
 0.3214404244D+00    5    2    0
 0.164859479577862D+03 0.000000000000000D+00 0.000000000000000D+00 0.164859479577862D+03
 0.164859479577862D+03 0.000000000000000D+00 0.000000000000000D+00 -.164859479577862D+03
 0.178746736878865D+03 0.347699780334939D+02 -.489526289059925D+02 0.112783352918704D+03
 0.150972222276858D+03 -.347699780334939D+02 0.489526289059925D+02 -.112783352918704D+03
 0.000000000000000D+00 0.000000000000000D+00 0.000000000000000D+00 -.000000000000000D+00
 0.215737632426040D+03 0.000000000000000D+00 0.000000000000000D+00 0.215737632426040D+03
 0.393077673871174D+03 0.000000000000000D+00 0.000000000000000D+00 -.393077673871174D+03
 0.220854201637539D+03 0.210448072204503D+02 -.141381079973325D+03 0.112783352918704D+03
 0.147008739944021D+03 -.450047878432531D+02 -.199709299021620D+02 -.112783352918704D+03
 0.240952364715655D+03 0.239599806228027D+02 0.161352009875487D+03 -.177340041445133D+03
0.576289905475D-03 0.000000000000D+00 0.000000000000D+00 0.130488479326D-02 0.000000000000D+00  5 2 -1 25 24 21 0 0.32005884D+00 0.20098854D-02 0.14284478D+05 0.14284478D+05 0.14284478D+05 0.12502497D+01  1  2  2  2  5  2       -1 0.298618445155D+00 0.100000000000D+01
-.279893005233D-04 0.000000000000D+00 -.221310497764D-05 0.130488479326D-02 0.000000000000D+00  5 2 -1 25 24 21 2 0.32005884D+00 0.20098854D-02 0.14284478D+05 0.14284478D+05 0.14284478D+05 0.12502497D+01  1  2  3  2  5  2       -1 -.226705044574D-01 0.100000000000D+01
0.394003731663D-04 0.000000000000D+00 0.000000000000D+00 0.130488479326D-02 0.000000000000D+00  5 2 -1 25 24 21 2 0.32005884D+00 0.20098854D-02 0.14284478D+05 0.14284478D+05 0.14284478D+05 0.12502497D+01  1  2 15  2  5  2       -1 0.319131353335D-01 0.100000000000D+01
-.492374545770D-05 0.000000000000D+00 -.179477941107D-03 0.130488479326D-02 0.000000000000D+00  5 2 -1 25 24 21 2 0.32005884D+00 0.67010474D-02 0.14284478D+05 0.14284478D+05 0.14284478D+05 0.12502497D+01  1  2  5  2  5  2       -1 -.686444883885D-03 0.100000000000D+01
0.619125524681D-05 0.000000000000D+00 -.250746688417D-04 0.130488479326D-02 0.000000000000D+00  5 2 21 25 24 1 2 0.32005884D+00 0.67010474D-02 0.14284478D+05 0.14284478D+05 0.14284478D+05 0.12502497D+01  1  2  5  4  5  2       -1 0.142657932764D-01 0.100000000000D+01
  </mgrwgt>
  </event>
  <event>
  4     66 0.48098993E-03 0.10668879E+03 0.75467711E-02 0.10736994E+00
        2 -1    0    0  501    0 0.00000000E+00 0.00000000E+00 0.17939085E+03 0.17939114E+03 0.32000000E+00 0.0000E+00 0.9000E+01
       -1 -1    0    0    0  501 0.00000000E+00 0.00000000E+00 -.63573156E+02 0.63573961E+02 0.32000000E+00 0.0000E+00 0.9000E+01
       25  1    1    2    0    0 -.27711303E+02 0.53821069E+01 0.64298005E+02 0.14337405E+03 0.12500000E+03 0.0000E+00 0.9000E+01
       24  1    1    2    0    0 0.27711303E+02 -.53821069E+01 0.51519692E+02 0.99591054E+02 0.80419002E+02 0.0000E+00 0.9000E+01
#aMCatNLO 1  0  0  1  1 0.28916853D+03 0.00000000D+00  -5  5  0 0.00000000D+00 0.00000000D+00 0.00000000D+00 0.00000000D+00 0.00000000D+00
  <mgrwgt>
 0.2865163278D+00    5    2    0
 0.106792205398617D+03 0.000000000000000D+00 0.000000000000000D+00 0.106792205398617D+03
 0.106792205398617D+03 0.000000000000000D+00 0.000000000000000D+00 -.106792205398617D+03
 0.128230530441739D+03 -.277113034821380D+02 0.538210688969221D+01 -.460277330730307D+01
 0.853538803554951D+02 0.277113034821380D+02 -.538210688969221D+01 0.460277330730307D+01
 0.000000000000000D+00 -.000000000000000D+00 0.000000000000000D+00 0.000000000000000D+00
 0.900600055893027D+03 0.000000000000000D+00 0.000000000000000D+00 0.900600055893027D+03
 0.208747400892678D+03 0.000000000000000D+00 0.000000000000000D+00 -.208747400892678D+03
 0.178715301272477D+03 0.112899523617558D+03 -.595539331507348D+02 -.460277330730307D+01
 0.180779814213039D+03 0.149626231283539D+03 -.616841200172051D+02 0.460277330730307D+01
 0.749852341300189D+03 -.262525754901097D+03 0.121238053167940D+03 0.691852655000349D+03
0.215147741851D-03 0.000000000000D+00 0.000000000000D+00 0.310039482245D-02 0.000000000000D+00  5 2 -1 25 24 21 0 0.27598677D-01 0.97805694D-02 0.11382498D+05 0.11382498D+05 0.11382498D+05 0.12617220D+01  1  2  2  1  5  1        2 0.273495235782D+00 0.100000000000D+01
-.119526386841D-04 0.000000000000D+00 -.826223978410D-06 0.310039482245D-02 0.000000000000D+00  5 2 -1 25 24 21 2 0.27598677D-01 0.97805694D-02 0.11382498D+05 0.11382498D+05 0.11382498D+05 0.12617220D+01  1  2  3  1  5  1        2 -.241882314523D-01 0.100000000000D+01
0.148932460166D-04 0.000000000000D+00 0.000000000000D+00 0.310039482245D-02 0.000000000000D+00  5 2 -1 25 24 21 2 0.27598677D-01 0.97805694D-02 0.11382498D+05 0.11382498D+05 0.11382498D+05 0.12617220D+01  1  2 15  1  5  1        2 0.301390589348D-01 0.100000000000D+01
0.100768084407D-03 0.000000000000D+00 -.214109921926D-03 0.310039482245D-02 0.000000000000D+00  5 2 -1 25 24 21 2 0.33389772D+00 0.97805694D-02 0.11382498D+05 0.11382498D+05 0.11382498D+05 0.12617220D+01  1  2  5  1  5  1        2 0.732732613480D-02 0.100000000000D+01
-.115691952205D-04 0.000000000000D+00 -.620610700265D-04 0.310039482245D-02 0.000000000000D+00  5 21 -1 25 24 -2 2 0.33389772D+00 0.97805694D-02 0.11382498D+05 0.11382498D+05 0.11382498D+05 0.12617220D+01  1  2  5  3  5  1        2 -.257061583892D-03 0.100000000000D+01
  </mgrwgt>
  </event>
  <event>
  4     66 0.48098993E-03 0.12228046E+03 0.75467711E-02 0.10524759E+00
        2 -1    0    0  501    0 0.00000000E+00 0.00000000E+00 0.27176795E+03 0.27176814E+03 0.32000000E+00 0.0000E+00 0.9000E+01
       -1 -1    0    0    0  501 0.00000000E+00 0.00000000E+00 -.62050089E+02 0.62050914E+02 0.32000000E+00 0.0000E+00 0.9000E+01
       25  1    1    2    0    0 -.21496978E+02 0.61602199E+02 0.63496386E+02 0.15464069E+03 0.12500000E+03 0.0000E+00 0.9000E+01
       24  1    1    2    0    0 0.21496978E+02 -.61602199E+02 0.14622148E+03 0.17917837E+03 0.80419002E+02 0.0000E+00 0.9000E+01
#aMCatNLO 1  0  0  2  1 0.33625127D+03 0.00000000D+00  -5  5  0 0.00000000D+00 0.00000000D+00 0.00000000D+00 0.00000000D+00 0.00000000D+00
  <mgrwgt>
 0.3059831797D+00    5    2    0
 0.129859133782890D+03 0.000000000000000D+00 0.000000000000000D+00 0.129859133782890D+03
 0.129859133782890D+03 0.000000000000000D+00 0.000000000000000D+00 -.129859133782890D+03
 0.147489360819789D+03 -.214969779412840D+02 0.616021988838677D+02 -.432569137490673D+02
 0.112228906745991D+03 0.214969779412840D+02 -.616021988838677D+02 0.432569137490673D+02
 0.000000000000000D+00 0.000000000000000D+00 0.000000000000000D+00 -.000000000000000D+00
 0.228302949716035D+03 0.000000000000000D+00 0.000000000000000D+00 0.228302949716035D+03
 0.199404128438946D+04 0.000000000000000D+00 0.000000000000000D+00 -.199404128438946D+04
 0.260609907119613D+03 -.220841991078211D+03 0.406223839577452D+02 -.432569137490673D+02
 0.164264776525906D+03 -.113562408963321D+03 -.758163540147405D+02 0.432569137490673D+02
 0.179746955045998D+04 0.334404400041532D+03 0.351939700569953D+02 -.176573833467343D+04
0.371062010522D-03 0.000000000000D+00 0.000000000000D+00 0.236541974110D-02 0.000000000000D+00  5 2 -1 25 24 21 0 0.41810532D-01 0.95462455D-02 0.14952512D+05 0.14952512D+05 0.14952512D+05 0.12479796D+01  1  2  2  2  5  2       -1 0.317456617642D+00 0.100000000000D+01
-.205239242281D-04 0.000000000000D+00 -.142497582328D-05 0.236541974110D-02 0.000000000000D+00  5 2 -1 25 24 21 2 0.41810532D-01 0.95462455D-02 0.14952512D+05 0.14952512D+05 0.14952512D+05 0.12479796D+01  1  2  3  2  5  2       -1 -.273472232347D-01 0.100000000000D+01
0.256210369723D-04 0.000000000000D+00 0.000000000000D+00 0.236541974110D-02 0.000000000000D+00  5 2 -1 25 24 21 2 0.41810532D-01 0.95462455D-02 0.14952512D+05 0.14952512D+05 0.14952512D+05 0.12479796D+01  1  2 15  2  5  2       -1 0.341389010113D-01 0.100000000000D+01
-.112981763681D-02 0.000000000000D+00 -.513724747780D-03 0.236541974110D-02 0.000000000000D+00  5 2 -1 25 24 21 2 0.41810532D-01 0.21151578D+00 0.14952512D+05 0.14952512D+05 0.14952512D+05 0.12479796D+01  1  2  5  2  5  2       -1 -.367981003345D-02 0.100000000000D+01
-.505759662017D-03 0.000000000000D+00 -.167755376720D-03 0.236541974110D-02 0.000000000000D+00  5 2 21 25 24 1 2 0.41810532D-01 0.21151578D+00 0.14952512D+05 0.14952512D+05 0.14952512D+05 0.12479796D+01  1  2  5  4  5  2       -1 -.145853057178D-01 0.100000000000D+01
  </mgrwgt>
  </event>
  <event>
  4     66 0.48098993E-03 0.10344282E+03 0.75467711E-02 0.11946191E+00
        2 -1    0    0  501    0 0.00000000E+00 0.00000000E+00 0.11346032E+04 0.11346033E+04 0.32000000E+00 0.0000E+00 0.9000E+01
       -1 -1    0    0    0  501 0.00000000E+00 0.00000000E+00 -.94636958E+01 0.94691044E+01 0.32000000E+00 0.0000E+00 0.9000E+01
       25  1    1    2    0    0 0.11397724E+02 0.37744659E+01 0.71669273E+03 0.72761090E+03 0.12500000E+03 0.0000E+00 0.9000E+01
       24  1    1    2    0    0 -.11397724E+02 -.37744659E+01 0.40844679E+03 0.41646147E+03 0.80419002E+02 0.0000E+00 0.9000E+01
#aMCatNLO 1  0  0  1  1 0.85770173D+02 0.00000000D+00  -5  5  0 0.00000000D+00 0.00000000D+00 0.00000000D+00 0.00000000D+00 0.00000000D+00
  <mgrwgt>
 0.2143442947D+00    5    2    0
 0.103637152773184D+03 0.000000000000000D+00 0.000000000000000D+00 0.103637152773184D+03
 0.103637152773184D+03 0.000000000000000D+00 0.000000000000000D+00 -.103637152773184D+03
 0.125728130286026D+03 0.113977240117339D+02 0.377446585337949D+01 0.619742205227223D+01
 0.815461752603426D+02 -.113977240117339D+02 -.377446585337949D+01 -.619742205227223D+01
 0.000000000000000D+00 -.000000000000000D+00 0.000000000000000D+00 0.000000000000000D+00
 0.181055322052924D+03 0.000000000000000D+00 0.000000000000000D+00 0.181055322052924D+03
 0.138854097809051D+03 0.000000000000000D+00 0.000000000000000D+00 -.138854097809051D+03
 0.136249649817155D+03 0.295678429393872D+02 -.450144609999400D+02 0.619742205227223D+01
 0.880696768697499D+02 0.366404243743322D+00 -.353625471001144D+02 -.619742205227223D+01
 0.955900931750704D+02 -.299342471831305D+02 0.803770081000544D+02 0.422012242438732D+02
0.997489928847D-04 0.000000000000D+00 0.000000000000D+00 0.320056884138D-02 0.000000000000D+00  5 2 -1 25 24 21 0 0.17455476D+00 0.14563727D-02 0.10700416D+05 0.10700416D+05 0.10700416D+05 0.12649005D+01  1  2  2  1  5  1        2 0.251556578744D+00 0.100000000000D+01
-.554158697941D-05 0.000000000000D+00 -.383062397190D-06 0.320056884138D-02 0.000000000000D+00  5 2 -1 25 24 21 2 0.17455476D+00 0.14563727D-02 0.10700416D+05 0.10700416D+05 0.10700416D+05 0.12649005D+01  1  2  3  1  5  1        2 -.223601164964D-01 0.100000000000D+01
0.692123654064D-05 0.000000000000D+00 0.000000000000D+00 0.320056884138D-02 0.000000000000D+00  5 2 -1 25 24 21 2 0.17455476D+00 0.14563727D-02 0.10700416D+05 0.10700416D+05 0.10700416D+05 0.12649005D+01  1  2 15  1  5  1        2 0.279269559284D-01 0.100000000000D+01
-.406116073350D-04 0.000000000000D+00 -.317110727366D-04 0.320056884138D-02 0.000000000000D+00  5 2 -1 25 24 21 2 0.34963561D+00 0.14563727D-02 0.10700416D+05 0.10700416D+05 0.10700416D+05 0.12649005D+01  1  2  5  1  5  1        2 -.424403969925D-01 0.100000000000D+01
-.114735199890D-05 0.000000000000D+00 -.238334787562D-05 0.320056884138D-02 0.000000000000D+00  5 21 -1 25 24 -2 2 0.34963561D+00 0.14563727D-02 0.10700416D+05 0.10700416D+05 0.10700416D+05 0.12649005D+01  1  2  5  3  5  1        2 -.338726480900D-03 0.100000000000D+01
  </mgrwgt>
  </event>
  <event>
  4     66 0.48098993E-03 0.12418696E+03 0.75467711E-02 0.10213760E+00
        2 -1    0    0  501    0 0.00000000E+00 0.00000000E+00 0.13577531E+04 0.13577531E+04 0.32000000E+00 0.0000E+00 0.9000E+01
       -1 -1    0    0    0  501 0.00000000E+00 0.00000000E+00 -.13068208E+02 0.13072126E+02 0.32000000E+00 0.0000E+00 0.9000E+01
       25  1    1    2    0    0 0.57292794E+02 -.37864189E+02 0.51344594E+03 0.53288638E+03 0.12500000E+03 0.0000E+00 0.9000E+01
       24  1    1    2    0    0 -.57292794E+02 0.37864189E+02 0.83123896E+03 0.83793889E+03 0.80419002E+02 0.0000E+00 0.9000E+01
#aMCatNLO 1  0  0  2  1 0.43955383D+03 0.00000000D+00  -5  5  0 0.00000000D+00 0.00000000D+00 0.00000000D+00 0.00000000D+00 0.00000000D+00
  <mgrwgt>
 0.5289888685D+00    3    2    0
 0.133214531228286D+03 0.000000000000000D+00 0.000000000000000D+00 0.133214531228286D+03
 0.133214531228286D+03 0.000000000000000D+00 0.000000000000000D+00 -.133214531228286D+03
 0.150400689452151D+03 0.572927938637999D+02 -.378641886593890D+02 -.477410345104586D+02
 0.116028373004421D+03 -.572927938637999D+02 0.378641886593890D+02 0.477410345104586D+02
 0.000000000000000D+00 0.000000000000000D+00 -.000000000000000D+00 0.000000000000000D+00
 0.601569338087213D+03 0.000000000000000D+00 0.000000000000000D+00 0.601569338087213D+03
 0.397177739761059D+03 0.000000000000000D+00 0.000000000000000D+00 -.397177739761059D+03
 0.187739194586373D+03 -.414207783716240D+02 0.125004471627618D+03 -.477410345104586D+02
 0.326256925220851D+03 -.186409658794327D+03 0.250895591894810D+03 0.477410345104586D+02
 0.484750958041048D+03 0.227830437165951D+03 -.375900063522428D+03 0.204391598326154D+03
0.425382450039D-03 0.000000000000D+00 0.000000000000D+00 0.228364863483D-02 0.000000000000D+00  5 2 -1 25 24 21 0 0.20888540D+00 0.20107978D-02 0.15422402D+05 0.15422402D+05 0.15422402D+05 0.12464499D+01  1  2  2  2  5  2       -1 0.517921813497D+00 0.100000000000D+01
-.234908688523D-04 0.000000000000D+00 -.163358061392D-05 0.228364863483D-02 0.000000000000D+00  5 2 -1 25 24 21 2 0.20888540D+00 0.20107978D-02 0.15422402D+05 0.15422402D+05 0.15422402D+05 0.12464499D+01  1  2  3  2  5  2       -1 -.444358398503D-01 0.100000000000D+01
0.293414331281D-04 0.000000000000D+00 0.000000000000D+00 0.228364863483D-02 0.000000000000D+00  5 2 -1 25 24 21 2 0.20888540D+00 0.20107978D-02 0.15422402D+05 0.15422402D+05 0.15422402D+05 0.12464499D+01  1  2 15  2  5  2       -1 0.555028948335D-01 0.100000000000D+01
  </mgrwgt>
  </event>
  <event>
  4     66 0.48098993E-03 0.27039263E+03 0.75467711E-02 0.10676639E+00
        2 -1    0    0  501    0 0.00000000E+00 0.00000000E+00 0.46543854E+03 0.46543865E+03 0.32000000E+00 0.0000E+00 0.9000E+01
       -1 -1    0    0    0  501 0.00000000E+00 0.00000000E+00 -.16486631E+03 0.16486662E+03 0.32000000E+00 0.0000E+00 0.9000E+01
       25  1    1    2    0    0 0.23849477E+03 -.72512094E+02 0.86322131E+02 0.29191484E+03 0.12500000E+03 0.0000E+00 0.9000E+01
       24  1    1    2    0    0 -.23849477E+03 0.72512094E+02 0.21425010E+03 0.33839043E+03 0.80419002E+02 0.0000E+00 0.9000E+01
#aMCatNLO 1  0  0  1  1 0.12163605D+03 0.00000000D+00  -5  5  0 0.00000000D+00 0.00000000D+00 0.00000000D+00 0.00000000D+00 0.00000000D+00
  <mgrwgt>
 0.5572005785D+00    3    2    0
 0.277011309004513D+03 0.000000000000000D+00 0.000000000000000D+00 0.277011309004513D+03
 0.277011309004513D+03 0.000000000000000D+00 0.000000000000000D+00 -.277011309004513D+03
 0.285276119634934D+03 0.238494774264253D+03 -.725120939451656D+02 -.601639702338178D+02
 0.268746498374092D+03 -.238494774264253D+03 0.725120939451656D+02 0.601639702338178D+02
 0.000000000000000D+00 0.000000000000000D+00 0.000000000000000D+00 -.000000000000000D+00
 0.296016639763251D+03 0.000000000000000D+00 0.000000000000000D+00 0.296016639763251D+03
 0.581719649745831D+03 0.000000000000000D+00 0.000000000000000D+00 -.581719649745831D+03
 0.288753209383617D+03 0.216801843404721D+03 -.130884198096477D+03 -.601639702338178D+02
 0.278464904516263D+03 -.259174238759114D+03 0.168670608648630D+02 0.601639702338178D+02
 0.310518175609203D+03 0.423723953543927D+02 0.114017137231614D+03 -.285703009982579D+03
0.523372274741D-02 0.000000000000D+00 0.000000000000D+00 0.193634015222D-02 0.000000000000D+00  5 2 -1 25 24 21 0 0.71605961D-01 0.25364079D-01 0.73112177D+05 0.73112177D+05 0.73112177D+05 0.11762766D+01  1  2  2  1  5  1        2 0.547461659739D+00 0.100000000000D+01
-.290555623591D-03 0.000000000000D+00 -.200988734209D-04 0.193634015222D-02 0.000000000000D+00  5 2 -1 25 24 21 2 0.71605961D-01 0.25364079D-01 0.73112177D+05 0.73112177D+05 0.73112177D+05 0.11762766D+01  1  2  3  1  5  1        2 -.420524393615D-01 0.100000000000D+01
0.357845361015D-03 0.000000000000D+00 0.000000000000D+00 0.193634015222D-02 0.000000000000D+00  5 2 -1 25 24 21 2 0.71605961D-01 0.25364079D-01 0.73112177D+05 0.73112177D+05 0.73112177D+05 0.11762766D+01  1  2 15  1  5  1        2 0.517913580845D-01 0.100000000000D+01
  </mgrwgt>
  </event>
  <event>
  4     66 0.48098993E-03 0.81341765E+02 0.75467711E-02 0.11945503E+00
        2 -1    0    0  501    0 0.00000000E+00 0.00000000E+00 0.10036467E+04 0.10036468E+04 0.32000000E+00 0.0000E+00 0.9000E+01
       -1 -1    0    0    0  501 0.00000000E+00 0.00000000E+00 -.20094684E+02 0.20097232E+02 0.32000000E+00 0.0000E+00 0.9000E+01
       25  1    1    2    0    0 -.37473855E+02 -.87629143E+02 0.48518018E+03 0.51000781E+03 0.12500000E+03 0.0000E+00 0.9000E+01
       24  1    1    2    0    0 0.37473855E+02 0.87629143E+02 0.49837188E+03 0.51373622E+03 0.80419002E+02 0.0000E+00 0.9000E+01
#aMCatNLO 1  0  0  1  2 0.26684931D+02 0.00000000D+00  -5  5  0 0.00000000D+00 0.00000000D+00 0.00000000D+00 0.00000000D+00 0.00000000D+00
  <mgrwgt>
 0.4999728256D+00    9    2    0
 0.142018641029833D+03 0.000000000000000D+00 0.000000000000000D+00 0.142018641029833D+03
 0.142018641029833D+03 0.000000000000000D+00 0.000000000000000D+00 -.142018641029833D+03
 0.158139384016850D+03 -.374738547609242D+02 -.876291428182755D+02 -.173178611704827D+02
 0.125897898042816D+03 0.374738547609242D+02 0.876291428182755D+02 0.173178611704827D+02
 0.000000000000000D+00 -.000000000000000D+00 -.000000000000000D+00 0.000000000000000D+00
 0.191222115448099D+03 0.000000000000000D+00 0.000000000000000D+00 0.191222115448099D+03
 0.146308660744068D+03 0.000000000000000D+00 0.000000000000000D+00 -.146308660744068D+03
 0.154817477713402D+03 -.228327497285459D+02 -.867306671821057D+02 -.173178611704827D+02
 0.130470557700637D+03 0.494675764092573D+02 0.883651573925989D+02 0.173178611704827D+02
 0.522427407781292D+02 -.266348266807115D+02 -.163449021049317D+01 0.449134547040313D+02
0.333433754556D-03 0.000000000000D+00 0.000000000000D+00 0.244711810572D-02 0.000000000000D+00  5 2 -1 25 24 21 0 0.15440739D+00 0.30916898D-02 0.19865411D+05 0.19865411D+05 0.19865411D+05 0.12341490D+01  1  2  2  1  5  1        2 0.345592531059D+00 0.100000000000D+01
-.185227997678D-04 0.000000000000D+00 -.128047341262D-05 0.244711810572D-02 0.000000000000D+00  5 2 -1 25 24 21 2 0.15440739D+00 0.30916898D-02 0.19865411D+05 0.19865411D+05 0.19865411D+05 0.12341490D+01  1  2  3  1  5  1        2 -.292412960405D-01 0.100000000000D+01
0.230084431377D-04 0.000000000000D+00 0.000000000000D+00 0.244711810572D-02 0.000000000000D+00  5 2 -1 25 24 21 2 0.15440739D+00 0.30916898D-02 0.19865411D+05 0.19865411D+05 0.19865411D+05 0.12341490D+01  1  2 15  1  5  1        2 0.363226243145D-01 0.100000000000D+01
0.971801886431D-03 0.000000000000D+00 0.000000000000D+00 0.244711810572D-02 0.000000000000D+00  5 2 -1 25 24 21 2 0.20964003D+00 0.30916898D-02 0.24001274D+05 0.24001274D+05 0.24001274D+05 0.12252005D+01  1  2 12  1  5  1        2 0.954770235299D+00 0.100000000000D+01
-.969111583306D-03 0.000000000000D+00 0.000000000000D+00 0.244711810572D-02 0.000000000000D+00  5 2 -1 25 24 21 2 0.15440739D+00 0.30916898D-02 0.19865411D+05 0.19865411D+05 0.19865411D+05 0.12341490D+01  1  2  4  1  5  1        2 -.152990255571D+01 0.100000000000D+01
-.122421879630D-02 0.000000000000D+00 -.171125660490D-03 0.244711810572D-02 0.000000000000D+00  5 2 -1 25 24 21 2 0.21043370D+00 0.30916898D-02 0.19865411D+05 0.19865411D+05 0.19865411D+05 0.12341490D+01  1  2  5  1  5  1        2 -.120898831190D+01 0.100000000000D+01
0.122586756270D-02 0.000000000000D+00 0.163240708193D-03 0.244711810572D-02 0.000000000000D+00  5 2 -1 25 24 21 2 0.15440739D+00 0.30916898D-02 0.19865411D+05 0.19865411D+05 0.19865411D+05 0.12341490D+01  1  2  6  1  5  1        2 0.193523423870D+01 0.100000000000D+01
0.380880698387D-04 0.000000000000D+00 0.000000000000D+00 0.244711810572D-02 0.000000000000D+00  5 21 -1 25 24 -2 2 0.20964003D+00 0.30916898D-02 0.24001274D+05 0.24001274D+05 0.24001274D+05 0.12252005D+01  1  2 12  3  5  1        2 0.215150117657D-01 0.100000000000D+01
-.443806941376D-04 0.000000000000D+00 -.676666230520D-05 0.244711810572D-02 0.000000000000D+00  5 21 -1 25 24 -2 2 0.21043370D+00 0.30916898D-02 0.19865411D+05 0.19865411D+05 0.19865411D+05 0.12341490D+01  1  2  5  3  5  1        2 -.253296519230D-01 0.100000000000D+01
  </mgrwgt>
  </event>
  <event>
  4     66 0.48098993E-03 0.24046587E+03 0.75467711E-02 0.11173354E+00
        2 -1    0    0  501    0 0.00000000E+00 0.00000000E+00 0.18010060E+04 0.18010061E+04 0.32000000E+00 0.0000E+00 0.9000E+01
       -1 -1    0    0    0  501 0.00000000E+00 0.00000000E+00 -.41991006E+02 0.41992225E+02 0.32000000E+00 0.0000E+00 0.9000E+01
       25  1    1    2    0    0 0.11822392E+03 -.18136008E+03 0.13529671E+04 0.13758682E+04 0.12500000E+03 0.0000E+00 0.9000E+01
       24  1    1    2    0    0 -.11822392E+03 0.18136008E+03 0.40604798E+03 0.46713012E+03 0.80419002E+02 0.0000E+00 0.9000E+01
#aMCatNLO 1  0  0  1  2 0.64873281D+01 0.00000000D+00  -5  5  0 0.00000000D+00 0.00000000D+00 0.00000000D+00 0.00000000D+00 0.00000000D+00
  <mgrwgt>
 0.3685591246D+00    6    2    0
 0.275004007920781D+03 0.000000000000000D+00 0.000000000000000D+00 0.275004007920781D+03
 0.275004007920781D+03 0.000000000000000D+00 0.000000000000000D+00 -.275004007920781D+03
 0.283329144811393D+03 0.118223920773348D+03 -.181360077882930D+03 0.133349281988430D+03
 0.266678871030170D+03 -.118223920773348D+03 0.181360077882930D+03 -.133349281988430D+03
 0.000000000000000D+00 0.000000000000000D+00 0.000000000000000D+00 -.000000000000000D+00
 0.275250445272196D+03 0.000000000000000D+00 0.000000000000000D+00 0.275250445272196D+03
 0.321309808902952D+03 0.000000000000000D+00 0.000000000000000D+00 -.321309808902952D+03
 0.283860954871527D+03 0.115845082611970D+03 -.183711533465841D+03 0.133349281988430D+03
 0.266185318560512D+03 -.120458793472535D+03 0.179150930589550D+03 -.133349281988430D+03
 0.465139807431099D+02 0.461371086056548D+01 0.456060287629161D+01 -.460593636307565D+02
0.295397121921D-02 0.000000000000D+00 0.000000000000D+00 0.156608383896D-02 0.000000000000D+00  5 2 -1 25 24 21 0 0.27707795D+00 0.64602507D-02 0.57823834D+05 0.57823834D+05 0.57823834D+05 0.11860791D+01  1  2  2  1  5  1        2 0.380537690728D+00 0.100000000000D+01
-.160515588196D-03 0.000000000000D+00 -.113440272803D-04 0.156608383896D-02 0.000000000000D+00  5 2 -1 25 24 21 2 0.27707795D+00 0.64602507D-02 0.57823834D+05 0.57823834D+05 0.57823834D+05 0.11860791D+01  1  2  3  1  5  1        2 -.290894788007D-01 0.100000000000D+01
0.202570182007D-03 0.000000000000D+00 0.000000000000D+00 0.156608383896D-02 0.000000000000D+00  5 2 -1 25 24 21 2 0.27707795D+00 0.64602507D-02 0.57823834D+05 0.57823834D+05 0.57823834D+05 0.11860791D+01  1  2 15  1  5  1        2 0.367108333923D-01 0.100000000000D+01
-.119790462374D-03 0.000000000000D+00 0.000000000000D+00 0.156608383896D-02 0.000000000000D+00  5 2 -1 25 24 21 2 0.27707795D+00 0.64602507D-02 0.57823834D+05 0.57823834D+05 0.57823834D+05 0.11860791D+01  1  2  4  1  5  1        2 -.217090573875D-01 0.100000000000D+01
0.128385801081D-04 0.000000000000D+00 0.000000000000D+00 0.156608383896D-02 0.281953486497D-03  5 2 -1 25 24 21 2 0.27732624D+00 0.75480424D-02 0.59402254D+05 0.59402254D+05 0.59402254D+05 0.11849410D+01  1  2 11  1  5  1        2 0.182869889008D-02 0.100000000000D+01
0.538381772857D-05 0.000000000000D+00 0.000000000000D+00 0.156608383896D-02 0.512974797603D-07  5 21 -1 25 24 -2 2 0.27732624D+00 0.75480424D-02 0.59402254D+05 0.59402254D+05 0.59402254D+05 0.11849410D+01  1  2 11  3  5  1        2 0.280437786730D-03 0.100000000000D+01
  </mgrwgt>
  </event>
  <event>
  4     66 0.48098993E-03 0.10353121E+03 0.75467711E-02 0.12185078E+00
        2 -1    0    0  501    0 0.00000000E+00 0.00000000E+00 0.63778986E+03 0.63778994E+03 0.32000000E+00 0.0000E+00 0.9000E+01
       -1 -1    0    0    0  501 0.00000000E+00 0.00000000E+00 -.17886549E+02 0.17889411E+02 0.32000000E+00 0.0000E+00 0.9000E+01
       25  1    1    2    0    0 -.10425131E+02 0.72753610E+01 0.29326681E+03 0.31904864E+03 0.12500000E+03 0.0000E+00 0.9000E+01
       24  1    1    2    0    0 0.10425131E+02 -.72753610E+01 0.32663650E+03 0.33663071E+03 0.80419002E+02 0.0000E+00 0.9000E+01
#aMCatNLO 1  0  0  1  2 0.57475140D+02 0.00000000D+00  -5  5  0 0.00000000D+00 0.00000000D+00 0.00000000D+00 0.00000000D+00 0.00000000D+00
  <mgrwgt>
 0.3387310914D+00    4    2    0
 0.106812096818491D+03 0.000000000000000D+00 0.000000000000000D+00 0.106812096818491D+03
 0.106812096818491D+03 0.000000000000000D+00 0.000000000000000D+00 -.106812096818491D+03
 0.128246429441863D+03 -.104251309240044D+02 0.727536096955244D+01 -.257008255230605D+02
 0.853777641951185D+02 0.104251309240044D+02 -.727536096955244D+01 0.257008255230605D+02
 0.000000000000000D+00 -.000000000000000D+00 0.000000000000000D+00 -.000000000000000D+00
 0.130517034984653D+03 0.000000000000000D+00 0.000000000000000D+00 0.130517034984653D+03
 0.152096622362842D+03 0.000000000000000D+00 0.000000000000000D+00 -.152096622362842D+03
 0.129775323602269D+03 0.233998452075997D+02 0.292394045205815D+01 -.257008255230605D+02
 0.914455791816661D+02 0.336055228819150D+02 -.102574069221279D+02 0.257008255230605D+02
 0.613927545635607D+02 -.570053680895147D+02 0.733346647006975D+01 -.215795873781891D+02
0.246377540745D-03 0.000000000000D+00 0.000000000000D+00 0.295549250313D-02 0.000000000000D+00  5 2 -1 25 24 21 0 0.98121744D-01 0.27520030D-02 0.10718712D+05 0.10718712D+05 0.10718712D+05 0.12648123D+01  1  2  2  1  5  1        2 0.519908228256D+00 0.100000000000D+01
-.136714430043D-04 0.000000000000D+00 -.946154629157D-06 0.295549250313D-02 0.000000000000D+00  5 2 -1 25 24 21 2 0.98121744D-01 0.27520030D-02 0.10718712D+05 0.10718712D+05 0.10718712D+05 0.12648123D+01  1  2  3  1  5  1        2 -.461521679888D-01 0.100000000000D+01
0.169281664969D-04 0.000000000000D+00 0.000000000000D+00 0.295549250313D-02 0.000000000000D+00  5 2 -1 25 24 21 2 0.98121744D-01 0.27520030D-02 0.10718712D+05 0.10718712D+05 0.10718712D+05 0.12648123D+01  1  2 15  1  5  1        2 0.571462415241D-01 0.100000000000D+01
-.569259877707D-04 0.000000000000D+00 0.000000000000D+00 0.295549250313D-02 0.000000000000D+00  5 2 -1 25 24 21 2 0.98121744D-01 0.27520030D-02 0.10718712D+05 0.10718712D+05 0.10718712D+05 0.12648123D+01  1  2  4  1  5  1        2 -.192171210435D+00 0.100000000000D+01
  </mgrwgt>
  </event>
  <event>
  4     66 0.48098993E-03 0.50871209E+02 0.75467711E-02 0.12222065E+00
        2 -1    0    0  501    0 0.00000000E+00 0.00000000E+00 0.15312723E+02 0.15316066E+02 0.32000000E+00 0.0000E+00 0.9000E+01
       -1 -1    0    0    0  501 0.00000000E+00 0.00000000E+00 -.72443644E+03 0.72443651E+03 0.32000000E+00 0.0000E+00 0.9000E+01
       25  1    1    2    0    0 -.34265912E+01 0.21455554E+02 -.45221537E+03 0.46967629E+03 0.12500000E+03 0.0000E+00 0.9000E+01
       24  1    1    2    0    0 0.34265912E+01 -.21455554E+02 -.25690835E+03 0.27007629E+03 0.80419002E+02 0.0000E+00 0.9000E+01
#aMCatNLO 1  0  0  1  2 0.50951328D+02 0.00000000D+00  -5  5  0 0.00000000D+00 0.00000000D+00 0.00000000D+00 0.00000000D+00 0.00000000D+00
  <mgrwgt>
 0.3940319189D+00    9    2    0
 0.105329753486536D+03 0.000000000000000D+00 0.000000000000000D+00 0.105329753486536D+03
 0.105329753486536D+03 0.000000000000000D+00 0.000000000000000D+00 -.105329753486536D+03
 0.127065739147036D+03 -.342659124411706D+01 0.214555538039583D+02 -.697278627191246D+01
 0.835937678260354D+02 0.342659124411706D+01 -.214555538039583D+02 0.697278627191246D+01
 0.000000000000000D+00 0.000000000000000D+00 -.000000000000000D+00 0.000000000000000D+00
 0.142169004616197D+03 0.000000000000000D+00 0.000000000000000D+00 0.142169004616197D+03
 0.127567033306113D+03 0.000000000000000D+00 0.000000000000000D+00 -.127567033306113D+03
 0.135984084526122D+03 -.791342582838774D+01 0.524921821576552D+02 -.697278627191246D+01
 0.807495439623683D+02 0.623391284774027D+00 -.206507401131631D+01 0.697278627191246D+01
 0.530024094338187D+02 0.729003454361372D+01 -.504271081463389D+02 0.146019713100839D+02
0.814651919691D-03 0.000000000000D+00 0.000000000000D+00 0.314064189992D-02 0.000000000000D+00  5 2 -1 25 24 21 0 0.23560661D-02 0.11145202D+00 0.11043564D+05 0.11043564D+05 0.11043564D+05 0.12632738D+01  1  2  2  1  5  1        2 0.301426175401D+00 0.100000000000D+01
-.452581503074D-04 0.000000000000D+00 -.312847787439D-05 0.314064189992D-02 0.000000000000D+00  5 2 -1 25 24 21 2 0.23560661D-02 0.11145202D+00 0.11043564D+05 0.11043564D+05 0.11043564D+05 0.12632738D+01  1  2  3  1  5  1        2 -.267239506154D-01 0.100000000000D+01
0.564819031075D-04 0.000000000000D+00 0.000000000000D+00 0.314064189992D-02 0.000000000000D+00  5 2 -1 25 24 21 2 0.23560661D-02 0.11145202D+00 0.11043564D+05 0.11043564D+05 0.11043564D+05 0.12632738D+01  1  2 15  1  5  1        2 0.333513318387D-01 0.100000000000D+01
0.313507771329D-03 0.000000000000D+00 0.000000000000D+00 0.314064189992D-02 0.000000000000D+00  5 2 -1 25 24 21 2 0.33577932D-02 0.11145202D+00 0.17849555D+05 0.17849555D+05 0.17849555D+05 0.12393022D+01  1  2 12  1  5  1        2 0.112350565066D+00 0.100000000000D+01
-.449468316298D-03 0.000000000000D+00 0.000000000000D+00 0.314064189992D-02 0.000000000000D+00  5 2 -1 25 24 21 2 0.23560661D-02 0.11145202D+00 0.11043564D+05 0.11043564D+05 0.11043564D+05 0.12632738D+01  1  2  4  1  5  1        2 -.265401237266D+00 0.100000000000D+01
-.673900135827D-03 0.000000000000D+00 -.360985306436D-03 0.314064189992D-02 0.000000000000D+00  5 2 -1 25 24 21 2 0.38652534D-02 0.11145202D+00 0.11043564D+05 0.11043564D+05 0.11043564D+05 0.12632738D+01  1  2  5  1  5  1        2 -.205693541086D+00 0.100000000000D+01
0.793496111658D-03 0.000000000000D+00 0.320860979594D-03 0.314064189992D-02 0.000000000000D+00  5 2 -1 25 24 21 2 0.23560661D-02 0.11145202D+00 0.11043564D+05 0.11043564D+05 0.11043564D+05 0.12632738D+01  1  2  6  1  5  1        2 0.468542146717D+00 0.100000000000D+01
0.136627659661D-04 0.000000000000D+00 0.000000000000D+00 0.314064189992D-02 0.000000000000D+00  5 21 -1 25 24 -2 2 0.33577932D-02 0.11145202D+00 0.17849555D+05 0.17849555D+05 0.17849555D+05 0.12393022D+01  1  2 12  3  5  1        2 0.810117067061D-01 0.100000000000D+01
-.215987452664D-04 0.000000000000D+00 -.201932962238D-04 0.314064189992D-02 0.000000000000D+00  5 21 -1 25 24 -2 2 0.38652534D-02 0.11145202D+00 0.11043564D+05 0.11043564D+05 0.11043564D+05 0.12632738D+01  1  2  5  3  5  1        2 -.104831277834D+00 0.100000000000D+01
  </mgrwgt>
  </event>
  <event>
  4     66 0.48098993E-03 0.13519106E+03 0.75467711E-02 0.11267398E+00
        2 -1    0    0  501    0 0.00000000E+00 0.00000000E+00 0.26968378E+04 0.26968379E+04 0.32000000E+00 0.0000E+00 0.9000E+01
       -1 -1    0    0    0  501 0.00000000E+00 0.00000000E+00 -.82660691E+01 0.82722607E+01 0.32000000E+00 0.0000E+00 0.9000E+01
       25  1    1    2    0    0 0.20541018E+02 -.84234036E+02 0.91145207E+03 0.92406016E+03 0.12500000E+03 0.0000E+00 0.9000E+01
       24  1    1    2    0    0 -.20541018E+02 0.84234036E+02 0.17771197E+04 0.17810500E+04 0.80419002E+02 0.0000E+00 0.9000E+01
#aMCatNLO 1  0  0  2  2 0.15058753D+03 0.00000000D+00  -5  5  0 0.00000000D+00 0.00000000D+00 0.00000000D+00 0.00000000D+00 0.00000000D+00
  <mgrwgt>
 0.6471105461D+00    3    2    0
 0.149334015114449D+03 0.000000000000000D+00 0.000000000000000D+00 0.149334015114449D+03
 0.149334015114449D+03 0.000000000000000D+00 0.000000000000000D+00 -.149334015114449D+03
 0.164665056804132D+03 0.205410179341516D+02 -.842340360107241D+02 -.630259842595173D+02
 0.134002973424766D+03 -.205410179341516D+02 0.842340360107241D+02 0.630259842595173D+02
 0.000000000000000D+00 -.000000000000000D+00 -.000000000000000D+00 0.000000000000000D+00
 0.339841929452930D+03 0.000000000000000D+00 0.000000000000000D+00 0.339841929452930D+03
 0.200087301778634D+03 0.000000000000000D+00 0.000000000000000D+00 -.200087301778634D+03
 0.142159877215971D+03 0.220236852700755D+02 -.112744527718125D+02 -.630259842595173D+02
 0.192323597811729D+03 -.189641130142123D+02 0.161830893362734D+03 0.630259842595173D+02
 0.205445756203864D+03 -.305957225586321D+01 -.150556440590921D+03 0.139754627674296D+03
0.133938549668D-02 0.000000000000D+00 0.000000000000D+00 0.202201570149D-02 0.000000000000D+00  5 2 -1 25 24 21 0 0.41489861D+00 0.12721807D-02 0.18276624D+05 0.18276624D+05 0.18276624D+05 0.12381578D+01  1  2  2  2  5  2       -1 0.633389437299D+00 0.100000000000D+01
-.735146731232D-04 0.000000000000D+00 -.514359297555D-05 0.202201570149D-02 0.000000000000D+00  5 2 -1 25 24 21 2 0.41489861D+00 0.12721807D-02 0.18276624D+05 0.18276624D+05 0.18276624D+05 0.12381578D+01  1  2  3  2  5  2       -1 -.532955840393D-01 0.100000000000D+01
0.924412473153D-04 0.000000000000D+00 0.000000000000D+00 0.202201570149D-02 0.000000000000D+00  5 2 -1 25 24 21 2 0.41489861D+00 0.12721807D-02 0.18276624D+05 0.18276624D+05 0.18276624D+05 0.12381578D+01  1  2 15  2  5  2       -1 0.670166928000D-01 0.100000000000D+01
  </mgrwgt>
  </event>
  <event>
  4     66 0.48098993E-03 0.10942911E+03 0.75467711E-02 0.11229763E+00
        2 -1    0    0  501    0 0.00000000E+00 0.00000000E+00 0.13177290E+03 0.13177329E+03 0.32000000E+00 0.0000E+00 0.9000E+01
       -1 -1    0    0    0  501 0.00000000E+00 0.00000000E+00 -.11548978E+03 0.11549022E+03 0.32000000E+00 0.0000E+00 0.9000E+01
       25  1    1    2    0    0 -.31545109E+02 0.19267793E+02 -.46885024E+02 0.13852634E+03 0.12500000E+03 0.0000E+00 0.9000E+01
       24  1    1    2    0    0 0.31545109E+02 -.19267793E+02 0.63168143E+02 0.10873717E+03 0.80419002E+02 0.0000E+00 0.9000E+01
#aMCatNLO 1  0  0  1  2 0.18439804D+03 0.00000000D+00  -5  5  0 0.00000000D+00 0.00000000D+00 0.00000000D+00 0.00000000D+00 0.00000000D+00
  <mgrwgt>
 0.4035010138D+00    3    2    0
 0.123363389750025D+03 0.000000000000000D+00 0.000000000000000D+00 0.123363389750025D+03
 0.123363389750025D+03 0.000000000000000D+00 0.000000000000000D+00 -.123363389750025D+03
 0.141921942786275D+03 -.315451092378833D+02 0.192677928670553D+02 -.561292801079158D+02
 0.104804836713776D+03 0.315451092378833D+02 -.192677928670553D+02 0.561292801079158D+02
 0.000000000000000D+00 0.000000000000000D+00 0.000000000000000D+00 -.000000000000000D+00
 0.177160814521565D+03 0.000000000000000D+00 0.000000000000000D+00 0.177160814521565D+03
 0.521201897876361D+03 0.000000000000000D+00 0.000000000000000D+00 -.521201897876361D+03
 0.178610676854287D+03 -.917187845170883D+02 -.686581558711097D+02 -.561292801079158D+02
 0.129410002884678D+03 -.124241058746774D+02 -.835157374392625D+02 0.561292801079158D+02
 0.390342032658961D+03 0.104142890391766D+03 0.152173893310372D+03 -.344041083354796D+03
0.554740808763D-03 0.000000000000D+00 0.000000000000D+00 0.223121492269D-02 0.000000000000D+00  5 2 -1 25 24 21 0 0.20272818D-01 0.17767722D-01 0.11974731D+05 0.11974731D+05 0.11974731D+05 0.12591314D+01  1  2  2  1  5  1        2 0.394854190883D+00 0.100000000000D+01
-.302806282787D-04 0.000000000000D+00 -.213035077226D-05 0.223121492269D-02 0.000000000000D+00  5 2 -1 25 24 21 2 0.20272818D-01 0.17767722D-01 0.11974731D+05 0.11974731D+05 0.11974731D+05 0.12591314D+01  1  2  3  1  5  1        2 -.341706811843D-01 0.100000000000D+01
0.379430810551D-04 0.000000000000D+00 0.000000000000D+00 0.223121492269D-02 0.000000000000D+00  5 2 -1 25 24 21 2 0.20272818D-01 0.17767722D-01 0.11974731D+05 0.11974731D+05 0.11974731D+05 0.12591314D+01  1  2 15  1  5  1        2 0.428175041135D-01 0.100000000000D+01
  </mgrwgt>
  </event>
  <event>
  5     66 0.48098993E-03 0.12982350E+03 0.75467711E-02 0.11977920E+00
        2 -1    0    0  502    0 0.00000000E+00 0.00000000E+00 0.13521399E+04 0.13521399E+04 0.32000000E+00 0.0000E+00 0.9000E+01
       -1 -1    0    0    0  501 0.00000000E+00 0.00000000E+00 -.22251586E+02 0.22253887E+02 0.32000000E+00 0.0000E+00 0.9000E+01
       25  1    1    2    0    0 -.61777792E+01 0.79182229E+02 0.34282645E+03 0.37344741E+03 0.12500000E+03 0.0000E+00 0.9000E+01
       24  1    1    2    0    0 0.46025557E+02 -.67962170E+02 0.85103413E+03 0.85875696E+03 0.80419002E+02 0.0000E+00 0.9000E+01
       21  1    1    2  502  501 -.39847778E+02 -.11220059E+02 0.13602771E+03 0.14218943E+03 0.75000000E+00 0.0000E+00 0.9000E+01
#aMCatNLO 2  0  0  1  2 0.41397284D+02 0.00000000D+00  -5  5  0 0.00000000D+00 0.00000000D+00 0.00000000D+00 0.00000000D+00 0.00000000D+00
  <mgrwgt>
 0.2018854842D+00    1    2    0
 0.151088366468710D+03 0.000000000000000D+00 0.000000000000000D+00 0.151088366468710D+03
 0.151088366468710D+03 0.000000000000000D+00 0.000000000000000D+00 -.151088366468710D+03
 0.166241392905603D+03 -.280352141814575D+02 0.730277652909728D+02 -.767604909937503D+02
 0.135935340031817D+03 0.280352141814575D+02 -.730277652909728D+02 0.767604909937503D+02
 0.000000000000000D+00 -.000000000000000D+00 -.000000000000000D+00 -.000000000000000D+00
 0.169984712389104D+03 0.000000000000000D+00 0.000000000000000D+00 0.169984712389104D+03
 0.177002377140375D+03 0.000000000000000D+00 0.000000000000000D+00 -.177002377140375D+03
 0.166808762913380D+03 -.617777918456311D+01 0.791822293916852D+02 -.767604909937503D+02
 0.138190438782175D+03 0.460255567371188D+02 -.679621701086437D+02 0.767604909937503D+02
 0.419878878339236D+02 -.398477775525557D+02 -.112200592830415D+02 -.701766475127036D+01
0.234962528349D-03 0.000000000000D+00 0.000000000000D+00 0.183365447785D-02 0.880448390080D-05  5 2 -1 25 24 21 2 0.20801767D+00 0.34234345D-02 0.23165707D+05 0.23165707D+05 0.23165707D+05 0.12268618D+01  1  2  1  1  5  1        2 0.201885484160D+00 0.100000000000D+01
  </mgrwgt>
  </event>
  <event>
  4     66 0.48098993E-03 0.19675430E+03 0.75467711E-02 0.98321223E-01
        2 -1    0    0  501    0 0.00000000E+00 0.00000000E+00 0.18901843E+04 0.18901844E+04 0.32000000E+00 0.0000E+00 0.9000E+01
       -1 -1    0    0    0  501 0.00000000E+00 0.00000000E+00 -.24491497E+02 0.24493587E+02 0.32000000E+00 0.0000E+00 0.9000E+01
       25  1    1    2    0    0 0.14070527E+03 0.89462687E+02 0.13658681E+04 0.13816737E+04 0.12500000E+03 0.0000E+00 0.9000E+01
       24  1    1    2    0    0 -.14070527E+03 -.89462687E+02 0.49982472E+03 0.53300423E+03 0.80419002E+02 0.0000E+00 0.9000E+01
#aMCatNLO 1  0  0  2  2 0.57702390D+03 0.00000000D+00  -5  5  0 0.00000000D+00 0.00000000D+00 0.00000000D+00 0.00000000D+00 0.00000000D+00
  <mgrwgt>
 0.5115984436D+00    5    2    0
 0.215163822417145D+03 0.000000000000000D+00 0.000000000000000D+00 0.215163822417145D+03
 0.215163822417145D+03 0.000000000000000D+00 0.000000000000000D+00 -.215163822417145D+03
 0.225804300847430D+03 0.140705267316588D+03 0.894626872487885D+02 0.869542271588316D+02
 0.204523343986859D+03 -.140705267316588D+03 -.894626872487885D+02 -.869542271588316D+02
 0.000000000000000D+00 0.000000000000000D+00 0.000000000000000D+00 -.000000000000000D+00
 0.533698940439055D+03 0.000000000000000D+00 0.000000000000000D+00 0.533698940439055D+03
 0.838873784411753D+03 0.000000000000000D+00 0.000000000000000D+00 -.838873784411753D+03
 0.254628640963271D+03 0.136699399027937D+03 -.151535413298058D+03 0.869542271588316D+02
 0.465189713919899D+03 -.146289360470260D+03 -.425408790899906D+03 -.869542271588316D+02
 0.652754369967638D+03 0.958996144232249D+01 0.576944204197964D+03 -.305174843972698D+03
0.167136901644D-02 0.000000000000D+00 0.000000000000D+00 0.179191294795D-02 0.000000000000D+00  5 2 -1 25 24 21 0 0.29079775D+00 0.37680855D-02 0.38712255D+05 0.38712255D+05 0.38712255D+05 0.12034461D+01  1  2  2  2  5  2       -1 0.434763919670D+00 0.100000000000D+01
-.919506353878D-04 0.000000000000D+00 -.641849710468D-05 0.179191294795D-02 0.000000000000D+00  5 2 -1 25 24 21 2 0.29079775D+00 0.37680855D-02 0.38712255D+05 0.38712255D+05 0.38712255D+05 0.12034461D+01  1  2  3  2  5  2       -1 -.346409012002D-01 0.100000000000D+01
0.114632028743D-03 0.000000000000D+00 0.000000000000D+00 0.179191294795D-02 0.000000000000D+00  5 2 -1 25 24 21 2 0.29079775D+00 0.37680855D-02 0.38712255D+05 0.38712255D+05 0.38712255D+05 0.12034461D+01  1  2 15  2  5  2       -1 0.431857459748D-01 0.100000000000D+01
0.561903925027D-02 0.000000000000D+00 -.181718005273D-02 0.179191294795D-02 0.000000000000D+00  5 2 -1 25 24 21 2 0.29079775D+00 0.64166611D-01 0.38712255D+05 0.38712255D+05 0.38712255D+05 0.12034461D+01  1  2  5  2  5  2       -1 0.211403134443D-01 0.100000000000D+01
0.132672950761D-02 0.000000000000D+00 -.568555574931D-03 0.179191294795D-02 0.000000000000D+00  5 2 21 25 24 1 2 0.29079775D+00 0.64166611D-01 0.38712255D+05 0.38712255D+05 0.38712255D+05 0.12034461D+01  1  2  5  4  5  2       -1 0.471493656978D-01 0.100000000000D+01
  </mgrwgt>
  </event>
  <event>
  4     66 0.48098993E-03 0.37105912E+02 0.75467711E-02 0.12418000E+00
        2 -1    0    0  501    0 0.00000000E+00 0.00000000E+00 0.81349599E+03 0.81349606E+03 0.32000000E+00 0.0000E+00 0.9000E+01
       -1 -1    0    0    0  501 0.00000000E+00 0.00000000E+00 -.13862323E+02 0.13866016E+02 0.32000000E+00 0.0000E+00 0.9000E+01
       25  1    1    2    0    0 0.22930610E+02 0.12813129E+02 0.47056783E+03 0.48759519E+03 0.12500000E+03 0.0000E+00 0.9000E+01
       24  1    1    2    0    0 -.22930610E+02 -.12813129E+02 0.32906584E+03 0.33976688E+03 0.80419002E+02 0.0000E+00 0.9000E+01
#aMCatNLO 1  0  0  1  2 0.27478239D+02 0.00000000D+00  -5  5  0 0.00000000D+00 0.00000000D+00 0.00000000D+00 0.00000000D+00 0.00000000D+00
  <mgrwgt>
 0.4267819731D+00    9    2    0
 0.106200272424294D+03 0.000000000000000D+00 0.000000000000000D+00 0.106200272424294D+03
 0.106200272424294D+03 0.000000000000000D+00 0.000000000000000D+00 -.106200272424294D+03
 0.127758089171322D+03 0.229306098380549D+02 0.128131294197684D+02 -.267211445013499D+01
 0.846424556772663D+02 -.229306098380549D+02 -.128131294197684D+02 0.267211445013499D+01
 0.000000000000000D+00 -.000000000000000D+00 0.000000000000000D+00 0.000000000000000D+00
 0.156725948728372D+03 0.000000000000000D+00 0.000000000000000D+00 0.156725948728372D+03
 0.110887896408228D+03 0.000000000000000D+00 0.000000000000000D+00 -.110887896408228D+03
 0.128736159530375D+03 0.306199060355089D+02 -.181105752863170D+01 -.267211445013499D+01
 0.854344385224982D+02 -.178319706971594D+02 -.225101745152055D+02 0.267211445013499D+01
 0.534432470837270D+02 -.127879353383495D+02 0.243212320438372D+02 0.458380523201445D+02
0.142583394095D-03 0.000000000000D+00 0.000000000000D+00 0.312216560645D-02 0.000000000000D+00  5 2 -1 25 24 21 0 0.12515352D+00 0.21329540D-02 0.11271051D+05 0.11271051D+05 0.11271051D+05 0.12622265D+01  1  2  2  1  5  1        2 0.325969906536D+00 0.100000000000D+01
-.792129862146D-05 0.000000000000D+00 -.547557776396D-06 0.312216560645D-02 0.000000000000D+00  5 2 -1 25 24 21 2 0.12515352D+00 0.21329540D-02 0.11271051D+05 0.11271051D+05 0.11271051D+05 0.12622265D+01  1  2  3  1  5  1        2 -.288522377156D-01 0.100000000000D+01
0.985828671855D-05 0.000000000000D+00 0.000000000000D+00 0.312216560645D-02 0.000000000000D+00  5 2 -1 25 24 21 2 0.12515352D+00 0.21329540D-02 0.11271051D+05 0.11271051D+05 0.11271051D+05 0.12622265D+01  1  2 15  1  5  1        2 0.359074497080D-01 0.100000000000D+01
0.313219376809D-03 0.000000000000D+00 0.000000000000D+00 0.312216560645D-02 0.000000000000D+00  5 2 -1 25 24 21 2 0.18641889D+00 0.21329540D-02 0.14590140D+05 0.14590140D+05 0.14590140D+05 0.12491965D+01  1  2 12  1  5  1        2 0.654228558515D+00 0.100000000000D+01
-.314566537850D-03 0.000000000000D+00 0.000000000000D+00 0.312216560645D-02 0.000000000000D+00  5 2 -1 25 24 21 2 0.12515352D+00 0.21329540D-02 0.11271051D+05 0.11271051D+05 0.11271051D+05 0.12622265D+01  1  2  4  1  5  1        2 -.114576522880D+01 0.100000000000D+01
-.381562784315D-03 0.000000000000D+00 -.622708625825D-04 0.312216560645D-02 0.000000000000D+00  5 2 -1 25 24 21 2 0.18814305D+00 0.21329540D-02 0.11271051D+05 0.11271051D+05 0.11271051D+05 0.12622265D+01  1  2  5  1  5  1        2 -.796070542408D+00 0.100000000000D+01
0.379789273859D-03 0.000000000000D+00 0.574321417374D-04 0.312216560645D-02 0.000000000000D+00  5 2 -1 25 24 21 2 0.12515352D+00 0.21329540D-02 0.11271051D+05 0.11271051D+05 0.11271051D+05 0.12622265D+01  1  2  6  1  5  1        2 0.138333004913D+01 0.100000000000D+01
0.148669030224D-04 0.000000000000D+00 0.000000000000D+00 0.312216560645D-02 0.000000000000D+00  5 21 -1 25 24 -2 2 0.18641889D+00 0.21329540D-02 0.14590140D+05 0.14590140D+05 0.14590140D+05 0.12491965D+01  1  2 12  3  5  1        2 0.213020120057D-01 0.100000000000D+01
-.162370054375D-04 0.000000000000D+00 -.300572707131D-05 0.312216560645D-02 0.000000000000D+00  5 21 -1 25 24 -2 2 0.18814305D+00 0.21329540D-02 0.11271051D+05 0.11271051D+05 0.11271051D+05 0.12622265D+01  1  2  5  3  5  1        2 -.232679939003D-01 0.100000000000D+01
  </mgrwgt>
  </event>
  <event>
  4     66 -.48098993E-03 0.52062257E+02 0.75467711E-02 0.12682595E+00
        2 -1    0    0  501    0 0.00000000E+00 0.00000000E+00 0.21216082E+04 0.21216082E+04 0.32000000E+00 0.0000E+00 0.9000E+01
       -1 -1    0    0    0  501 0.00000000E+00 0.00000000E+00 -.63762105E+01 0.63842353E+01 0.32000000E+00 0.0000E+00 0.9000E+01
       25  1    1    2    0    0 -.20166742E+02 0.10747623E+02 0.16803175E+04 0.16851154E+04 0.12500000E+03 0.0000E+00 0.9000E+01
       24  1    1    2    0    0 0.20166742E+02 -.10747623E+02 0.43491451E+03 0.44287702E+03 0.80419002E+02 0.0000E+00 0.9000E+01
#aMCatNLO 1  0  0  2  1 0.12166826D+01 0.00000000D+00  -5  5  0 0.00000000D+00 0.00000000D+00 0.00000000D+00 0.00000000D+00 0.00000000D+00
  <mgrwgt>
 -.7953386349D+00   11    2    0
 0.116345969202220D+03 0.000000000000000D+00 0.000000000000000D+00 0.116345969202220D+03
 0.116345969202220D+03 0.000000000000000D+00 0.000000000000000D+00 -.116345969202220D+03
 0.136023883504761D+03 -.201667419004682D+02 0.107476231283767D+02 0.485313095014656D+02
 0.966680548996787D+02 0.201667419004682D+02 -.107476231283767D+02 -.485313095014656D+02
 0.000000000000000D+00 -.000000000000000D+00 -.000000000000000D+00 -.000000000000000D+00
 0.116543576955173D+03 0.000000000000000D+00 0.000000000000000D+00 0.116543576955173D+03
 0.118235551545680D+03 0.000000000000000D+00 0.000000000000000D+00 -.118235551545680D+03
 0.135968270829940D+03 -.195716994109238D+02 0.111369319260400D+02 0.485313095014656D+02
 0.967268484034201D+02 0.205898356658312D+02 -.104708124333649D+02 -.485313095014656D+02
 0.208400926749320D+01 -.101813625490732D+01 -.666119492675082D+00 -.169197459050635D+01
0.203186109890D-03 0.000000000000D+00 0.000000000000D+00 0.243171830121D-02 0.000000000000D+00  5 2 -1 25 24 21 0 0.32640188D+00 0.98157462D-03 0.11095931D+05 0.11095931D+05 0.11095931D+05 0.12630306D+01  1  2  2  2  5  2       -1 0.277782256082D+00 0.100000000000D+01
-.111525084193D-04 0.000000000000D+00 -.780288162109D-06 0.243171830121D-02 0.000000000000D+00  5 2 -1 25 24 21 2 0.32640188D+00 0.98157462D-03 0.11095931D+05 0.11095931D+05 0.11095931D+05 0.12630306D+01  1  2  3  2  5  2       -1 -.243226432490D-01 0.100000000000D+01
0.139705250912D-04 0.000000000000D+00 0.000000000000D+00 0.243171830121D-02 0.000000000000D+00  5 2 -1 25 24 21 2 0.32640188D+00 0.98157462D-03 0.11095931D+05 0.11095931D+05 0.11095931D+05 0.12630306D+01  1  2 15  2  5  2       -1 0.304684905871D-01 0.100000000000D+01
0.146485775999D-07 0.000000000000D+00 0.000000000000D+00 0.243171830121D-02 0.000000000000D+00  5 2 -1 25 24 21 2 0.32640188D+00 0.99834239D-03 0.11225357D+05 0.11225357D+05 0.11225357D+05 0.12624349D+01  1  2 12  2  5  2       -1 0.311680173301D-04 0.100000000000D+01
-.766445810119D-02 0.000000000000D+00 0.000000000000D+00 0.243171830121D-02 0.000000000000D+00  5 2 -1 25 24 21 2 0.32640188D+00 0.98157462D-03 0.11095931D+05 0.11095931D+05 0.11095931D+05 0.12630306D+01  1  2  4  2  5  2       -1 -.167155112629D+02 0.100000000000D+01
-.169338350978D-01 0.000000000000D+00 -.136699910534D-02 0.243171830121D-02 0.000000000000D+00  5 2 -1 25 24 21 2 0.32640188D+00 0.99942087D-03 0.11095931D+05 0.11095931D+05 0.11095931D+05 0.12630306D+01  1  2  5  2  5  2       -1 -.360007973186D+02 0.100000000000D+01
0.169559350699D-01 0.000000000000D+00 0.136677723955D-02 0.243171830121D-02 0.000000000000D+00  5 2 -1 25 24 21 2 0.32640188D+00 0.98157462D-03 0.11095931D+05 0.11095931D+05 0.11095931D+05 0.12630306D+01  1  2  6  2  5  2       -1 0.369794080537D+02 0.100000000000D+01
0.766552950246D-02 0.000000000000D+00 0.000000000000D+00 0.243171830121D-02 0.139648706490D-01  5 2 -1 25 24 21 2 0.32695626D+00 0.99751643D-03 0.11225357D+05 0.11225357D+05 0.11225357D+05 0.12624349D+01  1  2 11  2  5  2       -1 0.162603270325D+02 0.100000000000D+01
0.103286907349D-08 0.000000000000D+00 0.000000000000D+00 0.243171830121D-02 0.000000000000D+00  5 2 21 25 24 1 2 0.32640188D+00 0.99834239D-03 0.11225357D+05 0.11225357D+05 0.11225357D+05 0.12624349D+01  1  2 12  4  5  2       -1 0.514727372274D-04 0.100000000000D+01
-.555306454355D-04 0.000000000000D+00 -.449589538654D-05 0.243171830121D-02 0.000000000000D+00  5 2 21 25 24 1 2 0.32640188D+00 0.99942087D-03 0.11095931D+05 0.11095931D+05 0.11095931D+05 0.12630306D+01  1  2  5  4  5  2       -1 -.276507849911D+01 0.100000000000D+01
0.233915543368D-04 0.000000000000D+00 0.000000000000D+00 0.243171830121D-02 0.412055534263D-04  5 2 21 25 24 1 2 0.32695626D+00 0.99751643D-03 0.11225357D+05 0.11225357D+05 0.11225357D+05 0.12624349D+01  1  2 11  4  5  2       -1 0.116230261542D+01 0.100000000000D+01
  </mgrwgt>
  </event>
  <event>
  4     66 -.48098993E-03 0.17313171E+03 0.75467711E-02 0.11102375E+00
        2 -1    0    0  501    0 0.00000000E+00 0.00000000E+00 0.17535606E+04 0.17535606E+04 0.32000000E+00 0.0000E+00 0.9000E+01
       -1 -1    0    0    0  501 0.00000000E+00 0.00000000E+00 -.50045509E+02 0.50046532E+02 0.32000000E+00 0.0000E+00 0.9000E+01
       25  1    1    2    0    0 0.68601517E+02 -.22176668E+03 0.41345712E+03 0.49036559E+03 0.12500000E+03 0.0000E+00 0.9000E+01
       24  1    1    2    0    0 -.68601517E+02 0.22176668E+03 0.12900579E+04 0.13132415E+04 0.80419002E+02 0.0000E+00 0.9000E+01
#aMCatNLO 1  0  0  2  1 0.50939593D+00 0.00000000D+00  -5  5  0 0.00000000D+00 0.00000000D+00 0.00000000D+00 0.00000000D+00 0.00000000D+00
  <mgrwgt>
 -.3665745610D-01   11    2    0
 0.296241084909571D+03 0.000000000000000D+00 0.000000000000000D+00 0.296241084909571D+03
 0.296241084909571D+03 0.000000000000000D+00 0.000000000000000D+00 -.296241084909571D+03
 0.303969405281157D+03 0.686015165081351D+02 -.221766675020298D+03 -.151280445300131D+03
 0.288512764537985D+03 -.686015165081351D+02 0.221766675020298D+03 0.151280445300131D+03
 0.000000000000000D+00 -.000000000000000D+00 -.000000000000000D+00 -.000000000000000D+00
 0.296245634617865D+03 0.000000000000000D+00 0.000000000000000D+00 0.296245634617865D+03
 0.310851074639726D+03 0.000000000000000D+00 0.000000000000000D+00 -.310851074639726D+03
 0.304003797721590D+03 0.688607559863074D+02 -.221733471050127D+03 -.151280445300131D+03
 0.288478591078122D+03 -.683554876746256D+02 0.221798186941656D+03 0.151280445300131D+03
 0.146143204578792D+02 -.505268311681796D+00 -.647158915287212D-01 -.146054400218611D+02
0.401911942743D-03 0.000000000000D+00 0.000000000000D+00 0.149890880828D-02 0.000000000000D+00  5 2 -1 25 24 21 0 0.26977863D+00 0.76993901D-02 0.64851911D+05 0.64851911D+05 0.64851911D+05 0.11812548D+01  1  2  2  2  5  2       -1 0.419151043945D-01 0.100000000000D+01
-.217074447377D-04 0.000000000000D+00 -.154344768598D-05 0.149890880828D-02 0.000000000000D+00  5 2 -1 25 24 21 2 0.26977863D+00 0.76993901D-02 0.64851911D+05 0.64851911D+05 0.64851911D+05 0.11812548D+01  1  2  3  2  5  2       -1 -.315889724238D-02 0.100000000000D+01
0.276553693829D-04 0.000000000000D+00 0.000000000000D+00 0.149890880828D-02 0.000000000000D+00  5 2 -1 25 24 21 2 0.26977863D+00 0.76993901D-02 0.64851911D+05 0.64851911D+05 0.64851911D+05 0.11812548D+01  1  2 15  2  5  2       -1 0.402444742512D-02 0.100000000000D+01
0.677931939856D-12 0.000000000000D+00 0.000000000000D+00 0.149890880828D-02 0.000000000000D+00  5 2 -1 25 24 21 2 0.26977863D+00 0.80791654D-02 0.64981575D+05 0.64981575D+05 0.64981575D+05 0.11811713D+01  1  2 12  2  5  2       -1 0.916290495607D-10 0.100000000000D+01
-.160039014532D+01 0.000000000000D+00 0.000000000000D+00 0.149890880828D-02 0.000000000000D+00  5 2 -1 25 24 21 2 0.26977863D+00 0.76993901D-02 0.64851911D+05 0.64851911D+05 0.64851911D+05 0.11812548D+01  1  2  4  2  5  2       -1 -.232890977168D+03 0.100000000000D+01
-.160692168942D+01 0.000000000000D+00 -.102127485155D-02 0.149890880828D-02 0.000000000000D+00  5 2 -1 25 24 21 2 0.26977863D+00 0.80791686D-02 0.64851911D+05 0.64851911D+05 0.64851911D+05 0.11812548D+01  1  2  5  2  5  2       -1 -.217227918038D+03 0.100000000000D+01
0.160511118775D+01 0.000000000000D+00 0.102009222617D-02 0.149890880828D-02 0.000000000000D+00  5 2 -1 25 24 21 2 0.26977863D+00 0.76993901D-02 0.64851911D+05 0.64851911D+05 0.64851911D+05 0.11812548D+01  1  2  6  2  5  2       -1 0.233577989761D+03 0.100000000000D+01
0.160225728699D+01 0.000000000000D+00 0.000000000000D+00 0.149890880828D-02 0.430323594689D-01  5 2 -1 25 24 21 2 0.26978277D+00 0.80791078D-02 0.64981575D+05 0.64981575D+05 0.64981575D+05 0.11811713D+01  1  2 11  2  5  2       -1 0.216555862274D+03 0.100000000000D+01
0.129431395834D-13 0.000000000000D+00 0.000000000000D+00 0.149890880828D-02 0.000000000000D+00  5 2 21 25 24 1 2 0.26977863D+00 0.80791654D-02 0.64981575D+05 0.64981575D+05 0.64981575D+05 0.11811713D+01  1  2 12  4  5  2       -1 0.270061527071D-10 0.100000000000D+01
-.135137122629D-01 0.000000000000D+00 -.858913516235D-05 0.149890880828D-02 0.000000000000D+00  5 2 21 25 24 1 2 0.26977863D+00 0.80791686D-02 0.64851911D+05 0.64851911D+05 0.64851911D+05 0.11812548D+01  1  2  5  4  5  2       -1 -.282026532384D+02 0.100000000000D+01
0.134716120161D-01 0.000000000000D+00 0.000000000000D+00 0.149890880828D-02 0.361809525972D-03  5 2 21 25 24 1 2 0.26978277D+00 0.80791078D-02 0.64981575D+05 0.64981575D+05 0.64981575D+05 0.11811713D+01  1  2 11  4  5  2       -1 0.281082582986D+02 0.100000000000D+01
  </mgrwgt>
  </event>
  <event>
  5     66 0.48098993E-03 0.10960355E+03 0.75467711E-02 0.12168331E+00
        2 -1    0    0  501    0 0.00000000E+00 0.00000000E+00 0.38336140E+03 0.38336153E+03 0.32000000E+00 0.0000E+00 0.9000E+01
       21 -1    0    0  502  501 0.00000000E+00 0.00000000E+00 -.65951713E+02 0.65955977E+02 0.75000000E+00 0.0000E+00 0.9000E+01
       25  1    1    2    0    0 -.17050886E+02 -.37958856E+01 0.41938374E+02 0.13299988E+03 0.12500000E+03 0.0000E+00 0.9000E+01
       24  1    1    2    0    0 0.44647196E+02 -.37201880E+02 0.22384420E+03 0.24484852E+03 0.80419002E+02 0.0000E+00 0.9000E+01
        1  1    1    2  502    0 -.27596310E+02 0.40997766E+02 0.51627106E+02 0.71469109E+02 0.32000000E+00 0.0000E+00 0.9000E+01
#aMCatNLO 2  0  0  2  1 0.49420372D+02 0.00000000D+00  -5  5  0 0.00000000D+00 0.00000000D+00 0.00000000D+00 0.00000000D+00 0.00000000D+00
  <mgrwgt>
 0.1297914143D+00    1    2    0
 0.131991154827897D+03 0.000000000000000D+00 0.000000000000000D+00 0.131991154827897D+03
 0.131991154827897D+03 0.000000000000000D+00 0.000000000000000D+00 -.131991154827897D+03
 0.149336605092293D+03 -.323349590836472D+02 0.189105144437495D+02 -.726172464709517D+02
 0.114645704563502D+03 0.323349590836472D+02 -.189105144437495D+02 0.726172464709517D+02
 0.000000000000000D+00 -.000000000000000D+00 0.000000000000000D+00 0.000000000000000D+00
 0.159965958629889D+03 0.000000000000000D+00 0.000000000000000D+00 0.159965958629889D+03
 0.158059653971725D+03 0.000000000000000D+00 0.000000000000000D+00 -.158059653971725D+03
 0.145613893360061D+03 -.170508858040414D+02 -.379588563445449D+01 -.726172464709517D+02
 0.122954595018858D+03 0.446471959136511D+02 -.372018802469156D+02 0.726172464709517D+02
 0.494571242226953D+02 -.275963101096097D+02 0.409977658813701D+02 0.190630465816336D+01
0.103532406115D-04 0.000000000000D+00 0.000000000000D+00 0.189662961043D-02 0.233061871979D-06  5 2 21 25 24 1 2 0.58978823D-01 0.10146723D-01 0.18886295D+05 0.18886295D+05 0.18886295D+05 0.12365749D+01  1  2  1  4  5  2       -1 0.129791414338D+00 0.100000000000D+01
  </mgrwgt>
  </event>
  <event>
  4     66 -.48098993E-03 0.87321659E+02 0.75467711E-02 0.12070577E+00
        2 -1    0    0  501    0 0.00000000E+00 0.00000000E+00 0.56216703E+03 0.56216713E+03 0.32000000E+00 0.0000E+00 0.9000E+01
       -1 -1    0    0    0  501 0.00000000E+00 0.00000000E+00 -.38420702E+02 0.38422034E+02 0.32000000E+00 0.0000E+00 0.9000E+01
       25  1    1    2    0    0 -.52007612E+02 0.82161851E+02 0.21482098E+03 0.26688652E+03 0.12500000E+03 0.0000E+00 0.9000E+01
       24  1    1    2    0    0 0.52007612E+02 -.82161851E+02 0.30892535E+03 0.33370264E+03 0.80419002E+02 0.0000E+00 0.9000E+01
#aMCatNLO 1  0  0  2  1 0.49307377D+01 0.00000000D+00  -5  5  0 0.00000000D+00 0.00000000D+00 0.00000000D+00 0.00000000D+00 0.00000000D+00
  <mgrwgt>
 -.2102267774D-01    9    2    0
 0.146966933140529D+03 0.000000000000000D+00 0.000000000000000D+00 0.146966933140529D+03
 0.146966933140529D+03 0.000000000000000D+00 0.000000000000000D+00 -.146966933140529D+03
 0.162544899983031D+03 -.520076124232859D+02 0.821618513172171D+02 -.366126064170581D+02
 0.131388966298027D+03 0.520076124232859D+02 -.821618513172171D+02 0.366126064170581D+02
 0.000000000000000D+00 0.000000000000000D+00 0.000000000000000D+00 -.000000000000000D+00
 0.147006626912439D+03 0.000000000000000D+00 0.000000000000000D+00 0.147006626912439D+03
 0.466599394786454D+03 0.000000000000000D+00 0.000000000000000D+00 -.466599394786454D+03
 0.162327696868686D+03 -.540702794833099D+02 0.803816092065736D+02 -.366126064170581D+02
 0.131647523041832D+03 0.503375525062492D+02 -.836032429257940D+02 0.366126064170581D+02
 0.319630801788375D+03 0.373272697706072D+01 0.322163371922039D+01 -.319592767874014D+03
0.599525976849D-04 0.000000000000D+00 0.000000000000D+00 0.229715329770D-02 0.000000000000D+00  5 2 -1 25 24 21 0 0.86487346D-01 0.59109867D-02 0.20242531D+05 0.20242531D+05 0.20242531D+05 0.12332502D+01  1  2  2  2  5  2       -1 0.487708027906D-01 0.100000000000D+01
-.332643899430D-05 0.000000000000D+00 -.230233760992D-06 0.229715329770D-02 0.000000000000D+00  5 2 -1 25 24 21 2 0.86487346D-01 0.59109867D-02 0.20242531D+05 0.20242531D+05 0.20242531D+05 0.12332502D+01  1  2  3  2  5  2       -1 -.411560625025D-02 0.100000000000D+01
0.413984779793D-05 0.000000000000D+00 0.000000000000D+00 0.229715329770D-02 0.000000000000D+00  5 2 -1 25 24 21 2 0.86487346D-01 0.59109867D-02 0.20242531D+05 0.20242531D+05 0.20242531D+05 0.12332502D+01  1  2 15  2  5  2       -1 0.512198885998D-02 0.100000000000D+01
0.178117144827D-01 0.000000000000D+00 0.000000000000D+00 0.229715329770D-02 0.000000000000D+00  5 2 -1 25 24 21 2 0.86487346D-01 0.18765128D-01 0.20956832D+05 0.20956832D+05 0.20956832D+05 0.12315979D+01  1  2 12  2  5  2       -1 0.372659547691D+01 0.100000000000D+01
-.483066819470D-01 0.000000000000D+00 -.182532632270D-04 0.229715329770D-02 0.000000000000D+00  5 2 -1 25 24 21 2 0.86487346D-01 0.18767775D-01 0.20242531D+05 0.20242531D+05 0.20242531D+05 0.12332502D+01  1  2  5  2  5  2       -1 -.101292482842D+02 0.100000000000D+01
0.305090372472D-01 0.000000000000D+00 0.000000000000D+00 0.229715329770D-02 0.133300097965D-02  5 2 -1 25 24 21 2 0.86510705D-01 0.18766553D-01 0.20956832D+05 0.20956832D+05 0.20956832D+05 0.12315979D+01  1  2 11  2  5  2       -1 0.638043711688D+01 0.100000000000D+01
0.236611277011D-02 0.000000000000D+00 0.000000000000D+00 0.229715329770D-02 0.000000000000D+00  5 2 21 25 24 1 2 0.86487346D-01 0.18765128D-01 0.20956832D+05 0.20956832D+05 0.20956832D+05 0.12315979D+01  1  2 12  4  5  2       -1 0.642559818760D+01 0.100000000000D+01
-.641721757475D-02 0.000000000000D+00 -.242512751759D-05 0.229715329770D-02 0.000000000000D+00  5 2 21 25 24 1 2 0.86487346D-01 0.18767775D-01 0.20242531D+05 0.20242531D+05 0.20242531D+05 0.12332502D+01  1  2  5  4  5  2       -1 -.174760246677D+02 0.100000000000D+01
0.405303139414D-02 0.000000000000D+00 0.000000000000D+00 0.229715329770D-02 0.177084604589D-03  5 2 21 25 24 1 2 0.86510705D-01 0.18766553D-01 0.20956832D+05 0.20956832D+05 0.20956832D+05 0.12315979D+01  1  2 11  4  5  2       -1 0.110018423074D+02 0.100000000000D+01
  </mgrwgt>
  </event>
  <event>
  5     66 0.48098993E-03 0.11406309E+03 0.75467711E-02 0.12476533E+00
        2 -1    0    0  501    0 0.00000000E+00 0.00000000E+00 0.78871971E+03 0.78871978E+03 0.32000000E+00 0.0000E+00 0.9000E+01
       21 -1    0    0  502  501 0.00000000E+00 0.00000000E+00 -.17525733E+02 0.17541774E+02 0.75000000E+00 0.0000E+00 0.9000E+01
       25  1    1    2    0    0 0.43427177E+02 -.12053958E+02 0.43271957E+03 0.45266151E+03 0.12500000E+03 0.0000E+00 0.9000E+01
       24  1    1    2    0    0 -.49772211E+02 0.12033042E+02 0.30591891E+03 0.32043043E+03 0.80419002E+02 0.0000E+00 0.9000E+01
        1  1    1    2  502    0 0.63450344E+01 0.20915585E-01 0.32555497E+02 0.33169605E+02 0.32000000E+00 0.0000E+00 0.9000E+01
#aMCatNLO 2  0  0  2  1 0.63450689D+01 0.00000000D+00  -5  5  0 0.00000000D+00 0.00000000D+00 0.00000000D+00 0.00000000D+00 0.00000000D+00
  <mgrwgt>
 0.1047669134D+00    1    2    0
 0.114065869946367D+03 0.000000000000000D+00 0.000000000000000D+00 0.114065869946367D+03
 0.114065869946367D+03 0.000000000000000D+00 0.000000000000000D+00 -.114065869946367D+03
 0.134137132388707D+03 0.471397226494339D+02 -.120417195943397D+02 0.783468704785762D+00
 0.939946075040274D+02 -.471397226494339D+02 0.120417195943397D+02 -.783468704785762D+00
 0.000000000000000D+00 0.000000000000000D+00 0.000000000000000D+00 0.000000000000000D+00
 0.119067383255650D+03 0.000000000000000D+00 0.000000000000000D+00 0.119067383255650D+03
 0.116140272488915D+03 0.000000000000000D+00 0.000000000000000D+00 -.116140272488915D+03
 0.132879010383359D+03 0.434271768058451D+02 -.120539575212217D+02 0.783468704785762D+00
 0.953409507187790D+02 -.497722112039693D+02 0.120330419365261D+02 -.783468704785762D+00
 0.698769464242657D+01 0.634503439812422D+01 0.209155846956473D-01 0.292711076673472D+01
0.197848144429D-05 0.000000000000D+00 0.000000000000D+00 0.290853453613D-02 0.203749984886D-05  5 2 21 25 24 1 2 0.12133894D+00 0.26974211D-02 0.13754540D+05 0.13754540D+05 0.13754540D+05 0.12521371D+01  1  2  1  4  5  2       -1 0.104766913414D+00 0.100000000000D+01
  </mgrwgt>
  </event>
  <event>
  5     66 0.48098993E-03 0.11334271E+03 0.75467711E-02 0.11086158E+00
        4 -1    0    0  501    0 0.00000000E+00 0.00000000E+00 0.20608020E+03 0.20608603E+03 0.15500000E+01 0.0000E+00 0.9000E+01
       21 -1    0    0  502  501 0.00000000E+00 0.00000000E+00 -.48549675E+03 0.48549733E+03 0.75000000E+00 0.0000E+00 0.9000E+01
       25  1    1    2    0    0 -.99585713E+02 0.79394579E+02 -.11738724E+02 0.17883962E+03 0.12500000E+03 0.0000E+00 0.9000E+01
       24  1    1    2    0    0 -.99082001E+02 -.18920101E+02 0.45649784E+02 0.13684419E+03 0.80419002E+02 0.0000E+00 0.9000E+01
        3  1    1    2  502    0 0.19866771E+03 -.60474478E+02 -.31332761E+03 0.37589954E+03 0.50000000E+00 0.0000E+00 0.9000E+01
#aMCatNLO 2  0  0  2  1 0.20766806D+03 0.00000000D+00  -5  5  0 0.00000000D+00 0.00000000D+00 0.00000000D+00 0.00000000D+00 0.00000000D+00
  <mgrwgt>
 0.1102817174D-01    1    2    0
 0.117665082240319D+03 0.000000000000000D+00 0.000000000000000D+00 0.117665082240319D+03
 0.117665082240319D+03 0.000000000000000D+00 0.000000000000000D+00 -.117665082240319D+03
 0.137122392495976D+03 0.155484305878603D+02 0.443477311175056D+02 -.311299787151312D+02
 0.982077719846609D+02 -.155484305878603D+02 -.443477311175056D+02 0.311299787151312D+02
 0.000000000000000D+00 0.000000000000000D+00 -.000000000000000D+00 -.000000000000000D+00
 0.185016162106087D+03 0.000000000000000D+00 0.000000000000000D+00 0.185016162106087D+03
 0.540781601486133D+03 0.000000000000000D+00 0.000000000000000D+00 -.540781601486133D+03
 0.181148803644022D+03 -.995857130247120D+02 0.793945794636864D+02 -.311299787151312D+02
 0.132708344274006D+03 -.990820007450800D+02 -.189201014565208D+02 0.311299787151312D+02
 0.411940615674192D+03 0.198667713769792D+03 -.604744780071656D+02 -.355765439380046D+03
0.123262529259D-03 0.000000000000D+00 0.000000000000D+00 0.265932069807D-02 0.380249997043D-06  5 4 21 25 24 3 2 0.31705116D-01 0.74692246D-01 0.66339099D+05 0.66339099D+05 0.66339099D+05 0.11803083D+01  1  2  1  4  5  2       -3 0.110281717381D-01 0.100000000000D+01
  </mgrwgt>
  </event>
  <event>
  4     66 0.48098993E-03 0.12173526E+03 0.75467711E-02 0.85821100E-01
        2 -1    0    0  501    0 0.00000000E+00 0.00000000E+00 0.21299052E+03 0.21299076E+03 0.32000000E+00 0.0000E+00 0.9000E+01
       -1 -1    0    0    0  501 0.00000000E+00 0.00000000E+00 -.75692199E+02 0.75692876E+02 0.32000000E+00 0.0000E+00 0.9000E+01
       25  1    1    2    0    0 -.22036112E+02 0.60344593E+02 0.37825013E+02 0.14554309E+03 0.12500000E+03 0.0000E+00 0.9000E+01
       24  1    1    2    0    0 0.22036112E+02 -.60344593E+02 0.99473307E+02 0.14314054E+03 0.80419002E+02 0.0000E+00 0.9000E+01
#aMCatNLO 1  0  0  1  2 0.20460530D+04 0.00000000D+00  -5  5  0 0.00000000D+00 0.00000000D+00 0.00000000D+00 0.00000000D+00 0.00000000D+00
  <mgrwgt>
 0.3842883606D+00    5    2    0
 0.126971859295521D+03 0.000000000000000D+00 0.000000000000000D+00 0.126971859295521D+03
 0.126971859295521D+03 0.000000000000000D+00 0.000000000000000D+00 -.126971859295521D+03
 0.145002988587554D+03 -.220361120629012D+02 0.603445926787568D+02 -.356904272727085D+02
 0.108940730003488D+03 0.220361120629012D+02 -.603445926787568D+02 0.356904272727085D+02
 0.000000000000000D+00 0.000000000000000D+00 0.000000000000000D+00 0.000000000000000D+00
 0.294644420653234D+04 0.000000000000000D+00 0.000000000000000D+00 0.294644420653234D+04
 0.157723238875266D+04 0.000000000000000D+00 0.000000000000000D+00 -.157723238875266D+04
 0.903784498149045D+03 -.593112050044277D+03 -.669436859298834D+03 -.356904272727085D+02
 0.115796726019238D+04 -.667808759264125D+03 -.941901594740276D+03 0.356904272727085D+02
 0.246192483694357D+04 0.126092080930840D+04 0.161133845403911D+04 0.136921181777968D+04
0.459758896094D-03 0.000000000000D+00 0.000000000000D+00 0.247965413905D-02 0.000000000000D+00  5 2 -1 25 24 21 0 0.32767843D-01 0.11645024D-01 0.14819474D+05 0.14819474D+05 0.14819474D+05 0.12484225D+01  1  2  2  1  5  1        2 0.376262852502D+00 0.100000000000D+01
-.254870738375D-04 0.000000000000D+00 -.176559521830D-05 0.247965413905D-02 0.000000000000D+00  5 2 -1 25 24 21 2 0.32767843D-01 0.11645024D-01 0.14819474D+05 0.14819474D+05 0.14819474D+05 0.12484225D+01  1  2  3  1  5  1        2 -.325090530785D-01 0.100000000000D+01
0.317771296611D-04 0.000000000000D+00 0.000000000000D+00 0.247965413905D-02 0.000000000000D+00  5 2 -1 25 24 21 2 0.32767843D-01 0.11645024D-01 0.14819474D+05 0.14819474D+05 0.14819474D+05 0.12484225D+01  1  2 15  1  5  1        2 0.405320909502D-01 0.100000000000D+01
0.371807297400D-02 0.000000000000D+00 -.103938578227D-02 0.247965413905D-02 0.000000000000D+00  5 2 -1 25 24 21 2 0.95862194D+00 0.11645024D-01 0.14819474D+05 0.14819474D+05 0.14819474D+05 0.12484225D+01  1  2  5  1  5  1        2 0.246943834240D-05 0.100000000000D+01
0.953862869038D-03 0.000000000000D+00 -.351180275269D-03 0.247965413905D-02 0.000000000000D+00  5 21 -1 25 24 -2 2 0.95862194D+00 0.11645024D-01 0.14819474D+05 0.14819474D+05 0.14819474D+05 0.12484225D+01  1  2  5  3  5  1        2 0.746214905586D-09 0.100000000000D+01
  </mgrwgt>
  </event>
  <event>
  4     66 0.48098993E-03 0.10713487E+03 0.75467711E-02 0.10778889E+00
        2 -1    0    0  501    0 0.00000000E+00 0.00000000E+00 0.19959074E+04 0.19959074E+04 0.32000000E+00 0.0000E+00 0.9000E+01
       -1 -1    0    0    0  501 0.00000000E+00 0.00000000E+00 -.58848226E+01 0.58935166E+01 0.32000000E+00 0.0000E+00 0.9000E+01
       25  1    1    2    0    0 -.18870381E+02 -.23072653E+02 0.10383403E+04 0.10462619E+04 0.12500000E+03 0.0000E+00 0.9000E+01
       24  1    1    2    0    0 0.18870381E+02 0.23072653E+02 0.95168230E+03 0.95553904E+03 0.80419002E+02 0.0000E+00 0.9000E+01
#aMCatNLO 1  0  0  1  2 0.27873004D+03 0.00000000D+00  -5  5  0 0.00000000D+00 0.00000000D+00 0.00000000D+00 0.00000000D+00 0.00000000D+00
  <mgrwgt>
 0.5657722837D+00    3    2    0
 0.108417195696757D+03 0.000000000000000D+00 0.000000000000000D+00 0.108417195696757D+03
 0.108417195696757D+03 0.000000000000000D+00 0.000000000000000D+00 -.108417195696757D+03
 0.129534196525767D+03 -.188703805628685D+02 -.230726527310188D+02 -.162993712437733D+02
 0.873001948677467D+02 0.188703805628685D+02 0.230726527310188D+02 0.162993712437733D+02
 0.000000000000000D+00 -.000000000000000D+00 -.000000000000000D+00 -.000000000000000D+00
 0.233094959202862D+03 0.000000000000000D+00 0.000000000000000D+00 0.233094959202862D+03
 0.520179856417804D+03 0.000000000000000D+00 0.000000000000000D+00 -.520179856417804D+03
 0.173500204959103D+03 0.969407555455575D+02 0.693840149614085D+02 -.162993712437733D+02
 0.179639414139981D+03 0.120887112788789D+03 0.104516695397594D+03 0.162993712437733D+02
 0.400135196521582D+03 -.217827868334346D+03 -.173900710359003D+03 -.287084897214942D+03
0.311950476179D-03 0.000000000000D+00 0.000000000000D+00 0.299866583160D-02 0.000000000000D+00  5 2 -1 25 24 21 0 0.30706334D+00 0.90602806D-03 0.11477880D+05 0.11477880D+05 0.11477880D+05 0.12612947D+01  1  2  2  1  5  1        2 0.553715906154D+00 0.100000000000D+01
-.173275989762D-04 0.000000000000D+00 -.119797196697D-05 0.299866583160D-02 0.000000000000D+00  5 2 -1 25 24 21 2 0.30706334D+00 0.90602806D-03 0.11477880D+05 0.11477880D+05 0.11477880D+05 0.12612947D+01  1  2  3  1  5  1        2 -.489297332951D-01 0.100000000000D+01
0.215971516715D-04 0.000000000000D+00 0.000000000000D+00 0.299866583160D-02 0.000000000000D+00  5 2 -1 25 24 21 2 0.30706334D+00 0.90602806D-03 0.11477880D+05 0.11477880D+05 0.11477880D+05 0.12612947D+01  1  2 15  1  5  1        2 0.609861108089D-01 0.100000000000D+01
  </mgrwgt>
  </event>
  <event>
  5     66 0.48098993E-03 0.10308539E+03 0.75467711E-02 0.12486913E+00
        2 -1    0    0  502    0 0.00000000E+00 0.00000000E+00 0.14746651E+04 0.14746651E+04 0.32000000E+00 0.0000E+00 0.9000E+01
       -1 -1    0    0    0  501 0.00000000E+00 0.00000000E+00 -.98338256E+01 0.98390307E+01 0.32000000E+00 0.0000E+00 0.9000E+01
       25  1    1    2    0    0 0.13813520E+02 -.16536265E+02 0.97113459E+03 0.97938330E+03 0.12500000E+03 0.0000E+00 0.9000E+01
       24  1    1    2    0    0 0.81272669E+01 0.33435268E+01 0.39069358E+03 0.39898110E+03 0.80419002E+02 0.0000E+00 0.9000E+01
       21  1    1    2  502  501 -.21940787E+02 0.13192739E+02 0.10300310E+03 0.10613976E+03 0.75000000E+00 0.0000E+00 0.9000E+01
#aMCatNLO 2  0  0  1  2 0.25601689D+02 0.00000000D+00  -5  5  0 0.00000000D+00 0.00000000D+00 0.00000000D+00 0.00000000D+00 0.00000000D+00
  <mgrwgt>
 0.1947757231D+00    1    2    0
 0.105661044197908D+03 0.000000000000000D+00 0.000000000000000D+00 0.105661044197908D+03
 0.105661044197908D+03 0.000000000000000D+00 0.000000000000000D+00 -.105661044197908D+03
 0.127328878628156D+03 0.562744470256065D+00 -.856872893472715D+01 0.226694405711302D+02
 0.839932097676602D+02 -.562744470256065D+00 0.856872893472715D+01 -.226694405711302D+02
 0.000000000000000D+00 -.000000000000000D+00 0.000000000000000D+00 -.000000000000000D+00
 0.114552265498619D+03 0.000000000000000D+00 0.000000000000000D+00 0.114552265498619D+03
 0.126617029024124D+03 0.000000000000000D+00 0.000000000000000D+00 -.126617029024124D+03
 0.128853269058608D+03 0.138135201473259D+02 -.165362653710428D+02 0.226694405711302D+02
 0.840139936433560D+02 0.812726685423810D+01 0.334352676186733D+01 -.226694405711302D+02
 0.283020318207791D+02 -.219407870015640D+02 0.131927386091755D+02 -.120647635255054D+02
0.783592441026D-04 0.000000000000D+00 0.000000000000D+00 0.302178832051D-02 0.393586705791D-04  5 2 -1 25 24 21 2 0.22686241D+00 0.15132356D-02 0.13612227D+05 0.13612227D+05 0.13612227D+05 0.12526579D+01  1  2  1  1  5  1        2 0.194775723065D+00 0.100000000000D+01
  </mgrwgt>
  </event>
  <event>
  4     66 0.48098993E-03 0.27390789E+03 0.75467711E-02 0.98325443E-01
        2 -1    0    0  501    0 0.00000000E+00 0.00000000E+00 0.10323558E+04 0.10323559E+04 0.32000000E+00 0.0000E+00 0.9000E+01
       -1 -1    0    0    0  501 0.00000000E+00 0.00000000E+00 -.78365734E+02 0.78366387E+02 0.32000000E+00 0.0000E+00 0.9000E+01
       25  1    1    2    0    0 0.12562643E+03 0.21969817E+03 0.64010218E+03 0.69957493E+03 0.12500000E+03 0.0000E+00 0.9000E+01
       24  1    1    2    0    0 -.12562643E+03 -.21969817E+03 0.31388791E+03 0.41114732E+03 0.80419002E+02 0.0000E+00 0.9000E+01
#aMCatNLO 1  0  0  2  2 0.51979829D+03 0.00000000D+00  -5  5  0 0.00000000D+00 0.00000000D+00 0.00000000D+00 0.00000000D+00 0.00000000D+00
  <mgrwgt>
 0.4199878233D+00    5    2    0
 0.284432261536242D+03 0.000000000000000D+00 0.000000000000000D+00 0.284432261536242D+03
 0.284432261536242D+03 0.000000000000000D+00 0.000000000000000D+00 -.284432261536242D+03
 0.292481439920726D+03 0.125626432910395D+03 0.219698171271724D+03 0.766231400568477D+02
 0.276383083151758D+03 -.125626432910395D+03 -.219698171271724D+03 -.766231400568477D+02
 0.000000000000000D+00 0.000000000000000D+00 0.000000000000000D+00 -.000000000000000D+00
 0.425169507057830D+03 0.000000000000000D+00 0.000000000000000D+00 0.425169507057830D+03
 0.207913185311228D+04 0.000000000000000D+00 0.000000000000000D+00 -.207913185311228D+04
 0.255725001153797D+03 -.852258559378280D+02 0.191404608363024D+03 0.766231400568477D+02
 0.514857319204851D+03 -.429954943788654D+03 -.260534995545627D+03 -.766231400568477D+02
 0.173371903981146D+04 0.515180799726482D+03 0.691303871826024D+02 -.165396234605445D+04
0.340674006726D-02 0.000000000000D+00 0.000000000000D+00 0.187921503970D-02 0.000000000000D+00  5 2 -1 25 24 21 0 0.15882403D+00 0.12056321D-01 0.75025531D+05 0.75025531D+05 0.75025531D+05 0.11752123D+01  1  2  2  2  5  2       -1 0.442680829838D+00 0.100000000000D+01
-.188936218181D-03 0.000000000000D+00 -.130827788735D-04 0.187921503970D-02 0.000000000000D+00  5 2 -1 25 24 21 2 0.15882403D+00 0.12056321D-01 0.75025531D+05 0.75025531D+05 0.75025531D+05 0.11752123D+01  1  2  3  2  5  2       -1 -.339078010178D-01 0.100000000000D+01
0.233465137071D-03 0.000000000000D+00 0.000000000000D+00 0.187921503970D-02 0.000000000000D+00  5 2 -1 25 24 21 2 0.15882403D+00 0.12056321D-01 0.75025531D+05 0.75025531D+05 0.75025531D+05 0.11752123D+01  1  2 15  2  5  2       -1 0.418992689100D-01 0.100000000000D+01
-.267877290777D-02 0.000000000000D+00 -.227476962303D-02 0.187921503970D-02 0.000000000000D+00  5 2 -1 25 24 21 2 0.15882403D+00 0.12081525D+00 0.75025531D+05 0.75025531D+05 0.75025531D+05 0.11752123D+01  1  2  5  2  5  2       -1 -.698919857301D-02 0.100000000000D+01
-.109837665622D-02 0.000000000000D+00 -.623733475175D-03 0.187921503970D-02 0.000000000000D+00  5 2 21 25 24 1 2 0.15882403D+00 0.12081525D+00 0.75025531D+05 0.75025531D+05 0.75025531D+05 0.11752123D+01  1  2  5  4  5  2       -1 -.236952758731D-01 0.100000000000D+01
  </mgrwgt>
  </event>
  <event>
  4     66 0.48098993E-03 0.14241951E+03 0.75467711E-02 0.11342833E+00
        2 -1    0    0  501    0 0.00000000E+00 0.00000000E+00 0.20721365E+04 0.20721365E+04 0.32000000E+00 0.0000E+00 0.9000E+01
       -1 -1    0    0    0  501 0.00000000E+00 0.00000000E+00 -.11470714E+02 0.11475176E+02 0.32000000E+00 0.0000E+00 0.9000E+01
       25  1    1    2    0    0 0.58879502E+02 0.77645542E+02 0.15265596E+04 0.15347654E+04 0.12500000E+03 0.0000E+00 0.9000E+01
       24  1    1    2    0    0 -.58879502E+02 -.77645542E+02 0.53410618E+03 0.54884629E+03 0.80419002E+02 0.0000E+00 0.9000E+01
#aMCatNLO 1  0  0  1  2 0.12765937D+03 0.00000000D+00  -5  5  0 0.00000000D+00 0.00000000D+00 0.00000000D+00 0.00000000D+00 0.00000000D+00
  <mgrwgt>
 0.6249875087D+00    6    2    0
 0.154186768392226D+03 0.000000000000000D+00 0.000000000000000D+00 0.154186768392226D+03
 0.154186768392226D+03 0.000000000000000D+00 0.000000000000000D+00 -.154186768392226D+03
 0.169035292914015D+03 0.588795019589879D+02 0.776455416717197D+02 0.587563133466823D+02
 0.139338243870437D+03 -.588795019589879D+02 -.776455416717197D+02 -.587563133466823D+02
 0.000000000000000D+00 -.000000000000000D+00 0.000000000000000D+00 0.000000000000000D+00
 0.265388504962428D+03 0.000000000000000D+00 0.000000000000000D+00 0.265388504962428D+03
 0.208234285154942D+03 0.000000000000000D+00 0.000000000000000D+00 -.208234285154942D+03
 0.200917721428530D+03 0.131145304172556D+03 0.639651125178908D+02 0.587563133466823D+02
 0.132835412143618D+03 -.571370297716427D+01 -.877102046810371D+02 -.587563133466823D+02
 0.139869656545223D+03 -.125431601195392D+03 0.237450921631464D+02 0.571542198074861D+02
0.578678555504D-03 0.000000000000D+00 0.000000000000D+00 0.206021156070D-02 0.000000000000D+00  5 2 -1 25 24 21 0 0.31879058D+00 0.17650704D-02 0.20283316D+05 0.20283316D+05 0.20283316D+05 0.12331541D+01  1  2  2  1  5  1        2 0.366015668624D+00 0.100000000000D+01
-.319024587315D-04 0.000000000000D+00 -.222227802270D-05 0.206021156070D-02 0.000000000000D+00  5 2 -1 25 24 21 2 0.31879058D+00 0.17650704D-02 0.20283316D+05 0.20283316D+05 0.20283316D+05 0.12331541D+01  1  2  3  1  5  1        2 -.306846464757D-01 0.100000000000D+01
0.399997341034D-04 0.000000000000D+00 0.000000000000D+00 0.206021156070D-02 0.000000000000D+00  5 2 -1 25 24 21 2 0.31879058D+00 0.17650704D-02 0.20283316D+05 0.20283316D+05 0.20283316D+05 0.12331541D+01  1  2 15  1  5  1        2 0.384728246312D-01 0.100000000000D+01
-.212133919184D-03 0.000000000000D+00 -.157707981922D-03 0.206021156070D-02 0.000000000000D+00  5 2 -1 25 24 21 2 0.59198655D+00 0.17650704D-02 0.20283316D+05 0.20283316D+05 0.20283316D+05 0.12331541D+01  1  2  5  1  5  1        2 -.184361655550D-01 0.100000000000D+01
0.280347453969D-03 0.000000000000D+00 0.131670960973D-03 0.206021156070D-02 0.000000000000D+00  5 2 -1 25 24 21 2 0.31879058D+00 0.17650704D-02 0.20283316D+05 0.20283316D+05 0.20283316D+05 0.12331541D+01  1  2  6  1  5  1        2 0.269645753256D+00 0.100000000000D+01
-.555477092467D-05 0.000000000000D+00 -.106413993635D-04 0.206021156070D-02 0.000000000000D+00  5 21 -1 25 24 -2 2 0.59198655D+00 0.17650704D-02 0.20283316D+05 0.20283316D+05 0.20283316D+05 0.12331541D+01  1  2  5  3  5  1        2 -.259257613634D-04 0.100000000000D+01
  </mgrwgt>
  </event>
  <event>
  4     66 0.48098993E-03 0.43958653E+02 0.75467711E-02 0.12008927E+00
        2 -1    0    0  501    0 0.00000000E+00 0.00000000E+00 0.86997066E+03 0.86997072E+03 0.32000000E+00 0.0000E+00 0.9000E+01
       -1 -1    0    0    0  501 0.00000000E+00 0.00000000E+00 -.23001056E+02 0.23003282E+02 0.32000000E+00 0.0000E+00 0.9000E+01
       25  1    1    2    0    0 0.18058729E+02 0.42824629E+02 0.73726685E+03 0.74923126E+03 0.12500000E+03 0.0000E+00 0.9000E+01
       24  1    1    2    0    0 -.18058729E+02 -.42824629E+02 0.10970275E+03 0.14374274E+03 0.80419002E+02 0.0000E+00 0.9000E+01
#aMCatNLO 1  0  0  1  2 0.63487531D+02 0.00000000D+00  -5  5  0 0.00000000D+00 0.00000000D+00 0.00000000D+00 0.00000000D+00 0.00000000D+00
  <mgrwgt>
 0.2476093078D+00    9    2    0
 0.141461175160273D+03 0.000000000000000D+00 0.000000000000000D+00 0.141461175160273D+03
 0.141461175160273D+03 0.000000000000000D+00 0.000000000000000D+00 -.141461175160273D+03
 0.157645446277867D+03 0.180587293037433D+02 0.428246286622689D+02 0.840655708838099D+02
 0.125276904042679D+03 -.180587293037433D+02 -.428246286622689D+02 -.840655708838099D+02
 0.000000000000000D+00 0.000000000000000D+00 0.000000000000000D+00 0.000000000000000D+00
 0.231130356244000D+03 0.000000000000000D+00 0.000000000000000D+00 0.231130356244000D+03
 0.156675548402716D+03 0.000000000000000D+00 0.000000000000000D+00 -.156675548402716D+03
 0.154655871163692D+03 -.147374768379876D+02 0.317683026589310D+02 0.840655708838099D+02
 0.135302268828983D+03 -.454233537624279D+02 -.520498484229520D+02 -.840655708838099D+02
 0.978477646540403D+02 0.601608306004155D+02 0.202815457640210D+02 0.744548078412837D+02
0.306257624031D-03 0.000000000000D+00 0.000000000000D+00 0.169323794165D-02 0.000000000000D+00  5 2 -1 25 24 21 0 0.13384182D+00 0.35387998D-02 0.12796568D+05 0.12796568D+05 0.12796568D+05 0.12557659D+01  1  2  2  1  5  1        2 0.311126481566D+00 0.100000000000D+01
-.159804068411D-04 0.000000000000D+00 -.117610991576D-05 0.169323794165D-02 0.000000000000D+00  5 2 -1 25 24 21 2 0.13384182D+00 0.35387998D-02 0.12796568D+05 0.12796568D+05 0.12796568D+05 0.12557659D+01  1  2  3  1  5  1        2 -.256009032947D-01 0.100000000000D+01
0.210320477158D-04 0.000000000000D+00 0.000000000000D+00 0.169323794165D-02 0.000000000000D+00  5 2 -1 25 24 21 2 0.13384182D+00 0.35387998D-02 0.12796568D+05 0.12796568D+05 0.12796568D+05 0.12557659D+01  1  2 15  1  5  1        2 0.336937241344D-01 0.100000000000D+01
0.164913091409D-03 0.000000000000D+00 0.000000000000D+00 0.169323794165D-02 0.000000000000D+00  5 2 -1 25 24 21 2 0.22206196D+00 0.35387998D-02 0.22397804D+05 0.22397804D+05 0.22397804D+05 0.12284487D+01  1  2 12  1  5  1        2 0.120973336169D+00 0.100000000000D+01
-.324696325200D-03 0.000000000000D+00 0.000000000000D+00 0.169323794165D-02 0.000000000000D+00  5 2 -1 25 24 21 2 0.13384182D+00 0.35387998D-02 0.12796568D+05 0.12796568D+05 0.12796568D+05 0.12557659D+01  1  2  4  1  5  1        2 -.520169436500D+00 0.100000000000D+01
-.332625175986D-03 0.000000000000D+00 -.112915190401D-03 0.169323794165D-02 0.000000000000D+00  5 2 -1 25 24 21 2 0.22905238D+00 0.35387998D-02 0.12796568D+05 0.12796568D+05 0.12796568D+05 0.12557659D+01  1  2  5  1  5  1        2 -.239813381854D+00 0.100000000000D+01
0.355306421786D-03 0.000000000000D+00 0.983712572687D-04 0.169323794165D-02 0.000000000000D+00  5 2 -1 25 24 21 2 0.13384182D+00 0.35387998D-02 0.12796568D+05 0.12796568D+05 0.12796568D+05 0.12557659D+01  1  2  6  1  5  1        2 0.569207369660D+00 0.100000000000D+01
0.939119722950D-05 0.000000000000D+00 0.000000000000D+00 0.169323794165D-02 0.000000000000D+00  5 21 -1 25 24 -2 2 0.22206196D+00 0.35387998D-02 0.22397804D+05 0.22397804D+05 0.22397804D+05 0.12284487D+01  1  2 12  3  5  1        2 0.368457793624D-02 0.100000000000D+01
-.143706592205D-04 0.000000000000D+00 -.674705018578D-05 0.169323794165D-02 0.000000000000D+00  5 21 -1 25 24 -2 2 0.22905238D+00 0.35387998D-02 0.12796568D+05 0.12796568D+05 0.12796568D+05 0.12557659D+01  1  2  5  3  5  1        2 -.549246002589D-02 0.100000000000D+01
  </mgrwgt>
  </event>
  <event>
  4     66 0.48098993E-03 0.76358772E+02 0.75467711E-02 0.11432119E+00
        2 -1    0    0  501    0 0.00000000E+00 0.00000000E+00 0.13750038E+04 0.13750038E+04 0.32000000E+00 0.0000E+00 0.9000E+01
       -1 -1    0    0    0  501 0.00000000E+00 0.00000000E+00 -.14982239E+02 0.14985656E+02 0.32000000E+00 0.0000E+00 0.9000E+01
       25  1    1    2    0    0 -.46150866E+02 0.62892924E+02 0.10511257E+04 0.10614026E+04 0.12500000E+03 0.0000E+00 0.9000E+01
       24  1    1    2    0    0 0.46150866E+02 -.62892924E+02 0.30889588E+03 0.32858682E+03 0.80419002E+02 0.0000E+00 0.9000E+01
#aMCatNLO 1  0  0  2  1 0.12696116D+03 0.00000000D+00  -5  5  0 0.00000000D+00 0.00000000D+00 0.00000000D+00 0.00000000D+00 0.00000000D+00
  <mgrwgt>
 0.3139036363D+00    7    2    0
 0.143537577214149D+03 0.000000000000000D+00 0.000000000000000D+00 0.143537577214149D+03
 0.143537577214149D+03 0.000000000000000D+00 0.000000000000000D+00 -.143537577214149D+03
 0.159487728079463D+03 -.461508662419313D+02 0.628929236343737D+02 0.610402581071630D+02
 0.127587426348835D+03 0.461508662419313D+02 -.628929236343737D+02 -.610402581071630D+02
 0.000000000000000D+00 -.000000000000000D+00 0.000000000000000D+00 -.000000000000000D+00
 0.184533731798563D+03 0.000000000000000D+00 0.000000000000000D+00 0.184533731798563D+03
 0.303033111441251D+03 0.000000000000000D+00 0.000000000000000D+00 -.303033111441251D+03
 0.142082706776721D+03 -.288811725749040D+02 0.156854260675529D+01 0.610402581071630D+02
 0.171814220573006D+03 0.632963623785451D+02 -.123776281397503D+03 -.610402581071630D+02
 0.173669915890087D+03 -.344151898036411D+02 0.122207738790747D+03 -.118499379642687D+03
0.354534411590D-03 0.000000000000D+00 0.000000000000D+00 0.206186316997D-02 0.000000000000D+00  5 2 -1 25 24 21 0 0.21153931D+00 0.23052256D-02 0.16819902D+05 0.16819902D+05 0.16819902D+05 0.12421926D+01  1  2  2  2  5  2       -1 0.347801755242D+00 0.100000000000D+01
-.194499411620D-04 0.000000000000D+00 -.136150549156D-05 0.206186316997D-02 0.000000000000D+00  5 2 -1 25 24 21 2 0.21153931D+00 0.23052256D-02 0.16819902D+05 0.16819902D+05 0.16819902D+05 0.12421926D+01  1  2  3  2  5  2       -1 -.294421495870D-01 0.100000000000D+01
0.244956212884D-04 0.000000000000D+00 0.000000000000D+00 0.206186316997D-02 0.000000000000D+00  5 2 -1 25 24 21 2 0.21153931D+00 0.23052256D-02 0.16819902D+05 0.16819902D+05 0.16819902D+05 0.12421926D+01  1  2 15  2  5  2       -1 0.370799962938D-01 0.100000000000D+01
0.104786537997D-06 0.000000000000D+00 0.000000000000D+00 0.206186316997D-02 0.000000000000D+00  5 2 -1 25 24 21 2 0.21153931D+00 0.48776205D-02 0.43236887D+05 0.43236887D+05 0.43236887D+05 0.11985835D+01  1  2 12  2  5  2       -1 0.497670545361D-04 0.100000000000D+01
-.760215179836D-04 0.000000000000D+00 -.104216146021D-03 0.206186316997D-02 0.000000000000D+00  5 2 -1 25 24 21 2 0.21153931D+00 0.63918497D-02 0.16819902D+05 0.16819902D+05 0.16819902D+05 0.12421926D+01  1  2  5  2  5  2       -1 -.258067054732D-01 0.100000000000D+01
0.849536734789D-08 0.000000000000D+00 0.000000000000D+00 0.206186316997D-02 0.000000000000D+00  5 2 21 25 24 1 2 0.21153931D+00 0.48776205D-02 0.43236887D+05 0.43236887D+05 0.43236887D+05 0.11985835D+01  1  2 12  4  5  2       -1 0.698926033442D-04 0.100000000000D+01
-.280369280041D-05 0.000000000000D+00 -.119139668915D-04 0.206186316997D-02 0.000000000000D+00  5 2 21 25 24 1 2 0.21153931D+00 0.63918497D-02 0.16819902D+05 0.16819902D+05 0.16819902D+05 0.12421926D+01  1  2  5  4  5  2       -1 -.158489197898D-01 0.100000000000D+01
  </mgrwgt>
  </event>
  <event>
  4     66 0.48098993E-03 0.10305901E+03 0.75467711E-02 0.12725129E+00
        2 -1    0    0  501    0 0.00000000E+00 0.00000000E+00 0.20835671E+02 0.20838128E+02 0.32000000E+00 0.0000E+00 0.9000E+01
       -1 -1    0    0    0  501 0.00000000E+00 0.00000000E+00 -.50975973E+03 0.50975983E+03 0.32000000E+00 0.0000E+00 0.9000E+01
       25  1    1    2    0    0 0.75582525E+01 0.33804198E+01 -.29926254E+03 0.32442506E+03 0.12500000E+03 0.0000E+00 0.9000E+01
       24  1    1    2    0    0 -.75582525E+01 -.33804198E+01 -.18966153E+03 0.20617290E+03 0.80419002E+02 0.0000E+00 0.9000E+01
#aMCatNLO 1  0  0  2  1 0.14659810D+01 0.00000000D+00  -5  5  0 0.00000000D+00 0.00000000D+00 0.00000000D+00 0.00000000D+00 0.00000000D+00
  <mgrwgt>
 0.1214724574D+00    6    2    0
 0.103062429612278D+03 0.000000000000000D+00 0.000000000000000D+00 0.103062429612278D+03
 0.103062429612278D+03 0.000000000000000D+00 0.000000000000000D+00 -.103062429612278D+03
 0.125276596501418D+03 0.755825252940720D+01 0.338041976216766D+01 -.819275235955326D+00
 0.808482627231379D+02 -.755825252940720D+01 -.338041976216766D+01 0.819275235955326D+00
 0.000000000000000D+00 -.000000000000000D+00 0.000000000000000D+00 0.000000000000000D+00
 0.105693773255764D+03 0.000000000000000D+00 0.000000000000000D+00 0.105693773255764D+03
 0.103269421361230D+03 0.000000000000000D+00 0.000000000000000D+00 -.103269421361230D+03
 0.125328965692135D+03 0.843786055188092D+01 0.323742781463766D+01 -.819275235955326D+00
 0.808011065693279D+02 -.699087453183645D+01 -.347265457902409D+01 0.819275235955326D+00
 0.283312235553215D+01 -.144698602004447D+01 0.235226764386437D+00 0.242435189453351D+01
0.202103868345D-03 0.000000000000D+00 0.000000000000D+00 0.323044661486D-02 0.000000000000D+00  5 2 -1 25 24 21 0 0.32056845D-02 0.78424771D-01 0.10621160D+05 0.10621160D+05 0.10621160D+05 0.12652846D+01  1  2  2  2  5  2       -1 0.104849963741D+00 0.100000000000D+01
-.112279926708D-04 0.000000000000D+00 -.776132069614D-06 0.323044661486D-02 0.000000000000D+00  5 2 -1 25 24 21 2 0.32056845D-02 0.78424771D-01 0.10621160D+05 0.10621160D+05 0.10621160D+05 0.12652846D+01  1  2  3  2  5  2       -1 -.932550213180D-02 0.100000000000D+01
0.139792659302D-04 0.000000000000D+00 0.000000000000D+00 0.323044661486D-02 0.000000000000D+00  5 2 -1 25 24 21 2 0.32056845D-02 0.78424771D-01 0.10621160D+05 0.10621160D+05 0.10621160D+05 0.12652846D+01  1  2 15  2  5  2       -1 0.116105948815D-01 0.100000000000D+01
-.145412292105D-03 0.000000000000D+00 0.000000000000D+00 0.323044661486D-02 0.000000000000D+00  5 2 -1 25 24 21 2 0.32056845D-02 0.78424771D-01 0.10621160D+05 0.10621160D+05 0.10621160D+05 0.12652846D+01  1  2  4  2  5  2       -1 -.120773381296D+00 0.100000000000D+01
0.145455917425D-03 0.000000000000D+00 0.000000000000D+00 0.323044661486D-02 0.128237611041D-01  5 2 -1 25 24 21 2 0.32875306D-02 0.78582280D-01 0.10773321D+05 0.10773321D+05 0.10773321D+05 0.12645500D+01  1  2 11  2  5  2       -1 0.116286791725D+00 0.100000000000D+01
0.251740676223D-05 0.000000000000D+00 0.000000000000D+00 0.323044661486D-02 0.487266294946D-05  5 2 21 25 24 1 2 0.32875306D-02 0.78582280D-01 0.10773321D+05 0.10773321D+05 0.10773321D+05 0.12645500D+01  1  2 11  4  5  2       -1 0.188239905101D-01 0.100000000000D+01
  </mgrwgt>
  </event>
  <event>
  4     66 0.48098993E-03 0.88245838E+02 0.75467711E-02 0.12149582E+00
        2 -1    0    0  501    0 0.00000000E+00 0.00000000E+00 0.15521132E+04 0.15521132E+04 0.32000000E+00 0.0000E+00 0.9000E+01
       -1 -1    0    0    0  501 0.00000000E+00 0.00000000E+00 -.15996402E+02 0.15999602E+02 0.32000000E+00 0.0000E+00 0.9000E+01
       25  1    1    2    0    0 -.69676945E+02 0.56002020E+02 0.12244383E+04 0.12340443E+04 0.12500000E+03 0.0000E+00 0.9000E+01
       24  1    1    2    0    0 0.69676945E+02 -.56002020E+02 0.31167843E+03 0.33406850E+03 0.80419002E+02 0.0000E+00 0.9000E+01
#aMCatNLO 1  0  0  1  2 0.36204125D+01 0.00000000D+00  -5  5  0 0.00000000D+00 0.00000000D+00 0.00000000D+00 0.00000000D+00 0.00000000D+00
  <mgrwgt>
 0.7274523328D+00   11    2    0
 0.157577791887871D+03 0.000000000000000D+00 0.000000000000000D+00 0.157577791887871D+03
 0.157577791887871D+03 0.000000000000000D+00 0.000000000000000D+00 -.157577791887871D+03
 0.172106780928639D+03 -.696769447955217D+02 0.560020195407609D+02 0.774896200335035D+02
 0.143048802847103D+03 0.696769447955217D+02 -.560020195407609D+02 -.774896200335035D+02
 0.000000000000000D+00 0.000000000000000D+00 0.000000000000000D+00 0.000000000000000D+00
 0.163400720758203D+03 0.000000000000000D+00 0.000000000000000D+00 0.163400720758203D+03
 0.158151944607729D+03 0.000000000000000D+00 0.000000000000000D+00 -.158151944607729D+03
 0.171686226775178D+03 -.701519236882487D+02 0.540853663591093D+02 0.774896200335035D+02
 0.143490151419697D+03 0.692810671826238D+02 -.575994801814839D+02 -.774896200335035D+02
 0.637628717105631D+01 0.870856505624870D+00 0.351411382237460D+01 0.524877615047393D+01
0.358385748554D-03 0.000000000000D+00 0.000000000000D+00 0.182880724746D-02 0.000000000000D+00  5 2 -1 25 24 21 0 0.23878689D+00 0.24612336D-02 0.18757777D+05 0.18757777D+05 0.18757777D+05 0.12369038D+01  1  2  2  1  5  1        2 0.258890096314D+00 0.100000000000D+01
-.194342311346D-04 0.000000000000D+00 -.137629563958D-05 0.182880724746D-02 0.000000000000D+00  5 2 -1 25 24 21 2 0.23878689D+00 0.24612336D-02 0.18757777D+05 0.18757777D+05 0.18757777D+05 0.12369038D+01  1  2  3  1  5  1        2 -.214784973218D-01 0.100000000000D+01
0.246361155142D-04 0.000000000000D+00 0.000000000000D+00 0.182880724746D-02 0.000000000000D+00  5 2 -1 25 24 21 2 0.23878689D+00 0.24612336D-02 0.18757777D+05 0.18757777D+05 0.18757777D+05 0.12369038D+01  1  2 15  1  5  1        2 0.272275624093D-01 0.100000000000D+01
0.103234260405D-03 0.000000000000D+00 0.000000000000D+00 0.182880724746D-02 0.000000000000D+00  5 2 -1 25 24 21 2 0.24803652D+00 0.24612336D-02 0.19264338D+05 0.19264338D+05 0.19264338D+05 0.12356219D+01  1  2 12  1  5  1        2 0.106039613821D+00 0.100000000000D+01
-.638785714610D-02 0.000000000000D+00 0.000000000000D+00 0.182880724746D-02 0.000000000000D+00  5 2 -1 25 24 21 2 0.23878689D+00 0.24612336D-02 0.18757777D+05 0.18757777D+05 0.18757777D+05 0.12369038D+01  1  2  4  1  5  1        2 -.705978907293D+01 0.100000000000D+01
-.125671095567D-01 0.000000000000D+00 -.113546357510D-02 0.182880724746D-02 0.000000000000D+00  5 2 -1 25 24 21 2 0.24797740D+00 0.24612336D-02 0.18757777D+05 0.18757777D+05 0.18757777D+05 0.12369038D+01  1  2  5  1  5  1        2 -.129363619067D+02 0.100000000000D+01
0.126018129799D-01 0.000000000000D+00 0.113465430981D-02 0.182880724746D-02 0.000000000000D+00  5 2 -1 25 24 21 2 0.23878689D+00 0.24612336D-02 0.18757777D+05 0.18757777D+05 0.18757777D+05 0.12369038D+01  1  2  6  1  5  1        2 0.139273843387D+02 0.100000000000D+01
0.628636672734D-02 0.000000000000D+00 0.000000000000D+00 0.182880724746D-02 0.113678339690D-02  5 2 -1 25 24 21 2 0.24761071D+00 0.24702014D-02 0.19264338D+05 0.19264338D+05 0.19264338D+05 0.12356219D+01  1  2 11  1  5  1        2 0.644437549649D+01 0.100000000000D+01
0.237735662880D-05 0.000000000000D+00 0.000000000000D+00 0.182880724746D-02 0.000000000000D+00  5 21 -1 25 24 -2 2 0.24803652D+00 0.24612336D-02 0.19264338D+05 0.19264338D+05 0.19264338D+05 0.12356219D+01  1  2 12  3  5  1        2 0.113425276371D-02 0.100000000000D+01
-.835791030720D-04 0.000000000000D+00 -.760385669833D-05 0.182880724746D-02 0.000000000000D+00  5 21 -1 25 24 -2 2 0.24797740D+00 0.24612336D-02 0.18757777D+05 0.18757777D+05 0.18757777D+05 0.12369038D+01  1  2  5  3  5  1        2 -.400398838756D-01 0.100000000000D+01
0.420500916666D-04 0.000000000000D+00 0.000000000000D+00 0.182880724746D-02 0.737025244245D-05  5 21 -1 25 24 -2 2 0.24761071D+00 0.24702014D-02 0.19264338D+05 0.19264338D+05 0.19264338D+05 0.12356219D+01  1  2 11  3  5  1        2 0.200703330750D-01 0.100000000000D+01
  </mgrwgt>
  </event>
  <event>
  4     66 0.48098993E-03 0.13360876E+03 0.75467711E-02 0.10910047E+00
        2 -1    0    0  501    0 0.00000000E+00 0.00000000E+00 0.16125628E+04 0.16125628E+04 0.32000000E+00 0.0000E+00 0.9000E+01
       -1 -1    0    0    0  501 0.00000000E+00 0.00000000E+00 -.11464011E+02 0.11468476E+02 0.32000000E+00 0.0000E+00 0.9000E+01
       25  1    1    2    0    0 0.82430764E+02 0.17435152E+02 0.74994735E+03 0.76494760E+03 0.12500000E+03 0.0000E+00 0.9000E+01
       24  1    1    2    0    0 -.82430764E+02 -.17435152E+02 0.85115146E+03 0.85908372E+03 0.80419002E+02 0.0000E+00 0.9000E+01
#aMCatNLO 1  0  0  1  2 0.22698065D+03 0.00000000D+00  -5  5  0 0.00000000D+00 0.00000000D+00 0.00000000D+00 0.00000000D+00 0.00000000D+00
  <mgrwgt>
 0.5567451578D+00    3    2    0
 0.135978267820576D+03 0.000000000000000D+00 0.000000000000000D+00 0.135978267820576D+03
 0.135978267820576D+03 0.000000000000000D+00 0.000000000000000D+00 -.135978267820576D+03
 0.152815120121330D+03 0.824307635734356D+02 0.174351517094899D+02 -.250728067687647D+02
 0.119141415519822D+03 -.824307635734356D+02 -.174351517094899D+02 0.250728067687647D+02
 0.000000000000000D+00 0.000000000000000D+00 0.000000000000000D+00 -.000000000000000D+00
 0.215734772972056D+03 0.000000000000000D+00 0.000000000000000D+00 0.215734772972056D+03
 0.510635736868655D+03 0.000000000000000D+00 0.000000000000000D+00 -.510635736868655D+03
 0.141987984525227D+03 0.105248665740699D+02 -.616130610655754D+02 -.250728067687647D+02
 0.212244386809548D+03 -.163259604904385D+03 -.106292612842994D+03 0.250728067687647D+02
 0.372138138505937D+03 0.152734738330315D+03 0.167905673908569D+03 -.294900963896599D+03
0.502105609570D-03 0.000000000000D+00 0.000000000000D+00 0.246768385635D-02 0.000000000000D+00  5 2 -1 25 24 21 0 0.24808693D+00 0.17640399D-02 0.17851300D+05 0.17851300D+05 0.17851300D+05 0.12392975D+01  1  2  2  1  5  1        2 0.545470875258D+00 0.100000000000D+01
-.278842750023D-04 0.000000000000D+00 -.192821774819D-05 0.246768385635D-02 0.000000000000D+00  5 2 -1 25 24 21 2 0.24808693D+00 0.17640399D-02 0.17851300D+05 0.17851300D+05 0.17851300D+05 0.12392975D+01  1  2  3  1  5  1        2 -.465250631309D-01 0.100000000000D+01
0.346413898719D-04 0.000000000000D+00 0.000000000000D+00 0.246768385635D-02 0.000000000000D+00  5 2 -1 25 24 21 2 0.24808693D+00 0.17640399D-02 0.17851300D+05 0.17851300D+05 0.17851300D+05 0.12392975D+01  1  2 15  1  5  1        2 0.577993457100D-01 0.100000000000D+01
  </mgrwgt>
  </event>
  <event>
  4     66 0.48098993E-03 0.46518755E+02 0.75467711E-02 0.12603546E+00
        2 -1    0    0  501    0 0.00000000E+00 0.00000000E+00 0.30689953E+03 0.30689970E+03 0.32000000E+00 0.0000E+00 0.9000E+01
       -1 -1    0    0    0  501 0.00000000E+00 0.00000000E+00 -.41201364E+02 0.41202607E+02 0.32000000E+00 0.0000E+00 0.9000E+01
       25  1    1    2    0    0 -.80804305E+01 -.26830561E+02 0.21114567E+03 0.24696694E+03 0.12500000E+03 0.0000E+00 0.9000E+01
       24  1    1    2    0    0 0.80804305E+01 0.26830561E+02 0.54552496E+02 0.10113537E+03 0.80419002E+02 0.0000E+00 0.9000E+01
#aMCatNLO 1  0  0  1  2 0.68700944D+01 0.00000000D+00  -5  5  0 0.00000000D+00 0.00000000D+00 0.00000000D+00 0.00000000D+00 0.00000000D+00
  <mgrwgt>
 0.4246371443D+00   11    2    0
 0.112449653906038D+03 0.000000000000000D+00 0.000000000000000D+00 0.112449653906038D+03
 0.112449653906038D+03 0.000000000000000D+00 0.000000000000000D+00 -.112449653906038D+03
 0.132809396527571D+03 -.808043047080546D+01 -.268305607338442D+02 0.350451631488775D+02
 0.920899112845050D+02 0.808043047080546D+01 0.268305607338442D+02 -.350451631488775D+02
 0.000000000000000D+00 0.000000000000000D+00 0.000000000000000D+00 0.000000000000000D+00
 0.117210935218054D+03 0.000000000000000D+00 0.000000000000000D+00 0.117210935218054D+03
 0.115007943483555D+03 0.000000000000000D+00 0.000000000000000D+00 -.115007943483555D+03
 0.133121621098630D+03 -.121412013090229D+02 -.268476027713755D+02 0.350451631488775D+02
 0.918825940872496D+02 0.527116740884278D+01 0.268187709608074D+02 -.350451631488775D+02
 0.721466351572926D+01 0.687003390018016D+01 0.288318105681079D-01 0.220299173449871D+01
0.135437636391D-03 0.000000000000D+00 0.000000000000D+00 0.270551412949D-02 0.000000000000D+00  5 2 -1 25 24 21 0 0.47215421D-01 0.63387798D-02 0.11370293D+05 0.11370293D+05 0.11370293D+05 0.12617770D+01  1  2  2  1  5  1        2 0.186366297729D+00 0.100000000000D+01
-.749849282166D-05 0.000000000000D+00 -.520116185289D-06 0.270551412949D-02 0.000000000000D+00  5 2 -1 25 24 21 2 0.47215421D-01 0.63387798D-02 0.11370293D+05 0.11370293D+05 0.11370293D+05 0.12617770D+01  1  2  3  1  5  1        2 -.164273377836D-01 0.100000000000D+01
0.930376565100D-05 0.000000000000D+00 0.000000000000D+00 0.270551412949D-02 0.000000000000D+00  5 2 -1 25 24 21 2 0.47215421D-01 0.63387798D-02 0.11370293D+05 0.11370293D+05 0.11370293D+05 0.12617770D+01  1  2 15  1  5  1        2 0.203822427578D-01 0.100000000000D+01
0.392542654297D-03 0.000000000000D+00 0.000000000000D+00 0.270551412949D-02 0.000000000000D+00  5 2 -1 25 24 21 2 0.49734015D-01 0.63387798D-02 0.12125609D+05 0.12125609D+05 0.12125609D+05 0.12584944D+01  1  2 12  1  5  1        2 0.812291071681D+00 0.100000000000D+01
-.389862173007D-03 0.000000000000D+00 0.000000000000D+00 0.270551412949D-02 0.000000000000D+00  5 2 -1 25 24 21 2 0.47215421D-01 0.63387798D-02 0.11370293D+05 0.11370293D+05 0.11370293D+05 0.12617770D+01  1  2  4  1  5  1        2 -.854091316397D+00 0.100000000000D+01
-.208788314709D-02 0.000000000000D+00 -.336184015809D-03 0.270551412949D-02 0.000000000000D+00  5 2 -1 25 24 21 2 0.50190681D-01 0.63387798D-02 0.11370293D+05 0.11370293D+05 0.11370293D+05 0.12617770D+01  1  2  5  1  5  1        2 -.428952200441D+01 0.100000000000D+01
0.210512189480D-02 0.000000000000D+00 0.335557287117D-03 0.270551412949D-02 0.000000000000D+00  5 2 -1 25 24 21 2 0.47215421D-01 0.63387798D-02 0.11370293D+05 0.11370293D+05 0.11370293D+05 0.12617770D+01  1  2  6  1  5  1        2 0.461179989953D+01 0.100000000000D+01
0.289964713195D-04 0.000000000000D+00 0.000000000000D+00 0.270551412949D-02 0.484790116076D-03  5 2 -1 25 24 21 2 0.49214590D-01 0.64829904D-02 0.12125609D+05 0.12125609D+05 0.12125609D+05 0.12584944D+01  1  2 11  1  5  1        2 0.586753555221D-01 0.100000000000D+01
0.487931147330D-05 0.000000000000D+00 0.000000000000D+00 0.270551412949D-02 0.000000000000D+00  5 21 -1 25 24 -2 2 0.49734015D-01 0.63387798D-02 0.12125609D+05 0.12125609D+05 0.12125609D+05 0.12584944D+01  1  2 12  3  5  1        2 0.320623848854D-01 0.100000000000D+01
-.214410327425D-04 0.000000000000D+00 -.352250534588D-05 0.270551412949D-02 0.000000000000D+00  5 21 -1 25 24 -2 2 0.50190681D-01 0.63387798D-02 0.11370293D+05 0.11370293D+05 0.11370293D+05 0.12617770D+01  1  2  5  3  5  1        2 -.138852873147D+00 0.100000000000D+01
0.300830103854D-06 0.000000000000D+00 0.000000000000D+00 0.270551412949D-02 0.359405375917D-05  5 21 -1 25 24 -2 2 0.49214590D-01 0.64829904D-02 0.12125609D+05 0.12125609D+05 0.12125609D+05 0.12584944D+01  1  2 11  3  5  1        2 0.195342394911D-02 0.100000000000D+01
  </mgrwgt>
  </event>
  <event>
  4     66 0.48098993E-03 0.13814701E+03 0.75467711E-02 0.12136148E+00
        2 -1    0    0  501    0 0.00000000E+00 0.00000000E+00 0.21453747E+02 0.21456134E+02 0.32000000E+00 0.0000E+00 0.9000E+01
       -1 -1    0    0    0  501 0.00000000E+00 0.00000000E+00 -.89697536E+03 0.89697541E+03 0.32000000E+00 0.0000E+00 0.9000E+01
       25  1    1    2    0    0 0.90043872E+02 0.14326110E+02 -.44826604E+03 0.47421575E+03 0.12500000E+03 0.0000E+00 0.9000E+01
       24  1    1    2    0    0 -.90043872E+02 -.14326110E+02 -.42725557E+03 0.44421580E+03 0.80419002E+02 0.0000E+00 0.9000E+01
#aMCatNLO 1  0  0  1  2 0.32607602D+01 0.00000000D+00  -5  5  0 0.00000000D+00 0.00000000D+00 0.00000000D+00 0.00000000D+00 0.00000000D+00
  <mgrwgt>
 0.4050391654D+00    6    2    0
 0.138724925146667D+03 0.000000000000000D+00 0.000000000000000D+00 0.138724925146667D+03
 0.138724925146667D+03 0.000000000000000D+00 0.000000000000000D+00 -.138724925146667D+03
 0.155228419446533D+03 0.900438715224864D+02 0.143261100508441D+02 0.125589002672150D+02
 0.122221430846801D+03 -.900438715224864D+02 -.143261100508441D+02 -.125589002672150D+02
 0.000000000000000D+00 0.000000000000000D+00 0.000000000000000D+00 -.000000000000000D+00
 0.138889518182378D+03 0.000000000000000D+00 0.000000000000000D+00 0.138889518182378D+03
 0.155882379675272D+03 0.000000000000000D+00 0.000000000000000D+00 -.155882379675272D+03
 0.154452206746067D+03 0.889181757225181D+02 0.128963645647622D+02 0.125589002672150D+02
 0.123016804108681D+03 -.909353178311404D+02 -.154583354139645D+02 -.125589002672150D+02
 0.173028870029022D+02 0.201714210862227D+01 0.256197084920230D+01 -.169928614928935D+02
0.224187145488D-02 0.000000000000D+00 0.000000000000D+00 0.249586238313D-02 0.000000000000D+00  5 2 -1 25 24 21 0 0.33007645D-02 0.13799640D+00 0.19084595D+05 0.19084595D+05 0.19084595D+05 0.12360724D+01  1  2  2  1  5  1        2 0.322162705422D+00 0.100000000000D+01
-.124545775053D-03 0.000000000000D+00 -.860937668506D-05 0.249586238313D-02 0.000000000000D+00  5 2 -1 25 24 21 2 0.33007645D-02 0.13799640D+00 0.19084595D+05 0.19084595D+05 0.19084595D+05 0.12360724D+01  1  2  3  1  5  1        2 -.273452163482D-01 0.100000000000D+01
0.154592467068D-03 0.000000000000D+00 0.000000000000D+00 0.249586238313D-02 0.000000000000D+00  5 2 -1 25 24 21 2 0.33007645D-02 0.13799640D+00 0.19084595D+05 0.19084595D+05 0.19084595D+05 0.12360724D+01  1  2 15  1  5  1        2 0.339422550141D-01 0.100000000000D+01
-.138404038163D-03 0.000000000000D+00 0.000000000000D+00 0.249586238313D-02 0.000000000000D+00  5 2 -1 25 24 21 2 0.33007645D-02 0.13799640D+00 0.19084595D+05 0.19084595D+05 0.19084595D+05 0.12360724D+01  1  2  4  1  5  1        2 -.303879305857D-01 0.100000000000D+01
0.135540077634D-03 0.000000000000D+00 0.000000000000D+00 0.249586238313D-02 0.192244132009D-02  5 2 -1 25 24 21 2 0.33046808D-02 0.15506375D+00 0.19540625D+05 0.19540625D+05 0.19540625D+05 0.12349386D+01  1  2 11  1  5  1        2 0.220102920669D-01 0.100000000000D+01
0.313875809702D-04 0.000000000000D+00 0.000000000000D+00 0.249586238313D-02 0.454492437793D-06  5 21 -1 25 24 -2 2 0.33046808D-02 0.15506375D+00 0.19540625D+05 0.19540625D+05 0.19540625D+05 0.12349386D+01  1  2 11  3  5  1        2 0.846570598697D-01 0.100000000000D+01
  </mgrwgt>
  </event>
  <event>
  4     66 0.48098993E-03 0.12569233E+03 0.75467711E-02 0.11392396E+00
        2 -1    0    0  501    0 0.00000000E+00 0.00000000E+00 0.21969077E+03 0.21969101E+03 0.32000000E+00 0.0000E+00 0.9000E+01
       -1 -1    0    0    0  501 0.00000000E+00 0.00000000E+00 -.95930061E+02 0.95930594E+02 0.32000000E+00 0.0000E+00 0.9000E+01
       25  1    1    2    0    0 0.50012156E+02 -.50823353E+02 -.97367339E+01 0.14423603E+03 0.12500000E+03 0.0000E+00 0.9000E+01
       24  1    1    2    0    0 -.50012156E+02 0.50823353E+02 0.13349745E+03 0.17138557E+03 0.80419002E+02 0.0000E+00 0.9000E+01
#aMCatNLO 1  0  0  1  2 0.13871727D+03 0.00000000D+00  -5  5  0 0.00000000D+00 0.00000000D+00 0.00000000D+00 0.00000000D+00 0.00000000D+00
  <mgrwgt>
 0.2938044399D+00    5    2    0
 0.145172553608470D+03 0.000000000000000D+00 0.000000000000000D+00 0.145172553608470D+03
 0.145172553608470D+03 0.000000000000000D+00 0.000000000000000D+00 -.145172553608470D+03
 0.160943069139815D+03 0.500121561904971D+02 -.508233530725548D+02 -.720655432213138D+02
 0.129402038077125D+03 -.500121561904971D+02 0.508233530725548D+02 0.720655432213138D+02
 0.000000000000000D+00 0.000000000000000D+00 -.000000000000000D+00 0.000000000000000D+00
 0.250359750620034D+03 0.000000000000000D+00 0.000000000000000D+00 0.250359750620034D+03
 0.214658612029930D+03 0.000000000000000D+00 0.000000000000000D+00 -.214658612029930D+03
 0.144376963079715D+03 -.168672800230523D+01 -.483941080966645D+01 -.720655432213138D+02
 0.177403649931377D+03 -.101962601822050D+03 0.970310484561472D+02 0.720655432213138D+02
 0.143237749638871D+03 0.103649329824355D+03 -.921916376464808D+02 0.357011385901042D+02
0.524085256957D-03 0.000000000000D+00 0.000000000000D+00 0.190231468553D-02 0.000000000000D+00  5 2 -1 25 24 21 0 0.33798640D-01 0.14758530D-01 0.15798562D+05 0.15798562D+05 0.15798562D+05 0.12452627D+01  1  2  2  1  5  1        2 0.288105590179D+00 0.100000000000D+01
-.283809036800D-04 0.000000000000D+00 -.201262538153D-05 0.190231468553D-02 0.000000000000D+00  5 2 -1 25 24 21 2 0.33798640D-01 0.14758530D-01 0.15798562D+05 0.15798562D+05 0.15798562D+05 0.12452627D+01  1  2  3  1  5  1        2 -.241934550665D-01 0.100000000000D+01
0.361147851895D-04 0.000000000000D+00 0.000000000000D+00 0.190231468553D-02 0.000000000000D+00  5 2 -1 25 24 21 2 0.33798640D-01 0.14758530D-01 0.15798562D+05 0.15798562D+05 0.15798562D+05 0.12452627D+01  1  2 15  1  5  1        2 0.307862442497D-01 0.100000000000D+01
-.207206977611D-04 0.000000000000D+00 -.188448610203D-03 0.190231468553D-02 0.000000000000D+00  5 2 -1 25 24 21 2 0.82087261D-01 0.14758530D-01 0.15798562D+05 0.15798562D+05 0.15798562D+05 0.12452627D+01  1  2  5  1  5  1        2 -.684532354310D-02 0.100000000000D+01
0.978123538235D-05 0.000000000000D+00 -.183264140248D-04 0.190231468553D-02 0.000000000000D+00  5 21 -1 25 24 -2 2 0.82087261D-01 0.14758530D-01 0.15798562D+05 0.15798562D+05 0.15798562D+05 0.12452627D+01  1  2  5  3  5  1        2 0.595138409310D-02 0.100000000000D+01
  </mgrwgt>
  </event>
  <event>
  4     66 0.48098993E-03 0.10897306E+03 0.75467711E-02 0.11508112E+00
        2 -1    0    0  501    0 0.00000000E+00 0.00000000E+00 0.73354406E+03 0.73354413E+03 0.32000000E+00 0.0000E+00 0.9000E+01
       -1 -1    0    0    0  501 0.00000000E+00 0.00000000E+00 -.17117334E+02 0.17120325E+02 0.32000000E+00 0.0000E+00 0.9000E+01
       25  1    1    2    0    0 0.99292351E+00 -.35628964E+02 0.50946194E+03 0.52578216E+03 0.12500000E+03 0.0000E+00 0.9000E+01
       24  1    1    2    0    0 -.99292351E+00 0.35628964E+02 0.20696478E+03 0.22488229E+03 0.80419002E+02 0.0000E+00 0.9000E+01
#aMCatNLO 1  0  0  2  2 0.13928662D+03 0.00000000D+00  -5  5  0 0.00000000D+00 0.00000000D+00 0.00000000D+00 0.00000000D+00 0.00000000D+00
  <mgrwgt>
 0.1928089168D+00    5    2    0
 0.112060107180718D+03 0.000000000000000D+00 0.000000000000000D+00 0.112060107180718D+03
 0.112060107180718D+03 0.000000000000000D+00 0.000000000000000D+00 -.112060107180718D+03
 0.132490624953784D+03 0.992923509684274D+00 -.356289644745903D+02 0.256584624250293D+02
 0.916295894076519D+02 -.992923509684274D+00 0.356289644745903D+02 -.256584624250293D+02
 0.000000000000000D+00 -.000000000000000D+00 0.000000000000000D+00 -.000000000000000D+00
 0.142951490517924D+03 0.000000000000000D+00 0.000000000000000D+00 0.142951490517924D+03
 0.572327847726689D+03 0.000000000000000D+00 0.000000000000000D+00 -.572327847726689D+03
 0.175545198480233D+03 0.444600158805295D+02 -.112053857601382D+03 0.256584624250293D+02
 0.883309726123139D+02 0.244014033099256D+02 -.901995514160260D+01 -.256584624250293D+02
 0.451403167152066D+03 -.688614191904551D+02 0.121073812742984D+03 -.429376357208765D+03
0.199232680818D-03 0.000000000000D+00 0.000000000000D+00 0.282648059083D-02 0.000000000000D+00  5 2 -1 25 24 21 0 0.11285317D+00 0.26336715D-02 0.11875127D+05 0.11875127D+05 0.11875127D+05 0.12595569D+01  1  2  2  2  5  2       -1 0.382203363534D+00 0.100000000000D+01
-.110579805861D-04 0.000000000000D+00 -.765105953513D-06 0.282648059083D-02 0.000000000000D+00  5 2 -1 25 24 21 2 0.11285317D+00 0.26336715D-02 0.11875127D+05 0.11875127D+05 0.11875127D+05 0.12595569D+01  1  2  3  2  5  2       -1 -.336546689814D-01 0.100000000000D+01
0.137663675553D-04 0.000000000000D+00 0.000000000000D+00 0.282648059083D-02 0.000000000000D+00  5 2 -1 25 24 21 2 0.11285317D+00 0.26336715D-02 0.11875127D+05 0.11875127D+05 0.11875127D+05 0.12595569D+01  1  2 15  2  5  2       -1 0.418975724857D-01 0.100000000000D+01
-.235426738377D-03 0.000000000000D+00 -.935727780762D-04 0.282648059083D-02 0.000000000000D+00  5 2 -1 25 24 21 2 0.11285317D+00 0.17032793D-01 0.11875127D+05 0.11875127D+05 0.11875127D+05 0.12595569D+01  1  2  5  2  5  2       -1 -.440273905108D-01 0.100000000000D+01
-.611961815403D-04 0.000000000000D+00 -.213974145072D-04 0.282648059083D-02 0.000000000000D+00  5 2 21 25 24 1 2 0.11285317D+00 0.17032793D-01 0.11875127D+05 0.11875127D+05 0.11875127D+05 0.12595569D+01  1  2  5  4  5  2       -1 -.153609959692D+00 0.100000000000D+01
  </mgrwgt>
  </event>
  <event>
  4     66 0.48098993E-03 0.58431871E+02 0.75467711E-02 0.12356740E+00
        2 -1    0    0  501    0 0.00000000E+00 0.00000000E+00 0.68428096E+03 0.68428103E+03 0.32000000E+00 0.0000E+00 0.9000E+01
       -1 -1    0    0    0  501 0.00000000E+00 0.00000000E+00 -.19575295E+02 0.19577910E+02 0.32000000E+00 0.0000E+00 0.9000E+01
       25  1    1    2    0    0 -.23624775E+02 -.45858849E+02 0.36196478E+03 0.38639962E+03 0.12500000E+03 0.0000E+00 0.9000E+01
       24  1    1    2    0    0 0.23624775E+02 0.45858849E+02 0.30274088E+03 0.31745932E+03 0.80419002E+02 0.0000E+00 0.9000E+01
#aMCatNLO 1  0  0  2  1 0.17768393D+02 0.00000000D+00  -5  5  0 0.00000000D+00 0.00000000D+00 0.00000000D+00 0.00000000D+00 0.00000000D+00
  <mgrwgt>
 0.2811908182D+00    9    2    0
 0.115740867309374D+03 0.000000000000000D+00 0.000000000000000D+00 0.115740867309374D+03
 0.115740867309374D+03 0.000000000000000D+00 0.000000000000000D+00 -.115740867309374D+03
 0.135521659216590D+03 -.236247754265487D+02 -.458588486444597D+02 -.894181770487333D+01
 0.959600754021590D+02 0.236247754265487D+02 0.458588486444597D+02 0.894181770487333D+01
 0.000000000000000D+00 -.000000000000000D+00 -.000000000000000D+00 -.000000000000000D+00
 0.117405509200936D+03 0.000000000000000D+00 0.000000000000000D+00 0.117405509200936D+03
 0.175687696406315D+03 0.000000000000000D+00 0.000000000000000D+00 -.175687696406315D+03
 0.132144405123526D+03 -.218913467114419D+02 -.357485194202899D+02 -.894181770487333D+01
 0.100018273311537D+03 0.248939482596347D+02 0.532613769821085D+02 0.894181770487333D+01
 0.609305271721873D+02 -.300260154819278D+01 -.175128575618187D+02 -.582821872053795D+02
0.131054369391D-03 0.000000000000D+00 0.000000000000D+00 0.285590457119D-02 0.000000000000D+00  5 2 -1 25 24 21 0 0.10527420D+00 0.30117908D-02 0.13313571D+05 0.13313571D+05 0.13313571D+05 0.12537710D+01  1  2  2  2  5  2       -1 0.225864077053D+00 0.100000000000D+01
-.728071409326D-05 0.000000000000D+00 -.503283285871D-06 0.285590457119D-02 0.000000000000D+00  5 2 -1 25 24 21 2 0.10527420D+00 0.30117908D-02 0.13313571D+05 0.13313571D+05 0.13313571D+05 0.12537710D+01  1  2  3  2  5  2       -1 -.197245034699D-01 0.100000000000D+01
0.905439089310D-05 0.000000000000D+00 0.000000000000D+00 0.285590457119D-02 0.000000000000D+00  5 2 -1 25 24 21 2 0.10527420D+00 0.30117908D-02 0.13313571D+05 0.13313571D+05 0.13313571D+05 0.12537710D+01  1  2 15  2  5  2       -1 0.245296494686D-01 0.100000000000D+01
0.765631028360D-03 0.000000000000D+00 0.000000000000D+00 0.285590457119D-02 0.000000000000D+00  5 2 -1 25 24 21 2 0.10527420D+00 0.45843125D-02 0.15528609D+05 0.15528609D+05 0.15528609D+05 0.12461114D+01  1  2 12  2  5  2       -1 0.111554851621D+01 0.100000000000D+01
-.717152643484D-03 0.000000000000D+00 0.000000000000D+00 0.285590457119D-02 0.000000000000D+00  5 2 -1 25 24 21 2 0.10527420D+00 0.30117908D-02 0.13313571D+05 0.13313571D+05 0.13313571D+05 0.12537710D+01  1  2  4  2  5  2       -1 -.194286983717D+01 0.100000000000D+01
-.807477338621D-03 0.000000000000D+00 -.491555788691D-04 0.285590457119D-02 0.000000000000D+00  5 2 -1 25 24 21 2 0.10527420D+00 0.46308709D-02 0.13313571D+05 0.13313571D+05 0.13313571D+05 0.12537710D+01  1  2  5  2  5  2       -1 -.116774606261D+01 0.100000000000D+01
0.761302652548D-03 0.000000000000D+00 0.449329388591D-04 0.285590457119D-02 0.000000000000D+00  5 2 -1 25 24 21 2 0.10527420D+00 0.30117908D-02 0.13313571D+05 0.13313571D+05 0.13313571D+05 0.12537710D+01  1  2  6  2  5  2       -1 0.206247857277D+01 0.100000000000D+01
0.377870079623D-04 0.000000000000D+00 0.000000000000D+00 0.285590457119D-02 0.000000000000D+00  5 2 21 25 24 1 2 0.10527420D+00 0.45843125D-02 0.15528609D+05 0.15528609D+05 0.15528609D+05 0.12461114D+01  1  2 12  4  5  2       -1 0.982526670999D+00 0.100000000000D+01
-.387165185015D-04 0.000000000000D+00 -.246935996935D-05 0.285590457119D-02 0.000000000000D+00  5 2 21 25 24 1 2 0.10527420D+00 0.46308709D-02 0.13313571D+05 0.13313571D+05 0.13313571D+05 0.12537710D+01  1  2  5  4  5  2       -1 -.999416265047D+00 0.100000000000D+01
  </mgrwgt>
  </event>
  <event>
  4     66 0.48098993E-03 0.11995819E+03 0.75467711E-02 0.10979830E+00
        2 -1    0    0  501    0 0.00000000E+00 0.00000000E+00 0.17937049E+04 0.17937049E+04 0.32000000E+00 0.0000E+00 0.9000E+01
       -1 -1    0    0    0  501 0.00000000E+00 0.00000000E+00 -.30262675E+02 0.30264367E+02 0.32000000E+00 0.0000E+00 0.9000E+01
       25  1    1    2    0    0 0.17014245E+03 -.97511226E+02 0.11922761E+04 0.12147445E+04 0.12500000E+03 0.0000E+00 0.9000E+01
       24  1    1    2    0    0 -.17014245E+03 0.97511226E+02 0.57116605E+03 0.60922472E+03 0.80419002E+02 0.0000E+00 0.9000E+01
#aMCatNLO 1  0  0  2  1 0.96736522D+02 0.00000000D+00  -5  5  0 0.00000000D+00 0.00000000D+00 0.00000000D+00 0.00000000D+00 0.00000000D+00
  <mgrwgt>
 0.4073981733D+00    9    2    0
 0.232989004901318D+03 0.000000000000000D+00 0.000000000000000D+00 0.232989004901318D+03
 0.232989004901318D+03 0.000000000000000D+00 0.000000000000000D+00 -.232989004901318D+03
 0.242815417149300D+03 0.170142450448018D+03 -.975112261613427D+02 0.698386292351431D+02
 0.223162592653336D+03 -.170142450448018D+03 0.975112261613427D+02 -.698386292351431D+02
 0.000000000000000D+00 0.000000000000000D+00 0.000000000000000D+00 -.000000000000000D+00
 0.278685361400241D+03 0.000000000000000D+00 0.000000000000000D+00 0.278685361400241D+03
 0.295397412033773D+03 0.000000000000000D+00 0.000000000000000D+00 -.295397412033773D+03
 0.243192143437242D+03 0.140389157890151D+03 -.137589493941400D+03 0.698386292351431D+02
 0.232721147313804D+03 -.198051568304634D+03 0.599170978211855D+02 -.698386292351431D+02
 0.981694826829683D+02 0.576624104144831D+02 0.776723961202148D+02 -.167120506335325D+02
0.144626288653D-02 0.000000000000D+00 0.000000000000D+00 0.190758144730D-02 0.000000000000D+00  5 2 -1 25 24 21 0 0.27595473D+00 0.46559285D-02 0.49396889D+05 0.49396889D+05 0.49396889D+05 0.11928041D+01  1  2  2  2  5  2       -1 0.308018186529D+00 0.100000000000D+01
-.801305749141D-04 0.000000000000D+00 -.555403029404D-05 0.190758144730D-02 0.000000000000D+00  5 2 -1 25 24 21 2 0.27595473D+00 0.46559285D-02 0.49396889D+05 0.49396889D+05 0.49396889D+05 0.11928041D+01  1  2  3  2  5  2       -1 -.242809458935D-01 0.100000000000D+01
0.988965980041D-04 0.000000000000D+00 0.000000000000D+00 0.190758144730D-02 0.000000000000D+00  5 2 -1 25 24 21 2 0.27595473D+00 0.46559285D-02 0.49396889D+05 0.49396889D+05 0.49396889D+05 0.11928041D+01  1  2 15  2  5  2       -1 0.299673744730D-01 0.100000000000D+01
0.493838441249D-03 0.000000000000D+00 0.000000000000D+00 0.190758144730D-02 0.000000000000D+00  5 2 -1 25 24 21 2 0.27595473D+00 0.62564794D-02 0.76087650D+05 0.76087650D+05 0.76087650D+05 0.11746345D+01  1  2 12  2  5  2       -1 0.926694776144D-01 0.100000000000D+01
-.593651844525D-03 0.000000000000D+00 0.000000000000D+00 0.190758144730D-02 0.000000000000D+00  5 2 -1 25 24 21 2 0.27595473D+00 0.46559285D-02 0.49396889D+05 0.49396889D+05 0.49396889D+05 0.11928041D+01  1  2  4  2  5  2       -1 -.179886745252D+00 0.100000000000D+01
-.994976103889D-03 0.000000000000D+00 -.529111536871D-03 0.190758144730D-02 0.000000000000D+00  5 2 -1 25 24 21 2 0.27595473D+00 0.72784137D-02 0.49396889D+05 0.49396889D+05 0.49396889D+05 0.11928041D+01  1  2  5  2  5  2       -1 -.153820272414D+00 0.100000000000D+01
0.116218189182D-02 0.000000000000D+00 0.480366972262D-03 0.190758144730D-02 0.000000000000D+00  5 2 -1 25 24 21 2 0.27595473D+00 0.46559285D-02 0.49396889D+05 0.49396889D+05 0.49396889D+05 0.11928041D+01  1  2  6  2  5  2       -1 0.352161152769D+00 0.100000000000D+01
0.188809166149D-04 0.000000000000D+00 0.000000000000D+00 0.190758144730D-02 0.000000000000D+00  5 2 21 25 24 1 2 0.27595473D+00 0.62564794D-02 0.76087650D+05 0.76087650D+05 0.76087650D+05 0.11746345D+01  1  2 12  4  5  2       -1 0.576121986303D-01 0.100000000000D+01
-.305561103648D-04 0.000000000000D+00 -.273458450412D-04 0.190758144730D-02 0.000000000000D+00  5 2 21 25 24 1 2 0.27595473D+00 0.72784137D-02 0.49396889D+05 0.49396889D+05 0.49396889D+05 0.11928041D+01  1  2  5  4  5  2       -1 -.750422531165D-01 0.100000000000D+01
  </mgrwgt>
  </event>
  <event>
  5     66 0.48098993E-03 0.10544996E+03 0.75467711E-02 0.11942529E+00
        2 -1    0    0  501    0 0.00000000E+00 0.00000000E+00 0.84593871E+03 0.84593877E+03 0.32000000E+00 0.0000E+00 0.9000E+01
       21 -1    0    0  502  501 0.00000000E+00 0.00000000E+00 -.30289962E+02 0.30299246E+02 0.75000000E+00 0.0000E+00 0.9000E+01
       25  1    1    2    0    0 -.18946242E+02 -.22455342E+02 0.36648605E+03 0.38833005E+03 0.12500000E+03 0.0000E+00 0.9000E+01
       24  1    1    2    0    0 -.85432115E+01 -.56294909E+02 0.16938008E+03 0.19595646E+03 0.80419002E+02 0.0000E+00 0.9000E+01
        1  1    1    2  502    0 0.27489453E+02 0.78750251E+02 0.27978261E+03 0.29195151E+03 0.32000000E+00 0.0000E+00 0.9000E+01
#aMCatNLO 2  0  0  2  1 0.83410263D+02 0.00000000D+00  -5  5  0 0.00000000D+00 0.00000000D+00 0.00000000D+00 0.00000000D+00 0.00000000D+00
  <mgrwgt>
 0.1403829060D+00    1    2    0
 0.108720895958886D+03 0.000000000000000D+00 0.000000000000000D+00 0.108720895958886D+03
 0.108720895958886D+03 0.000000000000000D+00 0.000000000000000D+00 -.108720895958886D+03
 0.129778908691537D+03 -.302768172213192D+01 0.231472603458766D+02 0.259345835331100D+02
 0.876628832262361D+02 0.302768172213192D+01 -.231472603458766D+02 -.259345835331100D+02
 0.000000000000000D+00 0.000000000000000D+00 0.000000000000000D+00 0.000000000000000D+00
 0.175879790660711D+03 0.000000000000000D+00 0.000000000000000D+00 0.175879790660711D+03
 0.145710033263193D+03 0.000000000000000D+00 0.000000000000000D+00 -.145710033263193D+03
 0.130999256026363D+03 -.189462418960511D+02 -.224553417796511D+02 0.259345835331100D+02
 0.101891716136113D+03 -.854321149071377D+01 -.562949089810143D+02 -.259345835331100D+02
 0.886988517614287D+02 0.274894533867649D+02 0.787502507606654D+02 0.301697573975182D+02
0.740342220092D-05 0.000000000000D+00 0.000000000000D+00 0.290267285452D-02 0.248837801494D-06  5 2 21 25 24 1 2 0.13014489D+00 0.46607043D-02 0.24079674D+05 0.24079674D+05 0.24079674D+05 0.12250479D+01  1  2  1  4  5  2       -1 0.140382905954D+00 0.100000000000D+01
  </mgrwgt>
  </event>
  <event>
  5     66 0.48098993E-03 0.16816500E+03 0.75467711E-02 0.11254418E+00
        2 -1    0    0  501    0 0.00000000E+00 0.00000000E+00 0.29680790E+04 0.29680790E+04 0.32000000E+00 0.0000E+00 0.9000E+01
       21 -1    0    0  502  501 0.00000000E+00 0.00000000E+00 -.18229952E+02 0.18245374E+02 0.75000000E+00 0.0000E+00 0.9000E+01
       25  1    1    2    0    0 0.10974652E+03 -.34254919E+02 0.10902198E+04 0.11033684E+04 0.12500000E+03 0.0000E+00 0.9000E+01
       24  1    1    2    0    0 -.15110066E+03 -.67310388E+02 0.10594056E+04 0.10752533E+04 0.80419002E+02 0.0000E+00 0.9000E+01
        1  1    1    2  502    0 0.41354137E+02 0.10156531E+03 0.80022365E+03 0.80770271E+03 0.32000000E+00 0.0000E+00 0.9000E+01
#aMCatNLO 2  0  0  2  1 0.10966164D+03 0.00000000D+00  -5  5  0 0.00000000D+00 0.00000000D+00 0.00000000D+00 0.00000000D+00 0.00000000D+00
  <mgrwgt>
 0.6807972423D-01    1    2    0
 0.168432033309127D+03 0.000000000000000D+00 0.000000000000000D+00 0.168432033309127D+03
 0.168432033309127D+03 0.000000000000000D+00 0.000000000000000D+00 -.168432033309127D+03
 0.182024732788124D+03 0.130815797035820D+03 0.174909871294172D+02 0.944965405236886D+01
 0.154839333830130D+03 -.130815797035820D+03 -.174909871294172D+02 -.944965405236886D+01
 0.000000000000000D+00 0.000000000000000D+00 0.000000000000000D+00 0.000000000000000D+00
 0.242935674178323D+03 0.000000000000000D+00 0.000000000000000D+00 0.242935674178323D+03
 0.222819820860852D+03 0.000000000000000D+00 0.000000000000000D+00 -.222819820860852D+03
 0.170094076192308D+03 0.109746522955849D+03 -.342549192541237D+02 0.944965405236886D+01
 0.184170056488861D+03 -.151100659923425D+03 -.673103882156076D+02 -.944965405236886D+01
 0.111491362358006D+03 0.413541369675762D+02 0.101565307469731D+03 0.201158533174706D+02
0.241480269455D-04 0.000000000000D+00 0.000000000000D+00 0.228203752821D-02 0.850948262452D-07  5 2 21 25 24 1 2 0.45662827D+00 0.28057928D-02 0.53689639D+05 0.53689639D+05 0.53689639D+05 0.11892316D+01  1  2  1  4  5  2       -1 0.680797242263D-01 0.100000000000D+01
  </mgrwgt>
  </event>
  <event>
  4     66 0.48098993E-03 0.64747997E+02 0.75467711E-02 0.12043537E+00
        2 -1    0    0  501    0 0.00000000E+00 0.00000000E+00 0.76336932E+03 0.76336939E+03 0.32000000E+00 0.0000E+00 0.9000E+01
       -1 -1    0    0    0  501 0.00000000E+00 0.00000000E+00 -.21062179E+02 0.21064609E+02 0.32000000E+00 0.0000E+00 0.9000E+01
       25  1    1    2    0    0 0.59783381E+02 -.37350920E+02 0.48507909E+03 0.50586151E+03 0.12500000E+03 0.0000E+00 0.9000E+01
       24  1    1    2    0    0 -.59783381E+02 0.37350920E+02 0.25722805E+03 0.27857249E+03 0.80419002E+02 0.0000E+00 0.9000E+01
#aMCatNLO 1  0  0  2  1 0.40186378D+02 0.00000000D+00  -5  5  0 0.00000000D+00 0.00000000D+00 0.00000000D+00 0.00000000D+00 0.00000000D+00
  <mgrwgt>
 0.3912326613D+00    9    2    0
 0.126803788045773D+03 0.000000000000000D+00 0.000000000000000D+00 0.126803788045773D+03
 0.126803788045773D+03 0.000000000000000D+00 0.000000000000000D+00 -.126803788045773D+03
 0.144858816579944D+03 0.597833805816693D+02 -.373509197376072D+02 0.197467197763043D+02
 0.108748759511602D+03 -.597833805816693D+02 0.373509197376072D+02 -.197467197763043D+02
 0.000000000000000D+00 -.000000000000000D+00 -.000000000000000D+00 -.000000000000000D+00
 0.139351651919065D+03 0.000000000000000D+00 0.000000000000000D+00 0.139351651919065D+03
 0.165203786148018D+03 0.000000000000000D+00 0.000000000000000D+00 -.165203786148018D+03
 0.154176931957643D+03 0.824447258964450D+02 -.309590144837940D+02 0.197467197763043D+02
 0.102594849324129D+03 -.437674676905877D+02 0.418684007755211D+02 -.197467197763043D+02
 0.477836567853119D+02 -.386772582058572D+02 -.109093862917271D+02 -.258521342289532D+02
0.230935666642D-03 0.000000000000D+00 0.000000000000D+00 0.261048511941D-02 0.000000000000D+00  5 2 -1 25 24 21 0 0.11744163D+00 0.32405273D-02 0.15680990D+05 0.15680990D+05 0.15680990D+05 0.12456303D+01  1  2  2  2  5  2       -1 0.316002860738D+00 0.100000000000D+01
-.128273067739D-04 0.000000000000D+00 -.886853766661D-06 0.261048511941D-02 0.000000000000D+00  5 2 -1 25 24 21 2 0.11744163D+00 0.32405273D-02 0.15680990D+05 0.15680990D+05 0.15680990D+05 0.12456303D+01  1  2  3  2  5  2       -1 -.272341498674D-01 0.100000000000D+01
0.159899226433D-04 0.000000000000D+00 0.000000000000D+00 0.261048511941D-02 0.000000000000D+00  5 2 -1 25 24 21 2 0.11744163D+00 0.32405273D-02 0.15680990D+05 0.15680990D+05 0.15680990D+05 0.12456303D+01  1  2 15  2  5  2       -1 0.339488216278D-01 0.100000000000D+01
0.181259812575D-03 0.000000000000D+00 0.000000000000D+00 0.261048511941D-02 0.000000000000D+00  5 2 -1 25 24 21 2 0.11744163D+00 0.43450193D-02 0.21575215D+05 0.21575215D+05 0.21575215D+05 0.12302177D+01  1  2 12  2  5  2       -1 0.246704011892D+00 0.100000000000D+01
-.196347953718D-03 0.000000000000D+00 0.000000000000D+00 0.261048511941D-02 0.000000000000D+00  5 2 -1 25 24 21 2 0.11744163D+00 0.32405273D-02 0.15680990D+05 0.15680990D+05 0.15680990D+05 0.12456303D+01  1  2  4  2  5  2       -1 -.416873915307D+00 0.100000000000D+01
-.309536677939D-03 0.000000000000D+00 -.976128603124D-04 0.261048511941D-02 0.000000000000D+00  5 2 -1 25 24 21 2 0.11744163D+00 0.46430324D-02 0.15680990D+05 0.15680990D+05 0.15680990D+05 0.12456303D+01  1  2  5  2  5  2       -1 -.388194783647D+00 0.100000000000D+01
0.329117015547D-03 0.000000000000D+00 0.916236559476D-04 0.261048511941D-02 0.000000000000D+00  5 2 -1 25 24 21 2 0.11744163D+00 0.32405273D-02 0.15680990D+05 0.15680990D+05 0.15680990D+05 0.12456303D+01  1  2  6  2  5  2       -1 0.698761032481D+00 0.100000000000D+01
0.689303443344D-05 0.000000000000D+00 0.000000000000D+00 0.261048511941D-02 0.000000000000D+00  5 2 21 25 24 1 2 0.11744163D+00 0.43450193D-02 0.21575215D+05 0.21575215D+05 0.21575215D+05 0.12302177D+01  1  2 12  4  5  2       -1 0.168402831838D+00 0.100000000000D+01
-.107651264490D-04 0.000000000000D+00 -.430023646958D-05 0.261048511941D-02 0.000000000000D+00  5 2 21 25 24 1 2 0.11744163D+00 0.46430324D-02 0.15680990D+05 0.15680990D+05 0.15680990D+05 0.12456303D+01  1  2  5  4  5  2       -1 -.240284048506D+00 0.100000000000D+01
  </mgrwgt>
  </event>
  <event>
  4     66 0.48098993E-03 0.27848055E+02 0.75467711E-02 0.12435694E+00
        2 -1    0    0  501    0 0.00000000E+00 0.00000000E+00 0.12021063E+04 0.12021063E+04 0.32000000E+00 0.0000E+00 0.9000E+01
       -1 -1    0    0    0  501 0.00000000E+00 0.00000000E+00 -.10738623E+02 0.10743390E+02 0.32000000E+00 0.0000E+00 0.9000E+01
       25  1    1    2    0    0 0.33833417E+02 -.10745642E+02 0.87104348E+03 0.88068264E+03 0.12500000E+03 0.0000E+00 0.9000E+01
       24  1    1    2    0    0 -.33833417E+02 0.10745642E+02 0.32032415E+03 0.33216705E+03 0.80419002E+02 0.0000E+00 0.9000E+01
#aMCatNLO 1  0  0  1  2 0.20531719D+02 0.00000000D+00  -5  5  0 0.00000000D+00 0.00000000D+00 0.00000000D+00 0.00000000D+00 0.00000000D+00
  <mgrwgt>
 0.4973106969D+00    9    2    0
 0.113630464785720D+03 0.000000000000000D+00 0.000000000000000D+00 0.113630464785720D+03
 0.113630464785720D+03 0.000000000000000D+00 0.000000000000000D+00 -.113630464785720D+03
 0.133778635575347D+03 0.338334171453536D+02 -.107456417966731D+02 0.318049430599633D+02
 0.934822939960930D+02 -.338334171453536D+02 0.107456417966731D+02 -.318049430599633D+02
 0.000000000000000D+00 0.000000000000000D+00 -.000000000000000D+00 0.000000000000000D+00
 0.150501237122948D+03 0.000000000000000D+00 0.000000000000000D+00 0.150501237122948D+03
 0.116987889349027D+03 0.000000000000000D+00 0.000000000000000D+00 -.116987889349027D+03
 0.131676723238030D+03 0.264664932800915D+02 -.131520839113641D+01 0.318049430599633D+02
 0.965097829229770D+02 -.391060820933226D+02 0.174952046496292D+02 -.318049430599633D+02
 0.393026203109686D+02 0.126395888132310D+02 -.161799962584928D+02 0.335133477739209D+02
0.171029786357D-03 0.000000000000D+00 0.000000000000D+00 0.272476792663D-02 0.000000000000D+00  5 2 -1 25 24 21 0 0.18493979D+00 0.16524658D-02 0.11864491D+05 0.11864491D+05 0.11864491D+05 0.12596026D+01  1  2  2  1  5  1        2 0.331896263112D+00 0.100000000000D+01
-.948098477037D-05 0.000000000000D+00 -.656799412787D-06 0.272476792663D-02 0.000000000000D+00  5 2 -1 25 24 21 2 0.18493979D+00 0.16524658D-02 0.11864491D+05 0.11864491D+05 0.11864491D+05 0.12596026D+01  1  2  3  1  5  1        2 -.291911446892D-01 0.100000000000D+01
0.118053135440D-04 0.000000000000D+00 0.000000000000D+00 0.272476792663D-02 0.000000000000D+00  5 2 -1 25 24 21 2 0.18493979D+00 0.16524658D-02 0.11864491D+05 0.11864491D+05 0.11864491D+05 0.12596026D+01  1  2 15  1  5  1        2 0.363475550389D-01 0.100000000000D+01
0.487102601623D-03 0.000000000000D+00 0.000000000000D+00 0.272476792663D-02 0.000000000000D+00  5 2 -1 25 24 21 2 0.24703644D+00 0.16524658D-02 0.14331464D+05 0.14331464D+05 0.14331464D+05 0.12500862D+01  1  2 12  1  5  1        2 0.911176211792D+00 0.100000000000D+01
-.487875224307D-03 0.000000000000D+00 0.000000000000D+00 0.272476792663D-02 0.000000000000D+00  5 2 -1 25 24 21 2 0.18493979D+00 0.16524658D-02 0.11864491D+05 0.11864491D+05 0.11864491D+05 0.12596026D+01  1  2  4  1  5  1        2 -.150212626726D+01 0.100000000000D+01
-.621387894055D-03 0.000000000000D+00 -.884710358962D-04 0.272476792663D-02 0.000000000000D+00  5 2 -1 25 24 21 2 0.24768226D+00 0.16524658D-02 0.11864491D+05 0.11864491D+05 0.11864491D+05 0.12596026D+01  1  2  5  1  5  1        2 -.116900547543D+01 0.100000000000D+01
0.624060684426D-03 0.000000000000D+00 0.848260396483D-04 0.272476792663D-02 0.000000000000D+00  5 2 -1 25 24 21 2 0.18493979D+00 0.16524658D-02 0.11864491D+05 0.11864491D+05 0.11864491D+05 0.12596026D+01  1  2  6  1  5  1        2 0.192142970115D+01 0.100000000000D+01
0.183501864226D-04 0.000000000000D+00 0.000000000000D+00 0.272476792663D-02 0.000000000000D+00  5 21 -1 25 24 -2 2 0.24703644D+00 0.16524658D-02 0.14331464D+05 0.14331464D+05 0.14331464D+05 0.12500862D+01  1  2 12  3  5  1        2 0.163340400843D-01 0.100000000000D+01
-.216586797814D-04 0.000000000000D+00 -.335463362213D-05 0.272476792663D-02 0.000000000000D+00  5 21 -1 25 24 -2 2 0.24768226D+00 0.16524658D-02 0.11864491D+05 0.11864491D+05 0.11864491D+05 0.12596026D+01  1  2  5  3  5  1        2 -.195501869440D-01 0.100000000000D+01
  </mgrwgt>
  </event>
  <event>
  5     66 0.48098993E-03 0.10555916E+03 0.75467711E-02 0.12066511E+00
       21 -1    0    0  501  502 0.00000000E+00 0.00000000E+00 0.11460607E+04 0.11460610E+04 0.75000000E+00 0.0000E+00 0.9000E+01
       -1 -1    0    0    0  501 0.00000000E+00 0.00000000E+00 -.22788206E+02 0.22790453E+02 0.32000000E+00 0.0000E+00 0.9000E+01
       25  1    1    2    0    0 -.58074710E+02 0.32532450E+01 0.29405997E+03 0.32477611E+03 0.12500000E+03 0.0000E+00 0.9000E+01
       24  1    1    2    0    0 -.81398588E+01 -.21439567E+02 0.56167175E+03 0.56786291E+03 0.80419002E+02 0.0000E+00 0.9000E+01
       -2  1    1    2    0  502 0.66214569E+02 0.18186322E+02 0.26754082E+03 0.27621243E+03 0.32000000E+00 0.0000E+00 0.9000E+01
#aMCatNLO 2  0  0  1  2 0.68666669D+02 0.00000000D+00  -5  5  0 0.00000000D+00 0.00000000D+00 0.00000000D+00 0.00000000D+00 0.00000000D+00
  <mgrwgt>
 0.7732159804D-02    1    2    0
 0.122283000655899D+03 0.000000000000000D+00 0.000000000000000D+00 0.122283000655899D+03
 0.122283000655899D+03 0.000000000000000D+00 0.000000000000000D+00 -.122283000655899D+03
 0.141005521358918D+03 -.193402290559251D+02 0.138919570373723D+02 -.607497006036775D+02
 0.103560479952880D+03 0.193402290559251D+02 -.138919570373723D+02 0.607497006036775D+02
 0.000000000000000D+00 0.000000000000000D+00 0.000000000000000D+00 0.000000000000000D+00
 0.166512360591976D+03 0.000000000000000D+00 0.000000000000000D+00 0.166512360591976D+03
 0.156853250817207D+03 0.000000000000000D+00 0.000000000000000D+00 -.156853250817207D+03
 0.150661148444670D+03 -.580747098526916D+02 0.325324495788285D+01 -.607497006036775D+02
 0.103361764693970D+03 -.813985880291269D+01 -.214395667286749D+02 0.607497006036775D+02
 0.693426982705429D+02 0.662145686556042D+02 0.181863217707921D+02 0.965910977476889D+01
0.987288011129D-05 0.000000000000D+00 0.000000000000D+00 0.215296691110D-02 0.240890072079D-06  5 21 -1 25 24 -2 2 0.17631683D+00 0.35060615D-02 0.21048500D+05 0.21048500D+05 0.21048500D+05 0.12313904D+01  1  2  1  3  5  1        2 0.773215980423D-02 0.100000000000D+01
  </mgrwgt>
  </event>
  <event>
  4     66 0.48098993E-03 0.10284799E+03 0.75467711E-02 0.12231750E+00
        2 -1    0    0  501    0 0.00000000E+00 0.00000000E+00 0.43783756E+03 0.43783768E+03 0.32000000E+00 0.0000E+00 0.9000E+01
       -1 -1    0    0    0  501 0.00000000E+00 0.00000000E+00 -.48333095E+02 0.48334154E+02 0.32000000E+00 0.0000E+00 0.9000E+01
       25  1    1    2    0    0 0.38156991E+02 0.47432163E+02 0.35217130E+03 0.37862302E+03 0.12500000E+03 0.0000E+00 0.9000E+01
       24  1    1    2    0    0 -.38156991E+02 -.47432163E+02 0.37333166E+02 0.10754881E+03 0.80419002E+02 0.0000E+00 0.9000E+01
#aMCatNLO 1  0  0  1  2 0.24288540D+02 0.00000000D+00  -5  5  0 0.00000000D+00 0.00000000D+00 0.00000000D+00 0.00000000D+00 0.00000000D+00
  <mgrwgt>
 0.4715456324D+00    9    2    0
 0.145472782586724D+03 0.000000000000000D+00 0.000000000000000D+00 0.145472782586724D+03
 0.145472782586724D+03 0.000000000000000D+00 0.000000000000000D+00 -.145472782586724D+03
 0.161210750684244D+03 0.381569912772563D+02 0.474321628334612D+02 0.815974269311534D+02
 0.129734814489203D+03 -.381569912772563D+02 -.474321628334612D+02 -.815974269311534D+02
 0.000000000000000D+00 0.000000000000000D+00 0.000000000000000D+00 0.000000000000000D+00
 0.159117635174013D+03 0.000000000000000D+00 0.000000000000000D+00 0.159117635174013D+03
 0.157203813957414D+03 0.000000000000000D+00 0.000000000000000D+00 -.157203813957414D+03
 0.157675128640233D+03 0.253162835967201D+02 0.440158141442330D+02 0.815974269311534D+02
 0.134282496854697D+03 -.487882839665086D+02 -.502606831726309D+02 -.815974269311534D+02
 0.243638236364965D+02 0.234720003697885D+02 0.624486902839791D+01 0.191382121659968D+01
0.307897966908D-03 0.000000000000D+00 0.000000000000D+00 0.174834185509D-02 0.000000000000D+00  5 2 -1 25 24 21 0 0.67359716D-01 0.74359512D-02 0.14387562D+05 0.14387562D+05 0.14387562D+05 0.12498917D+01  1  2  2  1  5  1        2 0.231310554820D+00 0.100000000000D+01
-.163313154076D-04 0.000000000000D+00 -.118240926432D-05 0.174834185509D-02 0.000000000000D+00  5 2 -1 25 24 21 2 0.67359716D-01 0.74359512D-02 0.14387562D+05 0.14387562D+05 0.14387562D+05 0.12498917D+01  1  2  3  1  5  1        2 -.191670188943D-01 0.100000000000D+01
0.211126646778D-04 0.000000000000D+00 0.000000000000D+00 0.174834185509D-02 0.000000000000D+00  5 2 -1 25 24 21 2 0.67359716D-01 0.74359512D-02 0.14387562D+05 0.14387562D+05 0.14387562D+05 0.12498917D+01  1  2 15  1  5  1        2 0.247785822936D-01 0.100000000000D+01
0.406221328760D-03 0.000000000000D+00 0.000000000000D+00 0.174834185509D-02 0.000000000000D+00  5 2 -1 25 24 21 2 0.76162724D-01 0.74359512D-02 0.17669784D+05 0.17669784D+05 0.17669784D+05 0.12397932D+01  1  2 12  1  5  1        2 0.413224576381D+00 0.100000000000D+01
-.341708879513D-03 0.000000000000D+00 0.000000000000D+00 0.174834185509D-02 0.000000000000D+00  5 2 -1 25 24 21 2 0.67359716D-01 0.74359512D-02 0.14387562D+05 0.14387562D+05 0.14387562D+05 0.12498917D+01  1  2  4  1  5  1        2 -.401041825873D+00 0.100000000000D+01
-.114898032017D-02 0.000000000000D+00 -.310356392427D-03 0.174834185509D-02 0.000000000000D+00  5 2 -1 25 24 21 2 0.78724513D-01 0.74359512D-02 0.14387562D+05 0.14387562D+05 0.14387562D+05 0.12498917D+01  1  2  5  1  5  1        2 -.113874707797D+01 0.100000000000D+01
0.118665003223D-02 0.000000000000D+00 0.306622284524D-03 0.174834185509D-02 0.000000000000D+00  5 2 -1 25 24 21 2 0.67359716D-01 0.74359512D-02 0.14387562D+05 0.14387562D+05 0.14387562D+05 0.12498917D+01  1  2  6  1  5  1        2 0.139269513943D+01 0.100000000000D+01
0.785954534479D-05 0.000000000000D+00 0.000000000000D+00 0.174834185509D-02 0.000000000000D+00  5 21 -1 25 24 -2 2 0.76162724D-01 0.74359512D-02 0.17669784D+05 0.17669784D+05 0.17669784D+05 0.12397932D+01  1  2 12  3  5  1        2 0.159655898355D-01 0.100000000000D+01
-.247304694689D-04 0.000000000000D+00 -.730359689792D-05 0.174834185509D-02 0.000000000000D+00  5 21 -1 25 24 -2 2 0.78724513D-01 0.74359512D-02 0.14387562D+05 0.14387562D+05 0.14387562D+05 0.12498917D+01  1  2  5  3  5  1        2 -.474728875792D-01 0.100000000000D+01
  </mgrwgt>
  </event>
  <event>
  4     66 0.48098993E-03 0.41344163E+02 0.75467711E-02 0.12306079E+00
        2 -1    0    0  501    0 0.00000000E+00 0.00000000E+00 0.11426812E+04 0.11426812E+04 0.32000000E+00 0.0000E+00 0.9000E+01
       -1 -1    0    0    0  501 0.00000000E+00 0.00000000E+00 -.18292392E+02 0.18295191E+02 0.32000000E+00 0.0000E+00 0.9000E+01
       25  1    1    2    0    0 -.58563360E+02 -.12326867E+02 0.94813391E+03 0.95820902E+03 0.12500000E+03 0.0000E+00 0.9000E+01
       24  1    1    2    0    0 0.58563360E+02 0.12326867E+02 0.17625489E+03 0.20276741E+03 0.80419002E+02 0.0000E+00 0.9000E+01
#aMCatNLO 1  0  0  1  2 0.16651371D+02 0.00000000D+00  -5  5  0 0.00000000D+00 0.00000000D+00 0.00000000D+00 0.00000000D+00 0.00000000D+00
  <mgrwgt>
 0.2208566360D+00    9    2    0
 0.144582236545811D+03 0.000000000000000D+00 0.000000000000000D+00 0.144582236545811D+03
 0.144582236545811D+03 0.000000000000000D+00 0.000000000000000D+00 -.144582236545811D+03
 0.160417141760339D+03 -.585633598366661D+02 -.123268672920967D+02 0.807901021039143D+02
 0.128747331331283D+03 0.585633598366661D+02 0.123268672920967D+02 -.807901021039143D+02
 0.000000000000000D+00 0.000000000000000D+00 -.000000000000000D+00 0.000000000000000D+00
 0.284002648177147D+03 0.000000000000000D+00 0.000000000000000D+00 0.284002648177147D+03
 0.145319788689921D+03 0.000000000000000D+00 0.000000000000000D+00 -.145319788689921D+03
 0.162666134227026D+03 -.653631891254688D+02 -.599033669771922D+01 0.807901021039143D+02
 0.126977371939512D+03 0.531812046574573D+02 0.173423154023754D+02 -.807901021039143D+02
 0.139678930700530D+03 0.121819844680115D+02 -.113519787046561D+02 0.138682859487226D+03
0.236102643585D-03 0.000000000000D+00 0.000000000000D+00 0.176033742717D-02 0.000000000000D+00  5 2 -1 25 24 21 0 0.17579733D+00 0.28144329D-02 0.14260160D+05 0.14260160D+05 0.14260160D+05 0.12503346D+01  1  2  2  1  5  1        2 0.231101470256D+00 0.100000000000D+01
-.125335710183D-04 0.000000000000D+00 -.906696318619D-06 0.176033742717D-02 0.000000000000D+00  5 2 -1 25 24 21 2 0.17579733D+00 0.28144329D-02 0.14260160D+05 0.14260160D+05 0.14260160D+05 0.12503346D+01  1  2  3  1  5  1        2 -.191791418262D-01 0.100000000000D+01
0.162171450525D-04 0.000000000000D+00 0.000000000000D+00 0.176033742717D-02 0.000000000000D+00  5 2 -1 25 24 21 2 0.17579733D+00 0.28144329D-02 0.14260160D+05 0.14260160D+05 0.14260160D+05 0.12503346D+01  1  2 15  1  5  1        2 0.248158265927D-01 0.100000000000D+01
0.543241278665D-02 0.000000000000D+00 0.000000000000D+00 0.176033742717D-02 0.000000000000D+00  5 2 -1 25 24 21 2 0.34534101D+00 0.28144329D-02 0.16357991D+05 0.16357991D+05 0.16357991D+05 0.12435544D+01  1  2 12  1  5  1        2 0.220364916725D+01 0.100000000000D+01
-.442222706476D-02 0.000000000000D+00 0.000000000000D+00 0.176033742717D-02 0.000000000000D+00  5 2 -1 25 24 21 2 0.17579733D+00 0.28144329D-02 0.14260160D+05 0.14260160D+05 0.14260160D+05 0.12503346D+01  1  2  4  1  5  1        2 -.676698763178D+01 0.100000000000D+01
-.539827961159D-02 0.000000000000D+00 -.755274622910D-04 0.176033742717D-02 0.000000000000D+00  5 2 -1 25 24 21 2 0.34571402D+00 0.28144329D-02 0.14260160D+05 0.14260160D+05 0.14260160D+05 0.12503346D+01  1  2  5  1  5  1        2 -.220857046733D+01 0.100000000000D+01
0.441513931085D-02 0.000000000000D+00 0.610309642269D-04 0.176033742717D-02 0.000000000000D+00  5 2 -1 25 24 21 2 0.17579733D+00 0.28144329D-02 0.14260160D+05 0.14260160D+05 0.14260160D+05 0.12503346D+01  1  2  6  1  5  1        2 0.675614179724D+01 0.100000000000D+01
0.397280413824D-03 0.000000000000D+00 0.000000000000D+00 0.176033742717D-02 0.000000000000D+00  5 21 -1 25 24 -2 2 0.34534101D+00 0.28144329D-02 0.16357991D+05 0.16357991D+05 0.16357991D+05 0.12435544D+01  1  2 12  3  5  1        2 0.448640609223D-01 0.100000000000D+01
-.390919242778D-03 0.000000000000D+00 -.553185706892D-05 0.176033742717D-02 0.000000000000D+00  5 21 -1 25 24 -2 2 0.34571402D+00 0.28144329D-02 0.14260160D+05 0.14260160D+05 0.14260160D+05 0.12503346D+01  1  2  5  3  5  1        2 -.449784453487D-01 0.100000000000D+01
  </mgrwgt>
  </event>
  <event>
  4     66 0.48098993E-03 0.10286711E+03 0.75467711E-02 0.12013508E+00
        2 -1    0    0  501    0 0.00000000E+00 0.00000000E+00 0.13442736E+04 0.13442736E+04 0.32000000E+00 0.0000E+00 0.9000E+01
       -1 -1    0    0    0  501 0.00000000E+00 0.00000000E+00 -.79328121E+01 0.79392637E+01 0.32000000E+00 0.0000E+00 0.9000E+01
       25  1    1    2    0    0 -.13559152E+01 -.53890273E+01 0.75207278E+03 0.76241022E+03 0.12500000E+03 0.0000E+00 0.9000E+01
       24  1    1    2    0    0 0.13559152E+01 0.53890273E+01 0.58426800E+03 0.58980267E+03 0.80419002E+02 0.0000E+00 0.9000E+01
#aMCatNLO 1  0  0  2  2 0.78412271D+02 0.00000000D+00  -5  5  0 0.00000000D+00 0.00000000D+00 0.00000000D+00 0.00000000D+00 0.00000000D+00
  <mgrwgt>
 0.3859664167D+00    3    2    0
 0.103287257536874D+03 0.000000000000000D+00 0.000000000000000D+00 0.103287257536874D+03
 0.103287257536874D+03 0.000000000000000D+00 0.000000000000000D+00 -.103287257536874D+03
 0.125453070300274D+03 -.135591520866232D+01 -.538902730343885D+01 -.908805405106559D+01
 0.811214447734748D+02 0.135591520866232D+01 0.538902730343885D+01 0.908805405106559D+01
 0.000000000000000D+00 0.000000000000000D+00 0.000000000000000D+00 0.000000000000000D+00
 0.252407539514640D+03 0.000000000000000D+00 0.000000000000000D+00 0.252407539514640D+03
 0.121308121927250D+03 0.000000000000000D+00 0.000000000000000D+00 -.121308121927250D+03
 0.136284366866677D+03 -.179393803611217D+02 -.504382251677722D+02 -.908805405106559D+01
 0.846715437793503D+02 -.914858990893820D+01 -.231465968956754D+02 0.908805405106559D+01
 0.152759750795862D+03 0.270879702700599D+02 0.735848220634476D+02 0.131099417587390D+03
0.151627192097D-03 0.000000000000D+00 0.000000000000D+00 0.320207774632D-02 0.000000000000D+00  5 2 -1 25 24 21 0 0.20681182D+00 0.12209318D-02 0.10581643D+05 0.10581643D+05 0.10581643D+05 0.12654773D+01  1  2  2  2  5  2       -1 0.378206576229D+00 0.100000000000D+01
-.842356273443D-05 0.000000000000D+00 -.582288342008D-06 0.320207774632D-02 0.000000000000D+00  5 2 -1 25 24 21 2 0.20681182D+00 0.12209318D-02 0.10581643D+05 0.10581643D+05 0.10581643D+05 0.12654773D+01  1  2  3  2  5  2       -1 -.336477885468D-01 0.100000000000D+01
0.103662016434D-04 0.000000000000D+00 0.000000000000D+00 0.320207774632D-02 0.000000000000D+00  5 2 -1 25 24 21 2 0.20681182D+00 0.12209318D-02 0.10581643D+05 0.10581643D+05 0.10581643D+05 0.12654773D+01  1  2 15  2  5  2       -1 0.414076290435D-01 0.100000000000D+01
  </mgrwgt>
  </event>
  <event>
  4     66 0.48098993E-03 0.10477468E+03 0.75467711E-02 0.12288481E+00
        2 -1    0    0  501    0 0.00000000E+00 0.00000000E+00 0.16495315E+04 0.16495315E+04 0.32000000E+00 0.0000E+00 0.9000E+01
       -1 -1    0    0    0  501 0.00000000E+00 0.00000000E+00 -.83908306E+01 0.83969303E+01 0.32000000E+00 0.0000E+00 0.9000E+01
       25  1    1    2    0    0 0.15379262E+02 -.13136786E+02 0.13269877E+04 0.13330155E+04 0.12500000E+03 0.0000E+00 0.9000E+01
       24  1    1    2    0    0 -.15379262E+02 0.13136786E+02 0.31415298E+03 0.32491292E+03 0.80419002E+02 0.0000E+00 0.9000E+01
#aMCatNLO 1  0  0  1  2 0.43737047D+02 0.00000000D+00  -5  5  0 0.00000000D+00 0.00000000D+00 0.00000000D+00 0.00000000D+00 0.00000000D+00
  <mgrwgt>
 0.4947873455D+00    4    2    0
 0.117669118064426D+03 0.000000000000000D+00 0.000000000000000D+00 0.117669118064426D+03
 0.117669118064426D+03 0.000000000000000D+00 0.000000000000000D+00 -.117669118064426D+03
 0.137125760971819D+03 0.153792619615197D+02 -.131367864481102D+02 0.526248749683648D+02
 0.982124751570332D+02 -.153792619615197D+02 0.131367864481102D+02 -.526248749683648D+02
 0.000000000000000D+00 0.000000000000000D+00 -.000000000000000D+00 -.000000000000000D+00
 0.126622086059028D+03 0.000000000000000D+00 0.000000000000000D+00 0.126622086059028D+03
 0.188612283358906D+03 0.000000000000000D+00 0.000000000000000D+00 -.188612283358906D+03
 0.135740166228710D+03 -.550164856244511D+01 0.864364192440942D+00 0.526248749683648D+02
 0.103627782075816D+03 -.308249733211349D+02 0.234935058664635D+02 -.526248749683648D+02
 0.758664211134073D+02 0.363266218835800D+02 -.243578700589045D+02 -.619901972998779D+02
0.349364686880D-03 0.000000000000D+00 0.000000000000D+00 0.234311978188D-02 0.000000000000D+00  5 2 -1 25 24 21 0 0.25377454D+00 0.12913686D-02 0.10977733D+05 0.10977733D+05 0.10977733D+05 0.12635814D+01  1  2  2  1  5  1        2 0.560821583709D+00 0.100000000000D+01
-.190912519470D-04 0.000000000000D+00 -.134165238745D-05 0.234311978188D-02 0.000000000000D+00  5 2 -1 25 24 21 2 0.25377454D+00 0.12913686D-02 0.10977733D+05 0.10977733D+05 0.10977733D+05 0.12635814D+01  1  2  3  1  5  1        2 -.489312821625D-01 0.100000000000D+01
0.240154223147D-04 0.000000000000D+00 0.000000000000D+00 0.234311978188D-02 0.000000000000D+00  5 2 -1 25 24 21 2 0.25377454D+00 0.12913686D-02 0.10977733D+05 0.10977733D+05 0.10977733D+05 0.12635814D+01  1  2 15  1  5  1        2 0.615520348688D-01 0.100000000000D+01
-.306883895454D-04 0.000000000000D+00 0.000000000000D+00 0.234311978188D-02 0.000000000000D+00  5 2 -1 25 24 21 2 0.25377454D+00 0.12913686D-02 0.10977733D+05 0.10977733D+05 0.10977733D+05 0.12635814D+01  1  2  4  1  5  1        2 -.786549908893D-01 0.100000000000D+01
  </mgrwgt>
  </event>
  <event>
  5     66 0.48098993E-03 0.11208346E+03 0.75467711E-02 0.12317930E+00
        2 -1    0    0  501    0 0.00000000E+00 0.00000000E+00 0.34942831E+03 0.34942846E+03 0.32000000E+00 0.0000E+00 0.9000E+01
       -1 -1    0    0    0  502 0.00000000E+00 0.00000000E+00 -.65780095E+02 0.65780873E+02 0.32000000E+00 0.0000E+00 0.9000E+01
       25  1    1    2    0    0 0.17219558E+02 0.30194411E+02 0.25691863E+03 0.28782008E+03 0.12500000E+03 0.0000E+00 0.9000E+01
       24  1    1    2    0    0 -.16674920E+01 -.53409836E+02 0.19270560E+02 0.98457917E+02 0.80419002E+02 0.0000E+00 0.9000E+01
       21  1    1    2  501  502 -.15552066E+02 0.23215424E+02 0.74590313E+01 0.28931338E+02 0.75000000E+00 0.0000E+00 0.9000E+01
#aMCatNLO 2  0  0  2  1 0.27943205D+02 0.00000000D+00  -5  5  0 0.00000000D+00 0.00000000D+00 0.00000000D+00 0.00000000D+00 0.00000000D+00
  <mgrwgt>
 0.1167276064D-01    2    2    0
 0.134303201232330D+03 0.000000000000000D+00 0.000000000000000D+00 0.134303201232330D+03
 0.134303201232330D+03 0.000000000000000D+00 0.000000000000000D+00 -.134303201232330D+03
 0.151350047401297D+03 0.854987578249800D+01 0.431361230117228D+02 0.731300988922917D+02
 0.117256355063363D+03 -.854987578249800D+01 -.431361230117228D+02 -.731300988922917D+02
 0.000000000000000D+00 -.000000000000000D+00 0.000000000000000D+00 -.000000000000000D+00
 0.142441232420189D+03 0.000000000000000D+00 0.000000000000000D+00 0.142441232420189D+03
 0.161359970652786D+03 0.000000000000000D+00 0.000000000000000D+00 -.161359970652786D+03
 0.148933632939602D+03 0.172195583601359D+02 0.301944111794479D+02 0.731300988922917D+02
 0.121122328191444D+03 -.166749204872905D+01 -.534098355962314D+02 -.731300988922917D+02
 0.337452419419287D+02 -.155520663114069D+02 0.232154244167834D+02 -.189187382325969D+02
-.440284208663D-03 0.000000000000D+00 0.000000000000D+00 0.188649620767D-02 0.000000000000D+00  5 2 -1 25 24 21 2 0.50685485D-01 0.10337427D-01 0.16159461D+05 0.16159461D+05 0.16159461D+05 0.12441530D+01  1  2 13  2  5  2       -1 -.422542407386D+00 0.100000000000D+01
0.466150523924D-03 0.000000000000D+00 0.000000000000D+00 0.188649620767D-02 0.204619966671D-04  5 2 -1 25 24 21 2 0.53756746D-01 0.10119798D-01 0.16159461D+05 0.16159461D+05 0.16159461D+05 0.12441530D+01  1  2  1  2  5  2       -1 0.434215168023D+00 0.100000000000D+01
  </mgrwgt>
  </event>
  <event>
  4     66 0.48098993E-03 0.71186962E+02 0.75467711E-02 0.12562724E+00
        2 -1    0    0  501    0 0.00000000E+00 0.00000000E+00 0.23936801E+02 0.23938940E+02 0.32000000E+00 0.0000E+00 0.9000E+01
       -1 -1    0    0    0  501 0.00000000E+00 0.00000000E+00 -.52540370E+03 0.52540380E+03 0.32000000E+00 0.0000E+00 0.9000E+01
       25  1    1    2    0    0 -.39209652E+02 -.74729735E+01 -.25026118E+03 0.28257548E+03 0.12500000E+03 0.0000E+00 0.9000E+01
       24  1    1    2    0    0 0.39209652E+02 0.74729735E+01 -.25120572E+03 0.26676726E+03 0.80419002E+02 0.0000E+00 0.9000E+01
#aMCatNLO 1  0  0  1  2 0.36790690D+01 0.00000000D+00  -5  5  0 0.00000000D+00 0.00000000D+00 0.00000000D+00 0.00000000D+00 0.00000000D+00
  <mgrwgt>
 0.3071444380D+00    8    2    0
 0.112147662578532D+03 0.000000000000000D+00 0.000000000000000D+00 0.112147662578532D+03
 0.112147662578532D+03 0.000000000000000D+00 0.000000000000000D+00 -.112147662578532D+03
 0.132562229933462D+03 -.392096521081369D+02 -.747297347063783D+01 0.188282408630744D+02
 0.917330952236021D+02 0.392096521081369D+02 0.747297347063783D+01 -.188282408630744D+02
 0.000000000000000D+00 0.000000000000000D+00 -.000000000000000D+00 -.000000000000000D+00
 0.113615568983397D+03 0.000000000000000D+00 0.000000000000000D+00 0.113615568983397D+03
 0.114491932627506D+03 0.000000000000000D+00 0.000000000000000D+00 -.114491932627506D+03
 0.132649854168776D+03 -.398422761885695D+02 -.539204832261785D+01 0.188282408630744D+02
 0.916756424556465D+02 0.387721577744589D+02 0.891204762103069D+01 -.188282408630744D+02
 0.378200498648035D+01 0.107011841411062D+01 -.351999929841283D+01 -.876363644109424D+00
0.563796190184D-03 0.000000000000D+00 0.000000000000D+00 0.288487522565D-02 0.000000000000D+00  5 2 -1 25 24 21 0 0.36827568D-02 0.80831510D-01 0.12210068D+05 0.12210068D+05 0.12210068D+05 0.12581418D+01  1  2  2  1  5  1        2 0.230036965566D+00 0.100000000000D+01
-.313136594535D-04 0.000000000000D+00 -.216512582125D-05 0.288487522565D-02 0.000000000000D+00  5 2 -1 25 24 21 2 0.36827568D-02 0.80831510D-01 0.12210068D+05 0.12210068D+05 0.12210068D+05 0.12581418D+01  1  2  3  1  5  1        2 -.202240658273D-01 0.100000000000D+01
0.389788738315D-04 0.000000000000D+00 0.000000000000D+00 0.288487522565D-02 0.000000000000D+00  5 2 -1 25 24 21 2 0.36827568D-02 0.80831510D-01 0.12210068D+05 0.12210068D+05 0.12210068D+05 0.12581418D+01  1  2 15  1  5  1        2 0.251746785270D-01 0.100000000000D+01
0.356347970979D-04 0.000000000000D+00 0.000000000000D+00 0.288487522565D-02 0.000000000000D+00  5 2 -1 25 24 21 2 0.37688086D-02 0.80831510D-01 0.12623336D+05 0.12623336D+05 0.12623336D+05 0.12564547D+01  1  2 12  1  5  1        2 0.222876674308D-01 0.100000000000D+01
-.173372168744D-02 0.000000000000D+00 0.000000000000D+00 0.288487522565D-02 0.000000000000D+00  5 2 -1 25 24 21 2 0.36827568D-02 0.80831510D-01 0.12210068D+05 0.12210068D+05 0.12210068D+05 0.12581418D+01  1  2  4  1  5  1        2 -.111973184052D+01 0.100000000000D+01
0.171264939757D-02 0.000000000000D+00 0.000000000000D+00 0.288487522565D-02 0.179504496581D-02  5 2 -1 25 24 21 2 0.37309606D-02 0.82521166D-01 0.12623336D+05 0.12623336D+05 0.12623336D+05 0.12564547D+01  1  2 11  1  5  1        2 0.104049555361D+01 0.100000000000D+01
0.756562844287D-06 0.000000000000D+00 0.000000000000D+00 0.288487522565D-02 0.000000000000D+00  5 21 -1 25 24 -2 2 0.37688086D-02 0.80831510D-01 0.12623336D+05 0.12623336D+05 0.12623336D+05 0.12564547D+01  1  2 12  3  5  1        2 0.757575345728D-02 0.100000000000D+01
0.124531317339D-04 0.000000000000D+00 0.000000000000D+00 0.288487522565D-02 0.434105721747D-05  5 21 -1 25 24 -2 2 0.37309606D-02 0.82521166D-01 0.12623336D+05 0.12623336D+05 0.12623336D+05 0.12564547D+01  1  2 11  3  5  1        2 0.121529725786D+00 0.100000000000D+01
  </mgrwgt>
  </event>
  <event>
  4     66 0.48098993E-03 0.11791272E+03 0.75467711E-02 0.11299273E+00
        4 -1    0    0  501    0 0.00000000E+00 0.00000000E+00 0.30137879E+02 0.30177712E+02 0.15500000E+01 0.0000E+00 0.9000E+01
       -3 -1    0    0    0  501 0.00000000E+00 0.00000000E+00 -.56883228E+03 0.56883250E+03 0.50000000E+00 0.0000E+00 0.9000E+01
       25  1    1    2    0    0 0.35994192E+02 0.44030888E+02 -.43425188E+03 0.45544923E+03 0.12500000E+03 0.0000E+00 0.9000E+01
       24  1    1    2    0    0 -.35994192E+02 -.44030888E+02 -.10444252E+03 0.14356099E+03 0.80419002E+02 0.0000E+00 0.9000E+01
#aMCatNLO 1  0  0  1  2 0.16345807D+03 0.00000000D+00  -5  5  0 0.00000000D+00 0.00000000D+00 0.00000000D+00 0.00000000D+00 0.00000000D+00
  <mgrwgt>
 0.9094414899D-01    3    2    0
 0.130978601805415D+03 0.000000000000000D+00 0.000000000000000D+00 0.130978601805415D+03
 0.130978601805415D+03 0.000000000000000D+00 0.000000000000000D+00 -.130978601805415D+03
 0.148458144111177D+03 0.359941924786452D+02 0.440308881839891D+02 -.563960951349852D+02
 0.113499059499652D+03 -.359941924786452D+02 -.440308881839891D+02 0.563960951349852D+02
 0.000000000000000D+00 0.000000000000000D+00 0.000000000000000D+00 -.000000000000000D+00
 0.166842042018684D+03 0.000000000000000D+00 0.000000000000000D+00 0.166842042018684D+03
 0.690641486691347D+03 0.000000000000000D+00 0.000000000000000D+00 -.690641486691347D+03
 0.144191615415627D+03 0.221943920958660D+02 -.386407992824776D+02 -.563960951349852D+02
 0.164580333294476D+03 -.491069321485096D+02 -.122586540131605D+03 0.563960951349852D+02
 0.548711579999929D+03 0.269125400526437D+02 0.161227339414082D+03 -.523799444672662D+03
0.140760757046D-02 0.000000000000D+00 0.000000000000D+00 0.217897106287D-02 0.000000000000D+00  5 4 -3 25 24 21 0 0.46396777D-02 0.87515740D-01 0.13903411D+05 0.13903411D+05 0.13903411D+05 0.12515987D+01  1  2  2  1  5  1        4 0.889860051886D-01 0.100000000000D+01
-.771503776391D-04 0.000000000000D+00 -.540558370214D-05 0.217897106287D-02 0.000000000000D+00  5 4 -3 25 24 21 2 0.46396777D-02 0.87515740D-01 0.13903411D+05 0.13903411D+05 0.13903411D+05 0.12515987D+01  1  2  3  1  5  1        4 -.764026481457D-02 0.100000000000D+01
0.969234532209D-04 0.000000000000D+00 0.000000000000D+00 0.217897106287D-02 0.000000000000D+00  5 4 -3 25 24 21 2 0.46396777D-02 0.87515740D-01 0.13903411D+05 0.13903411D+05 0.13903411D+05 0.12515987D+01  1  2 15  1  5  1        4 0.959840861460D-02 0.100000000000D+01
  </mgrwgt>
  </event>
  <event>
  4     66 -.48098993E-03 0.10792327E+03 0.75467711E-02 0.12601912E+00
        2 -1    0    0  501    0 0.00000000E+00 0.00000000E+00 0.22218223E+04 0.22218223E+04 0.32000000E+00 0.0000E+00 0.9000E+01
       -1 -1    0    0    0  501 0.00000000E+00 0.00000000E+00 -.55050175E+01 0.55143102E+01 0.32000000E+00 0.0000E+00 0.9000E+01
       25  1    1    2    0    0 -.31193731E+02 -.22822997E+02 0.14300320E+04 0.14360050E+04 0.12500000E+03 0.0000E+00 0.9000E+01
       24  1    1    2    0    0 0.31193731E+02 0.22822997E+02 0.78628531E+03 0.79133162E+03 0.80419002E+02 0.0000E+00 0.9000E+01
#aMCatNLO 1  0  0  2  2 0.34466561D+00 0.00000000D+00  -5  5  0 0.00000000D+00 0.00000000D+00 0.00000000D+00 0.00000000D+00 0.00000000D+00
  <mgrwgt>
 -.8262599463D+00    9    2    0
 0.110641517703697D+03 0.000000000000000D+00 0.000000000000000D+00 0.110641517703697D+03
 0.110641517703697D+03 0.000000000000000D+00 0.000000000000000D+00 -.110641517703697D+03
 0.131333985223337D+03 -.311937310847907D+02 -.228229970035915D+02 0.113876083278009D+02
 0.899490501840576D+02 0.311937310847907D+02 0.228229970035915D+02 -.113876083278009D+02
 0.000000000000000D+00 -.000000000000000D+00 0.000000000000000D+00 -.000000000000000D+00
 0.110712149834903D+03 0.000000000000000D+00 0.000000000000000D+00 0.110712149834903D+03
 0.111062921027922D+03 0.000000000000000D+00 0.000000000000000D+00 -.111062921027922D+03
 0.131353220817257D+03 -.311314727861036D+02 -.230178712701207D+02 0.113876083278009D+02
 0.899300830117838D+02 0.312363634191586D+02 0.226895538311058D+02 -.113876083278009D+02
 0.491767033783921D+00 -.104890633055032D+00 0.328317439014901D+00 -.350771193019963D+00
0.113051499327D-03 0.000000000000D+00 0.000000000000D+00 0.296764060536D-02 0.000000000000D+00  5 2 -1 25 24 21 0 0.34181954D+00 0.84764237D-03 0.12107114D+05 0.12107114D+05 0.12107114D+05 0.12585720D+01  1  2  2  2  5  2       -1 0.169342142264D+00 0.100000000000D+01
-.628040606979D-05 0.000000000000D+00 -.434147524560D-06 0.296764060536D-02 0.000000000000D+00  5 2 -1 25 24 21 2 0.34181954D+00 0.84764237D-03 0.12107114D+05 0.12107114D+05 0.12107114D+05 0.12585720D+01  1  2  3  2  5  2       -1 -.149015899833D-01 0.100000000000D+01
0.783195015952D-05 0.000000000000D+00 0.000000000000D+00 0.296764060536D-02 0.000000000000D+00  5 2 -1 25 24 21 2 0.34181954D+00 0.84764237D-03 0.12107114D+05 0.12107114D+05 0.12107114D+05 0.12585720D+01  1  2 15  2  5  2       -1 0.185829560621D-01 0.100000000000D+01
-.114048194941D-01 0.000000000000D+00 0.000000000000D+00 0.296764060536D-02 0.000000000000D+00  5 2 -1 25 24 21 2 0.34181954D+00 0.84764237D-03 0.12107114D+05 0.12107114D+05 0.12107114D+05 0.12585720D+01  1  2  4  2  5  2       -1 -.270603432400D+02 0.100000000000D+01
-.407044162797D-01 0.000000000000D+00 -.300060757830D-02 0.296764060536D-02 0.000000000000D+00  5 2 -1 25 24 21 2 0.34181954D+00 0.85149640D-03 0.12107114D+05 0.12107114D+05 0.12107114D+05 0.12585720D+01  1  2  5  2  5  2       -1 -.959619318131D+02 0.100000000000D+01
0.407176403139D-01 0.000000000000D+00 0.300057670312D-02 0.296764060536D-02 0.000000000000D+00  5 2 -1 25 24 21 2 0.34181954D+00 0.84764237D-03 0.12107114D+05 0.12107114D+05 0.12107114D+05 0.12585720D+01  1  2  6  2  5  2       -1 0.966112022541D+02 0.100000000000D+01
0.114049030989D-01 0.000000000000D+00 0.000000000000D+00 0.296764060536D-02 0.210990836033D+00  5 2 -1 25 24 21 2 0.34203775D+00 0.85087080D-03 0.12145088D+05 0.12145088D+05 0.12145088D+05 0.12584129D+01  1  2 11  2  5  2       -1 0.268652424736D+02 0.100000000000D+01
-.343651739651D-04 0.000000000000D+00 -.253499500341D-05 0.296764060536D-02 0.000000000000D+00  5 2 21 25 24 1 2 0.34181954D+00 0.85149640D-03 0.12107114D+05 0.12107114D+05 0.12107114D+05 0.12585720D+01  1  2  5  4  5  2       -1 -.194126625287D+01 0.100000000000D+01
0.864209170431D-05 0.000000000000D+00 0.000000000000D+00 0.296764060536D-02 0.149589471768D-03  5 2 21 25 24 1 2 0.34203775D+00 0.85087080D-03 0.12145088D+05 0.12145088D+05 0.12145088D+05 0.12584129D+01  1  2 11  4  5  2       -1 0.487813123583D+00 0.100000000000D+01
  </mgrwgt>
  </event>
  <event>
  4     66 0.48098993E-03 0.10504440E+03 0.75467711E-02 0.11776247E+00
        2 -1    0    0  501    0 0.00000000E+00 0.00000000E+00 0.33179599E+03 0.33179614E+03 0.32000000E+00 0.0000E+00 0.9000E+01
       -1 -1    0    0    0  501 0.00000000E+00 0.00000000E+00 -.33259721E+02 0.33261261E+02 0.32000000E+00 0.0000E+00 0.9000E+01
       25  1    1    2    0    0 -.21389586E+02 -.23930947E+01 0.18226406E+03 0.22205502E+03 0.12500000E+03 0.0000E+00 0.9000E+01
       24  1    1    2    0    0 0.21389586E+02 0.23930947E+01 0.11627220E+03 0.14300238E+03 0.80419002E+02 0.0000E+00 0.9000E+01
#aMCatNLO 1  0  0  2  1 0.10538791D+03 0.00000000D+00  -5  5  0 0.00000000D+00 0.00000000D+00 0.00000000D+00 0.00000000D+00 0.00000000D+00
  <mgrwgt>
 0.4201779467D+00    3    2    0
 0.105051183320875D+03 0.000000000000000D+00 0.000000000000000D+00 0.105051183320875D+03
 0.105051183320875D+03 0.000000000000000D+00 0.000000000000000D+00 -.105051183320875D+03
 0.126844807524177D+03 -.213895861107001D+02 -.239309465642637D+01 0.116786121772424D+01
 0.832575591175724D+02 0.213895861107001D+02 0.239309465642637D+01 -.116786121772424D+01
 0.000000000000000D+00 -.000000000000000D+00 0.000000000000000D+00 0.000000000000000D+00
 0.506244635619198D+03 0.000000000000000D+00 0.000000000000000D+00 0.506244635619198D+03
 0.124669279101220D+03 0.000000000000000D+00 0.000000000000000D+00 -.124669279101220D+03
 0.139131074121676D+03 0.147135674847226D+01 -.610649408068680D+02 0.116786121772424D+01
 0.959212940654460D+02 0.367902213068006D+02 -.371321210974003D+02 -.116786121772424D+01
 0.395861546533295D+03 -.382615780552729D+02 0.981970619042684D+02 0.381575356517978D+03
0.236758983194D-03 0.000000000000D+00 0.000000000000D+00 0.316096226019D-02 0.000000000000D+00  5 2 -1 25 24 21 0 0.51045666D-01 0.51170105D-02 0.11034326D+05 0.11034326D+05 0.11034326D+05 0.12633169D+01  1  2  2  2  5  2       -1 0.411206902186D+00 0.100000000000D+01
-.131532767774D-04 0.000000000000D+00 -.909216835537D-06 0.316096226019D-02 0.000000000000D+00  5 2 -1 25 24 21 2 0.51045666D-01 0.51170105D-02 0.11034326D+05 0.11034326D+05 0.11034326D+05 0.12633169D+01  1  2  3  2  5  2       -1 -.364596476443D-01 0.100000000000D+01
0.163896940083D-04 0.000000000000D+00 0.000000000000D+00 0.316096226019D-02 0.000000000000D+00  5 2 -1 25 24 21 2 0.51045666D-01 0.51170105D-02 0.11034326D+05 0.11034326D+05 0.11034326D+05 0.12633169D+01  1  2 15  2  5  2       -1 0.454306921882D-01 0.100000000000D+01
  </mgrwgt>
  </event>
  <event>
  4     66 0.48098993E-03 0.56560225E+02 0.75467711E-02 0.11855313E+00
        2 -1    0    0  501    0 0.00000000E+00 0.00000000E+00 0.10391342E+04 0.10391342E+04 0.32000000E+00 0.0000E+00 0.9000E+01
       -1 -1    0    0    0  501 0.00000000E+00 0.00000000E+00 -.16726384E+02 0.16729444E+02 0.32000000E+00 0.0000E+00 0.9000E+01
       25  1    1    2    0    0 -.64495770E+02 0.49550355E+02 0.55929314E+03 0.57883397E+03 0.12500000E+03 0.0000E+00 0.9000E+01
       24  1    1    2    0    0 0.64495770E+02 -.49550355E+02 0.46311464E+03 0.47702969E+03 0.80419002E+02 0.0000E+00 0.9000E+01
#aMCatNLO 1  0  0  1  2 0.56229175D+02 0.00000000D+00  -5  5  0 0.00000000D+00 0.00000000D+00 0.00000000D+00 0.00000000D+00 0.00000000D+00
  <mgrwgt>
 0.4848011014D+00    9    2    0
 0.131843083145507D+03 0.000000000000000D+00 0.000000000000000D+00 0.131843083145507D+03
 0.131843083145507D+03 0.000000000000000D+00 0.000000000000000D+00 -.131843083145507D+03
 0.149208013916131D+03 -.644957702152057D+02 0.495503551839906D+02 -.480513707235752D+01
 0.114478152374883D+03 0.644957702152057D+02 -.495503551839906D+02 0.480513707235752D+01
 0.000000000000000D+00 -.000000000000000D+00 0.000000000000000D+00 0.000000000000000D+00
 0.172842672042144D+03 0.000000000000000D+00 0.000000000000000D+00 0.172842672042144D+03
 0.155588863317410D+03 0.000000000000000D+00 0.000000000000000D+00 -.155588863317410D+03
 0.135452710961357D+03 -.380253626927766D+02 0.354036630390066D+02 -.480513707235752D+01
 0.134162040865831D+03 0.876166529585830D+02 -.619069465970122D+02 0.480513707235752D+01
 0.588167835323662D+02 -.495912902658064D+02 0.265032835580056D+02 0.172538087247341D+02
0.255806948143D-03 0.000000000000D+00 0.000000000000D+00 0.259306804955D-02 0.000000000000D+00  5 2 -1 25 24 21 0 0.15986703D+00 0.25735290D-02 0.17359101D+05 0.17359101D+05 0.17359101D+05 0.12406550D+01  1  2  2  1  5  1        2 0.328583614764D+00 0.100000000000D+01
-.142114892148D-04 0.000000000000D+00 -.982366036386D-06 0.259306804955D-02 0.000000000000D+00  5 2 -1 25 24 21 2 0.15986703D+00 0.25735290D-02 0.17359101D+05 0.17359101D+05 0.17359101D+05 0.12406550D+01  1  2  3  1  5  1        2 -.280979864389D-01 0.100000000000D+01
0.177149346410D-04 0.000000000000D+00 0.000000000000D+00 0.259306804955D-02 0.000000000000D+00  5 2 -1 25 24 21 2 0.15986703D+00 0.25735290D-02 0.17359101D+05 0.17359101D+05 0.17359101D+05 0.12406550D+01  1  2 15  1  5  1        2 0.350247596002D-01 0.100000000000D+01
0.126000131747D-03 0.000000000000D+00 0.000000000000D+00 0.259306804955D-02 0.000000000000D+00  5 2 -1 25 24 21 2 0.22033835D+00 0.25735290D-02 0.26515659D+05 0.26515659D+05 0.26515659D+05 0.12205665D+01  1  2 12  1  5  1        2 0.147694079627D+00 0.100000000000D+01
-.154535823258D-03 0.000000000000D+00 0.000000000000D+00 0.259306804955D-02 0.000000000000D+00  5 2 -1 25 24 21 2 0.15986703D+00 0.25735290D-02 0.17359101D+05 0.17359101D+05 0.17359101D+05 0.12406550D+01  1  2  4  1  5  1        2 -.305537681563D+00 0.100000000000D+01
-.290494757598D-03 0.000000000000D+00 -.114426096907D-03 0.259306804955D-02 0.000000000000D+00  5 2 -1 25 24 21 2 0.23156172D+00 0.25735290D-02 0.17359101D+05 0.17359101D+05 0.17359101D+05 0.12406550D+01  1  2  5  1  5  1        2 -.319843359817D+00 0.100000000000D+01
0.318225517171D-03 0.000000000000D+00 0.106997738835D-03 0.259306804955D-02 0.000000000000D+00  5 2 -1 25 24 21 2 0.15986703D+00 0.25735290D-02 0.17359101D+05 0.17359101D+05 0.17359101D+05 0.12406550D+01  1  2  6  1  5  1        2 0.629173771365D+00 0.100000000000D+01
0.511211062764D-05 0.000000000000D+00 0.000000000000D+00 0.259306804955D-02 0.000000000000D+00  5 21 -1 25 24 -2 2 0.22033835D+00 0.25735290D-02 0.26515659D+05 0.26515659D+05 0.26515659D+05 0.12205665D+01  1  2 12  3  5  1        2 0.320770211137D-02 0.100000000000D+01
-.956444736968D-05 0.000000000000D+00 -.515080076915D-05 0.259306804955D-02 0.000000000000D+00  5 21 -1 25 24 -2 2 0.23156172D+00 0.25735290D-02 0.17359101D+05 0.17359101D+05 0.17359101D+05 0.12406550D+01  1  2  5  3  5  1        2 -.540379820205D-02 0.100000000000D+01
  </mgrwgt>
  </event>
  <event>
  4     66 0.48098993E-03 0.17719523E+03 0.75467711E-02 0.10771493E+00
        2 -1    0    0  501    0 0.00000000E+00 0.00000000E+00 0.52147106E+03 0.52147116E+03 0.32000000E+00 0.0000E+00 0.9000E+01
       -1 -1    0    0    0  501 0.00000000E+00 0.00000000E+00 -.92283506E+02 0.92284061E+02 0.32000000E+00 0.0000E+00 0.9000E+01
       25  1    1    2    0    0 -.13889493E+03 0.35031086E+02 0.40540333E+03 0.44776762E+03 0.12500000E+03 0.0000E+00 0.9000E+01
       24  1    1    2    0    0 0.13889493E+03 -.35031086E+02 0.23784222E+02 0.16598760E+03 0.80419002E+02 0.0000E+00 0.9000E+01
#aMCatNLO 1  0  0  2  2 0.22141508D+03 0.00000000D+00  -5  5  0 0.00000000D+00 0.00000000D+00 0.00000000D+00 0.00000000D+00 0.00000000D+00
  <mgrwgt>
 0.3048219381D+00    5    2    0
 0.219370413146412D+03 0.000000000000000D+00 0.000000000000000D+00 0.219370413146412D+03
 0.219370413146412D+03 0.000000000000000D+00 0.000000000000000D+00 -.219370413146412D+03
 0.229806852493770D+03 -.138894929681470D+03 0.350310861882099D+02 0.129101552904474D+03
 0.208933973799054D+03 0.138894929681470D+03 -.350310861882099D+02 -.129101552904474D+03
 0.000000000000000D+00 -.000000000000000D+00 0.000000000000000D+00 -.000000000000000D+00
 0.350175688076793D+03 0.000000000000000D+00 0.000000000000000D+00 0.350175688076793D+03
 0.363058840472485D+03 0.000000000000000D+00 0.000000000000000D+00 -.363058840472485D+03
 0.191217228947301D+03 -.597620622483942D+02 -.264634389253700D+02 0.129101552904474D+03
 0.300227731787613D+03 0.234593554834408D+03 -.109398939884139D+03 -.129101552904474D+03
 0.221789567814364D+03 -.174831492586013D+03 0.135862378809509D+03 -.128831523956925D+02
0.112518629917D-02 0.000000000000D+00 0.000000000000D+00 0.141178483670D-02 0.000000000000D+00  5 2 -1 25 24 21 0 0.80226367D-01 0.14197513D-01 0.31398148D+05 0.31398148D+05 0.31398148D+05 0.12128276D+01  1  2  2  2  5  2       -1 0.263678481918D+00 0.100000000000D+01
-.590456293751D-04 0.000000000000D+00 -.432101165718D-05 0.141178483670D-02 0.000000000000D+00  5 2 -1 25 24 21 2 0.80226367D-01 0.14197513D-01 0.31398148D+05 0.31398148D+05 0.31398148D+05 0.12128276D+01  1  2  3  2  5  2       -1 -.203533615640D-01 0.100000000000D+01
0.771153188610D-04 0.000000000000D+00 0.000000000000D+00 0.141178483670D-02 0.000000000000D+00  5 2 -1 25 24 21 2 0.80226367D-01 0.14197513D-01 0.31398148D+05 0.31398148D+05 0.31398148D+05 0.12128276D+01  1  2 15  2  5  2       -1 0.265820854737D-01 0.100000000000D+01
0.129235660195D-03 0.000000000000D+00 -.323504712274D-03 0.141178483670D-02 0.000000000000D+00  5 2 -1 25 24 21 2 0.80226367D-01 0.37003285D-01 0.31398148D+05 0.31398148D+05 0.31398148D+05 0.12128276D+01  1  2  5  2  5  2       -1 0.922079013241D-02 0.100000000000D+01
0.331722334084D-04 0.000000000000D+00 -.343504366663D-04 0.141178483670D-02 0.000000000000D+00  5 2 21 25 24 1 2 0.80226367D-01 0.37003285D-01 0.31398148D+05 0.31398148D+05 0.31398148D+05 0.12128276D+01  1  2  5  4  5  2       -1 0.256939421737D-01 0.100000000000D+01
  </mgrwgt>
  </event>
  <event>
  4     66 0.48098993E-03 0.10302391E+03 0.75467711E-02 0.11802925E+00
        2 -1    0    0  501    0 0.00000000E+00 0.00000000E+00 0.20572593E+04 0.20572594E+04 0.32000000E+00 0.0000E+00 0.9000E+01
       -1 -1    0    0    0  501 0.00000000E+00 0.00000000E+00 -.52362914E+01 0.52460602E+01 0.32000000E+00 0.0000E+00 0.9000E+01
       25  1    1    2    0    0 -.32513211E+01 0.71474225E+01 0.11179045E+04 0.11248987E+04 0.12500000E+03 0.0000E+00 0.9000E+01
       24  1    1    2    0    0 0.32513211E+01 -.71474225E+01 0.93411853E+03 0.93760669E+03 0.80419002E+02 0.0000E+00 0.9000E+01
#aMCatNLO 1  0  0  1  2 0.10436685D+03 0.00000000D+00  -5  5  0 0.00000000D+00 0.00000000D+00 0.00000000D+00 0.00000000D+00 0.00000000D+00
  <mgrwgt>
 0.4667636785D+00    5    2    0
 0.103838861489181D+03 0.000000000000000D+00 0.000000000000000D+00 0.103838861489181D+03
 0.103838861489181D+03 0.000000000000000D+00 0.000000000000000D+00 -.103838861489181D+03
 0.125886926910679D+03 -.325132112087661D+01 0.714742250616552D+01 -.126831238069347D+02
 0.817907960676827D+02 0.325132112087661D+01 -.714742250616552D+01 0.126831238069347D+02
 0.000000000000000D+00 -.000000000000000D+00 0.000000000000000D+00 0.000000000000000D+00
 0.230908064111849D+03 0.000000000000000D+00 0.000000000000000D+00 0.230908064111849D+03
 0.139955986851194D+03 0.000000000000000D+00 0.000000000000000D+00 -.139955986851194D+03
 0.138189786431227D+03 0.560646229862811D+02 -.129349717360450D+02 -.126831238069347D+02
 0.942375681647396D+02 0.427901675490589D+02 -.205339531229337D+02 0.126831238069347D+02
 0.138436696367076D+03 -.988547905353400D+02 0.334689248589787D+02 0.909520772606553D+02
0.236954466266D-03 0.000000000000D+00 0.000000000000D+00 0.316368343435D-02 0.000000000000D+00  5 2 -1 25 24 21 0 0.31650219D+00 0.80633666D-03 0.10613926D+05 0.10613926D+05 0.10613926D+05 0.12653198D+01  1  2  2  1  5  1        2 0.460726050173D+00 0.100000000000D+01
-.131631433611D-04 0.000000000000D+00 -.909967542006D-06 0.316368343435D-02 0.000000000000D+00  5 2 -1 25 24 21 2 0.31650219D+00 0.80633666D-03 0.10613926D+05 0.10613926D+05 0.10613926D+05 0.12653198D+01  1  2  3  1  5  1        2 -.409768059506D-01 0.100000000000D+01
0.163012767591D-04 0.000000000000D+00 0.000000000000D+00 0.316368343435D-02 0.000000000000D+00  5 2 -1 25 24 21 2 0.31650219D+00 0.80633666D-03 0.10613926D+05 0.10613926D+05 0.10613926D+05 0.12653198D+01  1  2 15  1  5  1        2 0.507458010734D-01 0.100000000000D+01
-.769687297171D-04 0.000000000000D+00 -.603651720351D-04 0.316368343435D-02 0.000000000000D+00  5 2 -1 25 24 21 2 0.73266781D+00 0.80633666D-03 0.10613926D+05 0.10613926D+05 0.10613926D+05 0.12653198D+01  1  2  5  1  5  1        2 -.372807279822D-02 0.100000000000D+01
-.321871920414D-05 0.000000000000D+00 -.551824168812D-05 0.316368343435D-02 0.000000000000D+00  5 21 -1 25 24 -2 2 0.73266781D+00 0.80633666D-03 0.10613926D+05 0.10613926D+05 0.10613926D+05 0.12653198D+01  1  2  5  3  5  1        2 -.329395046559D-05 0.100000000000D+01
  </mgrwgt>
  </event>
  <event>
  4     66 0.48098993E-03 0.58556922E+02 0.75467711E-02 0.12359046E+00
        2 -1    0    0  501    0 0.00000000E+00 0.00000000E+00 0.16175160E+03 0.16175192E+03 0.32000000E+00 0.0000E+00 0.9000E+01
       -1 -1    0    0    0  501 0.00000000E+00 0.00000000E+00 -.83655370E+02 0.83655982E+02 0.32000000E+00 0.0000E+00 0.9000E+01
       25  1    1    2    0    0 -.11375811E+02 0.52211002E+02 0.41260008E+02 0.14206613E+03 0.12500000E+03 0.0000E+00 0.9000E+01
       24  1    1    2    0    0 0.11375811E+02 -.52211002E+02 0.36836224E+02 0.10334177E+03 0.80419002E+02 0.0000E+00 0.9000E+01
#aMCatNLO 1  0  0  1  2 0.15894686D+02 0.00000000D+00  -5  5  0 0.00000000D+00 0.00000000D+00 0.00000000D+00 0.00000000D+00 0.00000000D+00
  <mgrwgt>
 0.4081467372D+00    9    2    0
 0.116324993700638D+03 0.000000000000000D+00 0.000000000000000D+00 0.116324993700638D+03
 0.116324993700638D+03 0.000000000000000D+00 0.000000000000000D+00 -.116324993700638D+03
 0.136006456287253D+03 -.113758110552207D+02 0.522110020391445D+02 -.416633420658516D+01
 0.966435311140230D+02 0.113758110552207D+02 -.522110020391445D+02 0.416633420658516D+01
 0.000000000000000D+00 0.000000000000000D+00 0.000000000000000D+00 0.000000000000000D+00
 0.125083081257699D+03 0.000000000000000D+00 0.000000000000000D+00 0.125083081257699D+03
 0.124038229370017D+03 0.000000000000000D+00 0.000000000000000D+00 -.124038229370017D+03
 0.135588214913729D+03 -.198473969420977D+02 0.484549947620826D+02 -.416633420658516D+01
 0.976041041987161D+02 0.531683530802399D+01 -.548973416810840D+02 0.416633420658516D+01
 0.159289915152710D+02 0.145305616340737D+02 0.644234691900138D+01 0.104485188768232D+01
0.217579685712D-03 0.000000000000D+00 0.000000000000D+00 0.285465184123D-02 0.000000000000D+00  5 2 -1 25 24 21 0 0.24884933D-01 0.12870128D-01 0.13513634D+05 0.13513634D+05 0.13513634D+05 0.12530223D+01  1  2  2  1  5  1        2 0.204998508937D+00 0.100000000000D+01
-.120877539004D-04 0.000000000000D+00 -.835563283182D-06 0.285465184123D-02 0.000000000000D+00  5 2 -1 25 24 21 2 0.24884933D-01 0.12870128D-01 0.13513634D+05 0.13513634D+05 0.13513634D+05 0.12530223D+01  1  2  3  1  5  1        2 -.178811549039D-01 0.100000000000D+01
0.150574111897D-04 0.000000000000D+00 0.000000000000D+00 0.285465184123D-02 0.000000000000D+00  5 2 -1 25 24 21 2 0.24884933D-01 0.12870128D-01 0.13513634D+05 0.13513634D+05 0.13513634D+05 0.12530223D+01  1  2 15  1  5  1        2 0.222741051938D-01 0.100000000000D+01
0.351474571595D-03 0.000000000000D+00 0.000000000000D+00 0.285465184123D-02 0.000000000000D+00  5 2 -1 25 24 21 2 0.27526428D-01 0.12870128D-01 0.15492036D+05 0.15492036D+05 0.15492036D+05 0.12462277D+01  1  2 12  1  5  1        2 0.462979305761D+00 0.100000000000D+01
-.287348816830D-03 0.000000000000D+00 0.000000000000D+00 0.285465184123D-02 0.000000000000D+00  5 2 -1 25 24 21 2 0.24884933D-01 0.12870128D-01 0.13513634D+05 0.13513634D+05 0.13513634D+05 0.12530223D+01  1  2  4  1  5  1        2 -.425068937332D+00 0.100000000000D+01
-.116153449322D-02 0.000000000000D+00 -.264482714670D-03 0.285465184123D-02 0.000000000000D+00  5 2 -1 25 24 21 2 0.28431941D-01 0.12870128D-01 0.13513634D+05 0.13513634D+05 0.13513634D+05 0.12530223D+01  1  2  5  1  5  1        2 -.148580449578D+01 0.100000000000D+01
0.118854045645D-02 0.000000000000D+00 0.262151918651D-03 0.285465184123D-02 0.000000000000D+00  5 2 -1 25 24 21 2 0.24884933D-01 0.12870128D-01 0.13513634D+05 0.13513634D+05 0.13513634D+05 0.12530223D+01  1  2  6  1  5  1        2 0.175818238743D+01 0.100000000000D+01
0.575229870464D-05 0.000000000000D+00 0.000000000000D+00 0.285465184123D-02 0.000000000000D+00  5 21 -1 25 24 -2 2 0.27526428D-01 0.12870128D-01 0.15492036D+05 0.15492036D+05 0.15492036D+05 0.12462277D+01  1  2 12  3  5  1        2 0.409987443514D-01 0.100000000000D+01
-.225679448915D-04 0.000000000000D+00 -.547614379341D-05 0.285465184123D-02 0.000000000000D+00  5 21 -1 25 24 -2 2 0.28431941D-01 0.12870128D-01 0.13513634D+05 0.13513634D+05 0.13513634D+05 0.12530223D+01  1  2  5  3  5  1        2 -.152531726464D+00 0.100000000000D+01
  </mgrwgt>
  </event>
  <event>
  5     66 0.48098993E-03 0.10590588E+03 0.75467711E-02 0.12190485E+00
        4 -1    0    0  502    0 0.00000000E+00 0.00000000E+00 0.37419571E+02 0.37451660E+02 0.15500000E+01 0.0000E+00 0.9000E+01
       -3 -1    0    0    0  501 0.00000000E+00 0.00000000E+00 -.55351315E+03 0.55351337E+03 0.50000000E+00 0.0000E+00 0.9000E+01
       25  1    1    2    0    0 -.10906293E+01 0.14656167E+02 -.17772823E+03 0.21778043E+03 0.12500000E+03 0.0000E+00 0.9000E+01
       24  1    1    2    0    0 0.41915361E+02 0.19283992E+02 -.27664955E+03 0.29177210E+03 0.80419002E+02 0.0000E+00 0.9000E+01
       21  1    1    2  502  501 -.40824732E+02 -.33940159E+02 -.61715798E+02 0.81412501E+02 0.75000000E+00 0.0000E+00 0.9000E+01
#aMCatNLO 2  0  0  1  2 0.53090424D+02 0.00000000D+00  -5  5  0 0.00000000D+00 0.00000000D+00 0.00000000D+00 0.00000000D+00 0.00000000D+00
  <mgrwgt>
 0.5731127474D-02    2    2    0
 0.112211879954644D+03 0.000000000000000D+00 0.000000000000000D+00 0.112211879954644D+03
 0.112211879954644D+03 0.000000000000000D+00 0.000000000000000D+00 -.112211879954644D+03
 0.132614764322438D+03 -.247427195858038D+02 -.500729859983643D+01 0.363923138111063D+02
 0.918089955868498D+02 0.247427195858038D+02 0.500729859983643D+01 -.363923138111063D+02
 0.000000000000000D+00 -.000000000000000D+00 -.000000000000000D+00 0.000000000000000D+00
 0.156470111464178D+03 0.000000000000000D+00 0.000000000000000D+00 0.156470111464178D+03
 0.132428203589670D+03 0.000000000000000D+00 0.000000000000000D+00 -.132428203589670D+03
 0.131016766901630D+03 -.109062925649976D+01 0.146561670519560D+02 0.363923138111063D+02
 0.996011359644546D+02 0.419153608869978D+02 0.192839920199615D+02 -.363923138111063D+02
 0.582804121877635D+02 -.408247316304980D+02 -.339401590719174D+02 0.240419078745087D+02
-.229512187612D-03 0.000000000000D+00 0.000000000000D+00 0.269104907576D-02 0.000000000000D+00  5 4 -3 25 24 21 2 0.60139691D-02 0.72156938D-01 0.18450600D+05 0.18450600D+05 0.18450600D+05 0.12377001D+01  1  2 13  1  5  1        4 -.227906172075D-01 0.100000000000D+01
0.383088578344D-03 0.000000000000D+00 0.000000000000D+00 0.269104907576D-02 0.834206305342D-05  5 4 -3 25 24 21 2 0.57592432D-02 0.85156881D-01 0.18450600D+05 0.18450600D+05 0.18450600D+05 0.12377001D+01  1  2  1  1  5  1        4 0.285217446812D-01 0.100000000000D+01
  </mgrwgt>
  </event>
  <event>
  4     66 0.48098993E-03 0.10404241E+03 0.75467711E-02 0.12582513E+00
        2 -1    0    0  501    0 0.00000000E+00 0.00000000E+00 0.78530986E+03 0.78530992E+03 0.32000000E+00 0.0000E+00 0.9000E+01
       -1 -1    0    0    0  501 0.00000000E+00 0.00000000E+00 -.13928190E+02 0.13931866E+02 0.32000000E+00 0.0000E+00 0.9000E+01
       25  1    1    2    0    0 0.16145296E+02 0.15040878E+01 0.42642044E+03 0.44465979E+03 0.12500000E+03 0.0000E+00 0.9000E+01
       24  1    1    2    0    0 -.16145296E+02 -.15040878E+01 0.34496123E+03 0.35458200E+03 0.80419002E+02 0.0000E+00 0.9000E+01
#aMCatNLO 1  0  0  2  2 0.13972242D+02 0.00000000D+00  -5  5  0 0.00000000D+00 0.00000000D+00 0.00000000D+00 0.00000000D+00 0.00000000D+00
  <mgrwgt>
 0.3347030946D+00    4    2    0
 0.104591777827406D+03 0.000000000000000D+00 0.000000000000000D+00 0.104591777827406D+03
 0.104591777827406D+03 0.000000000000000D+00 0.000000000000000D+00 -.104591777827406D+03
 0.126481127630651D+03 0.161452962472617D+02 0.150408775911401D+01 -.104662684764931D+02
 0.827024280241610D+02 -.161452962472617D+02 -.150408775911401D+01 0.104662684764931D+02
 0.000000000000000D+00 -.000000000000000D+00 -.000000000000000D+00 0.000000000000000D+00
 0.126345163116571D+03 0.000000000000000D+00 0.000000000000000D+00 0.126345163116571D+03
 0.107092731123010D+03 0.000000000000000D+00 0.000000000000000D+00 -.107092731123010D+03
 0.127289093251667D+03 0.195536345519827D+02 0.925342427521282D+01 -.104662684764931D+02
 0.823605752491905D+02 -.139283672679953D+02 0.353641208470452D+01 0.104662684764931D+02
 0.237882257387231D+02 -.562526728398748D+01 -.127898363599173D+02 0.192524319935609D+02
0.171715906753D-03 0.000000000000D+00 0.000000000000D+00 0.315063022132D-02 0.000000000000D+00  5 2 -1 25 24 21 0 0.12081719D+00 0.21430863D-02 0.10824824D+05 0.10824824D+05 0.10824824D+05 0.12643041D+01  1  2  2  2  5  2       -1 0.406448994386D+00 0.100000000000D+01
-.953945091253D-05 0.000000000000D+00 -.659434295769D-06 0.315063022132D-02 0.000000000000D+00  5 2 -1 25 24 21 2 0.12081719D+00 0.21430863D-02 0.10824824D+05 0.10824824D+05 0.10824824D+05 0.12643041D+01  1  2  3  2  5  2       -1 -.360929157759D-01 0.100000000000D+01
0.118867479939D-04 0.000000000000D+00 0.000000000000D+00 0.315063022132D-02 0.000000000000D+00  5 2 -1 25 24 21 2 0.12081719D+00 0.21430863D-02 0.10824824D+05 0.10824824D+05 0.10824824D+05 0.12643041D+01  1  2 15  2  5  2       -1 0.449740135073D-01 0.100000000000D+01
-.213099238047D-04 0.000000000000D+00 0.000000000000D+00 0.315063022132D-02 0.000000000000D+00  5 2 -1 25 24 21 2 0.12081719D+00 0.21430863D-02 0.10824824D+05 0.10824824D+05 0.10824824D+05 0.12643041D+01  1  2  4  2  5  2       -1 -.806269975206D-01 0.100000000000D+01
  </mgrwgt>
  </event>
  <event>
  4     66 0.48098993E-03 0.66104745E+02 0.75467711E-02 0.12025226E+00
        2 -1    0    0  501    0 0.00000000E+00 0.00000000E+00 0.13976888E+04 0.13976889E+04 0.32000000E+00 0.0000E+00 0.9000E+01
       -1 -1    0    0    0  501 0.00000000E+00 0.00000000E+00 -.12587383E+02 0.12591450E+02 0.32000000E+00 0.0000E+00 0.9000E+01
       25  1    1    2    0    0 -.72461267E+02 0.39273547E+02 0.74328461E+03 0.75821505E+03 0.12500000E+03 0.0000E+00 0.9000E+01
       24  1    1    2    0    0 0.72461267E+02 -.39273547E+02 0.64181682E+03 0.65206525E+03 0.80419002E+02 0.0000E+00 0.9000E+01
#aMCatNLO 1  0  0  2  1 0.30102699D+02 0.00000000D+00  -5  5  0 0.00000000D+00 0.00000000D+00 0.00000000D+00 0.00000000D+00 0.00000000D+00
  <mgrwgt>
 0.3924778033D+00    9    2    0
 0.132650435533015D+03 0.000000000000000D+00 0.000000000000000D+00 0.132650435533015D+03
 0.132650435533015D+03 0.000000000000000D+00 0.000000000000000D+00 -.132650435533015D+03
 0.149909677858213D+03 -.724612671525779D+02 0.392735469427282D+02 -.740707693582131D+01
 0.115391193207817D+03 0.724612671525779D+02 -.392735469427282D+02 0.740707693582131D+01
 0.000000000000000D+00 -.000000000000000D+00 -.000000000000000D+00 -.000000000000000D+00
 0.147586936254387D+03 0.000000000000000D+00 0.000000000000000D+00 0.147586936254387D+03
 0.149585246998008D+03 0.000000000000000D+00 0.000000000000000D+00 -.149585246998008D+03
 0.149969880508408D+03 -.629803996388747D+02 0.533345060190936D+02 -.740707693582131D+01
 0.117033349243382D+03 0.798095049114813D+02 -.283754650676249D+02 0.740707693582131D+01
 0.301689535006046D+02 -.168291052726066D+02 -.249590409514688D+02 -.199831074362169D+01
0.261702030077D-03 0.000000000000D+00 0.000000000000D+00 0.257851554877D-02 0.000000000000D+00  5 2 -1 25 24 21 0 0.21502936D+00 0.19368361D-02 0.17540325D+05 0.17540325D+05 0.17540325D+05 0.12401502D+01  1  2  2  2  5  2       -1 0.321387511560D+00 0.100000000000D+01
-.145389570678D-04 0.000000000000D+00 -.100500470322D-05 0.257851554877D-02 0.000000000000D+00  5 2 -1 25 24 21 2 0.21502936D+00 0.19368361D-02 0.17540325D+05 0.17540325D+05 0.17540325D+05 0.12401502D+01  1  2  3  2  5  2       -1 -.274602017709D-01 0.100000000000D+01
0.181146037572D-04 0.000000000000D+00 0.000000000000D+00 0.257851554877D-02 0.000000000000D+00  5 2 -1 25 24 21 2 0.21502936D+00 0.19368361D-02 0.17540325D+05 0.17540325D+05 0.17540325D+05 0.12401502D+01  1  2 15  2  5  2       -1 0.342136421377D-01 0.100000000000D+01
0.190575402440D-03 0.000000000000D+00 0.000000000000D+00 0.257851554877D-02 0.000000000000D+00  5 2 -1 25 24 21 2 0.21502936D+00 0.22805241D-02 0.22005982D+05 0.22005982D+05 0.22005982D+05 0.12292821D+01  1  2 12  2  5  2       -1 0.280751146369D+00 0.100000000000D+01
-.162439310177D-03 0.000000000000D+00 0.000000000000D+00 0.257851554877D-02 0.000000000000D+00  5 2 -1 25 24 21 2 0.21502936D+00 0.19368361D-02 0.17540325D+05 0.17540325D+05 0.17540325D+05 0.12401502D+01  1  2  4  2  5  2       -1 -.306804416039D+00 0.100000000000D+01
-.490669100399D-03 0.000000000000D+00 -.152818100842D-03 0.257851554877D-02 0.000000000000D+00  5 2 -1 25 24 21 2 0.21502936D+00 0.24557996D-02 0.17540325D+05 0.17540325D+05 0.17540325D+05 0.12401502D+01  1  2  5  2  5  2       -1 -.657743547498D+00 0.100000000000D+01
0.516531340448D-03 0.000000000000D+00 0.148610757243D-03 0.257851554877D-02 0.000000000000D+00  5 2 -1 25 24 21 2 0.21502936D+00 0.19368361D-02 0.17540325D+05 0.17540325D+05 0.17540325D+05 0.12401502D+01  1  2  6  2  5  2       -1 0.975589566954D+00 0.100000000000D+01
0.465534119824D-05 0.000000000000D+00 0.000000000000D+00 0.257851554877D-02 0.000000000000D+00  5 2 21 25 24 1 2 0.21502936D+00 0.22805241D-02 0.22005982D+05 0.22005982D+05 0.22005982D+05 0.12292821D+01  1  2 12  4  5  2       -1 0.138869355825D+00 0.100000000000D+01
-.136299668328D-04 0.000000000000D+00 -.497744670309D-05 0.257851554877D-02 0.000000000000D+00  5 2 21 25 24 1 2 0.21502936D+00 0.24557996D-02 0.17540325D+05 0.17540325D+05 0.17540325D+05 0.12401502D+01  1  2  5  4  5  2       -1 -.366325254287D+00 0.100000000000D+01
  </mgrwgt>
  </event>
  <event>
  4     66 0.48098993E-03 0.58081281E+02 0.75467711E-02 0.11930151E+00
        2 -1    0    0  501    0 0.00000000E+00 0.00000000E+00 0.75466469E+03 0.75466476E+03 0.32000000E+00 0.0000E+00 0.9000E+01
       -1 -1    0    0    0  501 0.00000000E+00 0.00000000E+00 -.33778189E+02 0.33779705E+02 0.32000000E+00 0.0000E+00 0.9000E+01
       25  1    1    2    0    0 0.29415530E+02 0.75621235E+02 0.61458867E+03 0.63239867E+03 0.12500000E+03 0.0000E+00 0.9000E+01
       24  1    1    2    0    0 -.29415530E+02 -.75621235E+02 0.10629783E+03 0.15604579E+03 0.80419002E+02 0.0000E+00 0.9000E+01
#aMCatNLO 1  0  0  1  2 0.46417001D+02 0.00000000D+00  -5  5  0 0.00000000D+00 0.00000000D+00 0.00000000D+00 0.00000000D+00 0.00000000D+00
  <mgrwgt>
 0.1990966317D+00    9    2    0
 0.159661614311855D+03 0.000000000000000D+00 0.000000000000000D+00 0.159661614311855D+03
 0.159661614311855D+03 0.000000000000000D+00 0.000000000000000D+00 -.159661614311855D+03
 0.174000978355461D+03 0.294155298339367D+02 0.756212345659785D+02 0.898192404552806D+02
 0.145322250268250D+03 -.294155298339367D+02 -.756212345659785D+02 -.898192404552806D+02
 0.000000000000000D+00 -.000000000000000D+00 -.000000000000000D+00 0.000000000000000D+00
 0.303486513614095D+03 0.000000000000000D+00 0.000000000000000D+00 0.303486513614095D+03
 0.165128877259373D+03 0.000000000000000D+00 0.000000000000000D+00 -.165128877259373D+03
 0.185155233526861D+03 0.516756041758892D+02 0.889921147039436D+02 0.898192404552806D+02
 0.137523960599476D+03 -.118850584876186D+02 -.650912683343792D+02 -.898192404552806D+02
 0.145936196747131D+03 -.397905456882707D+02 -.239008463695644D+02 0.138357636354722D+03
0.354453834247D-03 0.000000000000D+00 0.000000000000D+00 0.165559652350D-02 0.000000000000D+00  5 2 -1 25 24 21 0 0.11610238D+00 0.51967663D-02 0.17327452D+05 0.17327452D+05 0.17327452D+05 0.12407437D+01  1  2  2  1  5  1        2 0.246681176780D+00 0.100000000000D+01
-.187997422377D-04 0.000000000000D+00 -.136119605335D-05 0.165559652350D-02 0.000000000000D+00  5 2 -1 25 24 21 2 0.11610238D+00 0.51967663D-02 0.17327452D+05 0.17327452D+05 0.17327452D+05 0.12407437D+01  1  2  3  1  5  1        2 -.201415278297D-01 0.100000000000D+01
0.244661799479D-04 0.000000000000D+00 0.000000000000D+00 0.165559652350D-02 0.000000000000D+00  5 2 -1 25 24 21 2 0.11610238D+00 0.51967663D-02 0.17327452D+05 0.17327452D+05 0.17327452D+05 0.12407437D+01  1  2 15  1  5  1        2 0.262123936636D-01 0.100000000000D+01
0.114897855008D-02 0.000000000000D+00 0.000000000000D+00 0.165559652350D-02 0.000000000000D+00  5 2 -1 25 24 21 2 0.22098158D+00 0.51967663D-02 0.24409116D+05 0.24409116D+05 0.24409116D+05 0.12244129D+01  1  2 12  1  5  1        2 0.479219977926D+00 0.100000000000D+01
-.111877692944D-02 0.000000000000D+00 0.000000000000D+00 0.165559652350D-02 0.000000000000D+00  5 2 -1 25 24 21 2 0.11610238D+00 0.51967663D-02 0.17327452D+05 0.17327452D+05 0.17327452D+05 0.12407437D+01  1  2  4  1  5  1        2 -.119862689470D+01 0.100000000000D+01
-.126176409744D-02 0.000000000000D+00 -.122955241090D-03 0.165559652350D-02 0.000000000000D+00  5 2 -1 25 24 21 2 0.22308742D+00 0.51967663D-02 0.17327452D+05 0.17327452D+05 0.17327452D+05 0.12407437D+01  1  2  5  1  5  1        2 -.530700788165D+00 0.100000000000D+01
0.111741895075D-02 0.000000000000D+00 0.100704319608D-03 0.165559652350D-02 0.000000000000D+00  5 2 -1 25 24 21 2 0.11610238D+00 0.51967663D-02 0.17327452D+05 0.17327452D+05 0.17327452D+05 0.12407437D+01  1  2  6  1  5  1        2 0.119717199360D+01 0.100000000000D+01
0.803343659681D-04 0.000000000000D+00 0.000000000000D+00 0.165559652350D-02 0.000000000000D+00  5 21 -1 25 24 -2 2 0.22098158D+00 0.51967663D-02 0.24409116D+05 0.24409116D+05 0.24409116D+05 0.12244129D+01  1  2 12  3  5  1        2 0.179501821265D-01 0.100000000000D+01
-.823165145667D-04 0.000000000000D+00 -.871417116303D-05 0.165559652350D-02 0.000000000000D+00  5 21 -1 25 24 -2 2 0.22308742D+00 0.51967663D-02 0.17327452D+05 0.17327452D+05 0.17327452D+05 0.12407437D+01  1  2  5  3  5  1        2 -.186698817101D-01 0.100000000000D+01
  </mgrwgt>
  </event>
  <event>
  5     66 0.48098993E-03 0.12089090E+03 0.75467711E-02 0.12216340E+00
        2 -1    0    0  501    0 0.00000000E+00 0.00000000E+00 0.31597609E+03 0.31597625E+03 0.32000000E+00 0.0000E+00 0.9000E+01
       -1 -1    0    0    0  502 0.00000000E+00 0.00000000E+00 -.58579408E+02 0.58580282E+02 0.32000000E+00 0.0000E+00 0.9000E+01
       25  1    1    2    0    0 -.58419995E+02 0.43055393E+02 0.10692088E+03 0.17978803E+03 0.12500000E+03 0.0000E+00 0.9000E+01
       24  1    1    2    0    0 0.33608452E+02 -.45875614E+02 0.11564975E+03 0.15190846E+03 0.80419002E+02 0.0000E+00 0.9000E+01
       21  1    1    2  501  502 0.24811543E+02 0.28202211E+01 0.34826050E+02 0.42860035E+02 0.75000000E+00 0.0000E+00 0.9000E+01
#aMCatNLO 2  0  0  2  2 0.24971310D+02 0.00000000D+00  -5  5  0 0.00000000D+00 0.00000000D+00 0.00000000D+00 0.00000000D+00 0.00000000D+00
  <mgrwgt>
 0.1659662561D+00    1    2    0
 0.122332859118206D+03 0.000000000000000D+00 0.000000000000000D+00 0.122332859118206D+03
 0.122332859118206D+03 0.000000000000000D+00 0.000000000000000D+00 -.122332859118206D+03
 0.141047749196882D+03 -.439171706302626D+02 0.447038660274610D+02 -.185017307173616D+02
 0.103617969039530D+03 0.439171706302626D+02 -.447038660274610D+02 0.185017307173616D+02
 0.000000000000000D+00 0.000000000000000D+00 0.000000000000000D+00 0.000000000000000D+00
 0.140198054437139D+03 0.000000000000000D+00 0.000000000000000D+00 0.140198054437139D+03
 0.132016218944980D+03 0.000000000000000D+00 0.000000000000000D+00 -.132016218944980D+03
 0.145718827562350D+03 -.584199951972927D+02 0.430553925514158D+02 -.185017307173616D+02
 0.100217912303453D+03 0.336084517377354D+02 -.458756136127534D+02 0.185017307173616D+02
 0.262775335163154D+02 0.248115434595573D+02 0.282022106133758D+01 0.818183549215959D+01
0.134923041448D-03 0.000000000000D+00 0.000000000000D+00 0.268605594623D-02 0.356565596377D-04  5 2 -1 25 24 21 2 0.48609856D-01 0.90119387D-02 0.17956811D+05 0.17956811D+05 0.17956811D+05 0.12390119D+01  1  2  1  2  5  2       -1 0.165966256080D+00 0.100000000000D+01
  </mgrwgt>
  </event>
  <event>
  4     66 0.48098993E-03 0.11399734E+03 0.75467711E-02 0.12454945E+00
        2 -1    0    0  501    0 0.00000000E+00 0.00000000E+00 0.47582520E+03 0.47582531E+03 0.32000000E+00 0.0000E+00 0.9000E+01
       -1 -1    0    0    0  501 0.00000000E+00 0.00000000E+00 -.28253631E+02 0.28255444E+02 0.32000000E+00 0.0000E+00 0.9000E+01
       25  1    1    2    0    0 0.44390021E+02 0.19548711E+02 0.21653680E+03 0.25468767E+03 0.12500000E+03 0.0000E+00 0.9000E+01
       24  1    1    2    0    0 -.44390021E+02 -.19548711E+02 0.23103477E+03 0.24939308E+03 0.80419002E+02 0.0000E+00 0.9000E+01
#aMCatNLO 1  0  0  1  1 0.89304190D+01 0.00000000D+00  -5  5  0 0.00000000D+00 0.00000000D+00 0.00000000D+00 0.00000000D+00 0.00000000D+00
  <mgrwgt>
 0.2606663317D+00    6    2    0
 0.115949444305869D+03 0.000000000000000D+00 0.000000000000000D+00 0.115949444305869D+03
 0.115949444305869D+03 0.000000000000000D+00 0.000000000000000D+00 -.115949444305869D+03
 0.135694653307198D+03 0.443900205097595D+02 0.195487111142739D+02 -.208665500041234D+02
 0.962042353045401D+02 -.443900205097595D+02 -.195487111142739D+02 0.208665500041234D+02
 0.000000000000000D+00 0.000000000000000D+00 -.000000000000000D+00 -.000000000000000D+00
 0.117195352798226D+03 0.000000000000000D+00 0.000000000000000D+00 0.117195352798226D+03
 0.133223954926092D+03 0.000000000000000D+00 0.000000000000000D+00 -.133223954926092D+03
 0.134391599830935D+03 0.394324616810157D+02 0.211132698040552D+02 -.208665500041234D+02
 0.976791801551438D+02 -.479488408010224D+02 -.184255810810442D+02 0.208665500041234D+02
 0.183485277382390D+02 0.851637912000668D+01 -.268768872301098D+01 -.160286021278663D+02
0.230272638419D-03 0.000000000000D+00 0.000000000000D+00 0.278659180812D-02 0.000000000000D+00  5 2 -1 25 24 21 0 0.73204024D-01 0.43468602D-02 0.12995394D+05 0.12995394D+05 0.12995394D+05 0.12549882D+01  1  2  2  1  5  1        2 0.348967271912D+00 0.100000000000D+01
-.127884401797D-04 0.000000000000D+00 -.884307563705D-06 0.278659180812D-02 0.000000000000D+00  5 2 -1 25 24 21 2 0.73204024D-01 0.43468602D-02 0.12995394D+05 0.12995394D+05 0.12995394D+05 0.12549882D+01  1  2  3  1  5  1        2 -.305238430142D-01 0.100000000000D+01
0.159361133415D-04 0.000000000000D+00 0.000000000000D+00 0.278659180812D-02 0.000000000000D+00  5 2 -1 25 24 21 2 0.73204024D-01 0.43468602D-02 0.12995394D+05 0.12995394D+05 0.12995394D+05 0.12549882D+01  1  2 15  1  5  1        2 0.380368062920D-01 0.100000000000D+01
-.401529508096D-04 0.000000000000D+00 0.000000000000D+00 0.278659180812D-02 0.000000000000D+00  5 2 -1 25 24 21 2 0.73204024D-01 0.43468602D-02 0.12995394D+05 0.12995394D+05 0.12995394D+05 0.12549882D+01  1  2  4  1  5  1        2 -.958383000467D-01 0.100000000000D+01
0.104958019195D-07 0.000000000000D+00 0.000000000000D+00 0.278659180812D-02 0.294328785344D-03  5 2 -1 25 24 21 2 0.73990622D-01 0.49944690D-02 0.14056066D+05 0.14056066D+05 0.14056066D+05 0.12510534D+01  1  2 11  1  5  1        2 0.201275184802D-04 0.100000000000D+01
0.107158308720D-08 0.000000000000D+00 0.000000000000D+00 0.278659180812D-02 0.625210668481D-06  5 21 -1 25 24 -2 2 0.73990622D-01 0.49944690D-02 0.14056066D+05 0.14056066D+05 0.14056066D+05 0.12510534D+01  1  2 11  3  5  1        2 0.426908076696D-05 0.100000000000D+01
  </mgrwgt>
  </event>
  <event>
  4     66 0.48098993E-03 0.14632024E+03 0.75467711E-02 0.11430914E+00
        2 -1    0    0  501    0 0.00000000E+00 0.00000000E+00 0.79919920E+03 0.79919927E+03 0.32000000E+00 0.0000E+00 0.9000E+01
       -1 -1    0    0    0  501 0.00000000E+00 0.00000000E+00 -.58574349E+02 0.58575223E+02 0.32000000E+00 0.0000E+00 0.9000E+01
       25  1    1    2    0    0 0.14925105E+03 -.54872392E+02 0.18441435E+03 0.27371610E+03 0.12500000E+03 0.0000E+00 0.9000E+01
       24  1    1    2    0    0 -.14925105E+03 0.54872392E+02 0.55621051E+03 0.58405839E+03 0.80419002E+02 0.0000E+00 0.9000E+01
#aMCatNLO 1  0  0  1  2 0.34030283D+02 0.00000000D+00  -5  5  0 0.00000000D+00 0.00000000D+00 0.00000000D+00 0.00000000D+00 0.00000000D+00
  <mgrwgt>
 0.5270572996D+00    9    2    0
 0.216363062974166D+03 0.000000000000000D+00 0.000000000000000D+00 0.216363062974166D+03
 0.216363062974166D+03 0.000000000000000D+00 0.000000000000000D+00 -.216363062974166D+03
 0.226944564178375D+03 0.149251045011624D+03 -.548723918207792D+02 -.102917352224576D+03
 0.205781561769958D+03 -.149251045011624D+03 0.548723918207792D+02 0.102917352224576D+03
 0.000000000000000D+00 0.000000000000000D+00 0.000000000000000D+00 0.000000000000000D+00
 0.241608818504560D+03 0.000000000000000D+00 0.000000000000000D+00 0.241608818504560D+03
 0.228810645373998D+03 0.000000000000000D+00 0.000000000000000D+00 -.228810645373998D+03
 0.220139255481713D+03 0.134518276964623D+03 -.644138461636511D+02 -.102917352224576D+03
 0.213922906265902D+03 -.163081580369766D+03 0.459152548295364D+02 0.102917352224576D+03
 0.363573021309432D+02 0.285633034051433D+02 0.184985913341147D+02 0.127981731305618D+02
0.956635488435D-03 0.000000000000D+00 0.000000000000D+00 0.166137983116D-02 0.000000000000D+00  5 2 -1 25 24 21 0 0.12295380D+00 0.90115104D-02 0.36188120D+05 0.36188120D+05 0.36188120D+05 0.12064423D+01  1  2  2  1  5  1        2 0.274613239477D+00 0.100000000000D+01
-.520758530609D-04 0.000000000000D+00 -.367373216350D-05 0.166137983116D-02 0.000000000000D+00  5 2 -1 25 24 21 2 0.12295380D+00 0.90115104D-02 0.36188120D+05 0.36188120D+05 0.36188120D+05 0.12064423D+01  1  2  3  1  5  1        2 -.217582754306D-01 0.100000000000D+01
0.656247382001D-04 0.000000000000D+00 0.000000000000D+00 0.166137983116D-02 0.000000000000D+00  5 2 -1 25 24 21 2 0.12295380D+00 0.90115104D-02 0.36188120D+05 0.36188120D+05 0.36188120D+05 0.12064423D+01  1  2 15  1  5  1        2 0.274192556605D-01 0.100000000000D+01
0.161842777692D-02 0.000000000000D+00 0.000000000000D+00 0.166137983116D-02 0.000000000000D+00  5 2 -1 25 24 21 2 0.14051845D+00 0.90115104D-02 0.43299383D+05 0.43299383D+05 0.43299383D+05 0.11985204D+01  1  2 12  1  5  1        2 0.561976477790D+00 0.100000000000D+01
-.154050157498D-02 0.000000000000D+00 0.000000000000D+00 0.166137983116D-02 0.000000000000D+00  5 2 -1 25 24 21 2 0.12295380D+00 0.90115104D-02 0.36188120D+05 0.36188120D+05 0.36188120D+05 0.12064423D+01  1  2  4  1  5  1        2 -.643650667237D+00 0.100000000000D+01
-.409651206302D-02 0.000000000000D+00 -.945280455790D-03 0.166137983116D-02 0.000000000000D+00  5 2 -1 25 24 21 2 0.14269363D+00 0.90115104D-02 0.36188120D+05 0.36188120D+05 0.36188120D+05 0.12064423D+01  1  2  5  1  5  1        2 -.141025045689D+01 0.100000000000D+01
0.420098680512D-02 0.000000000000D+00 0.934898601924D-03 0.166137983116D-02 0.000000000000D+00  5 2 -1 25 24 21 2 0.12295380D+00 0.90115104D-02 0.36188120D+05 0.36188120D+05 0.36188120D+05 0.12064423D+01  1  2  6  1  5  1        2 0.175525166874D+01 0.100000000000D+01
0.335677933242D-04 0.000000000000D+00 0.000000000000D+00 0.166137983116D-02 0.000000000000D+00  5 21 -1 25 24 -2 2 0.14051845D+00 0.90115104D-02 0.43299383D+05 0.43299383D+05 0.43299383D+05 0.11985204D+01  1  2 12  3  5  1        2 0.108581228723D-01 0.100000000000D+01
-.864116316489D-04 0.000000000000D+00 -.214335565538D-04 0.166137983116D-02 0.000000000000D+00  5 21 -1 25 24 -2 2 0.14269363D+00 0.90115104D-02 0.36188120D+05 0.36188120D+05 0.36188120D+05 0.12064423D+01  1  2  5  3  5  1        2 -.274020653355D-01 0.100000000000D+01
  </mgrwgt>
  </event>
  <event>
  4     66 0.48098993E-03 0.75583856E+02 0.75467711E-02 0.12242834E+00
        2 -1    0    0  501    0 0.00000000E+00 0.00000000E+00 0.43388020E+02 0.43389200E+02 0.32000000E+00 0.0000E+00 0.9000E+01
       -1 -1    0    0    0  501 0.00000000E+00 0.00000000E+00 -.50199318E+03 0.50199328E+03 0.32000000E+00 0.0000E+00 0.9000E+01
       25  1    1    2    0    0 0.57587528E+02 -.56962226E+02 -.13064211E+03 0.19812465E+03 0.12500000E+03 0.0000E+00 0.9000E+01
       24  1    1    2    0    0 -.57587528E+02 0.56962226E+02 -.32796306E+03 0.34725783E+03 0.80419002E+02 0.0000E+00 0.9000E+01
#aMCatNLO 1  0  0  2  1 0.12163117D+01 0.00000000D+00  -5  5  0 0.00000000D+00 0.00000000D+00 0.00000000D+00 0.00000000D+00 0.00000000D+00
  <mgrwgt>
 0.2201044463D+00   11    2    0
 0.147583331605401D+03 0.000000000000000D+00 0.000000000000000D+00 0.147583331605401D+03
 0.147583331605401D+03 0.000000000000000D+00 0.000000000000000D+00 -.147583331605401D+03
 0.163096235308705D+03 0.575875278496222D+02 -.569622255180053D+02 0.664406763366933D+02
 0.132070427902097D+03 -.575875278496222D+02 0.569622255180053D+02 -.664406763366933D+02
 0.000000000000000D+00 0.000000000000000D+00 0.000000000000000D+00 -.000000000000000D+00
 0.147726157714656D+03 0.000000000000000D+00 0.000000000000000D+00 0.147726157714656D+03
 0.150197041161554D+03 0.000000000000000D+00 0.000000000000000D+00 -.150197041161554D+03
 0.162892273126167D+03 0.569213821328154D+02 -.570480974987130D+02 0.664406763366933D+02
 0.132276896139671D+03 -.581277120374182D+02 0.568925910746956D+02 -.664406763366933D+02
 0.275402961037132D+01 0.120632990460282D+01 0.155506424017383D+00 -.247088344689754D+01
0.699291962877D-03 0.000000000000D+00 0.000000000000D+00 0.198085283492D-02 0.000000000000D+00  5 2 -1 25 24 21 0 0.66751786D-02 0.77229819D-01 0.17304220D+05 0.17304220D+05 0.17304220D+05 0.12408090D+01  1  2  2  2  5  2       -1 0.145833431980D+00 0.100000000000D+01
-.382244292565D-04 0.000000000000D+00 -.268546526525D-05 0.198085283492D-02 0.000000000000D+00  5 2 -1 25 24 21 2 0.66751786D-02 0.77229819D-01 0.17304220D+05 0.17304220D+05 0.17304220D+05 0.12408090D+01  1  2  3  2  5  2       -1 -.122729635738D-01 0.100000000000D+01
0.481182746121D-04 0.000000000000D+00 0.000000000000D+00 0.198085283492D-02 0.000000000000D+00  5 2 -1 25 24 21 2 0.66751786D-02 0.77229819D-01 0.17304220D+05 0.17304220D+05 0.17304220D+05 0.12408090D+01  1  2 15  2  5  2       -1 0.154496441944D-01 0.100000000000D+01
0.905444769572D-07 0.000000000000D+00 0.000000000000D+00 0.198085283492D-02 0.000000000000D+00  5 2 -1 25 24 21 2 0.66751786D-02 0.78634577D-01 0.17466635D+05 0.17466635D+05 0.17466635D+05 0.12403547D+01  1  2 12  2  5  2       -1 0.280125163413D-04 0.100000000000D+01
-.431979874223D-01 0.000000000000D+00 0.000000000000D+00 0.198085283492D-02 0.000000000000D+00  5 2 -1 25 24 21 2 0.66751786D-02 0.77229819D-01 0.17304220D+05 0.17304220D+05 0.17304220D+05 0.12408090D+01  1  2  4  2  5  2       -1 -.138698559117D+02 0.100000000000D+01
-.722527217072D-01 0.000000000000D+00 -.433225002412D-02 0.198085283492D-02 0.000000000000D+00  5 2 -1 25 24 21 2 0.66751786D-02 0.78638371D-01 0.17304220D+05 0.17304220D+05 0.17304220D+05 0.12408090D+01  1  2  5  2  5  2       -1 -.223630423508D+02 0.100000000000D+01
0.723199180208D-01 0.000000000000D+00 0.433154250360D-02 0.198085283492D-02 0.000000000000D+00  5 2 -1 25 24 21 2 0.66751786D-02 0.77229819D-01 0.17304220D+05 0.17304220D+05 0.17304220D+05 0.12408090D+01  1  2  6  2  5  2       -1 0.232202216434D+02 0.100000000000D+01
0.432056479868D-01 0.000000000000D+00 0.000000000000D+00 0.198085283492D-02 0.109883109527D-01  5 2 -1 25 24 21 2 0.66816386D-02 0.78597564D-01 0.17466635D+05 0.17466635D+05 0.17466635D+05 0.12403547D+01  1  2 11  2  5  2       -1 0.133632186933D+02 0.100000000000D+01
0.619486276701D-08 0.000000000000D+00 0.000000000000D+00 0.198085283492D-02 0.000000000000D+00  5 2 21 25 24 1 2 0.66751786D-02 0.78634577D-01 0.17466635D+05 0.17466635D+05 0.17466635D+05 0.12403547D+01  1  2 12  4  5  2       -1 0.177041572163D-04 0.100000000000D+01
-.237832747393D-03 0.000000000000D+00 -.142914824492D-04 0.198085283492D-02 0.000000000000D+00  5 2 21 25 24 1 2 0.66751786D-02 0.78638371D-01 0.17304220D+05 0.17304220D+05 0.17304220D+05 0.12408090D+01  1  2  5  4  5  2       -1 -.680145066094D+00 0.100000000000D+01
0.140217868483D-03 0.000000000000D+00 0.000000000000D+00 0.198085283492D-02 0.352057018139D-04  5 2 21 25 24 1 2 0.66816386D-02 0.78597564D-01 0.17466635D+05 0.17466635D+05 0.17466635D+05 0.12403547D+01  1  2 11  4  5  2       -1 0.400651608945D+00 0.100000000000D+01
  </mgrwgt>
  </event>
  <event>
  4     66 0.48098993E-03 0.43267250E+02 0.75467711E-02 0.12275295E+00
        2 -1    0    0  501    0 0.00000000E+00 0.00000000E+00 0.18647465E+03 0.18647493E+03 0.32000000E+00 0.0000E+00 0.9000E+01
       -1 -1    0    0    0  501 0.00000000E+00 0.00000000E+00 -.87576668E+02 0.87577252E+02 0.32000000E+00 0.0000E+00 0.9000E+01
       25  1    1    2    0    0 0.28760025E+02 -.63219497E+02 0.26397384E+02 0.14541549E+03 0.12500000E+03 0.0000E+00 0.9000E+01
       24  1    1    2    0    0 -.28760025E+02 0.63219497E+02 0.72500599E+02 0.12863668E+03 0.80419002E+02 0.0000E+00 0.9000E+01
#aMCatNLO 1  0  0  1  2 0.10463950D+02 0.00000000D+00  -5  5  0 0.00000000D+00 0.00000000D+00 0.00000000D+00 0.00000000D+00 0.00000000D+00
  <mgrwgt>
 0.4937834704D+00    9    2    0
 0.127792590858442D+03 0.000000000000000D+00 0.000000000000000D+00 0.127792590858442D+03
 0.127792590858442D+03 0.000000000000000D+00 0.000000000000000D+00 -.127792590858442D+03
 0.145707917529794D+03 0.287600251255998D+02 -.632194966201892D+02 -.279634302748069D+02
 0.109877264187091D+03 -.287600251255998D+02 0.632194966201892D+02 0.279634302748069D+02
 0.000000000000000D+00 -.000000000000000D+00 0.000000000000000D+00 0.000000000000000D+00
 0.133152731289063D+03 0.000000000000000D+00 0.000000000000000D+00 0.133152731289063D+03
 0.133110598274313D+03 0.000000000000000D+00 0.000000000000000D+00 -.133110598274313D+03
 0.148401638349344D+03 0.333512093122456D+02 -.671102799088644D+02 -.279634302748069D+02
 0.107397656716209D+03 -.253682646028104D+02 0.603451608007634D+02 0.279634302748069D+02
 0.104640344978227D+02 -.798294470943523D+01 0.676511910810095D+01 0.421330147495265D-01
0.271353540562D-03 0.000000000000D+00 0.000000000000D+00 0.254062103268D-02 0.000000000000D+00  5 2 -1 25 24 21 0 0.28688474D-01 0.13473400D-01 0.15532494D+05 0.15532494D+05 0.15532494D+05 0.12460991D+01  1  2  2  1  5  1        2 0.204985553657D+00 0.100000000000D+01
-.150636823565D-04 0.000000000000D+00 -.104206904479D-05 0.254062103268D-02 0.000000000000D+00  5 2 -1 25 24 21 2 0.28688474D-01 0.13473400D-01 0.15532494D+05 0.15532494D+05 0.15532494D+05 0.12460991D+01  1  2  3  1  5  1        2 -.176694930035D-01 0.100000000000D+01
0.187811405288D-04 0.000000000000D+00 0.000000000000D+00 0.254062103268D-02 0.000000000000D+00  5 2 -1 25 24 21 2 0.28688474D-01 0.13473400D-01 0.15532494D+05 0.15532494D+05 0.15532494D+05 0.12460991D+01  1  2 15  1  5  1        2 0.220300205034D-01 0.100000000000D+01
0.645475560675D-03 0.000000000000D+00 0.000000000000D+00 0.254062103268D-02 0.000000000000D+00  5 2 -1 25 24 21 2 0.30464255D-01 0.13473400D-01 0.16887068D+05 0.16887068D+05 0.16887068D+05 0.12419980D+01  1  2 12  1  5  1        2 0.706898389387D+00 0.100000000000D+01
-.497911169661D-03 0.000000000000D+00 0.000000000000D+00 0.254062103268D-02 0.000000000000D+00  5 2 -1 25 24 21 2 0.28688474D-01 0.13473400D-01 0.15532494D+05 0.15532494D+05 0.15532494D+05 0.12460991D+01  1  2  4  1  5  1        2 -.584042979697D+00 0.100000000000D+01
-.283845404066D-02 0.000000000000D+00 -.533411620538D-03 0.254062103268D-02 0.000000000000D+00  5 2 -1 25 24 21 2 0.31061833D-01 0.13473400D-01 0.15532494D+05 0.15532494D+05 0.15532494D+05 0.12460991D+01  1  2  5  1  5  1        2 -.305542139872D+01 0.100000000000D+01
0.287345082695D-02 0.000000000000D+00 0.531731058536D-03 0.254062103268D-02 0.000000000000D+00  5 2 -1 25 24 21 2 0.28688474D-01 0.13473400D-01 0.15532494D+05 0.15532494D+05 0.15532494D+05 0.12460991D+01  1  2  6  1  5  1        2 0.337051844835D+01 0.100000000000D+01
0.715046127891D-05 0.000000000000D+00 0.000000000000D+00 0.254062103268D-02 0.000000000000D+00  5 21 -1 25 24 -2 2 0.30464255D-01 0.13473400D-01 0.16887068D+05 0.16887068D+05 0.16887068D+05 0.12419980D+01  1  2 12  3  5  1        2 0.388533332634D-01 0.100000000000D+01
-.365538921080D-04 0.000000000000D+00 -.708389795146D-05 0.254062103268D-02 0.000000000000D+00  5 21 -1 25 24 -2 2 0.31061833D-01 0.13473400D-01 0.15532494D+05 0.15532494D+05 0.15532494D+05 0.12460991D+01  1  2  5  3  5  1        2 -.192368403347D+00 0.100000000000D+01
  </mgrwgt>
  </event>
  <event>
  4     66 0.48098993E-03 0.10349888E+03 0.75467711E-02 0.11933054E+00
        2 -1    0    0  501    0 0.00000000E+00 0.00000000E+00 0.11602561E+02 0.11606973E+02 0.32000000E+00 0.0000E+00 0.9000E+01
       -1 -1    0    0    0  501 0.00000000E+00 0.00000000E+00 -.13232644E+04 0.13232644E+04 0.32000000E+00 0.0000E+00 0.9000E+01
       25  1    1    2    0    0 -.81177903E+01 -.94512870E+01 -.39245520E+03 0.41206955E+03 0.12500000E+03 0.0000E+00 0.9000E+01
       24  1    1    2    0    0 0.81177903E+01 0.94512870E+01 -.91920664E+03 0.92280187E+03 0.80419002E+02 0.0000E+00 0.9000E+01
#aMCatNLO 1  0  0  2  2 0.87646227D+02 0.00000000D+00  -5  5  0 0.00000000D+00 0.00000000D+00 0.00000000D+00 0.00000000D+00 0.00000000D+00
  <mgrwgt>
 0.4086669760D+00    3    2    0
 0.123920241943761D+03 0.000000000000000D+00 0.000000000000000D+00 0.123920241943761D+03
 0.123920241943761D+03 0.000000000000000D+00 0.000000000000000D+00 -.123920241943761D+03
 0.142395399637904D+03 -.811779031892480D+01 -.945128698847606D+01 0.670538924495651D+02
 0.105445084249618D+03 0.811779031892480D+01 0.945128698847606D+01 -.670538924495651D+02
 0.000000000000000D+00 0.000000000000000D+00 0.000000000000000D+00 0.000000000000000D+00
 0.183370458953762D+03 0.000000000000000D+00 0.000000000000000D+00 0.183370458953762D+03
 0.168422900732965D+03 0.000000000000000D+00 0.000000000000000D+00 -.168422900732965D+03
 0.154593997677308D+03 -.121066148208688D+02 -.602620071254903D+02 0.670538924495651D+02
 0.108287661091379D+03 0.524717467004667D+01 -.271153878013006D+02 -.670538924495651D+02
 0.889117009180412D+02 0.685944015082217D+01 0.873773949267909D+02 0.149475582207967D+02
0.355863922768D-02 0.000000000000D+00 0.000000000000D+00 0.201963542095D-02 0.000000000000D+00  5 2 -1 25 24 21 0 0.17853517D-02 0.20357948D+00 0.10712017D+05 0.10712017D+05 0.10712017D+05 0.12648446D+01  1  2  2  2  5  2       -1 0.398997048379D+00 0.100000000000D+01
-.189907264075D-03 0.000000000000D+00 -.136661116455D-04 0.201963542095D-02 0.000000000000D+00  5 2 -1 25 24 21 2 0.17853517D-02 0.20357948D+00 0.10712017D+05 0.10712017D+05 0.10712017D+05 0.12648446D+01  1  2  3  2  5  2       -1 -.340644690859D-01 0.100000000000D+01
0.243816499934D-03 0.000000000000D+00 0.000000000000D+00 0.201963542095D-02 0.000000000000D+00  5 2 -1 25 24 21 2 0.17853517D-02 0.20357948D+00 0.10712017D+05 0.10712017D+05 0.10712017D+05 0.12648446D+01  1  2 15  2  5  2       -1 0.437343967072D-01 0.100000000000D+01
  </mgrwgt>
  </event>
  <event>
  4     66 0.48098993E-03 0.81651613E+02 0.75467711E-02 0.11756600E+00
        2 -1    0    0  501    0 0.00000000E+00 0.00000000E+00 0.15814463E+03 0.15814495E+03 0.32000000E+00 0.0000E+00 0.9000E+01
       -1 -1    0    0    0  501 0.00000000E+00 0.00000000E+00 -.91594467E+02 0.91595026E+02 0.32000000E+00 0.0000E+00 0.9000E+01
       25  1    1    2    0    0 -.42719982E+02 0.15282394E+02 0.81843362E+02 0.15614700E+03 0.12500000E+03 0.0000E+00 0.9000E+01
       24  1    1    2    0    0 0.42719982E+02 -.15282394E+02 -.15293200E+02 0.93592982E+02 0.80419002E+02 0.0000E+00 0.9000E+01
#aMCatNLO 1  0  0  2  1 0.98204245D+02 0.00000000D+00  -5  5  0 0.00000000D+00 0.00000000D+00 0.00000000D+00 0.00000000D+00 0.00000000D+00
  <mgrwgt>
 0.1887467316D+00    7    2    0
 0.120354821949133D+03 0.000000000000000D+00 0.000000000000000D+00 0.120354821949133D+03
 0.120354821949133D+03 0.000000000000000D+00 0.000000000000000D+00 -.120354821949133D+03
 0.139377292127976D+03 -.427199821263150D+02 0.152823942015102D+02 0.417430367309819D+02
 0.101332351770289D+03 0.427199821263150D+02 -.152823942015102D+02 -.417430367309819D+02
 0.000000000000000D+00 -.000000000000000D+00 -.000000000000000D+00 -.000000000000000D+00
 0.156268026951595D+03 0.000000000000000D+00 0.000000000000000D+00 0.156268026951595D+03
 0.221721385062547D+03 0.000000000000000D+00 0.000000000000000D+00 -.221721385062547D+03
 0.143613219004925D+03 -.584816173743769D+01 0.567721283881903D+02 0.417430367309819D+02
 0.116358330363597D+03 0.710836601162222D+02 0.166336177541357D+02 -.417430367309819D+02
 0.118017862645621D+03 -.652354983787845D+02 -.734057461423260D+02 -.654533581109522D+02
0.248109220821D-03 0.000000000000D+00 0.000000000000D+00 0.248746578369D-02 0.000000000000D+00  5 2 -1 25 24 21 0 0.24330011D-01 0.14091524D-01 0.12691664D+05 0.12691664D+05 0.12691664D+05 0.12561818D+01  1  2  2  2  5  2       -1 0.207750032653D+00 0.100000000000D+01
-.137106348926D-04 0.000000000000D+00 -.952804736609D-06 0.248746578369D-02 0.000000000000D+00  5 2 -1 25 24 21 2 0.24330011D-01 0.14091524D-01 0.12691664D+05 0.12691664D+05 0.12691664D+05 0.12561818D+01  1  2  3  2  5  2       -1 -.181159341455D-01 0.100000000000D+01
0.171800037340D-04 0.000000000000D+00 0.000000000000D+00 0.248746578369D-02 0.000000000000D+00  5 2 -1 25 24 21 2 0.24330011D-01 0.14091524D-01 0.12691664D+05 0.12691664D+05 0.12691664D+05 0.12561818D+01  1  2 15  2  5  2       -1 0.227000294809D-01 0.100000000000D+01
0.293948400289D-05 0.000000000000D+00 0.000000000000D+00 0.248746578369D-02 0.000000000000D+00  5 2 -1 25 24 21 2 0.24330011D-01 0.26597911D-01 0.29623577D+05 0.29623577D+05 0.29623577D+05 0.12154744D+01  1  2 12  2  5  2       -1 0.134594452101D-02 0.100000000000D+01
-.627164638752D-04 0.000000000000D+00 -.710528353046D-04 0.248746578369D-02 0.000000000000D+00  5 2 -1 25 24 21 2 0.24330011D-01 0.33079439D-01 0.12691664D+05 0.12691664D+05 0.12691664D+05 0.12561818D+01  1  2  5  2  5  2       -1 -.209029675884D-01 0.100000000000D+01
0.203073739731D-06 0.000000000000D+00 0.000000000000D+00 0.248746578369D-02 0.000000000000D+00  5 2 21 25 24 1 2 0.24330011D-01 0.26597911D-01 0.29623577D+05 0.29623577D+05 0.29623577D+05 0.12154744D+01  1  2 12  4  5  2       -1 0.109900303047D-02 0.100000000000D+01
-.135220671813D-05 0.000000000000D+00 -.661443001801D-05 0.248746578369D-02 0.000000000000D+00  5 2 21 25 24 1 2 0.24330011D-01 0.33079439D-01 0.12691664D+05 0.12691664D+05 0.12691664D+05 0.12561818D+01  1  2  5  4  5  2       -1 -.512937635982D-02 0.100000000000D+01
  </mgrwgt>
  </event>
  <event>
  4     66 0.48098993E-03 0.63509920E+02 0.75467711E-02 0.12080965E+00
        2 -1    0    0  501    0 0.00000000E+00 0.00000000E+00 0.60081424E+03 0.60081433E+03 0.32000000E+00 0.0000E+00 0.9000E+01
       -1 -1    0    0    0  501 0.00000000E+00 0.00000000E+00 -.25880216E+02 0.25882195E+02 0.32000000E+00 0.0000E+00 0.9000E+01
       25  1    1    2    0    0 0.52913303E+02 -.42470528E+02 0.29108578E+03 0.32397453E+03 0.12500000E+03 0.0000E+00 0.9000E+01
       24  1    1    2    0    0 -.52913303E+02 0.42470528E+02 0.28384824E+03 0.30272199E+03 0.80419002E+02 0.0000E+00 0.9000E+01
#aMCatNLO 1  0  0  2  1 0.37617830D+02 0.00000000D+00  -5  5  0 0.00000000D+00 0.00000000D+00 0.00000000D+00 0.00000000D+00 0.00000000D+00
  <mgrwgt>
 0.3877667541D+00    9    2    0
 0.124699034607383D+03 0.000000000000000D+00 0.000000000000000D+00 0.124699034607383D+03
 0.124699034607383D+03 0.000000000000000D+00 0.000000000000000D+00 -.124699034607383D+03
 0.143058807949781D+03 0.529133026978222D+02 -.424705279134546D+02 -.154032200650862D+02
 0.106339261264986D+03 -.529133026978222D+02 0.424705279134546D+02 0.154032200650862D+02
 0.000000000000000D+00 0.000000000000000D+00 0.000000000000000D+00 -.000000000000000D+00
 0.132088621397157D+03 0.000000000000000D+00 0.000000000000000D+00 0.132088621397157D+03
 0.185278741124646D+03 0.000000000000000D+00 0.000000000000000D+00 -.185278741124646D+03
 0.140868849429406D+03 0.343632944665361D+02 -.529238844435804D+02 -.154032200650862D+02
 0.111350297513399D+03 -.671357393018445D+02 0.344558575858043D+02 0.154032200650862D+02
 0.651482155789975D+02 0.327724448353085D+02 0.184680268577760D+02 -.531901197274893D+02
0.240718913801D-03 0.000000000000D+00 0.000000000000D+00 0.266447280342D-02 0.000000000000D+00  5 2 -1 25 24 21 0 0.92433119D-01 0.39817305D-02 0.15307248D+05 0.15307248D+05 0.15307248D+05 0.12468199D+01  1  2  2  2  5  2       -1 0.322594992222D+00 0.100000000000D+01
-.133722678780D-04 0.000000000000D+00 -.924424011741D-06 0.266447280342D-02 0.000000000000D+00  5 2 -1 25 24 21 2 0.92433119D-01 0.39817305D-02 0.15307248D+05 0.15307248D+05 0.15307248D+05 0.12468199D+01  1  2  3  2  5  2       -1 -.278586411285D-01 0.100000000000D+01
0.166116449199D-04 0.000000000000D+00 0.000000000000D+00 0.266447280342D-02 0.000000000000D+00  5 2 -1 25 24 21 2 0.92433119D-01 0.39817305D-02 0.15307248D+05 0.15307248D+05 0.15307248D+05 0.12468199D+01  1  2 15  2  5  2       -1 0.346072826690D-01 0.100000000000D+01
0.331258464285D-03 0.000000000000D+00 0.000000000000D+00 0.266447280342D-02 0.000000000000D+00  5 2 -1 25 24 21 2 0.92433119D-01 0.59884631D-02 0.20724740D+05 0.20724740D+05 0.20724740D+05 0.12321278D+01  1  2 12  2  5  2       -1 0.372397012767D+00 0.100000000000D+01
-.346099767359D-03 0.000000000000D+00 0.000000000000D+00 0.266447280342D-02 0.000000000000D+00  5 2 -1 25 24 21 2 0.92433119D-01 0.39817305D-02 0.15307248D+05 0.15307248D+05 0.15307248D+05 0.12468199D+01  1  2  4  2  5  2       -1 -.721034704173D+00 0.100000000000D+01
-.419728915901D-03 0.000000000000D+00 -.875167933223D-04 0.266447280342D-02 0.000000000000D+00  5 2 -1 25 24 21 2 0.92433119D-01 0.62567443D-02 0.15307248D+05 0.15307248D+05 0.15307248D+05 0.12468199D+01  1  2  5  2  5  2       -1 -.448786672662D+00 0.100000000000D+01
0.423522904605D-03 0.000000000000D+00 0.792813179253D-04 0.266447280342D-02 0.000000000000D+00  5 2 -1 25 24 21 2 0.92433119D-01 0.39817305D-02 0.15307248D+05 0.15307248D+05 0.15307248D+05 0.12468199D+01  1  2  6  2  5  2       -1 0.882331457668D+00 0.100000000000D+01
0.160025849141D-04 0.000000000000D+00 0.000000000000D+00 0.266447280342D-02 0.000000000000D+00  5 2 21 25 24 1 2 0.92433119D-01 0.59884631D-02 0.20724740D+05 0.20724740D+05 0.20724740D+05 0.12321278D+01  1  2 12  4  5  2       -1 0.302731546359D+00 0.100000000000D+01
-.183813572809D-04 0.000000000000D+00 -.456272183334D-05 0.266447280342D-02 0.000000000000D+00  5 2 21 25 24 1 2 0.92433119D-01 0.62567443D-02 0.15307248D+05 0.15307248D+05 0.15307248D+05 0.12468199D+01  1  2  5  4  5  2       -1 -.329215519584D+00 0.100000000000D+01
  </mgrwgt>
  </event>
  <event>
  4     66 0.48098993E-03 0.11074559E+03 0.75467711E-02 0.12148356E+00
        2 -1    0    0  501    0 0.00000000E+00 0.00000000E+00 0.20961024E+04 0.20961024E+04 0.32000000E+00 0.0000E+00 0.9000E+01
       -1 -1    0    0    0  501 0.00000000E+00 0.00000000E+00 -.58486742E+01 0.58574218E+01 0.32000000E+00 0.0000E+00 0.9000E+01
       25  1    1    2    0    0 -.35714257E+02 -.19244283E+02 0.12589278E+04 0.12657685E+04 0.12500000E+03 0.0000E+00 0.9000E+01
       24  1    1    2    0    0 0.35714257E+02 0.19244283E+02 0.83132597E+03 0.83619133E+03 0.80419002E+02 0.0000E+00 0.9000E+01
#aMCatNLO 1  0  0  1  1 0.50579922D+02 0.00000000D+00  -5  5  0 0.00000000D+00 0.00000000D+00 0.00000000D+00 0.00000000D+00 0.00000000D+00
  <mgrwgt>
 0.5628121006D+00    7    2    0
 0.110763889525105D+03 0.000000000000000D+00 0.000000000000000D+00 0.110763889525105D+03
 0.110763889525105D+03 0.000000000000000D+00 0.000000000000000D+00 -.110763889525105D+03
 0.131433496029746D+03 -.357142569904320D+02 -.192442827243413D+02 0.197820844406195D+01
 0.900942830204653D+02 0.357142569904320D+02 0.192442827243413D+02 -.197820844406195D+01
 0.000000000000000D+00 0.000000000000000D+00 -.000000000000000D+00 0.000000000000000D+00
 0.139406325371479D+03 0.000000000000000D+00 0.000000000000000D+00 0.139406325371479D+03
 0.138412074879608D+03 0.000000000000000D+00 0.000000000000000D+00 -.138412074879608D+03
 0.139359747780855D+03 -.615111939584568D+02 -.293240698071533D+01 0.197820844406195D+01
 0.878689594625153D+02 0.187607079123400D+02 0.299643223289687D+02 -.197820844406195D+01
 0.505896930077160D+02 0.427504860461168D+02 -.270319153482534D+02 0.994250491870867D+00
0.228869010480D-03 0.000000000000D+00 0.000000000000D+00 0.299025354485D-02 0.000000000000D+00  5 2 -1 25 24 21 0 0.32247797D+00 0.90047080D-03 0.12264585D+05 0.12264585D+05 0.12264585D+05 0.12579156D+01  1  2  2  1  5  1        2 0.365062024445D+00 0.100000000000D+01
-.127149446044D-04 0.000000000000D+00 -.878917262839D-06 0.299025354485D-02 0.000000000000D+00  5 2 -1 25 24 21 2 0.32247797D+00 0.90047080D-03 0.12264585D+05 0.12264585D+05 0.12264585D+05 0.12579156D+01  1  2  3  1  5  1        2 -.320920245976D-01 0.100000000000D+01
0.158554118544D-04 0.000000000000D+00 0.000000000000D+00 0.299025354485D-02 0.000000000000D+00  5 2 -1 25 24 21 2 0.32247797D+00 0.90047080D-03 0.12264585D+05 0.12264585D+05 0.12264585D+05 0.12579156D+01  1  2 15  1  5  1        2 0.400184415322D-01 0.100000000000D+01
-.886460071547D-04 0.000000000000D+00 0.000000000000D+00 0.299025354485D-02 0.000000000000D+00  5 2 -1 25 24 21 2 0.32247797D+00 0.90047080D-03 0.12264585D+05 0.12264585D+05 0.12264585D+05 0.12579156D+01  1  2  4  1  5  1        2 -.223739066948D+00 0.100000000000D+01
-.229811565018D-03 0.000000000000D+00 -.910975200320D-04 0.299025354485D-02 0.000000000000D+00  5 2 -1 25 24 21 2 0.44554292D+00 0.90047080D-03 0.12264585D+05 0.12264585D+05 0.12264585D+05 0.12579156D+01  1  2  5  1  5  1        2 -.217910296264D+00 0.100000000000D+01
0.250612092419D-03 0.000000000000D+00 0.865366343600D-04 0.299025354485D-02 0.000000000000D+00  5 2 -1 25 24 21 2 0.32247797D+00 0.90047080D-03 0.12264585D+05 0.12264585D+05 0.12264585D+05 0.12579156D+01  1  2  6  1  5  1        2 0.632535153284D+00 0.100000000000D+01
-.708516811687D-05 0.000000000000D+00 -.371623576983D-05 0.299025354485D-02 0.000000000000D+00  5 21 -1 25 24 -2 2 0.44554292D+00 0.90047080D-03 0.12264585D+05 0.12264585D+05 0.12264585D+05 0.12579156D+01  1  2  5  3  5  1        2 -.106213083246D-02 0.100000000000D+01
  </mgrwgt>
  </event>
  <event>
  4     66 0.48098993E-03 0.61335771E+02 0.75467711E-02 0.12058359E+00
        2 -1    0    0  501    0 0.00000000E+00 0.00000000E+00 0.68639307E+03 0.68639314E+03 0.32000000E+00 0.0000E+00 0.9000E+01
       -1 -1    0    0    0  501 0.00000000E+00 0.00000000E+00 -.21338520E+02 0.21340919E+02 0.32000000E+00 0.0000E+00 0.9000E+01
       25  1    1    2    0    0 -.54362884E+02 -.25509105E+02 0.43945158E+03 0.46081311E+03 0.12500000E+03 0.0000E+00 0.9000E+01
       24  1    1    2    0    0 0.54362884E+02 0.25509105E+02 0.22560297E+03 0.24692095E+03 0.80419002E+02 0.0000E+00 0.9000E+01
#aMCatNLO 1  0  0  1  2 0.47697080D+02 0.00000000D+00  -5  5  0 0.00000000D+00 0.00000000D+00 0.00000000D+00 0.00000000D+00 0.00000000D+00
  <mgrwgt>
 0.4399071379D+00    9    2    0
 0.121026804314247D+03 0.000000000000000D+00 0.000000000000000D+00 0.121026804314247D+03
 0.121026804314247D+03 0.000000000000000D+00 0.000000000000000D+00 -.121026804314247D+03
 0.139943655208391D+03 -.543628843111744D+02 -.255091047784126D+02 0.187933237044141D+02
 0.102109953420103D+03 0.543628843111744D+02 0.255091047784126D+02 -.187933237044141D+02
 0.000000000000000D+00 0.000000000000000D+00 -.000000000000000D+00 0.000000000000000D+00
 0.156054960689988D+03 0.000000000000000D+00 0.000000000000000D+00 0.156054960689988D+03
 0.140746734652888D+03 0.000000000000000D+00 0.000000000000000D+00 -.140746734652888D+03
 0.144484581156199D+03 -.699370185214698D+02 -.253349883576874D+01 0.187933237044141D+02
 0.102223669372657D+03 0.431744056083388D+02 0.420148106046845D+02 -.187933237044141D+02
 0.500934448140210D+02 0.267626129131310D+02 -.394813117689158D+02 0.153082260371002D+02
0.197703912256D-03 0.000000000000D+00 0.000000000000D+00 0.270628352366D-02 0.000000000000D+00  5 2 -1 25 24 21 0 0.10559912D+00 0.32830395D-02 0.14285224D+05 0.14285224D+05 0.14285224D+05 0.12502471D+01  1  2  2  1  5  1        2 0.300362859023D+00 0.100000000000D+01
-.109814568518D-04 0.000000000000D+00 -.759235079698D-06 0.270628352366D-02 0.000000000000D+00  5 2 -1 25 24 21 2 0.10559912D+00 0.32830395D-02 0.14285224D+05 0.14285224D+05 0.14285224D+05 0.12502471D+01  1  2  3  1  5  1        2 -.260785019969D-01 0.100000000000D+01
0.136837333886D-04 0.000000000000D+00 0.000000000000D+00 0.270628352366D-02 0.000000000000D+00  5 2 -1 25 24 21 2 0.10559912D+00 0.32830395D-02 0.14285224D+05 0.14285224D+05 0.14285224D+05 0.12502471D+01  1  2 15  1  5  1        2 0.324958039099D-01 0.100000000000D+01
0.114189991375D-03 0.000000000000D+00 0.000000000000D+00 0.270628352366D-02 0.000000000000D+00  5 2 -1 25 24 21 2 0.14274944D+00 0.32830395D-02 0.21233663D+05 0.21233663D+05 0.21233663D+05 0.12309745D+01  1  2 12  1  5  1        2 0.183042116054D+00 0.100000000000D+01
-.132423235190D-03 0.000000000000D+00 0.000000000000D+00 0.270628352366D-02 0.000000000000D+00  5 2 -1 25 24 21 2 0.10559912D+00 0.32830395D-02 0.14285224D+05 0.14285224D+05 0.14285224D+05 0.12502471D+01  1  2  4  1  5  1        2 -.314475542723D+00 0.100000000000D+01
-.247951014090D-03 0.000000000000D+00 -.957297122111D-04 0.270628352366D-02 0.000000000000D+00  5 2 -1 25 24 21 2 0.15162913D+00 0.32830395D-02 0.14285224D+05 0.14285224D+05 0.14285224D+05 0.12502471D+01  1  2  5  1  5  1        2 -.373892479815D+00 0.100000000000D+01
0.270620639076D-03 0.000000000000D+00 0.897890806547D-04 0.270628352366D-02 0.000000000000D+00  5 2 -1 25 24 21 2 0.10559912D+00 0.32830395D-02 0.14285224D+05 0.14285224D+05 0.14285224D+05 0.12502471D+01  1  2  6  1  5  1        2 0.642663443639D+00 0.100000000000D+01
0.442934903703D-05 0.000000000000D+00 0.000000000000D+00 0.270628352366D-02 0.000000000000D+00  5 21 -1 25 24 -2 2 0.14274944D+00 0.32830395D-02 0.21233663D+05 0.21233663D+05 0.21233663D+05 0.12309745D+01  1  2 12  3  5  1        2 0.668730531238D-02 0.100000000000D+01
-.813045999096D-05 0.000000000000D+00 -.423554268479D-05 0.270628352366D-02 0.000000000000D+00  5 21 -1 25 24 -2 2 0.15162913D+00 0.32830395D-02 0.14285224D+05 0.14285224D+05 0.14285224D+05 0.12502471D+01  1  2  5  3  5  1        2 -.108978654904D-01 0.100000000000D+01
  </mgrwgt>
  </event>
  <event>
  4     66 0.48098993E-03 0.53158033E+02 0.75467711E-02 0.11729721E+00
        2 -1    0    0  501    0 0.00000000E+00 0.00000000E+00 0.29373839E+04 0.29373839E+04 0.32000000E+00 0.0000E+00 0.9000E+01
       -1 -1    0    0    0  501 0.00000000E+00 0.00000000E+00 -.18836950E+02 0.18839668E+02 0.32000000E+00 0.0000E+00 0.9000E+01
       25  1    1    2    0    0 -.51283029E+02 0.71497612E+02 0.27224573E+04 0.27267454E+04 0.12500000E+03 0.0000E+00 0.9000E+01
       24  1    1    2    0    0 0.51283029E+02 -.71497612E+02 0.19608962E+03 0.22947813E+03 0.80419002E+02 0.0000E+00 0.9000E+01
#aMCatNLO 1  0  0  1  2 0.68178532D+02 0.00000000D+00  -5  5  0 0.00000000D+00 0.00000000D+00 0.00000000D+00 0.00000000D+00 0.00000000D+00
  <mgrwgt>
 0.2278005887D+00    9    2    0
 0.235234767604468D+03 0.000000000000000D+00 0.000000000000000D+00 0.235234767604468D+03
 0.235234767604468D+03 0.000000000000000D+00 0.000000000000000D+00 -.235234767604468D+03
 0.244967368081523D+03 -.512830294610046D+02 0.714976118720829D+02 0.191421403742318D+03
 0.225502167127412D+03 0.512830294610046D+02 -.714976118720829D+02 -.191421403742318D+03
 0.000000000000000D+00 0.000000000000000D+00 0.000000000000000D+00 0.000000000000000D+00
 0.301201228056407D+03 0.000000000000000D+00 0.000000000000000D+00 0.301201228056407D+03
 0.255989747903691D+03 0.000000000000000D+00 0.000000000000000D+00 -.255989747903691D+03
 0.243694688467668D+03 -.724132510772288D+02 0.433159144553208D+02 0.191421403742318D+03
 0.231689257225860D+03 0.315136285260470D+02 -.978643620831571D+02 -.191421403742318D+03
 0.818070302665693D+02 0.408996225511818D+02 0.545484476278362D+02 0.452114801527162D+02
0.166958095511D-02 0.000000000000D+00 0.000000000000D+00 0.752016167706D-03 0.000000000000D+00  5 2 -1 25 24 21 0 0.45190542D+00 0.28982027D-02 0.18504710D+05 0.18504710D+05 0.18504710D+05 0.12375588D+01  1  2  2  1  5  1        2 0.176652461888D+00 0.100000000000D+01
-.589252737358D-04 0.000000000000D+00 -.641163047838D-05 0.752016167706D-03 0.000000000000D+00  5 2 -1 25 24 21 2 0.45190542D+00 0.28982027D-02 0.18504710D+05 0.18504710D+05 0.18504710D+05 0.12375588D+01  1  2  3  1  5  1        2 -.954872708618D-02 0.100000000000D+01
0.113818065858D-03 0.000000000000D+00 0.000000000000D+00 0.752016167706D-03 0.000000000000D+00  5 2 -1 25 24 21 2 0.45190542D+00 0.28982027D-02 0.18504710D+05 0.18504710D+05 0.18504710D+05 0.12375588D+01  1  2 15  1  5  1        2 0.184439982957D-01 0.100000000000D+01
0.824040310275D-03 0.000000000000D+00 0.000000000000D+00 0.752016167706D-03 0.000000000000D+00  5 2 -1 25 24 21 2 0.59433414D+00 0.28982027D-02 0.30541333D+05 0.30541333D+05 0.30541333D+05 0.12140841D+01  1  2 12  1  5  1        2 0.323869142343D-01 0.100000000000D+01
-.133530593373D-02 0.000000000000D+00 0.000000000000D+00 0.752016167706D-03 0.000000000000D+00  5 2 -1 25 24 21 2 0.45190542D+00 0.28982027D-02 0.18504710D+05 0.18504710D+05 0.18504710D+05 0.12375588D+01  1  2  4  1  5  1        2 -.216383754022D+00 0.100000000000D+01
-.175131882902D-02 0.000000000000D+00 -.626074777204D-03 0.752016167706D-03 0.000000000000D+00  5 2 -1 25 24 21 2 0.58941834D+00 0.28982027D-02 0.18504710D+05 0.18504710D+05 0.18504710D+05 0.12375588D+01  1  2  5  1  5  1        2 -.771439970846D-01 0.100000000000D+01
0.187263358546D-02 0.000000000000D+00 0.604613114769D-03 0.752016167706D-03 0.000000000000D+00  5 2 -1 25 24 21 2 0.45190542D+00 0.28982027D-02 0.18504710D+05 0.18504710D+05 0.18504710D+05 0.12375588D+01  1  2  6  1  5  1        2 0.303456664794D+00 0.100000000000D+01
0.298238981421D-04 0.000000000000D+00 0.000000000000D+00 0.752016167706D-03 0.000000000000D+00  5 21 -1 25 24 -2 2 0.59433414D+00 0.28982027D-02 0.30541333D+05 0.30541333D+05 0.30541333D+05 0.12140841D+01  1  2 12  3  5  1        2 0.595085427581D-04 0.100000000000D+01
-.503941997416D-04 0.000000000000D+00 -.221555313749D-04 0.752016167706D-03 0.000000000000D+00  5 21 -1 25 24 -2 2 0.58941834D+00 0.28982027D-02 0.18504710D+05 0.18504710D+05 0.18504710D+05 0.12375588D+01  1  2  5  3  5  1        2 -.122480822368D-03 0.100000000000D+01
  </mgrwgt>
  </event>
  <event>
  4     66 0.48098993E-03 0.38315572E+02 0.75467711E-02 0.12195964E+00
        2 -1    0    0  501    0 0.00000000E+00 0.00000000E+00 0.85723993E+03 0.85723999E+03 0.32000000E+00 0.0000E+00 0.9000E+01
       -1 -1    0    0    0  501 0.00000000E+00 0.00000000E+00 -.19465693E+02 0.19468323E+02 0.32000000E+00 0.0000E+00 0.9000E+01
       25  1    1    2    0    0 0.43351513E+02 -.51688402E+02 0.34916735E+03 0.37695342E+03 0.12500000E+03 0.0000E+00 0.9000E+01
       24  1    1    2    0    0 -.43351513E+02 0.51688402E+02 0.48860688E+03 0.49975489E+03 0.80419002E+02 0.0000E+00 0.9000E+01
#aMCatNLO 1  0  0  1  2 0.22710026D+02 0.00000000D+00  -5  5  0 0.00000000D+00 0.00000000D+00 0.00000000D+00 0.00000000D+00 0.00000000D+00
  <mgrwgt>
 0.4446204613D+00    9    2    0
 0.129181842440490D+03 0.000000000000000D+00 0.000000000000000D+00 0.129181842440490D+03
 0.129181842440490D+03 0.000000000000000D+00 0.000000000000000D+00 -.129181842440490D+03
 0.146904503521610D+03 0.433515125084816D+02 -.516884016869581D+02 -.374818442609916D+02
 0.111459181359371D+03 -.433515125084816D+02 0.516884016869581D+02 0.374818442609916D+02
 0.000000000000000D+00 0.000000000000000D+00 -.000000000000000D+00 0.000000000000000D+00
 0.177932577883423D+03 0.000000000000000D+00 0.000000000000000D+00 0.177932577883423D+03
 0.132352040794174D+03 0.000000000000000D+00 0.000000000000000D+00 -.132352040794174D+03
 0.142131859689420D+03 0.317889529335506D+02 -.464869805532282D+02 -.374818442609916D+02
 0.117228004131404D+03 -.524998742470694D+02 0.558037951496016D+02 0.374818442609916D+02
 0.509247548567722D+02 0.207109213135188D+02 -.931681459637332D+01 0.455805370892488D+02
0.243659081165D-03 0.000000000000D+00 0.000000000000D+00 0.243660853741D-02 0.000000000000D+00  5 2 -1 25 24 21 0 0.13188327D+00 0.29949289D-02 0.15253523D+05 0.15253523D+05 0.15253523D+05 0.12469936D+01  1  2  2  1  5  1        2 0.323331536381D+00 0.100000000000D+01
-.135033785882D-04 0.000000000000D+00 -.935715028582D-06 0.243660853741D-02 0.000000000000D+00  5 2 -1 25 24 21 2 0.13188327D+00 0.29949289D-02 0.15253523D+05 0.15253523D+05 0.15253523D+05 0.12469936D+01  1  2  3  1  5  1        2 -.278635435058D-01 0.100000000000D+01
0.168189559149D-04 0.000000000000D+00 0.000000000000D+00 0.243660853741D-02 0.000000000000D+00  5 2 -1 25 24 21 2 0.13188327D+00 0.29949289D-02 0.15253523D+05 0.15253523D+05 0.15253523D+05 0.12469936D+01  1  2 15  1  5  1        2 0.347050707937D-01 0.100000000000D+01
0.894331400226D-03 0.000000000000D+00 0.000000000000D+00 0.243660853741D-02 0.000000000000D+00  5 2 -1 25 24 21 2 0.18281539D+00 0.29949289D-02 0.18344672D+05 0.18344672D+05 0.18344672D+05 0.12379782D+01  1  2 12  1  5  1        2 0.116322512696D+01 0.100000000000D+01
-.881293908909D-03 0.000000000000D+00 0.000000000000D+00 0.243660853741D-02 0.000000000000D+00  5 2 -1 25 24 21 2 0.13188327D+00 0.29949289D-02 0.15253523D+05 0.15253523D+05 0.15253523D+05 0.12469936D+01  1  2  4  1  5  1        2 -.181850571780D+01 0.100000000000D+01
-.105083761445D-02 0.000000000000D+00 -.122352681447D-03 0.243660853741D-02 0.000000000000D+00  5 2 -1 25 24 21 2 0.18346197D+00 0.29949289D-02 0.15253523D+05 0.15253523D+05 0.15253523D+05 0.12469936D+01  1  2  5  1  5  1        2 -.137349605831D+01 0.100000000000D+01
0.104040352398D-02 0.000000000000D+00 0.115976717593D-03 0.243660853741D-02 0.000000000000D+00  5 2 -1 25 24 21 2 0.13188327D+00 0.29949289D-02 0.15253523D+05 0.15253523D+05 0.15253523D+05 0.12469936D+01  1  2  6  1  5  1        2 0.214682041718D+01 0.100000000000D+01
0.367513511837D-04 0.000000000000D+00 0.000000000000D+00 0.243660853741D-02 0.000000000000D+00  5 21 -1 25 24 -2 2 0.18281539D+00 0.29949289D-02 0.18344672D+05 0.18344672D+05 0.18344672D+05 0.12379782D+01  1  2 12  3  5  1        2 0.332356713545D-01 0.100000000000D+01
-.403450184567D-04 0.000000000000D+00 -.506701431551D-05 0.243660853741D-02 0.000000000000D+00  5 21 -1 25 24 -2 2 0.18346197D+00 0.29949289D-02 0.15253523D+05 0.15253523D+05 0.15253523D+05 0.12469936D+01  1  2  5  3  5  1        2 -.368320417368D-01 0.100000000000D+01
  </mgrwgt>
  </event>
  <event>
  5     66 0.48098993E-03 0.12660765E+03 0.75467711E-02 0.12228347E+00
        2 -1    0    0  501    0 0.00000000E+00 0.00000000E+00 0.39310802E+04 0.39310802E+04 0.32000000E+00 0.0000E+00 0.9000E+01
       21 -1    0    0  502  501 0.00000000E+00 0.00000000E+00 -.53500083E+01 0.54023226E+01 0.75000000E+00 0.0000E+00 0.9000E+01
       25  1    1    2    0    0 0.12321655E+02 -.76302150E+02 0.28406436E+04 0.28444428E+04 0.12500000E+03 0.0000E+00 0.9000E+01
       24  1    1    2    0    0 -.20811846E+02 0.66597879E+02 0.85691484E+03 0.86350372E+03 0.80419002E+02 0.0000E+00 0.9000E+01
        1  1    1    2  502    0 0.84901906E+01 0.97042706E+01 0.22817177E+03 0.22853603E+03 0.32000000E+00 0.0000E+00 0.9000E+01
#aMCatNLO 2  0  0  2  2 0.12894038D+02 0.00000000D+00  -5  5  0 0.00000000D+00 0.00000000D+00 0.00000000D+00 0.00000000D+00 0.00000000D+00
  <mgrwgt>
 0.1060649577D+00    1    2    0
 0.138530483860227D+03 0.000000000000000D+00 0.000000000000000D+00 0.138530483860227D+03
 0.138530483860227D+03 0.000000000000000D+00 0.000000000000000D+00 -.138530483860227D+03
 0.155057142452695D+03 0.171031583658924D+02 -.708369016672749D+02 0.557434548775662D+02
 0.122003825267759D+03 -.171031583658924D+02 0.708369016672749D+02 -.557434548775662D+02
 0.000000000000000D+00 0.000000000000000D+00 0.000000000000000D+00 0.000000000000000D+00
 0.147231095510496D+03 0.000000000000000D+00 0.000000000000000D+00 0.147231095510496D+03
 0.143541329156096D+03 0.000000000000000D+00 0.000000000000000D+00 -.143541329156096D+03
 0.157181977512086D+03 0.123216551683639D+02 -.763021500800250D+02 0.557434548775662D+02
 0.120178863341171D+03 -.208118457978204D+02 0.665978794888087D+02 -.557434548775662D+02
 0.134115838133354D+02 0.849019062945649D+01 0.970427059121637D+01 0.368976635440005D+01
0.195257632999D-04 0.000000000000D+00 0.000000000000D+00 0.215027008132D-02 0.707290572911D-06  5 2 21 25 24 1 2 0.60477763D+00 0.82709248D-03 0.17732701D+05 0.17732701D+05 0.17732701D+05 0.12396207D+01  1  2  1  4  5  2       -1 0.106064957730D+00 0.100000000000D+01
  </mgrwgt>
  </event>
  <event>
  4     66 0.48098993E-03 0.34658462E+03 0.75467711E-02 0.10012438E+00
        2 -1    0    0  501    0 0.00000000E+00 0.00000000E+00 0.30503244E+03 0.30503260E+03 0.32000000E+00 0.0000E+00 0.9000E+01
       -1 -1    0    0    0  501 0.00000000E+00 0.00000000E+00 -.46361408E+03 0.46361419E+03 0.32000000E+00 0.0000E+00 0.9000E+01
       25  1    1    2    0    0 -.24496908E+03 0.22160456E+03 -.22969343E+03 0.42131046E+03 0.12500000E+03 0.0000E+00 0.9000E+01
       24  1    1    2    0    0 0.24496908E+03 -.22160456E+03 0.71111787E+02 0.34733634E+03 0.80419002E+02 0.0000E+00 0.9000E+01
#aMCatNLO 1  0  0  2  1 0.33482617D+03 0.00000000D+00  -5  5  0 0.00000000D+00 0.00000000D+00 0.00000000D+00 0.00000000D+00 0.00000000D+00
  <mgrwgt>
 0.5001031831D+00    3    2    0
 0.376055101806298D+03 0.000000000000000D+00 0.000000000000000D+00 0.376055101806298D+03
 0.376055101806298D+03 0.000000000000000D+00 0.000000000000000D+00 -.376055101806298D+03
 0.382143161775197D+03 -.244969078933130D+03 0.221604556805688D+03 -.145910818177245D+03
 0.369967041837398D+03 0.244969078933130D+03 -.221604556805688D+03 0.145910818177245D+03
 0.000000000000000D+00 0.000000000000000D+00 0.000000000000000D+00 0.000000000000000D+00
 0.150506652033221D+04 0.000000000000000D+00 0.000000000000000D+00 0.150506652033221D+04
 0.437268779836115D+03 0.000000000000000D+00 0.000000000000000D+00 -.437268779836115D+03
 0.332230841301946D+03 -.261657626002041D+03 0.706940719298394D+02 -.145910818177245D+03
 0.491042092514485D+03 0.224854977071221D+03 -.403491503122162D+03 0.145910818177245D+03
 0.111906236635189D+04 0.368026489308205D+02 0.332797431192322D+03 0.106779774049610D+04
0.194477778970D-01 0.000000000000D+00 0.000000000000D+00 0.167507266597D-02 0.000000000000D+00  5 2 -1 25 24 21 0 0.46928088D-01 0.71325265D-01 0.12012090D+06 0.12012090D+06 0.12012090D+06 0.11563278D+01  1  2  2  2  5  2       -1 0.491229728975D+00 0.100000000000D+01
-.107168324381D-02 0.000000000000D+00 -.746845878419D-04 0.167507266597D-02 0.000000000000D+00  5 2 -1 25 24 21 2 0.46928088D-01 0.71325265D-01 0.12012090D+06 0.12012090D+06 0.12012090D+06 0.11563278D+01  1  2  3  2  5  2       -1 -.361945386693D-01 0.100000000000D+01
0.133441713930D-02 0.000000000000D+00 0.000000000000D+00 0.167507266597D-02 0.000000000000D+00  5 2 -1 25 24 21 2 0.46928088D-01 0.71325265D-01 0.12012090D+06 0.12012090D+06 0.12012090D+06 0.11563278D+01  1  2 15  2  5  2       -1 0.450679928313D-01 0.100000000000D+01
  </mgrwgt>
  </event>
  <event>
  4     66 0.48098993E-03 0.21892464E+03 0.75467711E-02 0.10590134E+00
        2 -1    0    0  501    0 0.00000000E+00 0.00000000E+00 0.32268871E+04 0.32268872E+04 0.32000000E+00 0.0000E+00 0.9000E+01
       -1 -1    0    0    0  501 0.00000000E+00 0.00000000E+00 -.15645043E+02 0.15648315E+02 0.32000000E+00 0.0000E+00 0.9000E+01
       25  1    1    2    0    0 -.12257364E+03 0.14821253E+03 0.20432487E+04 0.20560840E+04 0.12500000E+03 0.0000E+00 0.9000E+01
       24  1    1    2    0    0 0.12257364E+03 -.14821253E+03 0.11679934E+04 0.11864514E+04 0.80419002E+02 0.0000E+00 0.9000E+01
#aMCatNLO 1  0  0  1  1 0.22600859D+03 0.00000000D+00  -5  5  0 0.00000000D+00 0.00000000D+00 0.00000000D+00 0.00000000D+00 0.00000000D+00
  <mgrwgt>
 0.5796170034D+00    6    2    0
 0.224700065883400D+03 0.000000000000000D+00 0.000000000000000D+00 0.224700065883400D+03
 0.224700065883400D+03 0.000000000000000D+00 0.000000000000000D+00 -.224700065883400D+03
 0.234888963703285D+03 -.122573640527197D+03 0.148212533379158D+03 0.505625638871760D+02
 0.214511168063515D+03 0.122573640527197D+03 -.148212533379158D+03 -.505625638871760D+02
 0.000000000000000D+00 -.000000000000000D+00 -.000000000000000D+00 0.000000000000000D+00
 0.391360556004900D+03 0.000000000000000D+00 0.000000000000000D+00 0.391360556004900D+03
 0.342830782380885D+03 0.000000000000000D+00 0.000000000000000D+00 -.342830782380885D+03
 0.322222414108439D+03 -.937458681512628D+02 0.277231714440451D+03 0.505625638871760D+02
 0.180808759269832D+03 0.143029501481966D+03 -.566619829630164D+02 -.505625638871760D+02
 0.231160165007514D+03 -.492836333307029D+02 -.220569731477435D+03 0.485297736240159D+02
0.414294293841D-02 0.000000000000D+00 0.000000000000D+00 0.200164731567D-02 0.000000000000D+00  5 2 -1 25 24 21 0 0.49644443D+00 0.24071827D-02 0.47927997D+05 0.47927997D+05 0.47927997D+05 0.11941064D+01  1  2  2  1  5  1        2 0.377985574937D+00 0.100000000000D+01
-.229973754389D-03 0.000000000000D+00 -.159099917454D-04 0.200164731567D-02 0.000000000000D+00  5 2 -1 25 24 21 2 0.49644443D+00 0.24071827D-02 0.47927997D+05 0.47927997D+05 0.47927997D+05 0.11941064D+01  1  2  3  1  5  1        2 -.299178657181D-01 0.100000000000D+01
0.284549202485D-03 0.000000000000D+00 0.000000000000D+00 0.200164731567D-02 0.000000000000D+00  5 2 -1 25 24 21 2 0.49644443D+00 0.24071827D-02 0.47927997D+05 0.47927997D+05 0.47927997D+05 0.11941064D+01  1  2 15  1  5  1        2 0.370177234039D-01 0.100000000000D+01
-.113332541589D-02 0.000000000000D+00 -.854870417758D-03 0.200164731567D-02 0.000000000000D+00  5 2 -1 25 24 21 2 0.88976120D+00 0.24071827D-02 0.47927997D+05 0.47927997D+05 0.47927997D+05 0.11941064D+01  1  2  5  1  5  1        2 -.258548962110D-03 0.100000000000D+01
0.149732009169D-02 0.000000000000D+00 0.727481217671D-03 0.200164731567D-02 0.000000000000D+00  5 2 -1 25 24 21 2 0.49644443D+00 0.24071827D-02 0.47927997D+05 0.47927997D+05 0.47927997D+05 0.11941064D+01  1  2  6  1  5  1        2 0.194790147073D+00 0.100000000000D+01
-.274485408597D-04 0.000000000000D+00 -.547596075809D-04 0.200164731567D-02 0.000000000000D+00  5 21 -1 25 24 -2 2 0.88976120D+00 0.24071827D-02 0.47927997D+05 0.47927997D+05 0.47927997D+05 0.11941064D+01  1  2  5  3  5  1        2 -.273485249166D-07 0.100000000000D+01
  </mgrwgt>
  </event>
  <event>
  5     66 -.48098993E-03 0.11887052E+03 0.75467711E-02 0.12368348E+00
        2 -1    0    0  502    0 0.00000000E+00 0.00000000E+00 0.53298140E+03 0.53298149E+03 0.32000000E+00 0.0000E+00 0.9000E+01
       -1 -1    0    0    0  501 0.00000000E+00 0.00000000E+00 -.29762194E+02 0.29763914E+02 0.32000000E+00 0.0000E+00 0.9000E+01
       25  1    1    2    0    0 -.54058074E+02 0.10228121E+02 0.32690927E+03 0.35429022E+03 0.12500000E+03 0.0000E+00 0.9000E+01
       24  1    1    2    0    0 0.61614550E+02 -.39974599E+01 0.16034172E+03 0.18970771E+03 0.80419002E+02 0.0000E+00 0.9000E+01
       21  1    1    2  502  501 -.75564757E+01 -.62306610E+01 0.15968209E+02 0.18747471E+02 0.75000000E+00 0.0000E+00 0.9000E+01
#aMCatNLO 2  0  0  1  2 0.97939502D+01 0.00000000D+00  -5  5  0 0.00000000D+00 0.00000000D+00 0.00000000D+00 0.00000000D+00 0.00000000D+00
  <mgrwgt>
 -.3160260253D+00    3    2    0
 0.120855596804631D+03 0.000000000000000D+00 0.000000000000000D+00 0.120855596804631D+03
 0.120855596804631D+03 0.000000000000000D+00 0.000000000000000D+00 -.120855596804631D+03
 0.139799245853077D+03 -.584026850009619D+02 0.664578979456242D+01 0.215357610446864D+02
 0.101911947756185D+03 0.584026850009619D+02 -.664578979456242D+01 -.215357610446864D+02
 0.000000000000000D+00 -.000000000000000D+00 -.000000000000000D+00 -.000000000000000D+00
 0.125012550919814D+03 0.000000000000000D+00 0.000000000000000D+00 0.125012550919814D+03
 0.126864486476004D+03 0.000000000000000D+00 0.000000000000000D+00 -.126864486476004D+03
 0.138259462017924D+03 -.540580741256614D+02 0.102281208213690D+02 0.215357610446864D+02
 0.103650071852168D+03 0.616145498361877D+02 -.399745985584439D+01 -.215357610446864D+02
 0.996750352572621D+01 -.755647571052630D+01 -.623066096552457D+01 -.185193555618951D+01
-.408078105763D-03 0.000000000000D+00 0.000000000000D+00 0.269107380211D-02 0.000000000000D+00  5 2 -1 25 24 21 2 0.83878652D-01 0.43615704D-02 0.15345509D+05 0.15345509D+05 0.15345509D+05 0.12466966D+01  1  2 13  1  5  1        2 -.829327229495D+00 0.100000000000D+01
-.187164157825D-04 0.000000000000D+00 0.000000000000D+00 0.269107380211D-02 0.000000000000D+00  5 2 -1 25 24 21 2 0.79261801D-01 0.43615704D-02 0.14130201D+05 0.14130201D+05 0.14130201D+05 0.12507909D+01  1  2  8  1  5  1        2 -.406270313864D-01 0.100000000000D+01
0.285415997937D-03 0.000000000000D+00 0.000000000000D+00 0.269107380211D-02 0.232951210232D-03  5 2 -1 25 24 21 2 0.81988093D-01 0.45784258D-02 0.15345509D+05 0.15345509D+05 0.15345509D+05 0.12466966D+01  1  2  1  1  5  1        2 0.553928235577D+00 0.100000000000D+01
  </mgrwgt>
  </event>
  <event>
  4     66 0.48098993E-03 0.86575110E+02 0.75467711E-02 0.11187699E+00
        2 -1    0    0  501    0 0.00000000E+00 0.00000000E+00 0.13786865E+04 0.13786865E+04 0.32000000E+00 0.0000E+00 0.9000E+01
       -1 -1    0    0    0  501 0.00000000E+00 0.00000000E+00 -.36697910E+02 0.36699305E+02 0.32000000E+00 0.0000E+00 0.9000E+01
       25  1    1    2    0    0 -.14607208E+03 -.13492598E+03 0.73455508E+03 0.77119274E+03 0.12500000E+03 0.0000E+00 0.9000E+01
       24  1    1    2    0    0 0.14607208E+03 0.13492598E+03 0.60743351E+03 0.64419310E+03 0.80419002E+02 0.0000E+00 0.9000E+01
#aMCatNLO 1  0  0  1  2 0.32534029D+02 0.00000000D+00  -5  5  0 0.00000000D+00 0.00000000D+00 0.00000000D+00 0.00000000D+00 0.00000000D+00
  <mgrwgt>
 0.7878391911D+00    9    2    0
 0.224935383196473D+03 0.000000000000000D+00 0.000000000000000D+00 0.224935383196473D+03
 0.224935383196473D+03 0.000000000000000D+00 0.000000000000000D+00 -.224935383196473D+03
 0.235113621848271D+03 -.146072078124459D+03 -.134925979099814D+03 0.105519351291718D+02
 0.214757144544675D+03 0.146072078124459D+03 0.134925979099814D+03 -.105519351291718D+02
 0.000000000000000D+00 0.000000000000000D+00 -.000000000000000D+00 0.000000000000000D+00
 0.262213610804037D+03 0.000000000000000D+00 0.000000000000000D+00 0.262213610804037D+03
 0.232734868608835D+03 0.000000000000000D+00 0.000000000000000D+00 -.232734868608835D+03
 0.239467564566657D+03 -.160574651811306D+03 -.125794087063717D+03 0.105519351291718D+02
 0.211578075594035D+03 0.133043837388524D+03 0.143129522166708D+03 -.105519351291718D+02
 0.439028392521804D+02 0.275308144227812D+02 -.173354351029908D+02 0.294787421952018D+02
0.161357436726D-02 0.000000000000D+00 0.000000000000D+00 0.209922593899D-02 0.000000000000D+00  5 2 -1 25 24 21 0 0.21210573D+00 0.56459425D-02 0.50484354D+05 0.50484354D+05 0.50484354D+05 0.11918673D+01  1  2  2  1  5  1        2 0.426657014574D+00 0.100000000000D+01
-.896428876094D-04 0.000000000000D+00 -.619655043416D-05 0.209922593899D-02 0.000000000000D+00  5 2 -1 25 24 21 2 0.21210573D+00 0.56459425D-02 0.50484354D+05 0.50484354D+05 0.50484354D+05 0.11918673D+01  1  2  3  1  5  1        2 -.336714313476D-01 0.100000000000D+01
0.110756422835D-03 0.000000000000D+00 0.000000000000D+00 0.209922593899D-02 0.000000000000D+00  5 2 -1 25 24 21 2 0.21210573D+00 0.56459425D-02 0.50484354D+05 0.50484354D+05 0.50484354D+05 0.11918673D+01  1  2 15  1  5  1        2 0.416020432547D-01 0.100000000000D+01
0.380912934601D-02 0.000000000000D+00 0.000000000000D+00 0.209922593899D-02 0.000000000000D+00  5 2 -1 25 24 21 2 0.25051580D+00 0.56459425D-02 0.58342486D+05 0.58342486D+05 0.58342486D+05 0.11857014D+01  1  2 12  1  5  1        2 0.104173315851D+01 0.100000000000D+01
-.385666535063D-02 0.000000000000D+00 0.000000000000D+00 0.209922593899D-02 0.000000000000D+00  5 2 -1 25 24 21 2 0.21210573D+00 0.56459425D-02 0.50484354D+05 0.50484354D+05 0.50484354D+05 0.11918673D+01  1  2  4  1  5  1        2 -.144863073968D+01 0.100000000000D+01
-.719134542216D-02 0.000000000000D+00 -.128222686958D-02 0.209922593899D-02 0.000000000000D+00  5 2 -1 25 24 21 2 0.25101545D+00 0.56459425D-02 0.50484354D+05 0.50484354D+05 0.50484354D+05 0.11918673D+01  1  2  5  1  5  1        2 -.198084169211D+01 0.100000000000D+01
0.732119382870D-02 0.000000000000D+00 0.126425194165D-02 0.209922593899D-02 0.000000000000D+00  5 2 -1 25 24 21 2 0.21210573D+00 0.56459425D-02 0.50484354D+05 0.50484354D+05 0.50484354D+05 0.11918673D+01  1  2  6  1  5  1        2 0.274996803382D+01 0.100000000000D+01
0.944452261444D-04 0.000000000000D+00 0.000000000000D+00 0.209922593899D-02 0.000000000000D+00  5 21 -1 25 24 -2 2 0.25051580D+00 0.56459425D-02 0.58342486D+05 0.58342486D+05 0.58342486D+05 0.11857014D+01  1  2 12  3  5  1        2 0.110214086163D-01 0.100000000000D+01
-.169054983334D-03 0.000000000000D+00 -.320936370429D-04 0.209922593899D-02 0.000000000000D+00  5 21 -1 25 24 -2 2 0.25101545D+00 0.56459425D-02 0.50484354D+05 0.50484354D+05 0.50484354D+05 0.11918673D+01  1  2  5  3  5  1        2 -.199986045126D-01 0.100000000000D+01
  </mgrwgt>
  </event>
  <event>
  4     66 0.48098993E-03 0.55589054E+02 0.75467711E-02 0.12377237E+00
        4 -1    0    0  501    0 0.00000000E+00 0.00000000E+00 0.77835825E+02 0.77851257E+02 0.15500000E+01 0.0000E+00 0.9000E+01
       -3 -1    0    0    0  501 0.00000000E+00 0.00000000E+00 -.16090903E+03 0.16090980E+03 0.50000000E+00 0.0000E+00 0.9000E+01
       25  1    1    2    0    0 -.39732424E+02 0.97763037E+01 -.65110558E+02 0.14676044E+03 0.12500000E+03 0.0000E+00 0.9000E+01
       24  1    1    2    0    0 0.39732424E+02 -.97763037E+01 -.17962642E+02 0.92000620E+02 0.80419002E+02 0.0000E+00 0.9000E+01
#aMCatNLO 1  0  0  2  1 0.23602019D+02 0.00000000D+00  -5  5  0 0.00000000D+00 0.00000000D+00 0.00000000D+00 0.00000000D+00 0.00000000D+00
  <mgrwgt>
 0.6595030662D-01    9    2    0
 0.111921497865665D+03 0.000000000000000D+00 0.000000000000000D+00 0.111921497865665D+03
 0.111921497865665D+03 0.000000000000000D+00 0.000000000000000D+00 -.111921497865665D+03
 0.132377317838297D+03 -.397324242453066D+02 0.977630366221162D+01 -.149837454715640D+02
 0.914656778930324D+02 0.397324242453066D+02 -.977630366221162D+01 0.149837454715640D+02
 0.000000000000000D+00 -.000000000000000D+00 0.000000000000000D+00 -.000000000000000D+00
 0.124236582770427D+03 0.000000000000000D+00 0.000000000000000D+00 0.124236582770427D+03
 0.124450258861077D+03 0.000000000000000D+00 0.000000000000000D+00 -.124450258861077D+03
 0.129685564946125D+03 -.311109458159497D+02 -.970658269417070D+00 -.149837454715640D+02
 0.953982906103381D+02 0.458799704241416D+02 -.174394260951232D+02 0.149837454715640D+02
 0.236029860750411D+02 -.147690246081918D+02 0.184100843645403D+02 -.213676090650195D+00
0.306799872882D-03 0.000000000000D+00 0.000000000000D+00 0.291617519402D-02 0.000000000000D+00  5 4 -3 25 24 21 0 0.11975989D-01 0.24756482D-01 0.12293998D+05 0.12293998D+05 0.12293998D+05 0.12577940D+01  1  2  2  2  5  2       -3 0.488724143896D-01 0.100000000000D+01
-.170426200635D-04 0.000000000000D+00 -.117819229413D-05 0.291617519402D-02 0.000000000000D+00  5 4 -3 25 24 21 2 0.11975989D-01 0.24756482D-01 0.12293998D+05 0.12293998D+05 0.12293998D+05 0.12577940D+01  1  2  3  2  5  2       -3 -.429500832879D-02 0.100000000000D+01
0.212565279151D-04 0.000000000000D+00 0.000000000000D+00 0.291617519402D-02 0.000000000000D+00  5 4 -3 25 24 21 2 0.11975989D-01 0.24756482D-01 0.12293998D+05 0.12293998D+05 0.12293998D+05 0.12577940D+01  1  2 15  2  5  2       -3 0.535697939027D-02 0.100000000000D+01
0.241238324750D-03 0.000000000000D+00 0.000000000000D+00 0.291617519402D-02 0.000000000000D+00  5 4 -3 25 24 21 2 0.11975989D-01 0.28745684D-01 0.15206996D+05 0.15206996D+05 0.15206996D+05 0.12471445D+01  1  2 12  2  5  2       -3 0.465524896866D-01 0.100000000000D+01
-.196610477572D-03 0.000000000000D+00 0.000000000000D+00 0.291617519402D-02 0.000000000000D+00  5 4 -3 25 24 21 2 0.11975989D-01 0.24756482D-01 0.12293998D+05 0.12293998D+05 0.12293998D+05 0.12577940D+01  1  2  4  2  5  2       -3 -.495489329429D-01 0.100000000000D+01
-.682777544244D-03 0.000000000000D+00 -.198299775378D-03 0.291617519402D-02 0.000000000000D+00  5 4 -3 25 24 21 2 0.11975989D-01 0.30384840D-01 0.12293998D+05 0.12293998D+05 0.12293998D+05 0.12577940D+01  1  2  5  2  5  2       -3 -.118528052894D+00 0.100000000000D+01
0.712487399046D-03 0.000000000000D+00 0.194210370962D-03 0.291617519402D-02 0.000000000000D+00  5 4 -3 25 24 21 2 0.11975989D-01 0.24756482D-01 0.12293998D+05 0.12293998D+05 0.12293998D+05 0.12577940D+01  1  2  6  2  5  2       -3 0.179558031668D+00 0.100000000000D+01
0.548505656312D-05 0.000000000000D+00 0.000000000000D+00 0.291617519402D-02 0.000000000000D+00  5 4 21 25 24 3 2 0.11975989D-01 0.28745684D-01 0.15206996D+05 0.15206996D+05 0.15206996D+05 0.12471445D+01  1  2 12  4  5  2       -3 0.222482659988D-01 0.100000000000D+01
-.175212360226D-04 0.000000000000D+00 -.577985812325D-05 0.291617519402D-02 0.000000000000D+00  5 4 21 25 24 3 2 0.11975989D-01 0.30384840D-01 0.12293998D+05 0.12293998D+05 0.12293998D+05 0.12577940D+01  1  2  5  4  5  2       -3 -.642658803431D-01 0.100000000000D+01
  </mgrwgt>
  </event>
  <event>
  4     66 0.48098993E-03 0.25601436E+03 0.75467711E-02 0.10411143E+00
        2 -1    0    0  501    0 0.00000000E+00 0.00000000E+00 0.41591149E+03 0.41591161E+03 0.32000000E+00 0.0000E+00 0.9000E+01
       -1 -1    0    0    0  501 0.00000000E+00 0.00000000E+00 -.19236062E+03 0.19236089E+03 0.32000000E+00 0.0000E+00 0.9000E+01
       25  1    1    2    0    0 0.22869300E+03 0.47715075E+02 0.24421573E+03 0.36033809E+03 0.12500000E+03 0.0000E+00 0.9000E+01
       24  1    1    2    0    0 -.22869300E+03 -.47715075E+02 -.20664859E+02 0.24793441E+03 0.80419002E+02 0.0000E+00 0.9000E+01
#aMCatNLO 1  0  0  2  1 0.24721958D+03 0.00000000D+00  -5  5  0 0.00000000D+00 0.00000000D+00 0.00000000D+00 0.00000000D+00 0.00000000D+00
  <mgrwgt>
 0.3517806458D+00    5    2    0
 0.282851745911392D+03 0.000000000000000D+00 0.000000000000000D+00 0.282851745911392D+03
 0.282851745911392D+03 0.000000000000000D+00 0.000000000000000D+00 -.282851745911392D+03
 0.290945901399209D+03 0.228693002781609D+03 0.477150751689086D+02 0.120196920182486D+03
 0.274757590423575D+03 -.228693002781609D+03 -.477150751689086D+02 -.120196920182486D+03
 0.000000000000000D+00 0.000000000000000D+00 -.000000000000000D+00 -.000000000000000D+00
 0.403345127332888D+03 0.000000000000000D+00 0.000000000000000D+00 0.403345127332888D+03
 0.470089554572138D+03 0.000000000000000D+00 0.000000000000000D+00 -.470089554572138D+03
 0.287950440618762D+03 0.170752176797069D+03 0.153905330480289D+03 0.120196920182486D+03
 0.329413277578998D+03 -.289163516390034D+03 0.631114304905445D+02 -.120196920182486D+03
 0.256070963707266D+03 0.118411339592965D+03 -.217016760970833D+03 -.667444272392501D+02
0.382877745364D-02 0.000000000000D+00 0.000000000000D+00 0.166722730919D-02 0.000000000000D+00  5 2 -1 25 24 21 0 0.63986413D-01 0.29593972D-01 0.65543355D+05 0.65543355D+05 0.65543355D+05 0.11808118D+01  1  2  2  2  5  2       -1 0.349529186039D+00 0.100000000000D+01
-.210139660705D-03 0.000000000000D+00 -.147035135622D-04 0.166722730919D-02 0.000000000000D+00  5 2 -1 25 24 21 2 0.63986413D-01 0.29593972D-01 0.65543355D+05 0.65543355D+05 0.65543355D+05 0.11808118D+01  1  2  3  2  5  2       -1 -.267480853580D-01 0.100000000000D+01
0.262304271600D-03 0.000000000000D+00 0.000000000000D+00 0.166722730919D-02 0.000000000000D+00  5 2 -1 25 24 21 2 0.63986413D-01 0.29593972D-01 0.65543355D+05 0.65543355D+05 0.65543355D+05 0.11808118D+01  1  2 15  2  5  2       -1 0.333879717089D-01 0.100000000000D+01
-.429613730973D-03 0.000000000000D+00 -.108135865100D-02 0.166722730919D-02 0.000000000000D+00  5 2 -1 25 24 21 2 0.63986413D-01 0.67646694D-01 0.65543355D+05 0.65543355D+05 0.65543355D+05 0.11808118D+01  1  2  5  2  5  2       -1 -.121047866664D-01 0.100000000000D+01
0.297832283927D-04 0.000000000000D+00 -.972288547406D-04 0.166722730919D-02 0.000000000000D+00  5 2 21 25 24 1 2 0.63986413D-01 0.67646694D-01 0.65543355D+05 0.65543355D+05 0.65543355D+05 0.11808118D+01  1  2  5  4  5  2       -1 0.771636007035D-02 0.100000000000D+01
  </mgrwgt>
  </event>
  <event>
  4     66 0.48098993E-03 0.46858950E+02 0.75467711E-02 0.12350984E+00
        2 -1    0    0  501    0 0.00000000E+00 0.00000000E+00 0.55757977E+02 0.55758895E+02 0.32000000E+00 0.0000E+00 0.9000E+01
       -1 -1    0    0    0  501 0.00000000E+00 0.00000000E+00 -.25556999E+03 0.25557019E+03 0.32000000E+00 0.0000E+00 0.9000E+01
       25  1    1    2    0    0 0.34806037E+02 -.43917030E+02 -.88860355E+02 0.16328297E+03 0.12500000E+03 0.0000E+00 0.9000E+01
       24  1    1    2    0    0 -.34806037E+02 0.43917030E+02 -.11095166E+03 0.14804611E+03 0.80419002E+02 0.0000E+00 0.9000E+01
#aMCatNLO 1  0  0  2  1 0.14505168D+02 0.00000000D+00  -5  5  0 0.00000000D+00 0.00000000D+00 0.00000000D+00 0.00000000D+00 0.00000000D+00
  <mgrwgt>
 0.2999846679D+00    9    2    0
 0.119374367656058D+03 0.000000000000000D+00 0.000000000000000D+00 0.119374367656058D+03
 0.119374367656058D+03 0.000000000000000D+00 0.000000000000000D+00 -.119374367656058D+03
 0.138553074579170D+03 0.348060367844557D+02 -.439170301007746D+02 0.207795270838376D+02
 0.100195660732946D+03 -.348060367844557D+02 0.439170301007746D+02 -.207795270838376D+02
 0.000000000000000D+00 0.000000000000000D+00 0.000000000000000D+00 -.000000000000000D+00
 0.123911403827941D+03 0.000000000000000D+00 0.000000000000000D+00 0.123911403827941D+03
 0.131779075500252D+03 0.000000000000000D+00 0.000000000000000D+00 -.131779075500252D+03
 0.138137244972880D+03 0.273256311805730D+02 -.477327935852590D+02 0.207795270838376D+02
 0.101051714850830D+03 -.402468198177066D+02 0.411416804306304D+02 -.207795270838376D+02
 0.165015195044821D+02 0.129211886371336D+02 0.659111315462866D+01 -.786767167231152D+01
0.383654449793D-03 0.000000000000D+00 0.000000000000D+00 0.272217329098D-02 0.000000000000D+00  5 2 -1 25 24 21 0 0.85782364D-02 0.39318546D-01 0.13806633D+05 0.13806633D+05 0.13806633D+05 0.12519480D+01  1  2  2  2  5  2       -1 0.204475341987D+00 0.100000000000D+01
-.213076566269D-04 0.000000000000D+00 -.147333410574D-05 0.272217329098D-02 0.000000000000D+00  5 2 -1 25 24 21 2 0.85782364D-02 0.39318546D-01 0.13806633D+05 0.13806633D+05 0.13806633D+05 0.12519480D+01  1  2  3  2  5  2       -1 -.177995473587D-01 0.100000000000D+01
0.265693528390D-04 0.000000000000D+00 0.000000000000D+00 0.272217329098D-02 0.000000000000D+00  5 2 -1 25 24 21 2 0.85782364D-02 0.39318546D-01 0.13806633D+05 0.13806633D+05 0.13806633D+05 0.12519480D+01  1  2 15  2  5  2       -1 0.221949537872D-01 0.100000000000D+01
0.752539111936D-03 0.000000000000D+00 0.000000000000D+00 0.272217329098D-02 0.000000000000D+00  5 2 -1 25 24 21 2 0.85782364D-02 0.44095510D-01 0.15620343D+05 0.15620343D+05 0.15620343D+05 0.12458212D+01  1  2 12  2  5  2       -1 0.510798643813D+00 0.100000000000D+01
-.737251653901D-03 0.000000000000D+00 0.000000000000D+00 0.272217329098D-02 0.000000000000D+00  5 2 -1 25 24 21 2 0.85782364D-02 0.39318546D-01 0.13806633D+05 0.13806633D+05 0.13806633D+05 0.12519480D+01  1  2  4  2  5  2       -1 -.615869964430D+00 0.100000000000D+01
-.187713810491D-02 0.000000000000D+00 -.363985938803D-03 0.272217329098D-02 0.000000000000D+00  5 2 -1 25 24 21 2 0.85782364D-02 0.44822528D-01 0.13806633D+05 0.13806633D+05 0.13806633D+05 0.12519480D+01  1  2  5  2  5  2       -1 -.124497959840D+01 0.100000000000D+01
0.191149851318D-02 0.000000000000D+00 0.360884250041D-03 0.272217329098D-02 0.000000000000D+00  5 2 -1 25 24 21 2 0.85782364D-02 0.39318546D-01 0.13806633D+05 0.13806633D+05 0.13806633D+05 0.12519480D+01  1  2  6  2  5  2       -1 0.159678790152D+01 0.100000000000D+01
0.137406115469D-04 0.000000000000D+00 0.000000000000D+00 0.272217329098D-02 0.000000000000D+00  5 2 21 25 24 1 2 0.85782364D-02 0.44095510D-01 0.15620343D+05 0.15620343D+05 0.15620343D+05 0.12458212D+01  1  2 12  4  5  2       -1 0.984098231295D-01 0.100000000000D+01
-.363484569242D-04 0.000000000000D+00 -.743154228553D-05 0.272217329098D-02 0.000000000000D+00  5 2 21 25 24 1 2 0.85782364D-02 0.44822528D-01 0.13806633D+05 0.13806633D+05 0.13806633D+05 0.12519480D+01  1  2  5  4  5  2       -1 -.254032886139D+00 0.100000000000D+01
  </mgrwgt>
  </event>
  <event>
  4     66 0.48098993E-03 0.34783633E+02 0.75467711E-02 0.12030687E+00
        2 -1    0    0  501    0 0.00000000E+00 0.00000000E+00 0.23196005E+04 0.23196005E+04 0.32000000E+00 0.0000E+00 0.9000E+01
       -1 -1    0    0    0  501 0.00000000E+00 0.00000000E+00 -.77253477E+01 0.77319724E+01 0.32000000E+00 0.0000E+00 0.9000E+01
       25  1    1    2    0    0 -.47919753E+02 0.69835838E+02 0.13088886E+04 0.13175689E+04 0.12500000E+03 0.0000E+00 0.9000E+01
       24  1    1    2    0    0 0.47919753E+02 -.69835838E+02 0.10029865E+04 0.10097636E+04 0.80419002E+02 0.0000E+00 0.9000E+01
#aMCatNLO 1  0  0  1  2 0.26701906D+02 0.00000000D+00  -5  5  0 0.00000000D+00 0.00000000D+00 0.00000000D+00 0.00000000D+00 0.00000000D+00
  <mgrwgt>
 0.6670938123D+00    9    2    0
 0.133893445725171D+03 0.000000000000000D+00 0.000000000000000D+00 0.133893445725171D+03
 0.133893445725171D+03 0.000000000000000D+00 0.000000000000000D+00 -.133893445725171D+03
 0.150992460535101D+03 -.479197527099683D+02 0.698358376755196D+02 0.613363528514868D+00
 0.116794430915240D+03 0.479197527099683D+02 -.698358376755196D+02 -.613363528514868D+00
 0.000000000000000D+00 -.000000000000000D+00 -.000000000000000D+00 0.000000000000000D+00
 0.167331550912565D+03 0.000000000000000D+00 0.000000000000000D+00 0.167331550912565D+03
 0.139996112900863D+03 0.000000000000000D+00 0.000000000000000D+00 -.139996112900863D+03
 0.151676101748919D+03 -.354427044478246D+02 0.782564906468104D+02 0.613363528514868D+00
 0.117438764049143D+03 0.575756576910222D+02 -.633191501336504D+02 -.613363528514868D+00
 0.382127980153674D+02 -.221329532431976D+02 -.149373405131600D+02 0.273354380117020D+02
0.437954192167D-03 0.000000000000D+00 0.000000000000D+00 0.257003143724D-02 0.000000000000D+00  5 2 -1 25 24 21 0 0.35686212D+00 0.11890263D-02 0.17927072D+05 0.17927072D+05 0.17927072D+05 0.12390922D+01  1  2  2  1  5  1        2 0.362969654494D+00 0.100000000000D+01
-.243307884504D-04 0.000000000000D+00 -.168185941391D-05 0.257003143724D-02 0.000000000000D+00  5 2 -1 25 24 21 2 0.35686212D+00 0.11890263D-02 0.17927072D+05 0.17927072D+05 0.17927072D+05 0.12390922D+01  1  2  3  1  5  1        2 -.309602931585D-01 0.100000000000D+01
0.302885394646D-04 0.000000000000D+00 0.000000000000D+00 0.257003143724D-02 0.000000000000D+00  5 2 -1 25 24 21 2 0.35686212D+00 0.11890263D-02 0.17927072D+05 0.17927072D+05 0.17927072D+05 0.12390922D+01  1  2 15  1  5  1        2 0.385413757997D-01 0.100000000000D+01
0.675001549066D-03 0.000000000000D+00 0.000000000000D+00 0.257003143724D-02 0.000000000000D+00  5 2 -1 25 24 21 2 0.45266305D+00 0.11890263D-02 0.21876470D+05 0.21876470D+05 0.21876470D+05 0.12295612D+01  1  2 12  1  5  1        2 0.386954599552D+00 0.100000000000D+01
-.688188894890D-03 0.000000000000D+00 0.000000000000D+00 0.257003143724D-02 0.000000000000D+00  5 2 -1 25 24 21 2 0.35686212D+00 0.11890263D-02 0.17927072D+05 0.17927072D+05 0.17927072D+05 0.12390922D+01  1  2  4  1  5  1        2 -.875702403877D+00 0.100000000000D+01
-.110325764112D-02 0.000000000000D+00 -.212665298606D-03 0.257003143724D-02 0.000000000000D+00  5 2 -1 25 24 21 2 0.45163792D+00 0.11890263D-02 0.17927072D+05 0.17927072D+05 0.17927072D+05 0.12390922D+01  1  2  5  1  5  1        2 -.648667953282D+00 0.100000000000D+01
0.112768831834D-02 0.000000000000D+00 0.206899835317D-03 0.257003143724D-02 0.000000000000D+00  5 2 -1 25 24 21 2 0.35686212D+00 0.11890263D-02 0.17927072D+05 0.17927072D+05 0.17927072D+05 0.12390922D+01  1  2  6  1  5  1        2 0.143495394728D+01 0.100000000000D+01
0.220131874447D-04 0.000000000000D+00 0.000000000000D+00 0.257003143724D-02 0.000000000000D+00  5 21 -1 25 24 -2 2 0.45266305D+00 0.11890263D-02 0.21876470D+05 0.21876470D+05 0.21876470D+05 0.12295612D+01  1  2 12  3  5  1        2 0.179286679630D-02 0.100000000000D+01
-.324939102462D-04 0.000000000000D+00 -.688618515933D-05 0.257003143724D-02 0.000000000000D+00  5 21 -1 25 24 -2 2 0.45163792D+00 0.11890263D-02 0.17927072D+05 0.17927072D+05 0.17927072D+05 0.12390922D+01  1  2  5  3  5  1        2 -.278798134787D-02 0.100000000000D+01
  </mgrwgt>
  </event>
  <event>
  4     66 0.48098993E-03 0.51491811E+02 0.75467711E-02 0.12284695E+00
        2 -1    0    0  501    0 0.00000000E+00 0.00000000E+00 0.77622467E+02 0.77623127E+02 0.32000000E+00 0.0000E+00 0.9000E+01
       -1 -1    0    0    0  501 0.00000000E+00 0.00000000E+00 -.17049583E+03 0.17049614E+03 0.32000000E+00 0.0000E+00 0.9000E+01
       25  1    1    2    0    0 -.33394635E+02 0.68198019E+01 -.95144965E+02 0.16074600E+03 0.12500000E+03 0.0000E+00 0.9000E+01
       24  1    1    2    0    0 0.33394635E+02 -.68198019E+01 0.22715970E+01 0.87373265E+02 0.80419002E+02 0.0000E+00 0.9000E+01
#aMCatNLO 1  0  0  2  1 0.38208202D+02 0.00000000D+00  -5  5  0 0.00000000D+00 0.00000000D+00 0.00000000D+00 0.00000000D+00 0.00000000D+00
  <mgrwgt>
 0.3139585493D+00    9    2    0
 0.115040977272484D+03 0.000000000000000D+00 0.000000000000000D+00 0.115040977272484D+03
 0.115040977272484D+03 0.000000000000000D+00 0.000000000000000D+00 -.115040977272484D+03
 0.134942112204471D+03 -.333946345591315D+02 0.681980191042092D+01 -.377181962820161D+02
 0.951398423404966D+02 0.333946345591315D+02 -.681980191042092D+01 0.377181962820161D+02
 0.000000000000000D+00 -.000000000000000D+00 0.000000000000000D+00 -.000000000000000D+00
 0.128026071433569D+03 0.000000000000000D+00 0.000000000000000D+00 0.128026071433569D+03
 0.148604019515067D+03 0.000000000000000D+00 0.000000000000000D+00 -.148604019515067D+03
 0.132294620380799D+03 -.189241359947304D+02 -.980210833361365D+01 -.377181962820161D+02
 0.100938251422359D+03 0.440119914877886D+02 -.190157019418945D+02 0.377181962820161D+02
 0.433972191454773D+02 -.250878554930582D+02 0.288178102755081D+02 -.205779480814981D+02
0.329360881624D-03 0.000000000000D+00 0.000000000000D+00 0.262160045733D-02 0.000000000000D+00  5 2 -1 25 24 21 0 0.11941992D-01 0.26230202D-01 0.11762191D+05 0.11762191D+05 0.11762191D+05 0.12600442D+01  1  2  2  2  5  2       -1 0.231023584270D+00 0.100000000000D+01
-.182204734621D-04 0.000000000000D+00 -.126483250815D-05 0.262160045733D-02 0.000000000000D+00  5 2 -1 25 24 21 2 0.11941992D-01 0.26230202D-01 0.11762191D+05 0.11762191D+05 0.11762191D+05 0.12600442D+01  1  2  3  2  5  2       -1 -.202915636556D-01 0.100000000000D+01
0.228054350341D-04 0.000000000000D+00 0.000000000000D+00 0.262160045733D-02 0.000000000000D+00  5 2 -1 25 24 21 2 0.11941992D-01 0.26230202D-01 0.11762191D+05 0.11762191D+05 0.11762191D+05 0.12600442D+01  1  2 15  2  5  2       -1 0.253976900024D-01 0.100000000000D+01
0.221918310072D-03 0.000000000000D+00 0.000000000000D+00 0.262160045733D-02 0.000000000000D+00  5 2 -1 25 24 21 2 0.11941992D-01 0.35028401D-01 0.16723432D+05 0.16723432D+05 0.16723432D+05 0.12424735D+01  1  2 12  2  5  2       -1 0.149727196512D+00 0.100000000000D+01
-.247663957573D-03 0.000000000000D+00 0.000000000000D+00 0.262160045733D-02 0.000000000000D+00  5 2 -1 25 24 21 2 0.11941992D-01 0.26230202D-01 0.11762191D+05 0.11762191D+05 0.11762191D+05 0.12600442D+01  1  2  4  2  5  2       -1 -.275815497919D+00 0.100000000000D+01
-.402252319737D-03 0.000000000000D+00 -.138030648520D-03 0.262160045733D-02 0.000000000000D+00  5 2 -1 25 24 21 2 0.11941992D-01 0.37305516D-01 0.11762191D+05 0.11762191D+05 0.11762191D+05 0.12600442D+01  1  2  5  2  5  2       -1 -.247865399422D+00 0.100000000000D+01
0.431939279009D-03 0.000000000000D+00 0.129889574465D-03 0.262160045733D-02 0.000000000000D+00  5 2 -1 25 24 21 2 0.11941992D-01 0.26230202D-01 0.11762191D+05 0.11762191D+05 0.11762191D+05 0.12600442D+01  1  2  6  2  5  2       -1 0.481037081368D+00 0.100000000000D+01
0.835473692062D-05 0.000000000000D+00 0.000000000000D+00 0.262160045733D-02 0.000000000000D+00  5 2 21 25 24 1 2 0.11941992D-01 0.35028401D-01 0.16723432D+05 0.16723432D+05 0.16723432D+05 0.12424735D+01  1  2 12  4  5  2       -1 0.628880477264D-01 0.100000000000D+01
-.135167921736D-04 0.000000000000D+00 -.599013471426D-05 0.262160045733D-02 0.000000000000D+00  5 2 21 25 24 1 2 0.11941992D-01 0.37305516D-01 0.11762191D+05 0.11762191D+05 0.11762191D+05 0.12600442D+01  1  2  5  4  5  2       -1 -.921425895883D-01 0.100000000000D+01
  </mgrwgt>
  </event>
  <event>
  5     66 0.48098993E-03 0.10508297E+03 0.75467711E-02 0.12447736E+00
        2 -1    0    0  502    0 0.00000000E+00 0.00000000E+00 0.72323863E+03 0.72323870E+03 0.32000000E+00 0.0000E+00 0.9000E+01
       -1 -1    0    0    0  501 0.00000000E+00 0.00000000E+00 -.68952001E+02 0.68952743E+02 0.32000000E+00 0.0000E+00 0.9000E+01
       25  1    1    2    0    0 -.14183156E+02 -.44992080E+01 0.54161261E+02 0.13703958E+03 0.12500000E+03 0.0000E+00 0.9000E+01
       24  1    1    2    0    0 0.64556770E+01 0.29520467E+02 0.40610525E+02 0.95024020E+02 0.80419002E+02 0.0000E+00 0.9000E+01
       21  1    1    2  502  501 0.77274788E+01 -.25021259E+02 0.55951484E+03 0.56012784E+03 0.75000000E+00 0.0000E+00 0.9000E+01
#aMCatNLO 2  0  0  1  2 0.26187351D+02 0.00000000D+00  -5  5  0 0.00000000D+00 0.00000000D+00 0.00000000D+00 0.00000000D+00 0.00000000D+00
  <mgrwgt>
 0.6035372045D-01    2    2    0
 0.105102386601073D+03 0.000000000000000D+00 0.000000000000000D+00 0.105102386601073D+03
 0.105102386601073D+03 0.000000000000000D+00 0.000000000000000D+00 -.105102386601073D+03
 0.126885393490319D+03 -.955467511699760D+01 -.194860385053264D+02 -.197625098879363D+01
 0.833193797118274D+02 0.955467511699760D+01 0.194860385053264D+02 0.197625098879363D+01
 0.000000000000000D+00 0.000000000000000D+00 -.000000000000000D+00 0.000000000000000D+00
 0.468746537004016D+03 0.000000000000000D+00 0.000000000000000D+00 0.468746537004016D+03
 0.106387370158284D+03 0.000000000000000D+00 0.000000000000000D+00 -.106387370158284D+03
 0.125898015669028D+03 -.141831558223152D+02 -.449920796896245D+01 -.197625098879363D+01
 0.859316895641625D+02 0.645567700195722D+01 0.295204671957737D+02 0.197625098879363D+01
 0.363304201929109D+03 0.772747882035802D+01 -.250212592268113D+02 0.362359166845732D+03
-.529736315549D-02 0.000000000000D+00 0.000000000000D+00 0.315865502224D-02 0.000000000000D+00  5 2 -1 25 24 21 2 0.11066317D+00 0.10479897D-01 0.14158479D+05 0.14158479D+05 0.14158479D+05 0.12506912D+01  1  2 13  1  5  1        2 -.212367309172D+01 0.100000000000D+01
0.558596731675D-02 0.000000000000D+00 0.000000000000D+00 0.315865502224D-02 0.904150662520D-04  5 2 -1 25 24 21 2 0.11126714D+00 0.10608024D-01 0.14158479D+05 0.14158479D+05 0.14158479D+05 0.12506912D+01  1  2  1  1  5  1        2 0.218402681218D+01 0.100000000000D+01
  </mgrwgt>
  </event>
  <event>
  5     66 0.48098993E-03 0.13186716E+03 0.75467711E-02 0.11317795E+00
        2 -1    0    0  502    0 0.00000000E+00 0.00000000E+00 0.90273858E+02 0.90274425E+02 0.32000000E+00 0.0000E+00 0.9000E+01
       -1 -1    0    0    0  501 0.00000000E+00 0.00000000E+00 -.66323869E+03 0.66323877E+03 0.32000000E+00 0.0000E+00 0.9000E+01
       25  1    1    2    0    0 -.39478396E+02 0.18971793E+02 -.27980547E+03 0.30957160E+03 0.12500000E+03 0.0000E+00 0.9000E+01
       24  1    1    2    0    0 -.33174576E+02 -.14423041E+03 -.23213007E+03 0.28680054E+03 0.80419002E+02 0.0000E+00 0.9000E+01
       21  1    1    2  502  501 0.72652972E+02 0.12525862E+03 -.61029300E+02 0.15714106E+03 0.75000000E+00 0.0000E+00 0.9000E+01
#aMCatNLO 2  0  0  1  1 0.14480392D+03 0.00000000D+00  -5  5  0 0.00000000D+00 0.00000000D+00 0.00000000D+00 0.00000000D+00 0.00000000D+00
  <mgrwgt>
 0.5007351611D-01    1    2    0
 0.134734509623901D+03 0.000000000000000D+00 0.000000000000000D+00 0.134734509623901D+03
 0.134734509623901D+03 0.000000000000000D+00 0.000000000000000D+00 -.134734509623901D+03
 0.151726785899654D+03 -.324074701411597D+01 0.814479408807329D+02 -.274180240812236D+02
 0.117742233348149D+03 0.324074701411597D+01 -.814479408807329D+02 0.274180240812236D+02
 0.000000000000000D+00 0.000000000000000D+00 0.000000000000000D+00 0.000000000000000D+00
 0.327059596188075D+03 0.000000000000000D+00 0.000000000000000D+00 0.327059596188075D+03
 0.183064356943917D+03 0.000000000000000D+00 0.000000000000000D+00 -.183064356943917D+03
 0.135259826673607D+03 -.394783959309781D+02 0.189717927980598D+02 -.274180240812236D+02
 0.170651480815659D+03 -.331745758819308D+02 -.144230410873513D+03 0.274180240812236D+02
 0.204212645642726D+03 0.726529718129088D+02 0.125258618075453D+03 0.143995239244158D+03
0.748952638198D-03 0.000000000000D+00 0.000000000000D+00 0.246517822806D-02 0.134347127929D-05  5 2 -1 25 24 21 2 0.13888289D-01 0.10203643D+00 0.49659937D+05 0.49659937D+05 0.49659937D+05 0.11925754D+01  1  2  1  1  5  1        2 0.500735161108D-01 0.100000000000D+01
  </mgrwgt>
  </event>
  <event>
  4     66 0.48098993E-03 0.89412254E+02 0.75467711E-02 0.10835899E+00
        2 -1    0    0  501    0 0.00000000E+00 0.00000000E+00 0.22661133E+03 0.22661156E+03 0.32000000E+00 0.0000E+00 0.9000E+01
       -1 -1    0    0    0  501 0.00000000E+00 0.00000000E+00 -.38433009E+03 0.38433022E+03 0.32000000E+00 0.0000E+00 0.9000E+01
       25  1    1    2    0    0 -.14468515E+03 -.22451651E+03 -.94718207E+01 0.29505283E+03 0.12500000E+03 0.0000E+00 0.9000E+01
       24  1    1    2    0    0 0.14468515E+03 0.22451651E+03 -.14824694E+03 0.31588895E+03 0.80419002E+02 0.0000E+00 0.9000E+01
#aMCatNLO 1  0  0  2  1 0.31999635D+02 0.00000000D+00  -5  5  0 0.00000000D+00 0.00000000D+00 0.00000000D+00 0.00000000D+00 0.00000000D+00
  <mgrwgt>
 0.3909811466D+00    6    2    0
 0.295116352049807D+03 0.000000000000000D+00 0.000000000000000D+00 0.295116352049807D+03
 0.295116352049807D+03 0.000000000000000D+00 0.000000000000000D+00 -.295116352049807D+03
 0.302874126214151D+03 -.144685150923584D+03 -.224516509901698D+03 0.690382518156835D+02
 0.287358577885463D+03 0.144685150923584D+03 0.224516509901698D+03 -.690382518156835D+02
 0.000000000000000D+00 0.000000000000000D+00 0.000000000000000D+00 0.000000000000000D+00
 0.311705408063702D+03 0.000000000000000D+00 0.000000000000000D+00 0.311705408063702D+03
 0.311395232320496D+03 0.000000000000000D+00 0.000000000000000D+00 -.311395232320496D+03
 0.317232055343446D+03 -.157341992957735D+03 -.235559746085255D+03 0.690382518156835D+02
 0.273867446955854D+03 0.133230097977606D+03 0.214521848134074D+03 -.690382518156835D+02
 0.320011380848983D+02 0.241118949801288D+02 0.210378979511807D+02 0.310175743206561D+00
0.550949930629D-02 0.000000000000D+00 0.000000000000D+00 0.190543324985D-02 0.000000000000D+00  5 2 -1 25 24 21 0 0.34863309D-01 0.59127733D-01 0.82323894D+05 0.82323894D+05 0.82323894D+05 0.11714123D+01  1  2  2  2  5  2       -1 0.279605827955D+00 0.100000000000D+01
-.305788154682D-03 0.000000000000D+00 -.211579280206D-04 0.190543324985D-02 0.000000000000D+00  5 2 -1 25 24 21 2 0.34863309D-01 0.59127733D-01 0.82323894D+05 0.82323894D+05 0.82323894D+05 0.11714123D+01  1  2  3  2  5  2       -1 -.212948375836D-01 0.100000000000D+01
0.378515960494D-03 0.000000000000D+00 0.000000000000D+00 0.190543324985D-02 0.000000000000D+00  5 2 -1 25 24 21 2 0.34863309D-01 0.59127733D-01 0.82323894D+05 0.82323894D+05 0.82323894D+05 0.11714123D+01  1  2 15  2  5  2       -1 0.263595426380D-01 0.100000000000D+01
0.824165987470D-02 0.000000000000D+00 0.000000000000D+00 0.190543324985D-02 0.000000000000D+00  5 2 -1 25 24 21 2 0.34863309D-01 0.63961073D-01 0.92006391D+05 0.92006391D+05 0.92006391D+05 0.11669101D+01  1  2 12  2  5  2       -1 0.488512072145D+00 0.100000000000D+01
-.633895627791D-02 0.000000000000D+00 0.000000000000D+00 0.190543324985D-02 0.000000000000D+00  5 2 -1 25 24 21 2 0.34863309D-01 0.59127733D-01 0.82323894D+05 0.82323894D+05 0.82323894D+05 0.11714123D+01  1  2  4  2  5  2       -1 -.441439742911D+00 0.100000000000D+01
0.108336829969D-03 0.000000000000D+00 0.000000000000D+00 0.190543324985D-02 0.000000000000D+00  5 2 21 25 24 1 2 0.34863309D-01 0.63961073D-01 0.92006391D+05 0.92006391D+05 0.92006391D+05 0.11669101D+01  1  2 12  4  5  2       -1 0.592382843499D-01 0.100000000000D+01
  </mgrwgt>
  </event>
  <event>
  5     66 0.48098993E-03 0.13194549E+03 0.75467711E-02 0.97888972E-01
        2 -1    0    0  501    0 0.00000000E+00 0.00000000E+00 0.32250132E+04 0.32250132E+04 0.32000000E+00 0.0000E+00 0.9000E+01
       -1 -1    0    0    0  502 0.00000000E+00 0.00000000E+00 -.25697391E+03 0.25697411E+03 0.32000000E+00 0.0000E+00 0.9000E+01
       25  1    1    2    0    0 0.32183158E+03 -.12192641E+03 0.10726287E+04 0.11334015E+04 0.12500000E+03 0.0000E+00 0.9000E+01
       24  1    1    2    0    0 0.20026077E+03 -.23622208E+03 0.16316306E+04 0.16627059E+04 0.80419002E+02 0.0000E+00 0.9000E+01
       21  1    1    2  501  502 -.52209236E+03 0.35814849E+03 0.26377989E+03 0.68587984E+03 0.75000000E+00 0.0000E+00 0.9000E+01
#aMCatNLO 2  0  0  2  1 0.63312777D+03 0.00000000D+00  -5  5  0 0.00000000D+00 0.00000000D+00 0.00000000D+00 0.00000000D+00 0.00000000D+00
  <mgrwgt>
 0.5008497997D-02    1    2    0
 0.161514219953837D+03 0.000000000000000D+00 0.000000000000000D+00 0.161514219953837D+03
 0.161514219953837D+03 0.000000000000000D+00 0.000000000000000D+00 -.161514219953837D+03
 0.175689108159109D+03 0.423670314090168D+02 0.697825981454671D+02 -.926125605487650D+02
 0.147339331748565D+03 -.423670314090168D+02 -.697825981454671D+02 0.926125605487650D+02
 0.000000000000000D+00 -.000000000000000D+00 0.000000000000000D+00 -.000000000000000D+00
 0.416745241555399D+03 0.000000000000000D+00 0.000000000000000D+00 0.416745241555399D+03
 0.198861139190720D+04 0.000000000000000D+00 0.000000000000000D+00 -.198861139190720D+04
 0.377682013176097D+03 0.321831582912695D+03 -.121926407907638D+03 -.926125605487650D+02
 0.333090906095270D+03 0.200260774364213D+03 -.236222081204625D+03 0.926125605487650D+02
 0.169458371419123D+04 -.522092357276909D+03 0.358148489112263D+03 -.157186615035180D+04
0.420533606662D-02 0.000000000000D+00 0.000000000000D+00 0.161951923359D-02 0.425262942553D-06  5 2 -1 25 24 21 2 0.49615580D+00 0.39534458D-01 0.43509579D+06 0.43509579D+06 0.43509579D+06 0.11091028D+01  1  2  1  2  5  2       -1 0.500849799665D-02 0.100000000000D+01
  </mgrwgt>
  </event>
  <event>
  4     66 0.48098993E-03 0.13555285E+03 0.75467711E-02 0.11137866E+00
        2 -1    0    0  501    0 0.00000000E+00 0.00000000E+00 0.68881792E+03 0.68881799E+03 0.32000000E+00 0.0000E+00 0.9000E+01
       -1 -1    0    0    0  501 0.00000000E+00 0.00000000E+00 -.39199591E+02 0.39200897E+02 0.32000000E+00 0.0000E+00 0.9000E+01
       25  1    1    2    0    0 0.85601450E+02 0.16915129E+02 0.55701581E+03 0.57749922E+03 0.12500000E+03 0.0000E+00 0.9000E+01
       24  1    1    2    0    0 -.85601450E+02 -.16915129E+02 0.92602512E+02 0.15051967E+03 0.80419002E+02 0.0000E+00 0.9000E+01
#aMCatNLO 1  0  0  1  2 0.18148453D+03 0.00000000D+00  -5  5  0 0.00000000D+00 0.00000000D+00 0.00000000D+00 0.00000000D+00 0.00000000D+00
  <mgrwgt>
 0.2870434578D+00    5    2    0
 0.164322496876608D+03 0.000000000000000D+00 0.000000000000000D+00 0.164322496876608D+03
 0.164322496876608D+03 0.000000000000000D+00 0.000000000000000D+00 -.164322496876608D+03
 0.178255135772221D+03 0.856014502555520D+02 0.169151291994928D+02 0.923913607838077D+02
 0.150389857980994D+03 -.856014502555520D+02 -.169151291994928D+02 -.923913607838077D+02
 0.000000000000000D+00 -.000000000000000D+00 -.000000000000000D+00 0.000000000000000D+00
 0.311821473556085D+03 0.000000000000000D+00 0.000000000000000D+00 0.311821473556085D+03
 0.254058943422758D+03 0.000000000000000D+00 0.000000000000000D+00 -.254058943422758D+03
 0.250328017066678D+03 0.185361856250319D+03 0.643734015606375D+02 0.923913607838077D+02
 0.125097298603579D+03 -.214768797838061D+02 0.135903734610432D+02 -.923913607838077D+02
 0.190455101308587D+03 -.163884976466513D+03 -.779637750216807D+02 0.577625301333271D+02
0.447033886999D-03 0.000000000000D+00 0.000000000000D+00 0.163308915159D-02 0.000000000000D+00  5 2 -1 25 24 21 0 0.10597209D+00 0.60308125D-02 0.18374576D+05 0.18374576D+05 0.18374576D+05 0.12378995D+01  1  2  2  1  5  1        2 0.278655742639D+00 0.100000000000D+01
-.237166220809D-04 0.000000000000D+00 -.171672783280D-05 0.163308915159D-02 0.000000000000D+00  5 2 -1 25 24 21 2 0.10597209D+00 0.60308125D-02 0.18374576D+05 0.18374576D+05 0.18374576D+05 0.12378995D+01  1  2  3  1  5  1        2 -.226543267743D-01 0.100000000000D+01
0.308296049055D-04 0.000000000000D+00 0.000000000000D+00 0.163308915159D-02 0.000000000000D+00  5 2 -1 25 24 21 2 0.10597209D+00 0.60308125D-02 0.18374576D+05 0.18374576D+05 0.18374576D+05 0.12378995D+01  1  2 15  1  5  1        2 0.294487107595D-01 0.100000000000D+01
0.251591885740D-05 0.000000000000D+00 -.148869991538D-03 0.163308915159D-02 0.000000000000D+00  5 2 -1 25 24 21 2 0.26454558D+00 0.60308125D-02 0.18374576D+05 0.18374576D+05 0.18374576D+05 0.12378995D+01  1  2  5  1  5  1        2 0.612921356027D-03 0.100000000000D+01
0.946071259301D-05 0.000000000000D+00 -.149880726020D-04 0.163308915159D-02 0.000000000000D+00  5 21 -1 25 24 -2 2 0.26454558D+00 0.60308125D-02 0.18374576D+05 0.18374576D+05 0.18374576D+05 0.12378995D+01  1  2  5  3  5  1        2 0.980409845132D-03 0.100000000000D+01
  </mgrwgt>
  </event>
  <event>
  4     66 0.48098993E-03 0.12055979E+03 0.75467711E-02 0.11403208E+00
        4 -1    0    0  501    0 0.00000000E+00 0.00000000E+00 0.94880579E+02 0.94893238E+02 0.15500000E+01 0.0000E+00 0.9000E+01
       -3 -1    0    0    0  501 0.00000000E+00 0.00000000E+00 -.15632810E+03 0.15632890E+03 0.50000000E+00 0.0000E+00 0.9000E+01
       25  1    1    2    0    0 -.34051955E+02 0.51861791E+02 -.17834812E+02 0.14068497E+03 0.12500000E+03 0.0000E+00 0.9000E+01
       24  1    1    2    0    0 0.34051955E+02 -.51861791E+02 -.43612713E+02 0.11053717E+03 0.80419002E+02 0.0000E+00 0.9000E+01
#aMCatNLO 1  0  0  1  2 0.14291271D+03 0.00000000D+00  -5  5  0 0.00000000D+00 0.00000000D+00 0.00000000D+00 0.00000000D+00 0.00000000D+00
  <mgrwgt>
 0.5202451104D-01    5    2    0
 0.121795695527406D+03 0.000000000000000D+00 0.000000000000000D+00 0.121795695527406D+03
 0.121795695527406D+03 0.000000000000000D+00 0.000000000000000D+00 -.121795695527406D+03
 0.140593125120410D+03 -.340519545345731D+02 0.518617907536797D+02 0.170952005931551D+02
 0.102998265934402D+03 0.340519545345731D+02 -.518617907536797D+02 -.170952005931551D+02
 0.000000000000000D+00 -.000000000000000D+00 -.000000000000000D+00 0.000000000000000D+00
 0.265000902271641D+03 0.000000000000000D+00 0.000000000000000D+00 0.265000902271641D+03
 0.182456770349259D+03 0.000000000000000D+00 0.000000000000000D+00 -.182456770349259D+03
 0.170446491508445D+03 0.256118804466528D+02 0.111708514286981D+03 0.170952005931551D+02
 0.111973071651713D+03 0.752879056022979D+02 -.104994384349020D+02 -.170952005931551D+02
 0.165038109460741D+03 -.100899786048951D+03 -.101209075852079D+03 0.825441319223819D+02
0.390272744960D-03 0.000000000000D+00 0.000000000000D+00 0.270305526017D-02 0.000000000000D+00  5 4 -3 25 24 21 0 0.14598047D-01 0.24051513D-01 0.14534664D+05 0.14534664D+05 0.14534664D+05 0.12493858D+01  1  2  2  1  5  1        4 0.473708779518D-01 0.100000000000D+01
-.216790769164D-04 0.000000000000D+00 -.149875010182D-05 0.270305526017D-02 0.000000000000D+00  5 4 -3 25 24 21 2 0.14598047D-01 0.24051513D-01 0.14534664D+05 0.14534664D+05 0.14534664D+05 0.12493858D+01  1  2  3  1  5  1        4 -.410749584286D-02 0.100000000000D+01
0.270366056567D-04 0.000000000000D+00 0.000000000000D+00 0.270305526017D-02 0.000000000000D+00  5 4 -3 25 24 21 2 0.14598047D-01 0.24051513D-01 0.14534664D+05 0.14534664D+05 0.14534664D+05 0.12493858D+01  1  2 15  1  5  1        4 0.512257720974D-02 0.100000000000D+01
-.985429999680D-06 0.000000000000D+00 -.150721912297D-03 0.270305526017D-02 0.000000000000D+00  5 4 -3 25 24 21 2 0.46105968D-01 0.24051513D-01 0.14534664D+05 0.14534664D+05 0.14534664D+05 0.12493858D+01  1  2  5  1  5  1        4 -.220577271963D-04 0.100000000000D+01
0.660895147571D-05 0.000000000000D+00 -.199140435260D-04 0.270305526017D-02 0.000000000000D+00  5 21 -3 25 24 -4 2 0.46105968D-01 0.24051513D-01 0.14534664D+05 0.14534664D+05 0.14534664D+05 0.12493858D+01  1  2  5  3  5  1        4 0.366060944597D-02 0.100000000000D+01
  </mgrwgt>
  </event>
  <event>
  5     66 -.48098993E-03 0.10901655E+03 0.75467711E-02 0.12528094E+00
        2 -1    0    0  502    0 0.00000000E+00 0.00000000E+00 0.76432501E+02 0.76433171E+02 0.32000000E+00 0.0000E+00 0.9000E+01
       -1 -1    0    0    0  501 0.00000000E+00 0.00000000E+00 -.17263175E+03 0.17263205E+03 0.32000000E+00 0.0000E+00 0.9000E+01
       25  1    1    2    0    0 -.10875997E+02 -.32659595E+02 -.64550745E+02 0.14483347E+03 0.12500000E+03 0.0000E+00 0.9000E+01
       24  1    1    2    0    0 0.16150111E+01 0.37211770E+02 -.25609513E+02 0.92251760E+02 0.80419002E+02 0.0000E+00 0.9000E+01
       21  1    1    2  502  501 0.92609858E+01 -.45521753E+01 -.60389957E+01 0.11979989E+02 0.75000000E+00 0.0000E+00 0.9000E+01
#aMCatNLO 2  0  0  1  2 0.10319310D+02 0.00000000D+00  -5  5  0 0.00000000D+00 0.00000000D+00 0.00000000D+00 0.00000000D+00 0.00000000D+00
  <mgrwgt>
 -.2500102171D+00    3    2    0
 0.109514893586287D+03 0.000000000000000D+00 0.000000000000000D+00 0.109514893586287D+03
 0.109514893586287D+03 0.000000000000000D+00 0.000000000000000D+00 -.109514893586287D+03
 0.130420232909870D+03 -.537231795581201D+01 -.353648909268623D+02 -.102420623791031D+02
 0.886095542627045D+02 0.537231795581201D+01 0.353648909268623D+02 0.102420623791031D+02
 0.000000000000000D+00 0.000000000000000D+00 -.000000000000000D+00 -.000000000000000D+00
 0.114056210096421D+03 0.000000000000000D+00 0.000000000000000D+00 0.114056210096421D+03
 0.115659677275929D+03 0.000000000000000D+00 0.000000000000000D+00 -.115659677275929D+03
 0.130057050043000D+03 -.108759969062962D+02 -.326595945382691D+02 -.102420623791031D+02
 0.892156929646294D+02 0.161501114220091D+01 0.372117698318909D+02 0.102420623791031D+02
 0.104431443647206D+02 0.926098576409529D+01 -.455217529362184D+01 -.160346717950795D+01
-.589291976067D-03 0.000000000000D+00 0.000000000000D+00 0.300287163454D-02 0.000000000000D+00  5 2 -1 25 24 21 2 0.12059404D-01 0.25144838D-01 0.13064295D+05 0.13064295D+05 0.13064295D+05 0.12547218D+01  1  2 13  1  5  1        2 -.692060855041D+00 0.100000000000D+01
-.406838300417D-05 0.000000000000D+00 0.000000000000D+00 0.300287163454D-02 0.000000000000D+00  5 2 -1 25 24 21 2 0.11289399D-01 0.25144838D-01 0.11884607D+05 0.11884607D+05 0.11884607D+05 0.12595162D+01  1  2  8  1  5  1        2 -.519176554431D-02 0.100000000000D+01
0.404080488686D-03 0.000000000000D+00 0.000000000000D+00 0.300287163454D-02 0.237317151113D-03  5 2 -1 25 24 21 2 0.11757543D-01 0.26555693D-01 0.13064295D+05 0.13064295D+05 0.13064295D+05 0.12547218D+01  1  2  1  1  5  1        2 0.447242403513D+00 0.100000000000D+01
  </mgrwgt>
  </event>
  <event>
  4     66 0.48098993E-03 0.57665976E+02 0.75467711E-02 0.12289165E+00
        2 -1    0    0  501    0 0.00000000E+00 0.00000000E+00 0.27611567E+02 0.27613421E+02 0.32000000E+00 0.0000E+00 0.9000E+01
       -1 -1    0    0    0  501 0.00000000E+00 0.00000000E+00 -.56250525E+03 0.56250534E+03 0.32000000E+00 0.0000E+00 0.9000E+01
       25  1    1    2    0    0 0.65970963E+02 -.15731638E+02 -.34229652E+03 0.37066368E+03 0.12500000E+03 0.0000E+00 0.9000E+01
       24  1    1    2    0    0 -.65970963E+02 0.15731638E+02 -.19259716E+03 0.21945509E+03 0.80419002E+02 0.0000E+00 0.9000E+01
#aMCatNLO 1  0  0  2  1 0.10403139D+02 0.00000000D+00  -5  5  0 0.00000000D+00 0.00000000D+00 0.00000000D+00 0.00000000D+00 0.00000000D+00
  <mgrwgt>
 0.2959861063D+00    9    2    0
 0.124628349710760D+03 0.000000000000000D+00 0.000000000000000D+00 0.124628349710760D+03
 0.124628349710760D+03 0.000000000000000D+00 0.000000000000000D+00 -.124628349710760D+03
 0.142998536082647D+03 0.659709632231176D+02 -.157316380596894D+02 -.149642539791665D+02
 0.106258163338873D+03 -.659709632231176D+02 0.157316380596894D+02 0.149642539791665D+02
 0.000000000000000D+00 0.000000000000000D+00 -.000000000000000D+00 -.000000000000000D+00
 0.126963458077057D+03 0.000000000000000D+00 0.000000000000000D+00 0.126963458077057D+03
 0.136888216139135D+03 0.000000000000000D+00 0.000000000000000D+00 -.136888216139135D+03
 0.141614123176088D+03 0.640576838465830D+02 -.101115837528220D+02 -.149642539791665D+02
 0.107859577837342D+03 -.674103477515837D+02 0.199596767442939D+02 0.149642539791665D+02
 0.143779732027623D+02 0.335266390500066D+01 -.984809299147190D+01 -.992475806207782D+01
0.630569409880D-03 0.000000000000D+00 0.000000000000D+00 0.266760357215D-02 0.000000000000D+00  5 2 -1 25 24 21 0 0.42480831D-02 0.86539419D-01 0.15303247D+05 0.15303247D+05 0.15303247D+05 0.12468328D+01  1  2  2  2  5  2       -1 0.186377224042D+00 0.100000000000D+01
-.350292850868D-04 0.000000000000D+00 -.242155256668D-05 0.266760357215D-02 0.000000000000D+00  5 2 -1 25 24 21 2 0.42480831D-02 0.86539419D-01 0.15303247D+05 0.15303247D+05 0.15303247D+05 0.12468328D+01  1  2  3  2  5  2       -1 -.160956182011D-01 0.100000000000D+01
0.435585177875D-04 0.000000000000D+00 0.000000000000D+00 0.266760357215D-02 0.000000000000D+00  5 2 -1 25 24 21 2 0.42480831D-02 0.86539419D-01 0.15303247D+05 0.15303247D+05 0.15303247D+05 0.12468328D+01  1  2 15  2  5  2       -1 0.200147182558D-01 0.100000000000D+01
0.226846846963D-02 0.000000000000D+00 0.000000000000D+00 0.266760357215D-02 0.000000000000D+00  5 2 -1 25 24 21 2 0.42480831D-02 0.95811387D-01 0.16646275D+05 0.16646275D+05 0.16646275D+05 0.12426995D+01  1  2 12  2  5  2       -1 0.835855258612D+00 0.100000000000D+01
-.230175354322D-02 0.000000000000D+00 0.000000000000D+00 0.266760357215D-02 0.000000000000D+00  5 2 -1 25 24 21 2 0.42480831D-02 0.86539419D-01 0.15303247D+05 0.15303247D+05 0.15303247D+05 0.12468328D+01  1  2  4  2  5  2       -1 -.105763352386D+01 0.100000000000D+01
-.472334427642D-02 0.000000000000D+00 -.693710258435D-03 0.266760357215D-02 0.000000000000D+00  5 2 -1 25 24 21 2 0.42480831D-02 0.96196820D-01 0.15303247D+05 0.15303247D+05 0.15303247D+05 0.12468328D+01  1  2  5  2  5  2       -1 -.173311899610D+01 0.100000000000D+01
0.477385903553D-02 0.000000000000D+00 0.689845983952D-03 0.266760357215D-02 0.000000000000D+00  5 2 -1 25 24 21 2 0.42480831D-02 0.86539419D-01 0.15303247D+05 0.15303247D+05 0.15303247D+05 0.12468328D+01  1  2  6  2  5  2       -1 0.219354212316D+01 0.100000000000D+01
0.374108011603D-04 0.000000000000D+00 0.000000000000D+00 0.266760357215D-02 0.000000000000D+00  5 2 21 25 24 1 2 0.42480831D-02 0.95811387D-01 0.16646275D+05 0.16646275D+05 0.16646275D+05 0.12426995D+01  1  2 12  4  5  2       -1 0.123171012253D+00 0.100000000000D+01
-.779877251822D-04 0.000000000000D+00 -.118271829323D-04 0.266760357215D-02 0.000000000000D+00  5 2 21 25 24 1 2 0.42480831D-02 0.96196820D-01 0.15303247D+05 0.15303247D+05 0.15303247D+05 0.12468328D+01  1  2  5  4  5  2       -1 -.256126091870D+00 0.100000000000D+01
  </mgrwgt>
  </event>
  <event>
  4     66 0.48098993E-03 0.63263804E+02 0.75467711E-02 0.12280913E+00
        2 -1    0    0  501    0 0.00000000E+00 0.00000000E+00 0.52729560E+02 0.52730531E+02 0.32000000E+00 0.0000E+00 0.9000E+01
       -1 -1    0    0    0  501 0.00000000E+00 0.00000000E+00 -.25929258E+03 0.25929278E+03 0.32000000E+00 0.0000E+00 0.9000E+01
       25  1    1    2    0    0 -.20934562E+02 0.28865040E+02 -.64946484E+02 0.14530827E+03 0.12500000E+03 0.0000E+00 0.9000E+01
       24  1    1    2    0    0 0.20934562E+02 -.28865040E+02 -.14161653E+03 0.16671504E+03 0.80419002E+02 0.0000E+00 0.9000E+01
#aMCatNLO 1  0  0  2  1 0.38183665D+02 0.00000000D+00  -5  5  0 0.00000000D+00 0.00000000D+00 0.00000000D+00 0.00000000D+00 0.00000000D+00
  <mgrwgt>
 0.2892382631D+00    9    2    0
 0.116929748222405D+03 0.000000000000000D+00 0.000000000000000D+00 0.116929748222405D+03
 0.116929748222405D+03 0.000000000000000D+00 0.000000000000000D+00 -.116929748222405D+03
 0.136509419317333D+03 -.209345620568086D+02 0.288650399490000D+02 0.416938261927064D+02
 0.973500771274778D+02 0.209345620568086D+02 -.288650399490000D+02 -.416938261927064D+02
 0.000000000000000D+00 0.000000000000000D+00 -.000000000000000D+00 -.000000000000000D+00
 0.122733418631241D+03 0.000000000000000D+00 0.000000000000000D+00 0.122733418631241D+03
 0.204135507890028D+03 0.000000000000000D+00 0.000000000000000D+00 -.204135507890028D+03
 0.143336079169359D+03 -.417322615061737D+02 0.379509525392656D+02 0.416938261927064D+02
 0.936201538924760D+02 0.674193973482508D+01 -.226646942733570D+02 -.416938261927064D+02
 0.899126934594337D+02 0.349903217713486D+02 -.152862582659086D+02 -.814020892587869D+02
0.489839021821D-03 0.000000000000D+00 0.000000000000D+00 0.253468951978D-02 0.000000000000D+00  5 2 -1 25 24 21 0 0.81123300D-02 0.39891256D-01 0.11876204D+05 0.11876204D+05 0.11876204D+05 0.12595523D+01  1  2  2  2  5  2       -1 0.271455454282D+00 0.100000000000D+01
-.270491654845D-04 0.000000000000D+00 -.188111082137D-05 0.253468951978D-02 0.000000000000D+00  5 2 -1 25 24 21 2 0.81123300D-02 0.39891256D-01 0.11876204D+05 0.11876204D+05 0.11876204D+05 0.12595523D+01  1  2  3  2  5  2       -1 -.237810731874D-01 0.100000000000D+01
0.336414936229D-04 0.000000000000D+00 0.000000000000D+00 0.253468951978D-02 0.000000000000D+00  5 2 -1 25 24 21 2 0.81123300D-02 0.39891256D-01 0.11876204D+05 0.11876204D+05 0.11876204D+05 0.12595523D+01  1  2 15  2  5  2       -1 0.295769132855D-01 0.100000000000D+01
0.862174020304D-03 0.000000000000D+00 0.000000000000D+00 0.253468951978D-02 0.000000000000D+00  5 2 -1 25 24 21 2 0.81123300D-02 0.69976529D-01 0.16789050D+05 0.16789050D+05 0.16789050D+05 0.12422822D+01  1  2 12  2  5  2       -1 0.263922419067D+00 0.100000000000D+01
-.883700505229D-03 0.000000000000D+00 0.000000000000D+00 0.253468951978D-02 0.000000000000D+00  5 2 -1 25 24 21 2 0.81123300D-02 0.39891256D-01 0.11876204D+05 0.11876204D+05 0.11876204D+05 0.12595523D+01  1  2  4  2  5  2       -1 -.776931414119D+00 0.100000000000D+01
-.991725598776D-03 0.000000000000D+00 -.150068652111D-03 0.253468951978D-02 0.000000000000D+00  5 2 -1 25 24 21 2 0.81123300D-02 0.71658215D-01 0.11876204D+05 0.11876204D+05 0.11876204D+05 0.12595523D+01  1  2  5  2  5  2       -1 -.295616433288D+00 0.100000000000D+01
0.936787778758D-03 0.000000000000D+00 0.127553715803D-03 0.253468951978D-02 0.000000000000D+00  5 2 -1 25 24 21 2 0.81123300D-02 0.39891256D-01 0.11876204D+05 0.11876204D+05 0.11876204D+05 0.12595523D+01  1  2  6  2  5  2       -1 0.823604659467D+00 0.100000000000D+01
0.534854364649D-04 0.000000000000D+00 0.000000000000D+00 0.253468951978D-02 0.000000000000D+00  5 2 21 25 24 1 2 0.81123300D-02 0.69976529D-01 0.16789050D+05 0.16789050D+05 0.16789050D+05 0.12422822D+01  1  2 12  4  5  2       -1 0.155002683591D+00 0.100000000000D+01
-.557865342309D-04 0.000000000000D+00 -.964515465832D-05 0.253468951978D-02 0.000000000000D+00  5 2 21 25 24 1 2 0.81123300D-02 0.71658215D-01 0.11876204D+05 0.11876204D+05 0.11876204D+05 0.12595523D+01  1  2  5  4  5  2       -1 -.157994946014D+00 0.100000000000D+01
  </mgrwgt>
  </event>
  <event>
  4     66 0.48098993E-03 0.68794377E+02 0.75467711E-02 0.12365943E+00
        2 -1    0    0  501    0 0.00000000E+00 0.00000000E+00 0.36267926E+03 0.36267940E+03 0.32000000E+00 0.0000E+00 0.9000E+01
       -1 -1    0    0    0  501 0.00000000E+00 0.00000000E+00 -.31550641E+02 0.31552264E+02 0.32000000E+00 0.0000E+00 0.9000E+01
       25  1    1    2    0    0 0.84803476E+01 -.18101272E+02 0.15936250E+03 0.20352144E+03 0.12500000E+03 0.0000E+00 0.9000E+01
       24  1    1    2    0    0 -.84803476E+01 0.18101272E+02 0.17176612E+03 0.19071022E+03 0.80419002E+02 0.0000E+00 0.9000E+01
#aMCatNLO 1  0  0  2  1 0.35618958D+02 0.00000000D+00  -5  5  0 0.00000000D+00 0.00000000D+00 0.00000000D+00 0.00000000D+00 0.00000000D+00
  <mgrwgt>
 0.3929801659D+00    9    2    0
 0.106972477761030D+03 0.000000000000000D+00 0.000000000000000D+00 0.106972477761030D+03
 0.106972477761030D+03 0.000000000000000D+00 0.000000000000000D+00 -.106972477761030D+03
 0.128374674469251D+03 0.848034761178807D+01 -.181012722160886D+02 -.213420873774913D+02
 0.855702810528089D+02 -.848034761178807D+01 0.181012722160886D+02 0.213420873774913D+02
 0.000000000000000D+00 0.000000000000000D+00 0.000000000000000D+00 -.000000000000000D+00
 0.113353065542429D+03 0.000000000000000D+00 0.000000000000000D+00 0.113353065542429D+03
 0.173066813329084D+03 0.000000000000000D+00 0.000000000000000D+00 -.173066813329084D+03
 0.131334059592728D+03 -.640815556522378D+01 -.335721023727986D+02 -.213420873774913D+02
 0.855556685589886D+02 -.182906039116643D+02 0.790731200365295D+01 0.213420873774913D+02
 0.695301507197960D+02 0.246987594768881D+02 0.256647903691457D+02 -.597137477866545D+02
0.201296924453D-03 0.000000000000D+00 0.000000000000D+00 0.299721202829D-02 0.000000000000D+00  5 2 -1 25 24 21 0 0.55796945D-01 0.48540805D-02 0.10967775D+05 0.10967775D+05 0.10967775D+05 0.12636281D+01  1  2  2  2  5  2       -1 0.343904477071D+00 0.100000000000D+01
-.111770437487D-04 0.000000000000D+00 -.773033192597D-06 0.299721202829D-02 0.000000000000D+00  5 2 -1 25 24 21 2 0.55796945D-01 0.48540805D-02 0.10967775D+05 0.10967775D+05 0.10967775D+05 0.12636281D+01  1  2  3  2  5  2       -1 -.304906178186D-01 0.100000000000D+01
0.138785259057D-04 0.000000000000D+00 0.000000000000D+00 0.299721202829D-02 0.000000000000D+00  5 2 -1 25 24 21 2 0.55796945D-01 0.48540805D-02 0.10967775D+05 0.10967775D+05 0.10967775D+05 0.12636281D+01  1  2 15  2  5  2       -1 0.378601747286D-01 0.100000000000D+01
0.284953718906D-03 0.000000000000D+00 0.000000000000D+00 0.299721202829D-02 0.000000000000D+00  5 2 -1 25 24 21 2 0.55796945D-01 0.79227702D-02 0.15383236D+05 0.15383236D+05 0.15383236D+05 0.12465754D+01  1  2 12  2  5  2       -1 0.370459888878D+00 0.100000000000D+01
-.299929817496D-03 0.000000000000D+00 0.000000000000D+00 0.299721202829D-02 0.000000000000D+00  5 2 -1 25 24 21 2 0.55796945D-01 0.48540805D-02 0.10967775D+05 0.10967775D+05 0.10967775D+05 0.12636281D+01  1  2  4  2  5  2       -1 -.818198948065D+00 0.100000000000D+01
-.344443268117D-03 0.000000000000D+00 -.665988416785D-04 0.299721202829D-02 0.000000000000D+00  5 2 -1 25 24 21 2 0.55796945D-01 0.82950319D-02 0.10967775D+05 0.10967775D+05 0.10967775D+05 0.12636281D+01  1  2  5  2  5  2       -1 -.424425064183D+00 0.100000000000D+01
0.338846091534D-03 0.000000000000D+00 0.580620546270D-04 0.299721202829D-02 0.000000000000D+00  5 2 -1 25 24 21 2 0.55796945D-01 0.48540805D-02 0.10967775D+05 0.10967775D+05 0.10967775D+05 0.12636281D+01  1  2  6  2  5  2       -1 0.924361298800D+00 0.100000000000D+01
0.158104652113D-04 0.000000000000D+00 0.000000000000D+00 0.299721202829D-02 0.000000000000D+00  5 2 21 25 24 1 2 0.55796945D-01 0.79227702D-02 0.15383236D+05 0.15383236D+05 0.15383236D+05 0.12465754D+01  1  2 12  4  5  2       -1 0.327367300540D+00 0.100000000000D+01
-.172980690039D-04 0.000000000000D+00 -.397063446132D-05 0.299721202829D-02 0.000000000000D+00  5 2 21 25 24 1 2 0.55796945D-01 0.82950319D-02 0.10967775D+05 0.10967775D+05 0.10967775D+05 0.12636281D+01  1  2  5  4  5  2       -1 -.337858344046D+00 0.100000000000D+01
  </mgrwgt>
  </event>
  <event>
  5     66 -.48098993E-03 0.15701974E+03 0.75467711E-02 0.11799998E+00
        4 -1    0    0  502    0 0.00000000E+00 0.00000000E+00 0.30257552E+02 0.30297227E+02 0.15500000E+01 0.0000E+00 0.9000E+01
       -3 -1    0    0    0  501 0.00000000E+00 0.00000000E+00 -.93529190E+03 0.93529204E+03 0.50000000E+00 0.0000E+00 0.9000E+01
       25  1    1    2    0    0 -.44197866E+02 0.96646973E+02 -.44132636E+03 0.47083760E+03 0.12500000E+03 0.0000E+00 0.9000E+01
       24  1    1    2    0    0 0.52807829E+02 -.11596938E+03 -.41940859E+03 0.44565496E+03 0.80419002E+02 0.0000E+00 0.9000E+01
       21  1    1    2  502  501 -.86099632E+01 0.19322405E+02 -.44299394E+02 0.49096696E+02 0.75000000E+00 0.0000E+00 0.9000E+01
#aMCatNLO 2  0  0  1  2 0.21153884D+02 0.00000000D+00  -5  5  0 0.00000000D+00 0.00000000D+00 0.00000000D+00 0.00000000D+00 0.00000000D+00
  <mgrwgt>
 -.2927858735D-01    2    2    0
 0.157040180030854D+03 0.000000000000000D+00 0.000000000000000D+00 0.157040180030854D+03
 0.157040180030854D+03 0.000000000000000D+00 0.000000000000000D+00 -.157040180030854D+03
 0.171618907659398D+03 -.487940924594355D+02 0.106961783737407D+03 0.252246446498814D+01
 0.142461452402310D+03 0.487940924594355D+02 -.106961783737407D+03 -.252246446498814D+01
 0.000000000000000D+00 -.000000000000000D+00 0.000000000000000D+00 0.000000000000000D+00
 0.170931507465646D+03 0.000000000000000D+00 0.000000000000000D+00 0.170931507465646D+03
 0.165660997890151D+03 0.000000000000000D+00 0.000000000000000D+00 -.165660997890151D+03
 0.164089766580908D+03 -.441978661817533D+02 0.966469725060214D+02 0.252246446498814D+01
 0.150702163713254D+03 0.528078294267626D+02 -.115969377500022D+03 -.252246446498814D+01
 0.218005750616347D+02 -.860996324500930D+01 0.193224049940005D+02 0.527050957549458D+01
-.485262551778D-02 0.000000000000D+00 0.000000000000D+00 0.235666537600D-02 0.000000000000D+00  5 4 -3 25 24 21 2 0.47668619D-02 0.13640078D+00 0.28208095D+05 0.28208095D+05 0.28208095D+05 0.12177157D+01  1  2 13  1  5  1        4 -.164799011748D+00 0.100000000000D+01
0.438585381884D-02 0.000000000000D+00 0.000000000000D+00 0.235666537600D-02 0.417592625696D-04  5 4 -3 25 24 21 2 0.46578911D-02 0.14388859D+00 0.28208095D+05 0.28208095D+05 0.28208095D+05 0.12177157D+01  1  2  1  1  5  1        4 0.135520424393D+00 0.100000000000D+01
  </mgrwgt>
  </event>
  <event>
  4     66 0.48098993E-03 0.94826534E+02 0.75467711E-02 0.12740598E+00
        2 -1    0    0  501    0 0.00000000E+00 0.00000000E+00 0.24508845E+04 0.24508846E+04 0.32000000E+00 0.0000E+00 0.9000E+01
       -1 -1    0    0    0  501 0.00000000E+00 0.00000000E+00 -.43797062E+01 0.43913809E+01 0.32000000E+00 0.0000E+00 0.9000E+01
       25  1    1    2    0    0 -.36789124E+01 -.10804940E+01 0.16406109E+04 0.16453704E+04 0.12500000E+03 0.0000E+00 0.9000E+01
       24  1    1    2    0    0 0.36789124E+01 0.10804940E+01 0.80589396E+03 0.80990555E+03 0.80419002E+02 0.0000E+00 0.9000E+01
#aMCatNLO 1  0  0  1  1 0.48082652D+00 0.00000000D+00  -5  5  0 0.00000000D+00 0.00000000D+00 0.00000000D+00 0.00000000D+00 0.00000000D+00
  <mgrwgt>
 0.1565187225D+01    9    2    0
 0.103675031394680D+03 0.000000000000000D+00 0.000000000000000D+00 0.103675031394680D+03
 0.103675031394680D+03 0.000000000000000D+00 0.000000000000000D+00 -.103675031394680D+03
 0.125757937766723D+03 -.367891240571082D+01 -.108049400394051D+01 0.132422448080997D+02
 0.815921250226370D+02 0.367891240571082D+01 0.108049400394051D+01 -.132422448080997D+02
 0.000000000000000D+00 -.000000000000000D+00 0.000000000000000D+00 0.000000000000000D+00
 0.104137292870700D+03 0.000000000000000D+00 0.000000000000000D+00 0.104137292870700D+03
 0.103800419877804D+03 0.000000000000000D+00 0.000000000000000D+00 -.103800419877804D+03
 0.125751458075681D+03 -.341161989405919D+01 -.119708408251930D+01 0.132422448080997D+02
 0.815991622100998D+02 0.385234453097199D+01 0.100484480229493D+01 -.132422448080997D+02
 0.587092462722968D+00 -.440724636912794D+00 0.192239280224372D+00 0.336872992896463D+00
0.183367369970D-03 0.000000000000D+00 0.000000000000D+00 0.316575458014D-02 0.000000000000D+00  5 2 -1 25 24 21 0 0.37706006D+00 0.67470061D-03 0.10564669D+05 0.10564669D+05 0.10564669D+05 0.12655603D+01  1  2  2  1  5  1        2 0.287520839372D+00 0.100000000000D+01
-.101861544923D-04 0.000000000000D+00 -.704178982422D-06 0.316575458014D-02 0.000000000000D+00  5 2 -1 25 24 21 2 0.37706006D+00 0.67470061D-03 0.10564669D+05 0.10564669D+05 0.10564669D+05 0.12655603D+01  1  2  3  1  5  1        2 -.255813372276D-01 0.100000000000D+01
0.126183357574D-04 0.000000000000D+00 0.000000000000D+00 0.316575458014D-02 0.000000000000D+00  5 2 -1 25 24 21 2 0.37706006D+00 0.67470061D-03 0.10564669D+05 0.10564669D+05 0.10564669D+05 0.12655603D+01  1  2 15  1  5  1        2 0.316894763874D-01 0.100000000000D+01
-.942882573079D-02 0.000000000000D+00 0.000000000000D+00 0.316575458014D-02 0.000000000000D+00  5 2 -1 25 24 21 2 0.37706006D+00 0.67470061D-03 0.10564669D+05 0.10564669D+05 0.10564669D+05 0.12655603D+01  1  2  4  1  5  1        2 -.236793945018D+02 0.100000000000D+01
-.443961717420D-01 0.000000000000D+00 -.361678663964D-02 0.316575458014D-02 0.000000000000D+00  5 2 -1 25 24 21 2 0.37890471D+00 0.67470061D-03 0.10564669D+05 0.10564669D+05 0.10564669D+05 0.12655603D+01  1  2  5  1  5  1        2 -.109891674161D+03 0.100000000000D+01
0.444133368247D-01 0.000000000000D+00 0.361674356942D-02 0.316575458014D-02 0.000000000000D+00  5 2 -1 25 24 21 2 0.37706006D+00 0.67470061D-03 0.10564669D+05 0.10564669D+05 0.10564669D+05 0.12655603D+01  1  2  6  1  5  1        2 0.111538907796D+03 0.100000000000D+01
0.942892615417D-02 0.000000000000D+00 0.000000000000D+00 0.316575458014D-02 0.116923937263D+00  5 2 -1 25 24 21 2 0.37874128D+00 0.67551662D-03 0.10614212D+05 0.10614212D+05 0.10614212D+05 0.12653184D+01  1  2 11  1  5  1        2 0.233224036081D+02 0.100000000000D+01
-.402968964510D-04 0.000000000000D+00 -.328544990564D-05 0.316575458014D-02 0.000000000000D+00  5 21 -1 25 24 -2 2 0.37890471D+00 0.67470061D-03 0.10564669D+05 0.10564669D+05 0.10564669D+05 0.12655603D+01  1  2  5  3  5  1        2 -.239984109225D-01 0.100000000000D+01
0.892510268732D-05 0.000000000000D+00 0.000000000000D+00 0.316575458014D-02 0.969470966864D-04  5 21 -1 25 24 -2 2 0.37874128D+00 0.67551662D-03 0.10614212D+05 0.10614212D+05 0.10614212D+05 0.12653184D+01  1  2 11  3  5  1        2 0.531391551992D-02 0.100000000000D+01
  </mgrwgt>
  </event>
  <event>
  4     66 0.48098993E-03 0.22352720E+03 0.75467711E-02 0.10355987E+00
        2 -1    0    0  501    0 0.00000000E+00 0.00000000E+00 0.20590684E+04 0.20590684E+04 0.32000000E+00 0.0000E+00 0.9000E+01
       -1 -1    0    0    0  501 0.00000000E+00 0.00000000E+00 -.25889523E+02 0.25891501E+02 0.32000000E+00 0.0000E+00 0.9000E+01
       25  1    1    2    0    0 -.11735727E+03 0.15890399E+03 0.13211603E+04 0.13416828E+04 0.12500000E+03 0.0000E+00 0.9000E+01
       24  1    1    2    0    0 0.11735727E+03 -.15890399E+03 0.71201851E+03 0.74327706E+03 0.80419002E+02 0.0000E+00 0.9000E+01
#aMCatNLO 1  0  0  2  2 0.30785825D+03 0.00000000D+00  -5  5  0 0.00000000D+00 0.00000000D+00 0.00000000D+00 0.00000000D+00 0.00000000D+00
  <mgrwgt>
 0.5665058330D+00    3    2    0
 0.230890420561645D+03 0.000000000000000D+00 0.000000000000000D+00 0.230890420561645D+03
 0.230890420561645D+03 0.000000000000000D+00 0.000000000000000D+00 -.230890420561645D+03
 0.240806145977357D+03 -.117357273749325D+03 0.158903989761208D+03 0.577874750838257D+02
 0.220974695145934D+03 0.117357273749325D+03 -.158903989761208D+03 -.577874750838257D+02
 0.000000000000000D+00 0.000000000000000D+00 -.000000000000000D+00 0.000000000000000D+00
 0.665098760963747D+03 0.000000000000000D+00 0.000000000000000D+00 0.665098760963747D+03
 0.338627157547932D+03 0.000000000000000D+00 0.000000000000000D+00 -.338627157547932D+03
 0.369358662344210D+03 -.302078265877976D+03 0.161895492390293D+03 0.577874750838257D+02
 0.185635253990924D+03 -.573962103972515D+01 -.156910471427693D+03 -.577874750838257D+02
 0.448732002176544D+03 0.307817886917702D+03 -.498502096259934D+01 0.326471603415815D+03
0.284718434982D-02 0.000000000000D+00 0.000000000000D+00 0.196602372844D-02 0.000000000000D+00  5 2 -1 25 24 21 0 0.31677990D+00 0.39831576D-02 0.49964410D+05 0.49964410D+05 0.49964410D+05 0.11923124D+01  1  2  2  2  5  2       -1 0.556142115185D+00 0.100000000000D+01
-.157974892335D-03 0.000000000000D+00 -.109339375842D-04 0.196602372844D-02 0.000000000000D+00  5 2 -1 25 24 21 2 0.31677990D+00 0.39831576D-02 0.49964410D+05 0.49964410D+05 0.49964410D+05 0.11923124D+01  1  2  3  2  5  2       -1 -.438670445182D-01 0.100000000000D+01
0.195296923482D-03 0.000000000000D+00 0.000000000000D+00 0.196602372844D-02 0.000000000000D+00  5 2 -1 25 24 21 2 0.31677990D+00 0.39831576D-02 0.49964410D+05 0.49964410D+05 0.49964410D+05 0.11923124D+01  1  2 15  2  5  2       -1 0.542307623068D-01 0.100000000000D+01
  </mgrwgt>
  </event>
  <event>
  4     66 0.48098993E-03 0.12133267E+03 0.75467711E-02 0.97280032E-01
        2 -1    0    0  501    0 0.00000000E+00 0.00000000E+00 0.20519189E+03 0.20519214E+03 0.32000000E+00 0.0000E+00 0.9000E+01
       -1 -1    0    0    0  501 0.00000000E+00 0.00000000E+00 -.72308005E+02 0.72308713E+02 0.32000000E+00 0.0000E+00 0.9000E+01
       25  1    1    2    0    0 0.36359478E+02 -.52053268E+02 0.64598417E+02 0.15436810E+03 0.12500000E+03 0.0000E+00 0.9000E+01
       24  1    1    2    0    0 -.36359478E+02 0.52053268E+02 0.68285471E+02 0.12313276E+03 0.80419002E+02 0.0000E+00 0.9000E+01
#aMCatNLO 1  0  0  1  1 0.67251453D+03 0.00000000D+00  -5  5  0 0.00000000D+00 0.00000000D+00 0.00000000D+00 0.00000000D+00 0.00000000D+00
  <mgrwgt>
 0.3881612098D+00    3    2    0
 0.121807837689527D+03 0.000000000000000D+00 0.000000000000000D+00 0.121807837689527D+03
 0.121807837689527D+03 0.000000000000000D+00 0.000000000000000D+00 -.121807837689527D+03
 0.140603393499678D+03 0.363594780524688D+02 -.520532683841063D+02 -.106188450365181D+02
 0.103012281879375D+03 -.363594780524688D+02 0.520532683841063D+02 0.106188450365181D+02
 0.000000000000000D+00 0.000000000000000D+00 0.000000000000000D+00 -.000000000000000D+00
 0.459033743991409D+03 0.000000000000000D+00 0.000000000000000D+00 0.459033743991409D+03
 0.147278261653503D+04 0.000000000000000D+00 0.000000000000000D+00 -.147278261653503D+04
 0.314264396484189D+03 -.282633870275150D+03 -.560575276029128D+02 -.106188450365181D+02
 0.401014842260701D+03 -.389827680281265D+03 0.476162532715654D+02 0.106188450365181D+02
 0.121653712178155D+04 0.672461550556416D+03 0.844127433134740D+01 -.101374887254362D+04
0.416134617619D-03 0.000000000000D+00 0.000000000000D+00 0.273174914659D-02 0.000000000000D+00  5 2 -1 25 24 21 0 0.31568057D-01 0.11124382D-01 0.14721617D+05 0.14721617D+05 0.14721617D+05 0.12487511D+01  1  2  2  1  5  1        2 0.380133988744D+00 0.100000000000D+01
-.231181604486D-04 0.000000000000D+00 -.159806650242D-05 0.273174914659D-02 0.000000000000D+00  5 2 -1 25 24 21 2 0.31568057D-01 0.11124382D-01 0.14721617D+05 0.14721617D+05 0.14721617D+05 0.12487511D+01  1  2  3  1  5  1        2 -.329312250736D-01 0.100000000000D+01
0.287533769804D-04 0.000000000000D+00 0.000000000000D+00 0.273174914659D-02 0.000000000000D+00  5 2 -1 25 24 21 2 0.31568057D-01 0.11124382D-01 0.14721617D+05 0.14721617D+05 0.14721617D+05 0.12487511D+01  1  2 15  1  5  1        2 0.409584461131D-01 0.100000000000D+01
  </mgrwgt>
  </event>
  <event>
  4     66 0.48098993E-03 0.10612282E+03 0.75467711E-02 0.10702669E+00
        4 -1    0    0  501    0 0.00000000E+00 0.00000000E+00 0.52665042E+03 0.52665270E+03 0.15500000E+01 0.0000E+00 0.9000E+01
       -3 -1    0    0    0  501 0.00000000E+00 0.00000000E+00 -.41374602E+02 0.41377623E+02 0.50000000E+00 0.0000E+00 0.9000E+01
       25  1    1    2    0    0 0.15350711E+02 0.21112049E+02 0.46343435E+03 0.48070548E+03 0.12500000E+03 0.0000E+00 0.9000E+01
       24  1    1    2    0    0 -.15350711E+02 -.21112049E+02 0.21841471E+02 0.87324846E+02 0.80419002E+02 0.0000E+00 0.9000E+01
#aMCatNLO 1  0  0  1  1 0.29961172D+03 0.00000000D+00  -5  5  0 0.00000000D+00 0.00000000D+00 0.00000000D+00 0.00000000D+00 0.00000000D+00
  <mgrwgt>
 0.2211141486D-01    3    2    0
 0.147619299041935D+03 0.000000000000000D+00 0.000000000000000D+00 0.147619299041935D+03
 0.147619299041935D+03 0.000000000000000D+00 0.000000000000000D+00 -.147619299041935D+03
 0.163128423026848D+03 0.153507110810802D+02 0.211120487951380D+02 0.101511179011000D+03
 0.132110175057022D+03 -.153507110810802D+02 -.211120487951380D+02 -.101511179011000D+03
 0.000000000000000D+00 -.000000000000000D+00 -.000000000000000D+00 -.000000000000000D+00
 0.275881505955307D+03 0.000000000000000D+00 0.000000000000000D+00 0.275881505955307D+03
 0.552602928018669D+03 0.000000000000000D+00 0.000000000000000D+00 -.552602928018669D+03
 0.257578131145564D+03 0.692485941579343D+02 0.188736870768241D+03 0.101511179011000D+03
 0.163055928545673D+03 0.224638368085372D+02 0.964928829041662D+02 -.101511179011000D+03
 0.407850374282740D+03 -.917124309664715D+02 -.285229753672407D+03 -.276721422063362D+03
0.534016638720D-03 0.000000000000D+00 0.000000000000D+00 0.138266302150D-02 0.000000000000D+00  5 4 -3 25 24 21 0 0.81023549D-01 0.63657313D-02 0.11262053D+05 0.11262053D+05 0.11262053D+05 0.12622674D+01  1  2  2  1  5  1        4 0.214159639160D-01 0.100000000000D+01
-.257384666608D-04 0.000000000000D+00 -.205076450249D-05 0.138266302150D-02 0.000000000000D+00  5 4 -3 25 24 21 2 0.81023549D-01 0.63657313D-02 0.11262053D+05 0.11262053D+05 0.11262053D+05 0.12622674D+01  1  2  3  1  5  1        4 -.164463019279D-02 0.100000000000D+01
0.366222756977D-04 0.000000000000D+00 0.000000000000D+00 0.138266302150D-02 0.000000000000D+00  5 4 -3 25 24 21 2 0.81023549D-01 0.63657313D-02 0.11262053D+05 0.11262053D+05 0.11262053D+05 0.12622674D+01  1  2 15  1  5  1        4 0.234008113750D-02 0.100000000000D+01
  </mgrwgt>
  </event>
  <event>
  4     66 0.48098993E-03 0.74706599E+02 0.75467711E-02 0.12561720E+00
        2 -1    0    0  501    0 0.00000000E+00 0.00000000E+00 0.14185899E+04 0.14185899E+04 0.32000000E+00 0.0000E+00 0.9000E+01
       -1 -1    0    0    0  501 0.00000000E+00 0.00000000E+00 -.99513487E+01 0.99564924E+01 0.32000000E+00 0.0000E+00 0.9000E+01
       25  1    1    2    0    0 -.38056945E+02 -.73368708E+01 0.55352288E+03 0.56878356E+03 0.12500000E+03 0.0000E+00 0.9000E+01
       24  1    1    2    0    0 0.38056945E+02 0.73368708E+01 0.85511567E+03 0.85976287E+03 0.80419002E+02 0.0000E+00 0.9000E+01
#aMCatNLO 1  0  0  1  2 0.46566092D+01 0.00000000D+00  -5  5  0 0.00000000D+00 0.00000000D+00 0.00000000D+00 0.00000000D+00 0.00000000D+00
  <mgrwgt>
 0.7833778794D+00   11    2    0
 0.118830057079604D+03 0.000000000000000D+00 0.000000000000000D+00 0.118830057079604D+03
 0.118830057079604D+03 0.000000000000000D+00 0.000000000000000D+00 -.118830057079604D+03
 0.138096613603041D+03 -.380569447724544D+02 -.733687078162892D+01 -.440853033373662D+02
 0.995635005561682D+02 0.380569447724544D+02 0.733687078162892D+01 0.440853033373662D+02
 0.000000000000000D+00 0.000000000000000D+00 -.000000000000000D+00 0.000000000000000D+00
 0.121476047210732D+03 0.000000000000000D+00 0.000000000000000D+00 0.121476047210732D+03
 0.120919439446097D+03 0.000000000000000D+00 0.000000000000000D+00 -.120919439446097D+03
 0.138603001446291D+03 -.401364718584931D+02 -.559836282544596D+01 -.440853033373662D+02
 0.991027281259617D+02 0.365638750999434D+02 0.858509376570199D+01 0.440853033373662D+02
 0.468975708457634D+01 0.357259675854968D+01 -.298673094025604D+01 0.556607764634690D+00
0.148814157711D-03 0.000000000000D+00 0.000000000000D+00 0.247303982858D-02 0.000000000000D+00  5 2 -1 25 24 21 0 0.21824500D+00 0.15313752D-02 0.12115641D+05 0.12115641D+05 0.12115641D+05 0.12585362D+01  1  2  2  1  5  1        2 0.246972868031D+00 0.100000000000D+01
-.820852148202D-05 0.000000000000D+00 -.571485549278D-06 0.247303982858D-02 0.000000000000D+00  5 2 -1 25 24 21 2 0.21824500D+00 0.15313752D-02 0.12115641D+05 0.12115641D+05 0.12115641D+05 0.12585362D+01  1  2  3  1  5  1        2 -.215775132225D-01 0.100000000000D+01
0.101976451861D-04 0.000000000000D+00 0.000000000000D+00 0.247303982858D-02 0.000000000000D+00  5 2 -1 25 24 21 2 0.21824500D+00 0.15313752D-02 0.12115641D+05 0.12115641D+05 0.12115641D+05 0.12585362D+01  1  2 15  1  5  1        2 0.268062676479D-01 0.100000000000D+01
0.612273627883D-04 0.000000000000D+00 0.000000000000D+00 0.247303982858D-02 0.000000000000D+00  5 2 -1 25 24 21 2 0.22498527D+00 0.15313752D-02 0.12635874D+05 0.12635874D+05 0.12635874D+05 0.12564045D+01  1  2 12  1  5  1        2 0.152395222961D+00 0.100000000000D+01
-.536818612169D-03 0.000000000000D+00 0.000000000000D+00 0.247303982858D-02 0.000000000000D+00  5 2 -1 25 24 21 2 0.21824500D+00 0.15313752D-02 0.12115641D+05 0.12115641D+05 0.12115641D+05 0.12585362D+01  1  2  4  1  5  1        2 -.141112022762D+01 0.100000000000D+01
-.398132833147D-02 0.000000000000D+00 -.558508740691D-03 0.247303982858D-02 0.000000000000D+00  5 2 -1 25 24 21 2 0.22548896D+00 0.15313752D-02 0.12115641D+05 0.12115641D+05 0.12115641D+05 0.12585362D+01  1  2  5  1  5  1        2 -.989203342233D+01 0.100000000000D+01
0.399773147983D-02 0.000000000000D+00 0.558211128174D-03 0.247303982858D-02 0.000000000000D+00  5 2 -1 25 24 21 2 0.21824500D+00 0.15313752D-02 0.12115641D+05 0.12115641D+05 0.12115641D+05 0.12585362D+01  1  2  6  1  5  1        2 0.105087260909D+02 0.100000000000D+01
0.486337938614D-03 0.000000000000D+00 0.000000000000D+00 0.247303982858D-02 0.960572537179D-03  5 2 -1 25 24 21 2 0.22310466D+00 0.15583012D-02 0.12635874D+05 0.12635874D+05 0.12635874D+05 0.12564045D+01  1  2 11  1  5  1        2 0.119811726141D+01 0.100000000000D+01
0.117234454884D-05 0.000000000000D+00 0.000000000000D+00 0.247303982858D-02 0.000000000000D+00  5 21 -1 25 24 -2 2 0.22498527D+00 0.15313752D-02 0.12635874D+05 0.12635874D+05 0.12635874D+05 0.12564045D+01  1  2 12  3  5  1        2 0.158471541312D-02 0.100000000000D+01
-.230101696808D-04 0.000000000000D+00 -.325797564936D-05 0.247303982858D-02 0.000000000000D+00  5 21 -1 25 24 -2 2 0.22548896D+00 0.15313752D-02 0.12115641D+05 0.12115641D+05 0.12115641D+05 0.12585362D+01  1  2  5  3  5  1        2 -.310323385263D-01 0.100000000000D+01
0.335561960389D-05 0.000000000000D+00 0.000000000000D+00 0.247303982858D-02 0.388931604279D-05  5 21 -1 25 24 -2 2 0.22310466D+00 0.15583012D-02 0.12635874D+05 0.12635874D+05 0.12635874D+05 0.12564045D+01  1  2 11  3  5  1        2 0.453895472994D-02 0.100000000000D+01
  </mgrwgt>
  </event>
  <event>
  4     66 0.48098993E-03 0.84618679E+02 0.75467711E-02 0.12174257E+00
        2 -1    0    0  501    0 0.00000000E+00 0.00000000E+00 0.12083269E+04 0.12083269E+04 0.32000000E+00 0.0000E+00 0.9000E+01
       -1 -1    0    0    0  501 0.00000000E+00 0.00000000E+00 -.11356762E+02 0.11361269E+02 0.32000000E+00 0.0000E+00 0.9000E+01
       25  1    1    2    0    0 -.16323828E+02 -.52265903E+02 0.65698381E+03 0.67100739E+03 0.12500000E+03 0.0000E+00 0.9000E+01
       24  1    1    2    0    0 0.16323828E+02 0.52265903E+02 0.53998631E+03 0.54868080E+03 0.80419002E+02 0.0000E+00 0.9000E+01
#aMCatNLO 1  0  0  2  1 0.37281533D+02 0.00000000D+00  -5  5  0 0.00000000D+00 0.00000000D+00 0.00000000D+00 0.00000000D+00 0.00000000D+00
  <mgrwgt>
 0.3649485387D+00    9    2    0
 0.117155687320034D+03 0.000000000000000D+00 0.000000000000000D+00 0.117155687320034D+03
 0.117155687320034D+03 0.000000000000000D+00 0.000000000000000D+00 -.117155687320034D+03
 0.136697598291486D+03 -.163238276129053D+02 -.522659025262064D+02 -.793986548032175D+01
 0.976137763485815D+02 0.163238276129053D+02 0.522659025262064D+02 0.793986548032175D+01
 0.000000000000000D+00 0.000000000000000D+00 -.000000000000000D+00 -.000000000000000D+00
 0.126639883888296D+03 0.000000000000000D+00 0.000000000000000D+00 0.126639883888296D+03
 0.162007290469771D+03 0.000000000000000D+00 0.000000000000000D+00 -.162007290469771D+03
 0.135715102012811D+03 -.338760959250548D+02 -.397863993769057D+02 -.793986548032175D+01
 0.101543687038083D+03 0.349158730316556D+01 0.613895086898115D+02 0.793986548032175D+01
 0.513883853071721D+02 0.303845086218893D+02 -.216031093129058D+02 -.353674065814749D+02
0.170888697282D-03 0.000000000000D+00 0.000000000000D+00 0.282890623054D-02 0.000000000000D+00  5 2 -1 25 24 21 0 0.18589679D+00 0.17475441D-02 0.13660601D+05 0.13660601D+05 0.13660601D+05 0.12524802D+01  1  2  2  2  5  2       -1 0.305219451657D+00 0.100000000000D+01
-.949375177977D-05 0.000000000000D+00 -.656257593589D-06 0.282890623054D-02 0.000000000000D+00  5 2 -1 25 24 21 2 0.18589679D+00 0.17475441D-02 0.13660601D+05 0.13660601D+05 0.13660601D+05 0.12524802D+01  1  2  3  2  5  2       -1 -.265998060505D-01 0.100000000000D+01
0.118045675237D-04 0.000000000000D+00 0.000000000000D+00 0.282890623054D-02 0.000000000000D+00  5 2 -1 25 24 21 2 0.18589679D+00 0.17475441D-02 0.13660601D+05 0.13660601D+05 0.13660601D+05 0.12524802D+01  1  2 15  2  5  2       -1 0.330743012799D-01 0.100000000000D+01
0.164650947728D-03 0.000000000000D+00 0.000000000000D+00 0.282890623054D-02 0.000000000000D+00  5 2 -1 25 24 21 2 0.18589679D+00 0.24664877D-02 0.18768586D+05 0.18768586D+05 0.18768586D+05 0.12368760D+01  1  2 12  2  5  2       -1 0.276417340682D+00 0.100000000000D+01
-.178583002043D-03 0.000000000000D+00 0.000000000000D+00 0.282890623054D-02 0.000000000000D+00  5 2 -1 25 24 21 2 0.18589679D+00 0.17475441D-02 0.13660601D+05 0.13660601D+05 0.13660601D+05 0.12524802D+01  1  2  4  2  5  2       -1 -.500357848872D+00 0.100000000000D+01
-.242309682085D-03 0.000000000000D+00 -.666751162716D-04 0.282890623054D-02 0.000000000000D+00  5 2 -1 25 24 21 2 0.18589679D+00 0.26209511D-02 0.13660601D+05 0.13660601D+05 0.13660601D+05 0.12524802D+01  1  2  5  2  5  2       -1 -.378887835557D+00 0.100000000000D+01
0.253361619388D-03 0.000000000000D+00 0.615495570844D-04 0.282890623054D-02 0.000000000000D+00  5 2 -1 25 24 21 2 0.18589679D+00 0.17475441D-02 0.13660601D+05 0.13660601D+05 0.13660601D+05 0.12524802D+01  1  2  6  2  5  2       -1 0.709874251266D+00 0.100000000000D+01
0.703314677294D-05 0.000000000000D+00 0.000000000000D+00 0.282890623054D-02 0.000000000000D+00  5 2 21 25 24 1 2 0.18589679D+00 0.24664877D-02 0.18768586D+05 0.18768586D+05 0.18768586D+05 0.12368760D+01  1  2 12  4  5  2       -1 0.236311411836D+00 0.100000000000D+01
-.932978129828D-05 0.000000000000D+00 -.320472408200D-05 0.282890623054D-02 0.000000000000D+00  5 2 21 25 24 1 2 0.18589679D+00 0.26209511D-02 0.13660601D+05 0.13660601D+05 0.13660601D+05 0.12524802D+01  1  2  5  4  5  2       -1 -.290102727503D+00 0.100000000000D+01
  </mgrwgt>
  </event>
  <event>
  4     66 0.48098993E-03 0.10917498E+03 0.75467711E-02 0.10548298E+00
        2 -1    0    0  501    0 0.00000000E+00 0.00000000E+00 0.13602280E+03 0.13602317E+03 0.32000000E+00 0.0000E+00 0.9000E+01
       -1 -1    0    0    0  501 0.00000000E+00 0.00000000E+00 -.87683778E+02 0.87684362E+02 0.32000000E+00 0.0000E+00 0.9000E+01
       25  1    1    2    0    0 -.65396175E+01 0.35637909E+02 0.25979540E+02 0.13271309E+03 0.12500000E+03 0.0000E+00 0.9000E+01
       24  1    1    2    0    0 0.65396175E+01 -.35637909E+02 0.22359478E+02 0.90994447E+02 0.80419002E+02 0.0000E+00 0.9000E+01
#aMCatNLO 1  0  0  2  1 0.33739910D+03 0.00000000D+00  -5  5  0 0.00000000D+00 0.00000000D+00 0.00000000D+00 0.00000000D+00 0.00000000D+00
  <mgrwgt>
 0.4098050255D+00    3    2    0
 0.109211263684522D+03 0.000000000000000D+00 0.000000000000000D+00 0.109211263684522D+03
 0.109211263684522D+03 0.000000000000000D+00 0.000000000000000D+00 -.109211263684522D+03
 0.130174724175382D+03 -.653961751375566D+01 0.356379092568959D+02 -.276254243548274D+01
 0.882478031936622D+02 0.653961751375566D+01 -.356379092568959D+02 0.276254243548274D+01
 0.000000000000000D+00 0.000000000000000D+00 -.000000000000000D+00 0.000000000000000D+00
 0.525452334642459D+03 0.000000000000000D+00 0.000000000000000D+00 0.525452334642459D+03
 0.288670232304424D+03 0.000000000000000D+00 0.000000000000000D+00 -.288670232304424D+03
 0.268282680756322D+03 -.209527673761204D+03 0.111539764574384D+03 -.276254243548274D+01
 0.133645859893959D+03 -.106500729600643D+03 0.663044992802369D+01 0.276254243548274D+01
 0.412194026296602D+03 0.316028403361848D+03 -.118170214502408D+03 0.236782102338035D+03
0.379855273877D-03 0.000000000000D+00 0.000000000000D+00 0.303192205288D-02 0.000000000000D+00  5 2 -1 25 24 21 0 0.20926658D-01 0.13489886D-01 0.11919176D+05 0.11919176D+05 0.11919176D+05 0.12593682D+01  1  2  2  2  5  2       -1 0.401169277809D+00 0.100000000000D+01
-.211030679379D-04 0.000000000000D+00 -.145874426988D-05 0.303192205288D-02 0.000000000000D+00  5 2 -1 25 24 21 2 0.20926658D-01 0.13489886D-01 0.11919176D+05 0.11919176D+05 0.11919176D+05 0.12593682D+01  1  2  3  2  5  2       -1 -.353476519458D-01 0.100000000000D+01
0.262587362617D-04 0.000000000000D+00 0.000000000000D+00 0.303192205288D-02 0.000000000000D+00  5 2 -1 25 24 21 2 0.20926658D-01 0.13489886D-01 0.11919176D+05 0.11919176D+05 0.11919176D+05 0.12593682D+01  1  2 15  2  5  2       -1 0.439833996008D-01 0.100000000000D+01
  </mgrwgt>
  </event>
  <event>
  4     66 0.48098993E-03 0.11528108E+03 0.75467711E-02 0.12148912E+00
        2 -1    0    0  501    0 0.00000000E+00 0.00000000E+00 0.22481128E+03 0.22481150E+03 0.32000000E+00 0.0000E+00 0.9000E+01
       -1 -1    0    0    0  501 0.00000000E+00 0.00000000E+00 -.63524839E+02 0.63525645E+02 0.32000000E+00 0.0000E+00 0.9000E+01
       25  1    1    2    0    0 0.42904349E+02 -.28235497E+02 0.56112141E+02 0.14632703E+03 0.12500000E+03 0.0000E+00 0.9000E+01
       24  1    1    2    0    0 -.42904349E+02 0.28235497E+02 0.10517430E+03 0.14201012E+03 0.80419002E+02 0.0000E+00 0.9000E+01
#aMCatNLO 1  0  0  1  1 0.43002289D+02 0.00000000D+00  -5  5  0 0.00000000D+00 0.00000000D+00 0.00000000D+00 0.00000000D+00 0.00000000D+00
  <mgrwgt>
 0.2479224825D+00    4    2    0
 0.119504180752647D+03 0.000000000000000D+00 0.000000000000000D+00 0.119504180752647D+03
 0.119504180752647D+03 0.000000000000000D+00 0.000000000000000D+00 -.119504180752647D+03
 0.138662054535708D+03 0.429043485634236D+02 -.282354968273068D+02 -.310505871333728D+02
 0.100346306969586D+03 -.429043485634236D+02 0.282354968273068D+02 0.310505871333728D+02
 0.000000000000000D+00 0.000000000000000D+00 0.000000000000000D+00 -.000000000000000D+00
 0.131379208739719D+03 0.000000000000000D+00 0.000000000000000D+00 0.131379208739719D+03
 0.167856340839578D+03 0.000000000000000D+00 0.000000000000000D+00 -.167856340839578D+03
 0.133173560600329D+03 0.186448427777228D+02 -.282564703994713D+02 -.310505871333728D+02
 0.109672468288236D+03 -.616471159190670D+02 0.282192927550900D+02 0.310505871333728D+02
 0.563895206907331D+02 0.430022731413442D+02 0.371776443813209D-01 -.364771320998595D+02
0.322006097545D-03 0.000000000000D+00 0.000000000000D+00 0.262995000627D-02 0.000000000000D+00  5 2 -1 25 24 21 0 0.34586430D-01 0.97731317D-02 0.13289727D+05 0.13289727D+05 0.13289727D+05 0.12538611D+01  1  2  2  1  5  1        2 0.323694056927D+00 0.100000000000D+01
-.178610731217D-04 0.000000000000D+00 -.123658820073D-05 0.262995000627D-02 0.000000000000D+00  5 2 -1 25 24 21 2 0.34586430D-01 0.97731317D-02 0.13289727D+05 0.13289727D+05 0.13289727D+05 0.12538611D+01  1  2  3  1  5  1        2 -.282277994412D-01 0.100000000000D+01
0.222192510594D-04 0.000000000000D+00 0.000000000000D+00 0.262995000627D-02 0.000000000000D+00  5 2 -1 25 24 21 2 0.34586430D-01 0.97731317D-02 0.13289727D+05 0.13289727D+05 0.13289727D+05 0.12538611D+01  1  2 15  1  5  1        2 0.351155027677D-01 0.100000000000D+01
-.523024618663D-04 0.000000000000D+00 0.000000000000D+00 0.262995000627D-02 0.000000000000D+00  5 2 -1 25 24 21 2 0.34586430D-01 0.97731317D-02 0.13289727D+05 0.13289727D+05 0.13289727D+05 0.12538611D+01  1  2  4  1  5  1        2 -.826592777369D-01 0.100000000000D+01
  </mgrwgt>
  </event>
  <event>
  4     66 0.48098993E-03 0.86659890E+02 0.75467711E-02 0.11444655E+00
        2 -1    0    0  501    0 0.00000000E+00 0.00000000E+00 0.14798137E+04 0.14798138E+04 0.32000000E+00 0.0000E+00 0.9000E+01
       -1 -1    0    0    0  501 0.00000000E+00 0.00000000E+00 -.11942844E+02 0.11947130E+02 0.32000000E+00 0.0000E+00 0.9000E+01
       25  1    1    2    0    0 0.73261954E+02 -.39147692E+02 0.79985853E+03 0.81381725E+03 0.12500000E+03 0.0000E+00 0.9000E+01
       24  1    1    2    0    0 -.73261954E+02 0.39147692E+02 0.66801236E+03 0.67794365E+03 0.80419002E+02 0.0000E+00 0.9000E+01
#aMCatNLO 1  0  0  1  2 0.12087291D+03 0.00000000D+00  -5  5  0 0.00000000D+00 0.00000000D+00 0.00000000D+00 0.00000000D+00 0.00000000D+00
  <mgrwgt>
 0.3324915474D+00    7    2    0
 0.132952650889262D+03 0.000000000000000D+00 0.000000000000000D+00 0.132952650889262D+03
 0.132952650889262D+03 0.000000000000000D+00 0.000000000000000D+00 -.132952650889262D+03
 0.150172661141741D+03 0.732619544743293D+02 -.391476918864861D+02 -.519349602427436D+01
 0.115732640636783D+03 -.732619544743293D+02 0.391476918864861D+02 0.519349602427436D+01
 0.000000000000000D+00 -.000000000000000D+00 -.000000000000000D+00 0.000000000000000D+00
 0.265647988835278D+03 0.000000000000000D+00 0.000000000000000D+00 0.265647988835278D+03
 0.176583351662533D+03 0.000000000000000D+00 0.000000000000000D+00 -.176583351662533D+03
 0.189529120605544D+03 0.141826678192635D+03 -.124301451881930D+02 -.519349602427436D+01
 0.102559719306724D+03 -.292022640236093D+02 0.563163870009851D+02 0.519349602427436D+01
 0.150142500585543D+03 -.112624414169026D+03 -.438862418127921D+02 0.890646371727446D+02
0.290658388761D-03 0.000000000000D+00 0.000000000000D+00 0.257833397543D-02 0.000000000000D+00  5 2 -1 25 24 21 0 0.22766398D+00 0.18376930D-02 0.17648974D+05 0.17648974D+05 0.17648974D+05 0.12398503D+01  1  2  2  1  5  1        2 0.348684918908D+00 0.100000000000D+01
-.161476764238D-04 0.000000000000D+00 -.111620474495D-05 0.257833397543D-02 0.000000000000D+00  5 2 -1 25 24 21 2 0.22766398D+00 0.18376930D-02 0.17648974D+05 0.17648974D+05 0.17648974D+05 0.12398503D+01  1  2  3  1  5  1        2 -.297782296912D-01 0.100000000000D+01
0.201120593761D-04 0.000000000000D+00 0.000000000000D+00 0.257833397543D-02 0.000000000000D+00  5 2 -1 25 24 21 2 0.22766398D+00 0.18376930D-02 0.17648974D+05 0.17648974D+05 0.17648974D+05 0.12398503D+01  1  2 15  1  5  1        2 0.370890218470D-01 0.100000000000D+01
0.178482961947D-05 0.000000000000D+00 0.000000000000D+00 0.257833397543D-02 0.000000000000D+00  5 2 -1 25 24 21 2 0.46103598D+00 0.18376930D-02 0.42592498D+05 0.42592498D+05 0.42592498D+05 0.11992405D+01  1  2 12  1  5  1        2 0.478949571762D-03 0.100000000000D+01
-.111297372168D-03 0.000000000000D+00 -.843757295998D-04 0.257833397543D-02 0.000000000000D+00  5 2 -1 25 24 21 2 0.49539868D+00 0.18376930D-02 0.17648974D+05 0.17648974D+05 0.17648974D+05 0.12398503D+01  1  2  5  1  5  1        2 -.238927269360D-01 0.100000000000D+01
0.136210706381D-06 0.000000000000D+00 0.000000000000D+00 0.257833397543D-02 0.000000000000D+00  5 21 -1 25 24 -2 2 0.46103598D+00 0.18376930D-02 0.42592498D+05 0.42592498D+05 0.42592498D+05 0.11992405D+01  1  2 12  3  5  1        2 0.458919390648D-05 0.100000000000D+01
-.407293360720D-05 0.000000000000D+00 -.710538294614D-05 0.257833397543D-02 0.000000000000D+00  5 21 -1 25 24 -2 2 0.49539868D+00 0.18376930D-02 0.17648974D+05 0.17648974D+05 0.17648974D+05 0.12398503D+01  1  2  5  3  5  1        2 -.949755439176D-04 0.100000000000D+01
  </mgrwgt>
  </event>
  <event>
  4     66 0.48098993E-03 0.59891954E+02 0.75467711E-02 0.12193224E+00
        2 -1    0    0  501    0 0.00000000E+00 0.00000000E+00 0.25922551E+04 0.25922551E+04 0.32000000E+00 0.0000E+00 0.9000E+01
       -1 -1    0    0    0  501 0.00000000E+00 0.00000000E+00 -.53435515E+01 0.53531246E+01 0.32000000E+00 0.0000E+00 0.9000E+01
       25  1    1    2    0    0 0.12601862E+02 0.54871726E+02 0.15638815E+04 0.15698789E+04 0.12500000E+03 0.0000E+00 0.9000E+01
       24  1    1    2    0    0 -.12601862E+02 -.54871726E+02 0.10230301E+04 0.10277293E+04 0.80419002E+02 0.0000E+00 0.9000E+01
#aMCatNLO 1  0  0  1  2 0.33626357D+02 0.00000000D+00  -5  5  0 0.00000000D+00 0.00000000D+00 0.00000000D+00 0.00000000D+00 0.00000000D+00
  <mgrwgt>
 0.7425033450D+00    9    2    0
 0.117746794386833D+03 0.000000000000000D+00 0.000000000000000D+00 0.117746794386833D+03
 0.117746794386833D+03 0.000000000000000D+00 0.000000000000000D+00 -.117746794386833D+03
 0.137190601951444D+03 0.126018618408350D+02 0.548717263761774D+02 0.515247381767852D+01
 0.983029868222221D+02 -.126018618408350D+02 -.548717263761774D+02 -.515247381767852D+01
 0.000000000000000D+00 0.000000000000000D+00 -.000000000000000D+00 0.000000000000000D+00
 0.137596823345224D+03 0.000000000000000D+00 0.000000000000000D+00 0.137596823345224D+03
 0.134093754286783D+03 0.000000000000000D+00 0.000000000000000D+00 -.134093754286783D+03
 0.143627688100353D+03 0.268323296725868D+00 0.705499312913830D+02 0.515247381767852D+01
 0.942545564023691D+02 -.210589886215778D+02 -.441211566035075D+02 -.515247381767852D+01
 0.338083331292847D+02 0.207906653248519D+02 -.264287746878755D+02 0.350306905844076D+01
0.334609368950D-03 0.000000000000D+00 0.000000000000D+00 0.282316883360D-02 0.000000000000D+00  5 2 -1 25 24 21 0 0.39880921D+00 0.82282275D-03 0.13837014D+05 0.13837014D+05 0.13837014D+05 0.12518380D+01  1  2  2  1  5  1        2 0.334889180345D+00 0.100000000000D+01
-.185893874443D-04 0.000000000000D+00 -.128498808144D-05 0.282316883360D-02 0.000000000000D+00  5 2 -1 25 24 21 2 0.39880921D+00 0.82282275D-03 0.13837014D+05 0.13837014D+05 0.13837014D+05 0.12518380D+01  1  2  3  1  5  1        2 -.291557618221D-01 0.100000000000D+01
0.231530028336D-04 0.000000000000D+00 0.000000000000D+00 0.282316883360D-02 0.000000000000D+00  5 2 -1 25 24 21 2 0.39880921D+00 0.82282275D-03 0.13837014D+05 0.13837014D+05 0.13837014D+05 0.12518380D+01  1  2 15  1  5  1        2 0.363133770871D-01 0.100000000000D+01
0.213579633814D-03 0.000000000000D+00 0.000000000000D+00 0.282316883360D-02 0.000000000000D+00  5 2 -1 25 24 21 2 0.48961816D+00 0.82282275D-03 0.18397561D+05 0.18397561D+05 0.18397561D+05 0.12378391D+01  1  2 12  1  5  1        2 0.151838017184D+00 0.100000000000D+01
-.194747165746D-03 0.000000000000D+00 0.000000000000D+00 0.282316883360D-02 0.000000000000D+00  5 2 -1 25 24 21 2 0.39880921D+00 0.82282275D-03 0.13837014D+05 0.13837014D+05 0.13837014D+05 0.12518380D+01  1  2  4  1  5  1        2 -.305443199622D+00 0.100000000000D+01
-.622394171774D-03 0.000000000000D+00 -.173505739783D-03 0.282316883360D-02 0.000000000000D+00  5 2 -1 25 24 21 2 0.48775246D+00 0.82282275D-03 0.13837014D+05 0.13837014D+05 0.13837014D+05 0.12518380D+01  1  2  5  1  5  1        2 -.460777475865D+00 0.100000000000D+01
0.647614173004D-03 0.000000000000D+00 0.170047917548D-03 0.282316883360D-02 0.000000000000D+00  5 2 -1 25 24 21 2 0.39880921D+00 0.82282275D-03 0.13837014D+05 0.13837014D+05 0.13837014D+05 0.12518380D+01  1  2  6  1  5  1        2 0.101572387134D+01 0.100000000000D+01
0.623186038911D-05 0.000000000000D+00 0.000000000000D+00 0.282316883360D-02 0.000000000000D+00  5 21 -1 25 24 -2 2 0.48961816D+00 0.82282275D-03 0.18397561D+05 0.18397561D+05 0.18397561D+05 0.12378391D+01  1  2 12  3  5  1        2 0.498887943904D-03 0.100000000000D+01
-.158803040066D-04 0.000000000000D+00 -.499037396455D-05 0.282316883360D-02 0.000000000000D+00  5 21 -1 25 24 -2 2 0.48775246D+00 0.82282275D-03 0.13837014D+05 0.13837014D+05 0.13837014D+05 0.12518380D+01  1  2  5  3  5  1        2 -.138355156754D-02 0.100000000000D+01
  </mgrwgt>
  </event>
  <event>
  5     66 0.48098993E-03 0.13885141E+03 0.75467711E-02 0.11926065E+00
        2 -1    0    0  502    0 0.00000000E+00 0.00000000E+00 0.17325321E+04 0.17325321E+04 0.32000000E+00 0.0000E+00 0.9000E+01
       -1 -1    0    0    0  501 0.00000000E+00 0.00000000E+00 -.29345967E+02 0.29347712E+02 0.32000000E+00 0.0000E+00 0.9000E+01
       25  1    1    2    0    0 0.97622947E+00 0.10072498E+03 0.14781855E+04 0.14868772E+04 0.12500000E+03 0.0000E+00 0.9000E+01
       24  1    1    2    0    0 -.29433633E+02 -.82043017E+02 0.14026415E+03 0.18368082E+03 0.80419002E+02 0.0000E+00 0.9000E+01
       21  1    1    2  502  501 0.28457403E+02 -.18681963E+02 0.84736531E+02 0.91321858E+02 0.75000000E+00 0.0000E+00 0.9000E+01
#aMCatNLO 2  0  0  1  2 0.34041732D+02 0.00000000D+00  -5  5  0 0.00000000D+00 0.00000000D+00 0.00000000D+00 0.00000000D+00 0.00000000D+00
  <mgrwgt>
 0.1887746057D+00    1    2    0
 0.206292281911060D+03 0.000000000000000D+00 0.000000000000000D+00 0.206292281911060D+03
 0.206292281911060D+03 0.000000000000000D+00 0.000000000000000D+00 -.206292281911060D+03
 0.217390351069045D+03 0.160738056377895D+02 0.908135919393934D+02 0.152079219584092D+03
 0.195194212753076D+03 -.160738056377895D+02 -.908135919393934D+02 -.152079219584092D+03
 0.000000000000000D+00 0.000000000000000D+00 -.000000000000000D+00 -.000000000000000D+00
 0.218069785802367D+03 0.000000000000000D+00 0.000000000000000D+00 0.218069785802367D+03
 0.233148609419780D+03 0.000000000000000D+00 0.000000000000000D+00 -.233148609419780D+03
 0.221132457169230D+03 0.976229473252825D+00 0.100724979823331D+03 0.152079219584092D+03
 0.192854090725745D+03 -.294336325549504D+02 -.820430167692356D+02 -.152079219584092D+03
 0.372318473271723D+02 0.284574030816976D+02 -.186819630540953D+02 -.150788236174137D+02
0.523990877683D-03 0.000000000000D+00 0.000000000000D+00 0.103252394418D-02 0.721530673926D-05  5 2 -1 25 24 21 2 0.26653901D+00 0.45148240D-02 0.24519020D+05 0.24519020D+05 0.24519020D+05 0.12242032D+01  1  2  1  1  5  1        2 0.188774605685D+00 0.100000000000D+01
  </mgrwgt>
  </event>
  <event>
  5     66 0.48098993E-03 0.11082623E+03 0.75467711E-02 0.12195647E+00
        2 -1    0    0  501    0 0.00000000E+00 0.00000000E+00 0.24743065E+03 0.24743086E+03 0.32000000E+00 0.0000E+00 0.9000E+01
       -1 -1    0    0    0  502 0.00000000E+00 0.00000000E+00 -.98549115E+02 0.98549635E+02 0.32000000E+00 0.0000E+00 0.9000E+01
       25  1    1    2    0    0 -.31500195E+02 0.53734989E+02 0.10203612E+03 0.17296266E+03 0.12500000E+03 0.0000E+00 0.9000E+01
       24  1    1    2    0    0 -.70873494E+01 -.30961988E+02 0.79588359E+02 0.11751765E+03 0.80419002E+02 0.0000E+00 0.9000E+01
       21  1    1    2  501  502 0.38587544E+02 -.22773001E+02 -.32742940E+02 0.55500187E+02 0.75000000E+00 0.0000E+00 0.9000E+01
#aMCatNLO 2  0  0  2  1 0.44806340D+02 0.00000000D+00  -5  5  0 0.00000000D+00 0.00000000D+00 0.00000000D+00 0.00000000D+00 0.00000000D+00
  <mgrwgt>
 0.5227273895D-01    2    2    0
 0.111112274254307D+03 0.000000000000000D+00 0.000000000000000D+00 0.111112274254307D+03
 0.111112274254307D+03 0.000000000000000D+00 0.000000000000000D+00 -.111112274254307D+03
 0.131717072659993D+03 -.815487743303497D+01 0.399574102918769D+02 -.782882921877591D+01
 0.905074758486198D+02 0.815487743303497D+01 -.399574102918769D+02 0.782882921877591D+01
 0.000000000000000D+00 0.000000000000000D+00 -.000000000000000D+00 -.000000000000000D+00
 0.118810742518880D+03 0.000000000000000D+00 0.000000000000000D+00 0.118810742518880D+03
 0.205230835744893D+03 0.000000000000000D+00 0.000000000000000D+00 -.205230835744893D+03
 0.139878525499267D+03 -.315001946815491D+02 0.537349891963959D+02 -.782882921877591D+01
 0.868180957762109D+02 -.708734944366245D+01 -.309619881590872D+02 0.782882921877591D+01
 0.973449569882953D+02 0.385875441252116D+02 -.227730010373087D+02 -.864200932260122D+02
-.285953514715D-03 0.000000000000D+00 0.000000000000D+00 0.296940039980D-02 0.000000000000D+00  5 2 -1 25 24 21 2 0.35599347D-01 0.15225964D-01 0.18350766D+05 0.18350766D+05 0.18350766D+05 0.12379621D+01  1  2 13  2  5  2       -1 -.218003177896D+00 0.100000000000D+01
0.378280848202D-03 0.000000000000D+00 0.000000000000D+00 0.296940039980D-02 0.145219257126D-04  5 2 -1 25 24 21 2 0.38065866D-01 0.15161281D-01 0.18350766D+05 0.18350766D+05 0.18350766D+05 0.12379621D+01  1  2  1  2  5  2       -1 0.270275916844D+00 0.100000000000D+01
  </mgrwgt>
  </event>
  <event>
  4     66 0.48098993E-03 0.61363134E+02 0.75467711E-02 0.12179437E+00
        2 -1    0    0  501    0 0.00000000E+00 0.00000000E+00 0.22501684E+04 0.22501684E+04 0.32000000E+00 0.0000E+00 0.9000E+01
       -1 -1    0    0    0  501 0.00000000E+00 0.00000000E+00 -.14908752E+02 0.14912186E+02 0.32000000E+00 0.0000E+00 0.9000E+01
       25  1    1    2    0    0 -.61385347E+02 0.17002334E+02 0.35055302E+03 0.37758397E+03 0.12500000E+03 0.0000E+00 0.9000E+01
       24  1    1    2    0    0 0.61385347E+02 -.17002334E+02 0.18847066E+04 0.18874966E+04 0.80419002E+02 0.0000E+00 0.9000E+01
#aMCatNLO 1  0  0  1  2 0.30164100D+02 0.00000000D+00  -5  5  0 0.00000000D+00 0.00000000D+00 0.00000000D+00 0.00000000D+00 0.00000000D+00
  <mgrwgt>
 0.2997407908D+00    9    2    0
 0.183169638494075D+03 0.000000000000000D+00 0.000000000000000D+00 0.183169638494075D+03
 0.183169638494075D+03 0.000000000000000D+00 0.000000000000000D+00 -.183169638494075D+03
 0.195668685990319D+03 -.613853465362534D+02 0.170023338594754D+02 -.136396460918651D+03
 0.170670590997830D+03 0.613853465362534D+02 -.170023338594754D+02 0.136396460918651D+03
 0.000000000000000D+00 0.000000000000000D+00 -.000000000000000D+00 0.000000000000000D+00
 0.228039651257660D+03 0.000000000000000D+00 0.000000000000000D+00 0.228039651257660D+03
 0.188930020605819D+03 0.000000000000000D+00 0.000000000000000D+00 -.188930020605819D+03
 0.201463743833467D+03 -.776748046412758D+02 0.180352502672739D+02 -.136396460918651D+03
 0.166115280005920D+03 0.475711653611896D+02 -.161263750458654D+02 0.136396460918651D+03
 0.493906480240932D+02 0.301036392800862D+02 -.190887522140858D+01 0.391096306518408D+02
0.577286042298D-03 0.000000000000D+00 0.000000000000D+00 0.106029881883D-02 0.000000000000D+00  5 2 -1 25 24 21 0 0.34618002D+00 0.22939200D-02 0.14747938D+05 0.14747938D+05 0.14747938D+05 0.12486624D+01  1  2  2  1  5  1        2 0.202294827930D+00 0.100000000000D+01
-.254850382424D-04 0.000000000000D+00 -.221693040533D-05 0.106029881883D-02 0.000000000000D+00  5 2 -1 25 24 21 2 0.34618002D+00 0.22939200D-02 0.14747938D+05 0.14747938D+05 0.14747938D+05 0.12486624D+01  1  2  3  1  5  1        2 -.139241635043D-01 0.100000000000D+01
0.394382749556D-04 0.000000000000D+00 0.000000000000D+00 0.106029881883D-02 0.000000000000D+00  5 2 -1 25 24 21 2 0.34618002D+00 0.22939200D-02 0.14747938D+05 0.14747938D+05 0.14747938D+05 0.12486624D+01  1  2 15  1  5  1        2 0.215477404266D-01 0.100000000000D+01
0.120417028402D-02 0.000000000000D+00 0.000000000000D+00 0.106029881883D-02 0.000000000000D+00  5 2 -1 25 24 21 2 0.43549290D+00 0.22939200D-02 0.18666401D+05 0.18666401D+05 0.18666401D+05 0.12371391D+01  1  2 12  1  5  1        2 0.314562176541D+00 0.100000000000D+01
-.125792542534D-02 0.000000000000D+00 0.000000000000D+00 0.106029881883D-02 0.000000000000D+00  5 2 -1 25 24 21 2 0.34618002D+00 0.22939200D-02 0.14747938D+05 0.14747938D+05 0.14747938D+05 0.12486624D+01  1  2  4  1  5  1        2 -.687287934673D+00 0.100000000000D+01
-.160565037085D-02 0.000000000000D+00 -.293027529539D-03 0.106029881883D-02 0.000000000000D+00  5 2 -1 25 24 21 2 0.43475047D+00 0.22939200D-02 0.14747938D+05 0.14747938D+05 0.14747938D+05 0.12486624D+01  1  2  5  1  5  1        2 -.431487344588D+00 0.100000000000D+01
0.163718081162D-02 0.000000000000D+00 0.285584657623D-03 0.106029881883D-02 0.000000000000D+00  5 2 -1 25 24 21 2 0.34618002D+00 0.22939200D-02 0.14747938D+05 0.14747938D+05 0.14747938D+05 0.12486624D+01  1  2  6  1  5  1        2 0.894500258945D+00 0.100000000000D+01
0.382462628666D-04 0.000000000000D+00 0.000000000000D+00 0.106029881883D-02 0.000000000000D+00  5 21 -1 25 24 -2 2 0.43549290D+00 0.22939200D-02 0.18666401D+05 0.18666401D+05 0.18666401D+05 0.12371391D+01  1  2 12  3  5  1        2 0.161250153658D-02 0.100000000000D+01
-.465039972350D-04 0.000000000000D+00 -.925515918158D-05 0.106029881883D-02 0.000000000000D+00  5 21 -1 25 24 -2 2 0.43475047D+00 0.22939200D-02 0.14747938D+05 0.14747938D+05 0.14747938D+05 0.12486624D+01  1  2  5  3  5  1        2 -.207727184778D-02 0.100000000000D+01
  </mgrwgt>
  </event>
  <event>
  4     66 0.48098993E-03 0.52009084E+02 0.75467711E-02 0.12352892E+00
        2 -1    0    0  501    0 0.00000000E+00 0.00000000E+00 0.38612313E+03 0.38612326E+03 0.32000000E+00 0.0000E+00 0.9000E+01
       -1 -1    0    0    0  501 0.00000000E+00 0.00000000E+00 -.31430662E+02 0.31432291E+02 0.32000000E+00 0.0000E+00 0.9000E+01
       25  1    1    2    0    0 0.21911763E+02 -.25865065E+02 0.17419413E+03 0.21706617E+03 0.12500000E+03 0.0000E+00 0.9000E+01
       24  1    1    2    0    0 -.21911763E+02 0.25865065E+02 0.18049834E+03 0.20048938E+03 0.80419002E+02 0.0000E+00 0.9000E+01
#aMCatNLO 1  0  0  1  2 0.30785076D+02 0.00000000D+00  -5  5  0 0.00000000D+00 0.00000000D+00 0.00000000D+00 0.00000000D+00 0.00000000D+00
  <mgrwgt>
 0.4984072096D+00    9    2    0
 0.110165663003243D+03 0.000000000000000D+00 0.000000000000000D+00 0.110165663003243D+03
 0.110165663003243D+03 0.000000000000000D+00 0.000000000000000D+00 -.110165663003243D+03
 0.130947510531724D+03 0.219117630830012D+02 -.258650654358134D+02 -.193164060593936D+02
 0.893838154747625D+02 -.219117630830012D+02 0.258650654358134D+02 0.193164060593936D+02
 0.000000000000000D+00 0.000000000000000D+00 0.000000000000000D+00 0.000000000000000D+00
 0.128292100599042D+03 0.000000000000000D+00 0.000000000000000D+00 0.128292100599042D+03
 0.125126870399274D+03 0.000000000000000D+00 0.000000000000000D+00 -.125126870399274D+03
 0.134272359482193D+03 0.143985916214231D+02 -.427039054090284D+02 -.193164060593936D+02
 0.881992434826731D+02 -.269423513664082D+02 0.145902966502721D+02 0.193164060593936D+02
 0.309473680334508D+02 0.125437597449851D+02 0.281136087587563D+02 0.316523019976802D+01
0.175603177055D-03 0.000000000000D+00 0.000000000000D+00 0.292951103903D-02 0.000000000000D+00  5 2 -1 25 24 21 0 0.59403694D-01 0.48356220D-02 0.11749111D+05 0.11749111D+05 0.11749111D+05 0.12601010D+01  1  2  2  1  5  1        2 0.283289591435D+00 0.100000000000D+01
-.975261186784D-05 0.000000000000D+00 -.674362437270D-06 0.292951103903D-02 0.000000000000D+00  5 2 -1 25 24 21 2 0.59403694D-01 0.48356220D-02 0.11749111D+05 0.11749111D+05 0.11749111D+05 0.12601010D+01  1  2  3  1  5  1        2 -.249821542504D-01 0.100000000000D+01
0.121281106182D-04 0.000000000000D+00 0.000000000000D+00 0.292951103903D-02 0.000000000000D+00  5 2 -1 25 24 21 2 0.59403694D-01 0.48356220D-02 0.11749111D+05 0.11749111D+05 0.11749111D+05 0.12601010D+01  1  2 15  1  5  1        2 0.310671986475D-01 0.100000000000D+01
0.138990449180D-03 0.000000000000D+00 0.000000000000D+00 0.292951103903D-02 0.000000000000D+00  5 2 -1 25 24 21 2 0.72626667D-01 0.48356220D-02 0.15589865D+05 0.15589865D+05 0.15589865D+05 0.12459174D+01  1  2 12  1  5  1        2 0.284046387022D+00 0.100000000000D+01
-.126355505538D-03 0.000000000000D+00 0.000000000000D+00 0.292951103903D-02 0.000000000000D+00  5 2 -1 25 24 21 2 0.59403694D-01 0.48356220D-02 0.11749111D+05 0.11749111D+05 0.11749111D+05 0.12601010D+01  1  2  4  1  5  1        2 -.323670496941D+00 0.100000000000D+01
-.344421870534D-03 0.000000000000D+00 -.114297093748D-03 0.292951103903D-02 0.000000000000D+00  5 2 -1 25 24 21 2 0.77192243D-01 0.48356220D-02 0.11749111D+05 0.11749111D+05 0.11749111D+05 0.12601010D+01  1  2  5  1  5  1        2 -.666454148566D+00 0.100000000000D+01
0.365560141783D-03 0.000000000000D+00 0.110484968609D-03 0.292951103903D-02 0.000000000000D+00  5 2 -1 25 24 21 2 0.59403694D-01 0.48356220D-02 0.11749111D+05 0.11749111D+05 0.11749111D+05 0.12601010D+01  1  2  6  1  5  1        2 0.936413749832D+00 0.100000000000D+01
0.399233239671D-05 0.000000000000D+00 0.000000000000D+00 0.292951103903D-02 0.000000000000D+00  5 21 -1 25 24 -2 2 0.72626667D-01 0.48356220D-02 0.15589865D+05 0.15589865D+05 0.15589865D+05 0.12459174D+01  1  2 12  3  5  1        2 0.172470292948D-01 0.100000000000D+01
-.999647876878D-05 0.000000000000D+00 -.400319455462D-05 0.292951103903D-02 0.000000000000D+00  5 21 -1 25 24 -2 2 0.77192243D-01 0.48356220D-02 0.11749111D+05 0.11749111D+05 0.11749111D+05 0.12601010D+01  1  2  5  3  5  1        2 -.385499468987D-01 0.100000000000D+01
  </mgrwgt>
  </event>
  <event>
  4     66 0.48098993E-03 0.13844153E+03 0.75467711E-02 0.10303884E+00
        2 -1    0    0  501    0 0.00000000E+00 0.00000000E+00 0.73082111E+02 0.73082812E+02 0.32000000E+00 0.0000E+00 0.9000E+01
       -1 -1    0    0    0  501 0.00000000E+00 0.00000000E+00 -.14193986E+04 0.14193986E+04 0.32000000E+00 0.0000E+00 0.9000E+01
       25  1    1    2    0    0 0.24524227E+03 0.17916838E+03 -.63659430E+03 0.71632561E+03 0.12500000E+03 0.0000E+00 0.9000E+01
       24  1    1    2    0    0 -.24524227E+03 -.17916838E+03 -.70972219E+03 0.77615583E+03 0.80419002E+02 0.0000E+00 0.9000E+01
#aMCatNLO 1  0  0  1  2 0.20715986D+03 0.00000000D+00  -5  5  0 0.00000000D+00 0.00000000D+00 0.00000000D+00 0.00000000D+00 0.00000000D+00
  <mgrwgt>
 0.2068605614D+00    7    2    0
 0.322076382297322D+03 0.000000000000000D+00 0.000000000000000D+00 0.322076382297322D+03
 0.322076382297322D+03 0.000000000000000D+00 0.000000000000000D+00 -.322076382297322D+03
 0.329184776880858D+03 0.245242268446971D+03 0.179168383785415D+03 0.221931824848672D+02
 0.314967987713785D+03 -.245242268446971D+03 -.179168383785415D+03 -.221931824848672D+02
 0.000000000000000D+00 -.000000000000000D+00 0.000000000000000D+00 0.000000000000000D+00
 0.544596231891349D+03 0.000000000000000D+00 0.000000000000000D+00 0.544596231891349D+03
 0.390334733555428D+03 0.000000000000000D+00 0.000000000000000D+00 -.390334733555428D+03
 0.362109609897653D+03 0.322933530044332D+03 0.103536309594894D+03 0.221931824848672D+02
 0.314535046861953D+03 -.174495440654160D+03 -.248040084647994D+03 -.221931824848672D+02
 0.258286308687172D+03 -.148438089390172D+03 0.144503775053100D+03 0.154261498335921D+03
0.336027087936D-01 0.000000000000D+00 0.000000000000D+00 0.198453591131D-02 0.000000000000D+00  5 2 -1 25 24 21 0 0.11243458D-01 0.21836907D+00 0.10324042D+06 0.10324042D+06 0.10324042D+06 0.11623015D+01  1  2  2  1  5  1        2 0.266210863102D+00 0.100000000000D+01
-.186680428875D-02 0.000000000000D+00 -.129043249564D-03 0.198453591131D-02 0.000000000000D+00  5 2 -1 25 24 21 2 0.11243458D-01 0.21836907D+00 0.10324042D+06 0.10324042D+06 0.10324042D+06 0.11623015D+01  1  2  3  1  5  1        2 -.199796507221D-01 0.100000000000D+01
0.231865321085D-02 0.000000000000D+00 0.000000000000D+00 0.198453591131D-02 0.000000000000D+00  5 2 -1 25 24 21 2 0.11243458D-01 0.21836907D+00 0.10324042D+06 0.10324042D+06 0.10324042D+06 0.11623015D+01  1  2 15  1  5  1        2 0.248156068514D-01 0.100000000000D+01
0.687361686989D-02 0.000000000000D+00 0.000000000000D+00 0.198453591131D-02 0.000000000000D+00  5 2 -1 25 24 21 2 0.19521733D-01 0.21836907D+00 0.19463090D+06 0.19463090D+06 0.19463090D+06 0.11379035D+01  1  2 12  1  5  1        2 0.356725498632D-01 0.100000000000D+01
-.203883556664D-01 0.000000000000D+00 -.126615007810D-01 0.198453591131D-02 0.000000000000D+00  5 2 -1 25 24 21 2 0.23195659D-01 0.21836907D+00 0.10324042D+06 0.10324042D+06 0.10324042D+06 0.11623015D+01  1  2  5  1  5  1        2 -.923331094597D-01 0.100000000000D+01
0.419858572239D-03 0.000000000000D+00 0.000000000000D+00 0.198453591131D-02 0.000000000000D+00  5 21 -1 25 24 -2 2 0.19521733D-01 0.21836907D+00 0.19463090D+06 0.19463090D+06 0.19463090D+06 0.11379035D+01  1  2 12  3  5  1        2 0.144851318560D-01 0.100000000000D+01
-.820073595621D-03 0.000000000000D+00 -.991474249312D-03 0.198453591131D-02 0.000000000000D+00  5 21 -1 25 24 -2 2 0.23195659D-01 0.21836907D+00 0.10324042D+06 0.10324042D+06 0.10324042D+06 0.11623015D+01  1  2  5  3  5  1        2 -.220108301233D-01 0.100000000000D+01
  </mgrwgt>
  </event>
  <event>
  4     66 0.48098993E-03 0.11547086E+03 0.75467711E-02 0.12038857E+00
        2 -1    0    0  501    0 0.00000000E+00 0.00000000E+00 0.28710309E+02 0.28712092E+02 0.32000000E+00 0.0000E+00 0.9000E+01
       -1 -1    0    0    0  501 0.00000000E+00 0.00000000E+00 -.46570844E+03 0.46570855E+03 0.32000000E+00 0.0000E+00 0.9000E+01
       25  1    1    2    0    0 0.42875079E+02 -.29021558E+02 -.26882318E+03 0.30095087E+03 0.12500000E+03 0.0000E+00 0.9000E+01
       24  1    1    2    0    0 -.42875079E+02 0.29021558E+02 -.16817495E+03 0.19346977E+03 0.80419002E+02 0.0000E+00 0.9000E+01
#aMCatNLO 1  0  0  1  2 0.56703969D+02 0.00000000D+00  -5  5  0 0.00000000D+00 0.00000000D+00 0.00000000D+00 0.00000000D+00 0.00000000D+00
  <mgrwgt>
 0.1911841323D+00    7    2    0
 0.115633478203964D+03 0.000000000000000D+00 0.000000000000000D+00 0.115633478203964D+03
 0.115633478203964D+03 0.000000000000000D+00 0.000000000000000D+00 -.115633478203964D+03
 0.135432640582952D+03 0.428750794355225D+02 -.290215575775670D+02 -.603961045437165D+01
 0.958343158249773D+02 -.428750794355225D+02 0.290215575775670D+02 0.603961045437165D+01
 0.000000000000000D+00 0.000000000000000D+00 -.000000000000000D+00 0.000000000000000D+00
 0.148618704956184D+03 0.000000000000000D+00 0.000000000000000D+00 0.148618704956184D+03
 0.146251727138883D+03 0.000000000000000D+00 0.000000000000000D+00 -.146251727138883D+03
 0.129152925232346D+03 0.319061108257617D+02 0.100064659377845D+01 -.603961045437165D+01
 0.108964157698601D+03 -.513654444351584D+02 0.522597926912577D+02 0.603961045437165D+01
 0.567533491641190D+02 0.194593336093967D+02 -.532604392850361D+02 0.236697781730059D+01
0.502759176566D-03 0.000000000000D+00 0.000000000000D+00 0.286622512036D-02 0.000000000000D+00  5 2 -1 25 24 21 0 0.44171162D-02 0.71647598D-01 0.13333519D+05 0.13333519D+05 0.13333519D+05 0.12536958D+01  1  2  2  1  5  1        2 0.206337422028D+00 0.100000000000D+01
-.279309981055D-04 0.000000000000D+00 -.193072761755D-05 0.286622512036D-02 0.000000000000D+00  5 2 -1 25 24 21 2 0.44171162D-02 0.71647598D-01 0.13333519D+05 0.13333519D+05 0.13333519D+05 0.12536958D+01  1  2  3  1  5  1        2 -.180172614713D-01 0.100000000000D+01
0.347164311389D-04 0.000000000000D+00 0.000000000000D+00 0.286622512036D-02 0.000000000000D+00  5 2 -1 25 24 21 2 0.44171162D-02 0.71647598D-01 0.13333519D+05 0.13333519D+05 0.13333519D+05 0.12536958D+01  1  2 15  1  5  1        2 0.223942952133D-01 0.100000000000D+01
-.210778032055D-03 0.000000000000D+00 0.000000000000D+00 0.286622512036D-02 0.000000000000D+00  5 2 -1 25 24 21 2 0.44171162D-02 0.71647598D-01 0.13333519D+05 0.13333519D+05 0.13333519D+05 0.12536958D+01  1  2  4  1  5  1        2 -.135965170367D+00 0.100000000000D+01
-.371514338058D-03 0.000000000000D+00 -.224564196391D-03 0.286622512036D-02 0.000000000000D+00  5 2 -1 25 24 21 2 0.71820954D-02 0.71647598D-01 0.13333519D+05 0.13333519D+05 0.13333519D+05 0.12536958D+01  1  2  5  1  5  1        2 -.128183110107D+00 0.100000000000D+01
0.450537795004D-03 0.000000000000D+00 0.200415433040D-03 0.286622512036D-02 0.000000000000D+00  5 2 -1 25 24 21 2 0.44171162D-02 0.71647598D-01 0.13333519D+05 0.13333519D+05 0.13333519D+05 0.12536958D+01  1  2  6  1  5  1        2 0.290625391352D+00 0.100000000000D+01
-.106800377697D-04 0.000000000000D+00 -.123836691285D-04 0.286622512036D-02 0.000000000000D+00  5 21 -1 25 24 -2 2 0.71820954D-02 0.71647598D-01 0.13333519D+05 0.13333519D+05 0.13333519D+05 0.12536958D+01  1  2  5  3  5  1        2 -.460074343915D-01 0.100000000000D+01
  </mgrwgt>
  </event>
  <event>
  4     66 0.48098993E-03 0.17717097E+03 0.75467711E-02 0.11219846E+00
        4 -1    0    0  501    0 0.00000000E+00 0.00000000E+00 0.11276014E+03 0.11277079E+03 0.15500000E+01 0.0000E+00 0.9000E+01
       -3 -1    0    0    0  501 0.00000000E+00 0.00000000E+00 -.28554154E+03 0.28554198E+03 0.50000000E+00 0.0000E+00 0.9000E+01
       25  1    1    2    0    0 0.53047799E+02 0.13302767E+03 -.12404519E+03 0.22698599E+03 0.12500000E+03 0.0000E+00 0.9000E+01
       24  1    1    2    0    0 -.53047799E+02 -.13302767E+03 -.48736218E+02 0.17132678E+03 0.80419002E+02 0.0000E+00 0.9000E+01
#aMCatNLO 1  0  0  1  2 0.10413190D+03 0.00000000D+00  -5  5  0 0.00000000D+00 0.00000000D+00 0.00000000D+00 0.00000000D+00 0.00000000D+00
  <mgrwgt>
 0.6151286796D-01    3    2    0
 0.179443338779667D+03 0.000000000000000D+00 0.000000000000000D+00 0.179443338779667D+03
 0.179443338779667D+03 0.000000000000000D+00 0.000000000000000D+00 -.179443338779667D+03
 0.192201940057246D+03 0.530477992599640D+02 0.133027671967941D+03 -.283928731591867D+02
 0.166684737502088D+03 -.530477992599640D+02 -.133027671967941D+03 0.283928731591867D+02
 0.000000000000000D+00 -.000000000000000D+00 0.000000000000000D+00 -.000000000000000D+00
 0.205371206755327D+03 0.000000000000000D+00 0.000000000000000D+00 0.205371206755327D+03
 0.333164198593379D+03 0.000000000000000D+00 0.000000000000000D+00 -.333164198593379D+03
 0.182031854408977D+03 0.889460726502370D+02 0.937711945825367D+02 -.283928731591867D+02
 0.191656650917927D+03 -.186740005310181D+02 -.170617063462713D+03 0.283928731591867D+02
 0.164846900021802D+03 -.702720721192189D+02 0.768458688801762D+02 -.127792991838051D+03
0.195245348812D-02 0.000000000000D+00 0.000000000000D+00 0.218384154694D-02 0.000000000000D+00  5 4 -3 25 24 21 0 0.17348566D-01 0.43930321D-01 0.31389554D+05 0.31389554D+05 0.31389554D+05 0.12128400D+01  1  2  2  1  5  1        4 0.603182091697D-01 0.100000000000D+01
-.108448218211D-03 0.000000000000D+00 -.749793548721D-05 0.218384154694D-02 0.000000000000D+00  5 4 -3 25 24 21 2 0.17348566D-01 0.43930321D-01 0.31389554D+05 0.31389554D+05 0.31389554D+05 0.12128400D+01  1  2  3  1  5  1        4 -.492830059551D-02 0.100000000000D+01
0.134736918547D-03 0.000000000000D+00 0.000000000000D+00 0.218384154694D-02 0.000000000000D+00  5 4 -3 25 24 21 2 0.17348566D-01 0.43930321D-01 0.31389554D+05 0.31389554D+05 0.31389554D+05 0.12128400D+01  1  2 15  1  5  1        4 0.612295938895D-02 0.100000000000D+01
  </mgrwgt>
  </event>
  <event>
  4     66 0.48098993E-03 0.11564282E+03 0.75467711E-02 0.12394668E+00
        2 -1    0    0  501    0 0.00000000E+00 0.00000000E+00 0.40628838E+03 0.40628851E+03 0.32000000E+00 0.0000E+00 0.9000E+01
       -1 -1    0    0    0  501 0.00000000E+00 0.00000000E+00 -.32914891E+02 0.32916446E+02 0.32000000E+00 0.0000E+00 0.9000E+01
       25  1    1    2    0    0 0.50047928E+02 -.14639046E+02 0.21824660E+03 0.25685731E+03 0.12500000E+03 0.0000E+00 0.9000E+01
       24  1    1    2    0    0 -.50047928E+02 0.14639046E+02 0.15512689E+03 0.18234765E+03 0.80419002E+02 0.0000E+00 0.9000E+01
#aMCatNLO 1  0  0  2  2 0.12814790D+02 0.00000000D+00  -5  5  0 0.00000000D+00 0.00000000D+00 0.00000000D+00 0.00000000D+00 0.00000000D+00
  <mgrwgt>
 0.1024491966D+00    4    2    0
 0.115643015293466D+03 0.000000000000000D+00 0.000000000000000D+00 0.115643015293466D+03
 0.115643015293466D+03 0.000000000000000D+00 0.000000000000000D+00 -.115643015293466D+03
 0.135440544833814D+03 0.500479284213835D+02 -.146390461543848D+02 -.210649705178247D+00
 0.958454857531170D+02 -.500479284213835D+02 0.146390461543848D+02 0.210649705178247D+00
 0.000000000000000D+00 -.000000000000000D+00 0.000000000000000D+00 0.000000000000000D+00
 0.127092868487100D+03 0.000000000000000D+00 0.000000000000000D+00 0.127092868487100D+03
 0.119462414493134D+03 0.000000000000000D+00 0.000000000000000D+00 -.119462414493134D+03
 0.137514830804661D+03 0.531140089741607D+02 -.215449847674344D+02 -.210649705178247D+00
 0.941259401844672D+02 -.479139983117891D+02 0.983265242541091D+01 0.210649705178247D+00
 0.149145119911054D+02 -.520001066237159D+01 0.117123323420235D+02 0.763045399396638D+01
0.215646051607D-03 0.000000000000D+00 0.000000000000D+00 0.287270131072D-02 0.000000000000D+00  5 2 -1 25 24 21 0 0.62506034D-01 0.50639587D-02 0.13373261D+05 0.13373261D+05 0.13373261D+05 0.12535463D+01  1  2  2  2  5  2       -1 0.309691057058D+00 0.100000000000D+01
-.119803362003D-04 0.000000000000D+00 -.828137619079D-06 0.287270131072D-02 0.000000000000D+00  5 2 -1 25 24 21 2 0.62506034D-01 0.50639587D-02 0.13373261D+05 0.13373261D+05 0.13373261D+05 0.12535463D+01  1  2  3  2  5  2       -1 -.270356566557D-01 0.100000000000D+01
0.149216358461D-04 0.000000000000D+00 0.000000000000D+00 0.287270131072D-02 0.000000000000D+00  5 2 -1 25 24 21 2 0.62506034D-01 0.50639587D-02 0.13373261D+05 0.13373261D+05 0.13373261D+05 0.12535463D+01  1  2 15  2  5  2       -1 0.336731972066D-01 0.100000000000D+01
-.947765820036D-04 0.000000000000D+00 0.000000000000D+00 0.287270131072D-02 0.000000000000D+00  5 2 -1 25 24 21 2 0.62506034D-01 0.50639587D-02 0.13373261D+05 0.13373261D+05 0.13373261D+05 0.12535463D+01  1  2  4  2  5  2       -1 -.213879400979D+00 0.100000000000D+01
  </mgrwgt>
  </event>
  <event>
  5     66 -.48098993E-03 0.10359176E+03 0.75467711E-02 0.12623206E+00
        2 -1    0    0  502    0 0.00000000E+00 0.00000000E+00 0.53590578E+02 0.53591534E+02 0.32000000E+00 0.0000E+00 0.9000E+01
       -1 -1    0    0    0  501 0.00000000E+00 0.00000000E+00 -.24896276E+03 0.24896296E+03 0.32000000E+00 0.0000E+00 0.9000E+01
       25  1    1    2    0    0 -.16827064E+01 -.17474719E+02 -.63128515E+02 0.14113259E+03 0.12500000E+03 0.0000E+00 0.9000E+01
       24  1    1    2    0    0 -.57193958E+01 0.97750307E+01 -.12230744E+03 0.14681481E+03 0.80419002E+02 0.0000E+00 0.9000E+01
       21  1    1    2  502  501 0.74021022E+01 0.76996886E+01 -.99362200E+01 0.14607097E+02 0.75000000E+00 0.0000E+00 0.9000E+01
#aMCatNLO 2  0  0  1  2 0.10680652D+02 0.00000000D+00  -5  5  0 0.00000000D+00 0.00000000D+00 0.00000000D+00 0.00000000D+00 0.00000000D+00
  <mgrwgt>
 -.2832818757D+00    3    2    0
 0.110014923444929D+03 0.000000000000000D+00 0.000000000000000D+00 0.110014923444929D+03
 0.110014923444929D+03 0.000000000000000D+00 0.000000000000000D+00 -.110014923444929D+03
 0.130825245715011D+03 0.272447438569910D+01 -.128903568571200D+02 0.362858216912706D+02
 0.892046011748466D+02 -.272447438569910D+01 0.128903568571200D+02 -.362858216912706D+02
 0.000000000000000D+00 0.000000000000000D+00 0.000000000000000D+00 -.000000000000000D+00
 0.115150047504907D+03 0.000000000000000D+00 0.000000000000000D+00 0.115150047504907D+03
 0.115841913009935D+03 0.000000000000000D+00 0.000000000000000D+00 -.115841913009935D+03
 0.131338715444524D+03 -.168270641407573D+01 -.174747193949129D+02 0.362858216912706D+02
 0.889502081183555D+02 -.571939577547301D+01 0.977503074578477D+01 -.362858216912706D+02
 0.107030369519629D+02 0.740210218954874D+01 0.769968864912812D+01 -.691865505028112D+00
-.938800293402D-03 0.000000000000D+00 0.000000000000D+00 0.273637177561D-02 0.000000000000D+00  5 2 -1 25 24 21 2 0.84423634D-02 0.36371279D-01 0.11894081D+05 0.11894081D+05 0.11894081D+05 0.12594756D+01  1  2 13  1  5  1        2 -.921399710903D+00 0.100000000000D+01
-.433120945122D-05 0.000000000000D+00 0.000000000000D+00 0.273637177561D-02 0.000000000000D+00  5 2 -1 25 24 21 2 0.78762215D-02 0.36371279D-01 0.10731253D+05 0.10731253D+05 0.10731253D+05 0.12647520D+01  1  2  8  1  5  1        2 -.465441671798D-02 0.100000000000D+01
0.694970046309D-03 0.000000000000D+00 0.000000000000D+00 0.273637177561D-02 0.203460857661D-03  5 2 -1 25 24 21 2 0.82438568D-02 0.38297700D-01 0.11894081D+05 0.11894081D+05 0.11894081D+05 0.12594756D+01  1  2  1  1  5  1        2 0.642772251913D+00 0.100000000000D+01
  </mgrwgt>
  </event>
  <event>
  4     66 0.48098993E-03 0.10515340E+03 0.75467711E-02 0.12038471E+00
        2 -1    0    0  501    0 0.00000000E+00 0.00000000E+00 0.14701362E+02 0.14704844E+02 0.32000000E+00 0.0000E+00 0.9000E+01
       -1 -1    0    0    0  501 0.00000000E+00 0.00000000E+00 -.78001654E+03 0.78001660E+03 0.32000000E+00 0.0000E+00 0.9000E+01
       25  1    1    2    0    0 -.14372302E+02 0.16691459E+02 -.38535127E+03 0.40571637E+03 0.12500000E+03 0.0000E+00 0.9000E+01
       24  1    1    2    0    0 0.14372302E+02 -.16691459E+02 -.37996390E+03 0.38900508E+03 0.80419002E+02 0.0000E+00 0.9000E+01
#aMCatNLO 1  0  0  2  2 0.72175875D+02 0.00000000D+00  -5  5  0 0.00000000D+00 0.00000000D+00 0.00000000D+00 0.00000000D+00 0.00000000D+00
  <mgrwgt>
 0.2689999694D+00    4    2    0
 0.107092086399737D+03 0.000000000000000D+00 0.000000000000000D+00 0.107092086399737D+03
 0.107092086399737D+03 0.000000000000000D+00 0.000000000000000D+00 -.107092086399737D+03
 0.128470379496592D+03 -.143723015903068D+02 0.166914586192980D+02 0.198612830440534D+02
 0.857137933028810D+02 0.143723015903068D+02 -.166914586192980D+02 -.198612830440534D+02
 0.000000000000000D+00 0.000000000000000D+00 0.000000000000000D+00 0.000000000000000D+00
 0.160177558234053D+03 0.000000000000000D+00 0.000000000000000D+00 0.160177558234053D+03
 0.140619466078465D+03 0.000000000000000D+00 0.000000000000000D+00 -.140619466078465D+03
 0.131634471878200D+03 -.270279372762270D+02 -.240344383976210D+02 0.198612830440534D+02
 0.943837060859280D+02 0.560949563661947D+01 -.448902106777307D+02 -.198612830440534D+02
 0.747788463483898D+02 0.214184416396075D+02 0.689246490753517D+02 0.195580921555873D+02
0.110636896768D-02 0.000000000000D+00 0.000000000000D+00 0.300750825762D-02 0.000000000000D+00  5 2 -1 25 24 21 0 0.22620209D-02 0.12000282D+00 0.11057237D+05 0.11057237D+05 0.11057237D+05 0.12632102D+01  1  2  2  2  5  2       -1 0.364861239955D+00 0.100000000000D+01
-.614400005400D-04 0.000000000000D+00 -.424874814954D-05 0.300750825762D-02 0.000000000000D+00  5 2 -1 25 24 21 2 0.22620209D-02 0.12000282D+00 0.11057237D+05 0.11057237D+05 0.11057237D+05 0.12632102D+01  1  2  3  2  5  2       -1 -.323318224140D-01 0.100000000000D+01
0.763872188839D-04 0.000000000000D+00 0.000000000000D+00 0.300750825762D-02 0.000000000000D+00  5 2 -1 25 24 21 2 0.22620209D-02 0.12000282D+00 0.11057237D+05 0.11057237D+05 0.11057237D+05 0.12632102D+01  1  2 15  2  5  2       -1 0.401975581698D-01 0.100000000000D+01
-.197111911649D-03 0.000000000000D+00 0.000000000000D+00 0.300750825762D-02 0.000000000000D+00  5 2 -1 25 24 21 2 0.22620209D-02 0.12000282D+00 0.11057237D+05 0.11057237D+05 0.11057237D+05 0.12632102D+01  1  2  4  2  5  2       -1 -.103727006301D+00 0.100000000000D+01
  </mgrwgt>
  </event>
  <event>
  4     66 0.48098993E-03 0.10591231E+03 0.75467711E-02 0.11753624E+00
        2 -1    0    0  501    0 0.00000000E+00 0.00000000E+00 0.15512527E+04 0.15512528E+04 0.32000000E+00 0.0000E+00 0.9000E+01
       -1 -1    0    0    0  501 0.00000000E+00 0.00000000E+00 -.82344953E+01 0.82407107E+01 0.32000000E+00 0.0000E+00 0.9000E+01
       25  1    1    2    0    0 -.18638987E+02 -.17063651E+02 0.11772541E+04 0.11841414E+04 0.12500000E+03 0.0000E+00 0.9000E+01
       24  1    1    2    0    0 0.18638987E+02 0.17063651E+02 0.36576415E+03 0.37535211E+03 0.80419002E+02 0.0000E+00 0.9000E+01
#aMCatNLO 1  0  0  1  2 0.10730634D+03 0.00000000D+00  -5  5  0 0.00000000D+00 0.00000000D+00 0.00000000D+00 0.00000000D+00 0.00000000D+00
  <mgrwgt>
 0.5078658680D+00    3    2    0
 0.113042715279614D+03 0.000000000000000D+00 0.000000000000000D+00 0.113042715279614D+03
 0.113042715279614D+03 0.000000000000000D+00 0.000000000000000D+00 -.113042715279614D+03
 0.133295643615105D+03 -.186389865309028D+02 -.170636514297945D+02 0.387833545190258D+02
 0.927897869441227D+02 0.186389865309028D+02 0.170636514297945D+02 -.387833545190258D+02
 0.000000000000000D+00 0.000000000000000D+00 -.000000000000000D+00 -.000000000000000D+00
 0.144207023778044D+03 0.000000000000000D+00 0.000000000000000D+00 0.144207023778044D+03
 0.276019752795932D+03 0.000000000000000D+00 0.000000000000000D+00 -.276019752795932D+03
 0.146653677530332D+03 -.576379996859216D+02 0.324963619137240D+02 0.387833545190258D+02
 0.103604732755354D+03 -.872022415049931D+01 0.518317836655694D+02 -.387833545190258D+02
 0.169968366288290D+03 0.663582238364209D+02 -.843281455792934D+02 -.131812729017889D+03
0.268547417845D-03 0.000000000000D+00 0.000000000000D+00 0.264048711124D-02 0.000000000000D+00  5 2 -1 25 24 21 0 0.23865475D+00 0.12673261D-02 0.11217418D+05 0.11217418D+05 0.11217418D+05 0.12624712D+01  1  2  2  1  5  1        2 0.497197988146D+00 0.100000000000D+01
-.148422966137D-04 0.000000000000D+00 -.103129279468D-05 0.264048711124D-02 0.000000000000D+00  5 2 -1 25 24 21 2 0.23865475D+00 0.12673261D-02 0.11217418D+05 0.11217418D+05 0.11217418D+05 0.12624712D+01  1  2  3  1  5  1        2 -.437978168135D-01 0.100000000000D+01
0.184574502493D-04 0.000000000000D+00 0.000000000000D+00 0.264048711124D-02 0.000000000000D+00  5 2 -1 25 24 21 2 0.23865475D+00 0.12673261D-02 0.11217418D+05 0.11217418D+05 0.11217418D+05 0.12624712D+01  1  2 15  1  5  1        2 0.544656966440D-01 0.100000000000D+01
  </mgrwgt>
  </event>
  <event>
  4     66 0.48098993E-03 0.11478640E+03 0.75467711E-02 0.11196390E+00
        2 -1    0    0  501    0 0.00000000E+00 0.00000000E+00 0.14126478E+03 0.14126514E+03 0.32000000E+00 0.0000E+00 0.9000E+01
       -1 -1    0    0    0  501 0.00000000E+00 0.00000000E+00 -.93337606E+02 0.93338154E+02 0.32000000E+00 0.0000E+00 0.9000E+01
       25  1    1    2    0    0 -.13357849E+02 -.48468447E+02 0.31226304E+02 0.13830294E+03 0.12500000E+03 0.0000E+00 0.9000E+01
       24  1    1    2    0    0 0.13357849E+02 0.48468447E+02 0.16700869E+02 0.96300350E+02 0.80419002E+02 0.0000E+00 0.9000E+01
#aMCatNLO 1  0  0  1  2 0.18539040D+03 0.00000000D+00  -5  5  0 0.00000000D+00 0.00000000D+00 0.00000000D+00 0.00000000D+00 0.00000000D+00
  <mgrwgt>
 0.2962759129D+00    3    2    0
 0.114827797196088D+03 0.000000000000000D+00 0.000000000000000D+00 0.114827797196088D+03
 0.114827797196088D+03 0.000000000000000D+00 0.000000000000000D+00 -.114827797196088D+03
 0.134765878978652D+03 -.133578485265339D+02 -.484684468058205D+02 0.303639323248830D+01
 0.948897154135226D+02 0.133578485265339D+02 0.484684468058205D+02 -.303639323248830D+01
 0.000000000000000D+00 -.000000000000000D+00 0.000000000000000D+00 -.000000000000000D+00
 0.213181398761549D+03 0.000000000000000D+00 0.000000000000000D+00 0.213181398761549D+03
 0.278538274694899D+03 0.000000000000000D+00 0.000000000000000D+00 -.278538274694899D+03
 0.207032070441100D+03 0.241795747701842D+02 -.163228081748207D+03 0.303639323248830D+01
 0.881141518237691D+02 0.334559609964434D+02 -.129756228056251D+02 -.303639323248830D+01
 0.196573451191578D+03 -.576355357666276D+02 0.176203704553832D+03 -.653568759333502D+02
0.314369868687D-03 0.000000000000D+00 0.000000000000D+00 0.288930755076D-02 0.000000000000D+00  5 2 -1 25 24 21 0 0.21733113D-01 0.14359702D-01 0.13175917D+05 0.13175917D+05 0.13175917D+05 0.12542935D+01  1  2  2  1  5  1        2 0.290074011915D+00 0.100000000000D+01
-.174649899433D-04 0.000000000000D+00 -.120726307125D-05 0.288930755076D-02 0.000000000000D+00  5 2 -1 25 24 21 2 0.21733113D-01 0.14359702D-01 0.13175917D+05 0.13175917D+05 0.13175917D+05 0.12542935D+01  1  2  3  1  5  1        2 -.253533072985D-01 0.100000000000D+01
0.217372585238D-04 0.000000000000D+00 0.000000000000D+00 0.288930755076D-02 0.000000000000D+00  5 2 -1 25 24 21 2 0.21733113D-01 0.14359702D-01 0.13175917D+05 0.13175917D+05 0.13175917D+05 0.12542935D+01  1  2 15  1  5  1        2 0.315552082751D-01 0.100000000000D+01
  </mgrwgt>
  </event>
  <event>
  4     66 0.48098993E-03 0.10800251E+03 0.75467711E-02 0.10560999E+00
        2 -1    0    0  501    0 0.00000000E+00 0.00000000E+00 0.55363480E+03 0.55363489E+03 0.32000000E+00 0.0000E+00 0.9000E+01
       -1 -1    0    0    0  501 0.00000000E+00 0.00000000E+00 -.27440118E+02 0.27441983E+02 0.32000000E+00 0.0000E+00 0.9000E+01
       25  1    1    2    0    0 0.30256639E+02 0.12342166E+02 0.16482606E+03 0.20942880E+03 0.12500000E+03 0.0000E+00 0.9000E+01
       24  1    1    2    0    0 -.30256639E+02 -.12342166E+02 0.36136862E+03 0.37164807E+03 0.80419002E+02 0.0000E+00 0.9000E+01
#aMCatNLO 1  0  0  2  2 0.33448556D+03 0.00000000D+00  -5  5  0 0.00000000D+00 0.00000000D+00 0.00000000D+00 0.00000000D+00 0.00000000D+00
  <mgrwgt>
 0.4500179484D+00    5    2    0
 0.123257344479832D+03 0.000000000000000D+00 0.000000000000000D+00 0.123257344479832D+03
 0.123257344479832D+03 0.000000000000000D+00 0.000000000000000D+00 -.123257344479832D+03
 0.141831864489729D+03 0.302566386967287D+02 0.123421655748196D+02 -.585105507437091D+02
 0.104682824469936D+03 -.302566386967287D+02 -.123421655748196D+02 0.585105507437091D+02
 0.000000000000000D+00 -.000000000000000D+00 0.000000000000000D+00 -.000000000000000D+00
 0.321919585619113D+03 0.000000000000000D+00 0.000000000000000D+00 0.321919585619113D+03
 0.452756335149465D+03 0.000000000000000D+00 0.000000000000000D+00 -.452756335149465D+03
 0.240953244162340D+03 0.110867563744559D+03 -.163457531589616D+03 -.585105507437091D+02
 0.174558585884701D+03 0.285489623874247D+02 -.140587894749033D+03 0.585105507437091D+02
 0.359164090721538D+03 -.139416526131983D+03 0.304045426338649D+03 -.130836749530352D+03
0.265188481887D-03 0.000000000000D+00 0.000000000000D+00 0.218929175727D-02 0.000000000000D+00  5 2 -1 25 24 21 0 0.85174735D-01 0.42217072D-02 0.11664543D+05 0.11664543D+05 0.11664543D+05 0.12604698D+01  1  2  2  2  5  2       -1 0.353808274948D+00 0.100000000000D+01
-.144200133447D-04 0.000000000000D+00 -.101839359618D-05 0.218929175727D-02 0.000000000000D+00  5 2 -1 25 24 21 2 0.85174735D-01 0.42217072D-02 0.11664543D+05 0.11664543D+05 0.11664543D+05 0.12604698D+01  1  2  3  2  5  2       -1 -.305663712171D-01 0.100000000000D+01
0.181905482522D-04 0.000000000000D+00 0.000000000000D+00 0.218929175727D-02 0.000000000000D+00  5 2 -1 25 24 21 2 0.85174735D-01 0.42217072D-02 0.11664543D+05 0.11664543D+05 0.11664543D+05 0.12604698D+01  1  2 15  2  5  2       -1 0.385588443803D-01 0.100000000000D+01
0.437669135390D-03 0.000000000000D+00 -.172580960488D-03 0.218929175727D-02 0.000000000000D+00  5 2 -1 25 24 21 2 0.85174735D-01 0.40695939D-01 0.11664543D+05 0.11664543D+05 0.11664543D+05 0.12604698D+01  1  2  5  2  5  2       -1 0.269217700812D-01 0.100000000000D+01
0.920162188678D-04 0.000000000000D+00 -.467154194619D-04 0.218929175727D-02 0.000000000000D+00  5 2 21 25 24 1 2 0.85174735D-01 0.40695939D-01 0.11664543D+05 0.11664543D+05 0.11664543D+05 0.12604698D+01  1  2  5  4  5  2       -1 0.612954301982D-01 0.100000000000D+01
  </mgrwgt>
  </event>
  <event>
  5     66 0.48098993E-03 0.13304172E+03 0.75467711E-02 0.11465603E+00
        2 -1    0    0  501    0 0.00000000E+00 0.00000000E+00 0.13010114E+04 0.13010115E+04 0.32000000E+00 0.0000E+00 0.9000E+01
       21 -1    0    0  502  501 0.00000000E+00 0.00000000E+00 -.16575796E+03 0.16575966E+03 0.75000000E+00 0.0000E+00 0.9000E+01
       25  1    1    2    0    0 -.71683163E+02 -.13788633E+03 0.52792836E+03 0.56434428E+03 0.12500000E+03 0.0000E+00 0.9000E+01
       24  1    1    2    0    0 0.10704792E+02 0.34499946E+02 0.72735537E+03 0.73267857E+03 0.80419002E+02 0.0000E+00 0.9000E+01
        1  1    1    2  502    0 0.60978370E+02 0.10338638E+03 -.12003027E+03 0.16974827E+03 0.32000000E+00 0.0000E+00 0.9000E+01
#aMCatNLO 2  0  0  2  1 0.12002960D+03 0.00000000D+00  -5  5  0 0.00000000D+00 0.00000000D+00 0.00000000D+00 0.00000000D+00 0.00000000D+00
  <mgrwgt>
 0.8062581837D+00    2    2    0
 0.151759624681399D+03 0.000000000000000D+00 0.000000000000000D+00 0.151759624681399D+03
 0.151759624681399D+03 0.000000000000000D+00 0.000000000000000D+00 -.151759624681399D+03
 0.166845626746927D+03 -.349875085909897D+02 -.756703186613591D+02 -.725419897773616D+02
 0.136673622615871D+03 0.349875085909897D+02 0.756703186613591D+02 0.725419897773616D+02
 0.000000000000000D+00 0.000000000000000D+00 0.000000000000000D+00 -.000000000000000D+00
 0.166374432017321D+03 0.000000000000000D+00 0.000000000000000D+00 0.166374432017321D+03
 0.129619805282516D+04 0.000000000000000D+00 0.000000000000000D+00 -.129619805282516D+04
 0.212222656979180D+03 -.716831627310575D+02 -.137886330124913D+03 -.725419897773616D+02
 0.114168275405807D+03 0.107047924450710D+02 0.344999462697383D+02 0.725419897773616D+02
 0.113618155245749D+04 0.609783702859865D+02 0.103386383855175D+03 -.112982362080784D+04
-.168513568866D-04 0.000000000000D+00 0.000000000000D+00 0.189419600330D-02 0.000000000000D+00  5 2 21 25 24 1 2 0.18257346D+00 0.23978511D-01 0.41540221D+05 0.41540221D+05 0.41540221D+05 0.12003375D+01  1  2 13  4  5  2       -1 -.102944785806D-01 0.100000000000D+01
0.174060239183D-02 0.000000000000D+00 0.000000000000D+00 0.189419600330D-02 0.153896779604D-05  5 2 21 25 24 1 2 0.20015571D+00 0.25501355D-01 0.41540221D+05 0.41540221D+05 0.41540221D+05 0.12003375D+01  1  2  1  4  5  2       -1 0.816552662243D+00 0.100000000000D+01
  </mgrwgt>
  </event>
  <event>
  4     66 0.48098993E-03 0.75105183E+02 0.75467711E-02 0.12321926E+00
        2 -1    0    0  501    0 0.00000000E+00 0.00000000E+00 0.26237066E+03 0.26237085E+03 0.32000000E+00 0.0000E+00 0.9000E+01
       -1 -1    0    0    0  501 0.00000000E+00 0.00000000E+00 -.53186009E+02 0.53186972E+02 0.32000000E+00 0.0000E+00 0.9000E+01
       25  1    1    2    0    0 -.13479029E+02 0.38390448E+02 0.17565357E+03 0.21939619E+03 0.12500000E+03 0.0000E+00 0.9000E+01
       24  1    1    2    0    0 0.13479029E+02 -.38390448E+02 0.33531073E+02 0.96161632E+02 0.80419002E+02 0.0000E+00 0.9000E+01
#aMCatNLO 1  0  0  1  2 0.30359608D+02 0.00000000D+00  -5  5  0 0.00000000D+00 0.00000000D+00 0.00000000D+00 0.00000000D+00 0.00000000D+00
  <mgrwgt>
 0.2872151362D+00    9    2    0
 0.118129720685718D+03 0.000000000000000D+00 0.000000000000000D+00 0.118129720685718D+03
 0.118129720685718D+03 0.000000000000000D+00 0.000000000000000D+00 -.118129720685718D+03
 0.137510499698126D+03 -.134790285635303D+02 0.383904481478922D+02 0.403562486762077D+02
 0.987489416733107D+02 0.134790285635303D+02 -.383904481478922D+02 -.403562486762077D+02
 0.000000000000000D+00 0.000000000000000D+00 -.000000000000000D+00 0.000000000000000D+00
 0.194426686963889D+03 0.000000000000000D+00 0.000000000000000D+00 0.194426686963889D+03
 0.122160108683281D+03 0.000000000000000D+00 0.000000000000000D+00 -.122160108683281D+03
 0.143867546574441D+03 -.189621865286422D+02 0.555398922594024D+02 0.403562486762077D+02
 0.943345303166446D+02 0.971644938794100D+01 -.266223864401196D+02 -.403562486762077D+02
 0.783847187560848D+02 0.924573714070115D+01 -.289175058192828D+02 0.722665782806085D+02
0.234607095614D-03 0.000000000000D+00 0.000000000000D+00 0.253682671900D-02 0.000000000000D+00  5 2 -1 25 24 21 0 0.40364805D-01 0.81825521D-02 0.12274593D+05 0.12274593D+05 0.12274593D+05 0.12578742D+01  1  2  2  1  5  1        2 0.260935599568D+00 0.100000000000D+01
-.129685335959D-04 0.000000000000D+00 -.900953020626D-06 0.253682671900D-02 0.000000000000D+00  5 2 -1 25 24 21 2 0.40364805D-01 0.81825521D-02 0.12274593D+05 0.12274593D+05 0.12274593D+05 0.12578742D+01  1  2  3  1  5  1        2 -.228221970354D-01 0.100000000000D+01
0.162189380288D-04 0.000000000000D+00 0.000000000000D+00 0.253682671900D-02 0.000000000000D+00  5 2 -1 25 24 21 2 0.40364805D-01 0.81825521D-02 0.12274593D+05 0.12274593D+05 0.12274593D+05 0.12578742D+01  1  2 15  1  5  1        2 0.285423017692D-01 0.100000000000D+01
0.769221382159D-03 0.000000000000D+00 0.000000000000D+00 0.253682671900D-02 0.000000000000D+00  5 2 -1 25 24 21 2 0.66742849D-01 0.81825521D-02 0.16093148D+05 0.16093148D+05 0.16093148D+05 0.12443548D+01  1  2 12  1  5  1        2 0.785402690535D+00 0.100000000000D+01
-.741643640807D-03 0.000000000000D+00 0.000000000000D+00 0.253682671900D-02 0.000000000000D+00  5 2 -1 25 24 21 2 0.40364805D-01 0.81825521D-02 0.12274593D+05 0.12274593D+05 0.12274593D+05 0.12578742D+01  1  2  4  1  5  1        2 -.130515429330D+01 0.100000000000D+01
-.839568113067D-03 0.000000000000D+00 -.977206779224D-04 0.253682671900D-02 0.000000000000D+00  5 2 -1 25 24 21 2 0.67686641D-01 0.81825521D-02 0.12274593D+05 0.12274593D+05 0.12274593D+05 0.12578742D+01  1  2  5  1  5  1        2 -.855781332013D+00 0.100000000000D+01
0.793436373485D-03 0.000000000000D+00 0.859755228743D-04 0.253682671900D-02 0.000000000000D+00  5 2 -1 25 24 21 2 0.40364805D-01 0.81825521D-02 0.12274593D+05 0.12274593D+05 0.12274593D+05 0.12578742D+01  1  2  6  1  5  1        2 0.139629982965D+01 0.100000000000D+01
0.435694121494D-04 0.000000000000D+00 0.000000000000D+00 0.253682671900D-02 0.000000000000D+00  5 21 -1 25 24 -2 2 0.66742849D-01 0.81825521D-02 0.16093148D+05 0.16093148D+05 0.16093148D+05 0.12443548D+01  1  2 12  3  5  1        2 0.103070949566D+00 0.100000000000D+01
-.440403914475D-04 0.000000000000D+00 -.565831475292D-05 0.253682671900D-02 0.000000000000D+00  5 21 -1 25 24 -2 2 0.67686641D-01 0.81825521D-02 0.12274593D+05 0.12274593D+05 0.12274593D+05 0.12578742D+01  1  2  5  3  5  1        2 -.103278412560D+00 0.100000000000D+01
  </mgrwgt>
  </event>
  <event>
  4     66 0.48098993E-03 0.20720624E+03 0.75467711E-02 0.10355918E+00
        2 -1    0    0  501    0 0.00000000E+00 0.00000000E+00 0.27006274E+03 0.27006293E+03 0.32000000E+00 0.0000E+00 0.9000E+01
       -1 -1    0    0    0  501 0.00000000E+00 0.00000000E+00 -.15906229E+03 0.15906261E+03 0.32000000E+00 0.0000E+00 0.9000E+01
       25  1    1    2    0    0 -.96967378E+02 -.15035866E+03 0.63359660E+02 0.22726603E+03 0.12500000E+03 0.0000E+00 0.9000E+01
       24  1    1    2    0    0 0.96967378E+02 0.15035866E+03 0.47640790E+02 0.20185951E+03 0.80419002E+02 0.0000E+00 0.9000E+01
#aMCatNLO 1  0  0  1  1 0.32343817D+03 0.00000000D+00  -5  5  0 0.00000000D+00 0.00000000D+00 0.00000000D+00 0.00000000D+00 0.00000000D+00
  <mgrwgt>
 0.5324054495D+00    3    2    0
 0.207260479464803D+03 0.000000000000000D+00 0.000000000000000D+00 0.207260479464803D+03
 0.207260479464803D+03 0.000000000000000D+00 0.000000000000000D+00 -.207260479464803D+03
 0.218306705051656D+03 -.969673784649728D+02 -.150358664384244D+03 0.473466247239136D+01
 0.196214253877951D+03 0.969673784649728D+02 0.150358664384244D+03 -.473466247239136D+01
 0.000000000000000D+00 -.000000000000000D+00 0.000000000000000D+00 -.000000000000000D+00
 0.316794679614692D+03 0.000000000000000D+00 0.000000000000000D+00 0.316794679614692D+03
 0.748039912250779D+03 0.000000000000000D+00 0.000000000000000D+00 -.748039912250779D+03
 0.327278662461568D+03 0.134130495174503D+02 -.302132414640581D+03 0.473466247239136D+01
 0.198496838873449D+03 0.176823587853238D+03 0.405558977013480D+02 -.473466247239136D+01
 0.539059090530454D+03 -.190236637370688D+03 0.261576516939233D+03 -.431245232636087D+03
0.261647911505D-02 0.000000000000D+00 0.000000000000D+00 0.214274397580D-02 0.000000000000D+00  5 2 -1 25 24 21 0 0.41548153D-01 0.24471160D-01 0.42934425D+05 0.42934425D+05 0.42934425D+05 0.11988905D+01  1  2  2  1  5  1        2 0.522683798699D+00 0.100000000000D+01
-.145359938729D-03 0.000000000000D+00 -.100479687366D-04 0.214274397580D-02 0.000000000000D+00  5 2 -1 25 24 21 2 0.41548153D-01 0.24471160D-01 0.42934425D+05 0.42934425D+05 0.42934425D+05 0.11988905D+01  1  2  3  1  5  1        2 -.417374151432D-01 0.100000000000D+01
0.179217774759D-03 0.000000000000D+00 0.000000000000D+00 0.214274397580D-02 0.000000000000D+00  5 2 -1 25 24 21 2 0.41548153D-01 0.24471160D-01 0.42934425D+05 0.42934425D+05 0.42934425D+05 0.11988905D+01  1  2 15  1  5  1        2 0.514590658994D-01 0.100000000000D+01
  </mgrwgt>
  </event>
  <event>
  4     66 0.48098993E-03 0.11455741E+03 0.75467711E-02 0.11434788E+00
        2 -1    0    0  501    0 0.00000000E+00 0.00000000E+00 0.10714874E+04 0.10714874E+04 0.32000000E+00 0.0000E+00 0.9000E+01
       -1 -1    0    0    0  501 0.00000000E+00 0.00000000E+00 -.13821382E+02 0.13825086E+02 0.32000000E+00 0.0000E+00 0.9000E+01
       25  1    1    2    0    0 -.25567103E+02 0.42696857E+02 0.79128725E+03 0.80264389E+03 0.12500000E+03 0.0000E+00 0.9000E+01
       24  1    1    2    0    0 0.25567103E+02 -.42696857E+02 0.26637873E+03 0.28266861E+03 0.80419002E+02 0.0000E+00 0.9000E+01
#aMCatNLO 1  0  0  1  1 0.14508699D+03 0.00000000D+00  -5  5  0 0.00000000D+00 0.00000000D+00 0.00000000D+00 0.00000000D+00 0.00000000D+00
  <mgrwgt>
 0.3481714326D+00    5    2    0
 0.121702391478300D+03 0.000000000000000D+00 0.000000000000000D+00 0.121702391478300D+03
 0.121702391478300D+03 0.000000000000000D+00 0.000000000000000D+00 -.121702391478300D+03
 0.140514232261360D+03 -.255671026568706D+02 0.426968571125324D+02 0.405283989622629D+02
 0.102890550695240D+03 0.255671026568706D+02 -.426968571125324D+02 -.405283989622629D+02
 0.000000000000000D+00 -.000000000000000D+00 -.000000000000000D+00 0.000000000000000D+00
 0.245493396399317D+03 0.000000000000000D+00 0.000000000000000D+00 0.245493396399317D+03
 0.192376729498386D+03 0.000000000000000D+00 0.000000000000000D+00 -.192376729498386D+03
 0.185229251725033D+03 -.656851228322371D+01 0.130380900512906D+03 0.405283989622629D+02
 0.981364548396696D+02 0.372917569322517D+02 0.114158467311662D+02 -.405283989622629D+02
 0.154504419333001D+03 -.307232446490280D+02 -.141796747244073D+03 0.531166669009310D+02
0.216585608509D-03 0.000000000000D+00 0.000000000000D+00 0.248675267727D-02 0.000000000000D+00  5 2 -1 25 24 21 0 0.16484450D+00 0.21266550D-02 0.13123400D+05 0.13123400D+05 0.13123400D+05 0.12544945D+01  1  2  2  1  5  1        2 0.347722045203D+00 0.100000000000D+01
-.119789805502D-04 0.000000000000D+00 -.831745764976D-06 0.248675267727D-02 0.000000000000D+00  5 2 -1 25 24 21 2 0.16484450D+00 0.21266550D-02 0.13123400D+05 0.13123400D+05 0.13123400D+05 0.12544945D+01  1  2  3  1  5  1        2 -.302663480029D-01 0.100000000000D+01
0.150074912609D-04 0.000000000000D+00 0.000000000000D+00 0.248675267727D-02 0.000000000000D+00  5 2 -1 25 24 21 2 0.16484450D+00 0.21266550D-02 0.13123400D+05 0.13123400D+05 0.13123400D+05 0.12544945D+01  1  2 15  1  5  1        2 0.379182478214D-01 0.100000000000D+01
-.198824954466D-04 0.000000000000D+00 -.673673431767D-04 0.248675267727D-02 0.000000000000D+00  5 2 -1 25 24 21 2 0.41038463D+00 0.21266550D-02 0.13123400D+05 0.13123400D+05 0.13123400D+05 0.12544945D+01  1  2  5  1  5  1        2 -.736026134131D-02 0.100000000000D+01
0.217757755270D-05 0.000000000000D+00 -.675919170471D-05 0.248675267727D-02 0.000000000000D+00  5 21 -1 25 24 -2 2 0.41038463D+00 0.21266550D-02 0.13123400D+05 0.13123400D+05 0.13123400D+05 0.12544945D+01  1  2  5  3  5  1        2 0.157748874539D-03 0.100000000000D+01
  </mgrwgt>
  </event>
  <event>
  4     66 0.48098993E-03 0.10960126E+03 0.75467711E-02 0.10019791E+00
        2 -1    0    0  501    0 0.00000000E+00 0.00000000E+00 0.31900203E+03 0.31900219E+03 0.32000000E+00 0.0000E+00 0.9000E+01
       -1 -1    0    0    0  501 0.00000000E+00 0.00000000E+00 -.39994502E+02 0.39995782E+02 0.32000000E+00 0.0000E+00 0.9000E+01
       25  1    1    2    0    0 0.19438418E+02 -.32012808E+02 0.12187714E+03 0.17855450E+03 0.12500000E+03 0.0000E+00 0.9000E+01
       24  1    1    2    0    0 -.19438418E+02 0.32012808E+02 0.15713039E+03 0.18044347E+03 0.80419002E+02 0.0000E+00 0.9000E+01
#aMCatNLO 1  0  0  1  2 0.52608418D+03 0.00000000D+00  -5  5  0 0.00000000D+00 0.00000000D+00 0.00000000D+00 0.00000000D+00 0.00000000D+00
  <mgrwgt>
 0.3531245839D+00    5    2    0
 0.112953910275344D+03 0.000000000000000D+00 0.000000000000000D+00 0.112953910275344D+03
 0.112953910275344D+03 0.000000000000000D+00 0.000000000000000D+00 -.112953910275344D+03
 0.133222761577848D+03 0.194384183365472D+02 -.320128079580090D+02 -.268445938998015D+02
 0.926850589728397D+02 -.194384183365472D+02 0.320128079580090D+02 0.268445938998015D+02
 0.000000000000000D+00 -.000000000000000D+00 -.000000000000000D+00 0.000000000000000D+00
 0.115221021146805D+04 0.000000000000000D+00 0.000000000000000D+00 0.115221021146805D+04
 0.366171410042191D+03 0.000000000000000D+00 0.000000000000000D+00 -.366171410042191D+03
 0.376393370600591D+03 0.353998039796624D+03 -.342418319839263D+01 -.268445938998015D+02
 0.196143885497679D+03 0.170175874122577D+03 0.482156355213495D+02 0.268445938998015D+02
 0.945844365411974D+03 -.524173913919201D+03 -.447914523229568D+02 0.786038801425862D+03
0.248125988000D-03 0.000000000000D+00 0.000000000000D+00 0.279479390867D-02 0.000000000000D+00  5 2 -1 25 24 21 0 0.49077346D-01 0.61531111D-02 0.12012435D+05 0.12012435D+05 0.12012435D+05 0.12589714D+01  1  2  2  1  5  1        2 0.343439421166D+00 0.100000000000D+01
-.137695608040D-04 0.000000000000D+00 -.952869126995D-06 0.279479390867D-02 0.000000000000D+00  5 2 -1 25 24 21 2 0.49077346D-01 0.61531111D-02 0.12012435D+05 0.12012435D+05 0.12012435D+05 0.12589714D+01  1  2  3  1  5  1        2 -.302085376170D-01 0.100000000000D+01
0.171593341973D-04 0.000000000000D+00 0.000000000000D+00 0.279479390867D-02 0.000000000000D+00  5 2 -1 25 24 21 2 0.49077346D-01 0.61531111D-02 0.12012435D+05 0.12012435D+05 0.12012435D+05 0.12589714D+01  1  2 15  1  5  1        2 0.376452379243D-01 0.100000000000D+01
0.531296920753D-03 0.000000000000D+00 -.279571299948D-03 0.279479390867D-02 0.000000000000D+00  5 2 -1 25 24 21 2 0.69798619D+00 0.61531111D-02 0.12012435D+05 0.12012435D+05 0.12012435D+05 0.12589714D+01  1  2  5  1  5  1        2 0.223714242691D-02 0.100000000000D+01
0.100388550896D-03 0.000000000000D+00 -.843081790924D-04 0.279479390867D-02 0.000000000000D+00  5 21 -1 25 24 -2 2 0.69798619D+00 0.61531111D-02 0.12012435D+05 0.12012435D+05 0.12012435D+05 0.12589714D+01  1  2  5  3  5  1        2 0.113199621875D-04 0.100000000000D+01
  </mgrwgt>
  </event>
  <event>
  5     66 0.48098993E-03 0.10482693E+03 0.75467711E-02 0.12365296E+00
       21 -1    0    0  501  502 0.00000000E+00 0.00000000E+00 0.36078581E+02 0.36086375E+02 0.75000000E+00 0.0000E+00 0.9000E+01
       -3 -1    0    0    0  501 0.00000000E+00 0.00000000E+00 -.54025152E+03 0.54025175E+03 0.50000000E+00 0.0000E+00 0.9000E+01
       25  1    1    2    0    0 0.14555681E+02 0.39487695E+02 -.32111109E+03 0.34714331E+03 0.12500000E+03 0.0000E+00 0.9000E+01
       24  1    1    2    0    0 -.48217581E+01 -.53424392E+01 -.17503591E+03 0.19276042E+03 0.80419002E+02 0.0000E+00 0.9000E+01
       -4  1    1    2    0  502 -.97339226E+01 -.34145256E+02 -.80259428E+01 0.36434407E+02 0.15500000E+01 0.0000E+00 0.9000E+01
#aMCatNLO 2  0  0  1  2 0.35505601D+02 0.00000000D+00  -5  5  0 0.00000000D+00 0.00000000D+00 0.00000000D+00 0.00000000D+00 0.00000000D+00
  <mgrwgt>
 0.2790621694D-01    2    2    0
 0.104968491707432D+03 0.000000000000000D+00 0.000000000000000D+00 0.104968491707432D+03
 0.104968491707432D+03 0.000000000000000D+00 0.000000000000000D+00 -.104968491707432D+03
 0.126779284395475D+03 0.859865820476455D+01 0.185912830301203D+02 -.533049943254170D+01
 0.831576990193889D+02 -.859865820476455D+01 -.185912830301203D+02 0.533049943254170D+01
 0.000000000000000D+00 -.000000000000000D+00 -.000000000000000D+00 0.000000000000000D+00
 0.175563842697919D+03 0.000000000000000D+00 0.000000000000000D+00 0.175563842697919D+03
 0.111019772230493D+03 0.000000000000000D+00 0.000000000000000D+00 -.111019772230493D+03
 0.132002121591783D+03 0.145556806746914D+02 0.394876948001266D+02 -.533049943254170D+01
 0.809161367474976D+02 -.482175807292681D+01 -.534243920461745D+01 0.533049943254170D+01
 0.736653565891310D+02 -.973392260176458D+01 -.341452555955091D+02 0.645440704674259D+02
-.578189449045D-04 0.000000000000D+00 0.000000000000D+00 0.315733337703D-02 0.000000000000D+00  5 21 -3 25 24 -4 2 0.55910916D-02 0.78580305D-01 0.15393417D+05 0.15393417D+05 0.15393417D+05 0.12465428D+01  1  2 13  3  5  1        4 -.148620232477D+00 0.100000000000D+01
0.766194633334D-04 0.000000000000D+00 0.000000000000D+00 0.315733337703D-02 0.150103617205D-05  5 21 -3 25 24 -4 2 0.55507748D-02 0.83110346D-01 0.15393417D+05 0.15393417D+05 0.15393417D+05 0.12465428D+01  1  2  1  3  5  1        4 0.176526449420D+00 0.100000000000D+01
  </mgrwgt>
  </event>
  <event>
  5     66 0.48098993E-03 0.14358640E+03 0.75467711E-02 0.11289020E+00
        2 -1    0    0  502    0 0.00000000E+00 0.00000000E+00 0.42424452E+03 0.42424464E+03 0.32000000E+00 0.0000E+00 0.9000E+01
       -1 -1    0    0    0  501 0.00000000E+00 0.00000000E+00 -.17936177E+03 0.17936206E+03 0.32000000E+00 0.0000E+00 0.9000E+01
       25  1    1    2    0    0 -.83156373E+02 0.38262593E+02 0.26113362E+03 0.30363593E+03 0.12500000E+03 0.0000E+00 0.9000E+01
       24  1    1    2    0    0 0.10523522E+03 0.95398017E+02 -.19993632E+02 0.16444511E+03 0.80419002E+02 0.0000E+00 0.9000E+01
       21  1    1    2  502  501 -.22078849E+02 -.13366061E+03 0.37427648E+01 0.13552566E+03 0.75000000E+00 0.0000E+00 0.9000E+01
#aMCatNLO 2  0  0  1  2 0.13547189D+03 0.00000000D+00  -5  5  0 0.00000000D+00 0.00000000D+00 0.00000000D+00 0.00000000D+00 0.00000000D+00
  <mgrwgt>
 0.3144314618D-01    1    2    0
 0.188811235042355D+03 0.000000000000000D+00 0.000000000000000D+00 0.188811235042355D+03
 0.188811235042355D+03 0.000000000000000D+00 0.000000000000000D+00 -.188811235042355D+03
 0.200936816504145D+03 -.944463295348363D+02 -.300843826049453D+02 0.122169656574360D+03
 0.176685653580564D+03 0.944463295348363D+02 0.300843826049453D+02 -.122169656574360D+03
 0.000000000000000D+00 -.000000000000000D+00 -.000000000000000D+00 -.000000000000000D+00
 0.239983106414830D+03 0.000000000000000D+00 0.000000000000000D+00 0.239983106414830D+03
 0.317075827552125D+03 0.000000000000000D+00 0.000000000000000D+00 -.317075827552125D+03
 0.197305431489636D+03 -.831563727066511D+02 0.382625925165417D+02 0.122169656574360D+03
 0.203882011093808D+03 0.105235221286080D+03 0.953980173098898D+02 -.122169656574360D+03
 0.155871491383510D+03 -.220788485794291D+02 -.133660609826432D+03 -.770927211372950D+02
0.220471811184D-03 0.000000000000D+00 0.000000000000D+00 0.132868964088D-02 0.710733128485D-06  5 2 -1 25 24 21 2 0.65268192D-01 0.27594054D-01 0.51444889D+05 0.51444889D+05 0.51444889D+05 0.11910584D+01  1  2  1  1  5  1        2 0.314431461780D-01 0.100000000000D+01
  </mgrwgt>
  </event>
  <event>
  4     66 0.48098993E-03 0.12155933E+03 0.75467711E-02 0.12030568E+00
        2 -1    0    0  501    0 0.00000000E+00 0.00000000E+00 0.47926735E+02 0.47927803E+02 0.32000000E+00 0.0000E+00 0.9000E+01
       -1 -1    0    0    0  501 0.00000000E+00 0.00000000E+00 -.32000223E+03 0.32000239E+03 0.32000000E+00 0.0000E+00 0.9000E+01
       25  1    1    2    0    0 0.39101374E+02 -.50560500E+02 -.12159435E+03 0.18572956E+03 0.12500000E+03 0.0000E+00 0.9000E+01
       24  1    1    2    0    0 -.39101374E+02 0.50560500E+02 -.15048114E+03 0.18220063E+03 0.80419002E+02 0.0000E+00 0.9000E+01
#aMCatNLO 1  0  0  1  2 0.47940269D+02 0.00000000D+00  -5  5  0 0.00000000D+00 0.00000000D+00 0.00000000D+00 0.00000000D+00 0.00000000D+00
  <mgrwgt>
 0.1621332225D+00    4    2    0
 0.123842189805980D+03 0.000000000000000D+00 0.000000000000000D+00 0.123842189805980D+03
 0.123842189805980D+03 0.000000000000000D+00 0.000000000000000D+00 -.123842189805980D+03
 0.142328991557420D+03 0.391013744174129D+02 -.505605003676582D+02 0.233935922635557D+02
 0.105355388054540D+03 -.391013744174129D+02 0.505605003676582D+02 -.233935922635557D+02
 0.000000000000000D+00 0.000000000000000D+00 -.000000000000000D+00 -.000000000000000D+00
 0.143998567746524D+03 0.000000000000000D+00 0.000000000000000D+00 0.143998567746524D+03
 0.158314933194073D+03 0.000000000000000D+00 0.000000000000000D+00 -.158314933194073D+03
 0.132610414858476D+03 0.221038421389563D+02 -.304085864952616D+02 0.233935922635557D+02
 0.119670819622459D+03 -.530131314781764D+02 0.670539845693348D+02 -.233935922635557D+02
 0.500322664596626D+02 0.309092893392201D+02 -.366453980740731D+02 -.143163654475489D+02
0.720953124425D-03 0.000000000000D+00 0.000000000000D+00 0.263010501907D-02 0.000000000000D+00  5 2 -1 25 24 21 0 0.73734384D-02 0.49231206D-01 0.14776671D+05 0.14776671D+05 0.14776671D+05 0.12485659D+01  1  2  2  1  5  1        2 0.312113957407D+00 0.100000000000D+01
-.400360934040D-04 0.000000000000D+00 -.276864982911D-05 0.263010501907D-02 0.000000000000D+00  5 2 -1 25 24 21 2 0.73734384D-02 0.49231206D-01 0.14776671D+05 0.14776671D+05 0.14776671D+05 0.12485659D+01  1  2  3  1  5  1        2 -.270197167456D-01 0.100000000000D+01
0.497805029967D-04 0.000000000000D+00 0.000000000000D+00 0.263010501907D-02 0.000000000000D+00  5 2 -1 25 24 21 2 0.73734384D-02 0.49231206D-01 0.14776671D+05 0.14776671D+05 0.14776671D+05 0.12485659D+01  1  2 15  1  5  1        2 0.335960623544D-01 0.100000000000D+01
-.231976299238D-03 0.000000000000D+00 0.000000000000D+00 0.263010501907D-02 0.000000000000D+00  5 2 -1 25 24 21 2 0.73734384D-02 0.49231206D-01 0.14776671D+05 0.14776671D+05 0.14776671D+05 0.12485659D+01  1  2  4  1  5  1        2 -.156557080479D+00 0.100000000000D+01
  </mgrwgt>
  </event>
  <event>
  4     66 0.48098993E-03 0.56184282E+02 0.75467711E-02 0.12088256E+00
        2 -1    0    0  501    0 0.00000000E+00 0.00000000E+00 0.12481760E+04 0.12481760E+04 0.32000000E+00 0.0000E+00 0.9000E+01
       -1 -1    0    0    0  501 0.00000000E+00 0.00000000E+00 -.10683160E+02 0.10687952E+02 0.32000000E+00 0.0000E+00 0.9000E+01
       25  1    1    2    0    0 0.61739901E+01 -.42395930E+02 0.56616490E+03 0.58138045E+03 0.12500000E+03 0.0000E+00 0.9000E+01
       24  1    1    2    0    0 -.61739901E+01 0.42395930E+02 0.67132792E+03 0.67748352E+03 0.80419002E+02 0.0000E+00 0.9000E+01
#aMCatNLO 1  0  0  1  2 0.56504220D+02 0.00000000D+00  -5  5  0 0.00000000D+00 0.00000000D+00 0.00000000D+00 0.00000000D+00 0.00000000D+00
  <mgrwgt>
 0.3378289750D+00    9    2    0
 0.115488120521423D+03 0.000000000000000D+00 0.000000000000000D+00 0.115488120521423D+03
 0.115488120521423D+03 0.000000000000000D+00 0.000000000000000D+00 -.115488120521423D+03
 0.135312202869206D+03 0.617399005067883D+01 -.423959300931943D+02 -.291351884103088D+02
 0.956640381736399D+02 -.617399005067883D+01 0.423959300931943D+02 0.291351884103088D+02
 0.000000000000000D+00 0.000000000000000D+00 0.000000000000000D+00 0.000000000000000D+00
 0.164431382646904D+03 0.000000000000000D+00 0.000000000000000D+00 0.164431382646904D+03
 0.136421497617451D+03 0.000000000000000D+00 0.000000000000000D+00 -.136421497617451D+03
 0.139379471035105D+03 -.265553810080306D+02 -.474087490009998D+02 -.291351884103088D+02
 0.984077253257166D+02 -.292975404273867D+02 0.388543352872315D+02 0.291351884103088D+02
 0.630656839035333D+02 0.558529214354172D+02 0.855441371376824D+01 0.280098850294531D+02
0.140595789423D-03 0.000000000000D+00 0.000000000000D+00 0.271983484633D-02 0.000000000000D+00  5 2 -1 25 24 21 0 0.19202745D+00 0.16439349D-02 0.12461004D+05 0.12461004D+05 0.12461004D+05 0.12571099D+01  1  2  2  1  5  1        2 0.259894192743D+00 0.100000000000D+01
-.779990653580D-05 0.000000000000D+00 -.539924851105D-06 0.271983484633D-02 0.000000000000D+00  5 2 -1 25 24 21 2 0.19202745D+00 0.16439349D-02 0.12461004D+05 0.12461004D+05 0.12461004D+05 0.12571099D+01  1  2  3  1  5  1        2 -.227855822780D-01 0.100000000000D+01
0.974731656393D-05 0.000000000000D+00 0.000000000000D+00 0.271983484633D-02 0.000000000000D+00  5 2 -1 25 24 21 2 0.19202745D+00 0.16439349D-02 0.12461004D+05 0.12461004D+05 0.12461004D+05 0.12571099D+01  1  2 15  1  5  1        2 0.284744801156D-01 0.100000000000D+01
0.547169063263D-04 0.000000000000D+00 0.000000000000D+00 0.271983484633D-02 0.000000000000D+00  5 2 -1 25 24 21 2 0.28491597D+00 0.16439349D-02 0.20563617D+05 0.20563617D+05 0.20563617D+05 0.12324995D+01  1  2 12  1  5  1        2 0.755385018923D-01 0.100000000000D+01
-.871415602834D-04 0.000000000000D+00 0.000000000000D+00 0.271983484633D-02 0.000000000000D+00  5 2 -1 25 24 21 2 0.19202745D+00 0.16439349D-02 0.12461004D+05 0.12461004D+05 0.12461004D+05 0.12571099D+01  1  2  4  1  5  1        2 -.254563459518D+00 0.100000000000D+01
-.129437566767D-03 0.000000000000D+00 -.544209376603D-04 0.271983484633D-02 0.000000000000D+00  5 2 -1 25 24 21 2 0.29664850D+00 0.16439349D-02 0.12461004D+05 0.12461004D+05 0.12461004D+05 0.12571099D+01  1  2  5  1  5  1        2 -.168694117449D+00 0.100000000000D+01
0.144037697225D-03 0.000000000000D+00 0.496508195481D-04 0.271983484633D-02 0.000000000000D+00  5 2 -1 25 24 21 2 0.19202745D+00 0.16439349D-02 0.12461004D+05 0.12461004D+05 0.12461004D+05 0.12571099D+01  1  2  6  1  5  1        2 0.420772067742D+00 0.100000000000D+01
0.257848323649D-05 0.000000000000D+00 0.000000000000D+00 0.271983484633D-02 0.000000000000D+00  5 21 -1 25 24 -2 2 0.28491597D+00 0.16439349D-02 0.20563617D+05 0.20563617D+05 0.20563617D+05 0.12324995D+01  1  2 12  3  5  1        2 0.134641327951D-02 0.100000000000D+01
-.448120316490D-05 0.000000000000D+00 -.275619337581D-05 0.271983484633D-02 0.000000000000D+00  5 21 -1 25 24 -2 2 0.29664850D+00 0.16439349D-02 0.12461004D+05 0.12461004D+05 0.12461004D+05 0.12571099D+01  1  2  5  3  5  1        2 -.215352148031D-02 0.100000000000D+01
  </mgrwgt>
  </event>
  <event>
  4     66 0.48098993E-03 0.20272494E+03 0.75467711E-02 0.99185170E-01
        2 -1    0    0  501    0 0.00000000E+00 0.00000000E+00 0.18834215E+04 0.18834215E+04 0.32000000E+00 0.0000E+00 0.9000E+01
       -1 -1    0    0    0  501 0.00000000E+00 0.00000000E+00 -.23402330E+02 0.23404517E+02 0.32000000E+00 0.0000E+00 0.9000E+01
       25  1    1    2    0    0 0.17028387E+03 0.34383672E+02 0.12259032E+04 0.12444446E+04 0.12500000E+03 0.0000E+00 0.9000E+01
       24  1    1    2    0    0 -.17028387E+03 -.34383672E+02 0.63411600E+03 0.66238143E+03 0.80419002E+02 0.0000E+00 0.9000E+01
#aMCatNLO 1  0  0  2  2 0.52629800D+03 0.00000000D+00  -5  5  0 0.00000000D+00 0.00000000D+00 0.00000000D+00 0.00000000D+00 0.00000000D+00
  <mgrwgt>
 0.4650978479D+00    5    2    0
 0.209948951933918D+03 0.000000000000000D+00 0.000000000000000D+00 0.209948951933918D+03
 0.209948951933918D+03 0.000000000000000D+00 0.000000000000000D+00 -.209948951933918D+03
 0.220853726596132D+03 0.170283867607494D+03 0.343836716656806D+02 0.545209694229576D+02
 0.199044177271704D+03 -.170283867607494D+03 -.343836716656806D+02 -.545209694229576D+02
 0.000000000000000D+00 -.000000000000000D+00 0.000000000000000D+00 -.000000000000000D+00
 0.543415659165985D+03 0.000000000000000D+00 0.000000000000000D+00 0.543415659165985D+03
 0.671529369737100D+03 0.000000000000000D+00 0.000000000000000D+00 -.671529369737100D+03
 0.506997407066192D+03 0.460827767262378D+03 -.161513478028909D+03 0.545209694229576D+02
 0.166281017542730D+03 -.244532137353394D+02 -.132708948725660D+03 -.545209694229576D+02
 0.541666604294163D+03 -.436374553527039D+03 0.294222426754569D+03 -.128113710571115D+03
0.139182391573D-02 0.000000000000D+00 0.000000000000D+00 0.199913911772D-02 0.000000000000D+00  5 2 -1 25 24 21 0 0.28975732D+00 0.36005288D-02 0.41097400D+05 0.41097400D+05 0.41097400D+05 0.12008084D+01  1  2  2  2  5  2       -1 0.390315223085D+00 0.100000000000D+01
-.772082891247D-04 0.000000000000D+00 -.534497031207D-05 0.199913911772D-02 0.000000000000D+00  5 2 -1 25 24 21 2 0.28975732D+00 0.36005288D-02 0.41097400D+05 0.41097400D+05 0.41097400D+05 0.12008084D+01  1  2  3  2  5  2       -1 -.312206964065D-01 0.100000000000D+01
0.955884722467D-04 0.000000000000D+00 0.000000000000D+00 0.199913911772D-02 0.000000000000D+00  5 2 -1 25 24 21 2 0.28975732D+00 0.36005288D-02 0.41097400D+05 0.41097400D+05 0.41097400D+05 0.12008084D+01  1  2 15  2  5  2       -1 0.386530864213D-01 0.100000000000D+01
0.453623420588D-02 0.000000000000D+00 -.144395594079D-02 0.199913911772D-02 0.000000000000D+00  5 2 -1 25 24 21 2 0.28975732D+00 0.58284961D-01 0.41097400D+05 0.41097400D+05 0.41097400D+05 0.12008084D+01  1  2  5  2  5  2       -1 0.205450590677D-01 0.100000000000D+01
0.107193555928D-02 0.000000000000D+00 -.447436399218D-03 0.199913911772D-02 0.000000000000D+00  5 2 21 25 24 1 2 0.28975732D+00 0.58284961D-01 0.41097400D+05 0.41097400D+05 0.41097400D+05 0.12008084D+01  1  2  5  4  5  2       -1 0.468051756859D-01 0.100000000000D+01
  </mgrwgt>
  </event>
  <event>
  4     66 0.48098993E-03 0.11622145E+03 0.75467711E-02 0.10865723E+00
        2 -1    0    0  501    0 0.00000000E+00 0.00000000E+00 0.41711797E+03 0.41711809E+03 0.32000000E+00 0.0000E+00 0.9000E+01
       -1 -1    0    0    0  501 0.00000000E+00 0.00000000E+00 -.34138488E+02 0.34139988E+02 0.32000000E+00 0.0000E+00 0.9000E+01
       25  1    1    2    0    0 -.52754866E+02 -.81419867E+01 0.27275485E+03 0.30474510E+03 0.12500000E+03 0.0000E+00 0.9000E+01
       24  1    1    2    0    0 0.52754866E+02 0.81419867E+01 0.11022463E+03 0.14651298E+03 0.80419002E+02 0.0000E+00 0.9000E+01
#aMCatNLO 1  0  0  2  2 0.25257696D+03 0.00000000D+00  -5  5  0 0.00000000D+00 0.00000000D+00 0.00000000D+00 0.00000000D+00 0.00000000D+00
  <mgrwgt>
 0.3990922043D+00    3    2    0
 0.119332069765352D+03 0.000000000000000D+00 0.000000000000000D+00 0.119332069765352D+03
 0.119332069765352D+03 0.000000000000000D+00 0.000000000000000D+00 -.119332069765352D+03
 0.138517574683763D+03 -.527548658351877D+02 -.814198674708394D+01 0.266973908611593D+02
 0.100146564846940D+03 0.527548658351877D+02 0.814198674708394D+01 -.266973908611593D+02
 0.000000000000000D+00 0.000000000000000D+00 -.000000000000000D+00 0.000000000000000D+00
 0.568762205358022D+03 0.000000000000000D+00 0.000000000000000D+00 0.568762205358022D+03
 0.214124972166335D+03 0.000000000000000D+00 0.000000000000000D+00 -.214124972166335D+03
 0.255915561450590D+03 -.221266654375679D+03 0.140032701598970D+02 0.266973908611593D+02
 0.915836393823439D+02 -.291571153653601D+02 0.189065859668593D+02 -.266973908611593D+02
 0.435387976691423D+03 0.250423769741039D+03 -.329098561267563D+02 0.354637233191687D+03
0.295167265578D-03 0.000000000000D+00 0.000000000000D+00 0.267530840342D-02 0.000000000000D+00  5 2 -1 25 24 21 0 0.64172120D-01 0.52521999D-02 0.13507425D+05 0.13507425D+05 0.13507425D+05 0.12530453D+01  1  2  2  2  5  2       -1 0.390737756701D+00 0.100000000000D+01
-.163842722099D-04 0.000000000000D+00 -.113352001915D-05 0.267530840342D-02 0.000000000000D+00  5 2 -1 25 24 21 2 0.64172120D-01 0.52521999D-02 0.13507425D+05 0.13507425D+05 0.13507425D+05 0.12530453D+01  1  2  3  2  5  2       -1 -.340547671870D-01 0.100000000000D+01
0.204037254114D-04 0.000000000000D+00 0.000000000000D+00 0.267530840342D-02 0.000000000000D+00  5 2 -1 25 24 21 2 0.64172120D-01 0.52521999D-02 0.13507425D+05 0.13507425D+05 0.13507425D+05 0.12530453D+01  1  2 15  2  5  2       -1 0.424092147477D-01 0.100000000000D+01
  </mgrwgt>
  </event>
  <event>
  4     66 0.48098993E-03 0.68998763E+02 0.75467711E-02 0.12216878E+00
        2 -1    0    0  501    0 0.00000000E+00 0.00000000E+00 0.36484881E+04 0.36484881E+04 0.32000000E+00 0.0000E+00 0.9000E+01
       -1 -1    0    0    0  501 0.00000000E+00 0.00000000E+00 -.42259900E+01 0.42380882E+01 0.32000000E+00 0.0000E+00 0.9000E+01
       25  1    1    2    0    0 0.39491964E+02 -.53292335E+02 0.18235859E+04 0.18290682E+04 0.12500000E+03 0.0000E+00 0.9000E+01
       24  1    1    2    0    0 -.39491964E+02 0.53292335E+02 0.18206762E+04 0.18236581E+04 0.80419002E+02 0.0000E+00 0.9000E+01
#aMCatNLO 1  0  0  1  2 0.21238988D+02 0.00000000D+00  -5  5  0 0.00000000D+00 0.00000000D+00 0.00000000D+00 0.00000000D+00 0.00000000D+00
  <mgrwgt>
 0.8302958500D+00    9    2    0
 0.124260192663426D+03 0.000000000000000D+00 0.000000000000000D+00 0.124260192663426D+03
 0.124260192663426D+03 0.000000000000000D+00 0.000000000000000D+00 -.124260192663426D+03
 0.142684806068047D+03 0.394919643479058D+02 -.532923346548603D+02 -.182829347112065D+02
 0.105835579258804D+03 -.394919643479058D+02 0.532923346548603D+02 0.182829347112065D+02
 0.000000000000000D+00 -.000000000000000D+00 -.000000000000000D+00 0.000000000000000D+00
 0.148682331026267D+03 0.000000000000000D+00 0.000000000000000D+00 0.148682331026267D+03
 0.129418090776325D+03 0.000000000000000D+00 0.000000000000000D+00 -.129418090776325D+03
 0.139559561493647D+03 0.422898273154633D+02 -.415833621569152D+02 -.182829347112065D+02
 0.109866733292515D+03 -.373537267720153D+02 0.622407946975731D+02 0.182829347112065D+02
 0.286741270164297D+02 -.493610054344798D+01 -.206574325406579D+02 0.192642402499420D+02
0.112668540721D-02 0.000000000000D+00 0.000000000000D+00 0.265649310240D-02 0.000000000000D+00  5 2 -1 25 24 21 0 0.56130680D+00 0.65108401D-03 0.15098642D+05 0.15098642D+05 0.15098642D+05 0.12474981D+01  1  2  2  1  5  1        2 0.369869972056D+00 0.100000000000D+01
-.625840911321D-04 0.000000000000D+00 -.432676862678D-05 0.265649310240D-02 0.000000000000D+00  5 2 -1 25 24 21 2 0.56130680D+00 0.65108401D-03 0.15098642D+05 0.15098642D+05 0.15098642D+05 0.12474981D+01  1  2  3  1  5  1        2 -.319734995562D-01 0.100000000000D+01
0.780066668699D-04 0.000000000000D+00 0.000000000000D+00 0.265649310240D-02 0.000000000000D+00  5 2 -1 25 24 21 2 0.56130680D+00 0.65108401D-03 0.15098642D+05 0.15098642D+05 0.15098642D+05 0.12474981D+01  1  2 15  1  5  1        2 0.398527178942D-01 0.100000000000D+01
0.133025288252D-02 0.000000000000D+00 0.000000000000D+00 0.265649310240D-02 0.000000000000D+00  5 2 -1 25 24 21 2 0.68166916D+00 0.65108401D-03 0.17946703D+05 0.17946703D+05 0.17946703D+05 0.12390392D+01  1  2 12  1  5  1        2 0.168384675031D+00 0.100000000000D+01
-.135018136516D-02 0.000000000000D+00 0.000000000000D+00 0.265649310240D-02 0.000000000000D+00  5 2 -1 25 24 21 2 0.56130680D+00 0.65108401D-03 0.15098642D+05 0.15098642D+05 0.15098642D+05 0.12474981D+01  1  2  4  1  5  1        2 -.689792285850D+00 0.100000000000D+01
-.244123521041D-02 0.000000000000D+00 -.456674573112D-03 0.265649310240D-02 0.000000000000D+00  5 2 -1 25 24 21 2 0.67605412D+00 0.65108401D-03 0.15098642D+05 0.15098642D+05 0.15098642D+05 0.12474981D+01  1  2  5  1  5  1        2 -.339259259105D+00 0.100000000000D+01
0.257069415510D-02 0.000000000000D+00 0.471604884165D-03 0.265649310240D-02 0.000000000000D+00  5 2 -1 25 24 21 2 0.56130680D+00 0.65108401D-03 0.15098642D+05 0.15098642D+05 0.15098642D+05 0.12474981D+01  1  2  6  1  5  1        2 0.131333837307D+01 0.100000000000D+01
0.372270188638D-04 0.000000000000D+00 0.000000000000D+00 0.265649310240D-02 0.000000000000D+00  5 21 -1 25 24 -2 2 0.68166916D+00 0.65108401D-03 0.17946703D+05 0.17946703D+05 0.17946703D+05 0.12390392D+01  1  2 12  3  5  1        2 0.136378969249D-03 0.100000000000D+01
-.614156650600D-04 0.000000000000D+00 -.123565941619D-04 0.265649310240D-02 0.000000000000D+00  5 21 -1 25 24 -2 2 0.67605412D+00 0.65108401D-03 0.15098642D+05 0.15098642D+05 0.15098642D+05 0.12474981D+01  1  2  5  3  5  1        2 -.261222468862D-03 0.100000000000D+01
  </mgrwgt>
  </event>
  <event>
  4     66 0.48098993E-03 0.58457553E+02 0.75467711E-02 0.11647585E+00
        2 -1    0    0  501    0 0.00000000E+00 0.00000000E+00 0.62345962E+03 0.62345970E+03 0.32000000E+00 0.0000E+00 0.9000E+01
       -1 -1    0    0    0  501 0.00000000E+00 0.00000000E+00 -.29202339E+02 0.29204092E+02 0.32000000E+00 0.0000E+00 0.9000E+01
       25  1    1    2    0    0 0.29808037E+02 0.77151773E+02 0.27486031E+03 0.31307204E+03 0.12500000E+03 0.0000E+00 0.9000E+01
       24  1    1    2    0    0 -.29808037E+02 -.77151773E+02 0.31939697E+03 0.33959175E+03 0.80419002E+02 0.0000E+00 0.9000E+01
#aMCatNLO 1  0  0  2  1 0.87472241D+02 0.00000000D+00  -5  5  0 0.00000000D+00 0.00000000D+00 0.00000000D+00 0.00000000D+00 0.00000000D+00
  <mgrwgt>
 0.2294635749D+00    7    2    0
 0.134933606417185D+03 0.000000000000000D+00 0.000000000000000D+00 0.134933606417185D+03
 0.134933606417185D+03 0.000000000000000D+00 0.000000000000000D+00 -.134933606417185D+03
 0.151900810305065D+03 0.298080374409569D+02 0.771517733641236D+02 -.246564584242095D+02
 0.117966402529304D+03 -.298080374409569D+02 -.771517733641236D+02 0.246564584242095D+02
 0.000000000000000D+00 -.000000000000000D+00 -.000000000000000D+00 -.000000000000000D+00
 0.158570507993660D+03 0.000000000000000D+00 0.000000000000000D+00 0.158570507993660D+03
 0.256209976810178D+03 0.000000000000000D+00 0.000000000000000D+00 -.256209976810178D+03
 0.185725544998385D+03 0.602851182064637D+02 0.120941066829076D+03 -.246564584242095D+02
 0.979639074810682D+02 -.103162963652572D+02 -.491461524625088D+02 0.246564584242095D+02
 0.131091032324384D+03 -.499688218412065D+02 -.717949143665671D+02 -.976394688165183D+02
0.285825106359D-03 0.000000000000D+00 0.000000000000D+00 0.248116484644D-02 0.000000000000D+00  5 2 -1 25 24 21 0 0.95917006D-01 0.44928087D-02 0.17589021D+05 0.17589021D+05 0.17589021D+05 0.12400155D+01  1  2  2  2  5  2       -1 0.309066683095D+00 0.100000000000D+01
-.158734157746D-04 0.000000000000D+00 -.109764366790D-05 0.248116484644D-02 0.000000000000D+00  5 2 -1 25 24 21 2 0.95917006D-01 0.44928087D-02 0.17589021D+05 0.17589021D+05 0.17589021D+05 0.12400155D+01  1  2  3  2  5  2       -1 -.263922530250D-01 0.100000000000D+01
0.197798673054D-04 0.000000000000D+00 0.000000000000D+00 0.248116484644D-02 0.000000000000D+00  5 2 -1 25 24 21 2 0.95917006D-01 0.44928087D-02 0.17589021D+05 0.17589021D+05 0.17589021D+05 0.12400155D+01  1  2 15  2  5  2       -1 0.328873929935D-01 0.100000000000D+01
0.550184023483D-04 0.000000000000D+00 0.000000000000D+00 0.248116484644D-02 0.000000000000D+00  5 2 -1 25 24 21 2 0.95917006D-01 0.86133759D-02 0.33555665D+05 0.33555665D+05 0.33555665D+05 0.12098259D+01  1  2 12  2  5  2       -1 0.333946684062D-01 0.100000000000D+01
-.168666038227D-03 0.000000000000D+00 -.830936060366D-04 0.248116484644D-02 0.000000000000D+00  5 2 -1 25 24 21 2 0.95917006D-01 0.99968982D-02 0.17589021D+05 0.17589021D+05 0.17589021D+05 0.12400155D+01  1  2  5  2  5  2       -1 -.847140009452D-01 0.100000000000D+01
0.388678397250D-05 0.000000000000D+00 0.000000000000D+00 0.248116484644D-02 0.000000000000D+00  5 2 21 25 24 1 2 0.95917006D-01 0.86133759D-02 0.33555665D+05 0.33555665D+05 0.33555665D+05 0.12098259D+01  1  2 12  4  5  2       -1 0.364127573658D-01 0.100000000000D+01
-.938905199279D-05 0.000000000000D+00 -.720964718985D-05 0.248116484644D-02 0.000000000000D+00  5 2 21 25 24 1 2 0.95917006D-01 0.99968982D-02 0.17589021D+05 0.17589021D+05 0.17589021D+05 0.12400155D+01  1  2  5  4  5  2       -1 -.711916729791D-01 0.100000000000D+01
  </mgrwgt>
  </event>
  <event>
  4     66 0.48098993E-03 0.80451719E+02 0.75467711E-02 0.12164221E+00
        2 -1    0    0  501    0 0.00000000E+00 0.00000000E+00 0.36042675E+02 0.36044095E+02 0.32000000E+00 0.0000E+00 0.9000E+01
       -1 -1    0    0    0  501 0.00000000E+00 0.00000000E+00 -.62281833E+03 0.62281841E+03 0.32000000E+00 0.0000E+00 0.9000E+01
       25  1    1    2    0    0 -.64705684E+02 0.48926689E+02 -.16697915E+03 0.22380277E+03 0.12500000E+03 0.0000E+00 0.9000E+01
       24  1    1    2    0    0 0.64705684E+02 -.48926689E+02 -.41979651E+03 0.43505973E+03 0.80419002E+02 0.0000E+00 0.9000E+01
#aMCatNLO 1  0  0  1  2 0.11837647D+02 0.00000000D+00  -5  5  0 0.00000000D+00 0.00000000D+00 0.00000000D+00 0.00000000D+00 0.00000000D+00
  <mgrwgt>
 0.1556300754D+00    9    2    0
 0.149828346565927D+03 0.000000000000000D+00 0.000000000000000D+00 0.149828346565927D+03
 0.149828346565927D+03 0.000000000000000D+00 0.000000000000000D+00 -.149828346565927D+03
 0.165108806264520D+03 -.647056843798658D+02 0.489266885396130D+02 0.711004322319886D+02
 0.134547886867335D+03 0.647056843798658D+02 -.489266885396130D+02 -.711004322319886D+02
 0.000000000000000D+00 -.000000000000000D+00 -.000000000000000D+00 0.000000000000000D+00
 0.157257446750928D+03 0.000000000000000D+00 0.000000000000000D+00 0.157257446750928D+03
 0.154736147444683D+03 0.000000000000000D+00 0.000000000000000D+00 -.154736147444683D+03
 0.163642996777153D+03 -.587335745906304D+02 0.514696623890102D+02 0.711004322319886D+02
 0.136247422592000D+03 0.696249557071659D+02 -.468320220339902D+02 -.711004322319886D+02
 0.121031748264580D+02 -.108913811165355D+02 -.463764035502008D+01 0.252129930624468D+01
0.877261805571D-03 0.000000000000D+00 0.000000000000D+00 0.191472748302D-02 0.000000000000D+00  5 2 -1 25 24 21 0 0.55451425D-02 0.95818320D-01 0.17324197D+05 0.17324197D+05 0.17324197D+05 0.12407529D+01  1  2  2  1  5  1        2 0.147893129589D+00 0.100000000000D+01
-.477420861664D-04 0.000000000000D+00 -.336891632173D-05 0.191472748302D-02 0.000000000000D+00  5 2 -1 25 24 21 2 0.55451425D-02 0.95818320D-01 0.17324197D+05 0.17324197D+05 0.17324197D+05 0.12407529D+01  1  2  3  1  5  1        2 -.123905547487D-01 0.100000000000D+01
0.605583319445D-04 0.000000000000D+00 0.000000000000D+00 0.191472748302D-02 0.000000000000D+00  5 2 -1 25 24 21 2 0.55451425D-02 0.95818320D-01 0.17324197D+05 0.17324197D+05 0.17324197D+05 0.12407529D+01  1  2 15  1  5  1        2 0.157167687402D-01 0.100000000000D+01
0.245668502979D-02 0.000000000000D+00 0.000000000000D+00 0.191472748302D-02 0.000000000000D+00  5 2 -1 25 24 21 2 0.59071663D-02 0.95818320D-01 0.18968419D+05 0.18968419D+05 0.18968419D+05 0.12363661D+01  1  2 12  1  5  1        2 0.584394955008D+00 0.100000000000D+01
-.215976042156D-02 0.000000000000D+00 0.000000000000D+00 0.191472748302D-02 0.000000000000D+00  5 2 -1 25 24 21 2 0.55451425D-02 0.95818320D-01 0.17324197D+05 0.17324197D+05 0.17324197D+05 0.12407529D+01  1  2  4  1  5  1        2 -.560524935049D+00 0.100000000000D+01
-.927689866008D-02 0.000000000000D+00 -.174067755396D-02 0.191472748302D-02 0.000000000000D+00  5 2 -1 25 24 21 2 0.60110416D-02 0.95818320D-01 0.17324197D+05 0.17324197D+05 0.17324197D+05 0.12407529D+01  1  2  5  1  5  1        2 -.216960920355D+01 0.100000000000D+01
0.939239630688D-02 0.000000000000D+00 0.173502821108D-02 0.191472748302D-02 0.000000000000D+00  5 2 -1 25 24 21 2 0.55451425D-02 0.95818320D-01 0.17324197D+05 0.17324197D+05 0.17324197D+05 0.12407529D+01  1  2  6  1  5  1        2 0.243761867164D+01 0.100000000000D+01
0.288083904270D-04 0.000000000000D+00 0.000000000000D+00 0.191472748302D-02 0.000000000000D+00  5 21 -1 25 24 -2 2 0.59071663D-02 0.95818320D-01 0.18968419D+05 0.18968419D+05 0.18968419D+05 0.12363661D+01  1  2 12  3  5  1        2 0.925764862379D-01 0.100000000000D+01
-.121007045159D-03 0.000000000000D+00 -.234243738236D-04 0.191472748302D-02 0.000000000000D+00  5 21 -1 25 24 -2 2 0.60110416D-02 0.95818320D-01 0.17324197D+05 0.17324197D+05 0.17324197D+05 0.12407529D+01  1  2  5  3  5  1        2 -.380045242467D+00 0.100000000000D+01
  </mgrwgt>
  </event>
  <event>
  4     66 0.48098993E-03 0.12826657E+03 0.75467711E-02 0.11628996E+00
        2 -1    0    0  501    0 0.00000000E+00 0.00000000E+00 0.18694166E+04 0.18694166E+04 0.32000000E+00 0.0000E+00 0.9000E+01
       -1 -1    0    0    0  501 0.00000000E+00 0.00000000E+00 -.89162410E+01 0.89219814E+01 0.32000000E+00 0.0000E+00 0.9000E+01
       25  1    1    2    0    0 -.55717634E+02 -.51189261E+02 0.95082945E+03 0.96199087E+03 0.12500000E+03 0.0000E+00 0.9000E+01
       24  1    1    2    0    0 0.55717634E+02 0.51189261E+02 0.90967087E+03 0.91634770E+03 0.80419002E+02 0.0000E+00 0.9000E+01
#aMCatNLO 1  0  0  2  2 0.96322699D+02 0.00000000D+00  -5  5  0 0.00000000D+00 0.00000000D+00 0.00000000D+00 0.00000000D+00 0.00000000D+00
  <mgrwgt>
 0.5817768705D+00    3    2    0
 0.129126238583698D+03 0.000000000000000D+00 0.000000000000000D+00 0.129126238583698D+03
 0.129126238583698D+03 0.000000000000000D+00 0.000000000000000D+00 -.129126238583698D+03
 0.146856531330693D+03 -.557176341385102D+02 -.511892608825918D+02 -.147324679122001D+02
 0.111395945836702D+03 0.557176341385102D+02 0.511892608825918D+02 0.147324679122001D+02
 0.000000000000000D+00 -.000000000000000D+00 0.000000000000000D+00 0.000000000000000D+00
 0.236721438876146D+03 0.000000000000000D+00 0.000000000000000D+00 0.236721438876146D+03
 0.161267182973068D+03 0.000000000000000D+00 0.000000000000000D+00 -.161267182973068D+03
 0.162266555915887D+03 -.267609387468326D+02 -.988546494374846D+02 -.147324679122001D+02
 0.113364364550186D+03 0.767717582480449D+02 0.165322327656218D+02 0.147324679122001D+02
 0.122357701383141D+03 -.500108195012123D+02 0.823224166718629D+02 0.754542559030781D+02
0.495660190266D-03 0.000000000000D+00 0.000000000000D+00 0.260289203911D-02 0.000000000000D+00  5 2 -1 25 24 21 0 0.28760299D+00 0.13721731D-02 0.16452312D+05 0.16452312D+05 0.16452312D+05 0.12432728D+01  1  2  2  2  5  2       -1 0.569730655589D+00 0.100000000000D+01
-.275351833083D-04 0.000000000000D+00 -.190346564095D-05 0.260289203911D-02 0.000000000000D+00  5 2 -1 25 24 21 2 0.28760299D+00 0.13721731D-02 0.16452312D+05 0.16452312D+05 0.16452312D+05 0.12432728D+01  1  2  3  2  5  2       -1 -.489222476953D-01 0.100000000000D+01
0.343152220671D-04 0.000000000000D+00 0.000000000000D+00 0.260289203911D-02 0.000000000000D+00  5 2 -1 25 24 21 2 0.28760299D+00 0.13721731D-02 0.16452312D+05 0.16452312D+05 0.16452312D+05 0.12432728D+01  1  2 15  2  5  2       -1 0.609684625990D-01 0.100000000000D+01
  </mgrwgt>
  </event>
  <event>
  5     66 -.48098993E-03 0.16234848E+03 0.75467711E-02 0.11818701E+00
        2 -1    0    0  502    0 0.00000000E+00 0.00000000E+00 0.12798527E+04 0.12798528E+04 0.32000000E+00 0.0000E+00 0.9000E+01
       -1 -1    0    0    0  501 0.00000000E+00 0.00000000E+00 -.22070705E+02 0.22073024E+02 0.32000000E+00 0.0000E+00 0.9000E+01
       25  1    1    2    0    0 -.11567337E+03 0.52043130E+02 0.74944447E+03 0.77031216E+03 0.12500000E+03 0.0000E+00 0.9000E+01
       24  1    1    2    0    0 0.11431727E+03 -.44546734E+02 0.46454852E+03 0.48716054E+03 0.80419002E+02 0.0000E+00 0.9000E+01
       21  1    1    2  502  501 0.13561060E+01 -.74963962E+01 0.43789025E+02 0.44453079E+02 0.75000000E+00 0.0000E+00 0.9000E+01
#aMCatNLO 2  0  0  1  2 0.76180693D+01 0.00000000D+00  -5  5  0 0.00000000D+00 0.00000000D+00 0.00000000D+00 0.00000000D+00 0.00000000D+00
  <mgrwgt>
 -.1546313956D+00    3    2    0
 0.163860145619454D+03 0.000000000000000D+00 0.000000000000000D+00 0.163860145619454D+03
 0.163860145619454D+03 0.000000000000000D+00 0.000000000000000D+00 -.163860145619454D+03
 0.177832097144045D+03 -.114934251596082D+03 0.479573484943756D+02 0.221238629105915D+02
 0.149888194094864D+03 0.114934251596082D+03 -.479573484943756D+02 -.221238629105915D+02
 0.000000000000000D+00 0.000000000000000D+00 -.000000000000000D+00 0.000000000000000D+00
 0.169739412595992D+03 0.000000000000000D+00 0.000000000000000D+00 0.169739412595992D+03
 0.166390913852035D+03 0.000000000000000D+00 0.000000000000000D+00 -.166390913852035D+03
 0.179452729358010D+03 -.115673373773223D+03 0.520431298431681D+02 0.221238629105915D+02
 0.148356093387427D+03 0.114317267748091D+03 -.445467336101411D+02 -.221238629105915D+02
 0.832150370259050D+01 0.135610602513170D+01 -.749639623302705D+01 0.334849874395777D+01
-.116405083258D-02 0.000000000000D+00 0.000000000000D+00 0.227505038914D-02 0.000000000000D+00  5 2 -1 25 24 21 2 0.19831021D+00 0.33436902D-02 0.27622273D+05 0.27622273D+05 0.27622273D+05 0.12186803D+01  1  2 13  1  5  1        2 -.110799532800D+01 0.100000000000D+01
-.117230584295D-02 0.000000000000D+00 0.000000000000D+00 0.227505038914D-02 0.000000000000D+00  5 2 -1 25 24 21 2 0.19006140D+00 0.33436902D-02 0.26357030D+05 0.26357030D+05 0.26357030D+05 0.12208441D+01  1  2  8  1  5  1        2 -.119739206857D+01 0.100000000000D+01
0.228415621046D-02 0.000000000000D+00 0.000000000000D+00 0.227505038914D-02 0.310733288460D-03  5 2 -1 25 24 21 2 0.19688076D+00 0.33953324D-02 0.27622273D+05 0.27622273D+05 0.27622273D+05 0.12186803D+01  1  2  1  1  5  1        2 0.215075600100D+01 0.100000000000D+01
  </mgrwgt>
  </event>
  <event>
  5     66 0.48098993E-03 0.14326725E+03 0.75467711E-02 0.11921216E+00
        2 -1    0    0  501    0 0.00000000E+00 0.00000000E+00 0.49402555E+03 0.49402565E+03 0.32000000E+00 0.0000E+00 0.9000E+01
       21 -1    0    0  502  501 0.00000000E+00 0.00000000E+00 -.50938945E+02 0.50944466E+02 0.75000000E+00 0.0000E+00 0.9000E+01
       25  1    1    2    0    0 0.55446097E+02 0.92738769E+02 0.19962665E+03 0.25913423E+03 0.12500000E+03 0.0000E+00 0.9000E+01
       24  1    1    2    0    0 -.29690063E+02 -.87505918E+02 0.18690449E+03 0.22347101E+03 0.80419002E+02 0.0000E+00 0.9000E+01
        1  1    1    2  502    0 -.25756034E+02 -.52328514E+01 0.56555464E+02 0.62364886E+02 0.32000000E+00 0.0000E+00 0.9000E+01
#aMCatNLO 2  0  0  2  2 0.26282238D+02 0.00000000D+00  -5  5  0 0.00000000D+00 0.00000000D+00 0.00000000D+00 0.00000000D+00 0.00000000D+00
  <mgrwgt>
 0.1305315832D+00    1    2    0
 0.143884270395215D+03 0.000000000000000D+00 0.000000000000000D+00 0.143884270395215D+03
 0.143884270395215D+03 0.000000000000000D+00 0.000000000000000D+00 -.143884270395215D+03
 0.159795988925106D+03 0.409075186032390D+02 0.897849673994344D+02 -.132284778928156D+02
 0.127972551865324D+03 -.409075186032390D+02 -.897849673994344D+02 0.132284778928156D+02
 0.000000000000000D+00 -.000000000000000D+00 -.000000000000000D+00 0.000000000000000D+00
 0.164251209407746D+03 0.000000000000000D+00 0.000000000000000D+00 0.164251209407746D+03
 0.153218867501492D+03 0.000000000000000D+00 0.000000000000000D+00 -.153218867501492D+03
 0.165755065290317D+03 0.554460973672130D+02 0.927387692865405D+02 -.132284778928156D+02
 0.123211176850873D+03 -.296900632244810D+02 -.875059178854331D+02 0.132284778928156D+02
 0.285038347680471D+02 -.257560341427320D+02 -.523285140110745D+01 0.110323419062539D+02
0.889112297027D-05 0.000000000000D+00 0.000000000000D+00 0.244364133485D-02 0.334110286840D-06  5 2 21 25 24 1 2 0.76003927D-01 0.78371485D-02 0.24650190D+05 0.24650190D+05 0.24650190D+05 0.12239543D+01  1  2  1  4  5  2       -1 0.130531583248D+00 0.100000000000D+01
  </mgrwgt>
  </event>
  <event>
  4     66 0.48098993E-03 0.11124049E+03 0.75467711E-02 0.12164046E+00
        2 -1    0    0  501    0 0.00000000E+00 0.00000000E+00 0.13618832E+04 0.13618833E+04 0.32000000E+00 0.0000E+00 0.9000E+01
       -1 -1    0    0    0  501 0.00000000E+00 0.00000000E+00 -.11074249E+02 0.11078871E+02 0.32000000E+00 0.0000E+00 0.9000E+01
       25  1    1    2    0    0 0.17656678E+02 0.37949440E+02 0.10647916E+04 0.10729204E+04 0.12500000E+03 0.0000E+00 0.9000E+01
       24  1    1    2    0    0 -.17656678E+02 -.37949440E+02 0.28601736E+03 0.30004177E+03 0.80419002E+02 0.0000E+00 0.9000E+01
#aMCatNLO 1  0  0  2  2 0.47592860D+02 0.00000000D+00  -5  5  0 0.00000000D+00 0.00000000D+00 0.00000000D+00 0.00000000D+00 0.00000000D+00
  <mgrwgt>
 0.2615506742D+00    4    2    0
 0.122821140731080D+03 0.000000000000000D+00 0.000000000000000D+00 0.122821140731080D+03
 0.122821140731080D+03 0.000000000000000D+00 0.000000000000000D+00 -.122821140731080D+03
 0.141461628824414D+03 0.176566782899899D+02 0.379494403576275D+02 0.513271284796143D+02
 0.104180652637746D+03 -.176566782899899D+02 -.379494403576275D+02 -.513271284796143D+02
 0.000000000000000D+00 0.000000000000000D+00 0.000000000000000D+00 0.000000000000000D+00
 0.157733797798580D+03 0.000000000000000D+00 0.000000000000000D+00 0.157733797798580D+03
 0.142460172349218D+03 0.000000000000000D+00 0.000000000000000D+00 -.142460172349218D+03
 0.137967530771662D+03 -.682629427836252D+01 0.269993913948431D+02 0.513271284796143D+02
 0.112242802311816D+03 -.366192286492209D+02 -.464304715850712D+02 -.513271284796143D+02
 0.499836370643197D+02 0.434455229275835D+02 0.194310801902281D+02 0.152736254493613D+02
0.258517152981D-03 0.000000000000D+00 0.000000000000D+00 0.231652058377D-02 0.000000000000D+00  5 2 -1 25 24 21 0 0.20952085D+00 0.17040890D-02 0.12374447D+05 0.12374447D+05 0.12374447D+05 0.12574631D+01  1  2  2  2  5  2       -1 0.394639837246D+00 0.100000000000D+01
-.141907972056D-04 0.000000000000D+00 -.992773936577D-06 0.231652058377D-02 0.000000000000D+00  5 2 -1 25 24 21 2 0.20952085D+00 0.17040890D-02 0.12374447D+05 0.12374447D+05 0.12374447D+05 0.12574631D+01  1  2  3  2  5  2       -1 -.342538098102D-01 0.100000000000D+01
0.177698173698D-04 0.000000000000D+00 0.000000000000D+00 0.231652058377D-02 0.000000000000D+00  5 2 -1 25 24 21 2 0.20952085D+00 0.17040890D-02 0.12374447D+05 0.12374447D+05 0.12374447D+05 0.12574631D+01  1  2 15  2  5  2       -1 0.428928647016D-01 0.100000000000D+01
-.587156993787D-04 0.000000000000D+00 0.000000000000D+00 0.231652058377D-02 0.000000000000D+00  5 2 -1 25 24 21 2 0.20952085D+00 0.17040890D-02 0.12374447D+05 0.12374447D+05 0.12374447D+05 0.12574631D+01  1  2  4  2  5  2       -1 -.141728217961D+00 0.100000000000D+01
  </mgrwgt>
  </event>
  <event>
  4     66 0.48098993E-03 0.10321939E+03 0.75467711E-02 0.12704487E+00
        2 -1    0    0  501    0 0.00000000E+00 0.00000000E+00 0.23183861E+04 0.23183861E+04 0.32000000E+00 0.0000E+00 0.9000E+01
       -1 -1    0    0    0  501 0.00000000E+00 0.00000000E+00 -.58048901E+01 0.58137036E+01 0.32000000E+00 0.0000E+00 0.9000E+01
       25  1    1    2    0    0 0.30938595E+01 0.95148679E+01 0.18742450E+04 0.18784354E+04 0.12500000E+03 0.0000E+00 0.9000E+01
       24  1    1    2    0    0 -.30938595E+01 -.95148679E+01 0.43833622E+03 0.44576447E+03 0.80419002E+02 0.0000E+00 0.9000E+01
#aMCatNLO 1  0  0  2  2 0.32041240D+01 0.00000000D+00  -5  5  0 0.00000000D+00 0.00000000D+00 0.00000000D+00 0.00000000D+00 0.00000000D+00
  <mgrwgt>
 0.5355074703D+00    6    2    0
 0.116052765676186D+03 0.000000000000000D+00 0.000000000000000D+00 0.116052765676186D+03
 0.116052765676186D+03 0.000000000000000D+00 0.000000000000000D+00 -.116052765676186D+03
 0.135780395587182D+03 0.309385953492992D+01 0.951486787340159D+01 0.520692917979641D+02
 0.963251357651897D+02 -.309385953492992D+01 -.951486787340159D+01 -.520692917979641D+02
 0.000000000000000D+00 0.000000000000000D+00 -.000000000000000D+00 0.000000000000000D+00
 0.120683319167310D+03 0.000000000000000D+00 0.000000000000000D+00 0.120683319167310D+03
 0.116619425368547D+03 0.000000000000000D+00 0.000000000000000D+00 -.116619425368547D+03
 0.135807931014028D+03 0.138248543546564D+01 0.102796747025455D+02 0.520692917979641D+02
 0.963197151101043D+02 -.430778287364261D+01 -.897236997081251D+01 -.520692917979641D+02
 0.517509841172522D+01 0.292529743817697D+01 -.130730473173300D+01 0.406389379876303D+01
0.347912306230D-03 0.000000000000D+00 0.000000000000D+00 0.237061001969D-02 0.000000000000D+00  5 2 -1 25 24 21 0 0.35667547D+00 0.89373968D-03 0.10654243D+05 0.10654243D+05 0.10654243D+05 0.12651239D+01  1  2  2  2  5  2       -1 0.430146227113D+00 0.100000000000D+01
-.190057260356D-04 0.000000000000D+00 -.133607486334D-05 0.237061001969D-02 0.000000000000D+00  5 2 -1 25 24 21 2 0.35667547D+00 0.89373968D-03 0.10654243D+05 0.10654243D+05 0.10654243D+05 0.12651239D+01  1  2  3  2  5  2       -1 -.376094434957D-01 0.100000000000D+01
0.238982302570D-04 0.000000000000D+00 0.000000000000D+00 0.237061001969D-02 0.000000000000D+00  5 2 -1 25 24 21 2 0.35667547D+00 0.89373968D-03 0.10654243D+05 0.10654243D+05 0.10654243D+05 0.12651239D+01  1  2 15  2  5  2       -1 0.472909658286D-01 0.100000000000D+01
-.141767694470D-03 0.000000000000D+00 0.000000000000D+00 0.237061001969D-02 0.000000000000D+00  5 2 -1 25 24 21 2 0.35667547D+00 0.89373968D-03 0.10654243D+05 0.10654243D+05 0.10654243D+05 0.12651239D+01  1  2  4  2  5  2       -1 -.280536722707D+00 0.100000000000D+01
0.140602926178D-03 0.000000000000D+00 0.000000000000D+00 0.237061001969D-02 0.196772152241D-02  5 2 -1 25 24 21 2 0.37090696D+00 0.89810361D-03 0.10989987D+05 0.10989987D+05 0.10989987D+05 0.12635240D+01  1  2 11  2  5  2       -1 0.246864447931D+00 0.100000000000D+01
0.309481745031D-05 0.000000000000D+00 0.000000000000D+00 0.237061001969D-02 0.182183780938D-05  5 2 21 25 24 1 2 0.37090696D+00 0.89810361D-03 0.10989987D+05 0.10989987D+05 0.10989987D+05 0.12635240D+01  1  2 11  4  5  2       -1 0.129351995644D+00 0.100000000000D+01
  </mgrwgt>
  </event>
  <event>
  4     66 0.48098993E-03 0.16861133E+03 0.75467711E-02 0.11457166E+00
        2 -1    0    0  501    0 0.00000000E+00 0.00000000E+00 0.11481892E+03 0.11481937E+03 0.32000000E+00 0.0000E+00 0.9000E+01
       -1 -1    0    0    0  501 0.00000000E+00 0.00000000E+00 -.25357761E+03 0.25357782E+03 0.32000000E+00 0.0000E+00 0.9000E+01
       25  1    1    2    0    0 -.10162897E+03 -.85085798E+02 -.46653789E+02 0.18806812E+03 0.12500000E+03 0.0000E+00 0.9000E+01
       24  1    1    2    0    0 0.10162897E+03 0.85085798E+02 -.92104904E+02 0.18032906E+03 0.80419002E+02 0.0000E+00 0.9000E+01
#aMCatNLO 1  0  0  2  2 0.66032668D+02 0.00000000D+00  -5  5  0 0.00000000D+00 0.00000000D+00 0.00000000D+00 0.00000000D+00 0.00000000D+00
  <mgrwgt>
 0.4416341868D+00    4    2    0
 0.170633018904111D+03 0.000000000000000D+00 0.000000000000000D+00 0.170633018904111D+03
 0.170633018904111D+03 0.000000000000000D+00 0.000000000000000D+00 -.170633018904111D+03
 0.184050386926498D+03 -.101628974116245D+03 -.850857982733170D+02 0.261056216180672D+02
 0.157215650881725D+03 0.101628974116245D+03 0.850857982733170D+02 -.261056216180672D+02
 0.000000000000000D+00 -.000000000000000D+00 0.000000000000000D+00 0.000000000000000D+00
 0.302939684874877D+03 0.000000000000000D+00 0.000000000000000D+00 0.302939684874877D+03
 0.182238827973539D+03 0.000000000000000D+00 0.000000000000000D+00 -.182238827973539D+03
 0.174480293560542D+03 -.692621247058308D+02 -.966417479257349D+02 0.261056216180672D+02
 0.173115480059163D+03 0.131450070476009D+03 0.744387598871079D+02 -.261056216180672D+02
 0.137582739228710D+03 -.621879457701781D+02 0.222029880386270D+02 0.120700856901338D+03
0.201523285049D-02 0.000000000000D+00 0.000000000000D+00 0.222757873363D-02 0.000000000000D+00  5 2 -1 25 24 21 0 0.17664499D-01 0.39011990D-01 0.28429781D+05 0.28429781D+05 0.28429781D+05 0.12173565D+01  1  2  2  2  5  2       -1 0.466607483855D+00 0.100000000000D+01
-.111938042749D-03 0.000000000000D+00 -.773902476886D-05 0.222757873363D-02 0.000000000000D+00  5 2 -1 25 24 21 2 0.17664499D-01 0.39011990D-01 0.28429781D+05 0.28429781D+05 0.28429781D+05 0.12173565D+01  1  2  3  2  5  2       -1 -.384095948865D-01 0.100000000000D+01
0.139141309455D-03 0.000000000000D+00 0.000000000000D+00 0.222757873363D-02 0.000000000000D+00  5 2 -1 25 24 21 2 0.17664499D-01 0.39011990D-01 0.28429781D+05 0.28429781D+05 0.28429781D+05 0.12173565D+01  1  2 15  2  5  2       -1 0.477439233072D-01 0.100000000000D+01
-.999835707482D-04 0.000000000000D+00 0.000000000000D+00 0.222757873363D-02 0.000000000000D+00  5 2 -1 25 24 21 2 0.17664499D-01 0.39011990D-01 0.28429781D+05 0.28429781D+05 0.28429781D+05 0.12173565D+01  1  2  4  2  5  2       -1 -.343076254814D-01 0.100000000000D+01
  </mgrwgt>
  </event>
  <event>
  4     66 0.48098993E-03 0.13590612E+03 0.75467711E-02 0.11190120E+00
        2 -1    0    0  501    0 0.00000000E+00 0.00000000E+00 0.95180518E+03 0.95180524E+03 0.32000000E+00 0.0000E+00 0.9000E+01
       -1 -1    0    0    0  501 0.00000000E+00 0.00000000E+00 -.22373716E+02 0.22376004E+02 0.32000000E+00 0.0000E+00 0.9000E+01
       25  1    1    2    0    0 0.85820919E+02 0.18517968E+02 0.33842179E+03 0.37129834E+03 0.12500000E+03 0.0000E+00 0.9000E+01
       24  1    1    2    0    0 -.85820919E+02 -.18517968E+02 0.59100967E+03 0.60288290E+03 0.80419002E+02 0.0000E+00 0.9000E+01
#aMCatNLO 1  0  0  2  2 0.16613505D+03 0.00000000D+00  -5  5  0 0.00000000D+00 0.00000000D+00 0.00000000D+00 0.00000000D+00 0.00000000D+00
  <mgrwgt>
 0.4298205445D+00    3    2    0
 0.145933408593591D+03 0.000000000000000D+00 0.000000000000000D+00 0.145933408593591D+03
 0.145933408593591D+03 0.000000000000000D+00 0.000000000000000D+00 -.145933408593591D+03
 0.161621701174924D+03 0.858209191296025D+02 0.185179677572266D+02 -.528055773623285D+02
 0.130245116012259D+03 -.858209191296025D+02 -.185179677572266D+02 0.528055773623285D+02
 0.000000000000000D+00 -.000000000000000D+00 0.000000000000000D+00 0.000000000000000D+00
 0.272077169299437D+03 0.000000000000000D+00 0.000000000000000D+00 0.272077169299437D+03
 0.234166375281156D+03 0.000000000000000D+00 0.000000000000000D+00 -.234166375281156D+03
 0.224534803428595D+03 0.176625312834970D+03 -.283892200685016D+02 -.528055773623285D+02
 0.111303095880431D+03 -.290210499831501D+02 -.478593027059996D+02 0.528055773623285D+02
 0.170405645271567D+03 -.147604262851820D+03 0.762485227745011D+02 0.379107940182810D+02
0.442903767850D-03 0.000000000000D+00 0.000000000000D+00 0.215294585977D-02 0.000000000000D+00  5 2 -1 25 24 21 0 0.14643175D+00 0.34422903D-02 0.18470473D+05 0.18470473D+05 0.18470473D+05 0.12376481D+01  1  2  2  2  5  2       -1 0.420953734579D+00 0.100000000000D+01
-.244541616167D-04 0.000000000000D+00 -.170086708779D-05 0.215294585977D-02 0.000000000000D+00  5 2 -1 25 24 21 2 0.14643175D+00 0.34422903D-02 0.18470473D+05 0.18470473D+05 0.18470473D+05 0.12376481D+01  1  2  3  2  5  2       -1 -.356018169593D-01 0.100000000000D+01
0.305445924206D-04 0.000000000000D+00 0.000000000000D+00 0.215294585977D-02 0.000000000000D+00  5 2 -1 25 24 21 2 0.14643175D+00 0.34422903D-02 0.18470473D+05 0.18470473D+05 0.18470473D+05 0.12376481D+01  1  2 15  2  5  2       -1 0.444686268743D-01 0.100000000000D+01
  </mgrwgt>
  </event>
  <event>
  4     66 0.48098993E-03 0.12834100E+03 0.75467711E-02 0.11486938E+00
        2 -1    0    0  501    0 0.00000000E+00 0.00000000E+00 0.74732835E+03 0.74732842E+03 0.32000000E+00 0.0000E+00 0.9000E+01
       -1 -1    0    0    0  501 0.00000000E+00 0.00000000E+00 -.48665794E+02 0.48666846E+02 0.32000000E+00 0.0000E+00 0.9000E+01
       25  1    1    2    0    0 0.32686388E+01 -.13518958E+03 0.54816887E+03 0.57827418E+03 0.12500000E+03 0.0000E+00 0.9000E+01
       24  1    1    2    0    0 -.32686388E+01 0.13518958E+03 0.15049368E+03 0.21772109E+03 0.80419002E+02 0.0000E+00 0.9000E+01
#aMCatNLO 1  0  0  2  1 0.57486287D+02 0.00000000D+00  -5  5  0 0.00000000D+00 0.00000000D+00 0.00000000D+00 0.00000000D+00 0.00000000D+00
  <mgrwgt>
 0.3601637295D+00    9    2    0
 0.190708607604682D+03 0.000000000000000D+00 0.000000000000000D+00 0.190708607604682D+03
 0.190708607604682D+03 0.000000000000000D+00 0.000000000000000D+00 -.190708607604682D+03
 0.202713550853773D+03 0.326863878668517D+01 -.135189583980248D+03 0.847400500558908D+02
 0.178703664355591D+03 -.326863878668517D+01 0.135189583980248D+03 -.847400500558908D+02
 0.000000000000000D+00 0.000000000000000D+00 0.000000000000000D+00 -.000000000000000D+00
 0.201690888820967D+03 0.000000000000000D+00 0.000000000000000D+00 0.201690888820967D+03
 0.286443292388125D+03 0.000000000000000D+00 0.000000000000000D+00 -.286443292388125D+03
 0.225022761268837D+03 -.198006955465631D+01 -.166809611024473D+03 0.847400500558908D+02
 0.160702225331745D+03 -.743345358920233D+01 0.110099304977219D+03 -.847400500558908D+02
 0.102409194608510D+03 0.941352314385864D+01 0.567103060472538D+02 -.847524035671583D+02
0.778108612972D-03 0.000000000000D+00 0.000000000000D+00 0.178323563296D-02 0.000000000000D+00  5 2 -1 25 24 21 0 0.11497368D+00 0.74871314D-02 0.29153222D+05 0.29153222D+05 0.29153222D+05 0.12162056D+01  1  2  2  2  5  2       -1 0.320885793548D+00 0.100000000000D+01
-.425854919052D-04 0.000000000000D+00 -.298814195452D-05 0.178323563296D-02 0.000000000000D+00  5 2 -1 25 24 21 2 0.11497368D+00 0.74871314D-02 0.29153222D+05 0.29153222D+05 0.29153222D+05 0.12162056D+01  1  2  3  2  5  2       -1 -.259768183729D-01 0.100000000000D+01
0.534085864382D-04 0.000000000000D+00 0.000000000000D+00 0.178323563296D-02 0.000000000000D+00  5 2 -1 25 24 21 2 0.11497368D+00 0.74871314D-02 0.29153222D+05 0.29153222D+05 0.29153222D+05 0.12162056D+01  1  2 15  2  5  2       -1 0.325788217393D-01 0.100000000000D+01
0.106789671072D-02 0.000000000000D+00 0.000000000000D+00 0.178323563296D-02 0.000000000000D+00  5 2 -1 25 24 21 2 0.11497368D+00 0.11374511D-01 0.40499074D+05 0.40499074D+05 0.40499074D+05 0.12014538D+01  1  2 12  2  5  2       -1 0.336361022934D+00 0.100000000000D+01
-.115312652548D-02 0.000000000000D+00 0.000000000000D+00 0.178323563296D-02 0.000000000000D+00  5 2 -1 25 24 21 2 0.11497368D+00 0.74871314D-02 0.29153222D+05 0.29153222D+05 0.29153222D+05 0.12162056D+01  1  2  4  2  5  2       -1 -.703398199087D+00 0.100000000000D+01
-.132834856736D-02 0.000000000000D+00 -.279153348778D-03 0.178323563296D-02 0.000000000000D+00  5 2 -1 25 24 21 2 0.11497368D+00 0.11853448D-01 0.29153222D+05 0.29153222D+05 0.29153222D+05 0.12162056D+01  1  2  5  2  5  2       -1 -.401104091216D+00 0.100000000000D+01
0.133977274061D-02 0.000000000000D+00 0.252077935927D-03 0.178323563296D-02 0.000000000000D+00  5 2 -1 25 24 21 2 0.11497368D+00 0.74871314D-02 0.29153222D+05 0.29153222D+05 0.29153222D+05 0.12162056D+01  1  2  6  2  5  2       -1 0.817250936571D+00 0.100000000000D+01
0.525265865182D-04 0.000000000000D+00 0.000000000000D+00 0.178323563296D-02 0.000000000000D+00  5 2 21 25 24 1 2 0.11497368D+00 0.11374511D-01 0.40499074D+05 0.40499074D+05 0.40499074D+05 0.12014538D+01  1  2 12  4  5  2       -1 0.238845994740D+00 0.100000000000D+01
-.587293728053D-04 0.000000000000D+00 -.147371251838D-04 0.178323563296D-02 0.000000000000D+00  5 2 21 25 24 1 2 0.11497368D+00 0.11853448D-01 0.29153222D+05 0.29153222D+05 0.29153222D+05 0.12162056D+01  1  2  5  4  5  2       -1 -.255279731391D+00 0.100000000000D+01
  </mgrwgt>
  </event>
  <event>
  4     66 0.48098993E-03 0.16382259E+03 0.75467711E-02 0.11476779E+00
        2 -1    0    0  501    0 0.00000000E+00 0.00000000E+00 0.31554127E+03 0.31554143E+03 0.32000000E+00 0.0000E+00 0.9000E+01
       -1 -1    0    0    0  501 0.00000000E+00 0.00000000E+00 -.97264790E+02 0.97265316E+02 0.32000000E+00 0.0000E+00 0.9000E+01
       25  1    1    2    0    0 0.29681308E+01 -.12640502E+03 0.19018215E+03 0.26034840E+03 0.12500000E+03 0.0000E+00 0.9000E+01
       24  1    1    2    0    0 -.29681308E+01 0.12640502E+03 0.28094324E+02 0.15245834E+03 0.80419002E+02 0.0000E+00 0.9000E+01
#aMCatNLO 1  0  0  2  1 0.70611320D+02 0.00000000D+00  -5  5  0 0.00000000D+00 0.00000000D+00 0.00000000D+00 0.00000000D+00 0.00000000D+00
  <mgrwgt>
 0.3613318398D+00    4    2    0
 0.175189032202272D+03 0.000000000000000D+00 0.000000000000000D+00 0.175189032202272D+03
 0.175189032202272D+03 0.000000000000000D+00 0.000000000000000D+00 -.175189032202272D+03
 0.188257464527214D+03 0.296813077623662D+01 -.126405021194407D+03 0.618775707890326D+02
 0.162120599877331D+03 -.296813077623662D+01 0.126405021194407D+03 -.618775707890326D+02
 0.000000000000000D+00 0.000000000000000D+00 0.000000000000000D+00 0.000000000000000D+00
 0.257643913948734D+03 0.000000000000000D+00 0.000000000000000D+00 0.257643913948734D+03
 0.194502978414027D+03 0.000000000000000D+00 0.000000000000000D+00 -.194502978414027D+03
 0.212929833616140D+03 -.191793101650257D+02 -.159741773931051D+03 0.618775707890326D+02
 0.144492530673452D+03 -.198946292773495D+02 0.100926931119562D+03 -.618775707890326D+02
 0.947245280731689D+02 0.390739394423753D+02 0.588148428114889D+02 0.631409355347069D+02
0.114066727317D-02 0.000000000000D+00 0.000000000000D+00 0.199165022297D-02 0.000000000000D+00  5 2 -1 25 24 21 0 0.48544863D-01 0.14963867D-01 0.26837842D+05 0.26837842D+05 0.26837842D+05 0.12200084D+01  1  2  2  2  5  2       -1 0.422966625143D+00 0.100000000000D+01
-.630236885927D-04 0.000000000000D+00 -.438046267358D-05 0.199165022297D-02 0.000000000000D+00  5 2 -1 25 24 21 2 0.48544863D-01 0.14963867D-01 0.26837842D+05 0.26837842D+05 0.26837842D+05 0.12200084D+01  1  2  3  2  5  2       -1 -.347837646021D-01 0.100000000000D+01
0.785072809765D-04 0.000000000000D+00 0.000000000000D+00 0.199165022297D-02 0.000000000000D+00  5 2 -1 25 24 21 2 0.48544863D-01 0.14963867D-01 0.26837842D+05 0.26837842D+05 0.26837842D+05 0.12200084D+01  1  2 15  2  5  2       -1 0.433294026740D-01 0.100000000000D+01
-.127157862394D-03 0.000000000000D+00 0.000000000000D+00 0.199165022297D-02 0.000000000000D+00  5 2 -1 25 24 21 2 0.48544863D-01 0.14963867D-01 0.26837842D+05 0.26837842D+05 0.26837842D+05 0.12200084D+01  1  2  4  2  5  2       -1 -.701804234500D-01 0.100000000000D+01
  </mgrwgt>
  </event>
  <event>
  5     66 0.48098993E-03 0.12708939E+03 0.75467711E-02 0.11814486E+00
        2 -1    0    0  501    0 0.00000000E+00 0.00000000E+00 0.42533647E+03 0.42533659E+03 0.32000000E+00 0.0000E+00 0.9000E+01
       -1 -1    0    0    0  502 0.00000000E+00 0.00000000E+00 -.99119564E+02 0.99120081E+02 0.32000000E+00 0.0000E+00 0.9000E+01
       25  1    1    2    0    0 -.71334636E+02 0.15267022E+02 0.20104387E+02 0.14611947E+03 0.12500000E+03 0.0000E+00 0.9000E+01
       24  1    1    2    0    0 0.69556826E+02 0.53939371E+02 0.28002885E+03 0.30435338E+03 0.80419002E+02 0.0000E+00 0.9000E+01
       21  1    1    2  501  502 0.17778094E+01 -.69206393E+02 0.26083664E+02 0.73983819E+02 0.75000000E+00 0.0000E+00 0.9000E+01
#aMCatNLO 2  0  0  2  1 0.69229224D+02 0.00000000D+00  -5  5  0 0.00000000D+00 0.00000000D+00 0.00000000D+00 0.00000000D+00 0.00000000D+00
  <mgrwgt>
 0.5948043143D-01    2    2    0
 0.164357188444077D+03 0.000000000000000D+00 0.000000000000000D+00 0.164357188444077D+03
 0.164357188444077D+03 0.000000000000000D+00 0.000000000000000D+00 -.164357188444077D+03
 0.178286886518623D+03 -.703816693647213D+02 -.218299567325917D+02 -.103590962496700D+03
 0.150427490369530D+03 0.703816693647213D+02 0.218299567325917D+02 0.103590962496700D+03
 0.000000000000000D+00 0.000000000000000D+00 -.000000000000000D+00 -.000000000000000D+00
 0.190352936778524D+03 0.000000000000000D+00 0.000000000000000D+00 0.190352936778524D+03
 0.221475697510235D+03 0.000000000000000D+00 0.000000000000000D+00 -.221475697510235D+03
 0.177982582588244D+03 -.713346356287964D+02 0.152670217624529D+02 -.103590962496700D+03
 0.157942746930666D+03 0.695568262095427D+02 0.539393712449132D+02 0.103590962496700D+03
 0.759033047698489D+02 0.177780941925372D+01 -.692063930073662D+02 -.311227607317113D+02
-.170228264941D-03 0.000000000000D+00 0.000000000000D+00 0.145885019727D-02 0.000000000000D+00  5 2 -1 25 24 21 2 0.56499510D-01 0.15896716D-01 0.27753053D+05 0.27753053D+05 0.27753053D+05 0.12184630D+01  1  2 13  2  5  2       -1 -.724777410510D-01 0.100000000000D+01
0.339895550942D-03 0.000000000000D+00 0.000000000000D+00 0.145885019727D-02 0.258943631643D-05  5 2 -1 25 24 21 2 0.65435821D-01 0.15249071D-01 0.27753053D+05 0.27753053D+05 0.27753053D+05 0.12184630D+01  1  2  1  2  5  2       -1 0.131958172477D+00 0.100000000000D+01
  </mgrwgt>
  </event>
  <event>
  4     66 0.48098993E-03 0.99374092E+02 0.75467711E-02 0.11238130E+00
        2 -1    0    0  501    0 0.00000000E+00 0.00000000E+00 0.96936016E+03 0.96936021E+03 0.32000000E+00 0.0000E+00 0.9000E+01
       -1 -1    0    0    0  501 0.00000000E+00 0.00000000E+00 -.40705084E+02 0.40706342E+02 0.32000000E+00 0.0000E+00 0.9000E+01
       25  1    1    2    0    0 -.97533799E+02 -.69504879E+02 0.18828665E+03 0.25577457E+03 0.12500000E+03 0.0000E+00 0.9000E+01
       24  1    1    2    0    0 0.97533799E+02 0.69504879E+02 0.74036843E+03 0.75429199E+03 0.80419002E+02 0.0000E+00 0.9000E+01
#aMCatNLO 1  0  0  2  1 0.12745523D+03 0.00000000D+00  -5  5  0 0.00000000D+00 0.00000000D+00 0.00000000D+00 0.00000000D+00 0.00000000D+00
  <mgrwgt>
 0.2198405702D+00    7    2    0
 0.198641760691301D+03 0.000000000000000D+00 0.000000000000000D+00 0.198641760691301D+03
 0.198641760691301D+03 0.000000000000000D+00 0.000000000000000D+00 -.198641760691301D+03
 0.210167262697726D+03 -.975337985283383D+02 -.695048787282810D+02 -.119170081343663D+03
 0.187116258684876D+03 0.975337985283383D+02 0.695048787282810D+02 0.119170081343663D+03
 0.000000000000000D+00 -.000000000000000D+00 -.000000000000000D+00 -.000000000000000D+00
 0.237045161658292D+03 0.000000000000000D+00 0.000000000000000D+00 0.237045161658292D+03
 0.351456948500192D+03 0.000000000000000D+00 0.000000000000000D+00 -.351456948500192D+03
 0.183935791639824D+03 -.598025193933553D+02 -.207250050161834D+02 -.119170081343663D+03
 0.233292001241449D+03 0.137783528215402D+03 0.121540663787597D+03 0.119170081343663D+03
 0.171274317277211D+03 -.779810088220470D+02 -.100815658771414D+03 -.114411786841900D+03
0.723342196206D-03 0.000000000000D+00 0.000000000000D+00 0.142565707241D-02 0.000000000000D+00  5 2 -1 25 24 21 0 0.14913243D+00 0.62624215D-02 0.25181729D+05 0.25181729D+05 0.25181729D+05 0.12229605D+01  1  2  2  2  5  2       -1 0.278553675690D+00 0.100000000000D+01
-.377216763792D-04 0.000000000000D+00 -.277782449380D-05 0.142565707241D-02 0.000000000000D+00  5 2 -1 25 24 21 2 0.14913243D+00 0.62624215D-02 0.25181729D+05 0.25181729D+05 0.25181729D+05 0.12229605D+01  1  2  3  2  5  2       -1 -.217260598505D-01 0.100000000000D+01
0.499237162909D-04 0.000000000000D+00 0.000000000000D+00 0.142565707241D-02 0.000000000000D+00  5 2 -1 25 24 21 2 0.14913243D+00 0.62624215D-02 0.25181729D+05 0.25181729D+05 0.25181729D+05 0.12229605D+01  1  2 15  2  5  2       -1 0.287539089512D-01 0.100000000000D+01
0.319612172763D-04 0.000000000000D+00 0.000000000000D+00 0.142565707241D-02 0.000000000000D+00  5 2 -1 25 24 21 2 0.14913243D+00 0.11291363D-01 0.54784965D+05 0.54784965D+05 0.54784965D+05 0.11883708D+01  1  2 12  2  5  2       -1 0.710650933186D-02 0.100000000000D+01
-.288637882588D-03 0.000000000000D+00 -.212189689363D-03 0.142565707241D-02 0.000000000000D+00  5 2 -1 25 24 21 2 0.14913243D+00 0.13228683D-01 0.25181729D+05 0.25181729D+05 0.25181729D+05 0.12229605D+01  1  2  5  2  5  2       -1 -.531135027390D-01 0.100000000000D+01
0.206552575358D-05 0.000000000000D+00 0.000000000000D+00 0.142565707241D-02 0.000000000000D+00  5 2 21 25 24 1 2 0.14913243D+00 0.11291363D-01 0.54784965D+05 0.54784965D+05 0.54784965D+05 0.11883708D+01  1  2 12  4  5  2       -1 0.659701667392D-02 0.100000000000D+01
-.101691292060D-04 0.000000000000D+00 -.171639711054D-04 0.142565707241D-02 0.000000000000D+00  5 2 21 25 24 1 2 0.14913243D+00 0.13228683D-01 0.25181729D+05 0.25181729D+05 0.25181729D+05 0.12229605D+01  1  2  5  4  5  2       -1 -.263309778949D-01 0.100000000000D+01
  </mgrwgt>
  </event>
  <event>
  4     66 0.48098993E-03 0.14819334E+03 0.75467711E-02 0.11203994E+00
        2 -1    0    0  501    0 0.00000000E+00 0.00000000E+00 0.28701978E+03 0.28701996E+03 0.32000000E+00 0.0000E+00 0.9000E+01
       -1 -1    0    0    0  501 0.00000000E+00 0.00000000E+00 -.19360333E+03 0.19360359E+03 0.32000000E+00 0.0000E+00 0.9000E+01
       25  1    1    2    0    0 -.78280391E+02 0.18077879E+03 -.29056025E+02 0.23511283E+03 0.12500000E+03 0.0000E+00 0.9000E+01
       24  1    1    2    0    0 0.78280391E+02 -.18077879E+03 0.12247248E+03 0.24551072E+03 0.80419002E+02 0.0000E+00 0.9000E+01
#aMCatNLO 1  0  0  1  2 0.30968435D+02 0.00000000D+00  -5  5  0 0.00000000D+00 0.00000000D+00 0.00000000D+00 0.00000000D+00 0.00000000D+00
  <mgrwgt>
 0.4750508975D+00    9    2    0
 0.235728852338750D+03 0.000000000000000D+00 0.000000000000000D+00 0.235728852338750D+03
 0.235728852338750D+03 0.000000000000000D+00 0.000000000000000D+00 -.235728852338750D+03
 0.245441053406600D+03 -.782803912599809D+02 0.180778790834612D+03 -.762070851424027D+02
 0.226016651270901D+03 0.782803912599809D+02 -.180778790834612D+03 0.762070851424027D+02
 0.000000000000000D+00 0.000000000000000D+00 0.000000000000000D+00 0.000000000000000D+00
 0.275740844515116D+03 0.000000000000000D+00 0.000000000000000D+00 0.275740844515116D+03
 0.242306143158697D+03 0.000000000000000D+00 0.000000000000000D+00 -.242306143158697D+03
 0.236833455865692D+03 -.841233767046158D+02 0.166074752696484D+03 -.762070851424027D+02
 0.235640259000426D+03 0.726871978498613D+02 -.194854220252605D+03 0.762070851424027D+02
 0.455732728076958D+02 0.114361788547545D+02 0.287794675561209D+02 0.334347013564188D+02
0.242347527520D-02 0.000000000000D+00 0.000000000000D+00 0.187359673419D-02 0.000000000000D+00  5 2 -1 25 24 21 0 0.44156924D-01 0.29785161D-01 0.49749540D+05 0.49749540D+05 0.49749540D+05 0.11924978D+01  1  2  2  1  5  1        2 0.326642345213D+00 0.100000000000D+01
-.134136835381D-03 0.000000000000D+00 -.930678317248D-05 0.187359673419D-02 0.000000000000D+00  5 2 -1 25 24 21 2 0.44156924D-01 0.29785161D-01 0.49749540D+05 0.49749540D+05 0.49749540D+05 0.11924978D+01  1  2  3  1  5  1        2 -.257097070295D-01 0.100000000000D+01
0.165928921944D-03 0.000000000000D+00 0.000000000000D+00 0.187359673419D-02 0.000000000000D+00  5 2 -1 25 24 21 2 0.44156924D-01 0.29785161D-01 0.49749540D+05 0.49749540D+05 0.49749540D+05 0.11924978D+01  1  2 15  1  5  1        2 0.318032251080D-01 0.100000000000D+01
0.795588374243D-02 0.000000000000D+00 0.000000000000D+00 0.187359673419D-02 0.000000000000D+00  5 2 -1 25 24 21 2 0.52197506D-01 0.29785161D-01 0.57164825D+05 0.57164825D+05 0.57164825D+05 0.11865645D+01  1  2 12  1  5  1        2 0.126167104572D+01 0.100000000000D+01
-.807800852319D-02 0.000000000000D+00 0.000000000000D+00 0.187359673419D-02 0.000000000000D+00  5 2 -1 25 24 21 2 0.44156924D-01 0.29785161D-01 0.49749540D+05 0.49749540D+05 0.49749540D+05 0.11924978D+01  1  2  4  1  5  1        2 -.154829381447D+01 0.100000000000D+01
-.133758912590D-01 0.000000000000D+00 -.223077928170D-02 0.187359673419D-02 0.000000000000D+00  5 2 -1 25 24 21 2 0.52730610D-01 0.29785161D-01 0.49749540D+05 0.49749540D+05 0.49749540D+05 0.11924978D+01  1  2  5  1  5  1        2 -.211778325291D+01 0.100000000000D+01
0.135918536411D-01 0.000000000000D+00 0.219611370680D-02 0.187359673419D-02 0.000000000000D+00  5 2 -1 25 24 21 2 0.44156924D-01 0.29785161D-01 0.49749540D+05 0.49749540D+05 0.49749540D+05 0.11924978D+01  1  2  6  1  5  1        2 0.260512016784D+01 0.100000000000D+01
0.198058876733D-03 0.000000000000D+00 0.000000000000D+00 0.187359673419D-02 0.000000000000D+00  5 21 -1 25 24 -2 2 0.52197506D-01 0.29785161D-01 0.57164825D+05 0.57164825D+05 0.57164825D+05 0.11865645D+01  1  2 12  3  5  1        2 0.907523227855D-01 0.100000000000D+01
-.327978994052D-03 0.000000000000D+00 -.581793124273D-04 0.187359673419D-02 0.000000000000D+00  5 21 -1 25 24 -2 2 0.52730610D-01 0.29785161D-01 0.49749540D+05 0.49749540D+05 0.49749540D+05 0.11924978D+01  1  2  5  3  5  1        2 -.149151434749D+00 0.100000000000D+01
  </mgrwgt>
  </event>
  <event>
  4     66 0.48098993E-03 0.14629456E+03 0.75467711E-02 0.10141131E+00
        2 -1    0    0  501    0 0.00000000E+00 0.00000000E+00 0.18091001E+04 0.18091002E+04 0.32000000E+00 0.0000E+00 0.9000E+01
       -1 -1    0    0    0  501 0.00000000E+00 0.00000000E+00 -.11831092E+02 0.11835419E+02 0.32000000E+00 0.0000E+00 0.9000E+01
       25  1    1    2    0    0 0.13781412E+02 -.10203416E+03 0.10092468E+04 0.10221570E+04 0.12500000E+03 0.0000E+00 0.9000E+01
       24  1    1    2    0    0 -.13781412E+02 0.10203416E+03 0.78802227E+03 0.79877857E+03 0.80419002E+02 0.0000E+00 0.9000E+01
#aMCatNLO 1  0  0  2  2 0.45581017D+03 0.00000000D+00  -5  5  0 0.00000000D+00 0.00000000D+00 0.00000000D+00 0.00000000D+00 0.00000000D+00
  <mgrwgt>
 0.4322099532D+00    5    2    0
 0.146313346368244D+03 0.000000000000000D+00 0.000000000000000D+00 0.146313346368244D+03
 0.146313346368244D+03 0.000000000000000D+00 0.000000000000000D+00 -.146313346368244D+03
 0.161960900526737D+03 0.137814122847927D+02 -.102034164832075D+03 0.233134765512228D+01
 0.130665792209752D+03 -.137814122847927D+02 0.102034164832075D+03 -.233134765512228D+01
 0.000000000000000D+00 0.000000000000000D+00 -.000000000000000D+00 -.000000000000000D+00
 0.496039994781809D+03 0.000000000000000D+00 0.000000000000000D+00 0.496039994781809D+03
 0.501460307363965D+03 0.000000000000000D+00 0.000000000000000D+00 -.501460307363965D+03
 0.152868008975805D+03 -.756469477088290D+02 0.448969073397651D+02 0.233134765512228D+01
 0.388789899282351D+03 -.161334795018586D+03 0.344464829211970D+03 -.233134765512228D+01
 0.455842393887618D+03 0.236981742727415D+03 -.389361736551735D+03 -.542031258215519D+01
0.478952756860D-03 0.000000000000D+00 0.000000000000D+00 0.243983820332D-02 0.000000000000D+00  5 2 -1 25 24 21 0 0.27832343D+00 0.18205030D-02 0.21402097D+05 0.21402097D+05 0.21402097D+05 0.12305996D+01  1  2  2  2  5  2       -1 0.395481515937D+00 0.100000000000D+01
-.266084859586D-04 0.000000000000D+00 -.183930469750D-05 0.243983820332D-02 0.000000000000D+00  5 2 -1 25 24 21 2 0.27832343D+00 0.18205030D-02 0.21402097D+05 0.21402097D+05 0.21402097D+05 0.12305996D+01  1  2  3  2  5  2       -1 -.332726342266D-01 0.100000000000D+01
0.330294703705D-04 0.000000000000D+00 0.000000000000D+00 0.243983820332D-02 0.000000000000D+00  5 2 -1 25 24 21 2 0.27832343D+00 0.18205030D-02 0.21402097D+05 0.21402097D+05 0.21402097D+05 0.12305996D+01  1  2 15  2  5  2       -1 0.413017669643D-01 0.100000000000D+01
0.122255819949D-01 0.000000000000D+00 -.241693962230D-02 0.243983820332D-02 0.000000000000D+00  5 2 -1 25 24 21 2 0.27832343D+00 0.15122868D+00 0.21402097D+05 0.21402097D+05 0.21402097D+05 0.12305996D+01  1  2  5  2  5  2       -1 0.819914351547D-02 0.100000000000D+01
0.358934537622D-02 0.000000000000D+00 -.874015688831D-03 0.243983820332D-02 0.000000000000D+00  5 2 21 25 24 1 2 0.27832343D+00 0.15122868D+00 0.21402097D+05 0.21402097D+05 0.21402097D+05 0.12305996D+01  1  2  5  4  5  2       -1 0.205001610340D-01 0.100000000000D+01
  </mgrwgt>
  </event>
  <event>
  4     66 0.48098993E-03 0.66217353E+02 0.75467711E-02 0.11771048E+00
        2 -1    0    0  501    0 0.00000000E+00 0.00000000E+00 0.18164529E+03 0.18164558E+03 0.32000000E+00 0.0000E+00 0.9000E+01
       -1 -1    0    0    0  501 0.00000000E+00 0.00000000E+00 -.13338089E+03 0.13338127E+03 0.32000000E+00 0.0000E+00 0.9000E+01
       25  1    1    2    0    0 0.54668825E+02 0.10140959E+03 0.37761070E+02 0.17413639E+03 0.12500000E+03 0.0000E+00 0.9000E+01
       24  1    1    2    0    0 -.54668825E+02 -.10140959E+03 0.10503333E+02 0.14089046E+03 0.80419002E+02 0.0000E+00 0.9000E+01
#aMCatNLO 1  0  0  2  1 0.29529771D+02 0.00000000D+00  -5  5  0 0.00000000D+00 0.00000000D+00 0.00000000D+00 0.00000000D+00 0.00000000D+00
  <mgrwgt>
 0.3179947029D+00    9    2    0
 0.155653833743496D+03 0.000000000000000D+00 0.000000000000000D+00 0.155653833743496D+03
 0.155653833743496D+03 0.000000000000000D+00 0.000000000000000D+00 -.155653833743496D+03
 0.170362408253650D+03 0.546688253032329D+02 0.101409587973143D+03 0.112145063674363D+02
 0.140945259233341D+03 -.546688253032329D+02 -.101409587973143D+03 -.112145063674363D+02
 0.000000000000000D+00 0.000000000000000D+00 0.000000000000000D+00 -.000000000000000D+00
 0.161446006420706D+03 0.000000000000000D+00 0.000000000000000D+00 0.161446006420706D+03
 0.199152861650342D+03 0.000000000000000D+00 0.000000000000000D+00 -.199152861650342D+03
 0.160461092805360D+03 0.444179353598608D+02 0.895770292518808D+02 0.112145063674363D+02
 0.152243993826483D+03 -.637535812412931D+02 -.111896083165196D+03 -.112145063674363D+02
 0.478937814392044D+02 0.193356458814322D+02 0.223190539133148D+02 -.377068552296353D+02
0.606927799490D-03 0.000000000000D+00 0.000000000000D+00 0.235551197076D-02 0.000000000000D+00  5 2 -1 25 24 21 0 0.27945481D-01 0.20520188D-01 0.24101212D+05 0.24101212D+05 0.24101212D+05 0.12250061D+01  1  2  2  2  5  2       -1 0.245775316701D+00 0.100000000000D+01
-.337179284131D-04 0.000000000000D+00 -.233076255780D-05 0.235551197076D-02 0.000000000000D+00  5 2 -1 25 24 21 2 0.27945481D-01 0.20520188D-01 0.24101212D+05 0.24101212D+05 0.24101212D+05 0.12250061D+01  1  2  3  2  5  2       -1 -.204898432862D-01 0.100000000000D+01
0.417753064314D-04 0.000000000000D+00 0.000000000000D+00 0.235551197076D-02 0.000000000000D+00  5 2 -1 25 24 21 2 0.27945481D-01 0.20520188D-01 0.24101212D+05 0.24101212D+05 0.24101212D+05 0.12250061D+01  1  2 15  2  5  2       -1 0.253861824345D-01 0.100000000000D+01
0.123590155022D-02 0.000000000000D+00 0.000000000000D+00 0.235551197076D-02 0.000000000000D+00  5 2 -1 25 24 21 2 0.27945481D-01 0.26560164D-01 0.29143422D+05 0.29143422D+05 0.29143422D+05 0.12162210D+01  1  2 12  2  5  2       -1 0.487106137720D+00 0.100000000000D+01
-.125212691541D-02 0.000000000000D+00 0.000000000000D+00 0.235551197076D-02 0.000000000000D+00  5 2 -1 25 24 21 2 0.27945481D-01 0.20520188D-01 0.24101212D+05 0.24101212D+05 0.24101212D+05 0.12250061D+01  1  2  4  2  5  2       -1 -.760897406172D+00 0.100000000000D+01
-.175724322011D-02 0.000000000000D+00 -.306667488015D-03 0.235551197076D-02 0.000000000000D+00  5 2 -1 25 24 21 2 0.27945481D-01 0.27074528D-01 0.24101212D+05 0.24101212D+05 0.24101212D+05 0.12250061D+01  1  2  5  2  5  2       -1 -.678117138810D+00 0.100000000000D+01
0.178466282730D-02 0.000000000000D+00 0.295252404412D-03 0.235551197076D-02 0.000000000000D+00  5 2 -1 25 24 21 2 0.27945481D-01 0.20520188D-01 0.24101212D+05 0.24101212D+05 0.24101212D+05 0.12250061D+01  1  2  6  2  5  2       -1 0.108451092256D+01 0.100000000000D+01
0.428083046451D-04 0.000000000000D+00 0.000000000000D+00 0.235551197076D-02 0.000000000000D+00  5 2 21 25 24 1 2 0.27945481D-01 0.26560164D-01 0.29143422D+05 0.29143422D+05 0.29143422D+05 0.12162210D+01  1  2 12  4  5  2       -1 0.199558404084D+00 0.100000000000D+01
-.580692145129D-04 0.000000000000D+00 -.111936984650D-04 0.235551197076D-02 0.000000000000D+00  5 2 21 25 24 1 2 0.27945481D-01 0.27074528D-01 0.24101212D+05 0.24101212D+05 0.24101212D+05 0.12250061D+01  1  2  5  4  5  2       -1 -.264837872308D+00 0.100000000000D+01
  </mgrwgt>
  </event>
  <event>
  4     66 0.48098993E-03 0.59392267E+02 0.75467711E-02 0.12549394E+00
        2 -1    0    0  501    0 0.00000000E+00 0.00000000E+00 0.11396350E+04 0.11396350E+04 0.32000000E+00 0.0000E+00 0.9000E+01
       -1 -1    0    0    0  501 0.00000000E+00 0.00000000E+00 -.10823933E+02 0.10828663E+02 0.32000000E+00 0.0000E+00 0.9000E+01
       25  1    1    2    0    0 0.21022403E+02 -.96695714E+00 0.85397404E+03 0.86333049E+03 0.12500000E+03 0.0000E+00 0.9000E+01
       24  1    1    2    0    0 -.21022403E+02 0.96695714E+00 0.27483702E+03 0.28713321E+03 0.80419002E+02 0.0000E+00 0.9000E+01
#aMCatNLO 1  0  0  2  1 0.15776146D+02 0.00000000D+00  -5  5  0 0.00000000D+00 0.00000000D+00 0.00000000D+00 0.00000000D+00 0.00000000D+00
  <mgrwgt>
 0.2519449477D+00    9    2    0
 0.111076908123330D+03 0.000000000000000D+00 0.000000000000000D+00 0.111076908123330D+03
 0.111076908123330D+03 0.000000000000000D+00 0.000000000000000D+00 -.111076908123330D+03
 0.131688266956486D+03 0.210224034750280D+02 -.966957136534759D+00 0.356920607422973D+02
 0.904655492901753D+02 -.210224034750280D+02 0.966957136534759D+00 -.356920607422973D+02
 0.000000000000000D+00 -.000000000000000D+00 0.000000000000000D+00 -.000000000000000D+00
 0.118343078079082D+03 0.000000000000000D+00 0.000000000000000D+00 0.118343078079082D+03
 0.120262707357036D+03 0.000000000000000D+00 0.000000000000000D+00 -.120262707357036D+03
 0.133204415037072D+03 0.281968029136388D+02 -.703088122400769D+01 0.356920607422973D+02
 0.895088644119544D+02 -.161479451739856D+02 -.315301769313496D+01 -.356920607422973D+02
 0.158925059870921D+02 -.120488577396532D+02 0.101838989171426D+02 -.191962927795442D+01
0.148484852525D-03 0.000000000000D+00 0.000000000000D+00 0.272344138496D-02 0.000000000000D+00  5 2 -1 25 24 21 0 0.17532883D+00 0.16655878D-02 0.11013043D+05 0.11013043D+05 0.11013043D+05 0.12634162D+01  1  2  2  2  5  2       -1 0.307607731272D+00 0.100000000000D+01
-.821679427588D-05 0.000000000000D+00 -.570220930657D-06 0.272344138496D-02 0.000000000000D+00  5 2 -1 25 24 21 2 0.17532883D+00 0.16655878D-02 0.11013043D+05 0.11013043D+05 0.11013043D+05 0.12634162D+01  1  2  3  2  5  2       -1 -.271712971563D-01 0.100000000000D+01
0.102166030823D-04 0.000000000000D+00 0.000000000000D+00 0.272344138496D-02 0.000000000000D+00  5 2 -1 25 24 21 2 0.17532883D+00 0.16655878D-02 0.11013043D+05 0.11013043D+05 0.11013043D+05 0.12634162D+01  1  2 15  2  5  2       -1 0.337842653663D-01 0.100000000000D+01
0.182537270548D-03 0.000000000000D+00 0.000000000000D+00 0.272344138496D-02 0.000000000000D+00  5 2 -1 25 24 21 2 0.17532883D+00 0.18538267D-02 0.12790984D+05 0.12790984D+05 0.12790984D+05 0.12557880D+01  1  2 12  2  5  2       -1 0.514496352341D+00 0.100000000000D+01
-.154817386698D-03 0.000000000000D+00 0.000000000000D+00 0.272344138496D-02 0.000000000000D+00  5 2 -1 25 24 21 2 0.17532883D+00 0.16655878D-02 0.11013043D+05 0.11013043D+05 0.11013043D+05 0.12634162D+01  1  2  4  2  5  2       -1 -.511950169094D+00 0.100000000000D+01
-.548722787551D-03 0.000000000000D+00 -.132223652226D-03 0.272344138496D-02 0.000000000000D+00  5 2 -1 25 24 21 2 0.17532883D+00 0.19283098D-02 0.11013043D+05 0.11013043D+05 0.11013043D+05 0.12634162D+01  1  2  5  2  5  2       -1 -.147174526914D+01 0.100000000000D+01
0.563440372506D-03 0.000000000000D+00 0.130817973033D-03 0.272344138496D-02 0.000000000000D+00  5 2 -1 25 24 21 2 0.17532883D+00 0.16655878D-02 0.11013043D+05 0.11013043D+05 0.11013043D+05 0.12634162D+01  1  2  6  2  5  2       -1 0.186318475031D+01 0.100000000000D+01
0.314426245702D-05 0.000000000000D+00 0.000000000000D+00 0.272344138496D-02 0.000000000000D+00  5 2 21 25 24 1 2 0.17532883D+00 0.18538267D-02 0.12790984D+05 0.12790984D+05 0.12790984D+05 0.12557880D+01  1  2 12  4  5  2       -1 0.187491597552D+00 0.100000000000D+01
-.113979398927D-04 0.000000000000D+00 -.295836903219D-05 0.272344138496D-02 0.000000000000D+00  5 2 21 25 24 1 2 0.17532883D+00 0.19283098D-02 0.11013043D+05 0.11013043D+05 0.11013043D+05 0.12634162D+01  1  2  5  4  5  2       -1 -.643753013787D+00 0.100000000000D+01
  </mgrwgt>
  </event>
  <event>
  4     66 0.48098993E-03 0.46726884E+03 0.75467711E-02 0.83273757E-01
        2 -1    0    0  501    0 0.00000000E+00 0.00000000E+00 0.12798182E+04 0.12798183E+04 0.32000000E+00 0.0000E+00 0.9000E+01
       -1 -1    0    0    0  501 0.00000000E+00 0.00000000E+00 -.18076158E+03 0.18076186E+03 0.32000000E+00 0.0000E+00 0.9000E+01
       25  1    1    2    0    0 0.14737594E+02 0.45508336E+03 0.38184514E+03 0.60724688E+03 0.12500000E+03 0.0000E+00 0.9000E+01
       24  1    1    2    0    0 -.14737594E+02 -.45508336E+03 0.71721151E+03 0.85333324E+03 0.80419002E+02 0.0000E+00 0.9000E+01
#aMCatNLO 1  0  0  1  1 0.26621264D+04 0.00000000D+00  -5  5  0 0.00000000D+00 0.00000000D+00 0.00000000D+00 0.00000000D+00 0.00000000D+00
  <mgrwgt>
 0.6213751533D+00    3    2    0
 0.480980454833775D+03 0.000000000000000D+00 0.000000000000000D+00 0.480980454833775D+03
 0.480980454833775D+03 0.000000000000000D+00 0.000000000000000D+00 -.480980454833775D+03
 0.485740411269424D+03 0.147375940552961D+02 0.455083363606774D+03 -.114020536001174D+03
 0.476220498398126D+03 -.147375940552961D+02 -.455083363606774D+03 0.114020536001174D+03
 0.000000000000000D+00 -.000000000000000D+00 0.000000000000000D+00 -.000000000000000D+00
 0.183196769038011D+04 0.000000000000000D+00 0.000000000000000D+00 0.183196769038011D+04
 0.566742933265514D+04 0.000000000000000D+00 0.000000000000000D+00 -.566742933265514D+04
 0.172664972507335D+03 0.338065748859610D+02 -.668023917564096D+01 -.114020536001174D+03
 0.265793316498747D+04 0.760349263403183D+02 -.265317913095448D+04 0.114020536001174D+03
 0.466879888554044D+04 -.109841501226279D+03 0.265985937013012D+04 -.383546164227502D+04
0.261083003422D-01 0.000000000000D+00 0.000000000000D+00 0.183129673039D-02 0.000000000000D+00  5 2 -1 25 24 21 0 0.19689514D+00 0.27809498D-01 0.21834017D+06 0.21834017D+06 0.21834017D+06 0.11336468D+01  1  2  2  1  5  1        2 0.610942154756D+00 0.100000000000D+01
-.144898596555D-02 0.000000000000D+00 -.100262747787D-03 0.183129673039D-02 0.000000000000D+00  5 2 -1 25 24 21 2 0.19689514D+00 0.27809498D-01 0.21834017D+06 0.21834017D+06 0.21834017D+06 0.11336468D+01  1  2  3  1  5  1        2 -.435753810310D-01 0.100000000000D+01
0.179590819798D-02 0.000000000000D+00 0.000000000000D+00 0.183129673039D-02 0.000000000000D+00  5 2 -1 25 24 21 2 0.19689514D+00 0.27809498D-01 0.21834017D+06 0.21834017D+06 0.21834017D+06 0.11336468D+01  1  2 15  1  5  1        2 0.540083795731D-01 0.100000000000D+01
  </mgrwgt>
  </event>
  <event>
  5     66 0.48098993E-03 0.10839243E+03 0.75467711E-02 0.11613219E+00
        2 -1    0    0  501    0 0.00000000E+00 0.00000000E+00 0.69288228E+03 0.69288235E+03 0.32000000E+00 0.0000E+00 0.9000E+01
       21 -1    0    0  502  501 0.00000000E+00 0.00000000E+00 -.56833675E+02 0.56838624E+02 0.75000000E+00 0.0000E+00 0.9000E+01
       25  1    1    2    0    0 -.24745402E+01 -.35557667E+02 0.28412423E+03 0.31244527E+03 0.12500000E+03 0.0000E+00 0.9000E+01
       24  1    1    2    0    0 0.94701781E+01 -.88230879E+02 0.24836480E+03 0.27572933E+03 0.80419002E+02 0.0000E+00 0.9000E+01
        1  1    1    2  502    0 -.69956379E+01 0.12378855E+03 0.10355957E+03 0.16154637E+03 0.32000000E+00 0.0000E+00 0.9000E+01
#aMCatNLO 2  0  0  2  2 0.12398606D+03 0.00000000D+00  -5  5  0 0.00000000D+00 0.00000000D+00 0.00000000D+00 0.00000000D+00 0.00000000D+00
  <mgrwgt>
 0.1307172607D+00    1    2    0
 0.108434601988679D+03 0.000000000000000D+00 0.000000000000000D+00 0.108434601988679D+03
 0.108434601988679D+03 0.000000000000000D+00 0.000000000000000D+00 -.108434601988679D+03
 0.129548213044736D+03 -.636548290903771D+01 0.332929725730445D+02 0.296616042547124D+01
 0.873209909326212D+02 0.636548290903771D+01 -.332929725730445D+02 -.296616042547124D+01
 0.000000000000000D+00 -.000000000000000D+00 0.000000000000000D+00 -.000000000000000D+00
 0.154452280832735D+03 0.000000000000000D+00 0.000000000000000D+00 0.154452280832735D+03
 0.254971022165489D+03 0.000000000000000D+00 0.000000000000000D+00 -.254971022165489D+03
 0.130016418809295D+03 -.247454020680508D+01 -.355576672897615D+02 0.296616042547124D+01
 0.119793098400225D+03 0.947017806208299D+01 -.882308794570149D+02 -.296616042547124D+01
 0.159613785788704D+03 -.699563785527791D+01 0.123788546746776D+03 -.100518741332754D+03
0.162751428416D-04 0.000000000000D+00 0.000000000000D+00 0.305388458154D-02 0.344402425286D-06  5 2 21 25 24 1 2 0.10659756D+00 0.87440206D-02 0.34917596D+05 0.34917596D+05 0.34917596D+05 0.12080398D+01  1  2  1  4  5  2       -1 0.130717260674D+00 0.100000000000D+01
  </mgrwgt>
  </event>
  <event>
  4     66 0.48098993E-03 0.12171499E+03 0.75467711E-02 0.11535709E+00
        2 -1    0    0  501    0 0.00000000E+00 0.00000000E+00 0.10265817E+04 0.10265818E+04 0.32000000E+00 0.0000E+00 0.9000E+01
       -1 -1    0    0    0  501 0.00000000E+00 0.00000000E+00 -.16682407E+02 0.16685476E+02 0.32000000E+00 0.0000E+00 0.9000E+01
       25  1    1    2    0    0 -.46759086E+01 0.64034208E+02 0.76214720E+03 0.77499393E+03 0.12500000E+03 0.0000E+00 0.9000E+01
       24  1    1    2    0    0 0.46759086E+01 -.64034208E+02 0.24775210E+03 0.26827330E+03 0.80419002E+02 0.0000E+00 0.9000E+01
#aMCatNLO 1  0  0  2  2 0.12103073D+03 0.00000000D+00  -5  5  0 0.00000000D+00 0.00000000D+00 0.00000000D+00 0.00000000D+00 0.00000000D+00
  <mgrwgt>
 0.5810545497D+00    3    2    0
 0.130872002602860D+03 0.000000000000000D+00 0.000000000000000D+00 0.130872002602860D+03
 0.130872002602860D+03 0.000000000000000D+00 0.000000000000000D+00 -.130872002602860D+03
 0.148365782524261D+03 -.467590859760510D+01 0.640342084975883D+02 0.475937122413293D+02
 0.113378222681460D+03 0.467590859760510D+01 -.640342084975883D+02 -.475937122413293D+02
 0.000000000000000D+00 -.000000000000000D+00 -.000000000000000D+00 0.000000000000000D+00
 0.507965171280538D+03 0.000000000000000D+00 0.000000000000000D+00 0.507965171280538D+03
 0.154252803493106D+03 0.000000000000000D+00 0.000000000000000D+00 -.154252803493106D+03
 0.190150331303082D+03 0.229724536119571D+02 0.133188788660337D+03 0.475937122413293D+02
 0.982215838349780D+02 0.219583594324971D+02 -.208070320517820D+02 -.475937122413293D+02
 0.373846059635583D+03 -.449308130444542D+02 -.112381756608555D+03 0.353712367787432D+03
0.435800371221D-03 0.000000000000D+00 0.000000000000D+00 0.230316137402D-02 0.000000000000D+00  5 2 -1 25 24 21 0 0.15793589D+00 0.25667641D-02 0.14814540D+05 0.14814540D+05 0.14814540D+05 0.12484390D+01  1  2  2  2  5  2       -1 0.568720330942D+00 0.100000000000D+01
-.240562420347D-04 0.000000000000D+00 -.167358817436D-05 0.230316137402D-02 0.000000000000D+00  5 2 -1 25 24 21 2 0.15793589D+00 0.25667641D-02 0.14814540D+05 0.14814540D+05 0.14814540D+05 0.12484390D+01  1  2  3  2  5  2       -1 -.489298146386D-01 0.100000000000D+01
0.301203351405D-04 0.000000000000D+00 0.000000000000D+00 0.230316137402D-02 0.000000000000D+00  5 2 -1 25 24 21 2 0.15793589D+00 0.25667641D-02 0.14814540D+05 0.14814540D+05 0.14814540D+05 0.12484390D+01  1  2 15  2  5  2       -1 0.612640333910D-01 0.100000000000D+01
  </mgrwgt>
  </event>
  <event>
  4     66 0.48098993E-03 0.56747967E+02 0.75467711E-02 0.12200058E+00
        2 -1    0    0  501    0 0.00000000E+00 0.00000000E+00 0.84516864E+03 0.84516870E+03 0.32000000E+00 0.0000E+00 0.9000E+01
       -1 -1    0    0    0  501 0.00000000E+00 0.00000000E+00 -.18055288E+02 0.18058124E+02 0.32000000E+00 0.0000E+00 0.9000E+01
       25  1    1    2    0    0 -.62045695E+00 -.65383527E+02 0.53437114E+03 0.55267794E+03 0.12500000E+03 0.0000E+00 0.9000E+01
       24  1    1    2    0    0 0.62045695E+00 0.65383527E+02 0.29274221E+03 0.31054888E+03 0.80419002E+02 0.0000E+00 0.9000E+01
#aMCatNLO 1  0  0  1  2 0.24356153D+02 0.00000000D+00  -5  5  0 0.00000000D+00 0.00000000D+00 0.00000000D+00 0.00000000D+00 0.00000000D+00
  <mgrwgt>
 0.5240594643D+00    9    2    0
 0.123535473959257D+03 0.000000000000000D+00 0.000000000000000D+00 0.123535473959257D+03
 0.123535473959257D+03 0.000000000000000D+00 0.000000000000000D+00 -.123535473959257D+03
 0.142068175037187D+03 -.620456951238699D+00 -.653835273420523D+02 0.168218828874680D+02
 0.105002772881327D+03 0.620456951238699D+00 0.653835273420523D+02 -.168218828874680D+02
 0.000000000000000D+00 -.000000000000000D+00 -.000000000000000D+00 0.000000000000000D+00
 0.155628930089103D+03 0.000000000000000D+00 0.000000000000000D+00 0.155628930089103D+03
 0.128843189444823D+03 0.000000000000000D+00 0.000000000000000D+00 -.128843189444823D+03
 0.138398858049683D+03 0.962877861253257D+01 -.561565204407070D+02 0.168218828874680D+02
 0.109869697102642D+03 0.847264027844259D+01 0.724525569589382D+02 -.168218828874680D+02
 0.362035643816008D+02 -.181014188909752D+02 -.162960365182312D+02 0.267857406442801D+02
0.223059414018D-03 0.000000000000D+00 0.000000000000D+00 0.267583979798D-02 0.000000000000D+00  5 2 -1 25 24 21 0 0.13002617D+00 0.27779594D-02 0.14971393D+05 0.14971393D+05 0.14971393D+05 0.12479171D+01  1  2  2  1  5  1        2 0.335898077605D+00 0.100000000000D+01
-.123908068413D-04 0.000000000000D+00 -.856606882722D-06 0.267583979798D-02 0.000000000000D+00  5 2 -1 25 24 21 2 0.13002617D+00 0.27779594D-02 0.14971393D+05 0.14971393D+05 0.14971393D+05 0.12479171D+01  1  2  3  1  5  1        2 -.290574827697D-01 0.100000000000D+01
0.154115380854D-04 0.000000000000D+00 0.000000000000D+00 0.267583979798D-02 0.000000000000D+00  5 2 -1 25 24 21 2 0.13002617D+00 0.27779594D-02 0.14971393D+05 0.14971393D+05 0.14971393D+05 0.12479171D+01  1  2 15  1  5  1        2 0.361413512540D-01 0.100000000000D+01
0.471456911105D-03 0.000000000000D+00 0.000000000000D+00 0.267583979798D-02 0.000000000000D+00  5 2 -1 25 24 21 2 0.16608004D+00 0.27779594D-02 0.18265951D+05 0.18265951D+05 0.18265951D+05 0.12381860D+01  1  2 12  1  5  1        2 0.788368634372D+00 0.100000000000D+01
-.480350648093D-03 0.000000000000D+00 0.000000000000D+00 0.267583979798D-02 0.000000000000D+00  5 2 -1 25 24 21 2 0.13002617D+00 0.27779594D-02 0.14971393D+05 0.14971393D+05 0.14971393D+05 0.12479171D+01  1  2  4  1  5  1        2 -.112646261532D+01 0.100000000000D+01
-.729308641920D-03 0.000000000000D+00 -.138329774056D-03 0.267583979798D-02 0.000000000000D+00  5 2 -1 25 24 21 2 0.16738203D+00 0.27779594D-02 0.14971393D+05 0.14971393D+05 0.14971393D+05 0.12479171D+01  1  2  5  1  5  1        2 -.121825373850D+01 0.100000000000D+01
0.744666651223D-03 0.000000000000D+00 0.134032834647D-03 0.267583979798D-02 0.000000000000D+00  5 2 -1 25 24 21 2 0.13002617D+00 0.27779594D-02 0.14971393D+05 0.14971393D+05 0.14971393D+05 0.12479171D+01  1  2  6  1  5  1        2 0.174630584306D+01 0.100000000000D+01
0.157066029091D-04 0.000000000000D+00 0.000000000000D+00 0.267583979798D-02 0.000000000000D+00  5 21 -1 25 24 -2 2 0.16608004D+00 0.27779594D-02 0.18265951D+05 0.18265951D+05 0.18265951D+05 0.12381860D+01  1  2 12  3  5  1        2 0.206179446912D-01 0.100000000000D+01
-.225100401116D-04 0.000000000000D+00 -.471658519036D-05 0.267583979798D-02 0.000000000000D+00  5 21 -1 25 24 -2 2 0.16738203D+00 0.27779594D-02 0.14971393D+05 0.14971393D+05 0.14971393D+05 0.12479171D+01  1  2  5  3  5  1        2 -.294985500823D-01 0.100000000000D+01
  </mgrwgt>
  </event>
  <event>
  4     66 -.48098993E-03 0.34363536E+02 0.75467711E-02 0.12431160E+00
        2 -1    0    0  501    0 0.00000000E+00 0.00000000E+00 0.18512805E+04 0.18512805E+04 0.32000000E+00 0.0000E+00 0.9000E+01
       -1 -1    0    0    0  501 0.00000000E+00 0.00000000E+00 -.96543196E+01 0.96596214E+01 0.32000000E+00 0.0000E+00 0.9000E+01
       25  1    1    2    0    0 -.52466322E+02 0.17455488E+02 0.14825543E+04 0.14888418E+04 0.12500000E+03 0.0000E+00 0.9000E+01
       24  1    1    2    0    0 0.52466322E+02 -.17455488E+02 0.35907179E+03 0.37209834E+03 0.80419002E+02 0.0000E+00 0.9000E+01
#aMCatNLO 1  0  0  2  1 0.55342571D+01 0.00000000D+00  -5  5  0 0.00000000D+00 0.00000000D+00 0.00000000D+00 0.00000000D+00 0.00000000D+00
  <mgrwgt>
 -.1548762983D+00   11    2    0
 0.133707935658639D+03 0.000000000000000D+00 0.000000000000000D+00 0.133707935658639D+03
 0.133707935658639D+03 0.000000000000000D+00 0.000000000000000D+00 -.133707935658639D+03
 0.150830674111893D+03 -.524663215052816D+02 0.174554875873199D+02 0.637768242690186D+02
 0.116585197205385D+03 0.524663215052816D+02 -.174554875873199D+02 -.637768242690186D+02
 0.000000000000000D+00 -.000000000000000D+00 0.000000000000000D+00 -.000000000000000D+00
 0.135306821282610D+03 0.000000000000000D+00 0.000000000000000D+00 0.135306821282610D+03
 0.138612843041791D+03 0.000000000000000D+00 0.000000000000000D+00 -.138612843041791D+03
 0.149728133044783D+03 -.494139128529764D+02 0.168610713714597D+02 0.637768242690186D+02
 0.117744998753746D+03 0.548461270561772D+02 -.179189232445928D+02 -.637768242690186D+02
 0.644653252587190D+01 -.543221420320087D+01 0.105785187313317D+01 -.330602175918061D+01
0.208177375351D-03 0.000000000000D+00 0.000000000000D+00 0.205076623919D-02 0.000000000000D+00  5 2 -1 25 24 21 0 0.28481279D+00 0.14856899D-02 0.13721521D+05 0.13721521D+05 0.13721521D+05 0.12522574D+01  1  2  2  2  5  2       -1 0.217407542632D+00 0.100000000000D+01
-.113192905416D-04 0.000000000000D+00 -.799455935709D-06 0.205076623919D-02 0.000000000000D+00  5 2 -1 25 24 21 2 0.28481279D+00 0.14856899D-02 0.13721521D+05 0.13721521D+05 0.13721521D+05 0.12522574D+01  1  2  3  2  5  2       -1 -.185373432816D-01 0.100000000000D+01
0.142963134186D-04 0.000000000000D+00 0.000000000000D+00 0.205076623919D-02 0.000000000000D+00  5 2 -1 25 24 21 2 0.28481279D+00 0.14856899D-02 0.13721521D+05 0.13721521D+05 0.13721521D+05 0.12522574D+01  1  2 15  2  5  2       -1 0.234127455716D-01 0.100000000000D+01
0.320037222497D-03 0.000000000000D+00 0.000000000000D+00 0.205076623919D-02 0.000000000000D+00  5 2 -1 25 24 21 2 0.28481279D+00 0.15488523D-02 0.14397241D+05 0.14397241D+05 0.14397241D+05 0.12498582D+01  1  2 12  2  5  2       -1 0.492375814770D+00 0.100000000000D+01
-.763052088290D-03 0.000000000000D+00 0.000000000000D+00 0.205076623919D-02 0.000000000000D+00  5 2 -1 25 24 21 2 0.28481279D+00 0.14856899D-02 0.13721521D+05 0.13721521D+05 0.13721521D+05 0.12522574D+01  1  2  4  2  5  2       -1 -.124963295627D+01 0.100000000000D+01
-.368124834682D-02 0.000000000000D+00 -.520221341793D-03 0.205076623919D-02 0.000000000000D+00  5 2 -1 25 24 21 2 0.28481279D+00 0.15607646D-02 0.13721521D+05 0.13721521D+05 0.13721521D+05 0.12522574D+01  1  2  5  2  5  2       -1 -.561845338580D+01 0.100000000000D+01
0.370302457870D-02 0.000000000000D+00 0.519589872630D-03 0.205076623919D-02 0.000000000000D+00  5 2 -1 25 24 21 2 0.28481279D+00 0.14856899D-02 0.13721521D+05 0.13721521D+05 0.13721521D+05 0.12522574D+01  1  2  6  2  5  2       -1 0.606435867542D+01 0.100000000000D+01
0.448220261084D-03 0.000000000000D+00 0.000000000000D+00 0.205076623919D-02 0.558389688734D-03  5 2 -1 25 24 21 2 0.28821859D+00 0.15401906D-02 0.14397241D+05 0.14397241D+05 0.14397241D+05 0.12498582D+01  1  2 11  2  5  2       -1 0.677381716488D+00 0.100000000000D+01
0.538938876228D-05 0.000000000000D+00 0.000000000000D+00 0.205076623919D-02 0.000000000000D+00  5 2 21 25 24 1 2 0.28481279D+00 0.15488523D-02 0.14397241D+05 0.14397241D+05 0.14397241D+05 0.12498582D+01  1  2 12  4  5  2       -1 0.180482238636D+00 0.100000000000D+01
-.312009359839D-04 0.000000000000D+00 -.447215018784D-05 0.205076623919D-02 0.000000000000D+00  5 2 21 25 24 1 2 0.28481279D+00 0.15607646D-02 0.13721521D+05 0.13721521D+05 0.13721521D+05 0.12522574D+01  1  2  5  4  5  2       -1 -.103595039539D+01 0.100000000000D+01
0.341001147308D-05 0.000000000000D+00 0.000000000000D+00 0.205076623919D-02 0.357146966591D-05  5 2 21 25 24 1 2 0.28821859D+00 0.15401906D-02 0.14397241D+05 0.14397241D+05 0.14397241D+05 0.12498582D+01  1  2 11  4  5  2       -1 0.112279048930D+00 0.100000000000D+01
  </mgrwgt>
  </event>
  <event>
  4     66 0.48098993E-03 0.14971098E+03 0.75467711E-02 0.10829601E+00
        2 -1    0    0  501    0 0.00000000E+00 0.00000000E+00 0.77171396E+03 0.77171402E+03 0.32000000E+00 0.0000E+00 0.9000E+01
       -1 -1    0    0    0  501 0.00000000E+00 0.00000000E+00 -.31698006E+02 0.31699622E+02 0.32000000E+00 0.0000E+00 0.9000E+01
       25  1    1    2    0    0 0.70601283E+02 0.81342404E+02 0.52034255E+03 0.54587773E+03 0.12500000E+03 0.0000E+00 0.9000E+01
       24  1    1    2    0    0 -.70601283E+02 -.81342404E+02 0.21967340E+03 0.25753591E+03 0.80419002E+02 0.0000E+00 0.9000E+01
#aMCatNLO 1  0  0  2  1 0.23325606D+03 0.00000000D+00  -5  5  0 0.00000000D+00 0.00000000D+00 0.00000000D+00 0.00000000D+00 0.00000000D+00
  <mgrwgt>
 0.4121905762D+00    5    2    0
 0.156404825120285D+03 0.000000000000000D+00 0.000000000000000D+00 0.156404825120285D+03
 0.156404825120285D+03 0.000000000000000D+00 0.000000000000000D+00 -.156404825120285D+03
 0.171042775130118D+03 0.706012829573931D+02 0.813424040717277D+02 0.450500063131389D+02
 0.141766875110452D+03 -.706012829573931D+02 -.813424040717277D+02 -.450500063131389D+02
 0.000000000000000D+00 -.000000000000000D+00 -.000000000000000D+00 -.000000000000000D+00
 0.310292227459009D+03 0.000000000000000D+00 0.000000000000000D+00 0.310292227459009D+03
 0.313184619377420D+03 0.000000000000000D+00 0.000000000000000D+00 -.313184619377420D+03
 0.290249130849342D+03 0.133235032891989D+03 0.220994300605819D+03 0.450500063131389D+02
 0.999537230036783D+02 -.377807038401964D+02 -.816370849865530D+01 -.450500063131389D+02
 0.233273992983409D+03 -.954543290517923D+02 -.212830592107164D+03 -.289239191841085D+01
0.442268115242D-03 0.000000000000D+00 0.000000000000D+00 0.218116379557D-02 0.000000000000D+00  5 2 -1 25 24 21 0 0.11872535D+00 0.48767457D-02 0.22413377D+05 0.22413377D+05 0.22413377D+05 0.12284159D+01  1  2  2  2  5  2       -1 0.331211657897D+00 0.100000000000D+01
-.245132933664D-04 0.000000000000D+00 -.169842601440D-05 0.218116379557D-02 0.000000000000D+00  5 2 -1 25 24 21 2 0.11872535D+00 0.48767457D-02 0.22413377D+05 0.22413377D+05 0.22413377D+05 0.12284159D+01  1  2  3  2  5  2       -1 -.277020893996D-01 0.100000000000D+01
0.305254430279D-04 0.000000000000D+00 0.000000000000D+00 0.218116379557D-02 0.000000000000D+00  5 2 -1 25 24 21 2 0.11872535D+00 0.48767457D-02 0.22413377D+05 0.22413377D+05 0.22413377D+05 0.12284159D+01  1  2 15  2  5  2       -1 0.344963256907D-01 0.100000000000D+01
0.175303049129D-03 0.000000000000D+00 -.151660646469D-03 0.218116379557D-02 0.000000000000D+00  5 2 -1 25 24 21 2 0.11872535D+00 0.19913917D-01 0.22413377D+05 0.22413377D+05 0.22413377D+05 0.12284159D+01  1  2  5  2  5  2       -1 0.228827607916D-01 0.100000000000D+01
0.307614366710D-04 0.000000000000D+00 -.255311717516D-04 0.218116379557D-02 0.000000000000D+00  5 2 21 25 24 1 2 0.11872535D+00 0.19913917D-01 0.22413377D+05 0.22413377D+05 0.22413377D+05 0.12284159D+01  1  2  5  4  5  2       -1 0.513019211958D-01 0.100000000000D+01
  </mgrwgt>
  </event>
  <event>
  4     66 0.48098993E-03 0.95922971E+02 0.75467711E-02 0.11856851E+00
        2 -1    0    0  501    0 0.00000000E+00 0.00000000E+00 0.11919147E+04 0.11919147E+04 0.32000000E+00 0.0000E+00 0.9000E+01
       -1 -1    0    0    0  501 0.00000000E+00 0.00000000E+00 -.15979546E+02 0.15982750E+02 0.32000000E+00 0.0000E+00 0.9000E+01
       25  1    1    2    0    0 0.81862667E+02 -.10984657E+02 0.82556217E+03 0.83904711E+03 0.12500000E+03 0.0000E+00 0.9000E+01
       24  1    1    2    0    0 -.81862667E+02 0.10984657E+02 0.35037296E+03 0.36885036E+03 0.80419002E+02 0.0000E+00 0.9000E+01
#aMCatNLO 1  0  0  1  2 0.54564031D+02 0.00000000D+00  -5  5  0 0.00000000D+00 0.00000000D+00 0.00000000D+00 0.00000000D+00 0.00000000D+00
  <mgrwgt>
 0.3023555778D+00    7    2    0
 0.138015275148208D+03 0.000000000000000D+00 0.000000000000000D+00 0.138015275148208D+03
 0.138015275148208D+03 0.000000000000000D+00 0.000000000000000D+00 -.138015275148208D+03
 0.154603627480578D+03 0.818626665260223D+02 -.109846567545619D+02 0.381460715590337D+02
 0.121426922815839D+03 -.818626665260223D+02 0.109846567545619D+02 -.381460715590337D+02
 0.000000000000000D+00 0.000000000000000D+00 0.000000000000000D+00 0.000000000000000D+00
 0.307584098495224D+03 0.000000000000000D+00 0.000000000000000D+00 0.307584098495224D+03
 0.145145562517446D+03 0.000000000000000D+00 0.000000000000000D+00 -.145145562517446D+03
 0.142238545873135D+03 0.534622781546939D+02 -.171308485261838D+02 0.381460715590337D+02
 0.139133268950210D+03 -.106791774666751D+03 0.558969252642822D+01 -.381460715590337D+02
 0.171357846189324D+03 0.533294965120570D+02 0.115411559997556D+02 0.162438535977778D+03
0.292716604981D-03 0.000000000000D+00 0.000000000000D+00 0.234909075168D-02 0.000000000000D+00  5 2 -1 25 24 21 0 0.18337174D+00 0.24586414D-02 0.17569941D+05 0.17569941D+05 0.17569941D+05 0.12400682D+01  1  2  2  1  5  1        2 0.328959433327D+00 0.100000000000D+01
-.162297749745D-04 0.000000000000D+00 -.112410883718D-05 0.234909075168D-02 0.000000000000D+00  5 2 -1 25 24 21 2 0.18337174D+00 0.24586414D-02 0.17569941D+05 0.17569941D+05 0.17569941D+05 0.12400682D+01  1  2  3  1  5  1        2 -.280477907335D-01 0.100000000000D+01
0.202114548400D-04 0.000000000000D+00 0.000000000000D+00 0.234909075168D-02 0.000000000000D+00  5 2 -1 25 24 21 2 0.18337174D+00 0.24586414D-02 0.17569941D+05 0.17569941D+05 0.17569941D+05 0.12400682D+01  1  2 15  1  5  1        2 0.349288056465D-01 0.100000000000D+01
0.651317484242D-03 0.000000000000D+00 0.000000000000D+00 0.234909075168D-02 0.000000000000D+00  5 2 -1 25 24 21 2 0.40740617D+00 0.24586414D-02 0.26470305D+05 0.26470305D+05 0.26470305D+05 0.12206457D+01  1  2 12  1  5  1        2 0.188174350437D+00 0.100000000000D+01
-.773628535819D-03 0.000000000000D+00 -.893410673119D-04 0.234909075168D-02 0.000000000000D+00  5 2 -1 25 24 21 2 0.41307976D+00 0.24586414D-02 0.17569941D+05 0.17569941D+05 0.17569941D+05 0.12400682D+01  1  2  5  1  5  1        2 -.221343110089D+00 0.100000000000D+01
0.563988096433D-04 0.000000000000D+00 0.000000000000D+00 0.234909075168D-02 0.000000000000D+00  5 21 -1 25 24 -2 2 0.40740617D+00 0.24586414D-02 0.26470305D+05 0.26470305D+05 0.26470305D+05 0.12206457D+01  1  2 12  3  5  1        2 0.302914121795D-02 0.100000000000D+01
-.625840990790D-04 0.000000000000D+00 -.787969656432D-05 0.234909075168D-02 0.000000000000D+00  5 21 -1 25 24 -2 2 0.41307976D+00 0.24586414D-02 0.17569941D+05 0.17569941D+05 0.17569941D+05 0.12400682D+01  1  2  5  3  5  1        2 -.334525196118D-02 0.100000000000D+01
  </mgrwgt>
  </event>
  <event>
  5     66 0.48098993E-03 0.12936548E+03 0.75467711E-02 0.11763742E+00
        2 -1    0    0  501    0 0.00000000E+00 0.00000000E+00 0.70440874E+03 0.70440881E+03 0.32000000E+00 0.0000E+00 0.9000E+01
       21 -1    0    0  502  501 0.00000000E+00 0.00000000E+00 -.42024104E+02 0.42030796E+02 0.75000000E+00 0.0000E+00 0.9000E+01
       25  1    1    2    0    0 0.45102983E+02 -.22763826E+02 0.28719530E+03 0.31726742E+03 0.12500000E+03 0.0000E+00 0.9000E+01
       24  1    1    2    0    0 -.10572640E+03 -.19300213E+02 0.25398650E+03 0.28727500E+03 0.80419002E+02 0.0000E+00 0.9000E+01
        1  1    1    2  502    0 0.60623420E+02 0.42064039E+02 0.12120283E+03 0.14189718E+03 0.32000000E+00 0.0000E+00 0.9000E+01
#aMCatNLO 2  0  0  2  2 0.73787414D+02 0.00000000D+00  -5  5  0 0.00000000D+00 0.00000000D+00 0.00000000D+00 0.00000000D+00 0.00000000D+00
  <mgrwgt>
 0.1046754353D+00    1    2    0
 0.129565825316823D+03 0.000000000000000D+00 0.000000000000000D+00 0.129565825316823D+03
 0.129565825316823D+03 0.000000000000000D+00 0.000000000000000D+00 -.129565825316823D+03
 0.147235963301196D+03 0.774753501380878D+02 -.302003044107989D+00 0.713497052363360D+01
 0.111895687332451D+03 -.774753501380878D+02 0.302003044107989D+00 -.713497052363360D+01
 0.000000000000000D+00 0.000000000000000D+00 0.000000000000000D+00 -.000000000000000D+00
 0.165651588642059D+03 0.000000000000000D+00 0.000000000000000D+00 0.165651588642059D+03
 0.178715775758861D+03 0.000000000000000D+00 0.000000000000000D+00 -.178715775758861D+03
 0.135012513006511D+03 0.451029833929435D+02 -.227638255356164D+02 0.713497052363360D+01
 0.134419843573438D+03 -.105726403273331D+03 -.193002134301379D+02 -.713497052363360D+01
 0.749350078209713D+02 0.606234198803871D+02 0.420640389657544D+02 -.130641871168020D+02
0.778027958577D-05 0.000000000000D+00 0.000000000000D+00 0.261992671597D-02 0.216817523543D-06  5 2 21 25 24 1 2 0.10837088D+00 0.64657542D-02 0.29385093D+05 0.29385093D+05 0.29385093D+05 0.12158435D+01  1  2  1  4  5  2       -1 0.104675435316D+00 0.100000000000D+01
  </mgrwgt>
  </event>
  <event>
  4     66 0.48098993E-03 0.11672678E+03 0.75467711E-02 0.11633257E+00
        2 -1    0    0  501    0 0.00000000E+00 0.00000000E+00 0.22754391E+04 0.22754391E+04 0.32000000E+00 0.0000E+00 0.9000E+01
       -1 -1    0    0    0  501 0.00000000E+00 0.00000000E+00 -.60650001E+01 0.60734361E+01 0.32000000E+00 0.0000E+00 0.9000E+01
       25  1    1    2    0    0 -.43495286E+02 -.32739741E+02 0.14529914E+04 0.14593741E+04 0.12500000E+03 0.0000E+00 0.9000E+01
       24  1    1    2    0    0 0.43495286E+02 0.32739741E+02 0.81638268E+03 0.82213845E+03 0.80419002E+02 0.0000E+00 0.9000E+01
#aMCatNLO 1  0  0  2  2 0.11105870D+03 0.00000000D+00  -5  5  0 0.00000000D+00 0.00000000D+00 0.00000000D+00 0.00000000D+00 0.00000000D+00
  <mgrwgt>
 0.6117590108D+00    3    2    0
 0.117516754777505D+03 0.000000000000000D+00 0.000000000000000D+00 0.117516754777505D+03
 0.117516754777505D+03 0.000000000000000D+00 0.000000000000000D+00 -.117516754777505D+03
 0.136998623688385D+03 -.434952858196500D+02 -.327397414361185D+02 0.134123948150498D+02
 0.980348858666253D+02 0.434952858196500D+02 0.327397414361185D+02 -.134123948150498D+02
 0.000000000000000D+00 0.000000000000000D+00 0.000000000000000D+00 0.000000000000000D+00
 0.299520618126995D+03 0.000000000000000D+00 0.000000000000000D+00 0.299520618126995D+03
 0.148162732357379D+03 0.000000000000000D+00 0.000000000000000D+00 -.148162732357379D+03
 0.177003580971584D+03 -.934317795229834D+02 -.824371149256075D+02 0.134123948150498D+02
 0.829479261351520D+02 0.147131724528818D+02 0.409545082366800D+01 -.134123948150498D+02
 0.187731843377639D+03 0.787186070701016D+02 0.783416641019394D+02 0.151357885769616D+03
0.487562981939D-03 0.000000000000D+00 0.000000000000D+00 0.280087759265D-02 0.000000000000D+00  5 2 -1 25 24 21 0 0.35006821D+00 0.93372760D-03 0.13625141D+05 0.13625141D+05 0.13625141D+05 0.12526104D+01  1  2  2  2  5  2       -1 0.598878055787D+00 0.100000000000D+01
-.270853340369D-04 0.000000000000D+00 -.187237022893D-05 0.280087759265D-02 0.000000000000D+00  5 2 -1 25 24 21 2 0.35006821D+00 0.93372760D-03 0.13625141D+05 0.13625141D+05 0.13625141D+05 0.12526104D+01  1  2  3  2  5  2       -1 -.522004067194D-01 0.100000000000D+01
0.337689020562D-04 0.000000000000D+00 0.000000000000D+00 0.280087759265D-02 0.000000000000D+00  5 2 -1 25 24 21 2 0.35006821D+00 0.93372760D-03 0.13625141D+05 0.13625141D+05 0.13625141D+05 0.12526104D+01  1  2 15  2  5  2       -1 0.650813617216D-01 0.100000000000D+01
  </mgrwgt>
  </event>
  <event>
  4     66 0.48098993E-03 0.68896769E+02 0.75467711E-02 0.11489072E+00
        2 -1    0    0  501    0 0.00000000E+00 0.00000000E+00 0.17145553E+04 0.17145553E+04 0.32000000E+00 0.0000E+00 0.9000E+01
       -1 -1    0    0    0  501 0.00000000E+00 0.00000000E+00 -.17514517E+02 0.17517440E+02 0.32000000E+00 0.0000E+00 0.9000E+01
       25  1    1    2    0    0 -.19172639E+02 -.13095512E+03 0.71059556E+03 0.73354474E+03 0.12500000E+03 0.0000E+00 0.9000E+01
       24  1    1    2    0    0 0.19172639E+02 0.13095512E+03 0.98644517E+03 0.99852798E+03 0.80419002E+02 0.0000E+00 0.9000E+01
#aMCatNLO 1  0  0  1  2 0.59752919D+02 0.00000000D+00  -5  5  0 0.00000000D+00 0.00000000D+00 0.00000000D+00 0.00000000D+00 0.00000000D+00
  <mgrwgt>
 0.5183008220D+00    9    2    0
 0.173297907111512D+03 0.000000000000000D+00 0.000000000000000D+00 0.173297907111512D+03
 0.173297907111512D+03 0.000000000000000D+00 0.000000000000000D+00 -.173297907111512D+03
 0.186508949584945D+03 -.191726388470727D+02 -.130955122217636D+03 -.405432381524141D+02
 0.160086864638078D+03 0.191726388470727D+02 0.130955122217636D+03 0.405432381524141D+02
 0.000000000000000D+00 0.000000000000000D+00 -.000000000000000D+00 0.000000000000000D+00
 0.250325432519814D+03 0.000000000000000D+00 0.000000000000000D+00 0.250325432519814D+03
 0.187840297931643D+03 0.000000000000000D+00 0.000000000000000D+00 -.187840297931643D+03
 0.170702998015800D+03 -.331684999824799D+02 -.103781549326511D+03 -.405432381524141D+02
 0.181005787398471D+03 0.580834511536614D+01 0.156902479535880D+03 0.405432381524141D+02
 0.864569450371863D+02 0.273601548671138D+02 -.531209302093696D+02 0.624851345881713D+02
0.721345990407D-03 0.000000000000D+00 0.000000000000D+00 0.214825474764D-02 0.000000000000D+00  5 2 -1 25 24 21 0 0.26377796D+00 0.26947682D-02 0.28378238D+05 0.28378238D+05 0.28378238D+05 0.12174397D+01  1  2  2  1  5  1        2 0.378287790498D+00 0.100000000000D+01
-.400356898574D-04 0.000000000000D+00 -.277015853792D-05 0.214825474764D-02 0.000000000000D+00  5 2 -1 25 24 21 2 0.26377796D+00 0.26947682D-02 0.28378238D+05 0.28378238D+05 0.28378238D+05 0.12174397D+01  1  2  3  1  5  1        2 -.311186651147D-01 0.100000000000D+01
0.497452980498D-04 0.000000000000D+00 0.000000000000D+00 0.214825474764D-02 0.000000000000D+00  5 2 -1 25 24 21 2 0.26377796D+00 0.26947682D-02 0.28378238D+05 0.28378238D+05 0.28378238D+05 0.12174397D+01  1  2 15  1  5  1        2 0.386656824588D-01 0.100000000000D+01
0.699869467339D-03 0.000000000000D+00 0.000000000000D+00 0.214825474764D-02 0.000000000000D+00  5 2 -1 25 24 21 2 0.38822688D+00 0.26947682D-02 0.40396602D+05 0.40396602D+05 0.40396602D+05 0.12015654D+01  1  2 12  1  5  1        2 0.199377110808D+00 0.100000000000D+01
-.787146429186D-03 0.000000000000D+00 0.000000000000D+00 0.214825474764D-02 0.000000000000D+00  5 2 -1 25 24 21 2 0.26377796D+00 0.26947682D-02 0.28378238D+05 0.28378238D+05 0.28378238D+05 0.12174397D+01  1  2  4  1  5  1        2 -.611827752022D+00 0.100000000000D+01
-.104797252169D-02 0.000000000000D+00 -.271401853636D-03 0.214825474764D-02 0.000000000000D+00  5 2 -1 25 24 21 2 0.39094425D+00 0.26947682D-02 0.28378238D+05 0.28378238D+05 0.28378238D+05 0.12174397D+01  1  2  5  1  5  1        2 -.301107126775D+00 0.100000000000D+01
0.108909649430D-02 0.000000000000D+00 0.251668978038D-03 0.214825474764D-02 0.000000000000D+00  5 2 -1 25 24 21 2 0.26377796D+00 0.26947682D-02 0.28378238D+05 0.28378238D+05 0.28378238D+05 0.12174397D+01  1  2  6  1  5  1        2 0.846525417809D+00 0.100000000000D+01
0.324862255447D-04 0.000000000000D+00 0.000000000000D+00 0.214825474764D-02 0.000000000000D+00  5 21 -1 25 24 -2 2 0.38822688D+00 0.26947682D-02 0.40396602D+05 0.40396602D+05 0.40396602D+05 0.12015654D+01  1  2 12  3  5  1        2 0.185720195451D-02 0.100000000000D+01
-.402264236178D-04 0.000000000000D+00 -.127634865189D-04 0.214825474764D-02 0.000000000000D+00  5 21 -1 25 24 -2 2 0.39094425D+00 0.26947682D-02 0.28378238D+05 0.28378238D+05 0.28378238D+05 0.12174397D+01  1  2  5  3  5  1        2 -.235883758606D-02 0.100000000000D+01
  </mgrwgt>
  </event>
  <event>
  4     66 0.48098993E-03 0.11159481E+03 0.75467711E-02 0.11819900E+00
        4 -1    0    0  501    0 0.00000000E+00 0.00000000E+00 0.86371458E+02 0.86385365E+02 0.15500000E+01 0.0000E+00 0.9000E+01
       -3 -1    0    0    0  501 0.00000000E+00 0.00000000E+00 -.15501082E+03 0.15501163E+03 0.50000000E+00 0.0000E+00 0.9000E+01
       25  1    1    2    0    0 0.41996364E+02 0.80307366E+01 -.87669573E+01 0.13240108E+03 0.12500000E+03 0.0000E+00 0.9000E+01
       24  1    1    2    0    0 -.41996364E+02 -.80307366E+01 -.59872404E+02 0.10899591E+03 0.80419002E+02 0.0000E+00 0.9000E+01
#aMCatNLO 1  0  0  1  1 0.91283674D+02 0.00000000D+00  -5  5  0 0.00000000D+00 0.00000000D+00 0.00000000D+00 0.00000000D+00 0.00000000D+00
  <mgrwgt>
 0.7402065060D-01    3    2    0
 0.115716405065352D+03 0.000000000000000D+00 0.000000000000000D+00 0.115716405065352D+03
 0.115716405065352D+03 0.000000000000000D+00 0.000000000000000D+00 -.115716405065352D+03
 0.135501378597103D+03 0.419963637555303D+02 0.803073658617362D+01 0.301236834220545D+02
 0.959314315336013D+02 -.419963637555303D+02 -.803073658617362D+01 -.301236834220545D+02
 0.000000000000000D+00 -.000000000000000D+00 -.000000000000000D+00 -.000000000000000D+00
 0.131879875251545D+03 0.000000000000000D+00 0.000000000000000D+00 0.131879875251545D+03
 0.402613148105729D+03 0.000000000000000D+00 0.000000000000000D+00 -.402613148105729D+03
 0.154096277996070D+03 0.600881887556842D+02 0.600219639914514D+02 0.301236834220545D+02
 0.946884778102633D+02 -.300879039911647D+02 0.261910978418331D+02 -.301236834220545D+02
 0.285708267550941D+03 -.300002847645195D+02 -.862130618332845D+02 -.270733272854184D+03
0.507587753280D-03 0.000000000000D+00 0.000000000000D+00 0.270482481545D-02 0.000000000000D+00  5 4 -3 25 24 21 0 0.13289048D-01 0.23848950D-01 0.12453401D+05 0.12453401D+05 0.12453401D+05 0.12571408D+01  1  2  2  1  5  1        4 0.724542225790D-01 0.100000000000D+01
-.281542208603D-04 0.000000000000D+00 -.194927062352D-05 0.270482481545D-02 0.000000000000D+00  5 4 -3 25 24 21 2 0.13289048D-01 0.23848950D-01 0.12453401D+05 0.12453401D+05 0.12453401D+05 0.12571408D+01  1  2  3  1  5  1        4 -.635131881089D-02 0.100000000000D+01
0.350979063706D-04 0.000000000000D+00 0.000000000000D+00 0.270482481545D-02 0.000000000000D+00  5 4 -3 25 24 21 2 0.13289048D-01 0.23848950D-01 0.12453401D+05 0.12453401D+05 0.12453401D+05 0.12571408D+01  1  2 15  1  5  1        4 0.791774682952D-02 0.100000000000D+01
  </mgrwgt>
  </event>
  <event>
  4     66 0.48098993E-03 0.36279736E+03 0.75467711E-02 0.96946291E-01
        2 -1    0    0  501    0 0.00000000E+00 0.00000000E+00 0.82541460E+03 0.82541467E+03 0.32000000E+00 0.0000E+00 0.9000E+01
       -1 -1    0    0    0  501 0.00000000E+00 0.00000000E+00 -.16518540E+03 0.16518571E+03 0.32000000E+00 0.0000E+00 0.9000E+01
       25  1    1    2    0    0 0.15108515E+03 0.31271219E+03 0.42784478E+03 0.56505911E+03 0.12500000E+03 0.0000E+00 0.9000E+01
       24  1    1    2    0    0 -.15108515E+03 -.31271219E+03 0.23238442E+03 0.42554127E+03 0.80419002E+02 0.0000E+00 0.9000E+01
#aMCatNLO 1  0  0  2  1 0.52908687D+03 0.00000000D+00  -5  5  0 0.00000000D+00 0.00000000D+00 0.00000000D+00 0.00000000D+00 0.00000000D+00
  <mgrwgt>
 0.6330461946D+00    3    2    0
 0.369251440436457D+03 0.000000000000000D+00 0.000000000000000D+00 0.369251440436457D+03
 0.369251440436457D+03 0.000000000000000D+00 0.000000000000000D+00 -.369251440436457D+03
 0.375451676266821D+03 0.151085145661194D+03 0.312712192713665D+03 0.687264468768223D+02
 0.363051204606094D+03 -.151085145661194D+03 -.312712192713665D+03 -.687264468768223D+02
 0.000000000000000D+00 0.000000000000000D+00 -.000000000000000D+00 0.000000000000000D+00
 0.116599444485618D+04 0.000000000000000D+00 0.000000000000000D+00 0.116599444485618D+04
 0.552559795279812D+03 0.000000000000000D+00 0.000000000000000D+00 -.552559795279812D+03
 0.373710812573001D+03 -.886521330340256D+02 0.333844643872232D+03 0.687264468768223D+02
 0.534760109997071D+03 -.438391096708031D+03 -.287386640462855D+03 -.687264468768223D+02
 0.810083317565918D+03 0.527043229742057D+03 -.464580034093775D+02 0.613434649576366D+03
0.118540260661D-01 0.000000000000D+00 0.000000000000D+00 0.190266375170D-02 0.000000000000D+00  5 2 -1 25 24 21 0 0.12698689D+00 0.25413167D-01 0.13162192D+06 0.13162192D+06 0.13162192D+06 0.11527665D+01  1  2  2  2  5  2       -1 0.622139988794D+00 0.100000000000D+01
-.658308033947D-03 0.000000000000D+00 -.455225813305D-04 0.190266375170D-02 0.000000000000D+00  5 2 -1 25 24 21 2 0.12698689D+00 0.25413167D-01 0.13162192D+06 0.13162192D+06 0.13162192D+06 0.11527665D+01  1  2  3  2  5  2       -1 -.459128347505D-01 0.100000000000D+01
0.814683542482D-03 0.000000000000D+00 0.000000000000D+00 0.190266375170D-02 0.000000000000D+00  5 2 -1 25 24 21 2 0.12698689D+00 0.25413167D-01 0.13162192D+06 0.13162192D+06 0.13162192D+06 0.11527665D+01  1  2 15  2  5  2       -1 0.568190405268D-01 0.100000000000D+01
  </mgrwgt>
  </event>
  <event>
  5     66 0.48098993E-03 0.13699579E+03 0.75467711E-02 0.12105332E+00
        2 -1    0    0  501    0 0.00000000E+00 0.00000000E+00 0.29846280E+03 0.29846298E+03 0.32000000E+00 0.0000E+00 0.9000E+01
       21 -1    0    0  502  501 0.00000000E+00 0.00000000E+00 -.79999335E+02 0.80002851E+02 0.75000000E+00 0.0000E+00 0.9000E+01
       25  1    1    2    0    0 0.82055408E+02 0.21504222E+02 0.11303415E+03 0.18867231E+03 0.12500000E+03 0.0000E+00 0.9000E+01
       24  1    1    2    0    0 -.91461244E+02 -.18084921E+02 0.49053898E+02 0.13253575E+03 0.80419002E+02 0.0000E+00 0.9000E+01
        1  1    1    2  502    0 0.94058357E+01 -.34193014E+01 0.56375426E+02 0.57257771E+02 0.32000000E+00 0.0000E+00 0.9000E+01
#aMCatNLO 2  0  0  2  1 0.10008065D+02 0.00000000D+00  -5  5  0 0.00000000D+00 0.00000000D+00 0.00000000D+00 0.00000000D+00 0.00000000D+00
  <mgrwgt>
 0.1019722282D+00    1    2    0
 0.138565796201181D+03 0.000000000000000D+00 0.000000000000000D+00 0.138565796201181D+03
 0.138565796201181D+03 0.000000000000000D+00 0.000000000000000D+00 -.138565796201181D+03
 0.155088243112130D+03 0.872729520665934D+02 0.196074897575339D+02 0.206480346424888D+02
 0.122043349290232D+03 -.872729520665934D+02 -.196074897575339D+02 -.206480346424888D+02
 0.000000000000000D+00 0.000000000000000D+00 -.000000000000000D+00 0.000000000000000D+00
 0.171256189581746D+03 0.000000000000000D+00 0.000000000000000D+00 0.171256189581746D+03
 0.139424229233456D+03 0.000000000000000D+00 0.000000000000000D+00 -.139424229233456D+03
 0.152469219688762D+03 0.820554083606308D+02 0.215042222987200D+02 0.206480346424888D+02
 0.124843024675014D+03 -.914612440197112D+02 -.180849208846774D+02 -.206480346424888D+02
 0.333681744514256D+02 0.940583565908042D+01 -.341930141404258D+01 0.318319603482894D+02
0.880698088812D-05 0.000000000000D+00 0.000000000000D+00 0.246589049873D-02 0.261426368028D-06  5 2 21 25 24 1 2 0.45917387D-01 0.12307806D-01 0.20191894D+05 0.20191894D+05 0.20191894D+05 0.12333698D+01  1  2  1  4  5  2       -1 0.101972228215D+00 0.100000000000D+01
  </mgrwgt>
  </event>
  <event>
  4     66 0.48098993E-03 0.13872812E+03 0.75467711E-02 0.10435347E+00
        2 -1    0    0  501    0 0.00000000E+00 0.00000000E+00 0.57383503E+03 0.57383512E+03 0.32000000E+00 0.0000E+00 0.9000E+01
       -1 -1    0    0    0  501 0.00000000E+00 0.00000000E+00 -.37845442E+02 0.37846795E+02 0.32000000E+00 0.0000E+00 0.9000E+01
       25  1    1    2    0    0 0.40114491E+02 0.82840597E+02 0.39878207E+03 0.42792975E+03 0.12500000E+03 0.0000E+00 0.9000E+01
       24  1    1    2    0    0 -.40114491E+02 -.82840597E+02 0.13720752E+03 0.18375216E+03 0.80419002E+02 0.0000E+00 0.9000E+01
#aMCatNLO 1  0  0  1  2 0.35557133D+03 0.00000000D+00  -5  5  0 0.00000000D+00 0.00000000D+00 0.00000000D+00 0.00000000D+00 0.00000000D+00
  <mgrwgt>
 0.3978353209D+00    5    2    0
 0.147368523277750D+03 0.000000000000000D+00 0.000000000000000D+00 0.147368523277750D+03
 0.147368523277750D+03 0.000000000000000D+00 0.000000000000000D+00 -.147368523277750D+03
 0.162904039007200D+03 0.401144914367697D+02 0.828405973945102D+02 0.494063652270580D+02
 0.131833007548299D+03 -.401144914367697D+02 -.828405973945102D+02 -.494063652270580D+02
 0.000000000000000D+00 -.000000000000000D+00 -.000000000000000D+00 0.000000000000000D+00
 0.832560763397860D+03 0.000000000000000D+00 0.000000000000000D+00 0.832560763397860D+03
 0.283458678716288D+03 0.000000000000000D+00 0.000000000000000D+00 -.283458678716288D+03
 0.358531086334684D+03 0.220519599739825D+03 0.248695912861403D+03 0.494063652270580D+02
 0.103314013977622D+03 0.412412167305896D+02 -.804628159019835D+01 -.494063652270580D+02
 0.654174341801842D+03 -.261760816470415D+03 -.240649631271204D+03 0.549102084681572D+03
0.476783807173D-03 0.000000000000D+00 0.000000000000D+00 0.218235922157D-02 0.000000000000D+00  5 2 -1 25 24 21 0 0.88282423D-01 0.58224867D-02 0.19245492D+05 0.19245492D+05 0.19245492D+05 0.12356689D+01  1  2  2  1  5  1        2 0.387032568067D+00 0.100000000000D+01
-.263704192052D-04 0.000000000000D+00 -.183097535961D-05 0.218235922157D-02 0.000000000000D+00  5 2 -1 25 24 21 2 0.88282423D-01 0.58224867D-02 0.19245492D+05 0.19245492D+05 0.19245492D+05 0.12356689D+01  1  2  3  1  5  1        2 -.326849102947D-01 0.100000000000D+01
0.329227857216D-04 0.000000000000D+00 0.000000000000D+00 0.218235922157D-02 0.000000000000D+00  5 2 -1 25 24 21 2 0.88282423D-01 0.58224867D-02 0.19245492D+05 0.19245492D+05 0.19245492D+05 0.12356689D+01  1  2 15  1  5  1        2 0.408062643823D-01 0.100000000000D+01
0.177974484295D-03 0.000000000000D+00 -.270567771101D-03 0.218235922157D-02 0.000000000000D+00  5 2 -1 25 24 21 2 0.59384353D+00 0.58224867D-02 0.19245492D+05 0.19245492D+05 0.19245492D+05 0.12356689D+01  1  2  5  1  5  1        2 0.266690985105D-02 0.100000000000D+01
0.181524749808D-04 0.000000000000D+00 -.631195126206D-04 0.218235922157D-02 0.000000000000D+00  5 21 -1 25 24 -2 2 0.59384353D+00 0.58224867D-02 0.19245492D+05 0.19245492D+05 0.19245492D+05 0.12356689D+01  1  2  5  3  5  1        2 0.144888873640D-04 0.100000000000D+01
  </mgrwgt>
  </event>
  <event>
  5     66 0.48098993E-03 0.11672995E+03 0.75467711E-02 0.12075221E+00
        4 -1    0    0  501    0 0.00000000E+00 0.00000000E+00 0.43655596E+03 0.43655871E+03 0.15500000E+01 0.0000E+00 0.9000E+01
       21 -1    0    0  502  501 0.00000000E+00 0.00000000E+00 -.15611107E+03 0.15611287E+03 0.75000000E+00 0.0000E+00 0.9000E+01
       25  1    1    2    0    0 -.19793570E+02 0.82399954E+02 0.27216917E+03 0.31125969E+03 0.12500000E+03 0.0000E+00 0.9000E+01
       24  1    1    2    0    0 0.44579252E+01 -.34723481E+02 0.12597419E+03 0.15350018E+03 0.80419002E+02 0.0000E+00 0.9000E+01
        3  1    1    2  502    0 0.15335645E+02 -.47676473E+02 -.11769847E+03 0.12791172E+03 0.50000000E+00 0.0000E+00 0.9000E+01
#aMCatNLO 2  0  0  2  1 0.50082213D+02 0.00000000D+00  -5  5  0 0.00000000D+00 0.00000000D+00 0.00000000D+00 0.00000000D+00 0.00000000D+00
  <mgrwgt>
 0.2596054211D-01    2    2    0
 0.117234141509957D+03 0.000000000000000D+00 0.000000000000000D+00 0.117234141509957D+03
 0.117234141509957D+03 0.000000000000000D+00 0.000000000000000D+00 -.117234141509957D+03
 0.136762974850822D+03 -.104749549688542D+02 0.534296231409343D+02 0.107080334079051D+02
 0.977053081690915D+02 0.104749549688542D+02 -.534296231409343D+02 -.107080334079051D+02
 0.000000000000000D+00 0.000000000000000D+00 -.000000000000000D+00 -.000000000000000D+00
 0.121297427406662D+03 0.000000000000000D+00 0.000000000000000D+00 0.121297427406662D+03
 0.561861968203076D+03 0.000000000000000D+00 0.000000000000000D+00 -.561861968203076D+03
 0.151397489603121D+03 -.197935704469186D+02 0.823999541724705D+02 0.107080334079051D+02
 0.883598957524845D+02 0.445792521260893D+01 -.347234811957755D+02 -.107080334079051D+02
 0.443402010254132D+03 0.153356452343097D+02 -.476764729766951D+02 -.440564540796414D+03
-.410826647685D-03 0.000000000000D+00 0.000000000000D+00 0.281813118518D-02 0.000000000000D+00  5 4 21 25 24 3 2 0.64912876D-01 0.23632019D-01 0.20852690D+05 0.20852690D+05 0.20852690D+05 0.12318348D+01  1  2 13  4  5  2       -3 -.982907179509D-01 0.100000000000D+01
0.575884570621D-03 0.000000000000D+00 0.000000000000D+00 0.281813118518D-02 0.437731966251D-05  5 4 21 25 24 3 2 0.67162729D-01 0.24017410D-01 0.20852690D+05 0.20852690D+05 0.20852690D+05 0.12318348D+01  1  2  1  4  5  2       -3 0.124251260060D+00 0.100000000000D+01
  </mgrwgt>
  </event>
  <event>
  4     66 0.48098993E-03 0.72794121E+02 0.75467711E-02 0.11886390E+00
        2 -1    0    0  501    0 0.00000000E+00 0.00000000E+00 0.21323170E+04 0.21323170E+04 0.32000000E+00 0.0000E+00 0.9000E+01
       -1 -1    0    0    0  501 0.00000000E+00 0.00000000E+00 -.12770381E+02 0.12774390E+02 0.32000000E+00 0.0000E+00 0.9000E+01
       25  1    1    2    0    0 -.15523110E+02 -.10110576E+03 0.64890164E+03 0.66870149E+03 0.12500000E+03 0.0000E+00 0.9000E+01
       24  1    1    2    0    0 0.15523110E+02 0.10110576E+03 0.14706450E+04 0.14763899E+04 0.80419002E+02 0.0000E+00 0.9000E+01
#aMCatNLO 1  0  0  1  2 0.26917608D+02 0.00000000D+00  -5  5  0 0.00000000D+00 0.00000000D+00 0.00000000D+00 0.00000000D+00 0.00000000D+00
  <mgrwgt>
 0.7596691438D+00    9    2    0
 0.165029772162526D+03 0.000000000000000D+00 0.000000000000000D+00 0.165029772162526D+03
 0.165029772162526D+03 0.000000000000000D+00 0.000000000000000D+00 -.165029772162526D+03
 0.178902699340494D+03 -.155231098822940D+02 -.101105760420122D+03 -.769274599916460D+02
 0.151156844984558D+03 0.155231098822940D+02 0.101105760420122D+03 0.769274599916460D+02
 0.000000000000000D+00 -.000000000000000D+00 -.000000000000000D+00 0.000000000000000D+00
 0.182114932917705D+03 0.000000000000000D+00 0.000000000000000D+00 0.182114932917705D+03
 0.176531080254231D+03 0.000000000000000D+00 0.000000000000000D+00 -.176531080254231D+03
 0.171229992115133D+03 -.114882966477696D+02 -.874350910053562D+02 -.769274599916460D+02
 0.159925349683890D+03 0.191079181184372D+02 0.113251732355654D+03 0.769274599916460D+02
 0.274906713729143D+02 -.761962147066760D+01 -.258166413502981D+02 0.558385266347401D+01
0.610072959935D-03 0.000000000000D+00 0.000000000000D+00 0.184165332714D-02 0.000000000000D+00  5 2 -1 25 24 21 0 0.32804908D+00 0.19649842D-02 0.21262938D+05 0.21262938D+05 0.21262938D+05 0.12309091D+01  1  2  2  1  5  1        2 0.307839046645D+00 0.100000000000D+01
-.332617090513D-04 0.000000000000D+00 -.234284080205D-05 0.184165332714D-02 0.000000000000D+00  5 2 -1 25 24 21 2 0.32804908D+00 0.19649842D-02 0.21262938D+05 0.21262938D+05 0.21262938D+05 0.12309091D+01  1  2  3  1  5  1        2 -.254295353235D-01 0.100000000000D+01
0.420857442714D-04 0.000000000000D+00 0.000000000000D+00 0.184165332714D-02 0.000000000000D+00  5 2 -1 25 24 21 2 0.32804908D+00 0.19649842D-02 0.21262938D+05 0.21262938D+05 0.21262938D+05 0.12309091D+01  1  2 15  1  5  1        2 0.321757645981D-01 0.100000000000D+01
0.780162927737D-03 0.000000000000D+00 0.000000000000D+00 0.184165332714D-02 0.000000000000D+00  5 2 -1 25 24 21 2 0.37245172D+00 0.19649842D-02 0.25616375D+05 0.25616375D+05 0.25616375D+05 0.12221652D+01  1  2 12  1  5  1        2 0.415129247367D+00 0.100000000000D+01
-.698634599970D-03 0.000000000000D+00 0.000000000000D+00 0.184165332714D-02 0.000000000000D+00  5 2 -1 25 24 21 2 0.32804908D+00 0.19649842D-02 0.21262938D+05 0.21262938D+05 0.21262938D+05 0.12309091D+01  1  2  4  1  5  1        2 -.534126289504D+00 0.100000000000D+01
-.233809098870D-02 0.000000000000D+00 -.531573790985D-03 0.184165332714D-02 0.000000000000D+00  5 2 -1 25 24 21 2 0.37271733D+00 0.19649842D-02 0.21262938D+05 0.21262938D+05 0.21262938D+05 0.12309091D+01  1  2  5  1  5  1        2 -.126008136654D+01 0.100000000000D+01
0.239074561759D-02 0.000000000000D+00 0.527271657841D-03 0.184165332714D-02 0.000000000000D+00  5 2 -1 25 24 21 2 0.32804908D+00 0.19649842D-02 0.21262938D+05 0.21262938D+05 0.21262938D+05 0.12309091D+01  1  2  6  1  5  1        2 0.182779393681D+01 0.100000000000D+01
0.155163239971D-04 0.000000000000D+00 0.000000000000D+00 0.184165332714D-02 0.000000000000D+00  5 21 -1 25 24 -2 2 0.37245172D+00 0.19649842D-02 0.25616375D+05 0.25616375D+05 0.25616375D+05 0.12221652D+01  1  2 12  3  5  1        2 0.189615014022D-02 0.100000000000D+01
-.439647166994D-04 0.000000000000D+00 -.106216637311D-04 0.184165332714D-02 0.000000000000D+00  5 21 -1 25 24 -2 2 0.37271733D+00 0.19649842D-02 0.21262938D+05 0.21262938D+05 0.21262938D+05 0.12309091D+01  1  2  5  3  5  1        2 -.552781044087D-02 0.100000000000D+01
  </mgrwgt>
  </event>
  <event>
  4     66 0.48098993E-03 0.10739671E+03 0.75467711E-02 0.11264287E+00
        2 -1    0    0  501    0 0.00000000E+00 0.00000000E+00 0.10621702E+04 0.10621702E+04 0.32000000E+00 0.0000E+00 0.9000E+01
       -1 -1    0    0    0  501 0.00000000E+00 0.00000000E+00 -.11165168E+02 0.11169753E+02 0.32000000E+00 0.0000E+00 0.9000E+01
       25  1    1    2    0    0 0.13123904E+02 0.27751582E+02 0.53944848E+03 0.55459178E+03 0.12500000E+03 0.0000E+00 0.9000E+01
       24  1    1    2    0    0 -.13123904E+02 -.27751582E+02 0.51155652E+03 0.51874818E+03 0.80419002E+02 0.0000E+00 0.9000E+01
#aMCatNLO 1  0  0  2  1 0.18016950D+03 0.00000000D+00  -5  5  0 0.00000000D+00 0.00000000D+00 0.00000000D+00 0.00000000D+00 0.00000000D+00
  <mgrwgt>
 0.4470774361D+00    5    2    0
 0.108911865628360D+03 0.000000000000000D+00 0.000000000000000D+00 0.108911865628360D+03
 0.108911865628360D+03 0.000000000000000D+00 0.000000000000000D+00 -.108911865628360D+03
 0.129932954544600D+03 0.131239036024717D+02 0.277515815645655D+02 -.177534659035190D+02
 0.878907767121195D+02 -.131239036024717D+02 -.277515815645655D+02 0.177534659035190D+02
 0.000000000000000D+00 -.000000000000000D+00 0.000000000000000D+00 -.000000000000000D+00
 0.173734821242255D+03 0.000000000000000D+00 0.000000000000000D+00 0.173734821242255D+03
 0.391853000800450D+03 0.000000000000000D+00 0.000000000000000D+00 -.391853000800450D+03
 0.151096855789601D+03 0.494603882514265D+02 -.666614151660024D+02 -.177534659035190D+02
 0.131583578287784D+03 0.152536073875882D+02 -.101484797042339D+03 0.177534659035190D+02
 0.282907387965320D+03 -.647139956390147D+02 0.168146212208341D+03 -.218118179558195D+03
0.184388274312D-03 0.000000000000D+00 0.000000000000D+00 0.297448124970D-02 0.000000000000D+00  5 2 -1 25 24 21 0 0.16341115D+00 0.17180745D-02 0.11534053D+05 0.11534053D+05 0.11534053D+05 0.12610449D+01  1  2  2  2  5  2       -1 0.404970459342D+00 0.100000000000D+01
-.102413485442D-04 0.000000000000D+00 -.708099523907D-06 0.297448124970D-02 0.000000000000D+00  5 2 -1 25 24 21 2 0.16341115D+00 0.17180745D-02 0.11534053D+05 0.11534053D+05 0.11534053D+05 0.12610449D+01  1  2  3  2  5  2       -1 -.357691204563D-01 0.100000000000D+01
0.127643126833D-04 0.000000000000D+00 0.000000000000D+00 0.297448124970D-02 0.000000000000D+00  5 2 -1 25 24 21 2 0.16341115D+00 0.17180745D-02 0.11534053D+05 0.11534053D+05 0.11534053D+05 0.12610449D+01  1  2 15  2  5  2       -1 0.445808709604D-01 0.100000000000D+01
0.474568581413D-04 0.000000000000D+00 -.810374381394D-04 0.297448124970D-02 0.000000000000D+00  5 2 -1 25 24 21 2 0.16341115D+00 0.10164791D-01 0.11534053D+05 0.11534053D+05 0.11534053D+05 0.12610449D+01  1  2  5  2  5  2       -1 0.122519085364D-01 0.100000000000D+01
0.538311576600D-05 0.000000000000D+00 -.176546098637D-04 0.297448124970D-02 0.000000000000D+00  5 2 21 25 24 1 2 0.16341115D+00 0.10164791D-01 0.11534053D+05 0.11534053D+05 0.11534053D+05 0.12610449D+01  1  2  5  4  5  2       -1 0.210433177016D-01 0.100000000000D+01
  </mgrwgt>
  </event>
  <event>
  4     66 0.48098993E-03 0.48023627E+02 0.75467711E-02 0.12515307E+00
        2 -1    0    0  501    0 0.00000000E+00 0.00000000E+00 0.31932843E+04 0.31932844E+04 0.32000000E+00 0.0000E+00 0.9000E+01
       -1 -1    0    0    0  501 0.00000000E+00 0.00000000E+00 -.33137937E+01 0.33292084E+01 0.32000000E+00 0.0000E+00 0.9000E+01
       25  1    1    2    0    0 0.34054849E+01 0.64962135E+01 0.19533562E+04 0.19573654E+04 0.12500000E+03 0.0000E+00 0.9000E+01
       24  1    1    2    0    0 -.34054849E+01 -.64962135E+01 0.12366143E+04 0.12392481E+04 0.80419002E+02 0.0000E+00 0.9000E+01
#aMCatNLO 1  0  0  1  2 0.22828622D+02 0.00000000D+00  -5  5  0 0.00000000D+00 0.00000000D+00 0.00000000D+00 0.00000000D+00 0.00000000D+00
  <mgrwgt>
 0.4867455344D+00    9    2    0
 0.102988099314379D+03 0.000000000000000D+00 0.000000000000000D+00 0.102988099314379D+03
 0.102988099314379D+03 0.000000000000000D+00 0.000000000000000D+00 -.102988099314379D+03
 0.125218298984524D+03 0.340548491601687D+01 0.649621352589413D+01 0.907900264552162D+00
 0.807578996442338D+02 -.340548491601687D+01 -.649621352589413D+01 -.907900264552162D+00
 0.000000000000000D+00 -.000000000000000D+00 0.000000000000000D+00 0.000000000000000D+00
 0.126675242053956D+03 0.000000000000000D+00 0.000000000000000D+00 0.126675242053956D+03
 0.109269439321650D+03 0.000000000000000D+00 0.000000000000000D+00 -.109269439321650D+03
 0.126078618635531D+03 0.163620562906131D+02 0.150894270804586D+01 0.907900264552162D+00
 0.811587823774513D+02 0.494274739506794D+01 -.970963273858217D+01 -.907900264552162D+00
 0.287072803626239D+02 -.213048036856810D+02 0.820069003053631D+01 0.174058027323059D+02
0.268950187234D-03 0.000000000000D+00 0.000000000000D+00 0.323311602051D-02 0.000000000000D+00  5 2 -1 25 24 21 0 0.49127570D+00 0.51100140D-03 0.10605684D+05 0.10605684D+05 0.10605684D+05 0.12653600D+01  1  2  2  1  5  1        2 0.240999008798D+00 0.100000000000D+01
-.149416770384D-04 0.000000000000D+00 -.103283953519D-05 0.323311602051D-02 0.000000000000D+00  5 2 -1 25 24 21 2 0.49127570D+00 0.51100140D-03 0.10605684D+05 0.10605684D+05 0.10605684D+05 0.12653600D+01  1  2  3  1  5  1        2 -.214373421572D-01 0.100000000000D+01
0.186328732142D-04 0.000000000000D+00 0.000000000000D+00 0.323311602051D-02 0.000000000000D+00  5 2 -1 25 24 21 2 0.49127570D+00 0.51100140D-03 0.10605684D+05 0.10605684D+05 0.10605684D+05 0.12653600D+01  1  2 15  1  5  1        2 0.267332293048D-01 0.100000000000D+01
0.264733068246D-03 0.000000000000D+00 0.000000000000D+00 0.323311602051D-02 0.000000000000D+00  5 2 -1 25 24 21 2 0.61673463D+00 0.51100140D-03 0.13231634D+05 0.13231634D+05 0.13231634D+05 0.12540813D+01  1  2 12  1  5  1        2 0.107167328606D+00 0.100000000000D+01
-.270368228181D-03 0.000000000000D+00 0.000000000000D+00 0.323311602051D-02 0.000000000000D+00  5 2 -1 25 24 21 2 0.49127570D+00 0.51100140D-03 0.10605684D+05 0.10605684D+05 0.10605684D+05 0.12653600D+01  1  2  4  1  5  1        2 -.387906672127D+00 0.100000000000D+01
-.502881885860D-03 0.000000000000D+00 -.109860943928D-03 0.323311602051D-02 0.000000000000D+00  5 2 -1 25 24 21 2 0.61149039D+00 0.51100140D-03 0.10605684D+05 0.10605684D+05 0.10605684D+05 0.12653600D+01  1  2  5  1  5  1        2 -.220526265374D+00 0.100000000000D+01
0.517073001701D-03 0.000000000000D+00 0.107280520333D-03 0.323311602051D-02 0.000000000000D+00  5 2 -1 25 24 21 2 0.49127570D+00 0.51100140D-03 0.10605684D+05 0.10605684D+05 0.10605684D+05 0.12653600D+01  1  2  6  1  5  1        2 0.741862565310D+00 0.100000000000D+01
0.835104090990D-05 0.000000000000D+00 0.000000000000D+00 0.323311602051D-02 0.000000000000D+00  5 21 -1 25 24 -2 2 0.61673463D+00 0.51100140D-03 0.13231634D+05 0.13231634D+05 0.13231634D+05 0.12540813D+01  1  2 12  3  5  1        2 0.158918631524D-03 0.100000000000D+01
-.139378428850D-04 0.000000000000D+00 -.336729683792D-05 0.323311602051D-02 0.000000000000D+00  5 21 -1 25 24 -2 2 0.61149039D+00 0.51100140D-03 0.10605684D+05 0.10605684D+05 0.10605684D+05 0.12653600D+01  1  2  5  3  5  1        2 -.305236619075D-03 0.100000000000D+01
  </mgrwgt>
  </event>
  <event>
  4     66 0.48098993E-03 0.12475101E+03 0.75467711E-02 0.11362042E+00
        2 -1    0    0  501    0 0.00000000E+00 0.00000000E+00 0.12596666E+04 0.12596666E+04 0.32000000E+00 0.0000E+00 0.9000E+01
       -1 -1    0    0    0  501 0.00000000E+00 0.00000000E+00 -.12383402E+02 0.12387536E+02 0.32000000E+00 0.0000E+00 0.9000E+01
       25  1    1    2    0    0 0.69664781E+02 0.57048555E+00 0.74653057E+03 0.76012262E+03 0.12500000E+03 0.0000E+00 0.9000E+01
       24  1    1    2    0    0 -.69664781E+02 -.57048555E+00 0.50075260E+03 0.51193153E+03 0.80419002E+02 0.0000E+00 0.9000E+01
#aMCatNLO 1  0  0  2  2 0.14516677D+03 0.00000000D+00  -5  5  0 0.00000000D+00 0.00000000D+00 0.00000000D+00 0.00000000D+00 0.00000000D+00
  <mgrwgt>
 0.3827463430D+00    5    2    0
 0.124906417642648D+03 0.000000000000000D+00 0.000000000000000D+00 0.124906417642648D+03
 0.124906417642648D+03 0.000000000000000D+00 0.000000000000000D+00 -.124906417642648D+03
 0.143235708119598D+03 0.696647813596338D+02 0.570485549404618D+00 0.616123890748649D+01
 0.106577127165698D+03 -.696647813596338D+02 -.570485549404618D+00 -.616123890748649D+01
 0.000000000000000D+00 0.000000000000000D+00 0.000000000000000D+00 -.000000000000000D+00
 0.191293714100942D+03 0.000000000000000D+00 0.000000000000000D+00 0.191293714100942D+03
 0.256965441183955D+03 0.000000000000000D+00 0.000000000000000D+00 -.256965441183955D+03
 0.129572794813137D+03 0.440637657156240D+01 -.332675838666089D+02 0.616123890748649D+01
 0.159355991334367D+03 -.133278528391230D+03 -.335557599344955D+02 -.616123890748649D+01
 0.159330369137392D+03 0.128872151819667D+03 0.668233438011043D+02 -.656717270830130D+02
0.226600386679D-03 0.000000000000D+00 0.000000000000D+00 0.269140673027D-02 0.000000000000D+00  5 2 -1 25 24 21 0 0.19379518D+00 0.19054599D-02 0.15562815D+05 0.15562815D+05 0.15562815D+05 0.12460030D+01  1  2  2  2  5  2       -1 0.336551224705D+00 0.100000000000D+01
-.125888866475D-04 0.000000000000D+00 -.870205150101D-06 0.269140673027D-02 0.000000000000D+00  5 2 -1 25 24 21 2 0.19379518D+00 0.19054599D-02 0.15562815D+05 0.15562815D+05 0.15562815D+05 0.12460030D+01  1  2  3  2  5  2       -1 -.290279267294D-01 0.100000000000D+01
0.157060495902D-04 0.000000000000D+00 0.000000000000D+00 0.269140673027D-02 0.000000000000D+00  5 2 -1 25 24 21 2 0.19379518D+00 0.19054599D-02 0.15562815D+05 0.15562815D+05 0.15562815D+05 0.12460030D+01  1  2 15  2  5  2       -1 0.362155978903D-01 0.100000000000D+01
0.149729267798D-04 0.000000000000D+00 -.702285412505D-04 0.269140673027D-02 0.000000000000D+00  5 2 -1 25 24 21 2 0.19379518D+00 0.62744432D-02 0.15562815D+05 0.15562815D+05 0.15562815D+05 0.12460030D+01  1  2  5  2  5  2       -1 0.605855165470D-02 0.100000000000D+01
0.486532207717D-05 0.000000000000D+00 -.968886260111D-05 0.269140673027D-02 0.000000000000D+00  5 2 21 25 24 1 2 0.19379518D+00 0.62744432D-02 0.15562815D+05 0.15562815D+05 0.15562815D+05 0.12460030D+01  1  2  5  4  5  2       -1 0.329488955067D-01 0.100000000000D+01
  </mgrwgt>
  </event>
  <event>
  4     66 0.48098993E-03 0.12378654E+03 0.75467711E-02 0.11965992E+00
        2 -1    0    0  501    0 0.00000000E+00 0.00000000E+00 0.59304371E+03 0.59304380E+03 0.32000000E+00 0.0000E+00 0.9000E+01
       -1 -1    0    0    0  501 0.00000000E+00 0.00000000E+00 -.27250968E+02 0.27252847E+02 0.32000000E+00 0.0000E+00 0.9000E+01
       25  1    1    2    0    0 0.67724348E+02 -.56993347E+01 0.39286487E+03 0.41783595E+03 0.12500000E+03 0.0000E+00 0.9000E+01
       24  1    1    2    0    0 -.67724348E+02 0.56993347E+01 0.17292787E+03 0.20246070E+03 0.80419002E+02 0.0000E+00 0.9000E+01
#aMCatNLO 1  0  0  1  2 0.53064454D+02 0.00000000D+00  -5  5  0 0.00000000D+00 0.00000000D+00 0.00000000D+00 0.00000000D+00 0.00000000D+00
  <mgrwgt>
 0.3224693283D+00    4    2    0
 0.127128378312763D+03 0.000000000000000D+00 0.000000000000000D+00 0.127128378312763D+03
 0.127128378312763D+03 0.000000000000000D+00 0.000000000000000D+00 -.127128378312763D+03
 0.145137307882956D+03 0.677243484836688D+02 -.569933466711614D+01 0.286490548941280D+02
 0.109119448742571D+03 -.677243484836688D+02 0.569933466711614D+01 -.286490548941280D+02
 0.000000000000000D+00 0.000000000000000D+00 -.000000000000000D+00 -.000000000000000D+00
 0.141932732121391D+03 0.000000000000000D+00 0.000000000000000D+00 0.141932732121391D+03
 0.188213946536209D+03 0.000000000000000D+00 0.000000000000000D+00 -.188213946536209D+03
 0.134190031088863D+03 0.395110566386094D+02 0.269259361501418D+00 0.286490548941280D+02
 0.125545092717325D+03 -.914265010129027D+02 0.107135856389020D+02 -.286490548941280D+02
 0.704115548514128D+02 0.519154443742933D+02 -.109828450004034D+02 -.462812144148173D+02
0.321188214657D-03 0.000000000000D+00 0.000000000000D+00 0.254348751884D-02 0.000000000000D+00  5 2 -1 25 24 21 0 0.91237645D-01 0.41926077D-02 0.15323109D+05 0.15323109D+05 0.15323109D+05 0.12467688D+01  1  2  2  1  5  1        2 0.405021554362D+00 0.100000000000D+01
-.178283941016D-04 0.000000000000D+00 -.123344731508D-05 0.254348751884D-02 0.000000000000D+00  5 2 -1 25 24 21 2 0.91237645D-01 0.41926077D-02 0.15323109D+05 0.15323109D+05 0.15323109D+05 0.12467688D+01  1  2  3  1  5  1        2 -.349464114185D-01 0.100000000000D+01
0.221986604175D-04 0.000000000000D+00 0.000000000000D+00 0.254348751884D-02 0.000000000000D+00  5 2 -1 25 24 21 2 0.91237645D-01 0.41926077D-02 0.15323109D+05 0.15323109D+05 0.15323109D+05 0.12467688D+01  1  2 15  1  5  1        2 0.435128097050D-01 0.100000000000D+01
-.464854238049D-04 0.000000000000D+00 0.000000000000D+00 0.254348751884D-02 0.000000000000D+00  5 2 -1 25 24 21 2 0.91237645D-01 0.41926077D-02 0.15323109D+05 0.15323109D+05 0.15323109D+05 0.12467688D+01  1  2  4  1  5  1        2 -.911186243692D-01 0.100000000000D+01
  </mgrwgt>
  </event>
  <event>
  4     66 0.48098993E-03 0.14050839E+03 0.75467711E-02 0.11770579E+00
        2 -1    0    0  501    0 0.00000000E+00 0.00000000E+00 0.58487546E+03 0.58487555E+03 0.32000000E+00 0.0000E+00 0.9000E+01
       -1 -1    0    0    0  501 0.00000000E+00 0.00000000E+00 -.33810972E+02 0.33812486E+02 0.32000000E+00 0.0000E+00 0.9000E+01
       25  1    1    2    0    0 0.50171981E+02 -.80279308E+02 0.29486118E+03 0.33396124E+03 0.12500000E+03 0.0000E+00 0.9000E+01
       24  1    1    2    0    0 -.50171981E+02 0.80279308E+02 0.25620331E+03 0.28472679E+03 0.80419002E+02 0.0000E+00 0.9000E+01
#aMCatNLO 1  0  0  1  1 0.55140817D+02 0.00000000D+00  -5  5  0 0.00000000D+00 0.00000000D+00 0.00000000D+00 0.00000000D+00 0.00000000D+00
  <mgrwgt>
 0.4198896087D+00    3    2    0
 0.140626110837265D+03 0.000000000000000D+00 0.000000000000000D+00 0.140626110837265D+03
 0.140626110837265D+03 0.000000000000000D+00 0.000000000000000D+00 -.140626110837265D+03
 0.156906487203904D+03 0.501719811827810D+02 -.802793083482795D+02 -.571407752706819D+01
 0.124345734470626D+03 -.501719811827810D+02 0.802793083482795D+02 0.571407752706819D+01
 0.000000000000000D+00 0.000000000000000D+00 -.000000000000000D+00 -.000000000000000D+00
 0.148255853245675D+03 0.000000000000000D+00 0.000000000000000D+00 0.148255853245675D+03
 0.296784631456358D+03 0.000000000000000D+00 0.000000000000000D+00 -.296784631456358D+03
 0.143072154141564D+03 0.257419781371616D+02 -.644153799205446D+02 -.571407752706819D+01
 0.143534408668917D+03 -.719879100882770D+02 0.944457549956694D+02 0.571407752706819D+01
 0.158433921891551D+03 0.462459319511154D+02 -.300303750751248D+02 -.148528778210683D+03
0.437696808772D-03 0.000000000000D+00 0.000000000000D+00 0.249072035885D-02 0.000000000000D+00  5 2 -1 25 24 21 0 0.89980963D-01 0.52018111D-02 0.19742608D+05 0.19742608D+05 0.19742608D+05 0.12344458D+01  1  2  2  1  5  1        2 0.411441698646D+00 0.100000000000D+01
-.243164686409D-04 0.000000000000D+00 -.168087099390D-05 0.249072035885D-02 0.000000000000D+00  5 2 -1 25 24 21 2 0.89980963D-01 0.52018111D-02 0.19742608D+05 0.19742608D+05 0.19742608D+05 0.12344458D+01  1  2  3  1  5  1        2 -.348320881677D-01 0.100000000000D+01
0.302140002404D-04 0.000000000000D+00 0.000000000000D+00 0.249072035885D-02 0.000000000000D+00  5 2 -1 25 24 21 2 0.89980963D-01 0.52018111D-02 0.19742608D+05 0.19742608D+05 0.19742608D+05 0.12344458D+01  1  2 15  1  5  1        2 0.432799982520D-01 0.100000000000D+01
  </mgrwgt>
  </event>
  <event>
  4     66 0.48098993E-03 0.10486099E+03 0.75467711E-02 0.11577485E+00
        2 -1    0    0  501    0 0.00000000E+00 0.00000000E+00 0.12445693E+02 0.12449807E+02 0.32000000E+00 0.0000E+00 0.9000E+01
       -1 -1    0    0    0  501 0.00000000E+00 0.00000000E+00 -.88669972E+03 0.88669978E+03 0.32000000E+00 0.0000E+00 0.9000E+01
       25  1    1    2    0    0 0.29350698E+01 -.20439948E+02 -.55480892E+03 0.56909080E+03 0.12500000E+03 0.0000E+00 0.9000E+01
       24  1    1    2    0    0 -.29350698E+01 0.20439948E+02 -.31944511E+03 0.33005878E+03 0.80419002E+02 0.0000E+00 0.9000E+01
#aMCatNLO 1  0  0  1  1 0.13315635D+03 0.00000000D+00  -5  5  0 0.00000000D+00 0.00000000D+00 0.00000000D+00 0.00000000D+00 0.00000000D+00
  <mgrwgt>
 0.4317478392D+00    3    2    0
 0.105059354772319D+03 0.000000000000000D+00 0.000000000000000D+00 0.105059354772319D+03
 0.105059354772319D+03 0.000000000000000D+00 0.000000000000000D+00 -.105059354772319D+03
 0.126851283881050D+03 0.293506983613492D+01 -.204399475403555D+02 -.631206241059323D+01
 0.832674256635885D+02 -.293506983613492D+01 0.204399475403555D+02 0.631206241059323D+01
 0.000000000000000D+00 -.000000000000000D+00 -.000000000000000D+00 -.000000000000000D+00
 0.142795252719892D+03 0.000000000000000D+00 0.000000000000000D+00 0.142795252719892D+03
 0.365070676396986D+03 0.000000000000000D+00 0.000000000000000D+00 -.365070676396986D+03
 0.144727050328811D+03 0.691849429475989D+02 0.222378199097964D+02 -.631206241059323D+01
 0.104030835957230D+03 0.427551951935799D+02 0.498733398487938D+02 0.631206241059323D+01
 0.259108042830836D+03 -.111940138141179D+03 -.721111597585902D+02 -.222275423677093D+03
0.139116572416D-02 0.000000000000D+00 0.000000000000D+00 0.315161296570D-02 0.000000000000D+00  5 2 -1 25 24 21 0 0.19150429D-02 0.13641566D+00 0.10995828D+05 0.10995828D+05 0.10995828D+05 0.12634967D+01  1  2  2  1  5  1        2 0.422527644887D+00 0.100000000000D+01
-.772866490449D-04 0.000000000000D+00 -.534244268314D-05 0.315161296570D-02 0.000000000000D+00  5 2 -1 25 24 21 2 0.19150429D-02 0.13641566D+00 0.10995828D+05 0.10995828D+05 0.10995828D+05 0.12634967D+01  1  2  3  1  5  1        2 -.374739041632D-01 0.100000000000D+01
0.963024932982D-04 0.000000000000D+00 0.000000000000D+00 0.315161296570D-02 0.000000000000D+00  5 2 -1 25 24 21 2 0.19150429D-02 0.13641566D+00 0.10995828D+05 0.10995828D+05 0.10995828D+05 0.12634967D+01  1  2 15  1  5  1        2 0.466940985168D-01 0.100000000000D+01
  </mgrwgt>
  </event>
  <event>
  5     66 0.48098993E-03 0.10404289E+03 0.75467711E-02 0.12375930E+00
        2 -1    0    0  501    0 0.00000000E+00 0.00000000E+00 0.14523147E+04 0.14523148E+04 0.32000000E+00 0.0000E+00 0.9000E+01
       21 -1    0    0  502  501 0.00000000E+00 0.00000000E+00 -.10415727E+03 0.10415997E+03 0.75000000E+00 0.0000E+00 0.9000E+01
       25  1    1    2    0    0 -.44424036E+01 0.18469504E+01 0.62727375E+03 0.63962529E+03 0.12500000E+03 0.0000E+00 0.9000E+01
       24  1    1    2    0    0 -.26831732E+02 0.15135396E+02 0.81328483E+03 0.81783155E+03 0.80419002E+02 0.0000E+00 0.9000E+01
        1  1    1    2  502    0 0.31274135E+02 -.16982346E+02 -.92401125E+02 0.99017887E+02 0.32000000E+00 0.0000E+00 0.9000E+01
#aMCatNLO 2  0  0  2  1 0.35587521D+02 0.00000000D+00  -5  5  0 0.00000000D+00 0.00000000D+00 0.00000000D+00 0.00000000D+00 0.00000000D+00
  <mgrwgt>
 0.5933018432D+00    2    2    0
 0.109207306624603D+03 0.000000000000000D+00 0.000000000000000D+00 0.109207306624603D+03
 0.109207306624603D+03 0.000000000000000D+00 0.000000000000000D+00 -.109207306624603D+03
 0.130171526713624D+03 0.140086092834736D+02 -.817223900387512D+01 -.325053802094694D+02
 0.882430865355818D+02 -.140086092834736D+02 0.817223900387512D+01 0.325053802094694D+02
 0.000000000000000D+00 0.000000000000000D+00 -.000000000000000D+00 -.000000000000000D+00
 0.110900040152018D+03 0.000000000000000D+00 0.000000000000000D+00 0.110900040152018D+03
 0.136403202654135D+04 0.000000000000000D+00 0.000000000000000D+00 -.136403202654135D+04
 0.129246841036677D+03 -.444240358713973D+01 0.184695039642344D+01 -.325053802094694D+02
 0.920480185945791D+02 -.268317317557252D+02 0.151353956421395D+02 0.325053802094694D+02
 0.125363720706211D+04 0.312741353428650D+02 -.169823460385630D+02 -.125313198638933D+04
-.514345067938D-02 0.000000000000D+00 0.000000000000D+00 0.280878410125D-02 0.000000000000D+00  5 2 21 25 24 1 2 0.22002281D+00 0.15834350D-01 0.15227270D+05 0.15227270D+05 0.15227270D+05 0.12470787D+01  1  2 13  4  5  2       -1 -.561016552797D+01 0.100000000000D+01
0.596864903789D-02 0.000000000000D+00 0.000000000000D+00 0.280878410125D-02 0.339481406505D-04  5 2 21 25 24 1 2 0.22343320D+00 0.16024402D-01 0.15227270D+05 0.15227270D+05 0.15227270D+05 0.12470787D+01  1  2  1  4  5  2       -1 0.620346737120D+01 0.100000000000D+01
  </mgrwgt>
  </event>
  <event>
  4     66 0.48098993E-03 0.56402031E+02 0.75467711E-02 0.12554359E+00
        2 -1    0    0  501    0 0.00000000E+00 0.00000000E+00 0.64382823E+03 0.64382831E+03 0.32000000E+00 0.0000E+00 0.9000E+01
       -1 -1    0    0    0  501 0.00000000E+00 0.00000000E+00 -.20987868E+02 0.20990307E+02 0.32000000E+00 0.0000E+00 0.9000E+01
       25  1    1    2    0    0 0.20069097E+02 0.28130149E+02 0.24763690E+03 0.27954089E+03 0.12500000E+03 0.0000E+00 0.9000E+01
       24  1    1    2    0    0 -.20069097E+02 -.28130149E+02 0.37520347E+03 0.38527773E+03 0.80419002E+02 0.0000E+00 0.9000E+01
#aMCatNLO 1  0  0  1  2 0.83323121D+01 0.00000000D+00  -5  5  0 0.00000000D+00 0.00000000D+00 0.00000000D+00 0.00000000D+00 0.00000000D+00
  <mgrwgt>
 0.4877335282D+00   11    2    0
 0.116247232636252D+03 0.000000000000000D+00 0.000000000000000D+00 0.116247232636252D+03
 0.116247232636252D+03 0.000000000000000D+00 0.000000000000000D+00 -.116247232636252D+03
 0.135941860710292D+03 0.200690970626111D+02 0.281301488666318D+02 -.407567854621663D+02
 0.965526045622124D+02 -.200690970626111D+02 -.281301488666318D+02 0.407567854621663D+02
 0.000000000000000D+00 -.000000000000000D+00 -.000000000000000D+00 0.000000000000000D+00
 0.124453208284012D+03 0.000000000000000D+00 0.000000000000000D+00 0.124453208284012D+03
 0.118456425221900D+03 0.000000000000000D+00 0.000000000000000D+00 -.118456425221900D+03
 0.137266961245407D+03 0.230337571795642D+02 0.320241958295887D+02 -.407567854621663D+02
 0.953767659587664D+02 -.179864214521298D+02 -.253945784080005D+02 0.407567854621663D+02
 0.102659063017394D+02 -.504733572743442D+01 -.662961742158816D+01 0.599678306211178D+01
0.143112431188D-03 0.000000000000D+00 0.000000000000D+00 0.255864778231D-02 0.000000000000D+00  5 2 -1 25 24 21 0 0.99050691D-01 0.32290965D-02 0.11795824D+05 0.11795824D+05 0.11795824D+05 0.12598985D+01  1  2  2  1  5  1        2 0.238081331630D+00 0.100000000000D+01
-.790603197891D-05 0.000000000000D+00 -.549589418129D-06 0.255864778231D-02 0.000000000000D+00  5 2 -1 25 24 21 2 0.99050691D-01 0.32290965D-02 0.11795824D+05 0.11795824D+05 0.11795824D+05 0.12598985D+01  1  2  3  1  5  1        2 -.208774610917D-01 0.100000000000D+01
0.982921032240D-05 0.000000000000D+00 0.000000000000D+00 0.255864778231D-02 0.000000000000D+00  5 2 -1 25 24 21 2 0.99050691D-01 0.32290965D-02 0.11795824D+05 0.11795824D+05 0.11795824D+05 0.12598985D+01  1  2 15  1  5  1        2 0.259559987381D-01 0.100000000000D+01
0.632812508243D-03 0.000000000000D+00 0.000000000000D+00 0.255864778231D-02 0.000000000000D+00  5 2 -1 25 24 21 2 0.10693952D+00 0.32290965D-02 0.12728241D+05 0.12728241D+05 0.12728241D+05 0.12560363D+01  1  2 12  1  5  1        2 0.152407144981D+01 0.100000000000D+01
-.634947922230D-03 0.000000000000D+00 0.000000000000D+00 0.255864778231D-02 0.000000000000D+00  5 2 -1 25 24 21 2 0.99050691D-01 0.32290965D-02 0.11795824D+05 0.11795824D+05 0.11795824D+05 0.12598985D+01  1  2  4  1  5  1        2 -.167670717459D+01 0.100000000000D+01
-.167354060330D-02 0.000000000000D+00 -.256980125177D-03 0.255864778231D-02 0.000000000000D+00  5 2 -1 25 24 21 2 0.10738296D+00 0.32290965D-02 0.11795824D+05 0.11795824D+05 0.11795824D+05 0.12598985D+01  1  2  5  1  5  1        2 -.402372678991D+01 0.100000000000D+01
0.168961846074D-02 0.000000000000D+00 0.256144160988D-03 0.255864778231D-02 0.000000000000D+00  5 2 -1 25 24 21 2 0.99050691D-01 0.32290965D-02 0.11795824D+05 0.11795824D+05 0.11795824D+05 0.12598985D+01  1  2  6  1  5  1        2 0.446177599180D+01 0.100000000000D+01
0.135718931534D-05 0.000000000000D+00 0.000000000000D+00 0.255864778231D-02 0.310767078222D-03  5 2 -1 25 24 21 2 0.10604275D+00 0.32904631D-02 0.12728241D+05 0.12728241D+05 0.12728241D+05 0.12560363D+01  1  2 11  1  5  1        2 0.321210372698D-02 0.100000000000D+01
0.845902371022D-05 0.000000000000D+00 0.000000000000D+00 0.255864778231D-02 0.000000000000D+00  5 21 -1 25 24 -2 2 0.10693952D+00 0.32290965D-02 0.12728241D+05 0.12728241D+05 0.12728241D+05 0.12560363D+01  1  2 12  3  5  1        2 0.277768497083D-01 0.100000000000D+01
-.219771307233D-04 0.000000000000D+00 -.346176818842D-05 0.255864778231D-02 0.000000000000D+00  5 21 -1 25 24 -2 2 0.10738296D+00 0.32290965D-02 0.11795824D+05 0.11795824D+05 0.11795824D+05 0.12598985D+01  1  2  5  3  5  1        2 -.718886291914D-01 0.100000000000D+01
0.183645925038D-07 0.000000000000D+00 0.000000000000D+00 0.255864778231D-02 0.367308346875D-05  5 21 -1 25 24 -2 2 0.10604275D+00 0.32904631D-02 0.12728241D+05 0.12728241D+05 0.12728241D+05 0.12560363D+01  1  2 11  3  5  1        2 0.598575840344D-04 0.100000000000D+01
  </mgrwgt>
  </event>
  <event>
  5     66 0.48098993E-03 0.10790120E+03 0.75467711E-02 0.11742530E+00
        2 -1    0    0  501    0 0.00000000E+00 0.00000000E+00 0.56071287E+03 0.56071296E+03 0.32000000E+00 0.0000E+00 0.9000E+01
       -1 -1    0    0    0  502 0.00000000E+00 0.00000000E+00 -.14354798E+03 0.14354834E+03 0.32000000E+00 0.0000E+00 0.9000E+01
       25  1    1    2    0    0 -.46399986E+02 -.59270721E+02 0.15444612E+03 0.21247254E+03 0.12500000E+03 0.0000E+00 0.9000E+01
       24  1    1    2    0    0 -.48464763E+02 0.10714978E+02 0.34464455E+03 0.35736638E+03 0.80419002E+02 0.0000E+00 0.9000E+01
       21  1    1    2  501  502 0.94864749E+02 0.48555744E+02 -.81925778E+02 0.13442238E+03 0.75000000E+00 0.0000E+00 0.9000E+01
#aMCatNLO 2  0  0  2  1 0.10656914D+03 0.00000000D+00  -5  5  0 0.00000000D+00 0.00000000D+00 0.00000000D+00 0.00000000D+00 0.00000000D+00
  <mgrwgt>
 0.1503474688D+00    2    2    0
 0.126755585742869D+03 0.000000000000000D+00 0.000000000000000D+00 0.126755585742869D+03
 0.126755585742869D+03 0.000000000000000D+00 0.000000000000000D+00 -.126755585742869D+03
 0.144817480198957D+03 0.830816636246298D+01 -.312688023313164D+02 -.655769696130747D+02
 0.108693691286781D+03 -.830816636246298D+01 0.312688023313164D+02 0.655769696130747D+02
 0.000000000000000D+00 0.000000000000000D+00 0.000000000000000D+00 -.000000000000000D+00
 0.144252399037519D+03 0.000000000000000D+00 0.000000000000000D+00 0.144252399037519D+03
 0.557973428718724D+03 0.000000000000000D+00 0.000000000000000D+00 -.557973428718724D+03
 0.159972860258089D+03 -.463999857324087D+02 -.592707212673520D+02 -.655769696130747D+02
 0.115026948613653D+03 -.484647631105146D+02 0.107149776483691D+02 0.655769696130747D+02
 0.427226018884501D+03 0.948647488429233D+02 0.485557436189828D+02 -.413721029681205D+03
-.150284664711D-06 0.000000000000D+00 0.000000000000D+00 0.204046833613D-02 0.000000000000D+00  5 2 -1 25 24 21 2 0.75800218D-01 0.20930767D-01 0.30099933D+05 0.30099933D+05 0.30099933D+05 0.12147468D+01  1  2 13  2  5  2       -1 -.297869731224D-04 0.100000000000D+01
0.956634711480D-03 0.000000000000D+00 0.000000000000D+00 0.204046833613D-02 0.365872587047D-05  5 2 -1 25 24 21 2 0.86263365D-01 0.22084291D-01 0.30099933D+05 0.30099933D+05 0.30099933D+05 0.12147468D+01  1  2  1  2  5  2       -1 0.150377255737D+00 0.100000000000D+01
  </mgrwgt>
  </event>
  <event>
  4     66 0.48098993E-03 0.10329213E+03 0.75467711E-02 0.12193426E+00
        2 -1    0    0  501    0 0.00000000E+00 0.00000000E+00 0.11333966E+04 0.11333966E+04 0.32000000E+00 0.0000E+00 0.9000E+01
       -1 -1    0    0    0  501 0.00000000E+00 0.00000000E+00 -.13651366E+02 0.13655116E+02 0.32000000E+00 0.0000E+00 0.9000E+01
       25  1    1    2    0    0 -.65281547E+01 0.84744645E+01 0.32822063E+03 0.35138044E+03 0.12500000E+03 0.0000E+00 0.9000E+01
       24  1    1    2    0    0 0.65281547E+01 -.84744645E+01 0.79152456E+03 0.79567128E+03 0.80419002E+02 0.0000E+00 0.9000E+01
#aMCatNLO 1  0  0  2  1 0.56810649D+02 0.00000000D+00  -5  5  0 0.00000000D+00 0.00000000D+00 0.00000000D+00 0.00000000D+00 0.00000000D+00
  <mgrwgt>
 0.5420998722D+00    3    2    0
 0.124396897884689D+03 0.000000000000000D+00 0.000000000000000D+00 0.124396897884689D+03
 0.124396897884689D+03 0.000000000000000D+00 0.000000000000000D+00 -.124396897884689D+03
 0.142801263671443D+03 -.652815472578730D+01 0.847446452375604D+01 -.682111981501045D+02
 0.105992532097934D+03 0.652815472578730D+01 -.847446452375604D+01 0.682111981501045D+02
 0.000000000000000D+00 0.000000000000000D+00 0.000000000000000D+00 0.000000000000000D+00
 0.251208357709980D+03 0.000000000000000D+00 0.000000000000000D+00 0.251208357709980D+03
 0.134126296009990D+03 0.000000000000000D+00 0.000000000000000D+00 -.134126296009990D+03
 0.145473710164463D+03 -.218557048442160D+02 -.201782298952070D+02 -.682111981501045D+02
 0.109723865631341D+03 -.494146351254251D+01 -.299152990958709D+02 0.682111981501045D+02
 0.130137077924167D+03 0.267971683567585D+02 0.500935289910779D+02 0.117082061699990D+03
0.353561596218D-03 0.000000000000D+00 0.000000000000D+00 0.199435043845D-02 0.000000000000D+00  5 2 -1 25 24 21 0 0.17436899D+00 0.21005021D-02 0.10669264D+05 0.10669264D+05 0.10669264D+05 0.12650511D+01  1  2  2  2  5  2       -1 0.529222469067D+00 0.100000000000D+01
-.188168285229D-04 0.000000000000D+00 -.135776962438D-05 0.199435043845D-02 0.000000000000D+00  5 2 -1 25 24 21 2 0.17436899D+00 0.21005021D-02 0.10669264D+05 0.10669264D+05 0.10669264D+05 0.12650511D+01  1  2  3  2  5  2       -1 -.450750022879D-01 0.100000000000D+01
0.241925772559D-04 0.000000000000D+00 0.000000000000D+00 0.199435043845D-02 0.000000000000D+00  5 2 -1 25 24 21 2 0.17436899D+00 0.21005021D-02 0.10669264D+05 0.10669264D+05 0.10669264D+05 0.12650511D+01  1  2 15  2  5  2       -1 0.579524054136D-01 0.100000000000D+01
  </mgrwgt>
  </event>
  <event>
  4     66 0.48098993E-03 0.71916684E+02 0.75467711E-02 0.12594636E+00
        4 -1    0    0  501    0 0.00000000E+00 0.00000000E+00 0.34222755E+02 0.34257838E+02 0.15500000E+01 0.0000E+00 0.9000E+01
       -3 -1    0    0    0  501 0.00000000E+00 0.00000000E+00 -.38395612E+03 0.38395644E+03 0.50000000E+00 0.0000E+00 0.9000E+01
       25  1    1    2    0    0 0.21325972E+02 -.31988131E+02 -.26361715E+03 0.29427375E+03 0.12500000E+03 0.0000E+00 0.9000E+01
       24  1    1    2    0    0 -.21325972E+02 0.31988131E+02 -.86116213E+02 0.12394053E+03 0.80419002E+02 0.0000E+00 0.9000E+01
#aMCatNLO 1  0  0  1  2 0.12737890D+01 0.00000000D+00  -5  5  0 0.00000000D+00 0.00000000D+00 0.00000000D+00 0.00000000D+00 0.00000000D+00
  <mgrwgt>
 0.9977721654D-01    8    2    0
 0.114662287290461D+03 0.000000000000000D+00 0.000000000000000D+00 0.114662287290461D+03
 0.114662287290461D+03 0.000000000000000D+00 0.000000000000000D+00 -.114662287290461D+03
 0.134629148806207D+03 0.213259722138880D+02 -.319881307947322D+02 -.319682671672320D+02
 0.946954257747146D+02 -.213259722138880D+02 0.319881307947322D+02 0.319682671672320D+02
 0.000000000000000D+00 0.000000000000000D+00 -.000000000000000D+00 -.000000000000000D+00
 0.115141868611375D+03 0.000000000000000D+00 0.000000000000000D+00 0.115141868611375D+03
 0.115512997007852D+03 0.000000000000000D+00 0.000000000000000D+00 -.115512997007852D+03
 0.134421408082756D+03 0.208030606774421D+02 -.314543719016267D+02 -.319682671672320D+02
 0.949067041169276D+02 -.216944722541834D+02 0.323642750560622D+02 0.319682671672320D+02
 0.132675341954395D+01 0.891411576741287D+00 -.909903154435447D+00 -.371128396477001D+00
0.497511119788D-03 0.000000000000D+00 0.000000000000D+00 0.270314024955D-02 0.000000000000D+00  5 4 -3 25 24 21 0 0.52677630D-02 0.59072896D-01 0.12090623D+05 0.12090623D+05 0.12090623D+05 0.12586413D+01  1  2  2  1  5  1        4 0.582916620838D-01 0.100000000000D+01
-.275805126542D-04 0.000000000000D+00 -.191057369767D-05 0.270314024955D-02 0.000000000000D+00  5 4 -3 25 24 21 2 0.52677630D-02 0.59072896D-01 0.12090623D+05 0.12090623D+05 0.12090623D+05 0.12586413D+01  1  2  3  1  5  1        4 -.511929281772D-02 0.100000000000D+01
0.343469132560D-04 0.000000000000D+00 0.000000000000D+00 0.270314024955D-02 0.000000000000D+00  5 4 -3 25 24 21 2 0.52677630D-02 0.59072896D-01 0.12090623D+05 0.12090623D+05 0.12090623D+05 0.12586413D+01  1  2 15  1  5  1        4 0.637522255466D-02 0.100000000000D+01
0.777998910677D-08 0.000000000000D+00 0.000000000000D+00 0.270314024955D-02 0.000000000000D+00  5 4 -3 25 24 21 2 0.53092245D-02 0.59072896D-01 0.12232258D+05 0.12232258D+05 0.12232258D+05 0.12580495D+01  1  2 12  1  5  1        4 0.142629173450D-05 0.100000000000D+01
-.428023431237D-02 0.000000000000D+00 0.000000000000D+00 0.270314024955D-02 0.000000000000D+00  5 4 -3 25 24 21 2 0.52677630D-02 0.59072896D-01 0.12090623D+05 0.12090623D+05 0.12090623D+05 0.12586413D+01  1  2  4  1  5  1        4 -.794465753708D+00 0.100000000000D+01
0.428036760812D-02 0.000000000000D+00 0.000000000000D+00 0.270314024955D-02 0.140631238177D-01  5 4 -3 25 24 21 2 0.52897957D-02 0.59511173D-01 0.12232258D+05 0.12232258D+05 0.12232258D+05 0.12580495D+01  1  2 11  1  5  1        4 0.777500901313D+00 0.100000000000D+01
0.680836917460D-09 0.000000000000D+00 0.000000000000D+00 0.270314024955D-02 0.000000000000D+00  5 21 -3 25 24 -4 2 0.53092245D-02 0.59072896D-01 0.12232258D+05 0.12232258D+05 0.12232258D+05 0.12580495D+01  1  2 12  3  5  1        4 0.350565226161D-05 0.100000000000D+01
0.112069058344D-04 0.000000000000D+00 0.000000000000D+00 0.270314024955D-02 0.109686553936D-04  5 21 -3 25 24 -4 2 0.52897957D-02 0.59511173D-01 0.12232258D+05 0.12232258D+05 0.12232258D+05 0.12580495D+01  1  2 11  3  5  1        4 0.571895451713D-01 0.100000000000D+01
  </mgrwgt>
  </event>
  <event>
  4     66 0.48098993E-03 0.11969029E+03 0.75467711E-02 0.11185358E+00
        2 -1    0    0  501    0 0.00000000E+00 0.00000000E+00 0.12273429E+04 0.12273429E+04 0.32000000E+00 0.0000E+00 0.9000E+01
       -1 -1    0    0    0  501 0.00000000E+00 0.00000000E+00 -.46700153E+02 0.46701249E+02 0.32000000E+00 0.0000E+00 0.9000E+01
       25  1    1    2    0    0 -.31141197E+02 0.51727820E+02 0.11638378E+04 0.11720875E+04 0.12500000E+03 0.0000E+00 0.9000E+01
       24  1    1    2    0    0 0.31141197E+02 -.51727820E+02 0.16804857E+02 0.10195666E+03 0.80419002E+02 0.0000E+00 0.9000E+01
#aMCatNLO 1  0  0  2  1 0.18235057D+03 0.00000000D+00  -5  5  0 0.00000000D+00 0.00000000D+00 0.00000000D+00 0.00000000D+00 0.00000000D+00
  <mgrwgt>
 0.2364671610D+00    3    2    0
 0.239411410850933D+03 0.000000000000000D+00 0.000000000000000D+00 0.239411410850933D+03
 0.239411410850933D+03 0.000000000000000D+00 0.000000000000000D+00 -.239411410850933D+03
 0.248974221592786D+03 -.311411965136624D+02 0.517278204850127D+02 0.206682416971791D+03
 0.229848600109081D+03 0.311411965136624D+02 -.517278204850127D+02 -.206682416971791D+03
 0.000000000000000D+00 -.000000000000000D+00 -.000000000000000D+00 0.000000000000000D+00
 0.406047728324028D+03 0.000000000000000D+00 0.000000000000000D+00 0.406047728324028D+03
 0.311655315206534D+03 0.000000000000000D+00 0.000000000000000D+00 -.311655315206534D+03
 0.266376933534585D+03 0.501716433571677D+02 0.100483110206782D+03 0.206682416971791D+03
 0.245993072591847D+03 0.106220173927879D+03 -.671036319709587D+01 -.206682416971791D+03
 0.205333037404130D+03 -.156391817285047D+03 -.937727470096861D+02 0.943924131174946D+02
0.996909470858D-03 0.000000000000D+00 0.000000000000D+00 0.580962420931D-03 0.000000000000D+00  5 2 -1 25 24 21 0 0.18882207D+00 0.71847264D-02 0.14325766D+05 0.14325766D+05 0.14325766D+05 0.12501060D+01  1  2  2  2  5  2       -1 0.220915910807D+00 0.100000000000D+01
-.230187566641D-04 0.000000000000D+00 -.382839486039D-05 0.580962420931D-03 0.000000000000D+00  5 2 -1 25 24 21 2 0.18882207D+00 0.71847264D-02 0.14325766D+05 0.14325766D+05 0.14325766D+05 0.12501060D+01  1  2  3  2  5  2       -1 -.797162379773D-02 0.100000000000D+01
0.679243433784D-04 0.000000000000D+00 0.000000000000D+00 0.580962420931D-03 0.000000000000D+00  5 2 -1 25 24 21 2 0.18882207D+00 0.71847264D-02 0.14325766D+05 0.14325766D+05 0.14325766D+05 0.12501060D+01  1  2 15  2  5  2       -1 0.235228739772D-01 0.100000000000D+01
  </mgrwgt>
  </event>
  <event>
  4     66 0.48098993E-03 0.11520899E+03 0.75467711E-02 0.12080510E+00
        2 -1    0    0  501    0 0.00000000E+00 0.00000000E+00 0.50486321E+03 0.50486331E+03 0.32000000E+00 0.0000E+00 0.9000E+01
       -1 -1    0    0    0  501 0.00000000E+00 0.00000000E+00 -.38221242E+02 0.38222582E+02 0.32000000E+00 0.0000E+00 0.9000E+01
       25  1    1    2    0    0 0.15029413E+02 -.48949162E+02 0.11084805E+03 0.17474036E+03 0.12500000E+03 0.0000E+00 0.9000E+01
       24  1    1    2    0    0 -.15029413E+02 0.48949162E+02 0.35579391E+03 0.36834553E+03 0.80419002E+02 0.0000E+00 0.9000E+01
#aMCatNLO 1  0  0  2  1 0.52154262D+02 0.00000000D+00  -5  5  0 0.00000000D+00 0.00000000D+00 0.00000000D+00 0.00000000D+00 0.00000000D+00
  <mgrwgt>
 0.2019265482D+00    4    2    0
 0.138913247020051D+03 0.000000000000000D+00 0.000000000000000D+00 0.138913247020051D+03
 0.138913247020051D+03 0.000000000000000D+00 0.000000000000000D+00 -.138913247020051D+03
 0.155394367867200D+03 0.150294127513337D+02 -.489491619034572D+02 -.768147503162376D+02
 0.122432126172902D+03 -.150294127513337D+02 0.489491619034572D+02 0.768147503162376D+02
 0.000000000000000D+00 -.000000000000000D+00 0.000000000000000D+00 0.000000000000000D+00
 0.174020124143202D+03 0.000000000000000D+00 0.000000000000000D+00 0.174020124143202D+03
 0.162147754303604D+03 0.000000000000000D+00 0.000000000000000D+00 -.162147754303604D+03
 0.161160375447485D+03 0.444750479711667D+02 -.496903497290035D+02 -.768147503162376D+02
 0.121518997433923D+03 0.766269958910307D+01 0.483779696952711D+02 0.768147503162376D+02
 0.534885055653975D+02 -.521377475602698D+02 0.131238003373247D+01 0.118723698395982D+02
0.381878620935D-03 0.000000000000D+00 0.000000000000D+00 0.182148066379D-02 0.000000000000D+00  5 2 -1 25 24 21 0 0.77671374D-01 0.58803019D-02 0.13273111D+05 0.13273111D+05 0.13273111D+05 0.12539240D+01  1  2  2  2  5  2       -1 0.347925375898D+00 0.100000000000D+01
-.203124731726D-04 0.000000000000D+00 -.146651445534D-05 0.182148066379D-02 0.000000000000D+00  5 2 -1 25 24 21 2 0.77671374D-01 0.58803019D-02 0.13273111D+05 0.13273111D+05 0.13273111D+05 0.12539240D+01  1  2  3  2  5  2       -1 -.290981894052D-01 0.100000000000D+01
0.261459482640D-04 0.000000000000D+00 0.000000000000D+00 0.182148066379D-02 0.000000000000D+00  5 2 -1 25 24 21 2 0.77671374D-01 0.58803019D-02 0.13273111D+05 0.13273111D+05 0.13273111D+05 0.12539240D+01  1  2 15  2  5  2       -1 0.374548066257D-01 0.100000000000D+01
-.107750375451D-03 0.000000000000D+00 0.000000000000D+00 0.182148066379D-02 0.000000000000D+00  5 2 -1 25 24 21 2 0.77671374D-01 0.58803019D-02 0.13273111D+05 0.13273111D+05 0.13273111D+05 0.12539240D+01  1  2  4  2  5  2       -1 -.154355444890D+00 0.100000000000D+01
  </mgrwgt>
  </event>
  <event>
  5     66 0.48098993E-03 0.14677882E+03 0.75467711E-02 0.11574034E+00
        4 -1    0    0  501    0 0.00000000E+00 0.00000000E+00 0.34119187E+03 0.34119539E+03 0.15500000E+01 0.0000E+00 0.9000E+01
       -3 -1    0    0    0  502 0.00000000E+00 0.00000000E+00 -.15629975E+03 0.15630055E+03 0.50000000E+00 0.0000E+00 0.9000E+01
       25  1    1    2    0    0 -.59802480E+02 -.13577511E+03 -.89293337E+00 0.19400262E+03 0.12500000E+03 0.0000E+00 0.9000E+01
       24  1    1    2    0    0 0.42652318E+02 0.56262141E+02 0.19418090E+03 0.22171623E+03 0.80419002E+02 0.0000E+00 0.9000E+01
       21  1    1    2  501  502 0.17150163E+02 0.79512973E+02 -.83958487E+01 0.81777098E+02 0.75000000E+00 0.0000E+00 0.9000E+01
#aMCatNLO 2  0  0  2  1 0.81341509D+02 0.00000000D+00  -5  5  0 0.00000000D+00 0.00000000D+00 0.00000000D+00 0.00000000D+00 0.00000000D+00
  <mgrwgt>
 0.4185148380D-02    2    2    0
 0.179475263217701D+03 0.000000000000000D+00 0.000000000000000D+00 0.179475263217701D+03
 0.179475263217701D+03 0.000000000000000D+00 0.000000000000000D+00 -.179475263217701D+03
 0.192231595039487D+03 -.500873312863834D+02 -.907329530246280D+02 -.102892062917720D+03
 0.166718931395915D+03 0.500873312863834D+02 0.907329530246280D+02 0.102892062917720D+03
 0.000000000000000D+00 0.000000000000000D+00 0.000000000000000D+00 -.000000000000000D+00
 0.206198260914189D+03 0.000000000000000D+00 0.000000000000000D+00 0.206198260914189D+03
 0.258627640421673D+03 0.000000000000000D+00 0.000000000000000D+00 -.258627640421673D+03
 0.219597347617792D+03 -.598024804954405D+02 -.135775114788749D+03 -.102892062917720D+03
 0.148454172491217D+03 0.426523178286399D+02 0.562621413391119D+02 0.102892062917720D+03
 0.967743812268529D+02 0.171501626668006D+02 0.795129734496371D+02 -.524293795074845D+02
-.257711411835D-03 0.000000000000D+00 0.000000000000D+00 0.154533490850D-02 0.000000000000D+00  5 4 -3 25 24 21 2 0.45688276D-01 0.24853266D-01 0.36548924D+05 0.36548924D+05 0.36548924D+05 0.12060000D+01  1  2 13  2  5  2       -3 -.549403030643D-02 0.100000000000D+01
0.567960015142D-03 0.000000000000D+00 0.000000000000D+00 0.154533490850D-02 0.203774053431D-05  5 4 -3 25 24 21 2 0.52491040D-01 0.24046288D-01 0.36548924D+05 0.36548924D+05 0.36548924D+05 0.12060000D+01  1  2  1  2  5  2       -3 0.967917868641D-02 0.100000000000D+01
  </mgrwgt>
  </event>
  <event>
  4     66 0.48098993E-03 0.97600671E+02 0.75467711E-02 0.11928084E+00
        2 -1    0    0  501    0 0.00000000E+00 0.00000000E+00 0.36002609E+03 0.36002623E+03 0.32000000E+00 0.0000E+00 0.9000E+01
       -1 -1    0    0    0  501 0.00000000E+00 0.00000000E+00 -.61055799E+02 0.61056637E+02 0.32000000E+00 0.0000E+00 0.9000E+01
       25  1    1    2    0    0 -.53437832E+02 0.79552834E+02 0.22840163E+03 0.27744650E+03 0.12500000E+03 0.0000E+00 0.9000E+01
       24  1    1    2    0    0 0.53437832E+02 -.79552834E+02 0.70568664E+02 0.14363637E+03 0.80419002E+02 0.0000E+00 0.9000E+01
#aMCatNLO 1  0  0  2  1 0.28627888D+02 0.00000000D+00  -5  5  0 0.00000000D+00 0.00000000D+00 0.00000000D+00 0.00000000D+00 0.00000000D+00
  <mgrwgt>
 0.4255838771D+00    9    2    0
 0.148262898230449D+03 0.000000000000000D+00 0.000000000000000D+00 0.148262898230449D+03
 0.148262898230449D+03 0.000000000000000D+00 0.000000000000000D+00 -.148262898230449D+03
 0.163704698159713D+03 -.534378316203668D+02 0.795528341456096D+02 0.446091126416689D+02
 0.132821098301185D+03 0.534378316203668D+02 -.795528341456096D+02 -.446091126416689D+02
 0.000000000000000D+00 -.000000000000000D+00 0.000000000000000D+00 -.000000000000000D+00
 0.161364112304014D+03 0.000000000000000D+00 0.000000000000000D+00 0.161364112304014D+03
 0.165459789215437D+03 0.000000000000000D+00 0.000000000000000D+00 -.165459789215437D+03
 0.156067322078731D+03 -.510065765020742D+02 0.643456699684391D+02 0.446091126416689D+02
 0.141837199433466D+03 0.555260830929346D+02 -.926145580048720D+02 -.446091126416689D+02
 0.289193800072542D+02 -.451950659086042D+01 0.282688880364329D+02 -.409567691142308D+01
0.474237238153D-03 0.000000000000D+00 0.000000000000D+00 0.222357212290D-02 0.000000000000D+00  5 2 -1 25 24 21 0 0.55388705D-01 0.93932752D-02 0.19967863D+05 0.19967863D+05 0.19967863D+05 0.12339029D+01  1  2  2  2  5  2       -1 0.311638591172D+00 0.100000000000D+01
-.262725623976D-04 0.000000000000D+00 -.182119586404D-05 0.222357212290D-02 0.000000000000D+00  5 2 -1 25 24 21 2 0.55388705D-01 0.93932752D-02 0.19967863D+05 0.19967863D+05 0.19967863D+05 0.12339029D+01  1  2  3  2  5  2       -1 -.262857280450D-01 0.100000000000D+01
0.327565580511D-04 0.000000000000D+00 0.000000000000D+00 0.222357212290D-02 0.000000000000D+00  5 2 -1 25 24 21 2 0.55388705D-01 0.93932752D-02 0.19967863D+05 0.19967863D+05 0.19967863D+05 0.12339029D+01  1  2 15  2  5  2       -1 0.327729729437D-01 0.100000000000D+01
0.445946163643D-03 0.000000000000D+00 0.000000000000D+00 0.222357212290D-02 0.000000000000D+00  5 2 -1 25 24 21 2 0.55388705D-01 0.10856017D-01 0.24464652D+05 0.24464652D+05 0.24464652D+05 0.12243068D+01  1  2 12  2  5  2       -1 0.353975226034D+00 0.100000000000D+01
-.390504544501D-03 0.000000000000D+00 0.000000000000D+00 0.222357212290D-02 0.000000000000D+00  5 2 -1 25 24 21 2 0.55388705D-01 0.93932752D-02 0.19967863D+05 0.19967863D+05 0.19967863D+05 0.12339029D+01  1  2  4  2  5  2       -1 -.390700233259D+00 0.100000000000D+01
-.119016092151D-02 0.000000000000D+00 -.327962458528D-03 0.222357212290D-02 0.000000000000D+00  5 2 -1 25 24 21 2 0.55388705D-01 0.11391888D-01 0.19967863D+05 0.19967863D+05 0.19967863D+05 0.12339029D+01  1  2  5  2  5  2       -1 -.886288076839D+00 0.100000000000D+01
0.123636045256D-02 0.000000000000D+00 0.321953385944D-03 0.222357212290D-02 0.000000000000D+00  5 2 -1 25 24 21 2 0.55388705D-01 0.93932752D-02 0.19967863D+05 0.19967863D+05 0.19967863D+05 0.12339029D+01  1  2  6  2  5  2       -1 0.123698001473D+01 0.100000000000D+01
0.988099217605D-05 0.000000000000D+00 0.000000000000D+00 0.222357212290D-02 0.000000000000D+00  5 2 21 25 24 1 2 0.55388705D-01 0.10856017D-01 0.24464652D+05 0.24464652D+05 0.24464652D+05 0.12243068D+01  1  2 12  4  5  2       -1 0.115591836632D+00 0.100000000000D+01
-.295763706338D-04 0.000000000000D+00 -.912804039119D-05 0.222357212290D-02 0.000000000000D+00  5 2 21 25 24 1 2 0.55388705D-01 0.11391888D-01 0.19967863D+05 0.19967863D+05 0.19967863D+05 0.12339029D+01  1  2  5  4  5  2       -1 -.322100726306D+00 0.100000000000D+01
  </mgrwgt>
  </event>
  <event>
  4     66 0.48098993E-03 0.61363098E+02 0.75467711E-02 0.12486689E+00
        2 -1    0    0  501    0 0.00000000E+00 0.00000000E+00 0.82753901E+03 0.82753907E+03 0.32000000E+00 0.0000E+00 0.9000E+01
       -1 -1    0    0    0  501 0.00000000E+00 0.00000000E+00 -.15758127E+02 0.15761376E+02 0.32000000E+00 0.0000E+00 0.9000E+01
       25  1    1    2    0    0 -.27473350E+02 -.30153384E+02 0.57714871E+03 0.59193720E+03 0.12500000E+03 0.0000E+00 0.9000E+01
       24  1    1    2    0    0 0.27473350E+02 0.30153384E+02 0.23463217E+03 0.25136324E+03 0.80419002E+02 0.0000E+00 0.9000E+01
#aMCatNLO 1  0  0  2  1 0.11391712D+02 0.00000000D+00  -5  5  0 0.00000000D+00 0.00000000D+00 0.00000000D+00 0.00000000D+00 0.00000000D+00
  <mgrwgt>
 0.1081168045D+00    9    2    0
 0.114200967597147D+03 0.000000000000000D+00 0.000000000000000D+00 0.114200967597147D+03
 0.114200967597147D+03 0.000000000000000D+00 0.000000000000000D+00 -.114200967597147D+03
 0.134248486104027D+03 -.274733497930420D+02 -.301533835571571D+02 0.270858733000660D+02
 0.941534490902677D+02 0.274733497930420D+02 0.301533835571571D+02 -.270858733000660D+02
 0.000000000000000D+00 -.000000000000000D+00 0.000000000000000D+00 -.000000000000000D+00
 0.117811519305468D+03 0.000000000000000D+00 0.000000000000000D+00 0.117811519305468D+03
 0.123696205079434D+03 0.000000000000000D+00 0.000000000000000D+00 -.123696205079434D+03
 0.133351863051074D+03 -.209227342552998D+02 -.314056370425343D+02 0.270858733000660D+02
 0.953339806268920D+02 0.321118314139783D+02 0.292666646307893D+02 -.270858733000660D+02
 0.128218807069352D+02 -.111890971586785D+02 0.213897241174495D+01 -.588468577396651D+01
0.145110813570D-03 0.000000000000D+00 0.000000000000D+00 0.276646241478D-02 0.000000000000D+00  5 2 -1 25 24 21 0 0.12731395D+00 0.24245820D-02 0.12283400D+05 0.12283400D+05 0.12283400D+05 0.12578378D+01  1  2  2  2  5  2       -1 0.271096356503D+00 0.100000000000D+01
-.805291502027D-05 0.000000000000D+00 -.557263732664D-06 0.276646241478D-02 0.000000000000D+00  5 2 -1 25 24 21 2 0.12731395D+00 0.24245820D-02 0.12283400D+05 0.12283400D+05 0.12283400D+05 0.12578378D+01  1  2  3  2  5  2       -1 -.238027026567D-01 0.100000000000D+01
0.100464144724D-04 0.000000000000D+00 0.000000000000D+00 0.276646241478D-02 0.000000000000D+00  5 2 -1 25 24 21 2 0.12731395D+00 0.24245820D-02 0.12283400D+05 0.12283400D+05 0.12283400D+05 0.12578378D+01  1  2 15  2  5  2       -1 0.296950627011D-01 0.100000000000D+01
0.337900781725D-03 0.000000000000D+00 0.000000000000D+00 0.276646241478D-02 0.000000000000D+00  5 2 -1 25 24 21 2 0.12731395D+00 0.26622069D-02 0.13615283D+05 0.13615283D+05 0.13615283D+05 0.12526466D+01  1  2 12  2  5  2       -1 0.868956073210D+00 0.100000000000D+01
-.329081687172D-03 0.000000000000D+00 0.000000000000D+00 0.276646241478D-02 0.000000000000D+00  5 2 -1 25 24 21 2 0.12731395D+00 0.24245820D-02 0.12283400D+05 0.12283400D+05 0.12283400D+05 0.12578378D+01  1  2  4  2  5  2       -1 -.972695418965D+00 0.100000000000D+01
-.898592210250D-03 0.000000000000D+00 -.166038443331D-03 0.276646241478D-02 0.000000000000D+00  5 2 -1 25 24 21 2 0.12731395D+00 0.27104750D-02 0.12283400D+05 0.12283400D+05 0.12283400D+05 0.12578378D+01  1  2  5  2  5  2       -1 -.226153302065D+01 0.100000000000D+01
0.912451597808D-03 0.000000000000D+00 0.165012292452D-03 0.276646241478D-02 0.000000000000D+00  5 2 -1 25 24 21 2 0.12731395D+00 0.24245820D-02 0.12283400D+05 0.12283400D+05 0.12283400D+05 0.12578378D+01  1  2  6  2  5  2       -1 0.269701269871D+01 0.100000000000D+01
0.517716322140D-05 0.000000000000D+00 0.000000000000D+00 0.276646241478D-02 0.000000000000D+00  5 2 21 25 24 1 2 0.12731395D+00 0.26622069D-02 0.13615283D+05 0.13615283D+05 0.13615283D+05 0.12526466D+01  1  2 12  4  5  2       -1 0.264015615581D+00 0.100000000000D+01
-.153482126438D-04 0.000000000000D+00 -.295981094943D-05 0.276646241478D-02 0.000000000000D+00  5 2 21 25 24 1 2 0.12731395D+00 0.27104750D-02 0.12283400D+05 0.12283400D+05 0.12283400D+05 0.12578378D+01  1  2  5  4  5  2       -1 -.764627859922D+00 0.100000000000D+01
  </mgrwgt>
  </event>
  <event>
  4     66 0.48098993E-03 0.12156960E+03 0.75467711E-02 0.99988046E-01
        2 -1    0    0  501    0 0.00000000E+00 0.00000000E+00 0.19660344E+03 0.19660370E+03 0.32000000E+00 0.0000E+00 0.9000E+01
       -1 -1    0    0    0  501 0.00000000E+00 0.00000000E+00 -.78869744E+02 0.78870393E+02 0.32000000E+00 0.0000E+00 0.9000E+01
       25  1    1    2    0    0 -.27529159E+02 -.57704980E+02 0.97039706E+02 0.17067344E+03 0.12500000E+03 0.0000E+00 0.9000E+01
       24  1    1    2    0    0 0.27529159E+02 0.57704980E+02 0.20693989E+02 0.10480065E+03 0.80419002E+02 0.0000E+00 0.9000E+01
#aMCatNLO 1  0  0  1  1 0.53051133D+03 0.00000000D+00  -5  5  0 0.00000000D+00 0.00000000D+00 0.00000000D+00 0.00000000D+00 0.00000000D+00
  <mgrwgt>
 0.4562290251D+00    3    2    0
 0.124523846054024D+03 0.000000000000000D+00 0.000000000000000D+00 0.124523846054024D+03
 0.124523846054024D+03 0.000000000000000D+00 0.000000000000000D+00 -.124523846054024D+03
 0.142909449165046D+03 -.275291585504388D+02 -.577049801525063D+02 0.266531678372499D+02
 0.106138242943001D+03 0.275291585504388D+02 0.577049801525063D+02 -.266531678372499D+02
 0.000000000000000D+00 0.000000000000000D+00 -.000000000000000D+00 -.000000000000000D+00
 0.378726282279701D+03 0.000000000000000D+00 0.000000000000000D+00 0.378726282279701D+03
 0.111407893500244D+04 0.000000000000000D+00 0.000000000000000D+00 -.111407893500244D+04
 0.238210435711557D+03 -.104051996402297D+03 0.171994192840414D+03 0.266531678372499D+02
 0.347850165352128D+03 -.636245249311758D+02 0.331321671571079D+03 -.266531678372499D+02
 0.906744616218452D+03 0.167676521333473D+03 -.503315864411494D+03 -.735352652722735D+03
0.533681262767D-03 0.000000000000D+00 0.000000000000D+00 0.259507994973D-02 0.000000000000D+00  5 2 -1 25 24 21 0 0.30246753D-01 0.12133877D-01 0.14779168D+05 0.14779168D+05 0.14779168D+05 0.12485575D+01  1  2  2  1  5  1        2 0.446812725494D+00 0.100000000000D+01
-.296281771570D-04 0.000000000000D+00 -.204947657053D-05 0.259507994973D-02 0.000000000000D+00  5 2 -1 25 24 21 2 0.30246753D-01 0.12133877D-01 0.14779168D+05 0.14779168D+05 0.14779168D+05 0.12485575D+01  1  2  3  1  5  1        2 -.386692381214D-01 0.100000000000D+01
0.368428988890D-04 0.000000000000D+00 0.000000000000D+00 0.259507994973D-02 0.000000000000D+00  5 2 -1 25 24 21 2 0.30246753D-01 0.12133877D-01 0.14779168D+05 0.14779168D+05 0.14779168D+05 0.12485575D+01  1  2 15  1  5  1        2 0.480855377188D-01 0.100000000000D+01
  </mgrwgt>
  </event>
  <event>
  4     66 0.48098993E-03 0.11286261E+03 0.75467711E-02 0.12520101E+00
        2 -1    0    0  501    0 0.00000000E+00 0.00000000E+00 0.81563213E+03 0.81563220E+03 0.32000000E+00 0.0000E+00 0.9000E+01
       -1 -1    0    0    0  501 0.00000000E+00 0.00000000E+00 -.15623504E+02 0.15626780E+02 0.32000000E+00 0.0000E+00 0.9000E+01
       25  1    1    2    0    0 -.85720444E+01 0.45054112E+02 0.48106033E+03 0.49914666E+03 0.12500000E+03 0.0000E+00 0.9000E+01
       24  1    1    2    0    0 0.85720444E+01 -.45054112E+02 0.31894830E+03 0.33211231E+03 0.80419002E+02 0.0000E+00 0.9000E+01
#aMCatNLO 1  0  0  1  1 0.37528412D+01 0.00000000D+00  -5  5  0 0.00000000D+00 0.00000000D+00 0.00000000D+00 0.00000000D+00 0.00000000D+00
  <mgrwgt>
 0.3637767831D+00    6    2    0
 0.112891184481887D+03 0.000000000000000D+00 0.000000000000000D+00 0.112891184481887D+03
 0.112891184481887D+03 0.000000000000000D+00 0.000000000000000D+00 -.112891184481887D+03
 0.133171297777843D+03 -.857204441694210D+01 0.450541118089738D+02 0.249832252791228D+01
 0.926110711859309D+02 0.857204441694210D+01 -.450541118089738D+02 -.249832252791228D+01
 0.000000000000000D+00 0.000000000000000D+00 -.000000000000000D+00 -.000000000000000D+00
 0.113176832089779D+03 0.000000000000000D+00 0.000000000000000D+00 0.113176832089779D+03
 0.125944730537583D+03 0.000000000000000D+00 0.000000000000000D+00 -.125944730537583D+03
 0.133719419390352D+03 -.104269080030370D+02 0.462700885684855D+02 0.249832252791228D+01
 0.920941363402230D+02 0.728836183990266D+01 -.442125792068075D+02 -.249832252791228D+01
 0.133080068967874D+02 0.313854616313439D+01 -.205750936167795D+01 -.127678984478036D+02
0.187151003848D-03 0.000000000000D+00 0.000000000000D+00 0.293558597670D-02 0.000000000000D+00  5 2 -1 25 24 21 0 0.12548212D+00 0.24038728D-02 0.12737970D+05 0.12737970D+05 0.12737970D+05 0.12559977D+01  1  2  2  1  5  1        2 0.360960304098D+00 0.100000000000D+01
-.103972771817D-04 0.000000000000D+00 -.718709132767D-06 0.293558597670D-02 0.000000000000D+00  5 2 -1 25 24 21 2 0.12548212D+00 0.24038728D-02 0.12737970D+05 0.12737970D+05 0.12737970D+05 0.12559977D+01  1  2  3  1  5  1        2 -.316347653255D-01 0.100000000000D+01
0.129463686556D-04 0.000000000000D+00 0.000000000000D+00 0.293558597670D-02 0.000000000000D+00  5 2 -1 25 24 21 2 0.12548212D+00 0.24038728D-02 0.12737970D+05 0.12737970D+05 0.12737970D+05 0.12559977D+01  1  2 15  1  5  1        2 0.393906334399D-01 0.100000000000D+01
-.215585041875D-04 0.000000000000D+00 0.000000000000D+00 0.293558597670D-02 0.000000000000D+00  5 2 -1 25 24 21 2 0.12548212D+00 0.24038728D-02 0.12737970D+05 0.12737970D+05 0.12737970D+05 0.12559977D+01  1  2  4  1  5  1        2 -.655939251040D-01 0.100000000000D+01
0.202020020107D-04 0.000000000000D+00 0.000000000000D+00 0.293558597670D-02 0.175942600865D-02  5 2 -1 25 24 21 2 0.12579963D+00 0.26818313D-02 0.13168614D+05 0.13168614D+05 0.13168614D+05 0.12543214D+01  1  2 11  1  5  1        2 0.522508689397D-01 0.100000000000D+01
0.289943134064D-05 0.000000000000D+00 0.000000000000D+00 0.293558597670D-02 0.880579083993D-06  5 21 -1 25 24 -2 2 0.12579963D+00 0.26818313D-02 0.13168614D+05 0.13168614D+05 0.13168614D+05 0.12543214D+01  1  2 11  3  5  1        2 0.840366702240D-02 0.100000000000D+01
  </mgrwgt>
  </event>
  <event>
  4     66 0.48098993E-03 0.12366409E+03 0.75467711E-02 0.10906588E+00
        2 -1    0    0  501    0 0.00000000E+00 0.00000000E+00 0.49265971E+03 0.49265981E+03 0.32000000E+00 0.0000E+00 0.9000E+01
       -1 -1    0    0    0  501 0.00000000E+00 0.00000000E+00 -.31115202E+02 0.31116848E+02 0.32000000E+00 0.0000E+00 0.9000E+01
       25  1    1    2    0    0 0.12344870E+02 0.66611180E+02 0.27793472E+03 0.31218929E+03 0.12500000E+03 0.0000E+00 0.9000E+01
       24  1    1    2    0    0 -.12344870E+02 -.66611180E+02 0.18360978E+03 0.21158737E+03 0.80419002E+02 0.0000E+00 0.9000E+01
#aMCatNLO 1  0  0  2  2 0.23656739D+03 0.00000000D+00  -5  5  0 0.00000000D+00 0.00000000D+00 0.00000000D+00 0.00000000D+00 0.00000000D+00
  <mgrwgt>
 0.3875547617D+00    3    2    0
 0.123813023210163D+03 0.000000000000000D+00 0.000000000000000D+00 0.123813023210163D+03
 0.123813023210163D+03 0.000000000000000D+00 0.000000000000000D+00 -.123813023210163D+03
 0.142304179891809D+03 0.123448704306462D+02 0.666111801735085D+02 0.600287136487737D+01
 0.105321866528517D+03 -.123448704306462D+02 -.666111801735085D+02 -.600287136487737D+01
 0.000000000000000D+00 -.000000000000000D+00 0.000000000000000D+00 0.000000000000000D+00
 0.310287177953728D+03 0.000000000000000D+00 0.000000000000000D+00 0.310287177953728D+03
 0.271848479300158D+03 0.000000000000000D+00 0.000000000000000D+00 -.271848479300158D+03
 0.140158639399011D+03 0.481333817870422D+02 -.408238568890990D+02 0.600287136487737D+01
 0.202307110456354D+03 0.266322351722127D+02 -.183618192377383D+03 -.600287136487737D+01
 0.239669907398521D+03 -.747656169592549D+02 0.224442049266482D+03 0.384386986535697D+02
0.297742490354D-03 0.000000000000D+00 0.000000000000D+00 0.270959171981D-02 0.000000000000D+00  5 2 -1 25 24 21 0 0.75793936D-01 0.47870888D-02 0.15292806D+05 0.15292806D+05 0.15292806D+05 0.12468665D+01  1  2  2  2  5  2       -1 0.379510994961D+00 0.100000000000D+01
-.165412203270D-04 0.000000000000D+00 -.114340956036D-05 0.270959171981D-02 0.000000000000D+00  5 2 -1 25 24 21 2 0.75793936D-01 0.47870888D-02 0.15292806D+05 0.15292806D+05 0.15292806D+05 0.12468665D+01  1  2  3  2  5  2       -1 -.327786469771D-01 0.100000000000D+01
0.206003786649D-04 0.000000000000D+00 0.000000000000D+00 0.270959171981D-02 0.000000000000D+00  5 2 -1 25 24 21 2 0.75793936D-01 0.47870888D-02 0.15292806D+05 0.15292806D+05 0.15292806D+05 0.12468665D+01  1  2 15  2  5  2       -1 0.408224137339D-01 0.100000000000D+01
  </mgrwgt>
  </event>
  <event>
  4     66 0.48098993E-03 0.12079580E+03 0.75467711E-02 0.12301918E+00
        2 -1    0    0  501    0 0.00000000E+00 0.00000000E+00 0.22116865E+02 0.22119180E+02 0.32000000E+00 0.0000E+00 0.9000E+01
       -1 -1    0    0    0  501 0.00000000E+00 0.00000000E+00 -.72055809E+03 0.72055816E+03 0.32000000E+00 0.0000E+00 0.9000E+01
       25  1    1    2    0    0 0.40160338E+02 -.47873598E+02 -.50606959E+03 0.52501063E+03 0.12500000E+03 0.0000E+00 0.9000E+01
       24  1    1    2    0    0 -.40160338E+02 0.47873598E+02 -.19237164E+03 0.21766672E+03 0.80419002E+02 0.0000E+00 0.9000E+01
#aMCatNLO 1  0  0  2  2 0.14305223D+02 0.00000000D+00  -5  5  0 0.00000000D+00 0.00000000D+00 0.00000000D+00 0.00000000D+00 0.00000000D+00
  <mgrwgt>
 0.2641169363D+00    4    2    0
 0.126243304170223D+03 0.000000000000000D+00 0.000000000000000D+00 0.126243304170223D+03
 0.126243304170223D+03 0.000000000000000D+00 0.000000000000000D+00 -.126243304170223D+03
 0.144378491825961D+03 0.401603378440020D+02 -.478735984796424D+02 -.362686467186838D+02
 0.108108116514486D+03 -.401603378440020D+02 0.478735984796424D+02 0.362686467186838D+02
 0.000000000000000D+00 0.000000000000000D+00 0.000000000000000D+00 0.000000000000000D+00
 0.148420939103889D+03 0.000000000000000D+00 0.000000000000000D+00 0.148420939103889D+03
 0.128773840857940D+03 0.000000000000000D+00 0.000000000000000D+00 -.128773840857940D+03
 0.143652134591440D+03 0.327293781447521D+02 -.512280083951181D+02 -.362686467186838D+02
 0.109239397094635D+03 -.457677297885690D+02 0.453423653818889D+02 0.362686467186838D+02
 0.243032482757541D+02 0.130383516438169D+02 0.588564301322922D+01 0.196470982459483D+02
0.146040665552D-02 0.000000000000D+00 0.000000000000D+00 0.248207136792D-02 0.000000000000D+00  5 2 -1 25 24 21 0 0.34027781D-02 0.11085527D+00 0.14591625D+05 0.14591625D+05 0.14591625D+05 0.12491915D+01  1  2  2  2  5  2       -1 0.337118879149D+00 0.100000000000D+01
-.809417709927D-04 0.000000000000D+00 -.560834609112D-05 0.248207136792D-02 0.000000000000D+00  5 2 -1 25 24 21 2 0.34027781D-02 0.11085527D+00 0.14591625D+05 0.14591625D+05 0.14591625D+05 0.12491915D+01  1  2  3  2  5  2       -1 -.291568082524D-01 0.100000000000D+01
0.100935452645D-03 0.000000000000D+00 0.000000000000D+00 0.248207136792D-02 0.000000000000D+00  5 2 -1 25 24 21 2 0.34027781D-02 0.11085527D+00 0.14591625D+05 0.14591625D+05 0.14591625D+05 0.12491915D+01  1  2 15  2  5  2       -1 0.363589232427D-01 0.100000000000D+01
-.222653262488D-03 0.000000000000D+00 0.000000000000D+00 0.248207136792D-02 0.000000000000D+00  5 2 -1 25 24 21 2 0.34027781D-02 0.11085527D+00 0.14591625D+05 0.14591625D+05 0.14591625D+05 0.12491915D+01  1  2  4  2  5  2       -1 -.802040578247D-01 0.100000000000D+01
  </mgrwgt>
  </event>
  <event>
  5     66 0.48098993E-03 0.11301310E+03 0.75467711E-02 0.12065831E+00
        2 -1    0    0  502    0 0.00000000E+00 0.00000000E+00 0.72211748E+03 0.72211755E+03 0.32000000E+00 0.0000E+00 0.9000E+01
       -1 -1    0    0    0  501 0.00000000E+00 0.00000000E+00 -.29242158E+02 0.29243909E+02 0.32000000E+00 0.0000E+00 0.9000E+01
       25  1    1    2    0    0 -.16878758E+02 0.60056371E+02 0.31868515E+03 0.34796104E+03 0.12500000E+03 0.0000E+00 0.9000E+01
       24  1    1    2    0    0 -.33727600E+02 -.33534849E+02 0.24052877E+03 0.25803768E+03 0.80419002E+02 0.0000E+00 0.9000E+01
       21  1    1    2  502  501 0.50606358E+02 -.26521522E+02 0.13366140E+03 0.14536274E+03 0.75000000E+00 0.0000E+00 0.9000E+01
#aMCatNLO 2  0  0  1  2 0.57134880D+02 0.00000000D+00  -5  5  0 0.00000000D+00 0.00000000D+00 0.00000000D+00 0.00000000D+00 0.00000000D+00
  <mgrwgt>
 0.9521393327D-01    1    2    0
 0.113192137936723D+03 0.000000000000000D+00 0.000000000000000D+00 0.113192137936723D+03
 0.113192137936723D+03 0.000000000000000D+00 0.000000000000000D+00 -.113192137936723D+03
 0.133418330790216D+03 0.131923725725294D+02 0.442968464188320D+02 -.626112562576416D+01
 0.929659450832301D+02 -.131923725725294D+02 -.442968464188320D+02 0.626112562576416D+01
 0.000000000000000D+00 0.000000000000000D+00 -.000000000000000D+00 -.000000000000000D+00
 0.144694100898507D+03 0.000000000000000D+00 0.000000000000000D+00 0.144694100898507D+03
 0.145937136272508D+03 0.000000000000000D+00 0.000000000000000D+00 -.145937136272508D+03
 0.139842275021534D+03 -.168787579710482D+02 0.600563711728535D+02 -.626112562576416D+01
 0.936405614526134D+02 -.337275997475217D+02 -.335348492759324D+02 0.626112562576416D+01
 0.571484006968676D+02 0.506063577185699D+02 -.265215218969211D+02 -.124303537400082D+01
0.687574157553D-04 0.000000000000D+00 0.000000000000D+00 0.292187400350D-02 0.769832272388D-05  5 2 -1 25 24 21 2 0.11109326D+00 0.44988575D-02 0.21063868D+05 0.21063868D+05 0.21063868D+05 0.12313558D+01  1  2  1  1  5  1        2 0.952139332713D-01 0.100000000000D+01
  </mgrwgt>
  </event>
  <event>
  4     66 0.48098993E-03 0.11116200E+03 0.75467711E-02 0.11062143E+00
        2 -1    0    0  501    0 0.00000000E+00 0.00000000E+00 0.27557825E+03 0.27557844E+03 0.32000000E+00 0.0000E+00 0.9000E+01
       -1 -1    0    0    0  501 0.00000000E+00 0.00000000E+00 -.44847798E+02 0.44848940E+02 0.32000000E+00 0.0000E+00 0.9000E+01
       25  1    1    2    0    0 -.16600004E+02 0.38203418E+02 0.13888297E+03 0.19143809E+03 0.12500000E+03 0.0000E+00 0.9000E+01
       24  1    1    2    0    0 0.16600004E+02 -.38203418E+02 0.91847480E+02 0.12898929E+03 0.80419002E+02 0.0000E+00 0.9000E+01
#aMCatNLO 1  0  0  1  2 0.21430678D+03 0.00000000D+00  -5  5  0 0.00000000D+00 0.00000000D+00 0.00000000D+00 0.00000000D+00 0.00000000D+00
  <mgrwgt>
 0.2980164131D+00    5    2    0
 0.111172346139672D+03 0.000000000000000D+00 0.000000000000000D+00 0.111172346139672D+03
 0.111172346139672D+03 0.000000000000000D+00 0.000000000000000D+00 -.111172346139672D+03
 0.131766010759568D+03 -.166000035832243D+02 0.382034180713459D+02 0.149007388859117D+01
 0.905786815197765D+02 0.166000035832243D+02 -.382034180713459D+02 -.149007388859117D+01
 0.000000000000000D+00 0.000000000000000D+00 0.000000000000000D+00 0.000000000000000D+00
 0.373342333672617D+03 0.000000000000000D+00 0.000000000000000D+00 0.373342333672617D+03
 0.206849490321475D+03 0.000000000000000D+00 0.000000000000000D+00 -.206849490321475D+03
 0.153323923457932D+03 -.537394789221734D+02 -.706616840268727D+02 0.149007388859117D+01
 0.155487604995189D+03 -.154557503487866D+02 -.132166859740753D+03 -.149007388859117D+01
 0.271380295540970D+03 0.691952292709599D+02 0.202828543767626D+03 0.166492843351142D+03
0.194716067714D-03 0.000000000000D+00 0.000000000000D+00 0.297984505864D-02 0.000000000000D+00  5 2 -1 25 24 21 0 0.42396756D-01 0.68997634D-02 0.12356991D+05 0.12356991D+05 0.12356991D+05 0.12575347D+01  1  2  2  1  5  1        2 0.265478933899D+00 0.100000000000D+01
-.108175592036D-04 0.000000000000D+00 -.747760969938D-06 0.297984505864D-02 0.000000000000D+00  5 2 -1 25 24 21 2 0.42396756D-01 0.68997634D-02 0.12356991D+05 0.12356991D+05 0.12356991D+05 0.12575347D+01  1  2  3  1  5  1        2 -.233237042818D-01 0.100000000000D+01
0.134623339866D-04 0.000000000000D+00 0.000000000000D+00 0.297984505864D-02 0.000000000000D+00  5 2 -1 25 24 21 2 0.42396756D-01 0.68997634D-02 0.12356991D+05 0.12356991D+05 0.12356991D+05 0.12575347D+01  1  2 15  1  5  1        2 0.290260946056D-01 0.100000000000D+01
0.851308289324D-04 0.000000000000D+00 -.959401602991D-04 0.297984505864D-02 0.000000000000D+00  5 2 -1 25 24 21 2 0.22044835D+00 0.68997634D-02 0.12356991D+05 0.12356991D+05 0.12356991D+05 0.12575347D+01  1  2  5  1  5  1        2 0.246234290005D-01 0.100000000000D+01
0.136940166737D-04 0.000000000000D+00 -.193164156946D-04 0.297984505864D-02 0.000000000000D+00  5 21 -1 25 24 -2 2 0.22044835D+00 0.68997634D-02 0.12356991D+05 0.12356991D+05 0.12356991D+05 0.12575347D+01  1  2  5  3  5  1        2 0.221165983913D-02 0.100000000000D+01
  </mgrwgt>
  </event>
  <event>
  5     66 0.48098993E-03 0.11603614E+03 0.75467711E-02 0.12355428E+00
        4 -1    0    0  501    0 0.00000000E+00 0.00000000E+00 0.36391146E+02 0.36424140E+02 0.15500000E+01 0.0000E+00 0.9000E+01
       -3 -1    0    0    0  502 0.00000000E+00 0.00000000E+00 -.43487020E+03 0.43487049E+03 0.50000000E+00 0.0000E+00 0.9000E+01
       25  1    1    2    0    0 -.44894809E+02 0.27582127E+01 -.20311563E+03 0.24270169E+03 0.12500000E+03 0.0000E+00 0.9000E+01
       24  1    1    2    0    0 0.58793299E+02 0.65296749E+01 -.18022578E+03 0.20602873E+03 0.80419002E+02 0.0000E+00 0.9000E+01
       21  1    1    2  501  502 -.13898490E+02 -.92878876E+01 -.15137653E+02 0.22564218E+02 0.75000000E+00 0.0000E+00 0.9000E+01
#aMCatNLO 2  0  0  2  2 0.16716246D+02 0.00000000D+00  -5  5  0 0.00000000D+00 0.00000000D+00 0.00000000D+00 0.00000000D+00 0.00000000D+00
  <mgrwgt>
 0.3618215052D-01    1    2    0
 0.116328112087794D+03 0.000000000000000D+00 0.000000000000000D+00 0.116328112087794D+03
 0.116328112087794D+03 0.000000000000000D+00 0.000000000000000D+00 -.116328112087794D+03
 0.136009047076918D+03 -.529223466558909D+02 -.260631722789149D+01 0.811746399514780D+01
 0.966471770986703D+02 0.529223466558909D+02 0.260631722789149D+01 -.811746399514780D+01
 0.000000000000000D+00 -.000000000000000D+00 -.000000000000000D+00 0.000000000000000D+00
 0.129866087584247D+03 0.000000000000000D+00 0.000000000000000D+00 0.129866087584247D+03
 0.121905048056270D+03 0.000000000000000D+00 0.000000000000000D+00 -.121905048056270D+03
 0.133094120191854D+03 -.448948089466751D+02 0.275821274970773D+01 0.811746399514780D+01
 0.100161858378093D+03 0.587932993088790D+02 0.652967488062026D+01 -.811746399514780D+01
 0.185151570705702D+02 -.138984903622039D+02 -.928788763032799D+01 0.796103952797705D+01
0.277275445431D-03 0.000000000000D+00 0.000000000000D+00 0.284581061708D-02 0.848641133680D-04  5 4 -3 25 24 21 2 0.56008556D-02 0.66901578D-01 0.15549463D+05 0.15549463D+05 0.15549463D+05 0.12460453D+01  1  2  1  2  5  2       -3 0.361821505242D-01 0.100000000000D+01
  </mgrwgt>
  </event>
  <event>
  4     66 0.48098993E-03 0.65326680E+02 0.75467711E-02 0.11598838E+00
        2 -1    0    0  501    0 0.00000000E+00 0.00000000E+00 0.11023931E+04 0.11023932E+04 0.32000000E+00 0.0000E+00 0.9000E+01
       -1 -1    0    0    0  501 0.00000000E+00 0.00000000E+00 -.22195022E+02 0.22197328E+02 0.32000000E+00 0.0000E+00 0.9000E+01
       25  1    1    2    0    0 0.42077030E+02 0.71780719E+02 0.29608892E+03 0.33198885E+03 0.12500000E+03 0.0000E+00 0.9000E+01
       24  1    1    2    0    0 -.42077030E+02 -.71780719E+02 0.78410917E+03 0.79260163E+03 0.80419002E+02 0.0000E+00 0.9000E+01
#aMCatNLO 1  0  0  1  2 0.95314515D+02 0.00000000D+00  -5  5  0 0.00000000D+00 0.00000000D+00 0.00000000D+00 0.00000000D+00 0.00000000D+00
  <mgrwgt>
 0.6231300507D+00    8    2    0
 0.156425580536824D+03 0.000000000000000D+00 0.000000000000000D+00 0.156425580536824D+03
 0.156425580536824D+03 0.000000000000000D+00 0.000000000000000D+00 -.156425580536824D+03
 0.171061588301989D+03 0.420770298619176D+02 0.717807193619973D+02 -.819397271064080D+02
 0.141789572771659D+03 -.420770298619176D+02 -.717807193619973D+02 0.819397271064080D+02
 0.000000000000000D+00 0.000000000000000D+00 -.000000000000000D+00 0.000000000000000D+00
 0.275868750124760D+03 0.000000000000000D+00 0.000000000000000D+00 0.275868750124760D+03
 0.183740750404482D+03 0.000000000000000D+00 0.000000000000000D+00 -.183740750404482D+03
 0.187967586892533D+03 0.880115479440909D+01 0.113645213353727D+03 -.819397271064080D+02
 0.139080889350054D+03 -.681089265807615D+02 -.390298996895346D+02 0.819397271064080D+02
 0.132561024286656D+03 0.593077717863524D+02 -.746153136641923D+02 0.921279997202779D+02
0.405179286854D-03 0.000000000000D+00 0.000000000000D+00 0.176474796450D-02 0.000000000000D+00  5 2 -1 25 24 21 0 0.16959912D+00 0.34147997D-02 0.17672461D+05 0.17672461D+05 0.17672461D+05 0.12397858D+01  1  2  2  1  5  1        2 0.317171984938D+00 0.100000000000D+01
-.217854814611D-04 0.000000000000D+00 -.155599514768D-05 0.176474796450D-02 0.000000000000D+00  5 2 -1 25 24 21 2 0.16959912D+00 0.34147997D-02 0.17672461D+05 0.17672461D+05 0.17672461D+05 0.12397858D+01  1  2  3  1  5  1        2 -.262124770184D-01 0.100000000000D+01
0.279265328292D-04 0.000000000000D+00 0.000000000000D+00 0.176474796450D-02 0.000000000000D+00  5 2 -1 25 24 21 2 0.16959912D+00 0.34147997D-02 0.17672461D+05 0.17672461D+05 0.17672461D+05 0.12397858D+01  1  2 15  1  5  1        2 0.336014423780D-01 0.100000000000D+01
0.551435770459D-04 0.000000000000D+00 0.000000000000D+00 0.176474796450D-02 0.000000000000D+00  5 2 -1 25 24 21 2 0.30429084D+00 0.34147997D-02 0.35506366D+05 0.35506366D+05 0.35506366D+05 0.12072916D+01  1  2 12  1  5  1        2 0.217801192783D-01 0.100000000000D+01
-.273138862169D-03 0.000000000000D+00 -.133557134879D-03 0.176474796450D-02 0.000000000000D+00  5 2 -1 25 24 21 2 0.31911347D+00 0.34147997D-02 0.17672461D+05 0.17672461D+05 0.17672461D+05 0.12397858D+01  1  2  5  1  5  1        2 -.101711900730D+00 0.100000000000D+01
0.315305181085D-03 0.000000000000D+00 0.110695950196D-03 0.176474796450D-02 0.000000000000D+00  5 2 -1 25 24 21 2 0.16959912D+00 0.34147997D-02 0.17672461D+05 0.17672461D+05 0.17672461D+05 0.12397858D+01  1  2  6  1  5  1        2 0.379377881904D+00 0.100000000000D+01
0.353785477719D-05 0.000000000000D+00 0.000000000000D+00 0.176474796450D-02 0.000000000000D+00  5 21 -1 25 24 -2 2 0.30429084D+00 0.34147997D-02 0.35506366D+05 0.35506366D+05 0.35506366D+05 0.12072916D+01  1  2 12  3  5  1        2 0.457015388518D-03 0.100000000000D+01
-.112440203158D-04 0.000000000000D+00 -.918500229579D-05 0.176474796450D-02 0.000000000000D+00  5 21 -1 25 24 -2 2 0.31911347D+00 0.34147997D-02 0.17672461D+05 0.17672461D+05 0.17672461D+05 0.12397858D+01  1  2  5  3  5  1        2 -.133401540019D-02 0.100000000000D+01
  </mgrwgt>
  </event>
  <event>
  4     66 0.48098993E-03 0.76831893E+02 0.75467711E-02 0.12603530E+00
        2 -1    0    0  501    0 0.00000000E+00 0.00000000E+00 0.18221368E+02 0.18224177E+02 0.32000000E+00 0.0000E+00 0.9000E+01
       -1 -1    0    0    0  501 0.00000000E+00 0.00000000E+00 -.10377721E+04 0.10377721E+04 0.32000000E+00 0.0000E+00 0.9000E+01
       25  1    1    2    0    0 -.17515112E+02 -.19646175E+02 -.24010342E+03 0.27196949E+03 0.12500000E+03 0.0000E+00 0.9000E+01
       24  1    1    2    0    0 0.17515112E+02 0.19646175E+02 -.77944727E+03 0.78402679E+03 0.80419002E+02 0.0000E+00 0.9000E+01
#aMCatNLO 1  0  0  2  1 0.78936258D+01 0.00000000D+00  -5  5  0 0.00000000D+00 0.00000000D+00 0.00000000D+00 0.00000000D+00 0.00000000D+00
  <mgrwgt>
 0.4266361218D+00   11    2    0
 0.137517765339515D+03 0.000000000000000D+00 0.000000000000000D+00 0.137517765339515D+03
 0.137517765339515D+03 0.000000000000000D+00 0.000000000000000D+00 -.137517765339515D+03
 0.154166130776191D+03 -.175151116210775D+02 -.196461752515634D+02 0.863101647628354D+02
 0.120869399902838D+03 0.175151116210775D+02 0.196461752515634D+02 -.863101647628354D+02
 0.000000000000000D+00 0.000000000000000D+00 0.000000000000000D+00 -.000000000000000D+00
 0.140941032643955D+03 0.000000000000000D+00 0.000000000000000D+00 0.140941032643955D+03
 0.142201356221223D+03 0.000000000000000D+00 0.000000000000000D+00 -.142201356221223D+03
 0.154954297009442D+03 -.194120861216668D+02 -.236550318686667D+02 0.863101647628354D+02
 0.120194485405557D+03 0.160357786416339D+02 0.165199161470265D+02 -.863101647628354D+02
 0.799360645017883D+01 0.337630748003291D+01 0.713511572164022D+01 -.126032357726777D+01
0.127845476735D-02 0.000000000000D+00 0.000000000000D+00 0.163423580567D-02 0.000000000000D+00  5 2 -1 25 24 21 0 0.28035073D-02 0.15965746D+00 0.11273932D+05 0.11273932D+05 0.11273932D+05 0.12622133D+01  1  2  2  2  5  2       -1 0.155516929860D+00 0.100000000000D+01
-.652489813551D-04 0.000000000000D+00 -.490960293149D-05 0.163423580567D-02 0.000000000000D+00  5 2 -1 25 24 21 2 0.28035073D-02 0.15965746D+00 0.11273932D+05 0.11273932D+05 0.11273932D+05 0.12622133D+01  1  2  3  2  5  2       -1 -.126453710451D-01 0.100000000000D+01
0.873284860706D-04 0.000000000000D+00 0.000000000000D+00 0.163423580567D-02 0.000000000000D+00  5 2 -1 25 24 21 2 0.28035073D-02 0.15965746D+00 0.11273932D+05 0.11273932D+05 0.11273932D+05 0.12622133D+01  1  2 15  2  5  2       -1 0.169244191440D-01 0.100000000000D+01
0.241856114659D-02 0.000000000000D+00 0.000000000000D+00 0.163423580567D-02 0.000000000000D+00  5 2 -1 25 24 21 2 0.28035073D-02 0.16702386D+00 0.12125795D+05 0.12125795D+05 0.12125795D+05 0.12584937D+01  1  2 12  2  5  2       -1 0.413391616586D+00 0.100000000000D+01
-.208068476506D-02 0.000000000000D+00 0.000000000000D+00 0.163423580567D-02 0.000000000000D+00  5 2 -1 25 24 21 2 0.28035073D-02 0.15965746D+00 0.11273932D+05 0.11273932D+05 0.11273932D+05 0.12622133D+01  1  2  4  2  5  2       -1 -.403240484920D+00 0.100000000000D+01
-.156709228469D-01 0.000000000000D+00 -.263489688920D-02 0.163423580567D-02 0.000000000000D+00  5 2 -1 25 24 21 2 0.28035073D-02 0.16789893D+00 0.11273932D+05 0.11273932D+05 0.11273932D+05 0.12622133D+01  1  2  5  2  5  2       -1 -.265273588868D+01 0.100000000000D+01
0.157868748603D-01 0.000000000000D+00 0.263156296026D-02 0.163423580567D-02 0.000000000000D+00  5 2 -1 25 24 21 2 0.28035073D-02 0.15965746D+00 0.11273932D+05 0.11273932D+05 0.11273932D+05 0.12622133D+01  1  2  6  2  5  2       -1 0.305952500874D+01 0.100000000000D+01
0.216786763319D-04 0.000000000000D+00 0.000000000000D+00 0.163423580567D-02 0.221809646404D-03  5 2 -1 25 24 21 2 0.28732957D-02 0.16509509D+00 0.12125795D+05 0.12125795D+05 0.12125795D+05 0.12584937D+01  1  2 11  2  5  2       -1 0.370003547265D-02 0.100000000000D+01
0.305539435141D-04 0.000000000000D+00 0.000000000000D+00 0.163423580567D-02 0.000000000000D+00  5 2 21 25 24 1 2 0.28035073D-02 0.16702386D+00 0.12125795D+05 0.12125795D+05 0.12125795D+05 0.12584937D+01  1  2 12  4  5  2       -1 0.454739937431D-01 0.100000000000D+01
-.134992401924D-03 0.000000000000D+00 -.230923919202D-04 0.163423580567D-02 0.000000000000D+00  5 2 21 25 24 1 2 0.28035073D-02 0.16789893D+00 0.11273932D+05 0.11273932D+05 0.11273932D+05 0.12622133D+01  1  2  5  4  5  2       -1 -.199595791336D+00 0.100000000000D+01
0.216553234876D-06 0.000000000000D+00 0.000000000000D+00 0.163423580567D-02 0.136016423662D-05  5 2 21 25 24 1 2 0.28732957D-02 0.16509509D+00 0.12125795D+05 0.12125795D+05 0.12125795D+05 0.12584937D+01  1  2 11  4  5  2       -1 0.321654219678D-03 0.100000000000D+01
  </mgrwgt>
  </event>
  <event>
  4     66 0.48098993E-03 0.47662062E+02 0.75467711E-02 0.11758133E+00
        2 -1    0    0  501    0 0.00000000E+00 0.00000000E+00 0.28192381E+04 0.28192381E+04 0.32000000E+00 0.0000E+00 0.9000E+01
       -1 -1    0    0    0  501 0.00000000E+00 0.00000000E+00 -.72251886E+01 0.72322714E+01 0.32000000E+00 0.0000E+00 0.9000E+01
       25  1    1    2    0    0 0.70726427E+02 -.60369926E+02 0.18681014E+04 0.18745865E+04 0.12500000E+03 0.0000E+00 0.9000E+01
       24  1    1    2    0    0 -.70726427E+02 0.60369926E+02 0.94391143E+03 0.95188380E+03 0.80419002E+02 0.0000E+00 0.9000E+01
#aMCatNLO 1  0  0  2  1 0.58945474D+02 0.00000000D+00  -5  5  0 0.00000000D+00 0.00000000D+00 0.00000000D+00 0.00000000D+00 0.00000000D+00
  <mgrwgt>
 0.4335384739D+00    9    2    0
 0.142757003474544D+03 0.000000000000000D+00 0.000000000000000D+00 0.142757003474544D+03
 0.142757003474544D+03 0.000000000000000D+00 0.000000000000000D+00 -.142757003474544D+03
 0.158794367356419D+03 0.707264273552203D+02 -.603699259140217D+02 0.307228843507168D+02
 0.126719639592668D+03 -.707264273552203D+02 0.603699259140217D+02 -.307228843507168D+02
 0.000000000000000D+00 0.000000000000000D+00 -.000000000000000D+00 -.000000000000000D+00
 0.163392378558328D+03 0.000000000000000D+00 0.000000000000000D+00 0.163392378558328D+03
 0.195053029154270D+03 0.000000000000000D+00 0.000000000000000D+00 -.195053029154270D+03
 0.146861554066126D+03 0.395534641247038D+02 -.586083945832489D+02 0.307228843507168D+02
 0.144673721852085D+03 -.984050512076537D+02 0.619339980475623D+02 -.307228843507168D+02
 0.669101317943872D+02 0.588515870829499D+02 -.332560346431339D+01 -.316606505959428D+02
0.703064682911D-03 0.000000000000D+00 0.000000000000D+00 0.236960404250D-02 0.000000000000D+00  5 2 -1 25 24 21 0 0.43372948D+00 0.11121137D-02 0.19423000D+05 0.19423000D+05 0.19423000D+05 0.12352282D+01  1  2  2  2  5  2       -1 0.344652320413D+00 0.100000000000D+01
-.390317095615D-04 0.000000000000D+00 -.269995350356D-05 0.236960404250D-02 0.000000000000D+00  5 2 -1 25 24 21 2 0.43372948D+00 0.11121137D-02 0.19423000D+05 0.19423000D+05 0.19423000D+05 0.12352282D+01  1  2  3  2  5  2       -1 -.291942870259D-01 0.100000000000D+01
0.486648471208D-04 0.000000000000D+00 0.000000000000D+00 0.236960404250D-02 0.000000000000D+00  5 2 -1 25 24 21 2 0.43372948D+00 0.11121137D-02 0.19423000D+05 0.19423000D+05 0.19423000D+05 0.12352282D+01  1  2 15  2  5  2       -1 0.363995205662D-01 0.100000000000D+01
0.313727002092D-03 0.000000000000D+00 0.000000000000D+00 0.236960404250D-02 0.000000000000D+00  5 2 -1 25 24 21 2 0.43372948D+00 0.15766620D-02 0.29572212D+05 0.29572212D+05 0.29572212D+05 0.12155536D+01  1  2 12  2  5  2       -1 0.137313809123D+00 0.100000000000D+01
-.395969120728D-03 0.000000000000D+00 0.000000000000D+00 0.236960404250D-02 0.000000000000D+00  5 2 -1 25 24 21 2 0.43372948D+00 0.11121137D-02 0.19423000D+05 0.19423000D+05 0.19423000D+05 0.12352282D+01  1  2  4  2  5  2       -1 -.296170377721D+00 0.100000000000D+01
-.516895134971D-03 0.000000000000D+00 -.240229192258D-03 0.236960404250D-02 0.000000000000D+00  5 2 -1 25 24 21 2 0.43372948D+00 0.18461924D-02 0.19423000D+05 0.19423000D+05 0.19423000D+05 0.12352282D+01  1  2  5  2  5  2       -1 -.186836288302D+00 0.100000000000D+01
0.589205584947D-03 0.000000000000D+00 0.212361279282D-03 0.236960404250D-02 0.000000000000D+00  5 2 -1 25 24 21 2 0.43372948D+00 0.11121137D-02 0.19423000D+05 0.19423000D+05 0.19423000D+05 0.12352282D+01  1  2  6  2  5  2       -1 0.440704164830D+00 0.100000000000D+01
0.135259792715D-04 0.000000000000D+00 0.000000000000D+00 0.236960404250D-02 0.000000000000D+00  5 2 21 25 24 1 2 0.43372948D+00 0.15766620D-02 0.29572212D+05 0.29572212D+05 0.29572212D+05 0.12155536D+01  1  2 12  4  5  2       -1 0.127084088244D+00 0.100000000000D+01
-.184595211188D-04 0.000000000000D+00 -.136923501414D-04 0.236960404250D-02 0.000000000000D+00  5 2 21 25 24 1 2 0.43372948D+00 0.18461924D-02 0.19423000D+05 0.19423000D+05 0.19423000D+05 0.12352282D+01  1  2  5  4  5  2       -1 -.140414476222D+00 0.100000000000D+01
  </mgrwgt>
  </event>
  <event>
  4     66 0.48098993E-03 0.73867404E+02 0.75467711E-02 0.12402353E+00
        2 -1    0    0  501    0 0.00000000E+00 0.00000000E+00 0.31737420E+04 0.31737420E+04 0.32000000E+00 0.0000E+00 0.9000E+01
       -1 -1    0    0    0  501 0.00000000E+00 0.00000000E+00 -.73144616E+01 0.73214581E+01 0.32000000E+00 0.0000E+00 0.9000E+01
       25  1    1    2    0    0 0.31424138E+02 -.49880184E+02 0.27254976E+04 0.27289994E+04 0.12500000E+03 0.0000E+00 0.9000E+01
       24  1    1    2    0    0 -.31424138E+02 0.49880184E+02 0.44092996E+03 0.45206411E+03 0.80419002E+02 0.0000E+00 0.9000E+01
#aMCatNLO 1  0  0  2  1 0.56999186D+01 0.00000000D+00  -5  5  0 0.00000000D+00 0.00000000D+00 0.00000000D+00 0.00000000D+00 0.00000000D+00
  <mgrwgt>
 0.3550659720D+00    8    2    0
 0.152398713501452D+03 0.000000000000000D+00 0.000000000000000D+00 0.152398713501452D+03
 0.152398713501452D+03 0.000000000000000D+00 0.000000000000000D+00 -.152398713501452D+03
 0.167421451940681D+03 0.314241378128841D+02 -.498801842027459D+02 0.944956790363604D+02
 0.137375975062222D+03 -.314241378128841D+02 0.498801842027459D+02 -.944956790363604D+02
 0.000000000000000D+00 -.000000000000000D+00 0.000000000000000D+00 0.000000000000000D+00
 0.155279993819052D+03 0.000000000000000D+00 0.000000000000000D+00 0.155279993819052D+03
 0.155270651001822D+03 0.000000000000000D+00 0.000000000000000D+00 -.155270651001822D+03
 0.168511380695070D+03 0.323098768272700D+02 -.528935149770039D+02 0.944956790363604D+02
 0.136339337821674D+03 -.307024449388834D+02 0.474249470375444D+02 -.944956790363604D+02
 0.569992630413063D+01 -.160743188838665D+01 0.546856793945949D+01 0.934281722925054D-02
0.724522820584D-03 0.000000000000D+00 0.000000000000D+00 0.154816514703D-02 0.000000000000D+00  5 2 -1 25 24 21 0 0.48826854D+00 0.11258412D-02 0.14151221D+05 0.14151221D+05 0.14151221D+05 0.12507168D+01  1  2  2  2  5  2       -1 0.218254164668D+00 0.100000000000D+01
-.372480236751D-04 0.000000000000D+00 -.278235840228D-05 0.154816514703D-02 0.000000000000D+00  5 2 -1 25 24 21 2 0.48826854D+00 0.11258412D-02 0.14151221D+05 0.14151221D+05 0.14151221D+05 0.12507168D+01  1  2  3  2  5  2       -1 -.175522049026D-01 0.100000000000D+01
0.496567280407D-04 0.000000000000D+00 0.000000000000D+00 0.154816514703D-02 0.000000000000D+00  5 2 -1 25 24 21 2 0.48826854D+00 0.11258412D-02 0.14151221D+05 0.14151221D+05 0.14151221D+05 0.12507168D+01  1  2 15  2  5  2       -1 0.233994982651D-01 0.100000000000D+01
0.407675073649D-03 0.000000000000D+00 0.000000000000D+00 0.154816514703D-02 0.000000000000D+00  5 2 -1 25 24 21 2 0.48826854D+00 0.11575012D-02 0.14823426D+05 0.14823426D+05 0.14823426D+05 0.12484092D+01  1  2 12  2  5  2       -1 0.183901359654D+00 0.100000000000D+01
-.883175696343D-03 0.000000000000D+00 0.000000000000D+00 0.154816514703D-02 0.000000000000D+00  5 2 -1 25 24 21 2 0.48826854D+00 0.11258412D-02 0.14151221D+05 0.14151221D+05 0.14151221D+05 0.12507168D+01  1  2  4  2  5  2       -1 -.416174584789D+00 0.100000000000D+01
0.574411832472D-03 0.000000000000D+00 0.000000000000D+00 0.154816514703D-02 0.396275903500D-03  5 2 -1 25 24 21 2 0.49749985D+00 0.11470576D-02 0.14823426D+05 0.14823426D+05 0.14823426D+05 0.12484092D+01  1  2 11  2  5  2       -1 0.241577419210D+00 0.100000000000D+01
0.808215882725D-05 0.000000000000D+00 0.000000000000D+00 0.154816514703D-02 0.000000000000D+00  5 2 21 25 24 1 2 0.48826854D+00 0.11575012D-02 0.14823426D+05 0.14823426D+05 0.14823426D+05 0.12484092D+01  1  2 12  4  5  2       -1 0.831268968318D-01 0.100000000000D+01
0.401278976965D-05 0.000000000000D+00 0.000000000000D+00 0.154816514703D-02 0.138083328105D-05  5 2 21 25 24 1 2 0.49749985D+00 0.11470576D-02 0.14823426D+05 0.14823426D+05 0.14823426D+05 0.12484092D+01  1  2 11  4  5  2       -1 0.385334230455D-01 0.100000000000D+01
  </mgrwgt>
  </event>
  <event>
  4     66 0.48098993E-03 0.72792805E+02 0.75467711E-02 0.12507556E+00
        2 -1    0    0  501    0 0.00000000E+00 0.00000000E+00 0.29181535E+03 0.29181553E+03 0.32000000E+00 0.0000E+00 0.9000E+01
       -1 -1    0    0    0  501 0.00000000E+00 0.00000000E+00 -.36750008E+02 0.36751402E+02 0.32000000E+00 0.0000E+00 0.9000E+01
       25  1    1    2    0    0 -.55762934E+01 0.84124801E+01 0.16757243E+03 0.20930213E+03 0.12500000E+03 0.0000E+00 0.9000E+01
       24  1    1    2    0    0 0.55762934E+01 -.84124801E+01 0.87492916E+02 0.11926479E+03 0.80419002E+02 0.0000E+00 0.9000E+01
#aMCatNLO 1  0  0  1  2 0.23192491D+02 0.00000000D+00  -5  5  0 0.00000000D+00 0.00000000D+00 0.00000000D+00 0.00000000D+00 0.00000000D+00
  <mgrwgt>
 0.3279475412D+00    9    2    0
 0.103559037474690D+03 0.000000000000000D+00 0.000000000000000D+00 0.103559037474690D+03
 0.103559037474690D+03 0.000000000000000D+00 0.000000000000000D+00 -.103559037474690D+03
 0.125666678364717D+03 -.557629340393367D+01 0.841248012830103D+01 0.807769652719958D+01
 0.814513965846619D+02 0.557629340393367D+01 -.841248012830103D+01 -.807769652719958D+01
 0.000000000000000D+00 -.000000000000000D+00 -.000000000000000D+00 0.000000000000000D+00
 0.121016901394022D+03 0.000000000000000D+00 0.000000000000000D+00 0.121016901394022D+03
 0.112205551101870D+03 0.000000000000000D+00 0.000000000000000D+00 -.112205551101870D+03
 0.126209261132590D+03 0.753659161146890D+01 0.134806602705762D+02 0.807769652719958D+01
 0.822032831670988D+02 0.140963013177515D+02 -.511946452798744D+01 -.807769652719958D+01
 0.248099081962028D+02 -.216328929292204D+02 -.836119574258874D+01 0.881135029215211D+01
0.113006393289D-03 0.000000000000D+00 0.000000000000D+00 0.319674376422D-02 0.000000000000D+00  5 2 -1 25 24 21 0 0.44894790D-01 0.56539681D-02 0.10656089D+05 0.10656089D+05 0.10656089D+05 0.12651149D+01  1  2  2  1  5  1        2 0.193579576879D+00 0.100000000000D+01
-.627805486828D-05 0.000000000000D+00 -.433974305496D-06 0.319674376422D-02 0.000000000000D+00  5 2 -1 25 24 21 2 0.44894790D-01 0.56539681D-02 0.10656089D+05 0.10656089D+05 0.10656089D+05 0.12651149D+01  1  2  3  1  5  1        2 -.172124067670D-01 0.100000000000D+01
0.783550709516D-05 0.000000000000D+00 0.000000000000D+00 0.319674376422D-02 0.000000000000D+00  5 2 -1 25 24 21 2 0.44894790D-01 0.56539681D-02 0.10656089D+05 0.10656089D+05 0.10656089D+05 0.12651149D+01  1  2 15  1  5  1        2 0.214824397328D-01 0.100000000000D+01
0.138831045122D-03 0.000000000000D+00 0.000000000000D+00 0.319674376422D-02 0.000000000000D+00  5 2 -1 25 24 21 2 0.54090308D-01 0.56539681D-02 0.13334295D+05 0.13334295D+05 0.13334295D+05 0.12536929D+01  1  2 12  1  5  1        2 0.310355664810D+00 0.100000000000D+01
-.134645966858D-03 0.000000000000D+00 0.000000000000D+00 0.319674376422D-02 0.000000000000D+00  5 2 -1 25 24 21 2 0.44894790D-01 0.56539681D-02 0.10656089D+05 0.10656089D+05 0.10656089D+05 0.12651149D+01  1  2  4  1  5  1        2 -.369155924838D+00 0.100000000000D+01
-.315581251839D-03 0.000000000000D+00 -.846466096634D-04 0.319674376422D-02 0.000000000000D+00  5 2 -1 25 24 21 2 0.56227629D-01 0.56539681D-02 0.10656089D+05 0.10656089D+05 0.10656089D+05 0.12651149D+01  1  2  5  1  5  1        2 -.682990982789D+00 0.100000000000D+01
0.328380276586D-03 0.000000000000D+00 0.825466959444D-04 0.319674376422D-02 0.000000000000D+00  5 2 -1 25 24 21 2 0.44894790D-01 0.56539681D-02 0.10656089D+05 0.10656089D+05 0.10656089D+05 0.12651149D+01  1  2  6  1  5  1        2 0.900313076810D+00 0.100000000000D+01
0.376160340787D-05 0.000000000000D+00 0.000000000000D+00 0.319674376422D-02 0.000000000000D+00  5 21 -1 25 24 -2 2 0.54090308D-01 0.56539681D-02 0.13334295D+05 0.13334295D+05 0.13334295D+05 0.12536929D+01  1  2 12  3  5  1        2 0.244634208178D-01 0.100000000000D+01
-.868614928060D-05 0.000000000000D+00 -.264950053369D-05 0.319674376422D-02 0.000000000000D+00  5 21 -1 25 24 -2 2 0.56227629D-01 0.56539681D-02 0.10656089D+05 0.10656089D+05 0.10656089D+05 0.12651149D+01  1  2  5  3  5  1        2 -.528873234082D-01 0.100000000000D+01
  </mgrwgt>
  </event>
  <event>
  5     66 0.48098993E-03 0.11105929E+03 0.75467711E-02 0.11698802E+00
        4 -1    0    0  501    0 0.00000000E+00 0.00000000E+00 0.65953487E+03 0.65953669E+03 0.15500000E+01 0.0000E+00 0.9000E+01
       21 -1    0    0  502  501 0.00000000E+00 0.00000000E+00 -.50700758E+02 0.50706305E+02 0.75000000E+00 0.0000E+00 0.9000E+01
       25  1    1    2    0    0 0.66554682E+02 -.30770398E+01 0.28163687E+03 0.31525120E+03 0.12500000E+03 0.0000E+00 0.9000E+01
       24  1    1    2    0    0 0.22758131E+02 0.64607051E+02 0.11169746E+03 0.15373855E+03 0.80419002E+02 0.0000E+00 0.9000E+01
        3  1    1    2  502    0 -.89312813E+02 -.61530012E+02 0.21549978E+03 0.24125324E+03 0.50000000E+00 0.0000E+00 0.9000E+01
#aMCatNLO 2  0  0  2  2 0.10845608D+03 0.00000000D+00  -5  5  0 0.00000000D+00 0.00000000D+00 0.00000000D+00 0.00000000D+00 0.00000000D+00
  <mgrwgt>
 0.6699852228D-02    1    2    0
 0.115625227312705D+03 0.000000000000000D+00 0.000000000000000D+00 0.115625227312705D+03
 0.115625227312705D+03 0.000000000000000D+00 0.000000000000000D+00 -.115625227312705D+03
 0.135425802538522D+03 0.150654994842426D+02 -.385493295784949D+02 0.316564038946543D+02
 0.958246520868882D+02 -.150654994842426D+02 0.385493295784949D+02 -.316564038946543D+02
 0.000000000000000D+00 -.000000000000000D+00 -.000000000000000D+00 0.000000000000000D+00
 0.195354585026123D+03 0.000000000000000D+00 0.000000000000000D+00 0.195354585026123D+03
 0.171182703645165D+03 0.000000000000000D+00 0.000000000000000D+00 -.171182703645165D+03
 0.145141729918841D+03 0.665546818977802D+02 -.307703977512476D+01 0.316564038946543D+02
 0.110278499739405D+03 0.227581313808209D+02 0.646070514643346D+02 -.316564038946543D+02
 0.111117059013041D+03 -.893128132786011D+02 -.615300116892098D+02 0.241718813809579D+02
0.105030088207D-04 0.000000000000D+00 0.000000000000D+00 0.268912301507D-02 0.199473807019D-06  5 4 21 25 24 3 2 0.10146715D+00 0.78006591D-02 0.31637864D+05 0.31637864D+05 0.31637864D+05 0.12124829D+01  1  2  1  4  5  2       -3 0.669985222770D-02 0.100000000000D+01
  </mgrwgt>
  </event>
  <event>
  5     66 0.48098993E-03 0.13471984E+03 0.75467711E-02 0.11764278E+00
        2 -1    0    0  501    0 0.00000000E+00 0.00000000E+00 0.77615488E+03 0.77615494E+03 0.32000000E+00 0.0000E+00 0.9000E+01
       21 -1    0    0  502  501 0.00000000E+00 0.00000000E+00 -.43336025E+02 0.43342514E+02 0.75000000E+00 0.0000E+00 0.9000E+01
       25  1    1    2    0    0 0.74002334E+02 -.81861280E+02 0.36362232E+03 0.40002976E+03 0.12500000E+03 0.0000E+00 0.9000E+01
       24  1    1    2    0    0 -.86988944E+01 0.75044297E+02 0.12562236E+03 0.16719902E+03 0.80419002E+02 0.0000E+00 0.9000E+01
        1  1    1    2  502    0 -.65303439E+02 0.68169834E+01 0.24357417E+03 0.25226868E+03 0.32000000E+00 0.0000E+00 0.9000E+01
#aMCatNLO 2  0  0  2  2 0.65658285D+02 0.00000000D+00  -5  5  0 0.00000000D+00 0.00000000D+00 0.00000000D+00 0.00000000D+00 0.00000000D+00
  <mgrwgt>
 0.1289041058D+00    1    2    0
 0.139711409049099D+03 0.000000000000000D+00 0.000000000000000D+00 0.139711409049099D+03
 0.139711409049099D+03 0.000000000000000D+00 0.000000000000000D+00 -.139711409049099D+03
 0.156098374344130D+03 0.363230208352464D+02 -.779279610979763D+02 0.367365418812741D+02
 0.123324443754069D+03 -.363230208352464D+02 0.779279610979763D+02 -.367365418812741D+02
 0.000000000000000D+00 -.000000000000000D+00 0.000000000000000D+00 0.000000000000000D+00
 0.210874052933094D+03 0.000000000000000D+00 0.000000000000000D+00 0.210874052933094D+03
 0.159517164035531D+03 0.000000000000000D+00 0.000000000000000D+00 -.159517164035531D+03
 0.170740118409967D+03 0.740023335347246D+02 -.818612799598821D+02 0.367365418812741D+02
 0.116293192725774D+03 -.869889438320459D+01 0.750442965660861D+02 -.367365418812741D+02
 0.833579058328853D+02 -.653034391515200D+02 0.681698339379602D+01 0.513568888975627D+02
0.113689493430D-04 0.000000000000D+00 0.000000000000D+00 0.234801196572D-02 0.142190117156D-06  5 2 21 25 24 1 2 0.11940873D+00 0.66675729D-02 0.29367285D+05 0.29367285D+05 0.29367285D+05 0.12158712D+01  1  2  1  4  5  2       -1 0.128904105769D+00 0.100000000000D+01
  </mgrwgt>
  </event>
  <event>
  4     66 0.48098993E-03 0.11592551E+03 0.75467711E-02 0.12345897E+00
        2 -1    0    0  501    0 0.00000000E+00 0.00000000E+00 0.34951407E+02 0.34952872E+02 0.32000000E+00 0.0000E+00 0.9000E+01
       -1 -1    0    0    0  501 0.00000000E+00 0.00000000E+00 -.39624668E+03 0.39624681E+03 0.32000000E+00 0.0000E+00 0.9000E+01
       25  1    1    2    0    0 0.46565744E+02 -.24784691E+02 -.17389596E+03 0.22056168E+03 0.12500000E+03 0.0000E+00 0.9000E+01
       24  1    1    2    0    0 -.46565744E+02 0.24784691E+02 -.18739931E+03 0.21063800E+03 0.80419002E+02 0.0000E+00 0.9000E+01
#aMCatNLO 1  0  0  2  2 0.18026926D+02 0.00000000D+00  -5  5  0 0.00000000D+00 0.00000000D+00 0.00000000D+00 0.00000000D+00 0.00000000D+00
  <mgrwgt>
 0.7112894869D-01    4    2    0
 0.117684844482726D+03 0.000000000000000D+00 0.000000000000000D+00 0.117684844482726D+03
 0.117684844482726D+03 0.000000000000000D+00 0.000000000000000D+00 -.117684844482726D+03
 0.137138887367096D+03 0.465657437897265D+02 -.247846905679698D+02 0.199856210072261D+02
 0.982308015983555D+02 -.465657437897265D+02 0.247846905679698D+02 -.199856210072261D+02
 0.000000000000000D+00 0.000000000000000D+00 -.000000000000000D+00 0.000000000000000D+00
 0.130860430462725D+03 0.000000000000000D+00 0.000000000000000D+00 0.130860430462725D+03
 0.124361285752667D+03 0.000000000000000D+00 0.000000000000000D+00 -.124361285752667D+03
 0.133581611586466D+03 0.366406681112555D+02 -.218422376910819D+02 0.199856210072261D+02
 0.102477407638941D+03 -.539240493989086D+02 0.269661819953574D+02 -.199856210072261D+02
 0.191626969899851D+02 0.172833812876530D+02 -.512394430427552D+01 0.649914471005766D+01
0.640329039900D-03 0.000000000000D+00 0.000000000000D+00 0.275898239672D-02 0.000000000000D+00  5 2 -1 25 24 21 0 0.53772621D-02 0.60961150D-01 0.13438723D+05 0.13438723D+05 0.13438723D+05 0.12533012D+01  1  2  2  2  5  2       -1 0.278249902238D+00 0.100000000000D+01
-.355640225225D-04 0.000000000000D+00 -.245903211572D-05 0.275898239672D-02 0.000000000000D+00  5 2 -1 25 24 21 2 0.53772621D-02 0.60961150D-01 0.13438723D+05 0.13438723D+05 0.13438723D+05 0.12533012D+01  1  2  3  2  5  2       -1 -.242746843244D-01 0.100000000000D+01
0.442915157236D-04 0.000000000000D+00 0.000000000000D+00 0.275898239672D-02 0.000000000000D+00  5 2 -1 25 24 21 2 0.53772621D-02 0.60961150D-01 0.13438723D+05 0.13438723D+05 0.13438723D+05 0.12533012D+01  1  2 15  2  5  2       -1 0.302317478782D-01 0.100000000000D+01
-.312173427180D-03 0.000000000000D+00 0.000000000000D+00 0.275898239672D-02 0.000000000000D+00  5 2 -1 25 24 21 2 0.53772621D-02 0.60961150D-01 0.13438723D+05 0.13438723D+05 0.13438723D+05 0.12533012D+01  1  2  4  2  5  2       -1 -.213078017101D+00 0.100000000000D+01
  </mgrwgt>
  </event>
  <event>
  5     66 0.48098993E-03 0.14773478E+03 0.75467711E-02 0.11627175E+00
        2 -1    0    0  501    0 0.00000000E+00 0.00000000E+00 0.46299540E+03 0.46299551E+03 0.32000000E+00 0.0000E+00 0.9000E+01
       -1 -1    0    0    0  502 0.00000000E+00 0.00000000E+00 -.92264801E+02 0.92265356E+02 0.32000000E+00 0.0000E+00 0.9000E+01
       25  1    1    2    0    0 -.19722043E+02 0.11539843E+03 0.24984843E+03 0.30291087E+03 0.12500000E+03 0.0000E+00 0.9000E+01
       24  1    1    2    0    0 0.73422425E+02 -.74297524E+02 0.12874690E+03 0.18426599E+03 0.80419002E+02 0.0000E+00 0.9000E+01
       21  1    1    2  501  502 -.53700382E+02 -.41100904E+02 -.78647356E+01 0.68084006E+02 0.75000000E+00 0.0000E+00 0.9000E+01
#aMCatNLO 2  0  0  2  1 0.67624074D+02 0.00000000D+00  -5  5  0 0.00000000D+00 0.00000000D+00 0.00000000D+00 0.00000000D+00 0.00000000D+00
  <mgrwgt>
 0.6510042240D-01    2    2    0
 0.149527464564209D+03 0.000000000000000D+00 0.000000000000000D+00 0.149527464564209D+03
 0.149527464564209D+03 0.000000000000000D+00 0.000000000000000D+00 -.149527464564209D+03
 0.164838671893778D+03 -.496580119535841D+02 0.924861995747040D+02 0.229602371231285D+02
 0.134216257234640D+03 0.496580119535841D+02 -.924861995747040D+02 -.229602371231285D+02
 0.000000000000000D+00 -.000000000000000D+00 -.000000000000000D+00 -.000000000000000D+00
 0.163964618091403D+03 0.000000000000000D+00 0.000000000000000D+00 0.163964618091403D+03
 0.260530433897007D+03 0.000000000000000D+00 0.000000000000000D+00 -.260530433897007D+03
 0.172794468884401D+03 -.197220427615296D+02 0.115398427275264D+03 0.229602371231285D+02
 0.133810922388276D+03 0.734224249295494D+02 -.742975236784185D+02 -.229602371231285D+02
 0.117889660715732D+03 -.537003821680198D+02 -.411009035968458D+02 -.965658158056041D+02
-.390612271594D-03 0.000000000000D+00 0.000000000000D+00 0.236120236216D-02 0.000000000000D+00  5 2 -1 25 24 21 2 0.64957823D-01 0.14333790D-01 0.34356973D+05 0.34356973D+05 0.34356973D+05 0.12087655D+01  1  2 13  2  5  2       -1 -.166407229366D+00 0.100000000000D+01
0.591787947951D-03 0.000000000000D+00 0.000000000000D+00 0.236120236216D-02 0.467923815801D-05  5 2 -1 25 24 21 2 0.71229621D-01 0.14194538D-01 0.34356973D+05 0.34356973D+05 0.34356973D+05 0.12087655D+01  1  2  1  2  5  2       -1 0.231507651769D+00 0.100000000000D+01
  </mgrwgt>
  </event>
  <event>
  5     66 0.48098993E-03 0.12173941E+03 0.75467711E-02 0.11703724E+00
        2 -1    0    0  501    0 0.00000000E+00 0.00000000E+00 0.87042845E+03 0.87042851E+03 0.32000000E+00 0.0000E+00 0.9000E+01
       21 -1    0    0  502  501 0.00000000E+00 0.00000000E+00 -.65554935E+02 0.65559226E+02 0.75000000E+00 0.0000E+00 0.9000E+01
       25  1    1    2    0    0 0.19997181E+02 0.11666172E+03 0.62136889E+03 0.64477449E+03 0.12500000E+03 0.0000E+00 0.9000E+01
       24  1    1    2    0    0 0.89078122E+01 -.22334674E+02 0.12229813E+01 0.83945807E+02 0.80419002E+02 0.0000E+00 0.9000E+01
        1  1    1    2  502    0 -.28904994E+02 -.94327050E+02 0.18228164E+03 0.20726744E+03 0.32000000E+00 0.0000E+00 0.9000E+01
#aMCatNLO 2  0  0  2  1 0.98656429D+02 0.00000000D+00  -5  5  0 0.00000000D+00 0.00000000D+00 0.00000000D+00 0.00000000D+00 0.00000000D+00
  <mgrwgt>
 0.1240517283D+00    1    2    0
 0.182811064402305D+03 0.000000000000000D+00 0.000000000000000D+00 0.182811064402305D+03
 0.182811064402305D+03 0.000000000000000D+00 0.000000000000000D+00 -.182811064402305D+03
 0.195334628109418D+03 0.390011448473570D+01 0.641313948079219D+02 0.135656073382805D+03
 0.170287500695192D+03 -.390011448473570D+01 -.641313948079219D+02 -.135656073382805D+03
 0.000000000000000D+00 -.000000000000000D+00 -.000000000000000D+00 0.000000000000000D+00
 0.243933646210548D+03 0.000000000000000D+00 0.000000000000000D+00 0.243933646210548D+03
 0.233927518312759D+03 0.000000000000000D+00 0.000000000000000D+00 -.233927518312759D+03
 0.219174394982402D+03 0.199971814309050D+02 0.116661724250418D+03 0.135656073382805D+03
 0.159524208195285D+03 0.890781215107242D+01 -.223346744548122D+02 -.135656073382805D+03
 0.991625613456199D+02 -.289049935819775D+02 -.943270497956061D+02 0.100061278977898D+02
0.261517385745D-04 0.000000000000D+00 0.000000000000D+00 0.106932321448D-02 0.623803913425D-07  5 2 21 25 24 1 2 0.13391226D+00 0.10085698D-01 0.31460306D+05 0.31460306D+05 0.31460306D+05 0.12127379D+01  1  2  1  4  5  2       -1 0.124051728303D+00 0.100000000000D+01
  </mgrwgt>
  </event>
  <event>
  4     66 0.48098993E-03 0.43755549E+02 0.75467711E-02 0.11814867E+00
        2 -1    0    0  501    0 0.00000000E+00 0.00000000E+00 0.11702772E+04 0.11702772E+04 0.32000000E+00 0.0000E+00 0.9000E+01
       -1 -1    0    0    0  501 0.00000000E+00 0.00000000E+00 -.13792544E+02 0.13796255E+02 0.32000000E+00 0.0000E+00 0.9000E+01
       25  1    1    2    0    0 0.35083199E+02 0.58137591E+02 0.79295370E+03 0.80561242E+03 0.12500000E+03 0.0000E+00 0.9000E+01
       24  1    1    2    0    0 -.35083199E+02 -.58137591E+02 0.36353092E+03 0.37846103E+03 0.80419002E+02 0.0000E+00 0.9000E+01
#aMCatNLO 1  0  0  1  2 0.74572498D+02 0.00000000D+00  -5  5  0 0.00000000D+00 0.00000000D+00 0.00000000D+00 0.00000000D+00 0.00000000D+00
  <mgrwgt>
 0.8498427228D+00    8    2    0
 0.127056373457392D+03 0.000000000000000D+00 0.000000000000000D+00 0.127056373457392D+03
 0.127056373457392D+03 0.000000000000000D+00 0.000000000000000D+00 -.127056373457392D+03
 0.145075508972661D+03 0.350831994749003D+02 0.581375914345056D+02 0.284796924224188D+02
 0.109037237942124D+03 -.350831994749003D+02 -.581375914345056D+02 -.284796924224188D+02
 0.000000000000000D+00 0.000000000000000D+00 -.000000000000000D+00 0.000000000000000D+00
 0.242400946032896D+03 0.000000000000000D+00 0.000000000000000D+00 0.242400946032896D+03
 0.145054767944428D+03 0.000000000000000D+00 0.000000000000000D+00 -.145054767944428D+03
 0.147749890002323D+03 -.415959576842528D+01 0.733255404226001D+02 0.284796924224188D+02
 0.117079008690644D+03 -.653860133662494D+02 -.464096401322648D+02 -.284796924224188D+02
 0.122626815284357D+03 0.695456091346747D+02 -.269159002903354D+02 0.973461780884675D+02
0.259302109155D-03 0.000000000000D+00 0.000000000000D+00 0.254581466883D-02 0.000000000000D+00  5 2 -1 25 24 21 0 0.18004293D+00 0.21222187D-02 0.15314661D+05 0.15314661D+05 0.15314661D+05 0.12467960D+01  1  2  2  1  5  1        2 0.369067485416D+00 0.100000000000D+01
-.143935134301D-04 0.000000000000D+00 -.995788374967D-06 0.254581466883D-02 0.000000000000D+00  5 2 -1 25 24 21 2 0.18004293D+00 0.21222187D-02 0.15314661D+05 0.15314661D+05 0.15314661D+05 0.12467960D+01  1  2  3  1  5  1        2 -.318461804434D-01 0.100000000000D+01
0.179349715536D-04 0.000000000000D+00 0.000000000000D+00 0.254581466883D-02 0.000000000000D+00  5 2 -1 25 24 21 2 0.18004293D+00 0.21222187D-02 0.15314661D+05 0.15314661D+05 0.15314661D+05 0.12467960D+01  1  2 15  1  5  1        2 0.396817874327D-01 0.100000000000D+01
0.984525963561D-04 0.000000000000D+00 0.000000000000D+00 0.254581466883D-02 0.000000000000D+00  5 2 -1 25 24 21 2 0.34587261D+00 0.21222187D-02 0.27741220D+05 0.27741220D+05 0.27741220D+05 0.12184826D+01  1  2 12  1  5  1        2 0.574537420011D-01 0.100000000000D+01
-.234992193911D-03 0.000000000000D+00 -.820587461257D-04 0.254581466883D-02 0.000000000000D+00  5 2 -1 25 24 21 2 0.35875067D+00 0.21222187D-02 0.15314661D+05 0.15314661D+05 0.15314661D+05 0.12467960D+01  1  2  5  1  5  1        2 -.129864048062D+00 0.100000000000D+01
0.246813786713D-03 0.000000000000D+00 0.657931911087D-04 0.254581466883D-02 0.000000000000D+00  5 2 -1 25 24 21 2 0.18004293D+00 0.21222187D-02 0.15314661D+05 0.15314661D+05 0.15314661D+05 0.12467960D+01  1  2  6  1  5  1        2 0.546084625255D+00 0.100000000000D+01
0.697545147328D-05 0.000000000000D+00 0.000000000000D+00 0.254581466883D-02 0.000000000000D+00  5 21 -1 25 24 -2 2 0.34587261D+00 0.21222187D-02 0.27741220D+05 0.27741220D+05 0.27741220D+05 0.12184826D+01  1  2 12  3  5  1        2 0.107999029261D-02 0.100000000000D+01
-.126242123360D-04 0.000000000000D+00 -.612245403344D-05 0.254581466883D-02 0.000000000000D+00  5 21 -1 25 24 -2 2 0.35875067D+00 0.21222187D-02 0.15314661D+05 0.15314661D+05 0.15314661D+05 0.12467960D+01  1  2  5  3  5  1        2 -.181467912998D-02 0.100000000000D+01
  </mgrwgt>
  </event>
  <event>
  4     66 0.48098993E-03 0.11529342E+03 0.75467711E-02 0.11983839E+00
        2 -1    0    0  501    0 0.00000000E+00 0.00000000E+00 0.48999909E+02 0.49000954E+02 0.32000000E+00 0.0000E+00 0.9000E+01
       -1 -1    0    0    0  501 0.00000000E+00 0.00000000E+00 -.29593778E+03 0.29593795E+03 0.32000000E+00 0.0000E+00 0.9000E+01
       25  1    1    2    0    0 -.45930874E+02 -.23046514E+02 -.93853491E+02 0.16454259E+03 0.12500000E+03 0.0000E+00 0.9000E+01
       24  1    1    2    0    0 0.45930874E+02 0.23046514E+02 -.15308438E+03 0.18039632E+03 0.80419002E+02 0.0000E+00 0.9000E+01
#aMCatNLO 1  0  0  1  2 0.63977510D+02 0.00000000D+00  -5  5  0 0.00000000D+00 0.00000000D+00 0.00000000D+00 0.00000000D+00 0.00000000D+00
  <mgrwgt>
 0.1855984891D+00    4    2    0
 0.120420656156736D+03 0.000000000000000D+00 0.000000000000000D+00 0.120420656156736D+03
 0.120420656156736D+03 0.000000000000000D+00 0.000000000000000D+00 -.120420656156736D+03
 0.139432726714029D+03 -.459308741295725D+02 -.230465136749256D+02 0.342884570669775D+02
 0.101408585599444D+03 0.459308741295725D+02 0.230465136749256D+02 -.342884570669775D+02
 0.000000000000000D+00 -.000000000000000D+00 0.000000000000000D+00 -.000000000000000D+00
 0.150817896041064D+03 0.000000000000000D+00 0.000000000000000D+00 0.150817896041064D+03
 0.163622405462058D+03 0.000000000000000D+00 0.000000000000000D+00 -.163622405462058D+03
 0.137970154106803D+03 -.165854903496788D+02 -.442717364249671D+02 0.342884570669775D+02
 0.111223865736708D+03 0.684244433025224D+02 0.677713993899773D+01 -.342884570669775D+02
 0.652462816596097D+02 -.518389529528436D+02 0.374945964859693D+02 -.128045094209938D+02
0.685332950006D-03 0.000000000000D+00 0.000000000000D+00 0.258053077083D-02 0.000000000000D+00  5 2 -1 25 24 21 0 0.75385412D-02 0.45528983D-01 0.13292572D+05 0.13292572D+05 0.13292572D+05 0.12538503D+01  1  2  2  1  5  1        2 0.330999546690D+00 0.100000000000D+01
-.379864125403D-04 0.000000000000D+00 -.263185898033D-05 0.258053077083D-02 0.000000000000D+00  5 2 -1 25 24 21 2 0.75385412D-02 0.45528983D-01 0.13292572D+05 0.13292572D+05 0.13292572D+05 0.12538503D+01  1  2  3  1  5  1        2 -.288433340292D-01 0.100000000000D+01
0.474253012420D-04 0.000000000000D+00 0.000000000000D+00 0.258053077083D-02 0.000000000000D+00  5 2 -1 25 24 21 2 0.75385412D-02 0.45528983D-01 0.13292572D+05 0.13292572D+05 0.13292572D+05 0.12538503D+01  1  2 15  1  5  1        2 0.360103445860D-01 0.100000000000D+01
-.200930779068D-03 0.000000000000D+00 0.000000000000D+00 0.258053077083D-02 0.000000000000D+00  5 2 -1 25 24 21 2 0.75385412D-02 0.45528983D-01 0.13292572D+05 0.13292572D+05 0.13292572D+05 0.12538503D+01  1  2  4  1  5  1        2 -.152568068155D+00 0.100000000000D+01
  </mgrwgt>
  </event>
  <event>
  4     66 0.48098993E-03 0.81550517E+02 0.75467711E-02 0.12195534E+00
        2 -1    0    0  501    0 0.00000000E+00 0.00000000E+00 0.31296186E+03 0.31296202E+03 0.32000000E+00 0.0000E+00 0.9000E+01
       -1 -1    0    0    0  501 0.00000000E+00 0.00000000E+00 -.71581857E+02 0.71582572E+02 0.32000000E+00 0.0000E+00 0.9000E+01
       25  1    1    2    0    0 0.22656660E+02 0.80715391E+02 0.46257625E+02 0.15745814E+03 0.12500000E+03 0.0000E+00 0.9000E+01
       24  1    1    2    0    0 -.22656660E+02 -.80715391E+02 0.19512237E+03 0.22708645E+03 0.80419002E+02 0.0000E+00 0.9000E+01
#aMCatNLO 1  0  0  2  1 0.43054323D+01 0.00000000D+00  -5  5  0 0.00000000D+00 0.00000000D+00 0.00000000D+00 0.00000000D+00 0.00000000D+00
  <mgrwgt>
 0.7444631165D-01   11    2    0
 0.149674846481431D+03 0.000000000000000D+00 0.000000000000000D+00 0.149674846481431D+03
 0.149674846481431D+03 0.000000000000000D+00 0.000000000000000D+00 -.149674846481431D+03
 0.164970977162223D+03 0.226566595610764D+02 0.807153913741495D+02 -.675435021205587D+02
 0.134378715800640D+03 -.226566595610764D+02 -.807153913741495D+02 0.675435021205587D+02
 0.000000000000000D+00 -.000000000000000D+00 -.000000000000000D+00 -.000000000000000D+00
 0.150474213981236D+03 0.000000000000000D+00 0.000000000000000D+00 0.150474213981236D+03
 0.155602127887748D+03 0.000000000000000D+00 0.000000000000000D+00 -.155602127887748D+03
 0.166166937647824D+03 0.228045725626342D+02 0.830919849250303D+02 -.675435021205587D+02
 0.133213715408781D+03 -.225371311171135D+02 -.787948669707701D+02 0.675435021205587D+02
 0.669568881237838D+01 -.267441445520652D+00 -.429711795426016D+01 -.512791390651225D+01
0.345176746812D-03 0.000000000000D+00 0.000000000000D+00 0.196329379626D-02 0.000000000000D+00  5 2 -1 25 24 21 0 0.48148045D-01 0.11012661D-01 0.17779599D+05 0.17779599D+05 0.17779599D+05 0.12394926D+01  1  2  2  2  5  2       -1 0.205712180197D+00 0.100000000000D+01
-.188651143703D-04 0.000000000000D+00 -.132556959488D-05 0.196329379626D-02 0.000000000000D+00  5 2 -1 25 24 21 2 0.48148045D-01 0.11012661D-01 0.17779599D+05 0.17779599D+05 0.17779599D+05 0.12394926D+01  1  2  3  2  5  2       -1 -.172729209625D-01 0.100000000000D+01
0.237741910745D-04 0.000000000000D+00 0.000000000000D+00 0.196329379626D-02 0.000000000000D+00  5 2 -1 25 24 21 2 0.48148045D-01 0.11012661D-01 0.17779599D+05 0.17779599D+05 0.17779599D+05 0.12394926D+01  1  2 15  2  5  2       -1 0.217676773815D-01 0.100000000000D+01
0.257591406685D-03 0.000000000000D+00 0.000000000000D+00 0.196329379626D-02 0.000000000000D+00  5 2 -1 25 24 21 2 0.48148045D-01 0.11477492D-01 0.18352944D+05 0.18352944D+05 0.18352944D+05 0.12379564D+01  1  2 12  2  5  2       -1 0.220988828978D+00 0.100000000000D+01
-.385325393182D-02 0.000000000000D+00 0.000000000000D+00 0.196329379626D-02 0.000000000000D+00  5 2 -1 25 24 21 2 0.48148045D-01 0.11012661D-01 0.17779599D+05 0.17779599D+05 0.17779599D+05 0.12394926D+01  1  2  4  2  5  2       -1 -.352804384360D+01 0.100000000000D+01
-.910923015581D-02 0.000000000000D+00 -.960714374460D-03 0.196329379626D-02 0.000000000000D+00  5 2 -1 25 24 21 2 0.48148045D-01 0.11504649D-01 0.17779599D+05 0.17779599D+05 0.17779599D+05 0.12394926D+01  1  2  5  2  5  2       -1 -.779888521384D+01 0.100000000000D+01
0.914340146490D-02 0.000000000000D+00 0.959797533579D-03 0.196329379626D-02 0.000000000000D+00  5 2 -1 25 24 21 2 0.48148045D-01 0.11012661D-01 0.17779599D+05 0.17779599D+05 0.17779599D+05 0.12394926D+01  1  2  6  2  5  2       -1 0.837170916283D+01 0.100000000000D+01
0.359443625358D-02 0.000000000000D+00 0.000000000000D+00 0.196329379626D-02 0.866564980155D-03  5 2 -1 25 24 21 2 0.48405189D-01 0.11448774D-01 0.18352944D+05 0.18352944D+05 0.18352944D+05 0.12379564D+01  1  2 11  2  5  2       -1 0.307816991109D+01 0.100000000000D+01
0.512546898161D-05 0.000000000000D+00 0.000000000000D+00 0.196329379626D-02 0.000000000000D+00  5 2 21 25 24 1 2 0.48148045D-01 0.11477492D-01 0.18352944D+05 0.18352944D+05 0.18352944D+05 0.12379564D+01  1  2 12  4  5  2       -1 0.642844343772D-01 0.100000000000D+01
-.693386095768D-04 0.000000000000D+00 -.738154552122D-05 0.196329379626D-02 0.000000000000D+00  5 2 21 25 24 1 2 0.48148045D-01 0.11504649D-01 0.17779599D+05 0.17779599D+05 0.17779599D+05 0.12394926D+01  1  2  5  4  5  2       -1 -.867862385069D+00 0.100000000000D+01
0.258545639190D-04 0.000000000000D+00 0.000000000000D+00 0.196329379626D-02 0.593196730973D-05  5 2 21 25 24 1 2 0.48405189D-01 0.11448774D-01 0.18352944D+05 0.18352944D+05 0.18352944D+05 0.12379564D+01  1  2 11  4  5  2       -1 0.323878480258D+00 0.100000000000D+01
  </mgrwgt>
  </event>
  <event>
  4     66 0.48098993E-03 0.15407664E+03 0.75467711E-02 0.11097008E+00
        2 -1    0    0  501    0 0.00000000E+00 0.00000000E+00 0.15457735E+04 0.15457735E+04 0.32000000E+00 0.0000E+00 0.9000E+01
       -1 -1    0    0    0  501 0.00000000E+00 0.00000000E+00 -.15419102E+02 0.15422422E+02 0.32000000E+00 0.0000E+00 0.9000E+01
       25  1    1    2    0    0 0.91475142E+01 0.11327232E+03 0.88834704E+03 0.90426752E+03 0.12500000E+03 0.0000E+00 0.9000E+01
       24  1    1    2    0    0 -.91475142E+01 -.11327232E+03 0.64200733E+03 0.65692840E+03 0.80419002E+02 0.0000E+00 0.9000E+01
#aMCatNLO 1  0  0  2  1 0.16297529D+03 0.00000000D+00  -5  5  0 0.00000000D+00 0.00000000D+00 0.00000000D+00 0.00000000D+00 0.00000000D+00
  <mgrwgt>
 0.5145580714D+00    3    2    0
 0.154392538966552D+03 0.000000000000000D+00 0.000000000000000D+00 0.154392538966552D+03
 0.154392538966552D+03 0.000000000000000D+00 0.000000000000000D+00 -.154392538966552D+03
 0.169221273740473D+03 0.914751415018682D+01 0.113272321058568D+03 0.982566808034353D+01
 0.139563804192630D+03 -.914751415018682D+01 -.113272321058568D+03 -.982566808034353D+01
 0.000000000000000D+00 0.000000000000000D+00 0.000000000000000D+00 0.000000000000000D+00
 0.470135540827839D+03 0.000000000000000D+00 0.000000000000000D+00 0.470135540827839D+03
 0.197044240976147D+03 0.000000000000000D+00 0.000000000000000D+00 -.197044240976147D+03
 0.183234880024259D+03 -.780255341388963D+02 0.108468859709225D+03 0.982566808034353D+01
 0.165920055612234D+03 -.847028959412523D+02 -.117435618812762D+03 -.982566808034353D+01
 0.318024846167493D+03 0.162728430080149D+03 0.896675910353712D+01 0.273091299851692D+03
0.654462047615D-03 0.000000000000D+00 0.000000000000D+00 0.236697342176D-02 0.000000000000D+00  5 2 -1 25 24 21 0 0.23781156D+00 0.23724275D-02 0.23739610D+05 0.23739610D+05 0.23739610D+05 0.12257137D+01  1  2  2  2  5  2       -1 0.504339643772D+00 0.100000000000D+01
-.363588171906D-04 0.000000000000D+00 -.251330658666D-05 0.236697342176D-02 0.000000000000D+00  5 2 -1 25 24 21 2 0.23781156D+00 0.23724275D-02 0.23739610D+05 0.23739610D+05 0.23739610D+05 0.12257137D+01  1  2  3  2  5  2       -1 -.420946063316D-01 0.100000000000D+01
0.451848872183D-04 0.000000000000D+00 0.000000000000D+00 0.236697342176D-02 0.000000000000D+00  5 2 -1 25 24 21 2 0.23781156D+00 0.23724275D-02 0.23739610D+05 0.23739610D+05 0.23739610D+05 0.12257137D+01  1  2 15  2  5  2       -1 0.523130339919D-01 0.100000000000D+01
  </mgrwgt>
  </event>
  <event>
  4     66 0.48098993E-03 0.80679839E+02 0.75467711E-02 0.12260210E+00
        2 -1    0    0  501    0 0.00000000E+00 0.00000000E+00 0.71535431E+03 0.71535438E+03 0.32000000E+00 0.0000E+00 0.9000E+01
       -1 -1    0    0    0  501 0.00000000E+00 0.00000000E+00 -.19240822E+02 0.19243483E+02 0.32000000E+00 0.0000E+00 0.9000E+01
       25  1    1    2    0    0 0.25916527E+02 -.48693180E+02 0.42958204E+03 0.45078645E+03 0.12500000E+03 0.0000E+00 0.9000E+01
       24  1    1    2    0    0 -.25916527E+02 0.48693180E+02 0.26653145E+03 0.28381142E+03 0.80419002E+02 0.0000E+00 0.9000E+01
#aMCatNLO 1  0  0  1  2 0.26329459D+02 0.00000000D+00  -5  5  0 0.00000000D+00 0.00000000D+00 0.00000000D+00 0.00000000D+00 0.00000000D+00
  <mgrwgt>
 0.4477814709D+00    9    2    0
 0.117324374764152D+03 0.000000000000000D+00 0.000000000000000D+00 0.117324374764152D+03
 0.117324374764152D+03 0.000000000000000D+00 0.000000000000000D+00 -.117324374764152D+03
 0.136838188632836D+03 0.259165274481652D+02 -.486931801648589D+02 0.754968070692930D+01
 0.978105608954679D+02 -.259165274481652D+02 0.486931801648589D+02 -.754968070692930D+01
 0.000000000000000D+00 -.000000000000000D+00 0.000000000000000D+00 0.000000000000000D+00
 0.141137021583508D+03 0.000000000000000D+00 0.000000000000000D+00 0.141137021583508D+03
 0.125570944536169D+03 0.000000000000000D+00 0.000000000000000D+00 -.125570944536169D+03
 0.143774842701301D+03 0.305389811048759D+02 -.636912737200583D+02 0.754968070692930D+01
 0.923464736671251D+02 -.227841280881495D+02 0.385297427044187D+02 -.754968070692930D+01
 0.305866497512510D+02 -.775485301672636D+01 0.251615310156396D+02 0.155660770473385D+02
0.157738677701D-03 0.000000000000D+00 0.000000000000D+00 0.282648670260D-02 0.000000000000D+00  5 2 -1 25 24 21 0 0.11005472D+00 0.29603367D-02 0.13706382D+05 0.13706382D+05 0.13706382D+05 0.12523127D+01  1  2  2  1  5  1        2 0.264816640912D+00 0.100000000000D+01
-.876321134631D-05 0.000000000000D+00 -.605758055919D-06 0.282648670260D-02 0.000000000000D+00  5 2 -1 25 24 21 2 0.11005472D+00 0.29603367D-02 0.13706382D+05 0.13706382D+05 0.13706382D+05 0.12523127D+01  1  2  3  1  5  1        2 -.230725660514D-01 0.100000000000D+01
0.109398556105D-04 0.000000000000D+00 0.000000000000D+00 0.282648670260D-02 0.000000000000D+00  5 2 -1 25 24 21 2 0.11005472D+00 0.29603367D-02 0.13706382D+05 0.13706382D+05 0.13706382D+05 0.12523127D+01  1  2 15  1  5  1        2 0.288034296095D-01 0.100000000000D+01
0.218410968140D-03 0.000000000000D+00 0.000000000000D+00 0.282648670260D-02 0.000000000000D+00  5 2 -1 25 24 21 2 0.13567529D+00 0.29603367D-02 0.17153572D+05 0.17153572D+05 0.17153572D+05 0.12412347D+01  1  2 12  1  5  1        2 0.439633529875D+00 0.100000000000D+01
-.220312523307D-03 0.000000000000D+00 0.000000000000D+00 0.282648670260D-02 0.000000000000D+00  5 2 -1 25 24 21 2 0.11005472D+00 0.29603367D-02 0.13706382D+05 0.13706382D+05 0.13706382D+05 0.12523127D+01  1  2  4  1  5  1        2 -.580058501965D+00 0.100000000000D+01
-.442239501525D-03 0.000000000000D+00 -.108311866909D-03 0.282648670260D-02 0.000000000000D+00  5 2 -1 25 24 21 2 0.13844546D+00 0.29603367D-02 0.13706382D+05 0.13706382D+05 0.13706382D+05 0.12523127D+01  1  2  5  1  5  1        2 -.876194288799D+00 0.100000000000D+01
0.457779475188D-03 0.000000000000D+00 0.105520776429D-03 0.282648670260D-02 0.000000000000D+00  5 2 -1 25 24 21 2 0.11005472D+00 0.29603367D-02 0.13706382D+05 0.13706382D+05 0.13706382D+05 0.12523127D+01  1  2  6  1  5  1        2 0.120528271667D+01 0.100000000000D+01
0.647068260315D-05 0.000000000000D+00 0.000000000000D+00 0.282648670260D-02 0.000000000000D+00  5 21 -1 25 24 -2 2 0.13567529D+00 0.29603367D-02 0.17153572D+05 0.17153572D+05 0.17153572D+05 0.12412347D+01  1  2 12  3  5  1        2 0.131744205291D-01 0.100000000000D+01
-.124698365189D-04 0.000000000000D+00 -.343991436545D-05 0.282648670260D-02 0.000000000000D+00  5 21 -1 25 24 -2 2 0.13844546D+00 0.29603367D-02 0.13706382D+05 0.13706382D+05 0.13706382D+05 0.12523127D+01  1  2  5  3  5  1        2 -.246039098330D-01 0.100000000000D+01
  </mgrwgt>
  </event>
  <event>
  5     66 0.48098993E-03 0.11263391E+03 0.75467711E-02 0.11994080E+00
        2 -1    0    0  501    0 0.00000000E+00 0.00000000E+00 0.12949729E+03 0.12949769E+03 0.32000000E+00 0.0000E+00 0.9000E+01
       21 -1    0    0  502  501 0.00000000E+00 0.00000000E+00 -.19587423E+03 0.19587566E+03 0.75000000E+00 0.0000E+00 0.9000E+01
       25  1    1    2    0    0 0.28969076E+01 0.15269875E+02 -.17363180E+01 0.12597451E+03 0.12500000E+03 0.0000E+00 0.9000E+01
       24  1    1    2    0    0 0.52730936E+02 -.51798277E+02 -.74368195E+02 0.13214181E+03 0.80419002E+02 0.0000E+00 0.9000E+01
        1  1    1    2  502    0 -.55627843E+02 0.36528401E+02 0.97275784E+01 0.67257039E+02 0.32000000E+00 0.0000E+00 0.9000E+01
#aMCatNLO 2  0  0  2  2 0.66549088D+02 0.00000000D+00  -5  5  0 0.00000000D+00 0.00000000D+00 0.00000000D+00 0.00000000D+00 0.00000000D+00
  <mgrwgt>
 0.6785367497D-01    1    2    0
 0.118746950807984D+03 0.000000000000000D+00 0.000000000000000D+00 0.118746950807984D+03
 0.118746950807984D+03 0.000000000000000D+00 0.000000000000000D+00 -.118746950807984D+03
 0.138026991228638D+03 -.280490738736827D+02 0.355907646175274D+02 0.370539773357589D+02
 0.994669103873294D+02 0.280490738736827D+02 -.355907646175274D+02 -.370539773357589D+02
 0.000000000000000D+00 -.000000000000000D+00 0.000000000000000D+00 0.000000000000000D+00
 0.175480860637084D+03 0.000000000000000D+00 0.000000000000000D+00 0.175480860637084D+03
 0.144547757502779D+03 0.000000000000000D+00 0.000000000000000D+00 -.144547757502779D+03
 0.131299498884314D+03 0.289690762457316D+01 0.152698754771508D+02 0.370539773357589D+02
 0.115342213630870D+03 0.527309355603511D+02 -.517982768963403D+02 -.370539773357589D+02
 0.733869056246790D+02 -.556278431849243D+02 0.365284014191895D+02 0.309331031343054D+02
0.124902713986D-04 0.000000000000D+00 0.000000000000D+00 0.257200435867D-02 0.199944028264D-06  5 2 21 25 24 1 2 0.19922756D-01 0.30134569D-01 0.22761751D+05 0.22761751D+05 0.22761751D+05 0.12276891D+01  1  2  1  4  5  2       -1 0.678536749701D-01 0.100000000000D+01
  </mgrwgt>
  </event>
  <event>
  4     66 0.48098993E-03 0.60493626E+02 0.75467711E-02 0.12439994E+00
        2 -1    0    0  501    0 0.00000000E+00 0.00000000E+00 0.48801763E+03 0.48801773E+03 0.32000000E+00 0.0000E+00 0.9000E+01
       -1 -1    0    0    0  501 0.00000000E+00 0.00000000E+00 -.26570940E+02 0.26572867E+02 0.32000000E+00 0.0000E+00 0.9000E+01
       25  1    1    2    0    0 0.20355484E+02 -.29646940E+02 0.34405670E+03 0.36782237E+03 0.12500000E+03 0.0000E+00 0.9000E+01
       24  1    1    2    0    0 -.20355484E+02 0.29646940E+02 0.11738999E+03 0.14676823E+03 0.80419002E+02 0.0000E+00 0.9000E+01
#aMCatNLO 1  0  0  2  1 0.19888938D+02 0.00000000D+00  -5  5  0 0.00000000D+00 0.00000000D+00 0.00000000D+00 0.00000000D+00 0.00000000D+00
  <mgrwgt>
 0.2957402065D+00    9    2    0
 0.113875414090629D+03 0.000000000000000D+00 0.000000000000000D+00 0.113875414090629D+03
 0.113875414090629D+03 0.000000000000000D+00 0.000000000000000D+00 -.113875414090629D+03
 0.133980245582924D+03 0.203554839586576D+02 -.296469401364267D+02 0.321312841295913D+02
 0.937705825983346D+02 -.203554839586576D+02 0.296469401364267D+02 -.321312841295913D+02
 0.000000000000000D+00 -.000000000000000D+00 -.000000000000000D+00 -.000000000000000D+00
 0.116228502243934D+03 0.000000000000000D+00 0.000000000000000D+00 0.116228502243934D+03
 0.165823357547254D+03 0.000000000000000D+00 0.000000000000000D+00 -.165823357547254D+03
 0.135862626456299D+03 0.319844995726978D+02 -.278966957697756D+02 0.321312841295913D+02
 0.927549791355165D+02 -.123170701460989D+02 0.308567749977072D+02 -.321312841295913D+02
 0.534342541993719D+02 -.196674294265989D+02 -.296007922793160D+01 -.495948553033196D+02
0.150017167268D-03 0.000000000000D+00 0.000000000000D+00 0.271604614909D-02 0.000000000000D+00  5 2 -1 25 24 21 0 0.75079791D-01 0.40879932D-02 0.11898886D+05 0.11898886D+05 0.11898886D+05 0.12594550D+01  1  2  2  2  5  2       -1 0.241088809872D+00 0.100000000000D+01
-.831554631729D-05 0.000000000000D+00 -.576105422735D-06 0.271604614909D-02 0.000000000000D+00  5 2 -1 25 24 21 2 0.75079791D-01 0.40879932D-02 0.11898886D+05 0.11898886D+05 0.11898886D+05 0.12594550D+01  1  2  3  2  5  2       -1 -.211978693984D-01 0.100000000000D+01
0.103684369395D-04 0.000000000000D+00 0.000000000000D+00 0.271604614909D-02 0.000000000000D+00  5 2 -1 25 24 21 2 0.75079791D-01 0.40879932D-02 0.11898886D+05 0.11898886D+05 0.11898886D+05 0.12594550D+01  1  2 15  2  5  2       -1 0.264310682333D-01 0.100000000000D+01
0.589814059388D-03 0.000000000000D+00 0.000000000000D+00 0.271604614909D-02 0.000000000000D+00  5 2 -1 25 24 21 2 0.75079791D-01 0.59800525D-02 0.14269411D+05 0.14269411D+05 0.14269411D+05 0.12503023D+01  1  2 12  2  5  2       -1 0.852357492479D+00 0.100000000000D+01
-.567922285445D-03 0.000000000000D+00 0.000000000000D+00 0.271604614909D-02 0.000000000000D+00  5 2 -1 25 24 21 2 0.75079791D-01 0.40879932D-02 0.11898886D+05 0.11898886D+05 0.11898886D+05 0.12594550D+01  1  2  4  2  5  2       -1 -.144773920750D+01 0.100000000000D+01
-.648063988251D-03 0.000000000000D+00 -.594559719610D-04 0.271604614909D-02 0.000000000000D+00  5 2 -1 25 24 21 2 0.75079791D-01 0.60647336D-02 0.11898886D+05 0.11898886D+05 0.11898886D+05 0.12594550D+01  1  2  5  2  5  2       -1 -.924872346008D+00 0.100000000000D+01
0.626488960129D-03 0.000000000000D+00 0.551128665870D-04 0.271604614909D-02 0.000000000000D+00  5 2 -1 25 24 21 2 0.75079791D-01 0.40879932D-02 0.11898886D+05 0.11898886D+05 0.11898886D+05 0.12594550D+01  1  2  6  2  5  2       -1 0.159703652047D+01 0.100000000000D+01
0.270619055678D-04 0.000000000000D+00 0.000000000000D+00 0.271604614909D-02 0.000000000000D+00  5 2 21 25 24 1 2 0.75079791D-01 0.59800525D-02 0.14269411D+05 0.14269411D+05 0.14269411D+05 0.12503023D+01  1  2 12  4  5  2       -1 0.661985637145D+00 0.100000000000D+01
-.285416212597D-04 0.000000000000D+00 -.280118570387D-05 0.271604614909D-02 0.000000000000D+00  5 2 21 25 24 1 2 0.75079791D-01 0.60647336D-02 0.11898886D+05 0.11898886D+05 0.11898886D+05 0.12594550D+01  1  2  5  4  5  2       -1 -.689349898809D+00 0.100000000000D+01
  </mgrwgt>
  </event>
  <event>
  4     66 0.48098993E-03 0.51503336E+02 0.75467711E-02 0.11633123E+00
        2 -1    0    0  501    0 0.00000000E+00 0.00000000E+00 0.12091190E+04 0.12091191E+04 0.32000000E+00 0.0000E+00 0.9000E+01
       -1 -1    0    0    0  501 0.00000000E+00 0.00000000E+00 -.11976823E+02 0.11981097E+02 0.32000000E+00 0.0000E+00 0.9000E+01
       25  1    1    2    0    0 -.13881507E+02 0.59113320E+02 0.74705064E+03 0.75986627E+03 0.12500000E+03 0.0000E+00 0.9000E+01
       24  1    1    2    0    0 0.13881507E+02 -.59113320E+02 0.45009157E+03 0.46123391E+03 0.80419002E+02 0.0000E+00 0.9000E+01
#aMCatNLO 1  0  0  1  2 0.10699197D+03 0.00000000D+00  -5  5  0 0.00000000D+00 0.00000000D+00 0.00000000D+00 0.00000000D+00 0.00000000D+00
  <mgrwgt>
 0.3254420978D+00    7    2    0
 0.120349657833515D+03 0.000000000000000D+00 0.000000000000000D+00 0.120349657833515D+03
 0.120349657833515D+03 0.000000000000000D+00 0.000000000000000D+00 -.120349657833515D+03
 0.139372944252612D+03 -.138815070775396D+02 0.591133201297952D+02 0.106177556070183D+02
 0.101326371414417D+03 0.138815070775396D+02 -.591133201297952D+02 -.106177556070183D+02
 0.000000000000000D+00 -.000000000000000D+00 -.000000000000000D+00 0.000000000000000D+00
 0.228429154557952D+03 0.000000000000000D+00 0.000000000000000D+00 0.228429154557952D+03
 0.161290721941816D+03 0.000000000000000D+00 0.000000000000000D+00 -.161290721941816D+03
 0.174713156171598D+03 0.105293166533807D+02 0.121144887205873D+03 0.106177556070183D+02
 0.886942114630636D+02 0.286499382421278D+02 -.215845198528018D+02 -.106177556070183D+02
 0.126312508865105D+03 -.391792548955085D+02 -.995603673530717D+02 0.671384326161359D+02
0.215968651932D-03 0.000000000000D+00 0.000000000000D+00 0.275794960075D-02 0.000000000000D+00  5 2 -1 25 24 21 0 0.18601865D+00 0.18429202D-02 0.14368391D+05 0.14368391D+05 0.14368391D+05 0.12499581D+01  1  2  2  1  5  1        2 0.357673054709D+00 0.100000000000D+01
-.119980240571D-04 0.000000000000D+00 -.829376489270D-06 0.275794960075D-02 0.000000000000D+00  5 2 -1 25 24 21 2 0.18601865D+00 0.18429202D-02 0.14368391D+05 0.14368391D+05 0.14368391D+05 0.12499581D+01  1  2  3  1  5  1        2 -.310453188716D-01 0.100000000000D+01
0.149767754876D-04 0.000000000000D+00 0.000000000000D+00 0.275794960075D-02 0.000000000000D+00  5 2 -1 25 24 21 2 0.18601865D+00 0.18429202D-02 0.14368391D+05 0.14368391D+05 0.14368391D+05 0.12499581D+01  1  2 15  1  5  1        2 0.387529453572D-01 0.100000000000D+01
0.188454338139D-05 0.000000000000D+00 0.000000000000D+00 0.275794960075D-02 0.000000000000D+00  5 2 -1 25 24 21 2 0.36138069D+00 0.18429202D-02 0.34121215D+05 0.34121215D+05 0.34121215D+05 0.12090746D+01  1  2 12  1  5  1        2 0.117556165885D-02 0.100000000000D+01
-.813809048603D-04 0.000000000000D+00 -.663517389554D-04 0.275794960075D-02 0.000000000000D+00  5 2 -1 25 24 21 2 0.39714054D+00 0.18429202D-02 0.14368391D+05 0.14368391D+05 0.14368391D+05 0.12499581D+01  1  2  5  1  5  1        2 -.408666535848D-01 0.100000000000D+01
0.135668236483D-06 0.000000000000D+00 0.000000000000D+00 0.275794960075D-02 0.000000000000D+00  5 21 -1 25 24 -2 2 0.36138069D+00 0.18429202D-02 0.34121215D+05 0.34121215D+05 0.34121215D+05 0.12090746D+01  1  2 12  3  5  1        2 0.201963138827D-04 0.100000000000D+01
-.253878161407D-05 0.000000000000D+00 -.544540755612D-05 0.275794960075D-02 0.000000000000D+00  5 21 -1 25 24 -2 2 0.39714054D+00 0.18429202D-02 0.14368391D+05 0.14368391D+05 0.14368391D+05 0.12499581D+01  1  2  5  3  5  1        2 -.267687764551D-03 0.100000000000D+01
  </mgrwgt>
  </event>
  <event>
  4     66 0.48098993E-03 0.43392087E+02 0.75467711E-02 0.12581515E+00
        2 -1    0    0  501    0 0.00000000E+00 0.00000000E+00 0.86484188E+03 0.86484194E+03 0.32000000E+00 0.0000E+00 0.9000E+01
       -1 -1    0    0    0  501 0.00000000E+00 0.00000000E+00 -.12745940E+02 0.12749956E+02 0.32000000E+00 0.0000E+00 0.9000E+01
       25  1    1    2    0    0 0.83236844E+01 -.18955286E+02 0.49331823E+03 0.50932943E+03 0.12500000E+03 0.0000E+00 0.9000E+01
       24  1    1    2    0    0 -.83236844E+01 0.18955286E+02 0.35877771E+03 0.36826247E+03 0.80419002E+02 0.0000E+00 0.9000E+01
#aMCatNLO 1  0  0  1  2 0.12516957D+02 0.00000000D+00  -5  5  0 0.00000000D+00 0.00000000D+00 0.00000000D+00 0.00000000D+00 0.00000000D+00
  <mgrwgt>
 0.5912873393D+00    9    2    0
 0.105000052855023D+03 0.000000000000000D+00 0.000000000000000D+00 0.105000052855023D+03
 0.105000052855023D+03 0.000000000000000D+00 0.000000000000000D+00 -.105000052855023D+03
 0.126804289606870D+03 0.832368437759621D+01 -.189552856268858D+02 -.507358728006010D+01
 0.831958161031766D+02 -.832368437759621D+01 0.189552856268858D+02 0.507358728006010D+01
 0.000000000000000D+00 -.000000000000000D+00 0.000000000000000D+00 0.000000000000000D+00
 0.116020402735374D+03 0.000000000000000D+00 0.000000000000000D+00 0.116020402735374D+03
 0.108801741223806D+03 0.000000000000000D+00 0.000000000000000D+00 -.108801741223806D+03
 0.128141759591392D+03 0.140831814500802D+02 -.239004866798542D+02 -.507358728006010D+01
 0.822310490492668D+02 -.458651901044532D+01 0.157464925888539D+02 0.507358728006010D+01
 0.144493353185201D+02 -.949666243963483D+01 0.815399409100029D+01 0.721866151156796D+01
0.119408788757D-03 0.000000000000D+00 0.000000000000D+00 0.315691288621D-02 0.000000000000D+00  5 2 -1 25 24 21 0 0.13305291D+00 0.19612274D-02 0.10998107D+05 0.10998107D+05 0.10998107D+05 0.12634860D+01  1  2  2  1  5  1        2 0.284847712989D+00 0.100000000000D+01
-.663380956023D-05 0.000000000000D+00 -.458561189882D-06 0.315691288621D-02 0.000000000000D+00  5 2 -1 25 24 21 2 0.13305291D+00 0.19612274D-02 0.10998107D+05 0.10998107D+05 0.10998107D+05 0.12634860D+01  1  2  3  1  5  1        2 -.252627320313D-01 0.100000000000D+01
0.828446400545D-05 0.000000000000D+00 0.000000000000D+00 0.315691288621D-02 0.000000000000D+00  5 2 -1 25 24 21 2 0.13305291D+00 0.19612274D-02 0.10998107D+05 0.10998107D+05 0.10998107D+05 0.12634860D+01  1  2 15  1  5  1        2 0.315487190720D-01 0.100000000000D+01
0.300389651223D-03 0.000000000000D+00 0.000000000000D+00 0.315691288621D-02 0.000000000000D+00  5 2 -1 25 24 21 2 0.14924594D+00 0.19612274D-02 0.12391321D+05 0.12391321D+05 0.12391321D+05 0.12573941D+01  1  2 12  1  5  1        2 0.980226302991D+00 0.100000000000D+01
-.295865657787D-03 0.000000000000D+00 0.000000000000D+00 0.315691288621D-02 0.000000000000D+00  5 2 -1 25 24 21 2 0.13305291D+00 0.19612274D-02 0.10998107D+05 0.10998107D+05 0.10998107D+05 0.12634860D+01  1  2  4  1  5  1        2 -.112670928553D+01 0.100000000000D+01
-.756401895934D-03 0.000000000000D+00 -.139891591350D-03 0.315691288621D-02 0.000000000000D+00  5 2 -1 25 24 21 2 0.15032887D+00 0.19612274D-02 0.10998107D+05 0.10998107D+05 0.10998107D+05 0.12634860D+01  1  2  5  1  5  1        2 -.245636819386D+01 0.100000000000D+01
0.768779888962D-03 0.000000000000D+00 0.138855611708D-03 0.315691288621D-02 0.000000000000D+00  5 2 -1 25 24 21 2 0.13305291D+00 0.19612274D-02 0.10998107D+05 0.10998107D+05 0.10998107D+05 0.12634860D+01  1  2  6  1  5  1        2 0.292765117081D+01 0.100000000000D+01
0.549238694047D-05 0.000000000000D+00 0.000000000000D+00 0.315691288621D-02 0.000000000000D+00  5 21 -1 25 24 -2 2 0.14924594D+00 0.19612274D-02 0.12391321D+05 0.12391321D+05 0.12391321D+05 0.12573941D+01  1  2 12  3  5  1        2 0.163431173082D-01 0.100000000000D+01
-.138924833584D-04 0.000000000000D+00 -.269282023860D-05 0.315691288621D-02 0.000000000000D+00  5 21 -1 25 24 -2 2 0.15032887D+00 0.19612274D-02 0.10998107D+05 0.10998107D+05 0.10998107D+05 0.12634860D+01  1  2  5  3  5  1        2 -.409894724761D-01 0.100000000000D+01
  </mgrwgt>
  </event>
  <event>
  4     66 0.48098993E-03 0.10649582E+03 0.75467711E-02 0.11339057E+00
        2 -1    0    0  501    0 0.00000000E+00 0.00000000E+00 0.18011561E+03 0.18011590E+03 0.32000000E+00 0.0000E+00 0.9000E+01
       -1 -1    0    0    0  501 0.00000000E+00 0.00000000E+00 -.21746905E+03 0.21746928E+03 0.32000000E+00 0.0000E+00 0.9000E+01
       25  1    1    2    0    0 -.75793474E+02 -.12742436E+03 0.59803326E+02 0.20293609E+03 0.12500000E+03 0.0000E+00 0.9000E+01
       24  1    1    2    0    0 0.75793474E+02 0.12742436E+03 -.97156764E+02 0.19464909E+03 0.80419002E+02 0.0000E+00 0.9000E+01
#aMCatNLO 1  0  0  2  1 0.70431798D+02 0.00000000D+00  -5  5  0 0.00000000D+00 0.00000000D+00 0.00000000D+00 0.00000000D+00 0.00000000D+00
  <mgrwgt>
 0.2702353544D+00    9    2    0
 0.197913299284033D+03 0.000000000000000D+00 0.000000000000000D+00 0.197913299284033D+03
 0.197913299284033D+03 0.000000000000000D+00 0.000000000000000D+00 -.197913299284033D+03
 0.209481223317888D+03 -.757934743154024D+02 -.127424355623636D+03 0.792197309251968D+02
 0.186345375250178D+03 0.757934743154024D+02 0.127424355623636D+03 -.792197309251968D+02
 0.000000000000000D+00 0.000000000000000D+00 -.000000000000000D+00 -.000000000000000D+00
 0.208991575151289D+03 0.000000000000000D+00 0.000000000000000D+00 0.208991575151289D+03
 0.356633191721745D+03 0.000000000000000D+00 0.000000000000000D+00 -.356633191721745D+03
 0.201891143162383D+03 -.965689890826004D+02 -.976406588830596D+02 0.792197309251968D+02
 0.200152802512907D+03 0.562741792584333D+02 0.155407140699291D+03 -.792197309251968D+02
 0.163580821197744D+03 0.402948098241671D+02 -.577664818162312D+02 -.147641616570456D+03
0.150463752502D-02 0.000000000000D+00 0.000000000000D+00 0.183945559718D-02 0.000000000000D+00  5 2 -1 25 24 21 0 0.27710134D-01 0.33456817D-01 0.32868253D+05 0.32868253D+05 0.32868253D+05 0.12107583D+01  1  2  2  2  5  2       -1 0.274498896851D+00 0.100000000000D+01
-.828093130692D-04 0.000000000000D+00 -.577820427624D-05 0.183945559718D-02 0.000000000000D+00  5 2 -1 25 24 21 2 0.27710134D-01 0.33456817D-01 0.32868253D+05 0.32868253D+05 0.32868253D+05 0.12107583D+01  1  2  3  2  5  2       -1 -.221463838930D-01 0.100000000000D+01
0.103557434756D-03 0.000000000000D+00 0.000000000000D+00 0.183945559718D-02 0.000000000000D+00  5 2 -1 25 24 21 2 0.27710134D-01 0.33456817D-01 0.32868253D+05 0.32868253D+05 0.32868253D+05 0.12107583D+01  1  2 15  2  5  2       -1 0.276952267815D-01 0.100000000000D+01
0.231002361425D-02 0.000000000000D+00 0.000000000000D+00 0.183945559718D-02 0.000000000000D+00  5 2 -1 25 24 21 2 0.27710134D-01 0.60545744D-01 0.48386623D+05 0.48386623D+05 0.48386623D+05 0.11936951D+01  1  2 12  2  5  2       -1 0.205673223909D+00 0.100000000000D+01
-.248585676649D-02 0.000000000000D+00 0.000000000000D+00 0.183945559718D-02 0.000000000000D+00  5 2 -1 25 24 21 2 0.27710134D-01 0.33456817D-01 0.32868253D+05 0.32868253D+05 0.32868253D+05 0.12107583D+01  1  2  4  2  5  2       -1 -.664813367158D+00 0.100000000000D+01
-.276018142909D-02 0.000000000000D+00 -.452603056925D-03 0.183945559718D-02 0.000000000000D+00  5 2 -1 25 24 21 2 0.27710134D-01 0.62402793D-01 0.32868253D+05 0.32868253D+05 0.32868253D+05 0.12107583D+01  1  2  5  2  5  2       -1 -.238507323754D+00 0.100000000000D+01
0.259687001709D-02 0.000000000000D+00 0.376962326542D-03 0.183945559718D-02 0.000000000000D+00  5 2 -1 25 24 21 2 0.27710134D-01 0.33456817D-01 0.32868253D+05 0.32868253D+05 0.32868253D+05 0.12107583D+01  1  2  6  2  5  2       -1 0.694502564833D+00 0.100000000000D+01
0.150098251661D-03 0.000000000000D+00 0.000000000000D+00 0.183945559718D-02 0.000000000000D+00  5 2 21 25 24 1 2 0.27710134D-01 0.60545744D-01 0.48386623D+05 0.48386623D+05 0.48386623D+05 0.11936951D+01  1  2 12  4  5  2       -1 0.127113664843D+00 0.100000000000D+01
-.162158342729D-03 0.000000000000D+00 -.307352110215D-04 0.183945559718D-02 0.000000000000D+00  5 2 21 25 24 1 2 0.27710134D-01 0.62402793D-01 0.32868253D+05 0.32868253D+05 0.32868253D+05 0.12107583D+01  1  2  5  4  5  2       -1 -.133781148049D+00 0.100000000000D+01
  </mgrwgt>
  </event>
  <event>
  4     66 0.48098993E-03 0.10244960E+03 0.75467711E-02 0.10884927E+00
        2 -1    0    0  501    0 0.00000000E+00 0.00000000E+00 0.27538473E+04 0.27538474E+04 0.32000000E+00 0.0000E+00 0.9000E+01
       -1 -1    0    0    0  501 0.00000000E+00 0.00000000E+00 -.24382569E+02 0.24384669E+02 0.32000000E+00 0.0000E+00 0.9000E+01
       25  1    1    2    0    0 0.18709816E+03 -.13281790E+03 0.10925642E+04 0.11233735E+04 0.12500000E+03 0.0000E+00 0.9000E+01
       24  1    1    2    0    0 -.18709816E+03 0.13281790E+03 0.16369005E+04 0.16548586E+04 0.80419002E+02 0.0000E+00 0.9000E+01
#aMCatNLO 1  0  0  1  2 0.77015956D+02 0.00000000D+00  -5  5  0 0.00000000D+00 0.00000000D+00 0.00000000D+00 0.00000000D+00 0.00000000D+00
  <mgrwgt>
 0.5642592512D+00    9    2    0
 0.259130885899050D+03 0.000000000000000D+00 0.000000000000000D+00 0.259130885899050D+03
 0.259130885899050D+03 0.000000000000000D+00 0.000000000000000D+00 -.259130885899050D+03
 0.267965980964867D+03 0.187098155967528D+03 -.132817895565991D+03 -.594512708479421D+02
 0.250295790833233D+03 -.187098155967528D+03 0.132817895565991D+03 0.594512708479421D+02
 0.000000000000000D+00 0.000000000000000D+00 -.000000000000000D+00 0.000000000000000D+00
 0.359732249492242D+03 0.000000000000000D+00 0.000000000000000D+00 0.359732249492242D+03
 0.277145562376467D+03 0.000000000000000D+00 0.000000000000000D+00 -.277145562376467D+03
 0.237237096707081D+03 0.153632723610481D+03 -.116271117155529D+03 -.594512708479421D+02
 0.286715879854460D+03 -.222670638667273D+03 0.150406492135212D+03 0.594512708479421D+02
 0.112924835307169D+03 0.690379150567921D+02 -.341353749796828D+02 0.825866871157742D+02
0.422824925280D-02 0.000000000000D+00 0.000000000000D+00 0.194495061301D-02 0.000000000000D+00  5 2 -1 25 24 21 0 0.42366899D+00 0.37513274D-02 0.63610020D+05 0.63610020D+05 0.63610020D+05 0.11820637D+01  1  2  2  1  5  1        2 0.378157042200D+00 0.100000000000D+01
-.234693445183D-03 0.000000000000D+00 -.162375904544D-04 0.194495061301D-02 0.000000000000D+00  5 2 -1 25 24 21 2 0.42366899D+00 0.37513274D-02 0.63610020D+05 0.63610020D+05 0.63610020D+05 0.11820637D+01  1  2  3  1  5  1        2 -.293288050559D-01 0.100000000000D+01
0.290047555794D-03 0.000000000000D+00 0.000000000000D+00 0.194495061301D-02 0.000000000000D+00  5 2 -1 25 24 21 2 0.42366899D+00 0.37513274D-02 0.63610020D+05 0.63610020D+05 0.63610020D+05 0.11820637D+01  1  2 15  1  5  1        2 0.362462113682D-01 0.100000000000D+01
0.399417436861D-02 0.000000000000D+00 0.000000000000D+00 0.194495061301D-02 0.000000000000D+00  5 2 -1 25 24 21 2 0.59849312D+00 0.37513274D-02 0.86191434D+05 0.86191434D+05 0.86191434D+05 0.11695470D+01  1  2 12  1  5  1        2 0.903078663754D-01 0.100000000000D+01
-.427061254573D-02 0.000000000000D+00 0.000000000000D+00 0.194495061301D-02 0.000000000000D+00  5 2 -1 25 24 21 2 0.42366899D+00 0.37513274D-02 0.63610020D+05 0.63610020D+05 0.63610020D+05 0.11820637D+01  1  2  4  1  5  1        2 -.533683259562D+00 0.100000000000D+01
-.594533409815D-02 0.000000000000D+00 -.137594763436D-02 0.194495061301D-02 0.000000000000D+00  5 2 -1 25 24 21 2 0.59591268D+00 0.37513274D-02 0.63610020D+05 0.63610020D+05 0.63610020D+05 0.11820637D+01  1  2  5  1  5  1        2 -.143522398523D+00 0.100000000000D+01
0.613086402211D-02 0.000000000000D+00 0.129958978835D-02 0.194495061301D-02 0.000000000000D+00  5 2 -1 25 24 21 2 0.42366899D+00 0.37513274D-02 0.63610020D+05 0.63610020D+05 0.63610020D+05 0.11820637D+01  1  2  6  1  5  1        2 0.766152269777D+00 0.100000000000D+01
0.170926766972D-03 0.000000000000D+00 0.000000000000D+00 0.194495061301D-02 0.000000000000D+00  5 21 -1 25 24 -2 2 0.59849312D+00 0.37513274D-02 0.86191434D+05 0.86191434D+05 0.86191434D+05 0.11695470D+01  1  2 12  3  5  1        2 0.173351244180D-03 0.100000000000D+01
-.214649405098D-03 0.000000000000D+00 -.583504831711D-04 0.194495061301D-02 0.000000000000D+00  5 21 -1 25 24 -2 2 0.59591268D+00 0.37513274D-02 0.63610020D+05 0.63610020D+05 0.63610020D+05 0.11820637D+01  1  2  5  3  5  1        2 -.243026601678D-03 0.100000000000D+01
  </mgrwgt>
  </event>
  <event>
  4     66 0.48098993E-03 0.13432179E+03 0.75467711E-02 0.10698055E+00
        2 -1    0    0  501    0 0.00000000E+00 0.00000000E+00 0.86536868E+03 0.86536874E+03 0.32000000E+00 0.0000E+00 0.9000E+01
       -1 -1    0    0    0  501 0.00000000E+00 0.00000000E+00 -.32937873E+02 0.32939427E+02 0.32000000E+00 0.0000E+00 0.9000E+01
       25  1    1    2    0    0 -.76666245E+02 -.37537135E+02 0.17892605E+03 0.23436357E+03 0.12500000E+03 0.0000E+00 0.9000E+01
       24  1    1    2    0    0 0.76666245E+02 0.37537135E+02 0.65350476E+03 0.66394460E+03 0.80419002E+02 0.0000E+00 0.9000E+01
#aMCatNLO 1  0  0  1  2 0.27899024D+03 0.00000000D+00  -5  5  0 0.00000000D+00 0.00000000D+00 0.00000000D+00 0.00000000D+00 0.00000000D+00
  <mgrwgt>
 0.4270044299D+00    3    2    0
 0.168831657028689D+03 0.000000000000000D+00 0.000000000000000D+00 0.168831657028689D+03
 0.168831657028689D+03 0.000000000000000D+00 0.000000000000000D+00 -.168831657028689D+03
 0.182392182653444D+03 -.766662448016910D+02 -.375371347007907D+02 -.101760300311807D+03
 0.155271131403934D+03 0.766662448016910D+02 0.375371347007907D+02 0.101760300311807D+03
 0.000000000000000D+00 0.000000000000000D+00 -.000000000000000D+00 -.000000000000000D+00
 0.329252799491543D+03 0.000000000000000D+00 0.000000000000000D+00 0.329252799491543D+03
 0.395505354331022D+03 0.000000000000000D+00 0.000000000000000D+00 -.395505354331022D+03
 0.242393392363317D+03 -.154905281151532D+03 0.936949935333397D+02 -.101760300311807D+03
 0.195615818585956D+03 0.120382102130386D+02 0.145939217834003D+03 0.101760300311807D+03
 0.286748942873292D+03 0.142867070938493D+03 -.239634211367342D+03 -.662525548394785D+02
0.683451429254D-03 0.000000000000D+00 0.000000000000D+00 0.151223451713D-02 0.000000000000D+00  5 2 -1 25 24 21 0 0.13313377D+00 0.50674892D-02 0.18042343D+05 0.18042343D+05 0.18042343D+05 0.12387818D+01  1  2  2  1  5  1        2 0.416577577459D+00 0.100000000000D+01
-.355556676873D-04 0.000000000000D+00 -.262463344523D-05 0.151223451713D-02 0.000000000000D+00  5 2 -1 25 24 21 2 0.13313377D+00 0.50674892D-02 0.18042343D+05 0.18042343D+05 0.18042343D+05 0.12387818D+01  1  2  3  1  5  1        2 -.332572792783D-01 0.100000000000D+01
0.467031129011D-04 0.000000000000D+00 0.000000000000D+00 0.151223451713D-02 0.000000000000D+00  5 2 -1 25 24 21 2 0.13313377D+00 0.50674892D-02 0.18042343D+05 0.18042343D+05 0.18042343D+05 0.12387818D+01  1  2 15  1  5  1        2 0.436841316713D-01 0.100000000000D+01
  </mgrwgt>
  </event>
  <event>
  4     66 0.48098993E-03 0.14038254E+03 0.75467711E-02 0.11548374E+00
        2 -1    0    0  501    0 0.00000000E+00 0.00000000E+00 0.56017024E+02 0.56017938E+02 0.32000000E+00 0.0000E+00 0.9000E+01
       -1 -1    0    0    0  501 0.00000000E+00 0.00000000E+00 -.36461937E+03 0.36461951E+03 0.32000000E+00 0.0000E+00 0.9000E+01
       25  1    1    2    0    0 0.81209658E+02 -.48291956E+02 -.13242546E+03 0.20515512E+03 0.12500000E+03 0.0000E+00 0.9000E+01
       24  1    1    2    0    0 -.81209658E+02 0.48291956E+02 -.17617689E+03 0.21548233E+03 0.80419002E+02 0.0000E+00 0.9000E+01
#aMCatNLO 1  0  0  2  2 0.92778212D+02 0.00000000D+00  -5  5  0 0.00000000D+00 0.00000000D+00 0.00000000D+00 0.00000000D+00 0.00000000D+00
  <mgrwgt>
 0.1865565319D+00    4    2    0
 0.142916456850377D+03 0.000000000000000D+00 0.000000000000000D+00 0.142916456850377D+03
 0.142916456850377D+03 0.000000000000000D+00 0.000000000000000D+00 -.142916456850377D+03
 0.158935927678738D+03 0.812096581287932D+02 -.482919557780949D+02 0.266178049589393D+02
 0.126896986022016D+03 -.812096581287932D+02 0.482919557780949D+02 -.266178049589393D+02
 0.000000000000000D+00 -.000000000000000D+00 0.000000000000000D+00 0.000000000000000D+00
 0.197536898702815D+03 0.000000000000000D+00 0.000000000000000D+00 0.197536898702815D+03
 0.195771422594198D+03 0.000000000000000D+00 0.000000000000000D+00 -.195771422594198D+03
 0.190803896371189D+03 0.100029138827980D+03 -.100333397804160D+03 0.266178049589393D+02
 0.109709416531406D+03 -.684778806188849D+02 0.130848174005049D+02 -.266178049589393D+02
 0.927950083944185D+02 -.315512582090951D+02 0.872485804036554D+02 0.176547610861715D+01
0.103009456176D-02 0.000000000000D+00 0.000000000000D+00 0.239411459972D-02 0.000000000000D+00  5 2 -1 25 24 21 0 0.86180849D-02 0.56095368D-01 0.19707258D+05 0.19707258D+05 0.19707258D+05 0.12345317D+01  1  2  2  2  5  2       -1 0.290654888381D+00 0.100000000000D+01
-.572052085929D-04 0.000000000000D+00 -.395583434729D-05 0.239411459972D-02 0.000000000000D+00  5 2 -1 25 24 21 2 0.86180849D-02 0.56095368D-01 0.19707258D+05 0.19707258D+05 0.19707258D+05 0.12345317D+01  1  2  3  2  5  2       -1 -.246003100938D-01 0.100000000000D+01
0.711720290704D-04 0.000000000000D+00 0.000000000000D+00 0.239411459972D-02 0.000000000000D+00  5 2 -1 25 24 21 2 0.86180849D-02 0.56095368D-01 0.19707258D+05 0.19707258D+05 0.19707258D+05 0.12345317D+01  1  2 15  2  5  2       -1 0.306065483930D-01 0.100000000000D+01
-.256035647093D-03 0.000000000000D+00 0.000000000000D+00 0.239411459972D-02 0.000000000000D+00  5 2 -1 25 24 21 2 0.86180849D-02 0.56095368D-01 0.19707258D+05 0.19707258D+05 0.19707258D+05 0.12345317D+01  1  2  4  2  5  2       -1 -.110104594817D+00 0.100000000000D+01
  </mgrwgt>
  </event>
  <event>
  4     66 0.48098993E-03 0.10296951E+03 0.75467711E-02 0.12198267E+00
        2 -1    0    0  501    0 0.00000000E+00 0.00000000E+00 0.12206650E+03 0.12206692E+03 0.32000000E+00 0.0000E+00 0.9000E+01
       -1 -1    0    0    0  501 0.00000000E+00 0.00000000E+00 -.10243964E+03 0.10244014E+03 0.32000000E+00 0.0000E+00 0.9000E+01
       25  1    1    2    0    0 -.27142430E+01 0.66033962E+01 -.31293367E+02 0.12905521E+03 0.12500000E+03 0.0000E+00 0.9000E+01
       24  1    1    2    0    0 0.27142430E+01 -.66033962E+01 0.50920225E+02 0.95451858E+02 0.80419002E+02 0.0000E+00 0.9000E+01
#aMCatNLO 1  0  0  2  2 0.56876828D+02 0.00000000D+00  -5  5  0 0.00000000D+00 0.00000000D+00 0.00000000D+00 0.00000000D+00 0.00000000D+00
  <mgrwgt>
 0.3061357299D+00    7    2    0
 0.111823755775069D+03 0.000000000000000D+00 0.000000000000000D+00 0.111823755775069D+03
 0.111823755775069D+03 0.000000000000000D+00 0.000000000000000D+00 -.111823755775069D+03
 0.132297455621214D+03 -.271424303964228D+01 0.660339622154583D+01 -.427392653997486D+02
 0.913500559289246D+02 0.271424303964228D+01 -.660339622154583D+01 0.427392653997486D+02
 0.000000000000000D+00 -.000000000000000D+00 -.000000000000000D+00 -.000000000000000D+00
 0.141713736785258D+03 0.000000000000000D+00 0.000000000000000D+00 0.141713736785258D+03
 0.146098357269516D+03 0.000000000000000D+00 0.000000000000000D+00 -.146098357269516D+03
 0.136160337651584D+03 0.302377766020963D+02 0.131783765557450D+02 -.427392653997486D+02
 0.946061741696538D+02 0.255395567398309D+02 -.204901714759756D+01 0.427392653997486D+02
 0.570455822335364D+02 -.557773333419272D+02 -.111293594081474D+02 -.438462048425842D+01
0.322072561427D-03 0.000000000000D+00 0.000000000000D+00 0.259801885595D-02 0.000000000000D+00  5 2 -1 25 24 21 0 0.18779533D-01 0.15760016D-01 0.10602720D+05 0.10602720D+05 0.10602720D+05 0.12653744D+01  1  2  2  2  5  2       -1 0.300156349552D+00 0.100000000000D+01
-.177448807753D-04 0.000000000000D+00 -.123684343953D-05 0.259801885595D-02 0.000000000000D+00  5 2 -1 25 24 21 2 0.18779533D-01 0.15760016D-01 0.10602720D+05 0.10602720D+05 0.10602720D+05 0.12653744D+01  1  2  3  2  5  2       -1 -.264792087130D-01 0.100000000000D+01
0.221259864658D-04 0.000000000000D+00 0.000000000000D+00 0.259801885595D-02 0.000000000000D+00  5 2 -1 25 24 21 2 0.18779533D-01 0.15760016D-01 0.10602720D+05 0.10602720D+05 0.10602720D+05 0.12653744D+01  1  2 15  2  5  2       -1 0.330167681051D-01 0.100000000000D+01
-.107189344276D-03 0.000000000000D+00 0.000000000000D+00 0.259801885595D-02 0.000000000000D+00  5 2 -1 25 24 21 2 0.18779533D-01 0.15760016D-01 0.10602720D+05 0.10602720D+05 0.10602720D+05 0.12653744D+01  1  2  4  2  5  2       -1 -.159949737327D+00 0.100000000000D+01
-.163389061517D-03 0.000000000000D+00 -.109928680102D-03 0.259801885595D-02 0.000000000000D+00  5 2 -1 25 24 21 2 0.18779533D-01 0.25832546D-01 0.10602720D+05 0.10602720D+05 0.10602720D+05 0.12653744D+01  1  2  5  2  5  2       -1 -.110771432473D+00 0.100000000000D+01
0.204419954659D-03 0.000000000000D+00 0.977490078002D-04 0.259801885595D-02 0.000000000000D+00  5 2 -1 25 24 21 2 0.18779533D-01 0.15760016D-01 0.10602720D+05 0.10602720D+05 0.10602720D+05 0.12653744D+01  1  2  6  2  5  2       -1 0.305038884909D+00 0.100000000000D+01
-.423455587815D-05 0.000000000000D+00 -.614077349896D-05 0.259801885595D-02 0.000000000000D+00  5 2 21 25 24 1 2 0.18779533D-01 0.25832546D-01 0.10602720D+05 0.10602720D+05 0.10602720D+05 0.12653744D+01  1  2  5  4  5  2       -1 -.348758941837D-01 0.100000000000D+01
  </mgrwgt>
  </event>
  <event>
  4     66 0.48098993E-03 0.32895821E+03 0.75467711E-02 0.10099637E+00
        2 -1    0    0  501    0 0.00000000E+00 0.00000000E+00 0.31978796E+04 0.31978796E+04 0.32000000E+00 0.0000E+00 0.9000E+01
       -1 -1    0    0    0  501 0.00000000E+00 0.00000000E+00 -.33879840E+02 0.33881351E+02 0.32000000E+00 0.0000E+00 0.9000E+01
       25  1    1    2    0    0 0.70411464E+01 0.31171502E+03 0.15589101E+04 0.15946917E+04 0.12500000E+03 0.0000E+00 0.9000E+01
       24  1    1    2    0    0 -.70411464E+01 -.31171502E+03 0.16050896E+04 0.16370693E+04 0.80419002E+02 0.0000E+00 0.9000E+01
#aMCatNLO 1  0  0  2  2 0.30475353D+03 0.00000000D+00  -5  5  0 0.00000000D+00 0.00000000D+00 0.00000000D+00 0.00000000D+00 0.00000000D+00
  <mgrwgt>
 0.6264866878D+00    3    2    0
 0.329159709756622D+03 0.000000000000000D+00 0.000000000000000D+00 0.329159709756622D+03
 0.329159709756622D+03 0.000000000000000D+00 0.000000000000000D+00 -.329159709756622D+03
 0.336115135780968D+03 0.704114636656944D+01 0.311715024530674D+03 -.115130465448659D+02
 0.322204283732276D+03 -.704114636656944D+01 -.311715024530674D+03 0.115130465448659D+02
 0.000000000000000D+00 -.000000000000000D+00 0.000000000000000D+00 0.000000000000000D+00
 0.607749459713589D+03 0.000000000000000D+00 0.000000000000000D+00 0.607749459713589D+03
 0.457476801203120D+03 0.000000000000000D+00 0.000000000000000D+00 -.457476801203120D+03
 0.243515500749007D+03 0.653695924273241D+02 0.198164238070800D+03 -.115130465448659D+02
 0.481921727877432D+03 0.738783526009443D+02 -.469244898344377D+03 0.115130465448659D+02
 0.339789032290270D+03 -.139247945028268D+03 0.271080660273577D+03 0.150272658510470D+03
0.210112216431D-01 0.000000000000D+00 0.000000000000D+00 0.198715830785D-02 0.000000000000D+00  5 2 -1 25 24 21 0 0.49198159D+00 0.52124005D-02 0.10821351D+06 0.10821351D+06 0.10821351D+06 0.11604356D+01  1  2  2  2  5  2       -1 0.615449067799D+00 0.100000000000D+01
-.116728955911D-02 0.000000000000D+00 -.806886234911D-04 0.198715830785D-02 0.000000000000D+00  5 2 -1 25 24 21 2 0.49198159D+00 0.52124005D-02 0.10821351D+06 0.10821351D+06 0.10821351D+06 0.11604356D+01  1  2  3  2  5  2       -1 -.460427732236D-01 0.100000000000D+01
0.144711845850D-02 0.000000000000D+00 0.000000000000D+00 0.198715830785D-02 0.000000000000D+00  5 2 -1 25 24 21 2 0.49198159D+00 0.52124005D-02 0.10821351D+06 0.10821351D+06 0.10821351D+06 0.11604356D+01  1  2 15  2  5  2       -1 0.570803932002D-01 0.100000000000D+01
  </mgrwgt>
  </event>
  <event>
  4     66 0.48098993E-03 0.12316133E+03 0.75467711E-02 0.12369313E+00
        2 -1    0    0  501    0 0.00000000E+00 0.00000000E+00 0.26069697E+02 0.26071661E+02 0.32000000E+00 0.0000E+00 0.9000E+01
       -1 -1    0    0    0  501 0.00000000E+00 0.00000000E+00 -.71056245E+03 0.71056252E+03 0.32000000E+00 0.0000E+00 0.9000E+01
       25  1    1    2    0    0 0.52940010E+02 -.40810681E+02 -.22924139E+03 0.26952694E+03 0.12500000E+03 0.0000E+00 0.9000E+01
       24  1    1    2    0    0 -.52940010E+02 0.40810681E+02 -.45525136E+03 0.46710724E+03 0.80419002E+02 0.0000E+00 0.9000E+01
#aMCatNLO 1  0  0  2  2 0.13157607D+01 0.00000000D+00  -5  5  0 0.00000000D+00 0.00000000D+00 0.00000000D+00 0.00000000D+00 0.00000000D+00
  <mgrwgt>
 0.3213525105D+00    6    2    0
 0.136106198714384D+03 0.000000000000000D+00 0.000000000000000D+00 0.136106198714384D+03
 0.136106198714384D+03 0.000000000000000D+00 0.000000000000000D+00 -.136106198714384D+03
 0.152927225479019D+03 0.529400101299849D+02 -.408106811101585D+02 0.573897197019879D+02
 0.119285171949749D+03 -.529400101299849D+02 0.408106811101585D+02 -.573897197019879D+02
 0.000000000000000D+00 -.000000000000000D+00 -.000000000000000D+00 0.000000000000000D+00
 0.137805609467305D+03 0.000000000000000D+00 0.000000000000000D+00 0.137805609467305D+03
 0.136362707518139D+03 0.000000000000000D+00 0.000000000000000D+00 -.136362707518139D+03
 0.153088794871067D+03 0.536221303030367D+02 -.405248853097326D+02 0.573897197019879D+02
 0.119126782456999D+03 -.524085817315256D+02 0.410333398299956D+02 -.573897197019879D+02
 0.195273965737870D+01 -.121354857151111D+01 -.508454520263043D+00 0.144290194916595D+01
0.148241680468D-02 0.000000000000D+00 0.000000000000D+00 0.213884274127D-02 0.000000000000D+00  5 2 -1 25 24 21 0 0.40108792D-02 0.10931746D+00 0.15168713D+05 0.15168713D+05 0.15168713D+05 0.12472692D+01  1  2  2  2  5  2       -1 0.284298302625D+00 0.100000000000D+01
-.813563490458D-04 0.000000000000D+00 -.569287085930D-05 0.213884274127D-02 0.000000000000D+00  5 2 -1 25 24 21 2 0.40108792D-02 0.10931746D+00 0.15168713D+05 0.15168713D+05 0.15168713D+05 0.12472692D+01  1  2  3  2  5  2       -1 -.242725694876D-01 0.100000000000D+01
0.102251316841D-03 0.000000000000D+00 0.000000000000D+00 0.213884274127D-02 0.000000000000D+00  5 2 -1 25 24 21 2 0.40108792D-02 0.10931746D+00 0.15168713D+05 0.15168713D+05 0.15168713D+05 0.12472692D+01  1  2 15  2  5  2       -1 0.305065581522D-01 0.100000000000D+01
-.305821278463D-02 0.000000000000D+00 0.000000000000D+00 0.213884274127D-02 0.000000000000D+00  5 2 -1 25 24 21 2 0.40108792D-02 0.10931746D+00 0.15168713D+05 0.15168713D+05 0.15168713D+05 0.12472692D+01  1  2  4  2  5  2       -1 -.912414128625D+00 0.100000000000D+01
0.305849027516D-02 0.000000000000D+00 0.000000000000D+00 0.213884274127D-02 0.102428199922D-01  5 2 -1 25 24 21 2 0.40609587D-02 0.10952348D+00 0.15330403D+05 0.15330403D+05 0.15330403D+05 0.12467453D+01  1  2 11  2  5  2       -1 0.893323525268D+00 0.100000000000D+01
0.194371970735D-04 0.000000000000D+00 0.000000000000D+00 0.213884274127D-02 0.363269768208D-05  5 2 21 25 24 1 2 0.40609587D-02 0.10952348D+00 0.15330403D+05 0.15330403D+05 0.15330403D+05 0.12467453D+01  1  2 11  4  5  2       -1 0.499108225627D-01 0.100000000000D+01
  </mgrwgt>
  </event>
  <event>
  5     66 0.48098993E-03 0.10694649E+03 0.75467711E-02 0.12486398E+00
        2 -1    0    0  502    0 0.00000000E+00 0.00000000E+00 0.32806765E+03 0.32806780E+03 0.32000000E+00 0.0000E+00 0.9000E+01
       -1 -1    0    0    0  501 0.00000000E+00 0.00000000E+00 -.12183926E+03 0.12183968E+03 0.32000000E+00 0.0000E+00 0.9000E+01
       25  1    1    2    0    0 0.15365444E+02 -.12284073E+02 0.28736327E+03 0.31398988E+03 0.12500000E+03 0.0000E+00 0.9000E+01
       24  1    1    2    0    0 -.32055196E+02 0.19403026E+02 -.56024011E+02 0.10492816E+03 0.80419002E+02 0.0000E+00 0.9000E+01
       21  1    1    2  502  501 0.16689752E+02 -.71189534E+01 -.25110868E+02 0.30989442E+02 0.75000000E+00 0.0000E+00 0.9000E+01
#aMCatNLO 2  0  0  1  2 0.18144622D+02 0.00000000D+00  -5  5  0 0.00000000D+00 0.00000000D+00 0.00000000D+00 0.00000000D+00 0.00000000D+00
  <mgrwgt>
 0.2001034968D-01    1    2    0
 0.174388390780416D+03 0.000000000000000D+00 0.000000000000000D+00 0.174388390780416D+03
 0.174388390780416D+03 0.000000000000000D+00 0.000000000000000D+00 -.174388390780416D+03
 0.187516822100653D+03 0.243028834079780D+02 -.160963051458559D+02 0.136703465169826D+03
 0.161259959460179D+03 -.243028834079780D+02 0.160963051458559D+02 -.136703465169826D+03
 0.000000000000000D+00 0.000000000000000D+00 -.000000000000000D+00 -.000000000000000D+00
 0.176200296051812D+03 0.000000000000000D+00 0.000000000000000D+00 0.176200296051812D+03
 0.226846793419036D+03 0.000000000000000D+00 0.000000000000000D+00 -.226846793419036D+03
 0.186278911042808D+03 0.153654439506832D+02 -.122840726982181D+02 0.136703465169826D+03
 0.162969525859313D+03 -.320551960706821D+02 0.194030260493327D+02 -.136703465169826D+03
 0.537986525687270D+02 0.166897521199989D+02 -.711895335111456D+01 -.506464973672241D+02
0.518955686490D-04 0.000000000000D+00 0.000000000000D+00 0.958950295555D-03 0.254976695248D-04  5 2 -1 25 24 21 2 0.50471248D-01 0.18744270D-01 0.13619250D+05 0.13619250D+05 0.13619250D+05 0.12526321D+01  1  2  1  1  5  1        2 0.200103496831D-01 0.100000000000D+01
  </mgrwgt>
  </event>
  <event>
  5     66 0.48098993E-03 0.11709433E+03 0.75467711E-02 0.11933849E+00
        2 -1    0    0  501    0 0.00000000E+00 0.00000000E+00 0.36457431E+03 0.36457445E+03 0.32000000E+00 0.0000E+00 0.9000E+01
       21 -1    0    0  502  501 0.00000000E+00 0.00000000E+00 -.15679776E+03 0.15679955E+03 0.75000000E+00 0.0000E+00 0.9000E+01
       25  1    1    2    0    0 0.64176402E+02 -.25884763E+02 0.29456413E+03 0.32738610E+03 0.12500000E+03 0.0000E+00 0.9000E+01
       24  1    1    2    0    0 -.45898248E+02 -.39793483E+02 -.72970160E+02 0.12442681E+03 0.80419002E+02 0.0000E+00 0.9000E+01
        1  1    1    2  502    0 -.18278154E+02 0.65678247E+02 -.13817416E+02 0.69561098E+02 0.32000000E+00 0.0000E+00 0.9000E+01
#aMCatNLO 2  0  0  2  1 0.68174211D+02 0.00000000D+00  -5  5  0 0.00000000D+00 0.00000000D+00 0.00000000D+00 0.00000000D+00 0.00000000D+00
  <mgrwgt>
 0.8966483761D-01    2    2    0
 0.193896423712048D+03 0.000000000000000D+00 0.000000000000000D+00 0.193896423712048D+03
 0.193896423712048D+03 0.000000000000000D+00 0.000000000000000D+00 -.193896423712048D+03
 0.205703995855861D+03 0.544565717551889D+02 0.904116142865504D+01 0.153759139903165D+03
 0.182088851568234D+03 -.544565717551889D+02 -.904116142865504D+01 -.153759139903165D+03
 0.000000000000000D+00 -.000000000000000D+00 0.000000000000000D+00 -.000000000000000D+00
 0.213166227155242D+03 0.000000000000000D+00 0.000000000000000D+00 0.213166227155242D+03
 0.268170011698755D+03 0.000000000000000D+00 0.000000000000000D+00 -.268170011698755D+03
 0.209894032052894D+03 0.641764022706664D+02 -.258847634575649D+02 0.153759139903165D+03
 0.183845749451761D+03 -.458982484167438D+02 -.397934834567547D+02 -.153759139903165D+03
 0.875964573493424D+02 -.182781538539226D+02 0.656782469143196D+02 -.550037845435127D+02
-.124530479546D-04 0.000000000000D+00 0.000000000000D+00 0.880367929308D-03 0.000000000000D+00  5 2 21 25 24 1 2 0.51018148D-01 0.24732312D-01 0.24310166D+05 0.24310166D+05 0.24310166D+05 0.12246026D+01  1  2 13  4  5  2       -1 -.353380158851D-01 0.100000000000D+01
0.464881446806D-04 0.000000000000D+00 0.000000000000D+00 0.880367929308D-03 0.925616732651D-07  5 2 21 25 24 1 2 0.56088431D-01 0.24122849D-01 0.24310166D+05 0.24310166D+05 0.24310166D+05 0.12246026D+01  1  2  1  4  5  2       -1 0.125002853498D+00 0.100000000000D+01
  </mgrwgt>
  </event>
  <event>
  4     66 0.48098993E-03 0.72388276E+02 0.75467711E-02 0.12378630E+00
        2 -1    0    0  501    0 0.00000000E+00 0.00000000E+00 0.24048562E+03 0.24048583E+03 0.32000000E+00 0.0000E+00 0.9000E+01
       -1 -1    0    0    0  501 0.00000000E+00 0.00000000E+00 -.10526899E+03 0.10526947E+03 0.32000000E+00 0.0000E+00 0.9000E+01
       25  1    1    2    0    0 0.17029908E+02 -.34023055E+02 0.19774518E+03 0.23701422E+03 0.12500000E+03 0.0000E+00 0.9000E+01
       24  1    1    2    0    0 -.17029908E+02 0.34023055E+02 -.62528551E+02 0.10874108E+03 0.80419002E+02 0.0000E+00 0.9000E+01
#aMCatNLO 1  0  0  1  2 0.25221185D+02 0.00000000D+00  -5  5  0 0.00000000D+00 0.00000000D+00 0.00000000D+00 0.00000000D+00 0.00000000D+00
  <mgrwgt>
 0.3421443963D+00    9    2    0
 0.159109389222929D+03 0.000000000000000D+00 0.000000000000000D+00 0.159109389222929D+03
 0.159109389222929D+03 0.000000000000000D+00 0.000000000000000D+00 -.159109389222929D+03
 0.173498521269684D+03 0.170299079110753D+02 -.340230549263064D+02 0.114145305872773D+03
 0.144720257176173D+03 -.170299079110753D+02 0.340230549263064D+02 -.114145305872773D+03
 0.000000000000000D+00 -.000000000000000D+00 -.000000000000000D+00 0.000000000000000D+00
 0.176269866733713D+03 0.000000000000000D+00 0.000000000000000D+00 0.176269866733713D+03
 0.169152919009234D+03 0.000000000000000D+00 0.000000000000000D+00 -.169152919009234D+03
 0.173514098815916D+03 0.280407227775282D+02 -.258207184490375D+02 0.114145305872773D+03
 0.145702597394144D+03 -.781470333473536D+01 0.408877792504161D+02 -.114145305872773D+03
 0.262060895328861D+02 -.202260194427928D+02 -.150670608013786D+02 0.711694772447895D+01
0.466544058575D-03 0.000000000000D+00 0.000000000000D+00 0.122956464499D-02 0.000000000000D+00  5 2 -1 25 24 21 0 0.36997841D-01 0.16195282D-01 0.12059035D+05 0.12059035D+05 0.12059035D+05 0.12587744D+01  1  2  2  1  5  1        2 0.199808831144D+00 0.100000000000D+01
-.215860216073D-04 0.000000000000D+00 -.179165202880D-05 0.122956464499D-02 0.000000000000D+00  5 2 -1 25 24 21 2 0.36997841D-01 0.16195282D-01 0.12059035D+05 0.12059035D+05 0.12059035D+05 0.12587744D+01  1  2  3  1  5  1        2 -.146484078617D-01 0.100000000000D+01
0.320495925786D-04 0.000000000000D+00 0.000000000000D+00 0.122956464499D-02 0.000000000000D+00  5 2 -1 25 24 21 2 0.36997841D-01 0.16195282D-01 0.12059035D+05 0.12059035D+05 0.12059035D+05 0.12587744D+01  1  2 15  1  5  1        2 0.217490518834D-01 0.100000000000D+01
0.739338924207D-03 0.000000000000D+00 0.000000000000D+00 0.122956464499D-02 0.000000000000D+00  5 2 -1 25 24 21 2 0.42054517D-01 0.16195282D-01 0.15185430D+05 0.15185430D+05 0.15185430D+05 0.12472147D+01  1  2 12  1  5  1        2 0.432721518032D+00 0.100000000000D+01
-.694866668963D-03 0.000000000000D+00 0.000000000000D+00 0.122956464499D-02 0.000000000000D+00  5 2 -1 25 24 21 2 0.36997841D-01 0.16195282D-01 0.12059035D+05 0.12059035D+05 0.12059035D+05 0.12587744D+01  1  2  4  1  5  1        2 -.471540822188D+00 0.100000000000D+01
-.172552144909D-02 0.000000000000D+00 -.481244973087D-03 0.122956464499D-02 0.000000000000D+00  5 2 -1 25 24 21 2 0.43307632D-01 0.16195282D-01 0.12059035D+05 0.12059035D+05 0.12059035D+05 0.12587744D+01  1  2  5  1  5  1        2 -.991589629507D+00 0.100000000000D+01
0.178503124332D-02 0.000000000000D+00 0.475339387564D-03 0.122956464499D-02 0.000000000000D+00  5 2 -1 25 24 21 2 0.36997841D-01 0.16195282D-01 0.12059035D+05 0.12059035D+05 0.12059035D+05 0.12587744D+01  1  2  6  1  5  1        2 0.121133324953D+01 0.100000000000D+01
0.148164732651D-04 0.000000000000D+00 0.000000000000D+00 0.122956464499D-02 0.000000000000D+00  5 21 -1 25 24 -2 2 0.42054517D-01 0.16195282D-01 0.15185430D+05 0.15185430D+05 0.15185430D+05 0.12472147D+01  1  2 12  3  5  1        2 0.322491670135D-01 0.100000000000D+01
-.372891877020D-04 0.000000000000D+00 -.114161336228D-04 0.122956464499D-02 0.000000000000D+00  5 21 -1 25 24 -2 2 0.43307632D-01 0.16195282D-01 0.12059035D+05 0.12059035D+05 0.12059035D+05 0.12587744D+01  1  2  5  3  5  1        2 -.779385617277D-01 0.100000000000D+01
  </mgrwgt>
  </event>
  <event>
  4     66 0.48098993E-03 0.14045330E+03 0.75467711E-02 0.11146944E+00
        2 -1    0    0  501    0 0.00000000E+00 0.00000000E+00 0.79534300E+02 0.79534944E+02 0.32000000E+00 0.0000E+00 0.9000E+01
       -1 -1    0    0    0  501 0.00000000E+00 0.00000000E+00 -.25047609E+03 0.25047630E+03 0.32000000E+00 0.0000E+00 0.9000E+01
       25  1    1    2    0    0 0.42972009E+02 -.84262275E+02 -.79100484E+02 0.17558078E+03 0.12500000E+03 0.0000E+00 0.9000E+01
       24  1    1    2    0    0 -.42972009E+02 0.84262275E+02 -.91841311E+02 0.15443046E+03 0.80419002E+02 0.0000E+00 0.9000E+01
#aMCatNLO 1  0  0  2  2 0.16839032D+03 0.00000000D+00  -5  5  0 0.00000000D+00 0.00000000D+00 0.00000000D+00 0.00000000D+00 0.00000000D+00
  <mgrwgt>
 0.4299629171D+00    3    2    0
 0.141143829961913D+03 0.000000000000000D+00 0.000000000000000D+00 0.141143829961913D+03
 0.141143829961913D+03 0.000000000000000D+00 0.000000000000000D+00 -.141143829961913D+03
 0.157364489497828D+03 0.429720093870511D+02 -.842622752876818D+02 0.138512789118639D+02
 0.124923170425997D+03 -.429720093870511D+02 0.842622752876818D+02 -.138512789118639D+02
 0.000000000000000D+00 -.000000000000000D+00 0.000000000000000D+00 0.000000000000000D+00
 0.546137393872434D+03 0.000000000000000D+00 0.000000000000000D+00 0.546137393872434D+03
 0.182915816785319D+03 0.000000000000000D+00 0.000000000000000D+00 -.182915816785319D+03
 0.237283628836907D+03 0.118123913408639D+03 -.162890772198873D+03 0.138512789118639D+02
 0.914132247312934D+02 -.177558338142407D+01 0.411600665398488D+02 -.138512789118639D+02
 0.400356357089552D+03 -.116348330027214D+03 0.121730705659025D+03 0.363221577087115D+03
0.116507836284D-02 0.000000000000D+00 0.000000000000D+00 0.246753911851D-02 0.000000000000D+00  5 2 -1 25 24 21 0 0.12236111D-01 0.38534849D-01 0.19727129D+05 0.19727129D+05 0.19727129D+05 0.12344834D+01  1  2  2  2  5  2       -1 0.421299956275D+00 0.100000000000D+01
-.647246827807D-04 0.000000000000D+00 -.447420768550D-05 0.246753911851D-02 0.000000000000D+00  5 2 -1 25 24 21 2 0.12236111D-01 0.38534849D-01 0.19727129D+05 0.19727129D+05 0.19727129D+05 0.12344834D+01  1  2  3  2  5  2       -1 -.356678324764D-01 0.100000000000D+01
0.804449368912D-04 0.000000000000D+00 0.000000000000D+00 0.246753911851D-02 0.000000000000D+00  5 2 -1 25 24 21 2 0.12236111D-01 0.38534849D-01 0.19727129D+05 0.19727129D+05 0.19727129D+05 0.12344834D+01  1  2 15  2  5  2       -1 0.443307932822D-01 0.100000000000D+01
  </mgrwgt>
  </event>
  <event>
  4     66 0.48098993E-03 0.60891517E+02 0.75467711E-02 0.12359243E+00
        2 -1    0    0  501    0 0.00000000E+00 0.00000000E+00 0.45194071E+02 0.45195204E+02 0.32000000E+00 0.0000E+00 0.9000E+01
       -1 -1    0    0    0  501 0.00000000E+00 0.00000000E+00 -.31664961E+03 0.31664977E+03 0.32000000E+00 0.0000E+00 0.9000E+01
       25  1    1    2    0    0 -.46871101E+02 0.23096947E+02 -.20283031E+03 0.24391700E+03 0.12500000E+03 0.0000E+00 0.9000E+01
       24  1    1    2    0    0 0.46871101E+02 -.23096947E+02 -.68625228E+02 0.11792797E+03 0.80419002E+02 0.0000E+00 0.9000E+01
#aMCatNLO 1  0  0  2  1 0.16976793D+02 0.00000000D+00  -5  5  0 0.00000000D+00 0.00000000D+00 0.00000000D+00 0.00000000D+00 0.00000000D+00
  <mgrwgt>
 0.3160510847D+00    9    2    0
 0.119628254123477D+03 0.000000000000000D+00 0.000000000000000D+00 0.119628254123477D+03
 0.119628254123477D+03 0.000000000000000D+00 0.000000000000000D+00 -.119628254123477D+03
 0.138766258169279D+03 -.468711010417913D+02 0.230969465514460D+02 -.300117535881015D+02
 0.100490250077675D+03 0.468711010417913D+02 -.230969465514460D+02 0.300117535881015D+02
 0.000000000000000D+00 0.000000000000000D+00 -.000000000000000D+00 -.000000000000000D+00
 0.125457907728174D+03 0.000000000000000D+00 0.000000000000000D+00 0.125457907728174D+03
 0.132961125649957D+03 0.000000000000000D+00 0.000000000000000D+00 -.132961125649957D+03
 0.142091210789702D+03 -.514128277611304D+02 0.319519635054707D+02 -.300117535881015D+02
 0.977668477497306D+02 0.436650992151749D+02 -.168461960585908D+02 0.300117535881015D+02
 0.185609748386986D+02 0.774772854595547D+01 -.151057674468798D+02 -.750321792178370D+01
0.419311824994D-03 0.000000000000D+00 0.000000000000D+00 0.263866356063D-02 0.000000000000D+00  5 2 -1 25 24 21 0 0.69530336D-02 0.48715424D-01 0.13384874D+05 0.13384874D+05 0.13384874D+05 0.12535027D+01  1  2  2  2  5  2       -1 0.198630142848D+00 0.100000000000D+01
-.232634124912D-04 0.000000000000D+00 -.161026781532D-05 0.263866356063D-02 0.000000000000D+00  5 2 -1 25 24 21 2 0.69530336D-02 0.48715424D-01 0.13384874D+05 0.13384874D+05 0.13384874D+05 0.12535027D+01  1  2  3  2  5  2       -1 -.173153801288D-01 0.100000000000D+01
0.290482556485D-04 0.000000000000D+00 0.000000000000D+00 0.263866356063D-02 0.000000000000D+00  5 2 -1 25 24 21 2 0.69530336D-02 0.48715424D-01 0.13384874D+05 0.13384874D+05 0.13384874D+05 0.12535027D+01  1  2 15  2  5  2       -1 0.216211438808D-01 0.100000000000D+01
0.658674760909D-03 0.000000000000D+00 0.000000000000D+00 0.263866356063D-02 0.000000000000D+00  5 2 -1 25 24 21 2 0.69530336D-02 0.55232584D-01 0.15488908D+05 0.15488908D+05 0.15488908D+05 0.12462377D+01  1  2 12  2  5  2       -1 0.386734918677D+00 0.100000000000D+01
-.633773541836D-03 0.000000000000D+00 0.000000000000D+00 0.263866356063D-02 0.000000000000D+00  5 2 -1 25 24 21 2 0.69530336D-02 0.48715424D-01 0.13384874D+05 0.13384874D+05 0.13384874D+05 0.12535027D+01  1  2  4  2  5  2       -1 -.471729149651D+00 0.100000000000D+01
-.167223135343D-02 0.000000000000D+00 -.356745503926D-03 0.263866356063D-02 0.000000000000D+00  5 2 -1 25 24 21 2 0.69530336D-02 0.56375295D-01 0.13384874D+05 0.13384874D+05 0.13384874D+05 0.12535027D+01  1  2  5  2  5  2       -1 -.952006429091D+00 0.100000000000D+01
0.170983465928D-02 0.000000000000D+00 0.352974981796D-03 0.263866356063D-02 0.000000000000D+00  5 2 -1 25 24 21 2 0.69530336D-02 0.48715424D-01 0.13384874D+05 0.13384874D+05 0.13384874D+05 0.12535027D+01  1  2  6  2  5  2       -1 0.127266096898D+01 0.100000000000D+01
0.129806380114D-04 0.000000000000D+00 0.000000000000D+00 0.263866356063D-02 0.000000000000D+00  5 2 21 25 24 1 2 0.69530336D-02 0.55232584D-01 0.15488908D+05 0.15488908D+05 0.15488908D+05 0.12462377D+01  1  2 12  4  5  2       -1 0.762008876026D-01 0.100000000000D+01
-.349655194308D-04 0.000000000000D+00 -.796273323918D-05 0.263866356063D-02 0.000000000000D+00  5 2 21 25 24 1 2 0.69530336D-02 0.56375295D-01 0.13384874D+05 0.13384874D+05 0.13384874D+05 0.12535027D+01  1  2  5  4  5  2       -1 -.198746018432D+00 0.100000000000D+01
  </mgrwgt>
  </event>
  <event>
  4     66 0.48098993E-03 0.81933167E+02 0.75467711E-02 0.11354904E+00
        2 -1    0    0  501    0 0.00000000E+00 0.00000000E+00 0.23281546E+04 0.23281546E+04 0.32000000E+00 0.0000E+00 0.9000E+01
       -1 -1    0    0    0  501 0.00000000E+00 0.00000000E+00 -.18095017E+02 0.18097846E+02 0.32000000E+00 0.0000E+00 0.9000E+01
       25  1    1    2    0    0 0.12339334E+03 0.11336175E+03 0.15376927E+04 0.15518378E+04 0.12500000E+03 0.0000E+00 0.9000E+01
       24  1    1    2    0    0 -.12339334E+03 -.11336175E+03 0.77236684E+03 0.79441460E+03 0.80419002E+02 0.0000E+00 0.9000E+01
#aMCatNLO 1  0  0  1  2 0.39034278D+02 0.00000000D+00  -5  5  0 0.00000000D+00 0.00000000D+00 0.00000000D+00 0.00000000D+00 0.00000000D+00
  <mgrwgt>
 0.6380924553D+00    9    2    0
 0.205259206285277D+03 0.000000000000000D+00 0.000000000000000D+00 0.205259206285277D+03
 0.205259206285277D+03 0.000000000000000D+00 0.000000000000000D+00 -.205259206285277D+03
 0.216413132351938D+03 0.123393338531418D+03 0.113361751349183D+03 0.559717892468544D+02
 0.194105280218617D+03 -.123393338531418D+03 -.113361751349183D+03 -.559717892468544D+02
 0.000000000000000D+00 -.000000000000000D+00 0.000000000000000D+00 0.000000000000000D+00
 0.248981581260223D+03 0.000000000000000D+00 0.000000000000000D+00 0.248981581260223D+03
 0.215085699502281D+03 0.000000000000000D+00 0.000000000000000D+00 -.215085699502281D+03
 0.228579400869405D+03 0.144476465267541D+03 0.112326543141497D+03 0.559717892468544D+02
 0.183790629511467D+03 -.105489156409020D+03 -.114240869352740D+03 -.559717892468544D+02
 0.516972503816327D+02 -.389873088585217D+02 0.191432621124294D+01 0.338958817579424D+02
0.141685322686D-02 0.000000000000D+00 0.000000000000D+00 0.199658109742D-02 0.000000000000D+00  5 2 -1 25 24 21 0 0.35817785D+00 0.27840681D-02 0.38988472D+05 0.38988472D+05 0.38988472D+05 0.12031315D+01  1  2  2  1  5  1        2 0.339502105773D+00 0.100000000000D+01
-.785702652513D-04 0.000000000000D+00 -.544108945718D-05 0.199658109742D-02 0.000000000000D+00  5 2 -1 25 24 21 2 0.35817785D+00 0.27840681D-02 0.38988472D+05 0.38988472D+05 0.38988472D+05 0.12031315D+01  1  2  3  1  5  1        2 -.272522293454D-01 0.100000000000D+01
0.978444915753D-04 0.000000000000D+00 0.000000000000D+00 0.199658109742D-02 0.000000000000D+00  5 2 -1 25 24 21 2 0.35817785D+00 0.27840681D-02 0.38988472D+05 0.38988472D+05 0.38988472D+05 0.12031315D+01  1  2 15  1  5  1        2 0.339375273339D-01 0.100000000000D+01
0.210261742055D-02 0.000000000000D+00 0.000000000000D+00 0.199658109742D-02 0.000000000000D+00  5 2 -1 25 24 21 2 0.44174602D+00 0.27840681D-02 0.47461963D+05 0.47461963D+05 0.47461963D+05 0.11945289D+01  1  2 12  1  5  1        2 0.359826677105D+00 0.100000000000D+01
-.214261499192D-02 0.000000000000D+00 0.000000000000D+00 0.199658109742D-02 0.000000000000D+00  5 2 -1 25 24 21 2 0.35817785D+00 0.27840681D-02 0.38988472D+05 0.38988472D+05 0.38988472D+05 0.12031315D+01  1  2  4  1  5  1        2 -.743169632584D+00 0.100000000000D+01
-.377403012700D-02 0.000000000000D+00 -.765446432626D-03 0.199658109742D-02 0.000000000000D+00  5 2 -1 25 24 21 2 0.44060199D+00 0.27840681D-02 0.38988472D+05 0.38988472D+05 0.38988472D+05 0.12031315D+01  1  2  5  1  5  1        2 -.664417930738D+00 0.100000000000D+01
0.386548937004D-02 0.000000000000D+00 0.749317719175D-03 0.199658109742D-02 0.000000000000D+00  5 2 -1 25 24 21 2 0.35817785D+00 0.27840681D-02 0.38988472D+05 0.38988472D+05 0.38988472D+05 0.12031315D+01  1  2  6  1  5  1        2 0.134075152359D+01 0.100000000000D+01
0.623872489632D-04 0.000000000000D+00 0.000000000000D+00 0.199658109742D-02 0.000000000000D+00  5 21 -1 25 24 -2 2 0.44174602D+00 0.27840681D-02 0.47461963D+05 0.47461963D+05 0.47461963D+05 0.11945289D+01  1  2 12  3  5  1        2 0.150715189124D-02 0.100000000000D+01
-.101565097716D-03 0.000000000000D+00 -.224976714110D-04 0.199658109742D-02 0.000000000000D+00  5 21 -1 25 24 -2 2 0.44060199D+00 0.27840681D-02 0.38988472D+05 0.38988472D+05 0.38988472D+05 0.12031315D+01  1  2  5  3  5  1        2 -.259273772979D-02 0.100000000000D+01
  </mgrwgt>
  </event>
  <event>
  5     66 0.48098993E-03 0.10386151E+03 0.75467711E-02 0.11518857E+00
        2 -1    0    0  501    0 0.00000000E+00 0.00000000E+00 0.34529752E+03 0.34529767E+03 0.32000000E+00 0.0000E+00 0.9000E+01
       21 -1    0    0  502  501 0.00000000E+00 0.00000000E+00 -.11532944E+03 0.11533188E+03 0.75000000E+00 0.0000E+00 0.9000E+01
       25  1    1    2    0    0 -.12820502E+02 0.89285333E+02 0.60932008E+02 0.16575266E+03 0.12500000E+03 0.0000E+00 0.9000E+01
       24  1    1    2    0    0 -.30597500E+02 0.46810619E+02 0.57002187E+02 0.11333096E+03 0.80419002E+02 0.0000E+00 0.9000E+01
        1  1    1    2  502    0 0.43418002E+02 -.13609595E+03 0.11203388E+03 0.18154593E+03 0.32000000E+00 0.0000E+00 0.9000E+01
#aMCatNLO 2  0  0  2  2 0.14285388D+03 0.00000000D+00  -5  5  0 0.00000000D+00 0.00000000D+00 0.00000000D+00 0.00000000D+00 0.00000000D+00
  <mgrwgt>
 0.8395082640D-01    1    2    0
 0.104369491836202D+03 0.000000000000000D+00 0.000000000000000D+00 0.104369491836202D+03
 0.104369491836202D+03 0.000000000000000D+00 0.000000000000000D+00 -.104369491836202D+03
 0.126305461544673D+03 0.135850007786121D+02 0.651593210122010D+01 -.100528602253372D+02
 0.824335221277321D+02 -.135850007786121D+02 -.651593210122010D+01 0.100528602253372D+02
 0.000000000000000D+00 0.000000000000000D+00 -.000000000000000D+00 0.000000000000000D+00
 0.219990579310940D+03 0.000000000000000D+00 0.000000000000000D+00 0.219990579310940D+03
 0.181023644229138D+03 0.000000000000000D+00 0.000000000000000D+00 -.181023644229138D+03
 0.154474256803116D+03 -.128205021034812D+02 0.892853332971290D+02 -.100528602253372D+02
 0.984668321257361D+02 -.305975003057143D+02 0.468106189965376D+02 0.100528602253372D+02
 0.148073134611226D+03 0.434180024091955D+02 -.136095952293667D+03 0.389669350818015D+02
0.172545076957D-04 0.000000000000D+00 0.000000000000D+00 0.316012393497D-02 0.251854934969D-06  5 2 21 25 24 1 2 0.53122847D-01 0.17743175D-01 0.38996968D+05 0.38996968D+05 0.38996968D+05 0.12031219D+01  1  2  1  4  5  2       -1 0.839508263958D-01 0.100000000000D+01
  </mgrwgt>
  </event>
  <event>
  5     66 0.48098993E-03 0.11103247E+03 0.75467711E-02 0.12012304E+00
        2 -1    0    0  501    0 0.00000000E+00 0.00000000E+00 0.12750803E+04 0.12750803E+04 0.32000000E+00 0.0000E+00 0.9000E+01
       21 -1    0    0  502  501 0.00000000E+00 0.00000000E+00 -.28407991E+02 0.28417890E+02 0.75000000E+00 0.0000E+00 0.9000E+01
       25  1    1    2    0    0 0.98640698E+01 0.74774448E+02 0.73816437E+03 0.75246272E+03 0.12500000E+03 0.0000E+00 0.9000E+01
       24  1    1    2    0    0 0.24655668E+02 -.17513294E+02 0.46118740E+03 0.46912221E+03 0.80419002E+02 0.0000E+00 0.9000E+01
        1  1    1    2  502    0 -.34519738E+02 -.57261154E+02 0.47320552E+02 0.81913302E+02 0.32000000E+00 0.0000E+00 0.9000E+01
#aMCatNLO 2  0  0  2  1 0.66861439D+02 0.00000000D+00  -5  5  0 0.00000000D+00 0.00000000D+00 0.00000000D+00 0.00000000D+00 0.00000000D+00
  <mgrwgt>
 0.2854359160D+00    2    2    0
 0.111079528043707D+03 0.000000000000000D+00 0.000000000000000D+00 0.111079528043707D+03
 0.111079528043707D+03 0.000000000000000D+00 0.000000000000000D+00 -.111079528043707D+03
 0.131690400737607D+03 -.112445028484361D+02 0.397596622097935D+02 -.317680076276166D+01
 0.904686553498071D+02 0.112445028484361D+02 -.397596622097935D+02 0.317680076276166D+01
 0.000000000000000D+00 -.000000000000000D+00 -.000000000000000D+00 -.000000000000000D+00
 0.122193399508349D+03 0.000000000000000D+00 0.000000000000000D+00 0.122193399508349D+03
 0.296487943437677D+03 0.000000000000000D+00 0.000000000000000D+00 -.296487943437677D+03
 0.146026059392138D+03 0.986406980286583D+01 0.747744480784317D+02 -.317680076276166D+01
 0.859763075180239D+02 0.246556680199634D+02 -.175132941352092D+02 0.317680076276166D+01
 0.186678976035864D+03 -.345197378228292D+02 -.572611539432225D+02 -.174294543929328D+03
-.110595274572D-04 0.000000000000D+00 0.000000000000D+00 0.298067193225D-02 0.000000000000D+00  5 2 21 25 24 1 2 0.17832478D+00 0.43042441D-02 0.22315958D+05 0.22315958D+05 0.22315958D+05 0.12286214D+01  1  2 13  4  5  2       -1 -.155990536250D+00 0.100000000000D+01
0.372295866297D-04 0.000000000000D+00 0.000000000000D+00 0.298067193225D-02 0.104559154501D-05  5 2 21 25 24 1 2 0.19616676D+00 0.43712200D-02 0.22315958D+05 0.22315958D+05 0.22315958D+05 0.12286214D+01  1  2  1  4  5  2       -1 0.441426452216D+00 0.100000000000D+01
  </mgrwgt>
  </event>
  <event>
  4     66 0.48098993E-03 0.57982254E+02 0.75467711E-02 0.12259081E+00
        2 -1    0    0  501    0 0.00000000E+00 0.00000000E+00 0.18579859E+04 0.18579859E+04 0.32000000E+00 0.0000E+00 0.9000E+01
       -1 -1    0    0    0  501 0.00000000E+00 0.00000000E+00 -.66073635E+01 0.66151079E+01 0.32000000E+00 0.0000E+00 0.9000E+01
       25  1    1    2    0    0 0.24674949E+02 0.14298644E+02 0.85284039E+03 0.86242393E+03 0.12500000E+03 0.0000E+00 0.9000E+01
       24  1    1    2    0    0 -.24674949E+02 -.14298644E+02 0.99853810E+03 0.10021771E+04 0.80419002E+02 0.0000E+00 0.9000E+01
#aMCatNLO 1  0  0  1  2 0.44223699D+02 0.00000000D+00  -5  5  0 0.00000000D+00 0.00000000D+00 0.00000000D+00 0.00000000D+00 0.00000000D+00
  <mgrwgt>
 0.5354965180D+00    9    2    0
 0.110831555563240D+03 0.000000000000000D+00 0.000000000000000D+00 0.110831555563240D+03
 0.110831555563240D+03 0.000000000000000D+00 0.000000000000000D+00 -.110831555563240D+03
 0.131488542643973D+03 0.246749485685314D+02 0.142986435952375D+02 -.291707482096812D+02
 0.901745684825076D+02 -.246749485685314D+02 -.142986435952375D+02 0.291707482096812D+02
 0.000000000000000D+00 -.000000000000000D+00 -.000000000000000D+00 0.000000000000000D+00
 0.165125098225713D+03 0.000000000000000D+00 0.000000000000000D+00 0.165125098225713D+03
 0.122398635297935D+03 0.000000000000000D+00 0.000000000000000D+00 -.122398635297935D+03
 0.139726661677544D+03 0.493266815661399D+02 0.247888264770838D+02 -.291707482096812D+02
 0.863049078670253D+02 -.863408927596369D+01 -.747269153834476D+01 0.291707482096812D+02
 0.614921639790788D+02 -.406925922901762D+02 -.173161349387390D+02 0.427264629277781D+02
0.226114019361D-03 0.000000000000D+00 0.000000000000D+00 0.281502270206D-02 0.000000000000D+00  5 2 -1 25 24 21 0 0.28584458D+00 0.10171153D-02 0.11399610D+05 0.11399610D+05 0.11399610D+05 0.12616450D+01  1  2  2  1  5  1        2 0.399989526996D+00 0.100000000000D+01
-.125405896872D-04 0.000000000000D+00 -.868337371535D-06 0.281502270206D-02 0.000000000000D+00  5 2 -1 25 24 21 2 0.28584458D+00 0.10171153D-02 0.11399610D+05 0.11399610D+05 0.11399610D+05 0.12616450D+01  1  2  3  1  5  1        2 -.353112795560D-01 0.100000000000D+01
0.156733052448D-04 0.000000000000D+00 0.000000000000D+00 0.281502270206D-02 0.000000000000D+00  5 2 -1 25 24 21 2 0.28584458D+00 0.10171153D-02 0.11399610D+05 0.11399610D+05 0.11399610D+05 0.12616450D+01  1  2 15  1  5  1        2 0.441322519012D-01 0.100000000000D+01
0.163528514089D-03 0.000000000000D+00 0.000000000000D+00 0.281502270206D-02 0.000000000000D+00  5 2 -1 25 24 21 2 0.43495127D+00 0.10171153D-02 0.17173721D+05 0.17173721D+05 0.17173721D+05 0.12411775D+01  1  2 12  1  5  1        2 0.138848815661D+00 0.100000000000D+01
-.203066504426D-03 0.000000000000D+00 0.000000000000D+00 0.281502270206D-02 0.000000000000D+00  5 2 -1 25 24 21 2 0.28584458D+00 0.10171153D-02 0.11399610D+05 0.11399610D+05 0.11399610D+05 0.12616450D+01  1  2  4  1  5  1        2 -.571786358146D+00 0.100000000000D+01
-.264793666966D-03 0.000000000000D+00 -.781533458468D-04 0.281502270206D-02 0.000000000000D+00  5 2 -1 25 24 21 2 0.43847842D+00 0.10171153D-02 0.11399610D+05 0.11399610D+05 0.11399610D+05 0.12616450D+01  1  2  5  1  5  1        2 -.225492000039D+00 0.100000000000D+01
0.278952973983D-03 0.000000000000D+00 0.715075719933D-04 0.281502270206D-02 0.000000000000D+00  5 2 -1 25 24 21 2 0.28584458D+00 0.10171153D-02 0.11399610D+05 0.11399610D+05 0.11399610D+05 0.12616450D+01  1  2  6  1  5  1        2 0.785464375521D+00 0.100000000000D+01
0.806624064827D-05 0.000000000000D+00 0.000000000000D+00 0.281502270206D-02 0.000000000000D+00  5 21 -1 25 24 -2 2 0.43495127D+00 0.10171153D-02 0.17173721D+05 0.17173721D+05 0.17173721D+05 0.12411775D+01  1  2 12  3  5  1        2 0.111854274381D-02 0.100000000000D+01
-.103310245303D-04 0.000000000000D+00 -.391006944068D-05 0.281502270206D-02 0.000000000000D+00  5 21 -1 25 24 -2 2 0.43847842D+00 0.10171153D-02 0.11399610D+05 0.11399610D+05 0.11399610D+05 0.12616450D+01  1  2  5  3  5  1        2 -.146735711742D-02 0.100000000000D+01
  </mgrwgt>
  </event>
  <event>
  4     66 0.48098993E-03 0.10370517E+03 0.75467711E-02 0.12713822E+00
        2 -1    0    0  501    0 0.00000000E+00 0.00000000E+00 0.15535730E+03 0.15535763E+03 0.32000000E+00 0.0000E+00 0.9000E+01
       -1 -1    0    0    0  501 0.00000000E+00 0.00000000E+00 -.71135132E+02 0.71135851E+02 0.32000000E+00 0.0000E+00 0.9000E+01
       25  1    1    2    0    0 0.85334045E+01 -.11099849E+02 0.32692527E+02 0.12996087E+03 0.12500000E+03 0.0000E+00 0.9000E+01
       24  1    1    2    0    0 -.85334045E+01 0.11099849E+02 0.51529641E+02 0.96532614E+02 0.80419002E+02 0.0000E+00 0.9000E+01
#aMCatNLO 1  0  0  2  2 0.13081718D+01 0.00000000D+00  -5  5  0 0.00000000D+00 0.00000000D+00 0.00000000D+00 0.00000000D+00 0.00000000D+00
  <mgrwgt>
 0.3950920164D+00    8    2    0
 0.105126023455663D+03 0.000000000000000D+00 0.000000000000000D+00 0.105126023455663D+03
 0.105126023455663D+03 0.000000000000000D+00 0.000000000000000D+00 -.105126023455663D+03
 0.126904132587442D+03 0.853340453888776D+01 -.110998486474486D+02 -.168414142740581D+02
 0.833479143238843D+02 -.853340453888776D+01 0.110998486474486D+02 0.168414142740581D+02
 0.000000000000000D+00 0.000000000000000D+00 -.000000000000000D+00 0.000000000000000D+00
 0.112402929757411D+03 0.000000000000000D+00 0.000000000000000D+00 0.112402929757411D+03
 0.105186867336942D+03 0.000000000000000D+00 0.000000000000000D+00 -.105186867336942D+03
 0.126835416797803D+03 0.850118249336665D+01 -.103111403703220D+02 -.168414142740581D+02
 0.834206997457301D+02 -.855458226182084D+01 0.116182218636080D+02 0.168414142740581D+02
 0.733368055081961D+01 0.533997684541858D-01 -.130708149328598D+01 0.721606242046922D+01
0.247619719856D-03 0.000000000000D+00 0.000000000000D+00 0.309199694257D-02 0.000000000000D+00  5 2 -1 25 24 21 0 0.23901204D-01 0.10943947D-01 0.10754762D+05 0.10754762D+05 0.10754762D+05 0.12646390D+01  1  2  2  2  5  2       -1 0.309685975225D+00 0.100000000000D+01
-.137535538583D-04 0.000000000000D+00 -.950924924017D-06 0.309199694257D-02 0.000000000000D+00  5 2 -1 25 24 21 2 0.23901204D-01 0.10943947D-01 0.10754762D+05 0.10754762D+05 0.10754762D+05 0.12646390D+01  1  2  3  2  5  2       -1 -.275096073604D-01 0.100000000000D+01
0.169702880495D-04 0.000000000000D+00 0.000000000000D+00 0.309199694257D-02 0.000000000000D+00  5 2 -1 25 24 21 2 0.23901204D-01 0.10943947D-01 0.10754762D+05 0.10754762D+05 0.10754762D+05 0.12646390D+01  1  2 15  2  5  2       -1 0.339436603690D-01 0.100000000000D+01
-.211141066702D-04 0.000000000000D+00 0.000000000000D+00 0.309199694257D-02 0.000000000000D+00  5 2 -1 25 24 21 2 0.23901204D-01 0.10943947D-01 0.10754762D+05 0.10754762D+05 0.10754762D+05 0.12646390D+01  1  2  4  2  5  2       -1 -.422320507302D-01 0.100000000000D+01
0.357069294879D-08 0.000000000000D+00 0.000000000000D+00 0.309199694257D-02 0.000000000000D+00  5 2 -1 25 24 21 2 0.23901204D-01 0.11715805D-01 0.10754762D+05 0.10754762D+05 0.10754762D+05 0.12646390D+01  1  2  5  2  5  2       -1 0.643641510378D-05 0.100000000000D+01
-.356241651296D-08 0.000000000000D+00 0.000000000000D+00 0.309199694257D-02 0.000000000000D+00  5 2 -1 25 24 21 2 0.23901204D-01 0.10943947D-01 0.10754762D+05 0.10754762D+05 0.10754762D+05 0.12646390D+01  1  2  6  2  5  2       -1 -.712548047839D-05 0.100000000000D+01
0.211604532554D-04 0.000000000000D+00 0.000000000000D+00 0.309199694257D-02 0.154302068969D-01  5 2 -1 25 24 21 2 0.25555664D-01 0.10950281D-01 0.10891375D+05 0.10891375D+05 0.10891375D+05 0.12639881D+01  1  2 11  2  5  2       -1 0.392798064591D-01 0.100000000000D+01
0.296141237193D-05 0.000000000000D+00 0.000000000000D+00 0.309199694257D-02 0.173240613121D-05  5 2 21 25 24 1 2 0.25555664D-01 0.10950281D-01 0.10891375D+05 0.10891375D+05 0.10891375D+05 0.12639881D+01  1  2 11  4  5  2       -1 0.819249214525D-01 0.100000000000D+01
  </mgrwgt>
  </event>
  <event>
  4     66 0.48098993E-03 0.64476335E+02 0.75467711E-02 0.12209160E+00
        2 -1    0    0  501    0 0.00000000E+00 0.00000000E+00 0.56920678E+03 0.56920687E+03 0.32000000E+00 0.0000E+00 0.9000E+01
       -1 -1    0    0    0  501 0.00000000E+00 0.00000000E+00 -.34820735E+02 0.34822206E+02 0.32000000E+00 0.0000E+00 0.9000E+01
       25  1    1    2    0    0 0.69296485E+02 0.44676258E+02 0.39960913E+03 0.42674398E+03 0.12500000E+03 0.0000E+00 0.9000E+01
       24  1    1    2    0    0 -.69296485E+02 -.44676258E+02 0.13477691E+03 0.17728509E+03 0.80419002E+02 0.0000E+00 0.9000E+01
#aMCatNLO 1  0  0  1  2 0.41068802D+01 0.00000000D+00  -5  5  0 0.00000000D+00 0.00000000D+00 0.00000000D+00 0.00000000D+00 0.00000000D+00
  <mgrwgt>
 0.6227477481D+00   11    2    0
 0.140785900536838D+03 0.000000000000000D+00 0.000000000000000D+00 0.140785900536838D+03
 0.140785900536838D+03 0.000000000000000D+00 0.000000000000000D+00 -.140785900536838D+03
 0.157047798941987D+03 0.692964847333811D+02 0.446762584902680D+02 0.473396269887046D+02
 0.124524002131690D+03 -.692964847333811D+02 -.446762584902680D+02 -.473396269887046D+02
 0.000000000000000D+00 -.000000000000000D+00 -.000000000000000D+00 0.000000000000000D+00
 0.144130501969255D+03 0.000000000000000D+00 0.000000000000000D+00 0.144130501969255D+03
 0.142067268004673D+03 0.000000000000000D+00 0.000000000000000D+00 -.142067268004673D+03
 0.158267014604946D+03 0.712418543446982D+02 0.459021330447881D+02 0.473396269887046D+02
 0.123334735433523D+03 -.677672928424743D+02 -.437126383035766D+02 -.473396269887046D+02
 0.459601993545837D+01 -.347456150222391D+01 -.218949474121145D+01 0.206323396458126D+01
0.296428757766D-03 0.000000000000D+00 0.000000000000D+00 0.223856584621D-02 0.000000000000D+00  5 2 -1 25 24 21 0 0.87570393D-01 0.53571563D-02 0.17545335D+05 0.17545335D+05 0.17545335D+05 0.12401363D+01  1  2  2  1  5  1        2 0.274039514557D+00 0.100000000000D+01
-.163938353580D-04 0.000000000000D+00 -.113836448130D-05 0.223856584621D-02 0.000000000000D+00  5 2 -1 25 24 21 2 0.87570393D-01 0.53571563D-02 0.17545335D+05 0.17545335D+05 0.17545335D+05 0.12401363D+01  1  2  3  1  5  1        2 -.233083899048D-01 0.100000000000D+01
0.205123201632D-04 0.000000000000D+00 0.000000000000D+00 0.223856584621D-02 0.000000000000D+00  5 2 -1 25 24 21 2 0.87570393D-01 0.53571563D-02 0.17545335D+05 0.17545335D+05 0.17545335D+05 0.12401363D+01  1  2 15  1  5  1        2 0.291639598529D-01 0.100000000000D+01
0.649267861035D-04 0.000000000000D+00 0.000000000000D+00 0.223856584621D-02 0.000000000000D+00  5 2 -1 25 24 21 2 0.90042652D-01 0.53571563D-02 0.18092380D+05 0.18092380D+05 0.18092380D+05 0.12386478D+01  1  2 12  1  5  1        2 0.893305600661D-01 0.100000000000D+01
-.252747109841D-02 0.000000000000D+00 0.000000000000D+00 0.223856584621D-02 0.000000000000D+00  5 2 -1 25 24 21 2 0.87570393D-01 0.53571563D-02 0.17545335D+05 0.17545335D+05 0.17545335D+05 0.12401363D+01  1  2  4  1  5  1        2 -.359350210297D+01 0.100000000000D+01
-.111741323130D-01 0.000000000000D+00 -.140064388750D-02 0.223856584621D-02 0.000000000000D+00  5 2 -1 25 24 21 2 0.90258286D-01 0.53571563D-02 0.17545335D+05 0.17545335D+05 0.17545335D+05 0.12401363D+01  1  2  5  1  5  1        2 -.153549694718D+02 0.100000000000D+01
0.112119927724D-01 0.000000000000D+00 0.140000403664D-02 0.223856584621D-02 0.000000000000D+00  5 2 -1 25 24 21 2 0.87570393D-01 0.53571563D-02 0.17545335D+05 0.17545335D+05 0.17545335D+05 0.12401363D+01  1  2  6  1  5  1        2 0.159409615530D+02 0.100000000000D+01
0.246555579797D-02 0.000000000000D+00 0.000000000000D+00 0.223856584621D-02 0.108640687156D-02  5 2 -1 25 24 21 2 0.89650772D-01 0.54059146D-02 0.18092380D+05 0.18092380D+05 0.18092380D+05 0.12386478D+01  1  2 11  1  5  1        2 0.336354303211D+01 0.100000000000D+01
0.179161867266D-05 0.000000000000D+00 0.000000000000D+00 0.223856584621D-02 0.000000000000D+00  5 21 -1 25 24 -2 2 0.90042652D-01 0.53571563D-02 0.18092380D+05 0.18092380D+05 0.18092380D+05 0.12386478D+01  1  2 12  3  5  1        2 0.406418375147D-02 0.100000000000D+01
-.601027240362D-04 0.000000000000D+00 -.759162222667D-05 0.223856584621D-02 0.000000000000D+00  5 21 -1 25 24 -2 2 0.90258286D-01 0.53571563D-02 0.17545335D+05 0.17545335D+05 0.17545335D+05 0.12401363D+01  1  2  5  3  5  1        2 -.135931120060D+00 0.100000000000D+01
0.129858127854D-04 0.000000000000D+00 0.000000000000D+00 0.223856584621D-02 0.461565425290D-05  5 21 -1 25 24 -2 2 0.89650772D-01 0.54059146D-02 0.18092380D+05 0.18092380D+05 0.18092380D+05 0.12386478D+01  1  2 11  3  5  1        2 0.293560295330D-01 0.100000000000D+01
  </mgrwgt>
  </event>
  <event>
  4     66 0.48098993E-03 0.10397153E+03 0.75467711E-02 0.12132899E+00
        2 -1    0    0  501    0 0.00000000E+00 0.00000000E+00 0.79516893E+03 0.79516900E+03 0.32000000E+00 0.0000E+00 0.9000E+01
       -1 -1    0    0    0  501 0.00000000E+00 0.00000000E+00 -.14698686E+02 0.14702169E+02 0.32000000E+00 0.0000E+00 0.9000E+01
       25  1    1    2    0    0 0.40905422E+01 -.15235369E+02 0.57539763E+03 0.58902995E+03 0.12500000E+03 0.0000E+00 0.9000E+01
       24  1    1    2    0    0 -.40905422E+01 0.15235369E+02 0.20507262E+03 0.22084122E+03 0.80419002E+02 0.0000E+00 0.9000E+01
#aMCatNLO 1  0  0  1  2 0.62948352D+02 0.00000000D+00  -5  5  0 0.00000000D+00 0.00000000D+00 0.00000000D+00 0.00000000D+00 0.00000000D+00
  <mgrwgt>
 0.4253437939D+00    4    2    0
 0.108117413271456D+03 0.000000000000000D+00 0.000000000000000D+00 0.108117413271456D+03
 0.108117413271456D+03 0.000000000000000D+00 0.000000000000000D+00 -.108117413271456D+03
 0.129292966238665D+03 0.409054218928456D+01 -.152353687927176D+02 0.290313988836250D+02
 0.869418603042465D+02 -.409054218928456D+01 0.152353687927176D+02 -.290313988836250D+02
 0.000000000000000D+00 -.000000000000000D+00 0.000000000000000D+00 -.000000000000000D+00
 0.128597360370620D+03 0.000000000000000D+00 0.000000000000000D+00 0.128597360370620D+03
 0.174551001931359D+03 0.000000000000000D+00 0.000000000000000D+00 -.174551001931359D+03
 0.139015391343709D+03 0.252155979327953D+02 -.471341758196326D+02 0.290313988836250D+02
 0.861956102379261D+02 0.954130569443607D+01 -.534870399471821D+01 -.290313988836250D+02
 0.779373607203444D+02 -.347569036272314D+02 0.524828798143508D+02 -.459536415607386D+02
0.248685848227D-03 0.000000000000D+00 0.000000000000D+00 0.288089819648D-02 0.000000000000D+00  5 2 -1 25 24 21 0 0.12233396D+00 0.22616092D-02 0.10810080D+05 0.10810080D+05 0.10810080D+05 0.12643743D+01  1  2  2  1  5  1        2 0.536585929305D+00 0.100000000000D+01
-.137901984930D-04 0.000000000000D+00 -.955019137679D-06 0.288089819648D-02 0.000000000000D+00  5 2 -1 25 24 21 2 0.12233396D+00 0.22616092D-02 0.10810080D+05 0.10810080D+05 0.10810080D+05 0.12643743D+01  1  2  3  1  5  1        2 -.475674725755D-01 0.100000000000D+01
0.171073233922D-04 0.000000000000D+00 0.000000000000D+00 0.288089819648D-02 0.000000000000D+00  5 2 -1 25 24 21 2 0.12233396D+00 0.22616092D-02 0.10810080D+05 0.10810080D+05 0.10810080D+05 0.12643743D+01  1  2 15  1  5  1        2 0.590094578197D-01 0.100000000000D+01
-.355671277932D-04 0.000000000000D+00 0.000000000000D+00 0.288089819648D-02 0.000000000000D+00  5 2 -1 25 24 21 2 0.12233396D+00 0.22616092D-02 0.10810080D+05 0.10810080D+05 0.10810080D+05 0.12643743D+01  1  2  4  1  5  1        2 -.122684120664D+00 0.100000000000D+01
  </mgrwgt>
  </event>
  <event>
  4     66 0.48098993E-03 0.10920473E+03 0.75467711E-02 0.12490128E+00
        2 -1    0    0  501    0 0.00000000E+00 0.00000000E+00 0.94290342E+02 0.94290885E+02 0.32000000E+00 0.0000E+00 0.9000E+01
       -1 -1    0    0    0  501 0.00000000E+00 0.00000000E+00 -.13467738E+03 0.13467776E+03 0.32000000E+00 0.0000E+00 0.9000E+01
       25  1    1    2    0    0 0.10070494E+02 0.34895135E+02 0.39222159E+01 0.13022853E+03 0.12500000E+03 0.0000E+00 0.9000E+01
       24  1    1    2    0    0 -.10070494E+02 -.34895135E+02 -.44309256E+02 0.98740121E+02 0.80419002E+02 0.0000E+00 0.9000E+01
#aMCatNLO 1  0  0  1  2 0.14060806D+02 0.00000000D+00  -5  5  0 0.00000000D+00 0.00000000D+00 0.00000000D+00 0.00000000D+00 0.00000000D+00
  <mgrwgt>
 0.2887450583D+00    4    2    0
 0.112689316629642D+03 0.000000000000000D+00 0.000000000000000D+00 0.112689316629642D+03
 0.112689316629642D+03 0.000000000000000D+00 0.000000000000000D+00 -.112689316629642D+03
 0.133005759038568D+03 0.100704937785071D+02 0.348951354383470D+02 0.273211752167076D+02
 0.923728742207154D+02 -.100704937785071D+02 -.348951354383470D+02 -.273211752167076D+02
 0.000000000000000D+00 0.000000000000000D+00 0.000000000000000D+00 -.000000000000000D+00
 0.114014496395477D+03 0.000000000000000D+00 0.000000000000000D+00 0.114014496395477D+03
 0.157594324162120D+03 0.000000000000000D+00 0.000000000000000D+00 -.157594324162120D+03
 0.131340690193833D+03 0.394874442785192D+01 0.293826088496899D+02 0.273211752167076D+02
 0.944761262381804D+02 -.143975530242479D+02 -.387915754551680D+02 -.273211752167076D+02
 0.457920041255831D+02 0.104488085963960D+02 0.940896660547816D+01 -.435798277666433D+02
0.375588200663D-03 0.000000000000D+00 0.000000000000D+00 0.279537564637D-02 0.000000000000D+00  5 2 -1 25 24 21 0 0.14506277D-01 0.20719668D-01 0.11925674D+05 0.11925674D+05 0.11925674D+05 0.12593405D+01  1  2  2  1  5  1        2 0.307037481206D+00 0.100000000000D+01
-.208409810595D-04 0.000000000000D+00 -.144235758519D-05 0.279537564637D-02 0.000000000000D+00  5 2 -1 25 24 21 2 0.14506277D-01 0.20719668D-01 0.11925674D+05 0.11925674D+05 0.11925674D+05 0.12593405D+01  1  2  3  1  5  1        2 -.270199121138D-01 0.100000000000D+01
0.259490924571D-04 0.000000000000D+00 0.000000000000D+00 0.279537564637D-02 0.000000000000D+00  5 2 -1 25 24 21 2 0.14506277D-01 0.20719668D-01 0.11925674D+05 0.11925674D+05 0.11925674D+05 0.12593405D+01  1  2 15  1  5  1        2 0.336424756409D-01 0.100000000000D+01
-.192174111624D-04 0.000000000000D+00 0.000000000000D+00 0.279537564637D-02 0.000000000000D+00  5 2 -1 25 24 21 2 0.14506277D-01 0.20719668D-01 0.11925674D+05 0.11925674D+05 0.11925674D+05 0.12593405D+01  1  2  4  1  5  1        2 -.249149864482D-01 0.100000000000D+01
  </mgrwgt>
  </event>
  <event>
  5     66 0.48098993E-03 0.13363193E+03 0.75467711E-02 0.11494855E+00
        2 -1    0    0  501    0 0.00000000E+00 0.00000000E+00 0.87702242E+03 0.87702248E+03 0.32000000E+00 0.0000E+00 0.9000E+01
       21 -1    0    0  502  501 0.00000000E+00 0.00000000E+00 -.52131719E+02 0.52137114E+02 0.75000000E+00 0.0000E+00 0.9000E+01
       25  1    1    2    0    0 0.29857653E+02 0.33557437E+01 0.18205653E+03 0.22287288E+03 0.12500000E+03 0.0000E+00 0.9000E+01
       24  1    1    2    0    0 -.13656503E+03 0.27744057E+02 0.24413478E+03 0.29238459E+03 0.80419002E+02 0.0000E+00 0.9000E+01
        1  1    1    2  502    0 0.10670738E+03 -.31099801E+02 0.39869939E+03 0.41390212E+03 0.32000000E+00 0.0000E+00 0.9000E+01
#aMCatNLO 2  0  0  2  2 0.11114703D+03 0.00000000D+00  -5  5  0 0.00000000D+00 0.00000000D+00 0.00000000D+00 0.00000000D+00 0.00000000D+00
  <mgrwgt>
 0.1083693847D+00    1    2    0
 0.133695141372578D+03 0.000000000000000D+00 0.000000000000000D+00 0.133695141372578D+03
 0.133695141372578D+03 0.000000000000000D+00 0.000000000000000D+00 -.133695141372578D+03
 0.150819518428489D+03 0.833960104083619D+02 -.122479782006498D+02 -.407671644417943D+01
 0.116570764316667D+03 -.833960104083619D+02 0.122479782006498D+02 0.407671644417943D+01
 0.000000000000000D+00 0.000000000000000D+00 -.000000000000000D+00 0.000000000000000D+00
 0.269755094801217D+03 0.000000000000000D+00 0.000000000000000D+00 0.269755094801217D+03
 0.169498693230289D+03 0.000000000000000D+00 0.000000000000000D+00 -.169498693230289D+03
 0.128624881185097D+03 0.298576527380118D+02 0.335574371645147D+01 -.407671644417943D+01
 0.160945880049140D+03 -.136565032174685D+03 0.277440573922135D+02 0.407671644417943D+01
 0.149683026797269D+03 0.106707379436673D+03 -.310998011086650D+02 0.100256401570928D+03
0.157641096161D-04 0.000000000000D+00 0.000000000000D+00 0.257040021352D-02 0.109685908964D-06  5 2 21 25 24 1 2 0.13492682D+00 0.80206766D-02 0.40120397D+05 0.40120397D+05 0.40120397D+05 0.12018677D+01  1  2  1  4  5  2       -1 0.108369384671D+00 0.100000000000D+01
  </mgrwgt>
  </event>
  <event>
  4     66 0.48098993E-03 0.61630576E+02 0.75467711E-02 0.11921659E+00
        2 -1    0    0  501    0 0.00000000E+00 0.00000000E+00 0.57584084E+03 0.57584093E+03 0.32000000E+00 0.0000E+00 0.9000E+01
       -1 -1    0    0    0  501 0.00000000E+00 0.00000000E+00 -.32793213E+02 0.32794774E+02 0.32000000E+00 0.0000E+00 0.9000E+01
       25  1    1    2    0    0 -.84252592E+02 0.36040486E+01 0.23426841E+03 0.27860039E+03 0.12500000E+03 0.0000E+00 0.9000E+01
       24  1    1    2    0    0 0.84252592E+02 -.36040486E+01 0.30877922E+03 0.33003532E+03 0.80419002E+02 0.0000E+00 0.9000E+01
#aMCatNLO 1  0  0  1  2 0.43059540D+02 0.00000000D+00  -5  5  0 0.00000000D+00 0.00000000D+00 0.00000000D+00 0.00000000D+00 0.00000000D+00
  <mgrwgt>
 0.4025230330D+00    9    2    0
 0.137419698999347D+03 0.000000000000000D+00 0.000000000000000D+00 0.137419698999347D+03
 0.137419698999347D+03 0.000000000000000D+00 0.000000000000000D+00 -.137419698999347D+03
 0.154079945150943D+03 -.842525921369892D+02 0.360404855772669D+01 -.316881847051769D+02
 0.120759452847751D+03 0.842525921369892D+02 -.360404855772669D+01 0.316881847051769D+02
 0.000000000000000D+00 -.000000000000000D+00 0.000000000000000D+00 0.000000000000000D+00
 0.195785223023426D+03 0.000000000000000D+00 0.000000000000000D+00 0.195785223023426D+03
 0.147272734777849D+03 0.000000000000000D+00 0.000000000000000D+00 -.147272734777849D+03
 0.142765666461394D+03 -.612447548724097D+02 0.140515866538200D+01 -.316881847051769D+02
 0.135426387165091D+03 0.104108981741302D+03 -.550175036677934D+01 0.316881847051769D+02
 0.648659041747907D+02 -.428642268688923D+02 0.409659170139733D+01 0.485124882455775D+02
0.317265945274D-03 0.000000000000D+00 0.000000000000D+00 0.240807600755D-02 0.000000000000D+00  5 2 -1 25 24 21 0 0.88591026D-01 0.50452367D-02 0.17864185D+05 0.17864185D+05 0.17864185D+05 0.12392625D+01  1  2  2  1  5  1        2 0.316577119178D+00 0.100000000000D+01
-.176093673436D-04 0.000000000000D+00 -.121838476789D-05 0.240807600755D-02 0.000000000000D+00  5 2 -1 25 24 21 2 0.88591026D-01 0.50452367D-02 0.17864185D+05 0.17864185D+05 0.17864185D+05 0.12392625D+01  1  2  3  1  5  1        2 -.269852488273D-01 0.100000000000D+01
0.219304836851D-04 0.000000000000D+00 0.000000000000D+00 0.240807600755D-02 0.000000000000D+00  5 2 -1 25 24 21 2 0.88591026D-01 0.50452367D-02 0.17864185D+05 0.17864185D+05 0.17864185D+05 0.12392625D+01  1  2 15  1  5  1        2 0.336070880684D-01 0.100000000000D+01
0.432047987403D-03 0.000000000000D+00 0.000000000000D+00 0.240807600755D-02 0.000000000000D+00  5 2 -1 25 24 21 2 0.12834503D+00 0.50452367D-02 0.24638155D+05 0.24638155D+05 0.24638155D+05 0.12239771D+01  1  2 12  1  5  1        2 0.419026058553D+00 0.100000000000D+01
-.467336325194D-03 0.000000000000D+00 0.000000000000D+00 0.240807600755D-02 0.000000000000D+00  5 2 -1 25 24 21 2 0.88591026D-01 0.50452367D-02 0.17864185D+05 0.17864185D+05 0.17864185D+05 0.12392625D+01  1  2  4  1  5  1        2 -.716163549508D+00 0.100000000000D+01
-.610026508513D-03 0.000000000000D+00 -.147558267726D-03 0.240807600755D-02 0.000000000000D+00  5 2 -1 25 24 21 2 0.13141334D+00 0.50452367D-02 0.17864185D+05 0.17864185D+05 0.17864185D+05 0.12392625D+01  1  2  5  1  5  1        2 -.584285098038D+00 0.100000000000D+01
0.629414038007D-03 0.000000000000D+00 0.136785641655D-03 0.240807600755D-02 0.000000000000D+00  5 2 -1 25 24 21 2 0.88591026D-01 0.50452367D-02 0.17864185D+05 0.17864185D+05 0.17864185D+05 0.12392625D+01  1  2  6  1  5  1        2 0.964537458932D+00 0.100000000000D+01
0.194554418313D-04 0.000000000000D+00 0.000000000000D+00 0.240807600755D-02 0.000000000000D+00  5 21 -1 25 24 -2 2 0.12834503D+00 0.50452367D-02 0.24638155D+05 0.24638155D+05 0.24638155D+05 0.12239771D+01  1  2 12  3  5  1        2 0.201373430209D-01 0.100000000000D+01
-.237949160653D-04 0.000000000000D+00 -.695046330915D-05 0.240807600755D-02 0.000000000000D+00  5 21 -1 25 24 -2 2 0.13141334D+00 0.50452367D-02 0.17864185D+05 0.17864185D+05 0.17864185D+05 0.12392625D+01  1  2  5  3  5  1        2 -.239281384108D-01 0.100000000000D+01
  </mgrwgt>
  </event>
  <event>
  4     66 0.48098993E-03 0.67837971E+02 0.75467711E-02 0.12485404E+00
        2 -1    0    0  501    0 0.00000000E+00 0.00000000E+00 0.27897828E+04 0.27897828E+04 0.32000000E+00 0.0000E+00 0.9000E+01
       -1 -1    0    0    0  501 0.00000000E+00 0.00000000E+00 -.51206783E+01 0.51306672E+01 0.32000000E+00 0.0000E+00 0.9000E+01
       25  1    1    2    0    0 -.13463279E+02 -.48118487E+02 0.12235667E+04 0.12309496E+04 0.12500000E+03 0.0000E+00 0.9000E+01
       24  1    1    2    0    0 0.13463279E+02 0.48118487E+02 0.15610955E+04 0.15639638E+04 0.80419002E+02 0.0000E+00 0.9000E+01
#aMCatNLO 1  0  0  1  2 0.42113322D+01 0.00000000D+00  -5  5  0 0.00000000D+00 0.00000000D+00 0.00000000D+00 0.00000000D+00 0.00000000D+00
  <mgrwgt>
 0.7779888902D+00   11    2    0
 0.119580788357181D+03 0.000000000000000D+00 0.000000000000000D+00 0.119580788357181D+03
 0.119580788357181D+03 0.000000000000000D+00 0.000000000000000D+00 -.119580788357181D+03
 0.138726388941189D+03 -.134632790415019D+02 -.481184873052085D+02 -.335165971657490D+02
 0.100435187773173D+03 0.134632790415019D+02 0.481184873052085D+02 0.335165971657490D+02
 0.000000000000000D+00 0.000000000000000D+00 0.000000000000000D+00 0.000000000000000D+00
 0.126697508341436D+03 0.000000000000000D+00 0.000000000000000D+00 0.126697508341436D+03
 0.120223968959250D+03 0.000000000000000D+00 0.000000000000000D+00 -.120223968959250D+03
 0.139559577336692D+03 -.149828028078388D+02 -.500402733890069D+02 -.335165971657490D+02
 0.996390746154675D+02 0.123708143340712D+02 0.467368152851370D+02 0.335165971657490D+02
 0.772282534852599D+01 0.261198847376760D+01 0.330345810386987D+01 0.647353938218633D+01
0.282608653386D-03 0.000000000000D+00 0.000000000000D+00 0.260188454821D-02 0.000000000000D+00  5 2 -1 25 24 21 0 0.42919812D+00 0.78856645D-03 0.13143976D+05 0.13143976D+05 0.13143976D+05 0.12544157D+01  1  2  2  1  5  1        2 0.234327007701D+00 0.100000000000D+01
-.156665936263D-04 0.000000000000D+00 -.108529164157D-05 0.260188454821D-02 0.000000000000D+00  5 2 -1 25 24 21 2 0.42919812D+00 0.78856645D-03 0.13143976D+05 0.13143976D+05 0.13143976D+05 0.12544157D+01  1  2  3  1  5  1        2 -.204406361378D-01 0.100000000000D+01
0.194725864371D-04 0.000000000000D+00 0.000000000000D+00 0.260188454821D-02 0.000000000000D+00  5 2 -1 25 24 21 2 0.42919812D+00 0.78856645D-03 0.13143976D+05 0.13143976D+05 0.13143976D+05 0.12544157D+01  1  2 15  1  5  1        2 0.254064197692D-01 0.100000000000D+01
0.273864023029D-03 0.000000000000D+00 0.000000000000D+00 0.260188454821D-02 0.000000000000D+00  5 2 -1 25 24 21 2 0.45585551D+00 0.78856645D-03 0.13632805D+05 0.13632805D+05 0.13632805D+05 0.12525822D+01  1  2 12  1  5  1        2 0.284774571596D+00 0.100000000000D+01
-.259224483629D-02 0.000000000000D+00 0.000000000000D+00 0.260188454821D-02 0.000000000000D+00  5 2 -1 25 24 21 2 0.42919812D+00 0.78856645D-03 0.13143976D+05 0.13143976D+05 0.13143976D+05 0.12544157D+01  1  2  4  1  5  1        2 -.338217322428D+01 0.100000000000D+01
-.465652686307D-02 0.000000000000D+00 -.432664923225D-03 0.260188454821D-02 0.000000000000D+00  5 2 -1 25 24 21 2 0.45541776D+00 0.78856645D-03 0.13143976D+05 0.13143976D+05 0.13143976D+05 0.12544157D+01  1  2  5  1  5  1        2 -.487383333966D+01 0.100000000000D+01
0.467472116472D-02 0.000000000000D+00 0.431905394733D-03 0.260188454821D-02 0.000000000000D+00  5 2 -1 25 24 21 2 0.42919812D+00 0.78856645D-03 0.13143976D+05 0.13143976D+05 0.13143976D+05 0.12544157D+01  1  2  6  1  5  1        2 0.609923743814D+01 0.100000000000D+01
0.231672470438D-02 0.000000000000D+00 0.000000000000D+00 0.260188454821D-02 0.122942745537D-02  5 2 -1 25 24 21 2 0.45474138D+00 0.79280786D-03 0.13632805D+05 0.13632805D+05 0.13632805D+05 0.12525822D+01  1  2 11  1  5  1        2 0.241365236188D+01 0.100000000000D+01
0.396970065849D-05 0.000000000000D+00 0.000000000000D+00 0.260188454821D-02 0.000000000000D+00  5 21 -1 25 24 -2 2 0.45585551D+00 0.78856645D-03 0.13632805D+05 0.13632805D+05 0.13632805D+05 0.12525822D+01  1  2 12  3  5  1        2 0.603468792175D-03 0.100000000000D+01
-.469368861511D-04 0.000000000000D+00 -.441034087318D-05 0.260188454821D-02 0.000000000000D+00  5 21 -1 25 24 -2 2 0.45541776D+00 0.78856645D-03 0.13143976D+05 0.13143976D+05 0.13143976D+05 0.12544157D+01  1  2  5  3  5  1        2 -.723051270956D-02 0.100000000000D+01
0.238889059905D-04 0.000000000000D+00 0.000000000000D+00 0.260188454821D-02 0.123290461540D-04  5 21 -1 25 24 -2 2 0.45474138D+00 0.79280786D-03 0.13632805D+05 0.13632805D+05 0.13632805D+05 0.12525822D+01  1  2 11  3  5  1        2 0.366533510683D-02 0.100000000000D+01
  </mgrwgt>
  </event>
  <event>
  4     66 0.48098993E-03 0.27279071E+03 0.75467711E-02 0.10924301E+00
        2 -1    0    0  501    0 0.00000000E+00 0.00000000E+00 0.57102516E+03 0.57102525E+03 0.32000000E+00 0.0000E+00 0.9000E+01
       -1 -1    0    0    0  501 0.00000000E+00 0.00000000E+00 -.13060855E+03 0.13060894E+03 0.32000000E+00 0.0000E+00 0.9000E+01
       25  1    1    2    0    0 0.25176958E+03 -.71542048E+01 0.24351940E+03 0.37197554E+03 0.12500000E+03 0.0000E+00 0.9000E+01
       24  1    1    2    0    0 -.25176958E+03 0.71542048E+01 0.19689721E+03 0.32965866E+03 0.80419002E+02 0.0000E+00 0.9000E+01
#aMCatNLO 1  0  0  1  1 0.25905094D+02 0.00000000D+00  -5  5  0 0.00000000D+00 0.00000000D+00 0.00000000D+00 0.00000000D+00 0.00000000D+00
  <mgrwgt>
 0.4776033660D+00    4    2    0
 0.273095108519011D+03 0.000000000000000D+00 0.000000000000000D+00 0.273095108519011D+03
 0.273095108519011D+03 0.000000000000000D+00 0.000000000000000D+00 -.273095108519011D+03
 0.281478437037134D+03 0.251769577320406D+03 -.715420478238343D+01 0.128844016820312D+02
 0.264711780000888D+03 -.251769577320406D+03 0.715420478238343D+01 -.128844016820312D+02
 0.000000000000000D+00 -.000000000000000D+00 0.000000000000000D+00 -.000000000000000D+00
 0.275440737228310D+03 0.000000000000000D+00 0.000000000000000D+00 0.275440737228310D+03
 0.355696410413907D+03 0.000000000000000D+00 0.000000000000000D+00 -.355696410413907D+03
 0.293732659653799D+03 0.265373644917276D+03 -.804339007573583D+01 0.128844016820312D+02
 0.253071534824384D+03 -.239523709227914D+03 0.635379374835697D+01 -.128844016820312D+02
 0.843329531640333D+02 -.258499356893612D+02 0.168959632737886D+01 -.802556731855974D+02
0.419175899843D-02 0.000000000000D+00 0.000000000000D+00 0.202933045870D-02 0.000000000000D+00  5 2 -1 25 24 21 0 0.87850062D-01 0.20093660D-01 0.74414774D+05 0.74414774D+05 0.74414774D+05 0.11755488D+01  1  2  2  1  5  1        2 0.511168021961D+00 0.100000000000D+01
-.232875147756D-03 0.000000000000D+00 -.160974582695D-04 0.202933045870D-02 0.000000000000D+00  5 2 -1 25 24 21 2 0.87850062D-01 0.20093660D-01 0.74414774D+05 0.74414774D+05 0.74414774D+05 0.11755488D+01  1  2  3  1  5  1        2 -.392438686225D-01 0.100000000000D+01
0.287500072731D-03 0.000000000000D+00 0.000000000000D+00 0.202933045870D-02 0.000000000000D+00  5 2 -1 25 24 21 2 0.87850062D-01 0.20093660D-01 0.74414774D+05 0.74414774D+05 0.74414774D+05 0.11755488D+01  1  2 15  1  5  1        2 0.484492020378D-01 0.100000000000D+01
-.253799331114D-03 0.000000000000D+00 0.000000000000D+00 0.202933045870D-02 0.000000000000D+00  5 2 -1 25 24 21 2 0.87850062D-01 0.20093660D-01 0.74414774D+05 0.74414774D+05 0.74414774D+05 0.11755488D+01  1  2  4  1  5  1        2 -.427699894242D-01 0.100000000000D+01
  </mgrwgt>
  </event>
  <event>
  4     66 0.48098993E-03 0.15589097E+03 0.75467711E-02 0.10321480E+00
        2 -1    0    0  501    0 0.00000000E+00 0.00000000E+00 0.58639137E+02 0.58640010E+02 0.32000000E+00 0.0000E+00 0.9000E+01
       -1 -1    0    0    0  501 0.00000000E+00 0.00000000E+00 -.46184189E+03 0.46184200E+03 0.32000000E+00 0.0000E+00 0.9000E+01
       25  1    1    2    0    0 -.28416911E+02 0.11253466E+03 -.13559393E+03 0.21790430E+03 0.12500000E+03 0.0000E+00 0.9000E+01
       24  1    1    2    0    0 0.28416911E+02 -.11253466E+03 -.26760882E+03 0.30257770E+03 0.80419002E+02 0.0000E+00 0.9000E+01
#aMCatNLO 1  0  0  1  1 0.37966603D+03 0.00000000D+00  -5  5  0 0.00000000D+00 0.00000000D+00 0.00000000D+00 0.00000000D+00 0.00000000D+00
  <mgrwgt>
 0.3905142005D+00    5    2    0
 0.164566903241515D+03 0.000000000000000D+00 0.000000000000000D+00 0.164566903241515D+03
 0.164566903241515D+03 0.000000000000000D+00 0.000000000000000D+00 -.164566903241515D+03
 0.178478850092987D+03 -.284169112553869D+02 0.112534662930934D+03 0.525178895638383D+02
 0.150654956390042D+03 0.284169112553869D+02 -.112534662930934D+03 -.525178895638383D+02
 0.000000000000000D+00 0.000000000000000D+00 0.000000000000000D+00 0.000000000000000D+00
 0.468039345881815D+03 0.000000000000000D+00 0.000000000000000D+00 0.468039345881815D+03
 0.417451365927798D+03 0.000000000000000D+00 0.000000000000000D+00 -.417451365927798D+03
 0.227198172186689D+03 -.182078038668327D+03 0.913611270880872D+01 0.525178895638383D+02
 0.275271084513207D+03 -.132914078781813D+03 -.221094262594146D+03 -.525178895638383D+02
 0.383021455109717D+03 0.314992117450139D+03 0.211958149885337D+03 0.505879799540163D+02
0.171124594014D-02 0.000000000000D+00 0.000000000000D+00 0.209162810274D-02 0.000000000000D+00  5 2 -1 25 24 21 0 0.90214813D-02 0.71052674D-01 0.24301995D+05 0.24301995D+05 0.24301995D+05 0.12246184D+01  1  2  2  1  5  1        2 0.290429180652D+00 0.100000000000D+01
-.947301529643D-04 0.000000000000D+00 -.657163499153D-05 0.209162810274D-02 0.000000000000D+00  5 2 -1 25 24 21 2 0.90214813D-02 0.71052674D-01 0.24301995D+05 0.24301995D+05 0.24301995D+05 0.12246184D+01  1  2  3  1  5  1        2 -.241111310397D-01 0.100000000000D+01
0.118073785460D-03 0.000000000000D+00 0.000000000000D+00 0.209162810274D-02 0.000000000000D+00  5 2 -1 25 24 21 2 0.90214813D-02 0.71052674D-01 0.24301995D+05 0.24301995D+05 0.24301995D+05 0.12246184D+01  1  2 15  1  5  1        2 0.300526540335D-01 0.100000000000D+01
0.226763865271D-02 0.000000000000D+00 -.109039692224D-02 0.209162810274D-02 0.000000000000D+00  5 2 -1 25 24 21 2 0.63239262D-01 0.71052674D-01 0.24301995D+05 0.24301995D+05 0.24301995D+05 0.12246184D+01  1  2  5  1  5  1        2 0.641576703392D-01 0.100000000000D+01
0.436816377029D-03 0.000000000000D+00 -.259532622205D-03 0.209162810274D-02 0.000000000000D+00  5 21 -1 25 24 -2 2 0.63239262D-01 0.71052674D-01 0.24301995D+05 0.24301995D+05 0.24301995D+05 0.12246184D+01  1  2  5  3  5  1        2 0.299858264768D-01 0.100000000000D+01
  </mgrwgt>
  </event>
  <event>
  4     66 0.48098993E-03 0.11360943E+03 0.75467711E-02 0.11698291E+00
        2 -1    0    0  501    0 0.00000000E+00 0.00000000E+00 0.12295938E+03 0.12295980E+03 0.32000000E+00 0.0000E+00 0.9000E+01
       -1 -1    0    0    0  501 0.00000000E+00 0.00000000E+00 -.14014036E+03 0.14014072E+03 0.32000000E+00 0.0000E+00 0.9000E+01
       25  1    1    2    0    0 0.43909597E+02 0.18413061E+02 -.74852799E+02 0.15328090E+03 0.12500000E+03 0.0000E+00 0.9000E+01
       24  1    1    2    0    0 -.43909597E+02 -.18413061E+02 0.57671826E+02 0.10981962E+03 0.80419002E+02 0.0000E+00 0.9000E+01
#aMCatNLO 1  0  0  1  2 0.10721983D+03 0.00000000D+00  -5  5  0 0.00000000D+00 0.00000000D+00 0.00000000D+00 0.00000000D+00 0.00000000D+00
  <mgrwgt>
 0.2981509100D+00    3    2    0
 0.131269474071568D+03 0.000000000000000D+00 0.000000000000000D+00 0.131269474071568D+03
 0.131269474071568D+03 0.000000000000000D+00 0.000000000000000D+00 -.131269474071568D+03
 0.148710284493031D+03 0.439095972728957D+02 0.184130612492537D+02 -.649819602409901D+02
 0.113828663650105D+03 -.439095972728957D+02 -.184130612492537D+02 0.649819602409901D+02
 0.000000000000000D+00 -.000000000000000D+00 -.000000000000000D+00 -.000000000000000D+00
 0.193167001786550D+03 0.000000000000000D+00 0.000000000000000D+00 0.193167001786550D+03
 0.197739397527403D+03 0.000000000000000D+00 0.000000000000000D+00 -.197739397527403D+03
 0.179565096756159D+03 0.107466392201467D+03 0.291022913786461D+02 -.649819602409901D+02
 0.104024025733271D+03 -.173153734318490D+01 -.113193903127838D+02 0.649819602409901D+02
 0.107317276824523D+03 -.105734854858282D+03 -.177829010658623D+02 -.457239574085296D+01
0.514372492706D-03 0.000000000000D+00 0.000000000000D+00 0.203767960212D-02 0.000000000000D+00  5 2 -1 25 24 21 0 0.18916888D-01 0.21560115D-01 0.12907102D+05 0.12907102D+05 0.12907102D+05 0.12553319D+01  1  2  2  1  5  1        2 0.291525458159D+00 0.100000000000D+01
-.278509176385D-04 0.000000000000D+00 -.197532580938D-05 0.203767960212D-02 0.000000000000D+00  5 2 -1 25 24 21 2 0.18916888D-01 0.21560115D-01 0.12907102D+05 0.12907102D+05 0.12907102D+05 0.12553319D+01  1  2  3  1  5  1        2 -.248745584971D-01 0.100000000000D+01
0.352691363181D-04 0.000000000000D+00 0.000000000000D+00 0.203767960212D-02 0.000000000000D+00  5 2 -1 25 24 21 2 0.18916888D-01 0.21560115D-01 0.12907102D+05 0.12907102D+05 0.12907102D+05 0.12553319D+01  1  2 15  1  5  1        2 0.315000103721D-01 0.100000000000D+01
  </mgrwgt>
  </event>
  <event>
  4     66 0.48098993E-03 0.11311550E+03 0.75467711E-02 0.11938238E+00
        2 -1    0    0  501    0 0.00000000E+00 0.00000000E+00 0.23887798E+03 0.23887819E+03 0.32000000E+00 0.0000E+00 0.9000E+01
       -1 -1    0    0    0  501 0.00000000E+00 0.00000000E+00 -.60393316E+02 0.60394164E+02 0.32000000E+00 0.0000E+00 0.9000E+01
       25  1    1    2    0    0 -.45329998E+02 -.10190792E+02 0.15300820E+03 0.20296593E+03 0.12500000E+03 0.0000E+00 0.9000E+01
       24  1    1    2    0    0 0.45329998E+02 0.10190792E+02 0.25476464E+02 0.96306423E+02 0.80419002E+02 0.0000E+00 0.9000E+01
#aMCatNLO 1  0  0  2  2 0.73899707D+02 0.00000000D+00  -5  5  0 0.00000000D+00 0.00000000D+00 0.00000000D+00 0.00000000D+00 0.00000000D+00
  <mgrwgt>
 0.3248473049D+00    3    2    0
 0.120111581435242D+03 0.000000000000000D+00 0.000000000000000D+00 0.120111581435242D+03
 0.120111581435242D+03 0.000000000000000D+00 0.000000000000000D+00 -.120111581435242D+03
 0.139172574422348D+03 -.453299983788349D+02 -.101907924264737D+02 0.398163844169640D+02
 0.101050588448136D+03 0.453299983788349D+02 0.101907924264737D+02 -.398163844169640D+02
 0.000000000000000D+00 0.000000000000000D+00 0.000000000000000D+00 0.000000000000000D+00
 0.212807679832824D+03 0.000000000000000D+00 0.000000000000000D+00 0.212807679832824D+03
 0.141334151121115D+03 0.000000000000000D+00 0.000000000000000D+00 -.141334151121115D+03
 0.159740774590959D+03 -.901555148543451D+02 -.133698818329856D+02 0.398163844169640D+02
 0.915923404845623D+02 0.164409614279331D+02 0.814194082238525D+01 -.398163844169640D+02
 0.102808715878418D+03 0.737145534264119D+02 0.522794101060038D+01 0.714735287117096D+02
0.312931470549D-03 0.000000000000D+00 0.000000000000D+00 0.251679087844D-02 0.000000000000D+00  5 2 -1 25 24 21 0 0.36750539D-01 0.92913611D-02 0.12795116D+05 0.12795116D+05 0.12795116D+05 0.12557717D+01  1  2  2  2  5  2       -1 0.317903886518D+00 0.100000000000D+01
-.173089560394D-04 0.000000000000D+00 -.120173924366D-05 0.251679087844D-02 0.000000000000D+00  5 2 -1 25 24 21 2 0.36750539D-01 0.92913611D-02 0.12795116D+05 0.12795116D+05 0.12795116D+05 0.12557717D+01  1  2  3  2  5  2       -1 -.277292946752D-01 0.100000000000D+01
0.216431204839D-04 0.000000000000D+00 0.000000000000D+00 0.251679087844D-02 0.000000000000D+00  5 2 -1 25 24 21 2 0.36750539D-01 0.92913611D-02 0.12795116D+05 0.12795116D+05 0.12795116D+05 0.12557717D+01  1  2 15  2  5  2       -1 0.346727130292D-01 0.100000000000D+01
  </mgrwgt>
  </event>
  <event>
  4     66 0.48098993E-03 0.65391194E+02 0.75467711E-02 0.12290813E+00
        2 -1    0    0  501    0 0.00000000E+00 0.00000000E+00 0.91746079E+03 0.91746084E+03 0.32000000E+00 0.0000E+00 0.9000E+01
       -1 -1    0    0    0  501 0.00000000E+00 0.00000000E+00 -.15163103E+02 0.15166479E+02 0.32000000E+00 0.0000E+00 0.9000E+01
       25  1    1    2    0    0 -.12484647E+02 -.49928302E+02 0.42894772E+03 0.44974421E+03 0.12500000E+03 0.0000E+00 0.9000E+01
       24  1    1    2    0    0 0.12484647E+02 0.49928302E+02 0.47334996E+03 0.48288312E+03 0.80419002E+02 0.0000E+00 0.9000E+01
#aMCatNLO 1  0  0  1  2 0.25669272D+02 0.00000000D+00  -5  5  0 0.00000000D+00 0.00000000D+00 0.00000000D+00 0.00000000D+00 0.00000000D+00
  <mgrwgt>
 0.3997271450D+00    9    2    0
 0.117954027622015D+03 0.000000000000000D+00 0.000000000000000D+00 0.117954027622015D+03
 0.117954027622015D+03 0.000000000000000D+00 0.000000000000000D+00 -.117954027622015D+03
 0.137363674393415D+03 -.124846474932527D+02 -.499283023289103D+02 -.243942051803788D+02
 0.985443808506137D+02 0.124846474932527D+02 0.499283023289103D+02 0.243942051803788D+02
 0.000000000000000D+00 -.000000000000000D+00 -.000000000000000D+00 0.000000000000000D+00
 0.184370325712839D+03 0.000000000000000D+00 0.000000000000000D+00 0.184370325712839D+03
 0.121156752127953D+03 0.000000000000000D+00 0.000000000000000D+00 -.121156752127953D+03
 0.132970518818229D+03 -.392392145995295D+01 -.380221576029394D+02 -.243942051803788D+02
 0.104329970163539D+03 0.189091094437835D+02 0.588633591771237D+02 0.243942051803788D+02
 0.682265888590234D+02 -.149851879838305D+02 -.208412015741843D+02 0.632135735848852D+02
0.184712310093D-03 0.000000000000D+00 0.000000000000D+00 0.271971996254D-02 0.000000000000D+00  5 2 -1 25 24 21 0 0.14114808D+00 0.23330490D-02 0.13300729D+05 0.13300729D+05 0.13300729D+05 0.12538195D+01  1  2  2  1  5  1        2 0.320688332926D+00 0.100000000000D+01
-.102554741687D-04 0.000000000000D+00 -.709343906627D-06 0.271971996254D-02 0.000000000000D+00  5 2 -1 25 24 21 2 0.14114808D+00 0.23330490D-02 0.13300729D+05 0.13300729D+05 0.13300729D+05 0.12538195D+01  1  2  3  1  5  1        2 -.279906576902D-01 0.100000000000D+01
0.127951017034D-04 0.000000000000D+00 0.000000000000D+00 0.271971996254D-02 0.000000000000D+00  5 2 -1 25 24 21 2 0.14114808D+00 0.23330490D-02 0.13300729D+05 0.13300729D+05 0.13300729D+05 0.12538195D+01  1  2 15  1  5  1        2 0.349221602045D-01 0.100000000000D+01
0.666458451611D-03 0.000000000000D+00 0.000000000000D+00 0.271971996254D-02 0.000000000000D+00  5 2 -1 25 24 21 2 0.22164924D+00 0.23330490D-02 0.16617917D+05 0.16617917D+05 0.16617917D+05 0.12427828D+01  1  2 12  1  5  1        2 0.916185656685D+00 0.100000000000D+01
-.635076730089D-03 0.000000000000D+00 0.000000000000D+00 0.271971996254D-02 0.000000000000D+00  5 2 -1 25 24 21 2 0.14114808D+00 0.23330490D-02 0.13300729D+05 0.13300729D+05 0.13300729D+05 0.12538195D+01  1  2  4  1  5  1        2 -.173333919686D+01 0.100000000000D+01
-.726129409241D-03 0.000000000000D+00 -.738379447849D-04 0.271971996254D-02 0.000000000000D+00  5 2 -1 25 24 21 2 0.22271082D+00 0.23330490D-02 0.13300729D+05 0.13300729D+05 0.13300729D+05 0.12538195D+01  1  2  5  1  5  1        2 -.100289326898D+01 0.100000000000D+01
0.693489720856D-03 0.000000000000D+00 0.667725669500D-04 0.271971996254D-02 0.000000000000D+00  5 2 -1 25 24 21 2 0.14114808D+00 0.23330490D-02 0.13300729D+05 0.13300729D+05 0.13300729D+05 0.12538195D+01  1  2  6  1  5  1        2 0.189276800555D+01 0.100000000000D+01
0.347077199907D-04 0.000000000000D+00 0.000000000000D+00 0.271971996254D-02 0.000000000000D+00  5 21 -1 25 24 -2 2 0.22164924D+00 0.23330490D-02 0.16617917D+05 0.16617917D+05 0.16617917D+05 0.12427828D+01  1  2 12  3  5  1        2 0.260121953221D-01 0.100000000000D+01
-.351318764782D-04 0.000000000000D+00 -.387624374384D-05 0.271971996254D-02 0.000000000000D+00  5 21 -1 25 24 -2 2 0.22271082D+00 0.23330490D-02 0.13300729D+05 0.13300729D+05 0.13300729D+05 0.12538195D+01  1  2  5  3  5  1        2 -.266260821622D-01 0.100000000000D+01
  </mgrwgt>
  </event>
  <event>
  5     66 0.48098993E-03 0.18810129E+03 0.75467711E-02 0.11253795E+00
        2 -1    0    0  501    0 0.00000000E+00 0.00000000E+00 0.30309528E+04 0.30309528E+04 0.32000000E+00 0.0000E+00 0.9000E+01
       21 -1    0    0  502  501 0.00000000E+00 0.00000000E+00 -.18510689E+02 0.18525876E+02 0.75000000E+00 0.0000E+00 0.9000E+01
       25  1    1    2    0    0 -.48603731E+02 -.18669546E+03 0.18068072E+04 0.18213717E+04 0.12500000E+03 0.0000E+00 0.9000E+01
       24  1    1    2    0    0 0.71444331E+02 0.11064240E+03 0.77589002E+03 0.79108696E+03 0.80419002E+02 0.0000E+00 0.9000E+01
        1  1    1    2  502    0 -.22840600E+02 0.76053066E+02 0.42974488E+03 0.43702005E+03 0.32000000E+00 0.0000E+00 0.9000E+01
#aMCatNLO 2  0  0  2  1 0.79408828D+02 0.00000000D+00  -5  5  0 0.00000000D+00 0.00000000D+00 0.00000000D+00 0.00000000D+00 0.00000000D+00
  <mgrwgt>
 0.1414123104D-01    2    2    0
 0.192554797453844D+03 0.000000000000000D+00 0.000000000000000D+00 0.192554797453844D+03
 0.192554797453844D+03 0.000000000000000D+00 0.000000000000000D+00 -.192554797453844D+03
 0.204444638899920D+03 -.614562005812577D+02 -.143900187880419D+03 0.410911391058330D+02
 0.180664956007769D+03 0.614562005812577D+02 0.143900187880419D+03 -.410911391058330D+02
 0.000000000000000D+00 -.000000000000000D+00 0.000000000000000D+00 -.000000000000000D+00
 0.229407248779483D+03 0.000000000000000D+00 0.000000000000000D+00 0.229407248779483D+03
 0.244665572683587D+03 0.000000000000000D+00 0.000000000000000D+00 -.244665572683587D+03
 0.233518735236270D+03 -.486037310717183D+02 -.186695461431821D+03 0.410911391058330D+02
 0.159692609954291D+03 0.714443308615494D+02 0.110642395104107D+03 -.410911391058330D+02
 0.808614762725087D+02 -.228405997898311D+02 0.760530663277142D+02 -.152583239041038D+02
-.167822483682D-04 0.000000000000D+00 0.000000000000D+00 0.209269235564D-02 0.000000000000D+00  5 2 21 25 24 1 2 0.39139343D+00 0.30148470D-02 0.53731066D+05 0.53731066D+05 0.53731066D+05 0.11891987D+01  1  2 13  4  5  2       -1 -.729576008071D-01 0.100000000000D+01
0.345124893945D-04 0.000000000000D+00 0.000000000000D+00 0.209269235564D-02 0.103652767456D-06  5 2 21 25 24 1 2 0.46630097D+00 0.28489640D-02 0.53731066D+05 0.53731066D+05 0.53731066D+05 0.11891987D+01  1  2  1  4  5  2       -1 0.870988318503D-01 0.100000000000D+01
  </mgrwgt>
  </event>
  <event>
  5     66 0.48098993E-03 0.11347222E+03 0.75467711E-02 0.11200862E+00
        2 -1    0    0  501    0 0.00000000E+00 0.00000000E+00 0.15752696E+04 0.15752696E+04 0.32000000E+00 0.0000E+00 0.9000E+01
       21 -1    0    0  502  501 0.00000000E+00 0.00000000E+00 -.44095938E+02 0.44102316E+02 0.75000000E+00 0.0000E+00 0.9000E+01
       25  1    1    2    0    0 -.26295039E+02 -.13584493E+03 0.32560355E+03 0.37521720E+03 0.12500000E+03 0.0000E+00 0.9000E+01
       24  1    1    2    0    0 0.46912578E+02 -.49992150E+02 0.63489341E+03 0.64362789E+03 0.80419002E+02 0.0000E+00 0.9000E+01
        1  1    1    2  502    0 -.20617539E+02 0.18583708E+03 0.57067666E+03 0.60052682E+03 0.32000000E+00 0.0000E+00 0.9000E+01
#aMCatNLO 2  0  0  2  1 0.18697728D+03 0.00000000D+00  -5  5  0 0.00000000D+00 0.00000000D+00 0.00000000D+00 0.00000000D+00 0.00000000D+00
  <mgrwgt>
 0.1192298583D+00    1    2    0
 0.141889397374300D+03 0.000000000000000D+00 0.000000000000000D+00 0.141889397374300D+03
 0.141889397374300D+03 0.000000000000000D+00 0.000000000000000D+00 -.141889397374300D+03
 0.158024824360207D+03 -.382853705289699D+02 -.277695546560307D+02 -.843203851493785D+02
 0.125753970388393D+03 0.382853705289699D+02 0.277695546560307D+02 0.843203851493785D+02
 0.000000000000000D+00 -.000000000000000D+00 0.000000000000000D+00 0.000000000000000D+00
 0.270463452048181D+03 0.000000000000000D+00 0.000000000000000D+00 0.270463452048181D+03
 0.256848408751183D+03 0.000000000000000D+00 0.000000000000000D+00 -.256848408751183D+03
 0.204646529445374D+03 -.262950385175273D+02 -.135844932226633D+03 -.843203851493785D+02
 0.135193003977377D+03 0.469125775779839D+02 -.499921502168755D+02 0.843203851493785D+02
 0.187472327376613D+03 -.206175390604565D+02 0.185837082443509D+03 0.136150432969974D+02
0.335216732605D-04 0.000000000000D+00 0.000000000000D+00 0.168981118581D-02 0.921478179923D-07  5 2 21 25 24 1 2 0.24234953D+00 0.67844801D-02 0.57389053D+05 0.57389053D+05 0.57389053D+05 0.11863987D+01  1  2  1  4  5  2       -1 0.119229858264D+00 0.100000000000D+01
  </mgrwgt>
  </event>
  <event>
  4     66 0.48098993E-03 0.76825384E+02 0.75467711E-02 0.11306073E+00
        2 -1    0    0  501    0 0.00000000E+00 0.00000000E+00 0.16758749E+03 0.16758780E+03 0.32000000E+00 0.0000E+00 0.9000E+01
       -1 -1    0    0    0  501 0.00000000E+00 0.00000000E+00 -.21763479E+03 0.21763503E+03 0.32000000E+00 0.0000E+00 0.9000E+01
       25  1    1    2    0    0 0.14926272E+03 -.56146931E+02 -.38473791E+02 0.20624517E+03 0.12500000E+03 0.0000E+00 0.9000E+01
       24  1    1    2    0    0 -.14926272E+03 0.56146931E+02 -.11573505E+02 0.17897765E+03 0.80419002E+02 0.0000E+00 0.9000E+01
#aMCatNLO 1  0  0  1  2 0.62583844D+02 0.00000000D+00  -5  5  0 0.00000000D+00 0.00000000D+00 0.00000000D+00 0.00000000D+00 0.00000000D+00
  <mgrwgt>
 0.2306108689D+00    7    2    0
 0.190978986899288D+03 0.000000000000000D+00 0.000000000000000D+00 0.190978986899288D+03
 0.190978986899288D+03 0.000000000000000D+00 0.000000000000000D+00 -.190978986899288D+03
 0.202966934100069D+03 0.149262723595940D+03 -.561469309733927D+02 -.117787021769422D+02
 0.178991039698507D+03 -.149262723595940D+03 0.561469309733927D+02 0.117787021769422D+02
 0.000000000000000D+00 -.000000000000000D+00 -.000000000000000D+00 0.000000000000000D+00
 0.377616431565053D+03 0.000000000000000D+00 0.000000000000000D+00 0.377616431565053D+03
 0.198844628319972D+03 0.000000000000000D+00 0.000000000000000D+00 -.198844628319972D+03
 0.221087153589822D+03 0.178127967902128D+03 -.372319581614327D+02 -.117787021769422D+02
 0.165964046161281D+03 -.125781726437655D+03 0.715336853044977D+02 0.117787021769422D+02
 0.189409860133923D+03 -.523462414644732D+02 -.343017271430650D+02 0.178771803245081D+03
0.141908732281D-02 0.000000000000D+00 0.000000000000D+00 0.218454944339D-02 0.000000000000D+00  5 2 -1 25 24 21 0 0.25782733D-01 0.33482317D-01 0.36333685D+05 0.36333685D+05 0.36333685D+05 0.12062632D+01  1  2  2  1  5  1        2 0.280412840141D+00 0.100000000000D+01
-.788378337603D-04 0.000000000000D+00 -.544966897385D-05 0.218454944339D-02 0.000000000000D+00  5 2 -1 25 24 21 2 0.25782733D-01 0.33482317D-01 0.36333685D+05 0.36333685D+05 0.36333685D+05 0.12062632D+01  1  2  3  1  5  1        2 -.226677099678D-01 0.100000000000D+01
0.978513836564D-04 0.000000000000D+00 0.000000000000D+00 0.218454944339D-02 0.000000000000D+00  5 2 -1 25 24 21 2 0.25782733D-01 0.33482317D-01 0.36333685D+05 0.36333685D+05 0.36333685D+05 0.12062632D+01  1  2 15  1  5  1        2 0.281345475754D-01 0.100000000000D+01
0.455819493040D-02 0.000000000000D+00 0.000000000000D+00 0.218454944339D-02 0.000000000000D+00  5 2 -1 25 24 21 2 0.51008683D-01 0.33482317D-01 0.50378376D+05 0.50378376D+05 0.50378376D+05 0.11919576D+01  1  2 12  1  5  1        2 0.611691730066D+00 0.100000000000D+01
-.496600875501D-02 0.000000000000D+00 -.530236520735D-03 0.218454944339D-02 0.000000000000D+00  5 2 -1 25 24 21 2 0.52209795D-01 0.33482317D-01 0.36333685D+05 0.36333685D+05 0.36333685D+05 0.12062632D+01  1  2  5  1  5  1        2 -.665020211653D+00 0.100000000000D+01
0.336695202005D-03 0.000000000000D+00 0.000000000000D+00 0.218454944339D-02 0.000000000000D+00  5 21 -1 25 24 -2 2 0.51008683D-01 0.33482317D-01 0.50378376D+05 0.50378376D+05 0.50378376D+05 0.11919576D+01  1  2 12  3  5  1        2 0.134219105547D+00 0.100000000000D+01
-.346847407644D-03 0.000000000000D+00 -.404631624693D-04 0.218454944339D-02 0.000000000000D+00  5 21 -1 25 24 -2 2 0.52209795D-01 0.33482317D-01 0.36333685D+05 0.36333685D+05 0.36333685D+05 0.12062632D+01  1  2  5  3  5  1        2 -.136159432848D+00 0.100000000000D+01
  </mgrwgt>
  </event>
  <event>
  5     66 0.48098993E-03 0.20323490E+03 0.75467711E-02 0.10152094E+00
        2 -1    0    0  501    0 0.00000000E+00 0.00000000E+00 0.47768910E+03 0.47768921E+03 0.32000000E+00 0.0000E+00 0.9000E+01
       21 -1    0    0  502  501 0.00000000E+00 0.00000000E+00 -.10978546E+04 0.10978549E+04 0.75000000E+00 0.0000E+00 0.9000E+01
       25  1    1    2    0    0 -.14486603E+03 0.13971824E+03 0.11894190E+03 0.26510287E+03 0.12500000E+03 0.0000E+00 0.9000E+01
       24  1    1    2    0    0 0.19469821E+03 0.26831474E+03 0.11710341E+03 0.36066691E+03 0.80419002E+02 0.0000E+00 0.9000E+01
        1  1    1    2  502    0 -.49832178E+02 -.40803299E+03 -.85621081E+03 0.94977429E+03 0.32000000E+00 0.0000E+00 0.9000E+01
#aMCatNLO 2  0  0  2  2 0.41106467D+03 0.00000000D+00  -5  5  0 0.00000000D+00 0.00000000D+00 0.00000000D+00 0.00000000D+00 0.00000000D+00
  <mgrwgt>
 0.4327193611D-01    1    2    0
 0.204264693250903D+03 0.000000000000000D+00 0.000000000000000D+00 0.204264693250903D+03
 0.204264693250903D+03 0.000000000000000D+00 0.000000000000000D+00 -.204264693250903D+03
 0.215472924957374D+03 -.167726468686574D+03 -.474662859056460D+02 0.204539676821178D+02
 0.193056461544431D+03 0.167726468686574D+03 0.474662859056460D+02 -.204539676821178D+02
 0.000000000000000D+00 -.000000000000000D+00 -.000000000000000D+00 -.000000000000000D+00
 0.321230864940011D+03 0.000000000000000D+00 0.000000000000000D+00 0.321230864940011D+03
 0.163257478540423D+04 0.000000000000000D+00 0.000000000000000D+00 -.163257478540423D+04
 0.237803949853929D+03 -.144866030682380D+03 0.139718241208944D+03 0.204539676821178D+02
 0.341739338091612D+03 0.194698209143381D+03 0.268314743924634D+03 -.204539676821178D+02
 0.137426236239870D+04 -.498321784610015D+02 -.408032985133578D+03 -.131134392046422D+04
0.221958608739D-02 0.000000000000D+00 0.000000000000D+00 0.213120938089D-02 0.140595630912D-06  5 2 21 25 24 1 2 0.73490655D-01 0.16890073D+00 0.24458664D+06 0.24458664D+06 0.24458664D+06 0.11294909D+01  1  2  1  4  5  2       -1 0.432719361114D-01 0.100000000000D+01
  </mgrwgt>
  </event>
  <event>
  4     66 -.48098993E-03 0.60494839E+02 0.75467711E-02 0.11820041E+00
        2 -1    0    0  501    0 0.00000000E+00 0.00000000E+00 0.87636659E+02 0.87637243E+02 0.32000000E+00 0.0000E+00 0.9000E+01
       -1 -1    0    0    0  501 0.00000000E+00 0.00000000E+00 -.17971869E+03 0.17971897E+03 0.32000000E+00 0.0000E+00 0.9000E+01
       25  1    1    2    0    0 0.64405756E+02 -.24590113E+02 -.34783815E+02 0.14692750E+03 0.12500000E+03 0.0000E+00 0.9000E+01
       24  1    1    2    0    0 -.64405756E+02 0.24590113E+02 -.57298211E+02 0.12042872E+03 0.80419002E+02 0.0000E+00 0.9000E+01
#aMCatNLO 1  0  0  1  2 0.73064143D+02 0.00000000D+00  -5  5  0 0.00000000D+00 0.00000000D+00 0.00000000D+00 0.00000000D+00 0.00000000D+00
  <mgrwgt>
 -.6059718445D+00    7    2    0
 0.125499248164002D+03 0.000000000000000D+00 0.000000000000000D+00 0.125499248164002D+03
 0.125499248164002D+03 0.000000000000000D+00 0.000000000000000D+00 -.125499248164002D+03
 0.143741955151501D+03 0.644057564900332D+02 -.245901127007934D+02 0.168515447091672D+02
 0.107256541176502D+03 -.644057564900332D+02 0.245901127007934D+02 -.168515447091672D+02
 0.000000000000000D+00 -.000000000000000D+00 0.000000000000000D+00 0.000000000000000D+00
 0.109187987832641D+04 0.000000000000000D+00 0.000000000000000D+00 0.109187987832641D+04
 0.132096782233811D+03 0.000000000000000D+00 0.000000000000000D+00 -.132096782233811D+03
 0.163429301402933D+03 0.809821860231278D+02 -.651310029469935D+02 0.168515447091672D+02
 0.979872516370049D+02 -.533298201969015D+02 -.249824892360131D+01 -.168515447091672D+02
 0.962560107520282D+03 -.276523658262263D+02 0.676292518705948D+02 0.959783096092598D+03
0.519962841815D-03 0.000000000000D+00 0.000000000000D+00 0.264517456778D-02 0.000000000000D+00  5 2 -1 25 24 21 0 0.13482630D-01 0.27649095D-01 0.15459839D+05 0.15459839D+05 0.15459839D+05 0.12463303D+01  1  2  2  1  5  1        2 0.292260402763D+00 0.100000000000D+01
-.288837872829D-04 0.000000000000D+00 -.199679422193D-05 0.264517456778D-02 0.000000000000D+00  5 2 -1 25 24 21 2 0.13482630D-01 0.27649095D-01 0.15459839D+05 0.15459839D+05 0.15459839D+05 0.12463303D+01  1  2  3  1  5  1        2 -.252184349345D-01 0.100000000000D+01
0.359708855892D-04 0.000000000000D+00 0.000000000000D+00 0.264517456778D-02 0.000000000000D+00  5 2 -1 25 24 21 2 0.13482630D-01 0.27649095D-01 0.15459839D+05 0.15459839D+05 0.15459839D+05 0.12463303D+01  1  2 15  1  5  1        2 0.314061805290D-01 0.100000000000D+01
0.671113769622D-02 0.000000000000D+00 0.000000000000D+00 0.264517456778D-02 0.000000000000D+00  5 2 -1 25 24 21 2 0.11327322D+00 0.27649095D-01 0.27580849D+05 0.27580849D+05 0.27580849D+05 0.12187494D+01  1  2 12  1  5  1        2 0.532973523360D+00 0.100000000000D+01
-.155098172141D-01 0.000000000000D+00 -.398197489902D-03 0.264517456778D-02 0.000000000000D+00  5 2 -1 25 24 21 2 0.11886489D+00 0.27649095D-01 0.15459839D+05 0.15459839D+05 0.15459839D+05 0.12463303D+01  1  2  5  1  5  1        2 -.122021442645D+01 0.100000000000D+01
0.172767113796D-02 0.000000000000D+00 0.000000000000D+00 0.264517456778D-02 0.000000000000D+00  5 21 -1 25 24 -2 2 0.11327322D+00 0.27649095D-01 0.27580849D+05 0.27580849D+05 0.27580849D+05 0.12187494D+01  1  2 12  3  5  1        2 0.169728001825D+00 0.100000000000D+01
-.412178746645D-02 0.000000000000D+00 -.104416911441D-03 0.264517456778D-02 0.000000000000D+00  5 21 -1 25 24 -2 2 0.11886489D+00 0.27649095D-01 0.15459839D+05 0.15459839D+05 0.15459839D+05 0.12463303D+01  1  2  5  3  5  1        2 -.386907091562D+00 0.100000000000D+01
  </mgrwgt>
  </event>
  <event>
  4     66 0.48098993E-03 0.59709088E+02 0.75467711E-02 0.12113976E+00
        2 -1    0    0  501    0 0.00000000E+00 0.00000000E+00 0.23471303E+03 0.23471325E+03 0.32000000E+00 0.0000E+00 0.9000E+01
       -1 -1    0    0    0  501 0.00000000E+00 0.00000000E+00 -.13930902E+03 0.13930939E+03 0.32000000E+00 0.0000E+00 0.9000E+01
       25  1    1    2    0    0 0.60112003E+02 -.31125166E+02 -.84710538E+02 0.16547841E+03 0.12500000E+03 0.0000E+00 0.9000E+01
       24  1    1    2    0    0 -.60112003E+02 0.31125166E+02 0.18011454E+03 0.20854423E+03 0.80419002E+02 0.0000E+00 0.9000E+01
#aMCatNLO 1  0  0  2  1 0.34987371D+02 0.00000000D+00  -5  5  0 0.00000000D+00 0.00000000D+00 0.00000000D+00 0.00000000D+00 0.00000000D+00
  <mgrwgt>
 0.2744058659D+00    6    2    0
 0.180825196580404D+03 0.000000000000000D+00 0.000000000000000D+00 0.180825196580404D+03
 0.180825196580404D+03 0.000000000000000D+00 0.000000000000000D+00 -.180825196580404D+03
 0.193486297216284D+03 0.601120034697500D+02 -.311251656334323D+02 -.131262021596547D+03
 0.168164095944523D+03 -.601120034697500D+02 0.311251656334323D+02 0.131262021596547D+03
 0.000000000000000D+00 -.000000000000000D+00 0.000000000000000D+00 0.000000000000000D+00
 0.199583196102284D+03 0.000000000000000D+00 0.000000000000000D+00 0.199583196102284D+03
 0.198752880537431D+03 0.000000000000000D+00 0.000000000000000D+00 -.198752880537431D+03
 0.200569262164311D+03 0.731530246381199D+02 -.449660493908269D+02 -.131262021596547D+03
 0.162769592106679D+03 -.491599609760819D+02 0.195013867050944D+02 0.131262021596547D+03
 0.349972223687249D+02 -.239930636620380D+02 0.254646626857325D+02 0.830315564852553D+00
0.783597881652D-03 0.000000000000D+00 0.000000000000D+00 0.112455575182D-02 0.000000000000D+00  5 2 -1 25 24 21 0 0.36109742D-01 0.21432202D-01 0.15285424D+05 0.15285424D+05 0.15285424D+05 0.12468904D+01  1  2  2  2  5  2       -1 0.221939049802D+00 0.100000000000D+01
-.358819370696D-04 0.000000000000D+00 -.300922219160D-05 0.112455575182D-02 0.000000000000D+00  5 2 -1 25 24 21 2 0.36109742D-01 0.21432202D-01 0.15285424D+05 0.15285424D+05 0.15285424D+05 0.12468904D+01  1  2  3  2  5  2       -1 -.158005750358D-01 0.100000000000D+01
0.535824076794D-04 0.000000000000D+00 0.000000000000D+00 0.112455575182D-02 0.000000000000D+00  5 2 -1 25 24 21 2 0.36109742D-01 0.21432202D-01 0.15285424D+05 0.15285424D+05 0.15285424D+05 0.12468904D+01  1  2 15  2  5  2       -1 0.235949595334D-01 0.100000000000D+01
0.625505851027D-03 0.000000000000D+00 0.000000000000D+00 0.112455575182D-02 0.000000000000D+00  5 2 -1 25 24 21 2 0.36109742D-01 0.24561540D-01 0.20006708D+05 0.20006708D+05 0.20006708D+05 0.12338100D+01  1  2 12  2  5  2       -1 0.217230848958D+00 0.100000000000D+01
-.518334645005D-03 0.000000000000D+00 0.000000000000D+00 0.112455575182D-02 0.000000000000D+00  5 2 -1 25 24 21 2 0.36109742D-01 0.21432202D-01 0.15285424D+05 0.15285424D+05 0.15285424D+05 0.12468904D+01  1  2  4  2  5  2       -1 -.228248141570D+00 0.100000000000D+01
0.131941463926D-04 0.000000000000D+00 0.000000000000D+00 0.112455575182D-02 0.000000000000D+00  5 2 21 25 24 1 2 0.36109742D-01 0.24561540D-01 0.20006708D+05 0.20006708D+05 0.20006708D+05 0.12338100D+01  1  2 12  4  5  2       -1 0.556897241929D-01 0.100000000000D+01
  </mgrwgt>
  </event>
  <event>
  5     66 0.48098993E-03 0.11632786E+03 0.75467711E-02 0.12385594E+00
        2 -1    0    0  502    0 0.00000000E+00 0.00000000E+00 0.41543691E+03 0.41543704E+03 0.32000000E+00 0.0000E+00 0.9000E+01
       -1 -1    0    0    0  501 0.00000000E+00 0.00000000E+00 -.38381865E+02 0.38383199E+02 0.32000000E+00 0.0000E+00 0.9000E+01
       25  1    1    2    0    0 -.50832495E+02 -.11484721E+02 0.25890379E+03 0.29218489E+03 0.12500000E+03 0.0000E+00 0.9000E+01
       24  1    1    2    0    0 0.49777719E+02 0.24017700E+02 0.10695278E+03 0.14477839E+03 0.80419002E+02 0.0000E+00 0.9000E+01
       21  1    1    2  502  501 0.10547758E+01 -.12532979E+02 0.11198488E+02 0.16856950E+02 0.75000000E+00 0.0000E+00 0.9000E+01
#aMCatNLO 2  0  0  1  2 0.12577286D+02 0.00000000D+00  -5  5  0 0.00000000D+00 0.00000000D+00 0.00000000D+00 0.00000000D+00 0.00000000D+00
  <mgrwgt>
 0.3281097204D+00    1    2    0
 0.119297634669105D+03 0.000000000000000D+00 0.000000000000000D+00 0.119297634669105D+03
 0.119297634669105D+03 0.000000000000000D+00 0.000000000000000D+00 -.119297634669105D+03
 0.138488677456815D+03 -.502219516537927D+02 -.187392737447689D+02 0.260904000609496D+02
 0.100106591881395D+03 0.502219516537927D+02 0.187392737447689D+02 -.260904000609496D+02
 0.000000000000000D+00 0.000000000000000D+00 -.000000000000000D+00 -.000000000000000D+00
 0.123627893904418D+03 0.000000000000000D+00 0.000000000000000D+00 0.123627893904418D+03
 0.128959210223264D+03 0.000000000000000D+00 0.000000000000000D+00 -.128959210223264D+03
 0.137918636651924D+03 -.508324949884888D+02 -.114847208860452D+02 0.260904000609496D+02
 0.101007901591843D+03 0.497777191489591D+02 0.240177003604375D+02 -.260904000609496D+02
 0.136605658839150D+02 0.105477583952963D+01 -.125329794743922D+02 -.533131631884564D+01
0.187741771041D-03 0.000000000000D+00 0.000000000000D+00 0.268132615001D-02 0.141245677995D-03  5 2 -1 25 24 21 2 0.63908235D-01 0.59045295D-02 0.15078097D+05 0.15078097D+05 0.15078097D+05 0.12475655D+01  1  2  1  1  5  1        2 0.328109720397D+00 0.100000000000D+01
  </mgrwgt>
  </event>
  <event>
  5     66 0.48098993E-03 0.11997511E+03 0.75467711E-02 0.12300237E+00
       21 -1    0    0  501  502 0.00000000E+00 0.00000000E+00 0.57349460E+02 0.57354364E+02 0.75000000E+00 0.0000E+00 0.9000E+01
       -1 -1    0    0    0  501 0.00000000E+00 0.00000000E+00 -.34951004E+03 0.34951019E+03 0.32000000E+00 0.0000E+00 0.9000E+01
       25  1    1    2    0    0 0.65784198E+02 0.13746835E+02 -.81964853E+02 0.16388952E+03 0.12500000E+03 0.0000E+00 0.9000E+01
       24  1    1    2    0    0 -.56869661E+02 -.27757933E+00 -.14150251E+03 0.17240769E+03 0.80419002E+02 0.0000E+00 0.9000E+01
       -2  1    1    2    0  502 -.89145369E+01 -.13469255E+02 -.68693215E+02 0.70567344E+02 0.32000000E+00 0.0000E+00 0.9000E+01
#aMCatNLO 2  0  0  1  2 0.16152084D+02 0.00000000D+00  -5  5  0 0.00000000D+00 0.00000000D+00 0.00000000D+00 0.00000000D+00 0.00000000D+00
  <mgrwgt>
 0.7446321995D-01    1    2    0
 0.125396629848354D+03 0.000000000000000D+00 0.000000000000000D+00 0.125396629848354D+03
 0.125396629848354D+03 0.000000000000000D+00 0.000000000000000D+00 -.125396629848354D+03
 0.143654265752733D+03 0.606340025086480D+02 0.596524129224672D+01 0.360483245805302D+02
 0.107138993943976D+03 -.606340025086480D+02 -.596524129224672D+01 -.360483245805302D+02
 0.000000000000000D+00 -.000000000000000D+00 -.000000000000000D+00 -.000000000000000D+00
 0.127742849582599D+03 0.000000000000000D+00 0.000000000000000D+00 0.127742849582599D+03
 0.156916823594791D+03 0.000000000000000D+00 0.000000000000000D+00 -.156916823594791D+03
 0.146427517604633D+03 0.657841982530877D+02 0.137468347989758D+02 0.360483245805302D+02
 0.104885333081341D+03 -.568696613834481D+02 -.277579325496375D+00 -.360483245805302D+02
 0.333468224914170D+02 -.891453686963958D+01 -.134692554734794D+02 -.291739740121920D+02
0.144399245968D-04 0.000000000000D+00 0.000000000000D+00 0.249454409937D-02 0.307740666230D-06  5 21 -1 25 24 -2 2 0.88233301D-02 0.53770846D-01 0.16456901D+05 0.16456901D+05 0.16456901D+05 0.12432592D+01  1  2  1  3  5  1        2 0.744632199471D-01 0.100000000000D+01
  </mgrwgt>
  </event>
  <event>
  4     66 0.48098993E-03 0.14071427E+03 0.75467711E-02 0.11063694E+00
        2 -1    0    0  501    0 0.00000000E+00 0.00000000E+00 0.17925276E+03 0.17925305E+03 0.32000000E+00 0.0000E+00 0.9000E+01
       -1 -1    0    0    0  501 0.00000000E+00 0.00000000E+00 -.23928841E+03 0.23928863E+03 0.32000000E+00 0.0000E+00 0.9000E+01
       25  1    1    2    0    0 0.72019179E+02 0.61906005E+02 -.18469620E+03 0.24239803E+03 0.12500000E+03 0.0000E+00 0.9000E+01
       24  1    1    2    0    0 -.72019179E+02 -.61906005E+02 0.12466055E+03 0.17614365E+03 0.80419002E+02 0.0000E+00 0.9000E+01
#aMCatNLO 1  0  0  2  2 0.19126097D+03 0.00000000D+00  -5  5  0 0.00000000D+00 0.00000000D+00 0.00000000D+00 0.00000000D+00 0.00000000D+00
  <mgrwgt>
 0.2200459203D+00    5    2    0
 0.207106768663901D+03 0.000000000000000D+00 0.000000000000000D+00 0.207106768663901D+03
 0.207106768663901D+03 0.000000000000000D+00 0.000000000000000D+00 -.207106768663901D+03
 0.218161192554424D+03 0.720191793585506D+02 0.619060054436184D+02 -.151493201930992D+03
 0.196052344773377D+03 -.720191793585506D+02 -.619060054436184D+02 0.151493201930992D+03
 0.000000000000000D+00 -.000000000000000D+00 0.000000000000000D+00 -.000000000000000D+00
 0.314433456642310D+03 0.000000000000000D+00 0.000000000000000D+00 0.314433456642310D+03
 0.334071619954331D+03 0.000000000000000D+00 0.000000000000000D+00 -.334071619954331D+03
 0.270955805030217D+03 0.179089066715915D+03 0.526209485955112D+02 -.151493201930992D+03
 0.185282744808470D+03 0.114567687041073D+02 -.691450055242336D+02 0.151493201930992D+03
 0.192266526757955D+03 -.190545835420022D+03 0.165240569287223D+02 -.196381633120210D+02
0.124379702633D-02 0.000000000000D+00 0.000000000000D+00 0.104831085626D-02 0.000000000000D+00  5 2 -1 25 24 21 0 0.27577386D-01 0.36813641D-01 0.19800505D+05 0.19800505D+05 0.19800505D+05 0.12343056D+01  1  2  2  2  5  2       -1 0.192104581862D+00 0.100000000000D+01
-.565492359256D-04 0.000000000000D+00 -.477650808039D-05 0.104831085626D-02 0.000000000000D+00  5 2 -1 25 24 21 2 0.27577386D-01 0.36813641D-01 0.19800505D+05 0.19800505D+05 0.19800505D+05 0.12343056D+01  1  2  3  2  5  2       -1 -.133063939751D-01 0.100000000000D+01
0.845381662776D-04 0.000000000000D+00 0.000000000000D+00 0.104831085626D-02 0.000000000000D+00  5 2 -1 25 24 21 2 0.27577386D-01 0.36813641D-01 0.19800505D+05 0.19800505D+05 0.19800505D+05 0.12343056D+01  1  2 15  2  5  2       -1 0.198923668554D-01 0.100000000000D+01
0.135012799626D-03 0.000000000000D+00 -.348134056408D-03 0.104831085626D-02 0.000000000000D+00  5 2 -1 25 24 21 2 0.27577386D-01 0.85767433D-01 0.19800505D+05 0.19800505D+05 0.19800505D+05 0.12343056D+01  1  2  5  2  5  2       -1 0.644831104223D-02 0.100000000000D+01
0.344480539598D-04 0.000000000000D+00 -.320914305182D-04 0.104831085626D-02 0.000000000000D+00  5 2 21 25 24 1 2 0.27577386D-01 0.85767433D-01 0.19800505D+05 0.19800505D+05 0.19800505D+05 0.12343056D+01  1  2  5  4  5  2       -1 0.149070545367D-01 0.100000000000D+01
  </mgrwgt>
  </event>
  <event>
  4     66 0.48098993E-03 0.12847831E+03 0.75467711E-02 0.10692267E+00
        2 -1    0    0  501    0 0.00000000E+00 0.00000000E+00 0.12066037E+04 0.12066038E+04 0.32000000E+00 0.0000E+00 0.9000E+01
       -1 -1    0    0    0  501 0.00000000E+00 0.00000000E+00 -.19756950E+02 0.19759541E+02 0.32000000E+00 0.0000E+00 0.9000E+01
       25  1    1    2    0    0 0.75461578E+02 0.91465858E+01 0.31259257E+03 0.34513363E+03 0.12500000E+03 0.0000E+00 0.9000E+01
       24  1    1    2    0    0 -.75461578E+02 -.91465858E+01 0.87425420E+03 0.88122967E+03 0.80419002E+02 0.0000E+00 0.9000E+01
#aMCatNLO 1  0  0  2  2 0.28608828D+03 0.00000000D+00  -5  5  0 0.00000000D+00 0.00000000D+00 0.00000000D+00 0.00000000D+00 0.00000000D+00
  <mgrwgt>
 0.4428381729D+00    5    2    0
 0.154403446276469D+03 0.000000000000000D+00 0.000000000000000D+00 0.154403446276469D+03
 0.154403446276469D+03 0.000000000000000D+00 0.000000000000000D+00 -.154403446276469D+03
 0.169231133524511D+03 0.754615780657393D+02 0.914658577722945D+01 -.850650736697447D+02
 0.139575759028427D+03 -.754615780657393D+02 -.914658577722945D+01 0.850650736697447D+02
 0.000000000000000D+00 0.000000000000000D+00 0.000000000000000D+00 -.000000000000000D+00
 0.290379518036727D+03 0.000000000000000D+00 0.000000000000000D+00 0.290379518036727D+03
 0.466574185337146D+03 0.000000000000000D+00 0.000000000000000D+00 -.466574185337146D+03
 0.163387436904753D+03 -.436437635963628D+02 -.439273226934020D+02 -.850650736697447D+02
 0.257573608872538D+03 -.217674356786078D+03 -.725172784416294D+02 0.850650736697447D+02
 0.335992657596582D+03 0.261318120382441D+03 0.116444601135031D+03 -.176194667300419D+03
0.426051821224D-03 0.000000000000D+00 0.000000000000D+00 0.171323407230D-02 0.000000000000D+00  5 2 -1 25 24 21 0 0.18563154D+00 0.30397334D-02 0.16506676D+05 0.16506676D+05 0.16506676D+05 0.12431114D+01  1  2  2  2  5  2       -1 0.344874257419D+00 0.100000000000D+01
-.226972364885D-04 0.000000000000D+00 -.163615117552D-05 0.171323407230D-02 0.000000000000D+00  5 2 -1 25 24 21 2 0.18563154D+00 0.30397334D-02 0.16506676D+05 0.16506676D+05 0.16506676D+05 0.12431114D+01  1  2  3  2  5  2       -1 -.283917007042D-01 0.100000000000D+01
0.294405467218D-04 0.000000000000D+00 0.000000000000D+00 0.171323407230D-02 0.000000000000D+00  5 2 -1 25 24 21 2 0.18563154D+00 0.30397334D-02 0.16506676D+05 0.16506676D+05 0.16506676D+05 0.12431114D+01  1  2 15  2  5  2       -1 0.368268265398D-01 0.100000000000D+01
0.325144623491D-03 0.000000000000D+00 -.191569285417D-03 0.171323407230D-02 0.000000000000D+00  5 2 -1 25 24 21 2 0.18563154D+00 0.18575325D-01 0.16506676D+05 0.16506676D+05 0.16506676D+05 0.12431114D+01  1  2  5  2  5  2       -1 0.264945859304D-01 0.100000000000D+01
0.591964082342D-04 0.000000000000D+00 -.424981754646D-04 0.171323407230D-02 0.000000000000D+00  5 2 21 25 24 1 2 0.18563154D+00 0.18575325D-01 0.16506676D+05 0.16506676D+05 0.16506676D+05 0.12431114D+01  1  2  5  4  5  2       -1 0.630342036798D-01 0.100000000000D+01
  </mgrwgt>
  </event>
  <event>
  4     66 0.48098993E-03 0.12737285E+03 0.75467711E-02 0.11248064E+00
        2 -1    0    0  501    0 0.00000000E+00 0.00000000E+00 0.35797313E+03 0.35797327E+03 0.32000000E+00 0.0000E+00 0.9000E+01
       -1 -1    0    0    0  501 0.00000000E+00 0.00000000E+00 -.14747392E+03 0.14747427E+03 0.32000000E+00 0.0000E+00 0.9000E+01
       25  1    1    2    0    0 -.28238848E+02 0.20178146E+03 0.12984992E+03 0.27202793E+03 0.12500000E+03 0.0000E+00 0.9000E+01
       24  1    1    2    0    0 0.28238848E+02 -.20178146E+03 0.80649284E+02 0.23341961E+03 0.80419002E+02 0.0000E+00 0.9000E+01
#aMCatNLO 1  0  0  1  2 0.71119515D+01 0.00000000D+00  -5  5  0 0.00000000D+00 0.00000000D+00 0.00000000D+00 0.00000000D+00 0.00000000D+00
  <mgrwgt>
 0.6386699016D+00   11    2    0
 0.229764716663203D+03 0.000000000000000D+00 0.000000000000000D+00 0.229764716663203D+03
 0.229764716663203D+03 0.000000000000000D+00 0.000000000000000D+00 -.229764716663203D+03
 0.239729022952942D+03 -.282388479661025D+02 0.201781464334254D+03 0.182157229514426D+02
 0.219800410373463D+03 0.282388479661025D+02 -.201781464334254D+03 -.182157229514426D+02
 0.000000000000000D+00 0.000000000000000D+00 0.000000000000000D+00 0.000000000000000D+00
 0.234998065632509D+03 0.000000000000000D+00 0.000000000000000D+00 0.234998065632509D+03
 0.232221231085776D+03 0.000000000000000D+00 0.000000000000000D+00 -.232221231085776D+03
 0.239111328022979D+03 -.317250827511234D+02 0.200526640999901D+03 0.182157229514426D+02
 0.220473136408998D+03 0.250334018281792D+02 -.202935221570617D+03 -.182157229514426D+02
 0.763483228630813D+01 0.669168092294422D+01 0.240858057071614D+01 0.277683454673233D+01
0.158428707063D-02 0.000000000000D+00 0.000000000000D+00 0.208175833926D-02 0.000000000000D+00  5 2 -1 25 24 21 0 0.55072827D-01 0.22688333D-01 0.52459383D+05 0.52459383D+05 0.52459383D+05 0.11902221D+01  1  2  2  1  5  1        2 0.265330225794D+00 0.100000000000D+01
-.880148807336D-04 0.000000000000D+00 -.608407950359D-05 0.208175833926D-02 0.000000000000D+00  5 2 -1 25 24 21 2 0.55072827D-01 0.22688333D-01 0.52459383D+05 0.52459383D+05 0.52459383D+05 0.11902221D+01  1  2  3  1  5  1        2 -.208816560538D-01 0.100000000000D+01
0.108702457268D-03 0.000000000000D+00 0.000000000000D+00 0.208175833926D-02 0.000000000000D+00  5 2 -1 25 24 21 2 0.55072827D-01 0.22688333D-01 0.52459383D+05 0.52459383D+05 0.52459383D+05 0.11902221D+01  1  2 15  1  5  1        2 0.257898131084D-01 0.100000000000D+01
0.251470848313D-02 0.000000000000D+00 0.000000000000D+00 0.208175833926D-02 0.000000000000D+00  5 2 -1 25 24 21 2 0.56616655D-01 0.22688333D-01 0.54113872D+05 0.54113872D+05 0.54113872D+05 0.11888959D+01  1  2 12  1  5  1        2 0.577891882524D+00 0.100000000000D+01
-.281362785116D-02 0.000000000000D+00 0.000000000000D+00 0.208175833926D-02 0.000000000000D+00  5 2 -1 25 24 21 2 0.55072827D-01 0.22688333D-01 0.52459383D+05 0.52459383D+05 0.52459383D+05 0.11902221D+01  1  2  4  1  5  1        2 -.667537222817D+00 0.100000000000D+01
-.578737560704D-01 0.000000000000D+00 -.744440171178D-02 0.208175833926D-02 0.000000000000D+00  5 2 -1 25 24 21 2 0.56835501D-01 0.22688333D-01 0.52459383D+05 0.52459383D+05 0.52459383D+05 0.11902221D+01  1  2  5  1  5  1        2 -.132701140967D+02 0.100000000000D+01
0.580831552325D-01 0.000000000000D+00 0.744070877981D-02 0.208175833926D-02 0.000000000000D+00  5 2 -1 25 24 21 2 0.55072827D-01 0.22688333D-01 0.52459383D+05 0.52459383D+05 0.52459383D+05 0.11902221D+01  1  2  6  1  5  1        2 0.137803114652D+02 0.100000000000D+01
0.452967791648D-03 0.000000000000D+00 0.000000000000D+00 0.208175833926D-02 0.310362251812D-03  5 2 -1 25 24 21 2 0.56327220D-01 0.22930904D-01 0.54113872D+05 0.54113872D+05 0.54113872D+05 0.11888959D+01  1  2 11  1  5  1        2 0.102855587587D+00 0.100000000000D+01
0.659313265936D-04 0.000000000000D+00 0.000000000000D+00 0.208175833926D-02 0.000000000000D+00  5 21 -1 25 24 -2 2 0.56616655D-01 0.22688333D-01 0.54113872D+05 0.54113872D+05 0.54113872D+05 0.11888959D+01  1  2 12  3  5  1        2 0.403005811841D-01 0.100000000000D+01
-.323610761644D-03 0.000000000000D+00 -.419691579308D-04 0.208175833926D-02 0.000000000000D+00  5 21 -1 25 24 -2 2 0.56835501D-01 0.22688333D-01 0.52459383D+05 0.52459383D+05 0.52459383D+05 0.11902221D+01  1  2  5  3  5  1        2 -.196774135260D+00 0.100000000000D+01
0.246600861820D-05 0.000000000000D+00 0.000000000000D+00 0.208175833926D-02 0.127573440051D-05  5 21 -1 25 24 -2 2 0.56327220D-01 0.22930904D-01 0.54113872D+05 0.54113872D+05 0.54113872D+05 0.11888959D+01  1  2 11  3  5  1        2 0.149745702246D-02 0.100000000000D+01
  </mgrwgt>
  </event>
  <event>
  5     66 0.48098993E-03 0.10323302E+03 0.75467711E-02 0.12438958E+00
        2 -1    0    0  501    0 0.00000000E+00 0.00000000E+00 0.17658225E+02 0.17661124E+02 0.32000000E+00 0.0000E+00 0.9000E+01
       21 -1    0    0  502  501 0.00000000E+00 0.00000000E+00 -.82821069E+03 0.82821103E+03 0.75000000E+00 0.0000E+00 0.9000E+01
       25  1    1    2    0    0 -.25389289E+02 0.82876814E+01 -.49445305E+03 0.51070747E+03 0.12500000E+03 0.0000E+00 0.9000E+01
       24  1    1    2    0    0 -.49305494E+01 -.68017631E+01 -.23881222E+03 0.25212907E+03 0.80419002E+02 0.0000E+00 0.9000E+01
        1  1    1    2  502    0 0.30319839E+02 -.14859183E+01 -.77287190E+02 0.83035611E+02 0.32000000E+00 0.0000E+00 0.9000E+01
#aMCatNLO 2  0  0  2  1 0.30356228D+02 0.00000000D+00  -5  5  0 0.00000000D+00 0.00000000D+00 0.00000000D+00 0.00000000D+00 0.00000000D+00
  <mgrwgt>
 0.6537963153D-01    1    2    0
 0.104067438242647D+03 0.000000000000000D+00 0.000000000000000D+00 0.104067438242647D+03
 0.104067438242647D+03 0.000000000000000D+00 0.000000000000000D+00 -.104067438242647D+03
 0.126067076650861D+03 -.694744767760278D+01 0.738388139857017D+01 -.128498669858056D+02
 0.820677998344333D+02 0.694744767760278D+01 -.738388139857017D+01 0.128498669858056D+02
 0.000000000000000D+00 0.000000000000000D+00 -.000000000000000D+00 0.000000000000000D+00
 0.125611542121542D+03 0.000000000000000D+00 0.000000000000000D+00 0.125611542121542D+03
 0.116437574079984D+03 0.000000000000000D+00 0.000000000000000D+00 -.116437574079984D+03
 0.128465640370355D+03 -.253892893121050D+02 0.828768136687053D+01 -.128498669858056D+02
 0.818712973796763D+02 -.493054939840325D+01 -.680176310509770D+01 0.128498669858056D+02
 0.317121784514943D+02 0.303198387105083D+02 -.148591826177283D+01 0.917396804155735D+01
0.213753348368D-04 0.000000000000D+00 0.000000000000D+00 0.315488482638D-02 0.616888105559D-06  5 2 21 25 24 1 2 0.27168808D-02 0.12741642D+00 0.14284337D+05 0.14284337D+05 0.14284337D+05 0.12502502D+01  1  2  1  4  5  2       -1 0.653796315255D-01 0.100000000000D+01
  </mgrwgt>
  </event>
  <event>
  4     66 0.48098993E-03 0.17642559E+03 0.75467711E-02 0.10617317E+00
        2 -1    0    0  501    0 0.00000000E+00 0.00000000E+00 0.40344035E+03 0.40344047E+03 0.32000000E+00 0.0000E+00 0.9000E+01
       -1 -1    0    0    0  501 0.00000000E+00 0.00000000E+00 -.94095291E+02 0.94095835E+02 0.32000000E+00 0.0000E+00 0.9000E+01
       25  1    1    2    0    0 -.13210709E+02 0.14168188E+03 0.58669620E+02 0.19828112E+03 0.12500000E+03 0.0000E+00 0.9000E+01
       24  1    1    2    0    0 0.13210709E+02 -.14168188E+03 0.25067544E+03 0.29925519E+03 0.80419002E+02 0.0000E+00 0.9000E+01
#aMCatNLO 1  0  0  2  1 0.26678834D+03 0.00000000D+00  -5  5  0 0.00000000D+00 0.00000000D+00 0.00000000D+00 0.00000000D+00 0.00000000D+00
  <mgrwgt>
 0.5937776001D+00    3    2    0
 0.194838403979247D+03 0.000000000000000D+00 0.000000000000000D+00 0.194838403979247D+03
 0.194838403979247D+03 0.000000000000000D+00 0.000000000000000D+00 -.194838403979247D+03
 0.206588890354875D+03 -.132107090821020D+02 0.141681880287408D+03 -.824966155780425D+02
 0.183087917603618D+03 0.132107090821020D+02 -.141681880287408D+03 0.824966155780425D+02
 0.000000000000000D+00 0.000000000000000D+00 0.000000000000000D+00 0.000000000000000D+00
 0.301541412441701D+04 0.000000000000000D+00 0.000000000000000D+00 0.301541412441701D+04
 0.242529465725592D+03 0.000000000000000D+00 0.000000000000000D+00 -.242529465725592D+03
 0.154793784191280D+03 -.246126660620945D+02 0.304079054152194D+02 -.824966155780425D+02
 0.317460420902412D+03 -.258205306184960D+01 -.295806599495888D+03 0.824966155780425D+02
 0.278568938504891D+04 0.271947191239441D+02 0.265398694080669D+03 0.277288465869142D+04
0.193289523189D-02 0.000000000000D+00 0.000000000000D+00 0.180870337515D-02 0.000000000000D+00  5 2 -1 25 24 21 0 0.62067797D-01 0.14476250D-01 0.31125988D+05 0.31125988D+05 0.31125988D+05 0.12132225D+01  1  2  2  2  5  2       -1 0.581925340439D+00 0.100000000000D+01
-.106096404811D-03 0.000000000000D+00 -.742282663344D-05 0.180870337515D-02 0.000000000000D+00  5 2 -1 25 24 21 2 0.62067797D-01 0.14476250D-01 0.31125988D+05 0.31125988D+05 0.31125988D+05 0.12132225D+01  1  2  3  2  5  2       -1 -.470154448685D-01 0.100000000000D+01
0.132842554748D-03 0.000000000000D+00 0.000000000000D+00 0.180870337515D-02 0.000000000000D+00  5 2 -1 25 24 21 2 0.62067797D-01 0.14476250D-01 0.31125988D+05 0.31125988D+05 0.31125988D+05 0.12132225D+01  1  2 15  2  5  2       -1 0.588677045190D-01 0.100000000000D+01
  </mgrwgt>
  </event>
  <event>
  5     66 -.48098993E-03 0.10816525E+03 0.75467711E-02 0.12528365E+00
        2 -1    0    0  502    0 0.00000000E+00 0.00000000E+00 0.10792612E+03 0.10792659E+03 0.32000000E+00 0.0000E+00 0.9000E+01
       -1 -1    0    0    0  501 0.00000000E+00 0.00000000E+00 -.13722799E+03 0.13722836E+03 0.32000000E+00 0.0000E+00 0.9000E+01
       25  1    1    2    0    0 -.28527382E+02 -.27049016E+02 -.56997188E+02 0.14289556E+03 0.12500000E+03 0.0000E+00 0.9000E+01
       24  1    1    2    0    0 0.24558058E+02 0.15739569E+02 0.28641409E+02 0.90212962E+02 0.80419002E+02 0.0000E+00 0.9000E+01
       21  1    1    2  502  501 0.39693233E+01 0.11309447E+02 -.94609344E+00 0.12046440E+02 0.75000000E+00 0.0000E+00 0.9000E+01
#aMCatNLO 2  0  0  1  2 0.11985788D+02 0.00000000D+00  -5  5  0 0.00000000D+00 0.00000000D+00 0.00000000D+00 0.00000000D+00 0.00000000D+00
  <mgrwgt>
 -.1493142266D+00    3    2    0
 0.115533406678806D+03 0.000000000000000D+00 0.000000000000000D+00 0.115533406678806D+03
 0.115533406678806D+03 0.000000000000000D+00 0.000000000000000D+00 -.115533406678806D+03
 0.135349718490438D+03 -.261898831644329D+02 -.203889854261435D+02 -.399114718917599D+02
 0.957170948671731D+02 0.261898831644329D+02 0.203889854261435D+02 0.399114718917599D+02
 0.000000000000000D+00 0.000000000000000D+00 0.000000000000000D+00 0.000000000000000D+00
 0.121948878193489D+03 0.000000000000000D+00 0.000000000000000D+00 0.121948878193489D+03
 0.121425784473580D+03 0.000000000000000D+00 0.000000000000000D+00 -.121425784473580D+03
 0.136979510701902D+03 -.285273815443846D+02 -.270490159855564D+02 -.399114718917599D+02
 0.943979544013089D+02 0.245580582553423D+02 0.157395688295940D+02 0.399114718917599D+02
 0.119971975638583D+02 0.396932328904228D+01 0.113094471559624D+02 0.523093719908519D+00
-.547444765247D-03 0.000000000000D+00 0.000000000000D+00 0.258210338851D-02 0.000000000000D+00  5 2 -1 25 24 21 2 0.16982642D-01 0.20085635D-01 0.13060774D+05 0.13060774D+05 0.13060774D+05 0.12547354D+01  1  2 13  1  5  1        2 -.619132602345D+00 0.100000000000D+01
-.904958837149D-07 0.000000000000D+00 0.000000000000D+00 0.258210338851D-02 0.000000000000D+00  5 2 -1 25 24 21 2 0.15729064D-01 0.20085635D-01 0.11699721D+05 0.11699721D+05 0.11699721D+05 0.12603160D+01  1  2  8  1  5  1        2 -.112325935658D-03 0.100000000000D+01
0.438450100495D-03 0.000000000000D+00 0.000000000000D+00 0.258210338851D-02 0.151344499507D-03  5 2 -1 25 24 21 2 0.16602486D-01 0.21110032D-01 0.13060774D+05 0.13060774D+05 0.13060774D+05 0.12547354D+01  1  2  1  1  5  1        2 0.469930701728D+00 0.100000000000D+01
  </mgrwgt>
  </event>
  <event>
  4     66 0.48098993E-03 0.12347933E+03 0.75467711E-02 0.10242659E+00
        2 -1    0    0  501    0 0.00000000E+00 0.00000000E+00 0.88209977E+02 0.88210557E+02 0.32000000E+00 0.0000E+00 0.9000E+01
       -1 -1    0    0    0  501 0.00000000E+00 0.00000000E+00 -.18887216E+03 0.18887243E+03 0.32000000E+00 0.0000E+00 0.9000E+01
       25  1    1    2    0    0 -.49085983E+02 -.46210129E+02 -.97181000E+02 0.17208706E+03 0.12500000E+03 0.0000E+00 0.9000E+01
       24  1    1    2    0    0 0.49085983E+02 0.46210129E+02 -.34811806E+01 0.10499593E+03 0.80419002E+02 0.0000E+00 0.9000E+01
#aMCatNLO 1  0  0  2  2 0.42882603D+03 0.00000000D+00  -5  5  0 0.00000000D+00 0.00000000D+00 0.00000000D+00 0.00000000D+00 0.00000000D+00
  <mgrwgt>
 0.3465181607D+00    5    2    0
 0.129075662523986D+03 0.000000000000000D+00 0.000000000000000D+00 0.129075662523986D+03
 0.129075662523986D+03 0.000000000000000D+00 0.000000000000000D+00 -.129075662523986D+03
 0.146812902578686D+03 -.490859827948609D+02 -.462101292870468D+02 -.372050884680542D+02
 0.111338422469286D+03 0.490859827948609D+02 0.462101292870468D+02 0.372050884680542D+02
 0.000000000000000D+00 -.000000000000000D+00 -.000000000000000D+00 -.000000000000000D+00
 0.440181205249309D+03 0.000000000000000D+00 0.000000000000000D+00 0.440181205249309D+03
 0.492338682938709D+03 0.000000000000000D+00 0.000000000000000D+00 -.492338682938709D+03
 0.200556558517375D+03 0.147141674871056D+03 -.395353268932728D+02 -.372050884680542D+02
 0.299977026790502D+03 0.281436480490836D+03 0.541136719204513D+02 0.372050884680542D+02
 0.431986302880142D+03 -.428578155361892D+03 -.145783450271785D+02 -.521574776894001D+02
0.636390186277D-03 0.000000000000D+00 0.000000000000D+00 0.244061047184D-02 0.000000000000D+00  5 2 -1 25 24 21 0 0.13570831D-01 0.29057321D-01 0.15247144D+05 0.15247144D+05 0.15247144D+05 0.12470143D+01  1  2  2  2  5  2       -1 0.326647001090D+00 0.100000000000D+01
-.352705544152D-04 0.000000000000D+00 -.244390588069D-05 0.244061047184D-02 0.000000000000D+00  5 2 -1 25 24 21 2 0.13570831D-01 0.29057321D-01 0.15247144D+05 0.15247144D+05 0.15247144D+05 0.12470143D+01  1  2  3  2  5  2       -1 -.281520691813D-01 0.100000000000D+01
0.440456987190D-04 0.000000000000D+00 0.000000000000D+00 0.244061047184D-02 0.000000000000D+00  5 2 -1 25 24 21 2 0.13570831D-01 0.29057321D-01 0.15247144D+05 0.15247144D+05 0.15247144D+05 0.12470143D+01  1  2 15  2  5  2       -1 0.351561685954D-01 0.100000000000D+01
0.104406947668D-02 0.000000000000D+00 -.406878156739D-03 0.244061047184D-02 0.000000000000D+00  5 2 -1 25 24 21 2 0.13570831D-01 0.28255732D+00 0.15247144D+05 0.15247144D+05 0.15247144D+05 0.12470143D+01  1  2  5  2  5  2       -1 0.427767108793D-02 0.100000000000D+01
0.220463807184D-03 0.000000000000D+00 -.110461274457D-03 0.244061047184D-02 0.000000000000D+00  5 2 21 25 24 1 2 0.13570831D-01 0.28255732D+00 0.15247144D+05 0.15247144D+05 0.15247144D+05 0.12470143D+01  1  2  5  4  5  2       -1 0.858938911357D-02 0.100000000000D+01
  </mgrwgt>
  </event>
  <event>
  4     66 0.48098993E-03 0.11031371E+03 0.75467711E-02 0.10941619E+00
        2 -1    0    0  501    0 0.00000000E+00 0.00000000E+00 0.45905759E+02 0.45906874E+02 0.32000000E+00 0.0000E+00 0.9000E+01
       -1 -1    0    0    0  501 0.00000000E+00 0.00000000E+00 -.31557949E+03 0.31557965E+03 0.32000000E+00 0.0000E+00 0.9000E+01
       25  1    1    2    0    0 -.76494286E+01 0.38668067E+02 -.84929725E+02 0.15617872E+03 0.12500000E+03 0.0000E+00 0.9000E+01
       24  1    1    2    0    0 0.76494286E+01 -.38668067E+02 -.18474400E+03 0.20530781E+03 0.80419002E+02 0.0000E+00 0.9000E+01
#aMCatNLO 1  0  0  1  2 0.23954380D+03 0.00000000D+00  -5  5  0 0.00000000D+00 0.00000000D+00 0.00000000D+00 0.00000000D+00 0.00000000D+00
  <mgrwgt>
 0.3267476516D+00    3    2    0
 0.120362563735762D+03 0.000000000000000D+00 0.000000000000000D+00 0.120362563735762D+03
 0.120362563735762D+03 0.000000000000000D+00 0.000000000000000D+00 -.120362563735762D+03
 0.139383810378808D+03 -.764942862464384D+01 0.386680668004681D+02 0.474248188962978D+02
 0.101341317092715D+03 0.764942862464384D+01 -.386680668004681D+02 -.474248188962978D+02
 0.000000000000000D+00 -.000000000000000D+00 0.000000000000000D+00 -.000000000000000D+00
 0.262049341952988D+03 0.000000000000000D+00 0.000000000000000D+00 0.262049341952988D+03
 0.325309088233397D+03 0.000000000000000D+00 0.000000000000000D+00 -.325309088233397D+03
 0.172547327194543D+03 0.107380537357699D+03 -.191803772487888D+02 0.474248188962978D+02
 0.167055116990297D+03 0.106625224765197D+03 -.884428863996179D+02 -.474248188962978D+02
 0.247755986001545D+03 -.214005762122896D+03 0.107623263648407D+03 -.632597462804087D+02
0.686574486997D-03 0.000000000000D+00 0.000000000000D+00 0.240332565220D-02 0.000000000000D+00  5 2 -1 25 24 21 0 0.70625227D-02 0.48550789D-01 0.12169114D+05 0.12169114D+05 0.12169114D+05 0.12583124D+01  1  2  2  1  5  1        2 0.319821393879D+00 0.100000000000D+01
-.377905475816D-04 0.000000000000D+00 -.263662680928D-05 0.240332565220D-02 0.000000000000D+00  5 2 -1 25 24 21 2 0.70625227D-02 0.48550789D-01 0.12169114D+05 0.12169114D+05 0.12169114D+05 0.12583124D+01  1  2  3  1  5  1        2 -.278727620516D-01 0.100000000000D+01
0.471813310126D-04 0.000000000000D+00 0.000000000000D+00 0.240332565220D-02 0.000000000000D+00  5 2 -1 25 24 21 2 0.70625227D-02 0.48550789D-01 0.12169114D+05 0.12169114D+05 0.12169114D+05 0.12583124D+01  1  2 15  1  5  1        2 0.347990197748D-01 0.100000000000D+01
  </mgrwgt>
  </event>
  <event>
  4     66 0.48098993E-03 0.10674708E+03 0.75467711E-02 0.12340620E+00
        2 -1    0    0  501    0 0.00000000E+00 0.00000000E+00 0.61223865E+03 0.61223873E+03 0.32000000E+00 0.0000E+00 0.9000E+01
       -1 -1    0    0    0  501 0.00000000E+00 0.00000000E+00 -.18611058E+02 0.18613809E+02 0.32000000E+00 0.0000E+00 0.9000E+01
       25  1    1    2    0    0 0.10677654E+01 0.28419739E+02 0.35470115E+03 0.37715611E+03 0.12500000E+03 0.0000E+00 0.9000E+01
       24  1    1    2    0    0 -.10677654E+01 -.28419739E+02 0.23892644E+03 0.25369644E+03 0.80419002E+02 0.0000E+00 0.9000E+01
#aMCatNLO 1  0  0  2  2 0.34956343D+02 0.00000000D+00  -5  5  0 0.00000000D+00 0.00000000D+00 0.00000000D+00 0.00000000D+00 0.00000000D+00
  <mgrwgt>
 0.1361443841D+00    4    2    0
 0.106748784772742D+03 0.000000000000000D+00 0.000000000000000D+00 0.106748784772742D+03
 0.106748784772742D+03 0.000000000000000D+00 0.000000000000000D+00 -.106748784772742D+03
 0.128195829966571D+03 0.106776538654084D+01 0.284197392222430D+02 -.590864144374770D+00
 0.853017395789127D+02 -.106776538654084D+01 -.284197392222430D+02 0.590864144374770D+00
 0.000000000000000D+00 -.000000000000000D+00 0.000000000000000D+00 0.000000000000000D+00
 0.127601564167584D+03 0.000000000000000D+00 0.000000000000000D+00 0.127601564167584D+03
 0.123891486644851D+03 0.000000000000000D+00 0.000000000000000D+00 -.123891486644851D+03
 0.127924041139034D+03 0.195767721972773D+02 0.188669332759739D+02 -.590864144374770D+00
 0.884163344340190D+02 0.114863133000270D+02 -.348991078211789D+02 0.590864144374770D+00
 0.351526752393818D+02 -.310630854973043D+02 0.160321745452050D+02 0.371007752273361D+01
0.150989449209D-03 0.000000000000D+00 0.000000000000D+00 0.310645018165D-02 0.000000000000D+00  5 2 -1 25 24 21 0 0.94190780D-01 0.28634577D-02 0.11394939D+05 0.11394939D+05 0.11394939D+05 0.12616660D+01  1  2  2  2  5  2       -1 0.316080577607D+00 0.100000000000D+01
-.838830273122D-05 0.000000000000D+00 -.579839241396D-06 0.310645018165D-02 0.000000000000D+00  5 2 -1 25 24 21 2 0.94190780D-01 0.28634577D-02 0.11394939D+05 0.11394939D+05 0.11394939D+05 0.12616660D+01  1  2  3  2  5  2       -1 -.279520797048D-01 0.100000000000D+01
0.104459931863D-04 0.000000000000D+00 0.000000000000D+00 0.310645018165D-02 0.000000000000D+00  5 2 -1 25 24 21 2 0.94190780D-01 0.28634577D-02 0.11394939D+05 0.11394939D+05 0.11394939D+05 0.12616660D+01  1  2 15  2  5  2       -1 0.348088574644D-01 0.100000000000D+01
-.560557929017D-04 0.000000000000D+00 0.000000000000D+00 0.310645018165D-02 0.000000000000D+00  5 2 -1 25 24 21 2 0.94190780D-01 0.28634577D-02 0.11394939D+05 0.11394939D+05 0.11394939D+05 0.12616660D+01  1  2  4  2  5  2       -1 -.186792971273D+00 0.100000000000D+01
  </mgrwgt>
  </event>
  <event>
  4     66 0.48098993E-03 0.10942369E+03 0.75467711E-02 0.12400285E+00
        2 -1    0    0  501    0 0.00000000E+00 0.00000000E+00 0.60201079E+03 0.60201087E+03 0.32000000E+00 0.0000E+00 0.9000E+01
       -1 -1    0    0    0  501 0.00000000E+00 0.00000000E+00 -.26439011E+02 0.26440947E+02 0.32000000E+00 0.0000E+00 0.9000E+01
       25  1    1    2    0    0 -.33711235E+02 -.15124485E+02 0.48342149E+03 0.50068606E+03 0.12500000E+03 0.0000E+00 0.9000E+01
       24  1    1    2    0    0 0.33711235E+02 0.15124485E+02 0.92150291E+02 0.12776576E+03 0.80419002E+02 0.0000E+00 0.9000E+01
#aMCatNLO 1  0  0  2  2 0.23360900D+02 0.00000000D+00  -5  5  0 0.00000000D+00 0.00000000D+00 0.00000000D+00 0.00000000D+00 0.00000000D+00
  <mgrwgt>
 0.3411366494D+00    4    2    0
 0.126163405523918D+03 0.000000000000000D+00 0.000000000000000D+00 0.126163405523918D+03
 0.126163405523918D+03 0.000000000000000D+00 0.000000000000000D+00 -.126163405523918D+03
 0.144310078102230D+03 -.337112347352851D+02 -.151244847392618D+02 0.619290017347776D+02
 0.108016732945606D+03 0.337112347352851D+02 0.151244847392618D+02 -.619290017347776D+02
 0.000000000000000D+00 -.000000000000000D+00 0.000000000000000D+00 0.000000000000000D+00
 0.155671319253424D+03 0.000000000000000D+00 0.000000000000000D+00 0.155671319253424D+03
 0.131412671210641D+03 0.000000000000000D+00 0.000000000000000D+00 -.131412671210641D+03
 0.141928947409231D+03 -.205320870626901D+02 -.161882135418408D+02 0.619290017347776D+02
 0.111476954665427D+03 0.438172631395510D+02 0.143087966719937D+02 -.619290017347776D+02
 0.336780883894067D+02 -.232851760768608D+02 0.187941686984716D+01 0.242586480427828D+02
0.338325649897D-03 0.000000000000D+00 0.000000000000D+00 0.211102126382D-02 0.000000000000D+00  5 2 -1 25 24 21 0 0.92617200D-01 0.40676956D-02 0.11973543D+05 0.11973543D+05 0.11973543D+05 0.12591365D+01  1  2  2  2  5  2       -1 0.434427439903D+00 0.100000000000D+01
-.183327828259D-04 0.000000000000D+00 -.129925957879D-05 0.211102126382D-02 0.000000000000D+00  5 2 -1 25 24 21 2 0.92617200D-01 0.40676956D-02 0.11973543D+05 0.11973543D+05 0.11973543D+05 0.12591365D+01  1  2  3  2  5  2       -1 -.373212619208D-01 0.100000000000D+01
0.232732338468D-04 0.000000000000D+00 0.000000000000D+00 0.211102126382D-02 0.000000000000D+00  5 2 -1 25 24 21 2 0.92617200D-01 0.40676956D-02 0.11973543D+05 0.11973543D+05 0.11973543D+05 0.12591365D+01  1  2 15  2  5  2       -1 0.473788657395D-01 0.100000000000D+01
-.507663345419D-04 0.000000000000D+00 0.000000000000D+00 0.211102126382D-02 0.000000000000D+00  5 2 -1 25 24 21 2 0.92617200D-01 0.40676956D-02 0.11973543D+05 0.11973543D+05 0.11973543D+05 0.12591365D+01  1  2  4  2  5  2       -1 -.103348394305D+00 0.100000000000D+01
  </mgrwgt>
  </event>
  <event>
  4     66 0.48098993E-03 0.72611123E+02 0.75467711E-02 0.12310541E+00
        2 -1    0    0  501    0 0.00000000E+00 0.00000000E+00 0.20043347E+02 0.20045902E+02 0.32000000E+00 0.0000E+00 0.9000E+01
       -1 -1    0    0    0  501 0.00000000E+00 0.00000000E+00 -.78286156E+03 0.78286163E+03 0.32000000E+00 0.0000E+00 0.9000E+01
       25  1    1    2    0    0 -.31610736E+02 -.33449828E+02 -.26560908E+03 0.29713855E+03 0.12500000E+03 0.0000E+00 0.9000E+01
       24  1    1    2    0    0 0.31610736E+02 0.33449828E+02 -.49720913E+03 0.50576898E+03 0.80419002E+02 0.0000E+00 0.9000E+01
#aMCatNLO 1  0  0  2  1 0.27978638D+02 0.00000000D+00  -5  5  0 0.00000000D+00 0.00000000D+00 0.00000000D+00 0.00000000D+00 0.00000000D+00
  <mgrwgt>
 0.4364574869D+00    9    2    0
 0.125268583469715D+03 0.000000000000000D+00 0.000000000000000D+00 0.125268583469715D+03
 0.125268583469715D+03 0.000000000000000D+00 0.000000000000000D+00 -.125268583469715D+03
 0.143544881867875D+03 -.316107357526485D+02 -.334498283356808D+02 0.534976960247073D+02
 0.106992285071555D+03 0.316107357526485D+02 0.334498283356808D+02 -.534976960247073D+02
 0.000000000000000D+00 0.000000000000000D+00 0.000000000000000D+00 -.000000000000000D+00
 0.131542425924194D+03 0.000000000000000D+00 0.000000000000000D+00 0.131542425924194D+03
 0.161660786835164D+03 0.000000000000000D+00 0.000000000000000D+00 -.161660786835164D+03
 0.148609583431879D+03 -.337767166037660D+02 -.495675117724665D+02 0.534976960247073D+02
 0.103484994480899D+03 0.300502949199603D+02 0.218381414871446D+02 -.534976960247073D+02
 0.411086348465797D+02 0.372642168380567D+01 0.277293702853219D+02 -.301183609109692D+02
0.137196081623D-02 0.000000000000D+00 0.000000000000D+00 0.226136007415D-02 0.000000000000D+00  5 2 -1 25 24 21 0 0.30837934D-02 0.12044044D+00 0.12753239D+05 0.12753239D+05 0.12753239D+05 0.12559372D+01  1  2  2  2  5  2       -1 0.297211807904D+00 0.100000000000D+01
-.752236700686D-04 0.000000000000D+00 -.526869077991D-05 0.226136007415D-02 0.000000000000D+00  5 2 -1 25 24 21 2 0.30837934D-02 0.12044044D+00 0.12753239D+05 0.12753239D+05 0.12753239D+05 0.12559372D+01  1  2  3  2  5  2       -1 -.257048295376D-01 0.100000000000D+01
0.938757702447D-04 0.000000000000D+00 0.000000000000D+00 0.226136007415D-02 0.000000000000D+00  5 2 -1 25 24 21 2 0.30837934D-02 0.12044044D+00 0.12753239D+05 0.12753239D+05 0.12753239D+05 0.12559372D+01  1  2 15  2  5  2       -1 0.320784756932D-01 0.100000000000D+01
0.196762285878D-02 0.000000000000D+00 0.000000000000D+00 0.226136007415D-02 0.000000000000D+00  5 2 -1 25 24 21 2 0.30837934D-02 0.15780680D+00 0.16282916D+05 0.16282916D+05 0.16282916D+05 0.12437798D+01  1  2 12  2  5  2       -1 0.338478374432D+00 0.100000000000D+01
-.204160513859D-02 0.000000000000D+00 0.000000000000D+00 0.226136007415D-02 0.000000000000D+00  5 2 -1 25 24 21 2 0.30837934D-02 0.12044044D+00 0.12753239D+05 0.12753239D+05 0.12753239D+05 0.12559372D+01  1  2  4  2  5  2       -1 -.697640942309D+00 0.100000000000D+01
-.291309864105D-02 0.000000000000D+00 -.615834193763D-03 0.226136007415D-02 0.000000000000D+00  5 2 -1 25 24 21 2 0.30837934D-02 0.15951535D+00 0.12753239D+05 0.12753239D+05 0.12753239D+05 0.12559372D+01  1  2  5  2  5  2       -1 -.494450008763D+00 0.100000000000D+01
0.299082912697D-02 0.000000000000D+00 0.592298253217D-03 0.226136007415D-02 0.000000000000D+00  5 2 -1 25 24 21 2 0.30837934D-02 0.12044044D+00 0.12753239D+05 0.12753239D+05 0.12753239D+05 0.12559372D+01  1  2  6  2  5  2       -1 0.102200215457D+01 0.100000000000D+01
0.705000974327D-04 0.000000000000D+00 0.000000000000D+00 0.226136007415D-02 0.000000000000D+00  5 2 21 25 24 1 2 0.30837934D-02 0.15780680D+00 0.16282916D+05 0.16282916D+05 0.16282916D+05 0.12437798D+01  1  2 12  4  5  2       -1 0.104282089183D+00 0.100000000000D+01
-.949291916182D-04 0.000000000000D+00 -.227023264070D-04 0.226136007415D-02 0.000000000000D+00  5 2 21 25 24 1 2 0.30837934D-02 0.15951535D+00 0.12753239D+05 0.12753239D+05 0.12753239D+05 0.12559372D+01  1  2  5  4  5  2       -1 -.139799634259D+00 0.100000000000D+01
  </mgrwgt>
  </event>
  <event>
  5     66 0.48098993E-03 0.14270378E+03 0.75467711E-02 0.11622568E+00
        2 -1    0    0  501    0 0.00000000E+00 0.00000000E+00 0.41996132E+03 0.41996144E+03 0.32000000E+00 0.0000E+00 0.9000E+01
       21 -1    0    0  502  501 0.00000000E+00 0.00000000E+00 -.10268117E+03 0.10268391E+03 0.75000000E+00 0.0000E+00 0.9000E+01
       25  1    1    2    0    0 -.11170904E+03 0.53285354E+02 0.16000376E+03 0.23779075E+03 0.12500000E+03 0.0000E+00 0.9000E+01
       24  1    1    2    0    0 0.39764363E+02 -.78855717E+02 0.16967517E+03 0.20750014E+03 0.80419002E+02 0.0000E+00 0.9000E+01
        1  1    1    2  502    0 0.71944679E+02 0.25570362E+02 -.12398784E+02 0.77354460E+02 0.32000000E+00 0.0000E+00 0.9000E+01
#aMCatNLO 2  0  0  2  1 0.76353652D+02 0.00000000D+00  -5  5  0 0.00000000D+00 0.00000000D+00 0.00000000D+00 0.00000000D+00 0.00000000D+00
  <mgrwgt>
 0.1128569827D+00    2    2    0
 0.144711697502952D+03 0.000000000000000D+00 0.000000000000000D+00 0.144711697502952D+03
 0.144711697502952D+03 0.000000000000000D+00 0.000000000000000D+00 -.144711697502952D+03
 0.160532436606373D+03 -.703993213671360D+02 0.679675315331468D+02 -.238749536359019D+02
 0.128890958399531D+03 0.703993213671360D+02 -.679675315331468D+02 0.238749536359019D+02
 0.000000000000000D+00 0.000000000000000D+00 0.000000000000000D+00 -.000000000000000D+00
 0.162206875529253D+03 0.000000000000000D+00 0.000000000000000D+00 0.162206875529253D+03
 0.265850436901371D+03 0.000000000000000D+00 0.000000000000000D+00 -.265850436901371D+03
 0.177519723964576D+03 -.111709041635423D+03 0.532853544816769D+02 -.238749536359019D+02
 0.121805820824135D+03 0.397643631275575D+02 -.788557166362343D+02 0.238749536359019D+02
 0.128731767641913D+03 0.719446785078659D+02 0.255703621545573D+02 -.103643561372119D+03
-.154747174816D-04 0.000000000000D+00 0.000000000000D+00 0.239419316862D-02 0.000000000000D+00  5 2 21 25 24 1 2 0.57640971D-01 0.15931175D-01 0.34540895D+05 0.34540895D+05 0.34540895D+05 0.12085260D+01  1  2 13  4  5  2       -1 -.848753795370D-01 0.100000000000D+01
0.401560691321D-04 0.000000000000D+00 0.000000000000D+00 0.239419316862D-02 0.311340434856D-06  5 2 21 25 24 1 2 0.64609579D-01 0.15797305D-01 0.34540895D+05 0.34540895D+05 0.34540895D+05 0.12085260D+01  1  2  1  4  5  2       -1 0.197732362243D+00 0.100000000000D+01
  </mgrwgt>
  </event>
  <event>
  4     66 0.48098993E-03 0.14254719E+03 0.75467711E-02 0.99853093E-01
        2 -1    0    0  501    0 0.00000000E+00 0.00000000E+00 0.11500027E+04 0.11500028E+04 0.32000000E+00 0.0000E+00 0.9000E+01
       -1 -1    0    0    0  501 0.00000000E+00 0.00000000E+00 -.22272144E+02 0.22274443E+02 0.32000000E+00 0.0000E+00 0.9000E+01
       25  1    1    2    0    0 -.93762147E+02 -.27206757E+02 0.34912076E+03 0.38346037E+03 0.12500000E+03 0.0000E+00 0.9000E+01
       24  1    1    2    0    0 0.93762147E+02 0.27206757E+02 0.77860984E+03 0.78881686E+03 0.80419002E+02 0.0000E+00 0.9000E+01
#aMCatNLO 1  0  0  2  1 0.52799001D+03 0.00000000D+00  -5  5  0 0.00000000D+00 0.00000000D+00 0.00000000D+00 0.00000000D+00 0.00000000D+00
  <mgrwgt>
 0.4906883279D+00    5    2    0
 0.160044995599412D+03 0.000000000000000D+00 0.000000000000000D+00 0.160044995599412D+03
 0.160044995599412D+03 0.000000000000000D+00 0.000000000000000D+00 -.160044995599412D+03
 0.174350010278770D+03 -.937621473253665D+02 -.272067566797631D+02 -.723973632400490D+02
 0.145739980920054D+03 0.937621473253665D+02 0.272067566797631D+02 0.723973632400490D+02
 0.000000000000000D+00 -.000000000000000D+00 0.000000000000000D+00 -.000000000000000D+00
 0.446940268780133D+03 0.000000000000000D+00 0.000000000000000D+00 0.446940268780133D+03
 0.812937494237196D+03 0.000000000000000D+00 0.000000000000000D+00 -.812937494237196D+03
 0.208209622834236D+03 0.107214149566431D+03 -.104833176854516D+03 -.723973632400490D+02
 0.409229487862864D+03 0.385313317574037D+03 -.854039043493284D+02 0.723973632400490D+02
 0.642438652320228D+03 -.492527467140468D+03 0.190237081203845D+03 -.365997225457063D+03
0.557143751989D-03 0.000000000000D+00 0.000000000000D+00 0.189528197515D-02 0.000000000000D+00  5 2 -1 25 24 21 0 0.17692368D+00 0.34266640D-02 0.20319701D+05 0.20319701D+05 0.20319701D+05 0.12330685D+01  1  2  2  2  5  2       -1 0.408985978566D+00 0.100000000000D+01
-.304479347949D-04 0.000000000000D+00 -.213957870696D-05 0.189528197515D-02 0.000000000000D+00  5 2 -1 25 24 21 2 0.17692368D+00 0.34266640D-02 0.20319701D+05 0.20319701D+05 0.20319701D+05 0.12330685D+01  1  2  3  2  5  2       -1 -.339839162487D-01 0.100000000000D+01
0.385246374745D-04 0.000000000000D+00 0.000000000000D+00 0.189528197515D-02 0.000000000000D+00  5 2 -1 25 24 21 2 0.17692368D+00 0.34266640D-02 0.20319701D+05 0.20319701D+05 0.20319701D+05 0.12330685D+01  1  2 15  2  5  2       -1 0.429985830652D-01 0.100000000000D+01
0.183273907684D-02 0.000000000000D+00 -.606760727977D-03 0.189528197515D-02 0.000000000000D+00  5 2 -1 25 24 21 2 0.17692368D+00 0.58435728D-01 0.20319701D+05 0.20319701D+05 0.20319701D+05 0.12330685D+01  1  2  5  2  5  2       -1 0.220397598459D-01 0.100000000000D+01
0.429443607201D-03 0.000000000000D+00 -.189892262724D-03 0.189528197515D-02 0.000000000000D+00  5 2 21 25 24 1 2 0.17692368D+00 0.58435728D-01 0.20319701D+05 0.20319701D+05 0.20319701D+05 0.12330685D+01  1  2  5  4  5  2       -1 0.506479226879D-01 0.100000000000D+01
  </mgrwgt>
  </event>
  <event>
  4     66 0.48098993E-03 0.10177457E+03 0.75467711E-02 0.11137945E+00
        2 -1    0    0  501    0 0.00000000E+00 0.00000000E+00 0.18634822E+04 0.18634822E+04 0.32000000E+00 0.0000E+00 0.9000E+01
       -1 -1    0    0    0  501 0.00000000E+00 0.00000000E+00 -.25134774E+02 0.25136811E+02 0.32000000E+00 0.0000E+00 0.9000E+01
       25  1    1    2    0    0 -.86705159E+02 0.12939477E+03 0.14349459E+04 0.14487772E+04 0.12500000E+03 0.0000E+00 0.9000E+01
       24  1    1    2    0    0 0.86705159E+02 -.12939477E+03 0.40340154E+03 0.43984180E+03 0.80419002E+02 0.0000E+00 0.9000E+01
#aMCatNLO 1  0  0  2  1 0.11043252D+03 0.00000000D+00  -5  5  0 0.00000000D+00 0.00000000D+00 0.00000000D+00 0.00000000D+00 0.00000000D+00
  <mgrwgt>
 0.3617131820D+00    9    2    0
 0.216425863125121D+03 0.000000000000000D+00 0.000000000000000D+00 0.216425863125121D+03
 0.216425863125121D+03 0.000000000000000D+00 0.000000000000000D+00 -.216425863125121D+03
 0.227004293902055D+03 -.867051592287803D+02 0.129394769681152D+03 0.107912735079063D+03
 0.205847432348187D+03 0.867051592287803D+02 -.129394769681152D+03 -.107912735079063D+03
 0.000000000000000D+00 0.000000000000000D+00 -.000000000000000D+00 -.000000000000000D+00
 0.262276478592321D+03 0.000000000000000D+00 0.000000000000000D+00 0.262276478592321D+03
 0.301698330894571D+03 0.000000000000000D+00 0.000000000000000D+00 -.301698330894571D+03
 0.266432930779528D+03 -.144849165409808D+03 0.150781522381247D+03 0.107912735079063D+03
 0.180283936480092D+03 0.412055017792879D+02 -.112658910119263D+03 -.107912735079063D+03
 0.117257942227273D+03 0.103643663630520D+03 -.381226122619838D+02 -.394218523022499D+02
0.125545021522D-02 0.000000000000D+00 0.000000000000D+00 0.161577433143D-02 0.000000000000D+00  5 2 -1 25 24 21 0 0.28668973D+00 0.38670472D-02 0.35157812D+05 0.35157812D+05 0.35157812D+05 0.12077329D+01  1  2  2  2  5  2       -1 0.324559489789D+00 0.100000000000D+01
-.680022504771D-04 0.000000000000D+00 -.482125939406D-05 0.161577433143D-02 0.000000000000D+00  5 2 -1 25 24 21 2 0.28668973D+00 0.38670472D-02 0.35157812D+05 0.35157812D+05 0.35157812D+05 0.12077329D+01  1  2  3  2  5  2       -1 -.256424704453D-01 0.100000000000D+01
0.862305891288D-04 0.000000000000D+00 0.000000000000D+00 0.161577433143D-02 0.000000000000D+00  5 2 -1 25 24 21 2 0.28668973D+00 0.38670472D-02 0.35157812D+05 0.35157812D+05 0.35157812D+05 0.12077329D+01  1  2 15  2  5  2       -1 0.325160611260D-01 0.100000000000D+01
0.235615053192D-03 0.000000000000D+00 0.000000000000D+00 0.161577433143D-02 0.000000000000D+00  5 2 -1 25 24 21 2 0.28668973D+00 0.56698715D-02 0.62113931D+05 0.62113931D+05 0.62113931D+05 0.11830619D+01  1  2 12  2  5  2       -1 0.479553027067D-01 0.100000000000D+01
-.530465370627D-03 0.000000000000D+00 0.000000000000D+00 0.161577433143D-02 0.000000000000D+00  5 2 -1 25 24 21 2 0.28668973D+00 0.38670472D-02 0.35157812D+05 0.35157812D+05 0.35157812D+05 0.12077329D+01  1  2  4  2  5  2       -1 -.200029300400D+00 0.100000000000D+01
-.569907491443D-03 0.000000000000D+00 -.407751029516D-03 0.161577433143D-02 0.000000000000D+00  5 2 -1 25 24 21 2 0.28668973D+00 0.67570501D-02 0.35157812D+05 0.35157812D+05 0.35157812D+05 0.12077329D+01  1  2  5  2  5  2       -1 -.934062447274D-01 0.100000000000D+01
0.736026745663D-03 0.000000000000D+00 0.351564192161D-03 0.161577433143D-02 0.000000000000D+00  5 2 -1 25 24 21 2 0.28668973D+00 0.38670472D-02 0.35157812D+05 0.35157812D+05 0.35157812D+05 0.12077329D+01  1  2  6  2  5  2       -1 0.277542933362D+00 0.100000000000D+01
0.108580561655D-04 0.000000000000D+00 0.000000000000D+00 0.161577433143D-02 0.000000000000D+00  5 2 21 25 24 1 2 0.28668973D+00 0.56698715D-02 0.62113931D+05 0.62113931D+05 0.62113931D+05 0.11830619D+01  1  2 12  4  5  2       -1 0.368396452142D-01 0.100000000000D+01
-.144956181182D-04 0.000000000000D+00 -.251467208600D-04 0.161577433143D-02 0.000000000000D+00  5 2 21 25 24 1 2 0.28668973D+00 0.67570501D-02 0.35157812D+05 0.35157812D+05 0.35157812D+05 0.12077329D+01  1  2  5  4  5  2       -1 -.386222346501D-01 0.100000000000D+01
  </mgrwgt>
  </event>
  <event>
  4     66 0.48098993E-03 0.58999588E+02 0.75467711E-02 0.12336531E+00
        2 -1    0    0  501    0 0.00000000E+00 0.00000000E+00 0.34254969E+04 0.34254969E+04 0.32000000E+00 0.0000E+00 0.9000E+01
       -1 -1    0    0    0  501 0.00000000E+00 0.00000000E+00 -.45887895E+01 0.45999336E+01 0.32000000E+00 0.0000E+00 0.9000E+01
       25  1    1    2    0    0 0.83174958E+01 0.68473290E+02 0.17358104E+04 0.17416717E+04 0.12500000E+03 0.0000E+00 0.9000E+01
       24  1    1    2    0    0 -.83174958E+01 -.68473290E+02 0.16850977E+04 0.16884251E+04 0.80419002E+02 0.0000E+00 0.9000E+01
#aMCatNLO 1  0  0  2  1 0.30894897D+01 0.00000000D+00  -5  5  0 0.00000000D+00 0.00000000D+00 0.00000000D+00 0.00000000D+00 0.00000000D+00
  <mgrwgt>
 0.6667242074D+00    8    2    0
 0.125451275366984D+03 0.000000000000000D+00 0.000000000000000D+00 0.125451275366984D+03
 0.125451275366984D+03 0.000000000000000D+00 0.000000000000000D+00 -.125451275366984D+03
 0.143700958398982D+03 0.831749580459211D+01 0.684732903747663D+02 -.163460458086832D+02
 0.107201592334986D+03 -.831749580459211D+01 -.684732903747663D+02 0.163460458086832D+02
 0.000000000000000D+00 -.000000000000000D+00 -.000000000000000D+00 0.000000000000000D+00
 0.127502612724452D+03 0.000000000000000D+00 0.000000000000000D+00 0.127502612724452D+03
 0.126629462787777D+03 0.000000000000000D+00 0.000000000000000D+00 -.126629462787777D+03
 0.144438056546690D+03 0.941363676124279D+01 0.698680356696287D+02 -.163460458086832D+02
 0.106483514689634D+03 -.750459305457703D+01 -.674389413899162D+02 0.163460458086832D+02
 0.321050427590560D+01 -.190904370666577D+01 -.242909427971256D+01 0.873149936675077D+00
0.143570763999D-02 0.000000000000D+00 0.000000000000D+00 0.264840935533D-02 0.000000000000D+00  5 2 -1 25 24 21 0 0.52700038D+00 0.70682600D-03 0.15464948D+05 0.15464948D+05 0.15464948D+05 0.12463140D+01  1  2  2  2  5  2       -1 0.586154169558D+00 0.100000000000D+01
-.797541076504D-04 0.000000000000D+00 -.551349536806D-05 0.264840935533D-02 0.000000000000D+00  5 2 -1 25 24 21 2 0.52700038D+00 0.70682600D-03 0.15464948D+05 0.15464948D+05 0.15464948D+05 0.12463140D+01  1  2  3  2  5  2       -1 -.505770938840D-01 0.100000000000D+01
0.993699271518D-04 0.000000000000D+00 0.000000000000D+00 0.264840935533D-02 0.000000000000D+00  5 2 -1 25 24 21 2 0.52700038D+00 0.70682600D-03 0.15464948D+05 0.15464948D+05 0.15464948D+05 0.12463140D+01  1  2 15  2  5  2       -1 0.630167182966D-01 0.100000000000D+01
0.990459299987D-05 0.000000000000D+00 0.000000000000D+00 0.264840935533D-02 0.000000000000D+00  5 2 -1 25 24 21 2 0.52700038D+00 0.71916977D-03 0.15853459D+05 0.15853459D+05 0.15853459D+05 0.12450920D+01  1  2 12  2  5  2       -1 0.611557030313D-02 0.100000000000D+01
-.282834104172D-02 0.000000000000D+00 0.000000000000D+00 0.264840935533D-02 0.000000000000D+00  5 2 -1 25 24 21 2 0.52700038D+00 0.70682600D-03 0.15464948D+05 0.15464948D+05 0.15464948D+05 0.12463140D+01  1  2  4  2  5  2       -1 -.179362887527D+01 0.100000000000D+01
0.282303606127D-02 0.000000000000D+00 0.000000000000D+00 0.264840935533D-02 0.229442246909D-02  5 2 -1 25 24 21 2 0.53561772D+00 0.71346423D-03 0.15853459D+05 0.15853459D+05 0.15853459D+05 0.12450920D+01  1  2 11  2  5  2       -1 0.162363144393D+01 0.100000000000D+01
0.306134552256D-06 0.000000000000D+00 0.000000000000D+00 0.264840935533D-02 0.000000000000D+00  5 2 21 25 24 1 2 0.52700038D+00 0.71916977D-03 0.15853459D+05 0.15853459D+05 0.15853459D+05 0.12450920D+01  1  2 12  4  5  2       -1 0.462272906230D-02 0.100000000000D+01
0.161480761623D-04 0.000000000000D+00 0.000000000000D+00 0.264840935533D-02 0.399444249512D-05  5 2 21 25 24 1 2 0.53561772D+00 0.71346423D-03 0.15853459D+05 0.15853459D+05 0.15853459D+05 0.12450920D+01  1  2 11  4  5  2       -1 0.227389545395D+00 0.100000000000D+01
  </mgrwgt>
  </event>
  <event>
  4     66 0.48098993E-03 0.81529839E+02 0.75467711E-02 0.11877525E+00
        2 -1    0    0  501    0 0.00000000E+00 0.00000000E+00 0.95123537E+03 0.95123542E+03 0.32000000E+00 0.0000E+00 0.9000E+01
       -1 -1    0    0    0  501 0.00000000E+00 0.00000000E+00 -.24503691E+02 0.24505780E+02 0.32000000E+00 0.0000E+00 0.9000E+01
       25  1    1    2    0    0 0.35973607E+02 0.84803009E+02 0.30670330E+03 0.34376964E+03 0.12500000E+03 0.0000E+00 0.9000E+01
       24  1    1    2    0    0 -.35973607E+02 -.84803009E+02 0.62002838E+03 0.63197157E+03 0.80419002E+02 0.0000E+00 0.9000E+01
#aMCatNLO 1  0  0  2  1 0.40878547D+02 0.00000000D+00  -5  5  0 0.00000000D+00 0.00000000D+00 0.00000000D+00 0.00000000D+00 0.00000000D+00
  <mgrwgt>
 0.3539743035D+00    9    2    0
 0.152675547639576D+03 0.000000000000000D+00 0.000000000000000D+00 0.152675547639576D+03
 0.152675547639576D+03 0.000000000000000D+00 0.000000000000000D+00 -.152675547639576D+03
 0.167671046570499D+03 0.359736072217654D+02 0.848030091934513D+02 -.632687053229013D+02
 0.137680048708653D+03 -.359736072217654D+02 -.848030091934513D+02 0.632687053229013D+02
 0.000000000000000D+00 0.000000000000000D+00 0.000000000000000D+00 -.000000000000000D+00
 0.161456956953324D+03 0.000000000000000D+00 0.000000000000000D+00 0.161456956953324D+03
 0.210345019611004D+03 0.000000000000000D+00 0.000000000000000D+00 -.210345019611004D+03
 0.161873854814762D+03 0.145990774944097D+02 0.797626650486734D+02 -.632687053229013D+02
 0.146201374655222D+03 -.543863694803489D+02 -.891449366942216D+02 0.632687053229013D+02
 0.637267470943443D+02 0.397872919859391D+02 0.938227164554815D+01 -.488880626576804D+02
0.362828603702D-03 0.000000000000D+00 0.000000000000D+00 0.201242457142D-02 0.000000000000D+00  5 2 -1 25 24 21 0 0.14634407D+00 0.37699634D-02 0.19259606D+05 0.19259606D+05 0.19259606D+05 0.12356337D+01  1  2  2  2  5  2       -1 0.302433511047D+00 0.100000000000D+01
-.199339402365D-04 0.000000000000D+00 -.139335737318D-05 0.201242457142D-02 0.000000000000D+00  5 2 -1 25 24 21 2 0.14634407D+00 0.37699634D-02 0.19259606D+05 0.19259606D+05 0.19259606D+05 0.12356337D+01  1  2  3  2  5  2       -1 -.253688654163D-01 0.100000000000D+01
0.250005079551D-04 0.000000000000D+00 0.000000000000D+00 0.201242457142D-02 0.000000000000D+00  5 2 -1 25 24 21 2 0.14634407D+00 0.37699634D-02 0.19259606D+05 0.19259606D+05 0.19259606D+05 0.12356337D+01  1  2 15  2  5  2       -1 0.318168166518D-01 0.100000000000D+01
0.488022214562D-03 0.000000000000D+00 0.000000000000D+00 0.201242457142D-02 0.000000000000D+00  5 2 -1 25 24 21 2 0.14634407D+00 0.52712991D-02 0.25869259D+05 0.25869259D+05 0.25869259D+05 0.12217094D+01  1  2 12  2  5  2       -1 0.372370141137D+00 0.100000000000D+01
-.517274706110D-03 0.000000000000D+00 0.000000000000D+00 0.201242457142D-02 0.000000000000D+00  5 2 -1 25 24 21 2 0.14634407D+00 0.37699634D-02 0.19259606D+05 0.19259606D+05 0.19259606D+05 0.12356337D+01  1  2  4  2  5  2       -1 -.658308003679D+00 0.100000000000D+01
-.654054344964D-03 0.000000000000D+00 -.148497109946D-03 0.201242457142D-02 0.000000000000D+00  5 2 -1 25 24 21 2 0.14634407D+00 0.54926770D-02 0.19259606D+05 0.19259606D+05 0.19259606D+05 0.12356337D+01  1  2  5  2  5  2       -1 -.477704625116D+00 0.100000000000D+01
0.671734693890D-03 0.000000000000D+00 0.138567411267D-03 0.201242457142D-02 0.000000000000D+00  5 2 -1 25 24 21 2 0.14634407D+00 0.37699634D-02 0.19259606D+05 0.19259606D+05 0.19259606D+05 0.12356337D+01  1  2  6  2  5  2       -1 0.854881014118D+00 0.100000000000D+01
0.204359388707D-04 0.000000000000D+00 0.000000000000D+00 0.201242457142D-02 0.000000000000D+00  5 2 21 25 24 1 2 0.14634407D+00 0.52712991D-02 0.25869259D+05 0.25869259D+05 0.25869259D+05 0.12217094D+01  1  2 12  4  5  2       -1 0.268493070150D+00 0.100000000000D+01
-.251187619973D-04 0.000000000000D+00 -.676087046455D-05 0.201242457142D-02 0.000000000000D+00  5 2 21 25 24 1 2 0.14634407D+00 0.54926770D-02 0.19259606D+05 0.19259606D+05 0.19259606D+05 0.12356337D+01  1  2  5  4  5  2       -1 -.314638755346D+00 0.100000000000D+01
  </mgrwgt>
  </event>
  <event>
  4     66 0.48098993E-03 0.84556715E+02 0.75467711E-02 0.12260408E+00
        2 -1    0    0  501    0 0.00000000E+00 0.00000000E+00 0.18452350E+04 0.18452350E+04 0.32000000E+00 0.0000E+00 0.9000E+01
       -1 -1    0    0    0  501 0.00000000E+00 0.00000000E+00 -.70758663E+01 0.70830984E+01 0.32000000E+00 0.0000E+00 0.9000E+01
       25  1    1    2    0    0 -.46293760E+02 -.13426417E+02 0.10011275E+04 0.10100519E+04 0.12500000E+03 0.0000E+00 0.9000E+01
       24  1    1    2    0    0 0.46293760E+02 0.13426417E+02 0.83703154E+03 0.84226622E+03 0.80419002E+02 0.0000E+00 0.9000E+01
#aMCatNLO 1  0  0  1  2 0.31971031D+02 0.00000000D+00  -5  5  0 0.00000000D+00 0.00000000D+00 0.00000000D+00 0.00000000D+00 0.00000000D+00
  <mgrwgt>
 0.5567119941D+00    9    2    0
 0.114295054805391D+03 0.000000000000000D+00 0.000000000000000D+00 0.114295054805391D+03
 0.114295054805391D+03 0.000000000000000D+00 0.000000000000000D+00 -.114295054805391D+03
 0.134326070279382D+03 -.462937597196854D+02 -.134264169162513D+02 -.975255333276420D+01
 0.942640393314010D+02 0.462937597196854D+02 0.134264169162513D+02 0.975255333276420D+01
 0.000000000000000D+00 0.000000000000000D+00 0.000000000000000D+00 0.000000000000000D+00
 0.141318809699335D+03 0.000000000000000D+00 0.000000000000000D+00 0.141318809699335D+03
 0.125269506448126D+03 0.000000000000000D+00 0.000000000000000D+00 -.125269506448126D+03
 0.141258422927390D+03 -.587177224892600D+02 -.280367404863547D+02 -.975255333276420D+01
 0.895566220862230D+02 0.380067148749031D+02 0.368102336768596D+01 0.975255333276420D+01
 0.357732711338483D+02 0.207110076143570D+02 0.243557171186688D+02 0.160493032512087D+02
0.185818799240D-03 0.000000000000D+00 0.000000000000D+00 0.288531311532D-02 0.000000000000D+00  5 2 -1 25 24 21 0 0.28388286D+00 0.10891533D-02 0.12965210D+05 0.12965210D+05 0.12965210D+05 0.12551054D+01  1  2  2  1  5  1        2 0.303782933377D+00 0.100000000000D+01
-.103230881480D-04 0.000000000000D+00 -.713593116296D-06 0.288531311532D-02 0.000000000000D+00  5 2 -1 25 24 21 2 0.28388286D+00 0.10891533D-02 0.12965210D+05 0.12965210D+05 0.12965210D+05 0.12551054D+01  1  2  3  1  5  1        2 -.265854335255D-01 0.100000000000D+01
0.128528858199D-04 0.000000000000D+00 0.000000000000D+00 0.288531311532D-02 0.000000000000D+00  5 2 -1 25 24 21 2 0.28388286D+00 0.10891533D-02 0.12965210D+05 0.12965210D+05 0.12965210D+05 0.12551054D+01  1  2 15  1  5  1        2 0.331005157253D-01 0.100000000000D+01
0.167920767400D-03 0.000000000000D+00 0.000000000000D+00 0.288531311532D-02 0.000000000000D+00  5 2 -1 25 24 21 2 0.36215566D+00 0.10891533D-02 0.17150052D+05 0.17150052D+05 0.17150052D+05 0.12412447D+01  1  2 12  1  5  1        2 0.233044356751D+00 0.100000000000D+01
-.172822243728D-03 0.000000000000D+00 0.000000000000D+00 0.288531311532D-02 0.000000000000D+00  5 2 -1 25 24 21 2 0.28388286D+00 0.10891533D-02 0.12965210D+05 0.12965210D+05 0.12965210D+05 0.12551054D+01  1  2  4  1  5  1        2 -.445075563290D+00 0.100000000000D+01
-.356017977279D-03 0.000000000000D+00 -.959752985225D-04 0.288531311532D-02 0.000000000000D+00  5 2 -1 25 24 21 2 0.36412915D+00 0.10891533D-02 0.12965210D+05 0.12965210D+05 0.12965210D+05 0.12551054D+01  1  2  5  1  5  1        2 -.495875210094D+00 0.100000000000D+01
0.371246384673D-03 0.000000000000D+00 0.930761933969D-04 0.288531311532D-02 0.000000000000D+00  5 2 -1 25 24 21 2 0.28388286D+00 0.10891533D-02 0.12965210D+05 0.12965210D+05 0.12965210D+05 0.12551054D+01  1  2  6  1  5  1        2 0.956084646357D+00 0.100000000000D+01
0.557359527224D-05 0.000000000000D+00 0.000000000000D+00 0.288531311532D-02 0.000000000000D+00  5 21 -1 25 24 -2 2 0.36215566D+00 0.10891533D-02 0.17150052D+05 0.17150052D+05 0.17150052D+05 0.12412447D+01  1  2 12  3  5  1        2 0.195327758744D-02 0.100000000000D+01
-.104139833252D-04 0.000000000000D+00 -.323801247479D-05 0.288531311532D-02 0.000000000000D+00  5 21 -1 25 24 -2 2 0.36412915D+00 0.10891533D-02 0.12965210D+05 0.12965210D+05 0.12965210D+05 0.12551054D+01  1  2  5  3  5  1        2 -.371752874209D-02 0.100000000000D+01
  </mgrwgt>
  </event>
  <event>
  4     66 0.48098993E-03 0.21877975E+03 0.75467711E-02 0.10953529E+00
        2 -1    0    0  501    0 0.00000000E+00 0.00000000E+00 0.41836900E+03 0.41836913E+03 0.32000000E+00 0.0000E+00 0.9000E+01
       -1 -1    0    0    0  501 0.00000000E+00 0.00000000E+00 -.12235261E+03 0.12235303E+03 0.32000000E+00 0.0000E+00 0.9000E+01
       25  1    1    2    0    0 0.17092466E+01 0.19215894E+03 0.22345031E+03 0.32012970E+03 0.12500000E+03 0.0000E+00 0.9000E+01
       24  1    1    2    0    0 -.17092466E+01 -.19215894E+03 0.72566083E+02 0.22059246E+03 0.80419002E+02 0.0000E+00 0.9000E+01
#aMCatNLO 1  0  0  2  2 0.11068866D+03 0.00000000D+00  -5  5  0 0.00000000D+00 0.00000000D+00 0.00000000D+00 0.00000000D+00 0.00000000D+00
  <mgrwgt>
 0.3235944550D+00    4    2    0
 0.226249167376535D+03 0.000000000000000D+00 0.000000000000000D+00 0.226249167376535D+03
 0.226249167376535D+03 0.000000000000000D+00 0.000000000000000D+00 -.226249167376535D+03
 0.236368303008964D+03 0.170924657116870D+01 0.192158942126493D+03 0.575933512162939D+02
 0.216130031744105D+03 -.170924657116870D+01 -.192158942126493D+03 -.575933512162939D+02
 0.000000000000000D+00 0.000000000000000D+00 -.000000000000000D+00 0.000000000000000D+00
 0.299455796270294D+03 0.000000000000000D+00 0.000000000000000D+00 0.299455796270294D+03
 0.278955128518743D+03 0.000000000000000D+00 0.000000000000000D+00 -.278955128518743D+03
 0.285005433295879D+03 -.268826240335242D+02 0.248119784436712D+03 0.575933512162939D+02
 0.180834370549372D+03 -.234785725550309D+02 -.149551382956065D+03 -.575933512162939D+02
 0.112571120943786D+03 0.503611965885552D+02 -.985684014806469D+02 0.205006677515503D+02
0.253165458749D-02 0.000000000000D+00 0.000000000000D+00 0.197004979488D-02 0.000000000000D+00  5 2 -1 25 24 21 0 0.64364504D-01 0.18823520D-01 0.47864580D+05 0.47864580D+05 0.47864580D+05 0.11941636D+01  1  2  2  2  5  2       -1 0.484991705922D+00 0.100000000000D+01
-.140454746055D-03 0.000000000000D+00 -.972222021591D-05 0.197004979488D-02 0.000000000000D+00  5 2 -1 25 24 21 2 0.64364504D-01 0.18823520D-01 0.47864580D+05 0.47864580D+05 0.47864580D+05 0.11941636D+01  1  2  3  2  5  2       -1 -.383701908954D-01 0.100000000000D+01
0.173443103481D-03 0.000000000000D+00 0.000000000000D+00 0.197004979488D-02 0.000000000000D+00  5 2 -1 25 24 21 2 0.64364504D-01 0.18823520D-01 0.47864580D+05 0.47864580D+05 0.47864580D+05 0.11941636D+01  1  2 15  2  5  2       -1 0.473821296680D-01 0.100000000000D+01
-.623785780183D-03 0.000000000000D+00 0.000000000000D+00 0.197004979488D-02 0.000000000000D+00  5 2 -1 25 24 21 2 0.64364504D-01 0.18823520D-01 0.47864580D+05 0.47864580D+05 0.47864580D+05 0.11941636D+01  1  2  4  2  5  2       -1 -.170409189691D+00 0.100000000000D+01
  </mgrwgt>
  </event>
  <event>
  4     66 0.48098993E-03 0.12813381E+03 0.75467711E-02 0.12226898E+00
        2 -1    0    0  501    0 0.00000000E+00 0.00000000E+00 0.14688997E+04 0.14688997E+04 0.32000000E+00 0.0000E+00 0.9000E+01
       -1 -1    0    0    0  501 0.00000000E+00 0.00000000E+00 -.11713466E+02 0.11717836E+02 0.32000000E+00 0.0000E+00 0.9000E+01
       25  1    1    2    0    0 -.59186056E+02 0.46780627E+02 0.66829590E+03 0.68405835E+03 0.12500000E+03 0.0000E+00 0.9000E+01
       24  1    1    2    0    0 0.59186056E+02 -.46780627E+02 0.78889031E+03 0.79655920E+03 0.80419002E+02 0.0000E+00 0.9000E+01
#aMCatNLO 1  0  0  1  2 0.10044138D+02 0.00000000D+00  -5  5  0 0.00000000D+00 0.00000000D+00 0.00000000D+00 0.00000000D+00 0.00000000D+00
  <mgrwgt>
 0.4821437538D+00    4    2    0
 0.131183715001882D+03 0.000000000000000D+00 0.000000000000000D+00 0.131183715001882D+03
 0.131183715001882D+03 0.000000000000000D+00 0.000000000000000D+00 -.131183715001882D+03
 0.148635927049502D+03 -.591860559361386D+02 0.467806268602297D+02 -.278607706848365D+02
 0.113731502954262D+03 0.591860559361386D+02 -.467806268602297D+02 0.278607706848365D+02
 0.000000000000000D+00 0.000000000000000D+00 0.000000000000000D+00 -.000000000000000D+00
 0.131836736112880D+03 0.000000000000000D+00 0.000000000000000D+00 0.131836736112880D+03
 0.176566132036805D+03 0.000000000000000D+00 0.000000000000000D+00 -.176566132036805D+03
 0.147038574506761D+03 -.593944095810721D+02 0.411269250047125D+02 -.278607706848365D+02
 0.115521043569505D+03 0.590245080061444D+02 -.511642498674264D+02 0.278607706848365D+02
 0.458432500734187D+02 0.369901574927658D+00 0.100373248627139D+02 -.447293959239247D+02
0.402390031016D-03 0.000000000000D+00 0.000000000000D+00 0.250063353145D-02 0.000000000000D+00  5 2 -1 25 24 21 0 0.22598490D+00 0.18024105D-02 0.16418272D+05 0.16418272D+05 0.16418272D+05 0.12433742D+01  1  2  2  1  5  1        2 0.502037679212D+00 0.100000000000D+01
-.223399610918D-04 0.000000000000D+00 -.154528367083D-05 0.250063353145D-02 0.000000000000D+00  5 2 -1 25 24 21 2 0.22598490D+00 0.18024105D-02 0.16418272D+05 0.16418272D+05 0.16418272D+05 0.12433742D+01  1  2  3  1  5  1        2 -.430898749057D-01 0.100000000000D+01
0.277525782853D-04 0.000000000000D+00 0.000000000000D+00 0.250063353145D-02 0.000000000000D+00  5 2 -1 25 24 21 2 0.22598490D+00 0.18024105D-02 0.16418272D+05 0.16418272D+05 0.16418272D+05 0.12433742D+01  1  2 15  1  5  1        2 0.535298661314D-01 0.100000000000D+01
-.157266299674D-04 0.000000000000D+00 0.000000000000D+00 0.250063353145D-02 0.000000000000D+00  5 2 -1 25 24 21 2 0.22598490D+00 0.18024105D-02 0.16418272D+05 0.16418272D+05 0.16418272D+05 0.12433742D+01  1  2  4  1  5  1        2 -.303339166617D-01 0.100000000000D+01
  </mgrwgt>
  </event>
  <event>
  4     66 0.48098993E-03 0.70885975E+02 0.75467711E-02 0.11765584E+00
        2 -1    0    0  501    0 0.00000000E+00 0.00000000E+00 0.10576617E+04 0.10576618E+04 0.32000000E+00 0.0000E+00 0.9000E+01
       -1 -1    0    0    0  501 0.00000000E+00 0.00000000E+00 -.26231003E+02 0.26232955E+02 0.32000000E+00 0.0000E+00 0.9000E+01
       25  1    1    2    0    0 -.31206304E+01 -.53268256E+02 0.17274506E+03 0.21980242E+03 0.12500000E+03 0.0000E+00 0.9000E+01
       24  1    1    2    0    0 0.31206304E+01 0.53268256E+02 0.85868564E+03 0.86409229E+03 0.80419002E+02 0.0000E+00 0.9000E+01
#aMCatNLO 1  0  0  1  2 0.91474647D+02 0.00000000D+00  -5  5  0 0.00000000D+00 0.00000000D+00 0.00000000D+00 0.00000000D+00 0.00000000D+00
  <mgrwgt>
 0.2615793186D+00    7    2    0
 0.166567137270383D+03 0.000000000000000D+00 0.000000000000000D+00 0.166567137270383D+03
 0.166567137270383D+03 0.000000000000000D+00 0.000000000000000D+00 -.166567137270383D+03
 0.180312021458979D+03 -.312063035863532D+01 -.532682556773235D+02 -.118491264175395D+03
 0.152822253081787D+03 0.312063035863532D+01 0.532682556773235D+02 0.118491264175395D+03
 0.000000000000000D+00 -.000000000000000D+00 -.000000000000000D+00 0.000000000000000D+00
 0.570882443129151D+03 0.000000000000000D+00 0.000000000000000D+00 0.570882443129151D+03
 0.177986550155591D+03 0.000000000000000D+00 0.000000000000000D+00 -.177986550155591D+03
 0.179812296770850D+03 0.405246813449697D+02 -.320161300911502D+02 -.118491264175395D+03
 0.165652688360987D+03 0.417182406432771D+02 0.720625139625181D+02 0.118491264175395D+03
 0.403404008152905D+03 -.822429219882468D+02 -.400463838713679D+02 0.392895892973560D+03
0.470509693209D-03 0.000000000000D+00 0.000000000000D+00 0.121653846396D-02 0.000000000000D+00  5 2 -1 25 24 21 0 0.16271734D+00 0.40356928D-02 0.13505240D+05 0.13505240D+05 0.13505240D+05 0.12530535D+01  1  2  2  1  5  1        2 0.304252878662D+00 0.100000000000D+01
-.220209282603D-04 0.000000000000D+00 -.180688110997D-05 0.121653846396D-02 0.000000000000D+00  5 2 -1 25 24 21 2 0.16271734D+00 0.40356928D-02 0.13505240D+05 0.13505240D+05 0.13505240D+05 0.12530535D+01  1  2  3  1  5  1        2 -.223584113474D-01 0.100000000000D+01
0.321771592725D-04 0.000000000000D+00 0.000000000000D+00 0.121653846396D-02 0.000000000000D+00  5 2 -1 25 24 21 2 0.16271734D+00 0.40356928D-02 0.13505240D+05 0.13505240D+05 0.13505240D+05 0.12530535D+01  1  2 15  1  5  1        2 0.326702923011D-01 0.100000000000D+01
0.168928418016D-03 0.000000000000D+00 0.000000000000D+00 0.121653846396D-02 0.000000000000D+00  5 2 -1 25 24 21 2 0.54643856D+00 0.40356928D-02 0.29323945D+05 0.29323945D+05 0.29323945D+05 0.12159387D+01  1  2 12  1  5  1        2 0.672919563780D-02 0.100000000000D+01
-.158045409201D-02 0.000000000000D+00 -.160003414265D-03 0.121653846396D-02 0.000000000000D+00  5 2 -1 25 24 21 2 0.56219203D+00 0.40356928D-02 0.13505240D+05 0.13505240D+05 0.13505240D+05 0.12530535D+01  1  2  5  1  5  1        2 -.592020463291D-01 0.100000000000D+01
0.237725597391D-04 0.000000000000D+00 0.000000000000D+00 0.121653846396D-02 0.000000000000D+00  5 21 -1 25 24 -2 2 0.54643856D+00 0.40356928D-02 0.29323945D+05 0.29323945D+05 0.29323945D+05 0.12159387D+01  1  2 12  3  5  1        2 0.679471427853D-04 0.100000000000D+01
-.223355166264D-03 0.000000000000D+00 -.231581451954D-04 0.121653846396D-02 0.000000000000D+00  5 21 -1 25 24 -2 2 0.56219203D+00 0.40356928D-02 0.13505240D+05 0.13505240D+05 0.13505240D+05 0.12530535D+01  1  2  5  3  5  1        2 -.580537443952D-03 0.100000000000D+01
  </mgrwgt>
  </event>
  <event>
  5     66 0.48098993E-03 0.12154947E+03 0.75467711E-02 0.11486965E+00
        2 -1    0    0  501    0 0.00000000E+00 0.00000000E+00 0.44675656E+03 0.44675667E+03 0.32000000E+00 0.0000E+00 0.9000E+01
       -1 -1    0    0    0  502 0.00000000E+00 0.00000000E+00 -.11608195E+03 0.11608239E+03 0.32000000E+00 0.0000E+00 0.9000E+01
       25  1    1    2    0    0 0.73861744E+02 0.28176188E+01 0.16072302E+02 0.14610549E+03 0.12500000E+03 0.0000E+00 0.9000E+01
       24  1    1    2    0    0 0.60021243E+01 -.10193275E+03 0.22907364E+03 0.26337854E+03 0.80419002E+02 0.0000E+00 0.9000E+01
       21  1    1    2  501  502 -.79863868E+02 0.99115129E+02 0.85528673E+02 0.15335502E+03 0.75000000E+00 0.0000E+00 0.9000E+01
#aMCatNLO 2  0  0  2  1 0.12728726D+03 0.00000000D+00  -5  5  0 0.00000000D+00 0.00000000D+00 0.00000000D+00 0.00000000D+00 0.00000000D+00
  <mgrwgt>
 0.3812666992D-01    1    2    0
 0.151144466687013D+03 0.000000000000000D+00 0.000000000000000D+00 0.151144466687013D+03
 0.151144466687013D+03 0.000000000000000D+00 0.000000000000000D+00 -.151144466687013D+03
 0.166291868782442D+03 0.312001678219135D+02 0.557628080952889D+02 -.891349784560998D+02
 0.135997064591584D+03 -.312001678219135D+02 -.557628080952889D+02 0.891349784560998D+02
 0.000000000000000D+00 -.000000000000000D+00 0.000000000000000D+00 -.000000000000000D+00
 0.223841334222989D+03 0.000000000000000D+00 0.000000000000000D+00 0.223841334222989D+03
 0.231682072201721D+03 0.000000000000000D+00 0.000000000000000D+00 -.231682072201721D+03
 0.170392313782559D+03 0.738617440647299D+02 0.281761876784713D+01 -.891349784560998D+02
 0.157602572599330D+03 0.600212428298863D+01 -.101932747707881D+03 0.891349784560998D+02
 0.127528520042822D+03 -.798638683477185D+02 0.991151289400342D+02 -.784073797873215D+01
0.136331500871D-03 0.000000000000D+00 0.000000000000D+00 0.163630625773D-02 0.972892240868D-06  5 2 -1 25 24 21 2 0.68731488D-01 0.17858717D-01 0.40497768D+05 0.40497768D+05 0.40497768D+05 0.12014552D+01  1  2  1  2  5  2       -1 0.381266699207D-01 0.100000000000D+01
  </mgrwgt>
  </event>
  <event>
  4     66 0.48098993E-03 0.10799790E+03 0.75467711E-02 0.12471520E+00
        2 -1    0    0  501    0 0.00000000E+00 0.00000000E+00 0.86096085E+03 0.86096091E+03 0.32000000E+00 0.0000E+00 0.9000E+01
       -1 -1    0    0    0  501 0.00000000E+00 0.00000000E+00 -.17489605E+02 0.17492533E+02 0.32000000E+00 0.0000E+00 0.9000E+01
       25  1    1    2    0    0 0.73027508E+01 -.31835583E+02 0.69128481E+03 0.70325423E+03 0.12500000E+03 0.0000E+00 0.9000E+01
       24  1    1    2    0    0 -.73027508E+01 0.31835583E+02 0.15218644E+03 0.17519921E+03 0.80419002E+02 0.0000E+00 0.9000E+01
#aMCatNLO 1  0  0  1  2 0.18627951D+02 0.00000000D+00  -5  5  0 0.00000000D+00 0.00000000D+00 0.00000000D+00 0.00000000D+00 0.00000000D+00
  <mgrwgt>
 0.5179231896D+00    3    2    0
 0.122715839912668D+03 0.000000000000000D+00 0.000000000000000D+00 0.122715839912668D+03
 0.122715839912668D+03 0.000000000000000D+00 0.000000000000000D+00 -.122715839912668D+03
 0.141372323159140D+03 0.730275075263255D+01 -.318355832662036D+02 0.573959861397794D+02
 0.104059356666197D+03 -.730275075263255D+01 0.318355832662036D+02 -.573959861397794D+02
 0.000000000000000D+00 -.000000000000000D+00 0.000000000000000D+00 -.000000000000000D+00
 0.123606222726879D+03 0.000000000000000D+00 0.000000000000000D+00 0.123606222726879D+03
 0.284485141651455D+03 0.000000000000000D+00 0.000000000000000D+00 -.284485141651455D+03
 0.144254467318418D+03 0.915862555348285D+01 -.424990787468827D+02 0.573959861397794D+02
 0.101883116227055D+03 -.596462891459224D+01 0.241469955629796D+02 -.573959861397794D+02
 0.161953780832862D+03 -.319399663889061D+01 0.183520831839030D+02 -.160878918924576D+03
0.331846356140D-03 0.000000000000D+00 0.000000000000D+00 0.221316418698D-02 0.000000000000D+00  5 2 -1 25 24 21 0 0.13245575D+00 0.26909383D-02 0.11663545D+05 0.11663545D+05 0.11663545D+05 0.12604742D+01  1  2  2  1  5  1        2 0.506485799841D+00 0.100000000000D+01
-.180700327842D-04 0.000000000000D+00 -.127437738473D-05 0.221316418698D-02 0.000000000000D+00  5 2 -1 25 24 21 2 0.13245575D+00 0.26909383D-02 0.11663545D+05 0.11663545D+05 0.11663545D+05 0.12604742D+01  1  2  3  1  5  1        2 -.438184551354D-01 0.100000000000D+01
0.227866300989D-04 0.000000000000D+00 0.000000000000D+00 0.221316418698D-02 0.000000000000D+00  5 2 -1 25 24 21 2 0.13245575D+00 0.26909383D-02 0.11663545D+05 0.11663545D+05 0.11663545D+05 0.12604742D+01  1  2 15  1  5  1        2 0.552558448896D-01 0.100000000000D+01
  </mgrwgt>
  </event>
  <event>
  4     66 0.48098993E-03 0.10679807E+03 0.75467711E-02 0.10815079E+00
        2 -1    0    0  501    0 0.00000000E+00 0.00000000E+00 0.22677813E+03 0.22677836E+03 0.32000000E+00 0.0000E+00 0.9000E+01
       -1 -1    0    0    0  501 0.00000000E+00 0.00000000E+00 -.14130273E+03 0.14130309E+03 0.32000000E+00 0.0000E+00 0.9000E+01
       25  1    1    2    0    0 0.26266902E+02 -.11371923E+02 -.10084510E+03 0.16313800E+03 0.12500000E+03 0.0000E+00 0.9000E+01
       24  1    1    2    0    0 -.26266902E+02 0.11371923E+02 0.18632051E+03 0.20494345E+03 0.80419002E+02 0.0000E+00 0.9000E+01
#aMCatNLO 1  0  0  2  1 0.26960046D+03 0.00000000D+00  -5  5  0 0.00000000D+00 0.00000000D+00 0.00000000D+00 0.00000000D+00 0.00000000D+00
  <mgrwgt>
 0.2053463923D+00    5    2    0
 0.179009712225638D+03 0.000000000000000D+00 0.000000000000000D+00 0.179009712225638D+03
 0.179009712225638D+03 0.000000000000000D+00 0.000000000000000D+00 -.179009712225638D+03
 0.191799219470483D+03 0.262669022392746D+02 -.113719229749909D+02 -.142627731539451D+03
 0.166220204980793D+03 -.262669022392746D+02 0.113719229749909D+02 0.142627731539451D+03
 0.000000000000000D+00 0.000000000000000D+00 -.000000000000000D+00 -.000000000000000D+00
 0.253907240498406D+03 0.000000000000000D+00 0.000000000000000D+00 0.253907240498406D+03
 0.833470130715748D+03 0.000000000000000D+00 0.000000000000000D+00 -.833470130715748D+03
 0.219036118640286D+03 -.108527873841054D+03 0.151938166519122D+02 -.142627731539451D+03
 0.229140539159590D+03 -.155984475275766D+03 0.369370329186254D+02 0.142627731539451D+03
 0.639200713414279D+03 0.264512349116820D+03 -.521308495705376D+02 -.579562890217342D+03
0.685529009221D-03 0.000000000000D+00 0.000000000000D+00 0.902891552870D-03 0.000000000000D+00  5 2 -1 25 24 21 0 0.34888989D-01 0.21738927D-01 0.11405827D+05 0.11405827D+05 0.11405827D+05 0.12616171D+01  1  2  2  2  5  2       -1 0.195543510489D+00 0.100000000000D+01
-.257318478215D-04 0.000000000000D+00 -.263261189934D-05 0.902891552870D-03 0.000000000000D+00  5 2 -1 25 24 21 2 0.34888989D-01 0.21738927D-01 0.11405827D+05 0.11405827D+05 0.11405827D+05 0.12616171D+01  1  2  3  2  5  2       -1 -.116827123082D-01 0.100000000000D+01
0.467607024508D-04 0.000000000000D+00 0.000000000000D+00 0.902891552870D-03 0.000000000000D+00  5 2 -1 25 24 21 2 0.34888989D-01 0.21738927D-01 0.11405827D+05 0.11405827D+05 0.11405827D+05 0.12616171D+01  1  2 15  2  5  2       -1 0.212301828399D-01 0.100000000000D+01
0.618346507569D-04 0.000000000000D+00 -.297283939724D-03 0.902891552870D-03 0.000000000000D+00  5 2 -1 25 24 21 2 0.34888989D-01 0.12981437D+00 0.11405827D+05 0.11405827D+05 0.11405827D+05 0.12616171D+01  1  2  5  2  5  2       -1 0.953110602801D-03 0.100000000000D+01
-.518033689901D-05 0.000000000000D+00 -.651072382040D-04 0.902891552870D-03 0.000000000000D+00  5 2 21 25 24 1 2 0.34888989D-01 0.12981437D+00 0.11405827D+05 0.11405827D+05 0.11405827D+05 0.12616171D+01  1  2  5  4  5  2       -1 -.697699276087D-03 0.100000000000D+01
  </mgrwgt>
  </event>
  <event>
  5     66 0.48098993E-03 0.15256557E+03 0.75467711E-02 0.11265768E+00
        2 -1    0    0  501    0 0.00000000E+00 0.00000000E+00 0.56453013E+03 0.56453022E+03 0.32000000E+00 0.0000E+00 0.9000E+01
       -1 -1    0    0    0  502 0.00000000E+00 0.00000000E+00 -.16402496E+03 0.16402527E+03 0.32000000E+00 0.0000E+00 0.9000E+01
       25  1    1    2    0    0 -.65207906E+02 0.53606537E+02 0.12344667E+03 0.19490976E+03 0.12500000E+03 0.0000E+00 0.9000E+01
       24  1    1    2    0    0 -.54416326E+01 -.16143190E+03 0.34395531E+03 0.38841002E+03 0.80419002E+02 0.0000E+00 0.9000E+01
       21  1    1    2  501  502 0.70649539E+02 0.10782537E+03 -.66896817E+02 0.14523572E+03 0.75000000E+00 0.0000E+00 0.9000E+01
#aMCatNLO 2  0  0  2  1 0.12890953D+03 0.00000000D+00  -5  5  0 0.00000000D+00 0.00000000D+00 0.00000000D+00 0.00000000D+00 0.00000000D+00
  <mgrwgt>
 0.1110785217D+00    2    2    0
 0.162157082961358D+03 0.000000000000000D+00 0.000000000000000D+00 0.162157082961358D+03
 0.162157082961358D+03 0.000000000000000D+00 0.000000000000000D+00 -.162157082961358D+03
 0.176275775587032D+03 -.298758692174259D+02 0.107530312463336D+03 -.547066120213122D+02
 0.148038390335684D+03 0.298758692174259D+02 -.107530312463336D+03 0.547066120213122D+02
 0.000000000000000D+00 0.000000000000000D+00 0.000000000000000D+00 -.000000000000000D+00
 0.187507025087800D+03 0.000000000000000D+00 0.000000000000000D+00 0.187507025087800D+03
 0.493831023569780D+03 0.000000000000000D+00 0.000000000000000D+00 -.493831023569780D+03
 0.160447952011754D+03 -.652079063284801D+02 0.536065374574032D+02 -.547066120213122D+02
 0.188546811789910D+03 -.544163257354694D+01 -.161431903655546D+03 0.547066120213122D+02
 0.332343284855916D+03 0.706495389020270D+02 0.107825366198143D+03 -.306323998481979D+03
-.393289833392D-04 0.000000000000D+00 0.000000000000D+00 0.207924862365D-02 0.000000000000D+00  5 2 -1 25 24 21 2 0.75108896D-01 0.24422000D-01 0.52941135D+05 0.52941135D+05 0.52941135D+05 0.11898312D+01  1  2 13  2  5  2       -1 -.587917047337D-02 0.100000000000D+01
0.973384151773D-03 0.000000000000D+00 0.000000000000D+00 0.207924862365D-02 0.149268988068D-05  5 2 -1 25 24 21 2 0.86850635D-01 0.25234587D-01 0.52941135D+05 0.52941135D+05 0.52941135D+05 0.11898312D+01  1  2  1  2  5  2       -1 0.116957692138D+00 0.100000000000D+01
  </mgrwgt>
  </event>
  <event>
  4     66 0.48098993E-03 0.66634577E+02 0.75467711E-02 0.12421809E+00
        2 -1    0    0  501    0 0.00000000E+00 0.00000000E+00 0.10090809E+04 0.10090810E+04 0.32000000E+00 0.0000E+00 0.9000E+01
       -1 -1    0    0    0  501 0.00000000E+00 0.00000000E+00 -.15136807E+02 0.15140190E+02 0.32000000E+00 0.0000E+00 0.9000E+01
       25  1    1    2    0    0 -.15062201E+02 0.48894726E+02 0.75467909E+03 0.76667014E+03 0.12500000E+03 0.0000E+00 0.9000E+01
       24  1    1    2    0    0 0.15062201E+02 -.48894726E+02 0.23926501E+03 0.25755101E+03 0.80419002E+02 0.0000E+00 0.9000E+01
#aMCatNLO 1  0  0  1  2 0.10518790D+02 0.00000000D+00  -5  5  0 0.00000000D+00 0.00000000D+00 0.00000000D+00 0.00000000D+00 0.00000000D+00
  <mgrwgt>
 0.4585116550D+00    6    2    0
 0.123596203185387D+03 0.000000000000000D+00 0.000000000000000D+00 0.123596203185387D+03
 0.123596203185387D+03 0.000000000000000D+00 0.000000000000000D+00 -.123596203185387D+03
 0.142119798185901D+03 -.150622011576713D+02 0.488947260723438D+02 0.442207292454287D+02
 0.105072608184873D+03 0.150622011576713D+02 -.488947260723438D+02 -.442207292454287D+02
 0.000000000000000D+00 -.000000000000000D+00 -.000000000000000D+00 -.000000000000000D+00
 0.128859855425834D+03 0.000000000000000D+00 0.000000000000000D+00 0.128859855425834D+03
 0.129077290203836D+03 0.000000000000000D+00 0.000000000000000D+00 -.129077290203836D+03
 0.142722098810242D+03 -.979967843883231D+01 0.518949987599807D+02 0.442207292454287D+02
 0.104694009624802D+03 0.189376899938252D+02 -.466852299945921D+02 -.442207292454287D+02
 0.105210371946252D+02 -.913801155499287D+01 -.520976876538859D+01 -.217434778001588D+00
0.186775959615D-03 0.000000000000D+00 0.000000000000D+00 0.241513749679D-02 0.000000000000D+00  5 2 -1 25 24 21 0 0.15524348D+00 0.23290037D-02 0.13268638D+05 0.13268638D+05 0.13268638D+05 0.12539409D+01  1  2  2  1  5  1        2 0.286150554047D+00 0.100000000000D+01
-.103138419889D-04 0.000000000000D+00 -.717268864162D-06 0.241513749679D-02 0.000000000000D+00  5 2 -1 25 24 21 2 0.15524348D+00 0.23290037D-02 0.13268638D+05 0.13268638D+05 0.13268638D+05 0.12539409D+01  1  2  3  1  5  1        2 -.248455276861D-01 0.100000000000D+01
0.129320970835D-04 0.000000000000D+00 0.000000000000D+00 0.241513749679D-02 0.000000000000D+00  5 2 -1 25 24 21 2 0.15524348D+00 0.23290037D-02 0.13268638D+05 0.13268638D+05 0.13268638D+05 0.12539409D+01  1  2 15  1  5  1        2 0.311527727955D-01 0.100000000000D+01
0.420312885048D-03 0.000000000000D+00 0.000000000000D+00 0.241513749679D-02 0.000000000000D+00  5 2 -1 25 24 21 2 0.16515092D+00 0.23290037D-02 0.14533994D+05 0.14533994D+05 0.14533994D+05 0.12493881D+01  1  2 12  1  5  1        2 0.924796306903D+00 0.100000000000D+01
-.318383434438D-03 0.000000000000D+00 0.000000000000D+00 0.241513749679D-02 0.000000000000D+00  5 2 -1 25 24 21 2 0.15524348D+00 0.23290037D-02 0.13268638D+05 0.13268638D+05 0.13268638D+05 0.12539409D+01  1  2  4  1  5  1        2 -.766969713485D+00 0.100000000000D+01
0.468085417334D-05 0.000000000000D+00 0.000000000000D+00 0.241513749679D-02 0.000000000000D+00  5 21 -1 25 24 -2 2 0.16515092D+00 0.23290037D-02 0.14533994D+05 0.14533994D+05 0.14533994D+05 0.12493881D+01  1  2 12  3  5  1        2 0.822726244020D-02 0.100000000000D+01
  </mgrwgt>
  </event>
  <event>
  4     66 0.48098993E-03 0.17546555E+03 0.75467711E-02 0.10927666E+00
        2 -1    0    0  501    0 0.00000000E+00 0.00000000E+00 0.14871632E+04 0.14871633E+04 0.32000000E+00 0.0000E+00 0.9000E+01
       -1 -1    0    0    0  501 0.00000000E+00 0.00000000E+00 -.25251696E+02 0.25253723E+02 0.32000000E+00 0.0000E+00 0.9000E+01
       25  1    1    2    0    0 0.10811871E+03 0.90678790E+02 0.10957841E+04 0.11118814E+04 0.12500000E+03 0.0000E+00 0.9000E+01
       24  1    1    2    0    0 -.10811871E+03 -.90678790E+02 0.36612742E+03 0.40053565E+03 0.80419002E+02 0.0000E+00 0.9000E+01
#aMCatNLO 1  0  0  2  2 0.18123912D+03 0.00000000D+00  -5  5  0 0.00000000D+00 0.00000000D+00 0.00000000D+00 0.00000000D+00 0.00000000D+00
  <mgrwgt>
 0.5589256930D+00    3    2    0
 0.193791003695857D+03 0.000000000000000D+00 0.000000000000000D+00 0.193791003695857D+03
 0.193791003695857D+03 0.000000000000000D+00 0.000000000000000D+00 -.193791003695857D+03
 0.205604999019399D+03 0.108118710513430D+03 0.906787899986917D+02 0.820738515183331D+02
 0.181977008372315D+03 -.108118710513430D+03 -.906787899986917D+02 -.820738515183331D+02
 0.000000000000000D+00 -.000000000000000D+00 -.000000000000000D+00 0.000000000000000D+00
 0.594094000937519D+03 0.000000000000000D+00 0.000000000000000D+00 0.594094000937519D+03
 0.235532958503267D+03 0.000000000000000D+00 0.000000000000000D+00 -.235532958503267D+03
 0.286478558123928D+03 0.214061435732205D+03 0.117841202021952D+03 0.820738515183331D+02
 0.141385239607375D+03 -.385007009568540D+02 -.728295884050002D+02 -.820738515183331D+02
 0.401763161709484D+03 -.175560734775351D+03 -.450116136169521D+02 0.358561042434252D+03
0.135874960775D-02 0.000000000000D+00 0.000000000000D+00 0.181154211281D-02 0.000000000000D+00  5 2 -1 25 24 21 0 0.22879450D+00 0.38850349D-02 0.30788160D+05 0.30788160D+05 0.30788160D+05 0.12137181D+01  1  2  2  2  5  2       -1 0.547530929769D+00 0.100000000000D+01
-.745804085410D-04 0.000000000000D+00 -.521795626074D-05 0.181154211281D-02 0.000000000000D+00  5 2 -1 25 24 21 2 0.22879450D+00 0.38850349D-02 0.30788160D+05 0.30788160D+05 0.30788160D+05 0.12137181D+01  1  2  3  2  5  2       -1 -.442720533708D-01 0.100000000000D+01
0.937759514349D-04 0.000000000000D+00 0.000000000000D+00 0.181154211281D-02 0.000000000000D+00  5 2 -1 25 24 21 2 0.22879450D+00 0.38850349D-02 0.30788160D+05 0.30788160D+05 0.30788160D+05 0.12137181D+01  1  2 15  2  5  2       -1 0.556668166351D-01 0.100000000000D+01
  </mgrwgt>
  </event>
  <event>
  4     66 0.48098993E-03 0.28901663E+03 0.75467711E-02 0.10247716E+00
        2 -1    0    0  501    0 0.00000000E+00 0.00000000E+00 0.26491012E+04 0.26491012E+04 0.32000000E+00 0.0000E+00 0.9000E+01
       -1 -1    0    0    0  501 0.00000000E+00 0.00000000E+00 -.52374697E+02 0.52375675E+02 0.32000000E+00 0.0000E+00 0.9000E+01
       25  1    1    2    0    0 -.21292054E+03 0.16496091E+03 0.46787337E+03 0.55414596E+03 0.12500000E+03 0.0000E+00 0.9000E+01
       24  1    1    2    0    0 0.21292054E+03 -.16496091E+03 0.21288531E+04 0.21473309E+04 0.80419002E+02 0.0000E+00 0.9000E+01
#aMCatNLO 1  0  0  2  2 0.27841075D+03 0.00000000D+00  -5  5  0 0.00000000D+00 0.00000000D+00 0.00000000D+00 0.00000000D+00 0.00000000D+00
  <mgrwgt>
 0.3323613880D+00    3    2    0
 0.372487878765828D+03 0.000000000000000D+00 0.000000000000000D+00 0.372487878765828D+03
 0.372487878765828D+03 0.000000000000000D+00 0.000000000000000D+00 -.372487878765828D+03
 0.378634242558907D+03 -.212920540118613D+03 0.164960905056640D+03 -.234928995734136D+03
 0.366341514972748D+03 0.212920540118613D+03 -.164960905056640D+03 0.234928995734136D+03
 0.000000000000000D+00 -.000000000000000D+00 -.000000000000000D+00 0.000000000000000D+00
 0.773923588831789D+03 0.000000000000000D+00 0.000000000000000D+00 0.773923588831789D+03
 0.449149887542320D+03 0.000000000000000D+00 0.000000000000000D+00 -.449149887542320D+03
 0.395207800835798D+03 -.117707292350914D+03 0.267427683930132D+03 -.234928995734136D+03
 0.400091781916086D+03 0.307222218370630D+03 -.634751408442499D+02 0.234928995734136D+03
 0.427773893622225D+03 -.189514926019716D+03 -.203952543085882D+03 0.324773701289469D+03
0.101334054203D-01 0.000000000000D+00 0.000000000000D+00 0.119627438496D-02 0.000000000000D+00  5 2 -1 25 24 21 0 0.40755411D+00 0.80577224D-02 0.83530614D+05 0.83530614D+05 0.83530614D+05 0.11708201D+01  1  2  2  2  5  2       -1 0.324523863235D+00 0.100000000000D+01
-.518903903668D-03 0.000000000000D+00 -.389149450009D-04 0.119627438496D-02 0.000000000000D+00  5 2 -1 25 24 21 2 0.40755411D+00 0.80577224D-02 0.83530614D+05 0.83530614D+05 0.83530614D+05 0.11708201D+01  1  2  3  2  5  2       -1 -.227802506851D-01 0.100000000000D+01
0.697432325713D-03 0.000000000000D+00 0.000000000000D+00 0.119627438496D-02 0.000000000000D+00  5 2 -1 25 24 21 2 0.40755411D+00 0.80577224D-02 0.83530614D+05 0.83530614D+05 0.83530614D+05 0.11708201D+01  1  2 15  2  5  2       -1 0.306177754750D-01 0.100000000000D+01
  </mgrwgt>
  </event>
  <event>
  5     66 0.48098993E-03 0.12260568E+03 0.75467711E-02 0.11977033E+00
        2 -1    0    0  501    0 0.00000000E+00 0.00000000E+00 0.78607489E+03 0.78607496E+03 0.32000000E+00 0.0000E+00 0.9000E+01
       21 -1    0    0  502  501 0.00000000E+00 0.00000000E+00 -.72101715E+02 0.72105616E+02 0.75000000E+00 0.0000E+00 0.9000E+01
       25  1    1    2    0    0 0.55647866E+02 0.67544248E+02 0.23110057E+03 0.27693209E+03 0.12500000E+03 0.0000E+00 0.9000E+01
       24  1    1    2    0    0 -.53889916E+02 -.13329615E+02 0.51092093E+03 0.52018190E+03 0.80419002E+02 0.0000E+00 0.9000E+01
        1  1    1    2  502    0 -.17579501E+01 -.54214632E+02 -.28048317E+02 0.61066581E+02 0.32000000E+00 0.0000E+00 0.9000E+01
#aMCatNLO 2  0  0  2  1 0.54243126D+02 0.00000000D+00  -5  5  0 0.00000000D+00 0.00000000D+00 0.00000000D+00 0.00000000D+00 0.00000000D+00
  <mgrwgt>
 0.2978449166D+00    2    2    0
 0.143049381034429D+03 0.000000000000000D+00 0.000000000000000D+00 0.143049381034429D+03
 0.143049381034429D+03 0.000000000000000D+00 0.000000000000000D+00 -.143049381034429D+03
 0.159053966268226D+03 0.546483383459981D+02 0.367191385421505D+02 -.730645479449346D+02
 0.127044795800633D+03 -.546483383459981D+02 -.367191385421505D+02 0.730645479449346D+02
 0.000000000000000D+00 -.000000000000000D+00 -.000000000000000D+00 -.000000000000000D+00
 0.148721076045011D+03 0.000000000000000D+00 0.000000000000000D+00 0.148721076045011D+03
 0.381109193314652D+03 0.000000000000000D+00 0.000000000000000D+00 -.381109193314652D+03
 0.169181377488576D+03 0.556478655996778D+02 0.675442475473261D+02 -.730645479449346D+02
 0.122014121130128D+03 -.538899155253628D+02 -.133296151129187D+02 0.730645479449346D+02
 0.238634770740959D+03 -.175795007431498D+01 -.542146324344074D+02 -.232388117269641D+03
-.100459563208D-03 0.000000000000D+00 0.000000000000D+00 0.188707502046D-02 0.000000000000D+00  5 2 21 25 24 1 2 0.11632279D+00 0.11018496D-01 0.23188112D+05 0.23188112D+05 0.23188112D+05 0.12268164D+01  1  2 13  4  5  2       -1 -.499714822574D+00 0.100000000000D+01
0.170220847816D-03 0.000000000000D+00 0.000000000000D+00 0.188707502046D-02 0.100692342896D-05  5 2 21 25 24 1 2 0.12093482D+00 0.11092869D-01 0.23188112D+05 0.23188112D+05 0.23188112D+05 0.12268164D+01  1  2  1  4  5  2       -1 0.797559739127D+00 0.100000000000D+01
  </mgrwgt>
  </event>
  <event>
  4     66 0.48098993E-03 0.10520534E+03 0.75467711E-02 0.12592674E+00
        2 -1    0    0  501    0 0.00000000E+00 0.00000000E+00 0.13020062E+04 0.13020062E+04 0.32000000E+00 0.0000E+00 0.9000E+01
       -1 -1    0    0    0  501 0.00000000E+00 0.00000000E+00 -.11498987E+02 0.11503439E+02 0.32000000E+00 0.0000E+00 0.9000E+01
       25  1    1    2    0    0 -.18852605E+02 -.11840826E+02 0.41380743E+03 0.43284780E+03 0.12500000E+03 0.0000E+00 0.9000E+01
       24  1    1    2    0    0 0.18852605E+02 0.11840826E+02 0.87669979E+03 0.88066189E+03 0.80419002E+02 0.0000E+00 0.9000E+01
#aMCatNLO 1  0  0  1  2 0.10766764D+02 0.00000000D+00  -5  5  0 0.00000000D+00 0.00000000D+00 0.00000000D+00 0.00000000D+00 0.00000000D+00
  <mgrwgt>
 0.3586176809D+00    4    2    0
 0.122371167058274D+03 0.000000000000000D+00 0.000000000000000D+00 0.122371167058274D+03
 0.122371167058274D+03 0.000000000000000D+00 0.000000000000000D+00 -.122371167058274D+03
 0.141080198494716D+03 -.188526051004364D+02 -.118408258059110D+02 -.615060690702114D+02
 0.103662135621832D+03 0.188526051004364D+02 0.118408258059110D+02 0.615060690702114D+02
 0.000000000000000D+00 0.000000000000000D+00 -.000000000000000D+00 -.000000000000000D+00
 0.123916086981816D+03 0.000000000000000D+00 0.000000000000000D+00 0.123916086981816D+03
 0.142804636664459D+03 0.000000000000000D+00 0.000000000000000D+00 -.142804636664459D+03
 0.141526384626552D+03 -.236516123574471D+02 -.789444398841624D+01 -.615060690702114D+02
 0.103452662062383D+03 0.153355411801866D+02 0.147330233714729D+02 0.615060690702114D+02
 0.217416769573394D+02 0.831607117726049D+01 -.683857938305670D+01 -.188885496826430D+02
0.302544210620D-03 0.000000000000D+00 0.000000000000D+00 0.213774907156D-02 0.000000000000D+00  5 2 -1 25 24 21 0 0.20030899D+00 0.17694205D-02 0.11068163D+05 0.11068163D+05 0.11068163D+05 0.12631594D+01  1  2  2  1  5  1        2 0.469173536810D+00 0.100000000000D+01
-.163411545268D-04 0.000000000000D+00 -.116184943050D-05 0.213774907156D-02 0.000000000000D+00  5 2 -1 25 24 21 2 0.20030899D+00 0.17694205D-02 0.11068163D+05 0.11068163D+05 0.11068163D+05 0.12631594D+01  1  2  3  1  5  1        2 -.404337207049D-01 0.100000000000D+01
0.207624161451D-04 0.000000000000D+00 0.000000000000D+00 0.213774907156D-02 0.000000000000D+00  5 2 -1 25 24 21 2 0.20030899D+00 0.17694205D-02 0.11068163D+05 0.11068163D+05 0.11068163D+05 0.12631594D+01  1  2 15  1  5  1        2 0.513734653320D-01 0.100000000000D+01
-.491020452127D-04 0.000000000000D+00 0.000000000000D+00 0.213774907156D-02 0.000000000000D+00  5 2 -1 25 24 21 2 0.20030899D+00 0.17694205D-02 0.11068163D+05 0.11068163D+05 0.11068163D+05 0.12631594D+01  1  2  4  1  5  1        2 -.121495600504D+00 0.100000000000D+01
  </mgrwgt>
  </event>
  <event>
  4     66 0.48098993E-03 0.59607248E+02 0.75467711E-02 0.12286233E+00
        4 -1    0    0  501    0 0.00000000E+00 0.00000000E+00 0.14496620E+03 0.14497448E+03 0.15500000E+01 0.0000E+00 0.9000E+01
       -3 -1    0    0    0  501 0.00000000E+00 0.00000000E+00 -.13001669E+03 0.13001765E+03 0.50000000E+00 0.0000E+00 0.9000E+01
       25  1    1    2    0    0 0.43138831E+02 0.56751097E+02 0.63232541E+02 0.15717824E+03 0.12500000E+03 0.0000E+00 0.9000E+01
       24  1    1    2    0    0 -.43138831E+02 -.56751097E+02 -.48283031E+02 0.11781389E+03 0.80419002E+02 0.0000E+00 0.9000E+01
#aMCatNLO 1  0  0  1  2 0.69171210D+01 0.00000000D+00  -5  5  0 0.00000000D+00 0.00000000D+00 0.00000000D+00 0.00000000D+00 0.00000000D+00
  <mgrwgt>
 0.9050997405D-01    8    2    0
 0.137292739804006D+03 0.000000000000000D+00 0.000000000000000D+00 0.137292739804006D+03
 0.137292739804006D+03 0.000000000000000D+00 0.000000000000000D+00 -.137292739804006D+03
 0.153968392243280D+03 0.431388313983991D+02 0.567510968047171D+02 0.547687871604144D+02
 0.120617087364731D+03 -.431388313983991D+02 -.567510968047171D+02 -.547687871604144D+02
 0.000000000000000D+00 -.000000000000000D+00 0.000000000000000D+00 -.000000000000000D+00
 0.140505526196887D+03 0.000000000000000D+00 0.000000000000000D+00 0.140505526196887D+03
 0.141110599606837D+03 0.000000000000000D+00 0.000000000000000D+00 -.141110599606837D+03
 0.152897366616399D+03 0.440854750437493D+02 0.530042975745703D+02 0.547687871604144D+02
 0.121775224253367D+03 -.423910805175981D+02 -.597106819012722D+02 -.547687871604144D+02
 0.694353493395935D+01 -.169439452615124D+01 0.670638432670197D+01 -.605073409950191D+00
0.442579574327D-03 0.000000000000D+00 0.000000000000D+00 0.216899107880D-02 0.000000000000D+00  5 4 -3 25 24 21 0 0.22303203D-01 0.20003279D-01 0.15795924D+05 0.15795924D+05 0.15795924D+05 0.12452709D+01  1  2  2  1  5  1        4 0.353812255594D-01 0.100000000000D+01
-.243543385414D-04 0.000000000000D+00 -.169962209929D-05 0.216899107880D-02 0.000000000000D+00  5 4 -3 25 24 21 2 0.22303203D-01 0.20003279D-01 0.15795924D+05 0.15795924D+05 0.15795924D+05 0.12452709D+01  1  2  3  1  5  1        4 -.301915568441D-02 0.100000000000D+01
0.305366000034D-04 0.000000000000D+00 0.000000000000D+00 0.216899107880D-02 0.000000000000D+00  5 4 -3 25 24 21 2 0.22303203D-01 0.20003279D-01 0.15795924D+05 0.15795924D+05 0.15795924D+05 0.12452709D+01  1  2 15  1  5  1        4 0.378555752298D-02 0.100000000000D+01
0.792837358376D-03 0.000000000000D+00 0.000000000000D+00 0.216899107880D-02 0.000000000000D+00  5 4 -3 25 24 21 2 0.23127424D-01 0.20003279D-01 0.16696839D+05 0.16696839D+05 0.16696839D+05 0.12425512D+01  1  2 12  1  5  1        4 0.920670482763D-01 0.100000000000D+01
-.622675703685D-03 0.000000000000D+00 0.000000000000D+00 0.216899107880D-02 0.000000000000D+00  5 4 -3 25 24 21 2 0.22303203D-01 0.20003279D-01 0.15795924D+05 0.15795924D+05 0.15795924D+05 0.12452709D+01  1  2  4  1  5  1        4 -.771917860599D-01 0.100000000000D+01
0.615430397602D-04 0.000000000000D+00 0.000000000000D+00 0.216899107880D-02 0.373544393999D-03  5 4 -3 25 24 21 2 0.22825120D-01 0.20559533D-01 0.16696839D+05 0.16696839D+05 0.16696839D+05 0.12425512D+01  1  2 11  1  5  1        4 0.697503489510D-02 0.100000000000D+01
0.105185360591D-04 0.000000000000D+00 0.000000000000D+00 0.216899107880D-02 0.000000000000D+00  5 21 -3 25 24 -4 2 0.23127424D-01 0.20003279D-01 0.16696839D+05 0.16696839D+05 0.16696839D+05 0.12425512D+01  1  2 12  3  5  1        4 0.307838701388D-01 0.100000000000D+01
0.604642878748D-06 0.000000000000D+00 0.000000000000D+00 0.216899107880D-02 0.160170069522D-05  5 21 -3 25 24 -4 2 0.22825120D-01 0.20559533D-01 0.16696839D+05 0.16696839D+05 0.16696839D+05 0.12425512D+01  1  2 11  3  5  1        4 0.172817940542D-02 0.100000000000D+01
  </mgrwgt>
  </event>
  <event>
  4     66 0.48098993E-03 0.46773236E+02 0.75467711E-02 0.12653400E+00
        2 -1    0    0  501    0 0.00000000E+00 0.00000000E+00 0.11721944E+03 0.11721988E+03 0.32000000E+00 0.0000E+00 0.9000E+01
       -1 -1    0    0    0  501 0.00000000E+00 0.00000000E+00 -.96999378E+02 0.96999906E+02 0.32000000E+00 0.0000E+00 0.9000E+01
       25  1    1    2    0    0 -.13230064E+02 -.22761789E+02 0.21783584E+02 0.12958649E+03 0.12500000E+03 0.0000E+00 0.9000E+01
       24  1    1    2    0    0 0.13230064E+02 0.22761789E+02 -.15635234E+01 0.84633293E+02 0.80419002E+02 0.0000E+00 0.9000E+01
#aMCatNLO 1  0  0  1  2 0.25512856D+01 0.00000000D+00  -5  5  0 0.00000000D+00 0.00000000D+00 0.00000000D+00 0.00000000D+00 0.00000000D+00
  <mgrwgt>
 0.1849041934D+00   11    2    0
 0.106631683907842D+03 0.000000000000000D+00 0.000000000000000D+00 0.106631683907842D+03
 0.106631683907842D+03 0.000000000000000D+00 0.000000000000000D+00 -.106631683907842D+03
 0.128102281834309D+03 -.132300640059396D+02 -.227617894259993D+02 0.959484026349101D+01
 0.851610859813755D+02 0.132300640059396D+02 0.227617894259993D+02 -.959484026349101D+01
 0.000000000000000D+00 -.000000000000000D+00 0.000000000000000D+00 0.000000000000000D+00
 0.109479213824039D+03 0.000000000000000D+00 0.000000000000000D+00 0.109479213824039D+03
 0.107212314625503D+03 0.000000000000000D+00 0.000000000000000D+00 -.107212314625503D+03
 0.128235497782559D+03 -.123150900414352D+02 -.239920922207746D+02 0.959484026349101D+01
 0.850431300975185D+02 0.138375921923576D+02 0.219448879024027D+02 -.959484026349101D+01
 0.341290056946439D+01 -.152250215092244D+01 0.204720431837185D+01 0.226689919853674D+01
0.195451932379D-03 0.000000000000D+00 0.000000000000D+00 0.308931418173D-02 0.000000000000D+00  5 2 -1 25 24 21 0 0.18033834D-01 0.14923055D-01 0.11274330D+05 0.11274330D+05 0.11274330D+05 0.12622115D+01  1  2  2  1  5  1        2 0.208195521001D+00 0.100000000000D+01
-.108582034763D-04 0.000000000000D+00 -.750586884012D-06 0.308931418173D-02 0.000000000000D+00  5 2 -1 25 24 21 2 0.18033834D-01 0.14923055D-01 0.11274330D+05 0.11274330D+05 0.11274330D+05 0.12622115D+01  1  2  3  1  5  1        2 -.184269592252D-01 0.100000000000D+01
0.135032622012D-04 0.000000000000D+00 0.000000000000D+00 0.308931418173D-02 0.000000000000D+00  5 2 -1 25 24 21 2 0.18033834D-01 0.14923055D-01 0.11274330D+05 0.11274330D+05 0.11274330D+05 0.12622115D+01  1  2 15  1  5  1        2 0.229157671000D-01 0.100000000000D+01
0.301351616640D-05 0.000000000000D+00 0.000000000000D+00 0.308931418173D-02 0.000000000000D+00  5 2 -1 25 24 21 2 0.18563706D-01 0.14923055D-01 0.11548454D+05 0.11548454D+05 0.11548454D+05 0.12609810D+01  1  2 12  1  5  1        2 0.494428938737D-02 0.100000000000D+01
-.308903832522D-02 0.000000000000D+00 0.000000000000D+00 0.308931418173D-02 0.000000000000D+00  5 2 -1 25 24 21 2 0.18033834D-01 0.14923055D-01 0.11274330D+05 0.11274330D+05 0.11274330D+05 0.12622115D+01  1  2  4  1  5  1        2 -.524226529629D+01 0.100000000000D+01
-.880799593793D-02 0.000000000000D+00 -.961998504827D-03 0.308931418173D-02 0.000000000000D+00  5 2 -1 25 24 21 2 0.18606326D-01 0.14923055D-01 0.11274330D+05 0.11274330D+05 0.11274330D+05 0.12622115D+01  1  2  5  1  5  1        2 -.144269015267D+02 0.100000000000D+01
0.883421539203D-02 0.000000000000D+00 0.961528911357D-03 0.308931418173D-02 0.000000000000D+00  5 2 -1 25 24 21 2 0.18033834D-01 0.14923055D-01 0.11274330D+05 0.11274330D+05 0.11274330D+05 0.12622115D+01  1  2  6  1  5  1        2 0.149921418557D+02 0.100000000000D+01
0.308711905798D-02 0.000000000000D+00 0.000000000000D+00 0.308931418173D-02 0.402641446551D-02  5 2 -1 25 24 21 2 0.18515416D-01 0.15004314D-01 0.11548454D+05 0.11548454D+05 0.11548454D+05 0.12609810D+01  1  2 11  1  5  1        2 0.503724950074D+01 0.100000000000D+01
0.912957018879D-07 0.000000000000D+00 0.000000000000D+00 0.308931418173D-02 0.000000000000D+00  5 21 -1 25 24 -2 2 0.18563706D-01 0.14923055D-01 0.11548454D+05 0.11548454D+05 0.11548454D+05 0.12609810D+01  1  2 12  3  5  1        2 0.109785868562D-02 0.100000000000D+01
-.489377624910D-04 0.000000000000D+00 -.538191817560D-05 0.308931418173D-02 0.000000000000D+00  5 21 -1 25 24 -2 2 0.18606326D-01 0.14923055D-01 0.11274330D+05 0.11274330D+05 0.11274330D+05 0.12622115D+01  1  2  5  3  5  1        2 -.586814348317D+00 0.100000000000D+01
0.160895682347D-04 0.000000000000D+00 0.000000000000D+00 0.308931418173D-02 0.191903281870D-04  5 21 -1 25 24 -2 2 0.18515416D-01 0.15004314D-01 0.11548454D+05 0.11548454D+05 0.11548454D+05 0.12609810D+01  1  2 11  3  5  1        2 0.192767531318D+00 0.100000000000D+01
  </mgrwgt>
  </event>
  <event>
  4     66 0.48098993E-03 0.44525336E+02 0.75467711E-02 0.11955640E+00
        2 -1    0    0  501    0 0.00000000E+00 0.00000000E+00 0.47904413E+03 0.47904424E+03 0.32000000E+00 0.0000E+00 0.9000E+01
       -1 -1    0    0    0  501 0.00000000E+00 0.00000000E+00 -.28066605E+02 0.28068429E+02 0.32000000E+00 0.0000E+00 0.9000E+01
       25  1    1    2    0    0 0.38854822E+02 -.33639890E+02 0.29048741E+03 0.32038925E+03 0.12500000E+03 0.0000E+00 0.9000E+01
       24  1    1    2    0    0 -.38854822E+02 0.33639890E+02 0.16049012E+03 0.18672342E+03 0.80419002E+02 0.0000E+00 0.9000E+01
#aMCatNLO 1  0  0  2  1 0.67762136D+02 0.00000000D+00  -5  5  0 0.00000000D+00 0.00000000D+00 0.00000000D+00 0.00000000D+00 0.00000000D+00
  <mgrwgt>
 0.3073171934D+00    9    2    0
 0.115955301976098D+03 0.000000000000000D+00 0.000000000000000D+00 0.115955301976098D+03
 0.115955301976098D+03 0.000000000000000D+00 0.000000000000000D+00 -.115955301976098D+03
 0.135699513516156D+03 0.388548223899347D+02 -.336398896593152D+02 0.121662882292427D+02
 0.962110904360397D+02 -.388548223899347D+02 0.336398896593152D+02 -.121662882292427D+02
 0.000000000000000D+00 0.000000000000000D+00 0.000000000000000D+00 -.000000000000000D+00
 0.145375724180131D+03 0.000000000000000D+00 0.000000000000000D+00 0.145375724180131D+03
 0.167520816585513D+03 0.000000000000000D+00 0.000000000000000D+00 -.167520816585513D+03
 0.131300569693336D+03 0.929916346406564D+00 -.382878086093515D+02 0.121662882292427D+02
 0.110307036387838D+03 -.681888228214467D+02 0.300448364156891D+02 -.121662882292427D+02
 0.712889346844698D+02 0.672589064750402D+02 0.824297219366244D+01 -.221450924053821D+02
0.173661295646D-03 0.000000000000D+00 0.000000000000D+00 0.283885449016D-02 0.000000000000D+00  5 2 -1 25 24 21 0 0.73699246D-01 0.43180878D-02 0.13293142D+05 0.13293142D+05 0.13293142D+05 0.12538482D+01  1  2  2  2  5  2       -1 0.264062687667D+00 0.100000000000D+01
-.964746823221D-05 0.000000000000D+00 -.666905101351D-06 0.283885449016D-02 0.000000000000D+00  5 2 -1 25 24 21 2 0.73699246D-01 0.43180878D-02 0.13293142D+05 0.13293142D+05 0.13293142D+05 0.12538482D+01  1  2  3  2  5  2       -1 -.230625466170D-01 0.100000000000D+01
0.120353102158D-04 0.000000000000D+00 0.000000000000D+00 0.283885449016D-02 0.000000000000D+00  5 2 -1 25 24 21 2 0.73699246D-01 0.43180878D-02 0.13293142D+05 0.13293142D+05 0.13293142D+05 0.12538482D+01  1  2 15  2  5  2       -1 0.287707506489D-01 0.100000000000D+01
0.302892907384D-04 0.000000000000D+00 0.000000000000D+00 0.283885449016D-02 0.000000000000D+00  5 2 -1 25 24 21 2 0.73699246D-01 0.65886860D-02 0.23736313D+05 0.23736313D+05 0.23736313D+05 0.12257202D+01  1  2 12  2  5  2       -1 0.377629583300D-01 0.100000000000D+01
-.671773946599D-04 0.000000000000D+00 0.000000000000D+00 0.283885449016D-02 0.000000000000D+00  5 2 -1 25 24 21 2 0.73699246D-01 0.43180878D-02 0.13293142D+05 0.13293142D+05 0.13293142D+05 0.12538482D+01  1  2  4  2  5  2       -1 -.160589468517D+00 0.100000000000D+01
-.813483627680D-04 0.000000000000D+00 -.548815004904D-04 0.283885449016D-02 0.000000000000D+00  5 2 -1 25 24 21 2 0.73699246D-01 0.78147011D-02 0.13293142D+05 0.13293142D+05 0.13293142D+05 0.12538482D+01  1  2  5  2  5  2       -1 -.807398764724D-01 0.100000000000D+01
0.103560227687D-03 0.000000000000D+00 0.464640846724D-04 0.283885449016D-02 0.000000000000D+00  5 2 -1 25 24 21 2 0.73699246D-01 0.43180878D-02 0.13293142D+05 0.13293142D+05 0.13293142D+05 0.12538482D+01  1  2  6  2  5  2       -1 0.247563663462D+00 0.100000000000D+01
0.150133538790D-05 0.000000000000D+00 0.000000000000D+00 0.283885449016D-02 0.000000000000D+00  5 2 21 25 24 1 2 0.73699246D-01 0.65886860D-02 0.23736313D+05 0.23736313D+05 0.23736313D+05 0.12257202D+01  1  2 12  4  5  2       -1 0.308086823407D-01 0.100000000000D+01
-.234479579078D-05 0.000000000000D+00 -.356629658247D-05 0.283885449016D-02 0.000000000000D+00  5 2 21 25 24 1 2 0.73699246D-01 0.78147011D-02 0.13293142D+05 0.13293142D+05 0.13293142D+05 0.12538482D+01  1  2  5  4  5  2       -1 -.372596574764D-01 0.100000000000D+01
  </mgrwgt>
  </event>
  <event>
  5     66 0.48098993E-03 0.10446600E+03 0.75467711E-02 0.12425622E+00
        2 -1    0    0  501    0 0.00000000E+00 0.00000000E+00 0.22604226E+03 0.22604249E+03 0.32000000E+00 0.0000E+00 0.9000E+01
       21 -1    0    0  502  501 0.00000000E+00 0.00000000E+00 -.75965816E+02 0.75969518E+02 0.75000000E+00 0.0000E+00 0.9000E+01
       25  1    1    2    0    0 0.32167416E+02 0.48846044E+01 0.56036293E+02 0.14079655E+03 0.12500000E+03 0.0000E+00 0.9000E+01
       24  1    1    2    0    0 -.42016100E+01 -.14674212E+02 0.24212295E+02 0.85360630E+02 0.80419002E+02 0.0000E+00 0.9000E+01
        1  1    1    2  502    0 -.27965805E+02 0.97896072E+01 0.69827856E+02 0.75854826E+02 0.32000000E+00 0.0000E+00 0.9000E+01
#aMCatNLO 2  0  0  2  1 0.29629760D+02 0.00000000D+00  -5  5  0 0.00000000D+00 0.00000000D+00 0.00000000D+00 0.00000000D+00 0.00000000D+00
  <mgrwgt>
 0.1088005452D+00    1    2    0
 0.104677255169706D+03 0.000000000000000D+00 0.000000000000000D+00 0.104677255169706D+03
 0.104677255169706D+03 0.000000000000000D+00 0.000000000000000D+00 -.104677255169706D+03
 0.126548730569931D+03 0.151619729491626D+02 0.108374671825464D+02 0.649962231342411D+01
 0.828057797694799D+02 -.151619729491626D+02 -.108374671825464D+02 -.649962231342411D+01
 0.000000000000000D+00 -.000000000000000D+00 0.000000000000000D+00 0.000000000000000D+00
 0.155985270322709D+03 0.000000000000000D+00 0.000000000000000D+00 0.155985270322709D+03
 0.110086910386709D+03 0.000000000000000D+00 0.000000000000000D+00 -.110086910386709D+03
 0.129328446491571D+03 0.321674155272322D+02 0.488460438564971D+01 0.649962231342411D+01
 0.821124050136585D+02 -.420161003748696D+01 -.146742115846910D+02 -.649962231342411D+01
 0.546313292041883D+02 -.279658054897453D+02 0.978960719904132D+01 0.458983599360000D+02
0.624801949332D-05 0.000000000000D+00 0.000000000000D+00 0.316381218974D-02 0.368964086617D-06  5 2 21 25 24 1 2 0.34775891D-01 0.11687303D-01 0.14478050D+05 0.14478050D+05 0.14478050D+05 0.12495798D+01  1  2  1  4  5  2       -1 0.108800545162D+00 0.100000000000D+01
  </mgrwgt>
  </event>
  <event>
  4     66 0.48098993E-03 0.10680078E+03 0.75467711E-02 0.12183051E+00
        2 -1    0    0  501    0 0.00000000E+00 0.00000000E+00 0.95690372E+03 0.95690378E+03 0.32000000E+00 0.0000E+00 0.9000E+01
       -1 -1    0    0    0  501 0.00000000E+00 0.00000000E+00 -.19353860E+02 0.19356506E+02 0.32000000E+00 0.0000E+00 0.9000E+01
       25  1    1    2    0    0 -.87965784E+02 0.37157789E+01 0.53565914E+03 0.55705251E+03 0.12500000E+03 0.0000E+00 0.9000E+01
       24  1    1    2    0    0 0.87965784E+02 -.37157789E+01 0.40189072E+03 0.41920777E+03 0.80419002E+02 0.0000E+00 0.9000E+01
#aMCatNLO 1  0  0  2  1 0.59182494D+00 0.00000000D+00  -5  5  0 0.00000000D+00 0.00000000D+00 0.00000000D+00 0.00000000D+00 0.00000000D+00
  <mgrwgt>
 0.2471682129D+00    7    2    0
 0.136092242255861D+03 0.000000000000000D+00 0.000000000000000D+00 0.136092242255861D+03
 0.136092242255861D+03 0.000000000000000D+00 0.000000000000000D+00 -.136092242255861D+03
 0.152914994041397D+03 -.879657840800356D+02 0.371577889029410D+01 0.249183087375278D+01
 0.119269490470325D+03 0.879657840800356D+02 -.371577889029410D+01 -.249183087375278D+01
 0.000000000000000D+00 -.000000000000000D+00 0.000000000000000D+00 0.000000000000000D+00
 0.136391423525124D+03 0.000000000000000D+00 0.000000000000000D+00 0.136391423525124D+03
 0.136385558409005D+03 0.000000000000000D+00 0.000000000000000D+00 -.136385558409005D+03
 0.152885041777272D+03 -.879270412670861D+02 0.338558593907237D+01 0.249183087375278D+01
 0.119300086151635D+03 0.879960092448488D+02 -.397337857423669D+01 -.249183087375278D+01
 0.591854005221876D+00 -.689679777627300D-01 0.587792635164316D+00 0.586511611872534D-02
0.150724949301D-03 0.000000000000D+00 0.000000000000D+00 0.254303427418D-02 0.000000000000D+00  5 2 -1 25 24 21 0 0.14721617D+00 0.29777246D-02 0.18514793D+05 0.18514793D+05 0.18514793D+05 0.12375325D+01  1  2  2  2  5  2       -1 0.175742134422D+00 0.100000000000D+01
-.837360799935D-05 0.000000000000D+00 -.578823492105D-06 0.254303427418D-02 0.000000000000D+00  5 2 -1 25 24 21 2 0.14721617D+00 0.29777246D-02 0.18514793D+05 0.18514793D+05 0.18514793D+05 0.12375325D+01  1  2  3  2  5  2       -1 -.149525955204D-01 0.100000000000D+01
0.104209115340D-04 0.000000000000D+00 0.000000000000D+00 0.254303427418D-02 0.000000000000D+00  5 2 -1 25 24 21 2 0.14721617D+00 0.29777246D-02 0.18514793D+05 0.18514793D+05 0.18514793D+05 0.12375325D+01  1  2 15  2  5  2       -1 0.186084272315D-01 0.100000000000D+01
-.402374649902D-02 0.000000000000D+00 0.000000000000D+00 0.254303427418D-02 0.000000000000D+00  5 2 -1 25 24 21 2 0.14721617D+00 0.29777246D-02 0.18514793D+05 0.18514793D+05 0.18514793D+05 0.12375325D+01  1  2  4  2  5  2       -1 -.718512902456D+01 0.100000000000D+01
0.402376535195D-02 0.000000000000D+00 0.000000000000D+00 0.254303427418D-02 0.592832987736D-01  5 2 -1 25 24 21 2 0.14753980D+00 0.29841424D-02 0.18595498D+05 0.18595498D+05 0.18595498D+05 0.12373226D+01  1  2 11  2  5  2       -1 0.714001730522D+01 0.100000000000D+01
0.296965842993D-13 0.000000000000D+00 0.000000000000D+00 0.254303427418D-02 0.000000000000D+00  5 2 21 25 24 1 2 0.14721617D+00 0.29874083D-02 0.18595498D+05 0.18595498D+05 0.18595498D+05 0.12373226D+01  1  2 12  4  5  2       -1 0.101992123980D-08 0.100000000000D+01
0.329054738296D-05 0.000000000000D+00 0.000000000000D+00 0.254303427418D-02 0.238807672462D-04  5 2 21 25 24 1 2 0.14753980D+00 0.29841424D-02 0.18595498D+05 0.18595498D+05 0.18595498D+05 0.12373226D+01  1  2 11  4  5  2       -1 0.112881965114D+00 0.100000000000D+01
  </mgrwgt>
  </event>
  <event>
  4     66 0.48098993E-03 0.85078749E+03 0.75467711E-02 0.88117305E-01
        2 -1    0    0  501    0 0.00000000E+00 0.00000000E+00 0.12735022E+04 0.12735022E+04 0.32000000E+00 0.0000E+00 0.9000E+01
       -1 -1    0    0    0  501 0.00000000E+00 0.00000000E+00 -.81033655E+03 0.81033661E+03 0.32000000E+00 0.0000E+00 0.9000E+01
       25  1    1    2    0    0 -.12176558E+03 -.83544816E+03 -.33723369E+03 0.91768842E+03 0.12500000E+03 0.0000E+00 0.9000E+01
       24  1    1    2    0    0 0.12176558E+03 0.83544816E+03 0.80039929E+03 0.11661504E+04 0.80419002E+02 0.0000E+00 0.9000E+01
#aMCatNLO 1  0  0  1  1 0.11751693D+04 0.00000000D+00  -5  5  0 0.00000000D+00 0.00000000D+00 0.00000000D+00 0.00000000D+00 0.00000000D+00
  <mgrwgt>
 0.7483645230D-01    3    2    0
 0.101585700354104D+04 0.000000000000000D+00 0.000000000000000D+00 0.101585700354104D+04
 0.101585700354104D+04 0.000000000000000D+00 0.000000000000000D+00 -.101585700354104D+04
 0.101811071248179D+04 -.121765581994555D+03 -.835448159881510D+03 -.555089126233177D+03
 0.101360329460029D+04 0.121765581994555D+03 0.835448159881510D+03 0.555089126233177D+03
 0.000000000000000D+00 0.000000000000000D+00 0.000000000000000D+00 -.000000000000000D+00
 0.150395185562396D+04 0.000000000000000D+00 0.000000000000000D+00 0.150395185562396D+04
 0.221850962834172D+04 0.000000000000000D+00 0.000000000000000D+00 -.221850962834172D+04
 0.139254174699565D+04 -.737027565752025D+03 -.103547764166351D+04 -.555089126233177D+03
 0.954559569015070D+03 -.380561405483458D+03 0.672135279120214D+03 0.555089126233177D+03
 0.137536016795496D+04 0.111758897123548D+04 0.363342362543299D+03 -.714557772717762D+03
0.657362330836D-01 0.000000000000D+00 0.000000000000D+00 0.133806068975D-02 0.000000000000D+00  5 2 -1 25 24 21 0 0.19592342D+00 0.12466717D+00 0.72383935D+06 0.72383935D+06 0.72383935D+06 0.10919973D+01  1  2  2  1  5  1        2 0.735059992592D-01 0.100000000000D+01
-.351239020368D-02 0.000000000000D+00 -.252444443789D-03 0.133806068975D-02 0.000000000000D+00  5 2 -1 25 24 21 2 0.19592342D+00 0.12466717D+00 0.72383935D+06 0.72383935D+06 0.72383935D+06 0.10919973D+01  1  2  3  1  5  1        2 -.468342830045D-02 0.100000000000D+01
0.451017855839D-02 0.000000000000D+00 0.000000000000D+00 0.133806068975D-02 0.000000000000D+00  5 2 -1 25 24 21 2 0.19592342D+00 0.12466717D+00 0.72383935D+06 0.72383935D+06 0.72383935D+06 0.10919973D+01  1  2 15  1  5  1        2 0.601388133878D-02 0.100000000000D+01
  </mgrwgt>
  </event>
  <event>
  5     66 0.48098993E-03 0.10713765E+03 0.75467711E-02 0.12309018E+00
        4 -1    0    0  501    0 0.00000000E+00 0.00000000E+00 0.79886356E+01 0.81376163E+01 0.15500000E+01 0.0000E+00 0.9000E+01
       21 -1    0    0  502  501 0.00000000E+00 0.00000000E+00 -.21422884E+04 0.21422886E+04 0.75000000E+00 0.0000E+00 0.9000E+01
       25  1    1    2    0    0 0.41800603E+02 -.10335491E+02 -.86067810E+03 0.87077316E+03 0.12500000E+03 0.0000E+00 0.9000E+01
       24  1    1    2    0    0 -.80044873E+01 0.27407753E+02 -.94937862E+03 0.95320629E+03 0.80419002E+02 0.0000E+00 0.9000E+01
        3  1    1    2  502    0 -.33796116E+02 -.17072262E+02 -.32424309E+03 0.32644674E+03 0.50000000E+00 0.0000E+00 0.9000E+01
#aMCatNLO 2  0  0  2  1 0.37863434D+02 0.00000000D+00  -5  5  0 0.00000000D+00 0.00000000D+00 0.00000000D+00 0.00000000D+00 0.00000000D+00
  <mgrwgt>
 0.6887493388D-02    2    2    0
 0.110862632451412D+03 0.000000000000000D+00 0.000000000000000D+00 0.110862632451412D+03
 0.110862632451412D+03 0.000000000000000D+00 0.000000000000000D+00 -.110862632451412D+03
 0.131513828988810D+03 0.216250100110271D+02 -.205272840482350D+02 0.279620594185029D+02
 0.902114359140146D+02 -.216250100110271D+02 0.205272840482350D+02 -.279620594185029D+02
 0.000000000000000D+00 -.000000000000000D+00 -.000000000000000D+00 -.000000000000000D+00
 0.130266826133750D+03 0.000000000000000D+00 0.000000000000000D+00 0.130266826133750D+03
 0.132603599059504D+03 0.000000000000000D+00 0.000000000000000D+00 -.132603599059504D+03
 0.135133229004611D+03 0.418006033856130D+02 -.103354908392109D+02 0.279620594185029D+02
 0.898017231545450D+02 -.800448733670034D+01 0.274077533319995D+02 -.279620594185029D+02
 0.379354730340981D+02 -.337961160489127D+02 -.170722624927886D+02 -.233677292575336D+01
-.257094875756D-04 0.000000000000D+00 0.000000000000D+00 0.282845720746D-02 0.000000000000D+00  5 4 21 25 24 3 2 0.10556976D-02 0.34948339D+00 0.16308495D+05 0.16308495D+05 0.16308495D+05 0.12437029D+01  1  2 13  4  5  2       -3 -.832327057517D-02 0.100000000000D+01
0.461290850218D-04 0.000000000000D+00 0.000000000000D+00 0.282845720746D-02 0.529084755305D-06  5 4 21 25 24 3 2 0.12404755D-02 0.32959017D+00 0.16308495D+05 0.16308495D+05 0.16308495D+05 0.12437029D+01  1  2  1  4  5  2       -3 0.152107639630D-01 0.100000000000D+01
  </mgrwgt>
  </event>
  <event>
  4     66 0.48098993E-03 0.48704494E+02 0.75467711E-02 0.12195801E+00
        2 -1    0    0  501    0 0.00000000E+00 0.00000000E+00 0.10163163E+04 0.10163163E+04 0.32000000E+00 0.0000E+00 0.9000E+01
       -1 -1    0    0    0  501 0.00000000E+00 0.00000000E+00 -.11286876E+02 0.11291411E+02 0.32000000E+00 0.0000E+00 0.9000E+01
       25  1    1    2    0    0 -.65767894E+01 -.93352132E+01 0.47109662E+03 0.48753197E+03 0.12500000E+03 0.0000E+00 0.9000E+01
       24  1    1    2    0    0 0.65767894E+01 0.93352132E+01 0.53393280E+03 0.54007578E+03 0.80419002E+02 0.0000E+00 0.9000E+01
#aMCatNLO 1  0  0  2  1 0.56531435D+02 0.00000000D+00  -5  5  0 0.00000000D+00 0.00000000D+00 0.00000000D+00 0.00000000D+00 0.00000000D+00
  <mgrwgt>
 0.4193429106D+00    9    2    0
 0.107113919513180D+03 0.000000000000000D+00 0.000000000000000D+00 0.107113919513180D+03
 0.107113919513180D+03 0.000000000000000D+00 0.000000000000000D+00 -.107113919513180D+03
 0.128487855055943D+03 -.657678942992924D+01 -.933521321402748D+01 -.274541168482968D+02
 0.857399839704175D+02 0.657678942992924D+01 0.933521321402748D+01 0.274541168482968D+02
 0.000000000000000D+00 0.000000000000000D+00 -.000000000000000D+00 -.000000000000000D+00
 0.132616460041829D+03 0.000000000000000D+00 0.000000000000000D+00 0.132616460041829D+03
 0.147369546078237D+03 0.000000000000000D+00 0.000000000000000D+00 -.147369546078237D+03
 0.131504177499366D+03 -.221688122193472D+02 0.205709487542052D+02 -.274541168482968D+02
 0.900570333780235D+02 -.396596095310605D+01 0.295566562431952D+02 0.274541168482968D+02
 0.584247952426762D+02 0.261347731724533D+02 -.501276049974003D+02 -.147530860364081D+02
0.151258225915D-03 0.000000000000D+00 0.000000000000D+00 0.292641521399D-02 0.000000000000D+00  5 2 -1 25 24 21 0 0.15635671D+00 0.17367952D-02 0.10686001D+05 0.10686001D+05 0.10686001D+05 0.12649701D+01  1  2  2  2  5  2       -1 0.346670558524D+00 0.100000000000D+01
-.839032380545D-05 0.000000000000D+00 -.580871414717D-06 0.292641521399D-02 0.000000000000D+00  5 2 -1 25 24 21 2 0.15635671D+00 0.17367952D-02 0.10686001D+05 0.10686001D+05 0.10686001D+05 0.12649701D+01  1  2  3  2  5  2       -1 -.307706897366D-01 0.100000000000D+01
0.103708198370D-04 0.000000000000D+00 0.000000000000D+00 0.292641521399D-02 0.000000000000D+00  5 2 -1 25 24 21 2 0.15635671D+00 0.17367952D-02 0.10686001D+05 0.10686001D+05 0.10686001D+05 0.12649701D+01  1  2 15  2  5  2       -1 0.380339647095D-01 0.100000000000D+01
0.325347521479D-04 0.000000000000D+00 0.000000000000D+00 0.292641521399D-02 0.000000000000D+00  5 2 -1 25 24 21 2 0.15635671D+00 0.25326203D-02 0.18347809D+05 0.18347809D+05 0.18347809D+05 0.12379699D+01  1  2 12  2  5  2       -1 0.677274800600D-01 0.100000000000D+01
-.586607885874D-04 0.000000000000D+00 0.000000000000D+00 0.292641521399D-02 0.000000000000D+00  5 2 -1 25 24 21 2 0.15635671D+00 0.17367952D-02 0.10686001D+05 0.10686001D+05 0.10686001D+05 0.12649701D+01  1  2  4  2  5  2       -1 -.215132689415D+00 0.100000000000D+01
-.775161756338D-04 0.000000000000D+00 -.498673425301D-04 0.292641521399D-02 0.000000000000D+00  5 2 -1 25 24 21 2 0.15635671D+00 0.29898632D-02 0.10686001D+05 0.10686001D+05 0.10686001D+05 0.12649701D+01  1  2  5  2  5  2       -1 -.130300132073D+00 0.100000000000D+01
0.965546593636D-04 0.000000000000D+00 0.433181296555D-04 0.292641521399D-02 0.000000000000D+00  5 2 -1 25 24 21 2 0.15635671D+00 0.17367952D-02 0.10686001D+05 0.10686001D+05 0.10686001D+05 0.12649701D+01  1  2  6  2  5  2       -1 0.354104744322D+00 0.100000000000D+01
0.148372851899D-05 0.000000000000D+00 0.000000000000D+00 0.292641521399D-02 0.000000000000D+00  5 2 21 25 24 1 2 0.15635671D+00 0.25326203D-02 0.18347809D+05 0.18347809D+05 0.18347809D+05 0.12379699D+01  1  2 12  4  5  2       -1 0.615435116321D-01 0.100000000000D+01
-.221531892015D-05 0.000000000000D+00 -.300669074034D-05 0.292641521399D-02 0.000000000000D+00  5 2 21 25 24 1 2 0.15635671D+00 0.29898632D-02 0.10686001D+05 0.10686001D+05 0.10686001D+05 0.12649701D+01  1  2  5  4  5  2       -1 -.725338373786D-01 0.100000000000D+01
  </mgrwgt>
  </event>
  <event>
  4     66 -.48098993E-03 0.52465887E+02 0.75467711E-02 0.12152669E+00
        2 -1    0    0  501    0 0.00000000E+00 0.00000000E+00 0.91834392E+03 0.91834398E+03 0.32000000E+00 0.0000E+00 0.9000E+01
       -1 -1    0    0    0  501 0.00000000E+00 0.00000000E+00 -.13822438E+02 0.13826141E+02 0.32000000E+00 0.0000E+00 0.9000E+01
       25  1    1    2    0    0 -.38210323E+02 0.18497491E+02 0.46710916E+03 0.48540514E+03 0.12500000E+03 0.0000E+00 0.9000E+01
       24  1    1    2    0    0 0.38210323E+02 -.18497491E+02 0.43741233E+03 0.44676498E+03 0.80419002E+02 0.0000E+00 0.9000E+01
#aMCatNLO 1  0  0  2  1 0.48941708D+02 0.00000000D+00  -5  5  0 0.00000000D+00 0.00000000D+00 0.00000000D+00 0.00000000D+00 0.00000000D+00
  <mgrwgt>
 -.2299757323D+00    7    2    0
 0.112674326236419D+03 0.000000000000000D+00 0.000000000000000D+00 0.112674326236419D+03
 0.112674326236419D+03 0.000000000000000D+00 0.000000000000000D+00 -.112674326236419D+03
 0.132993471581061D+03 -.382103225471818D+02 0.184974910076606D+02 -.161269203645434D+02
 0.923551808917778D+02 0.382103225471818D+02 -.184974910076606D+02 0.161269203645434D+02
 0.000000000000000D+00 0.000000000000000D+00 -.000000000000000D+00 -.000000000000000D+00
 0.116662496337736D+03 0.000000000000000D+00 0.000000000000000D+00 0.116662496337736D+03
 0.555136171358497D+03 0.000000000000000D+00 0.000000000000000D+00 -.555136171358497D+03
 0.142565174798119D+03 -.477166940930756D+02 0.465066512404609D+02 -.161269203645434D+02
 0.880368763089869D+02 0.319870595786198D+02 -.161539291930218D+00 0.161269203645434D+02
 0.441196616589126D+03 0.157296345144558D+02 -.463451119485306D+02 -.438473675020761D+03
0.179148552843D-03 0.000000000000D+00 0.000000000000D+00 0.289111403391D-02 0.000000000000D+00  5 2 -1 25 24 21 0 0.14128397D+00 0.21268181D-02 0.12426488D+05 0.12426488D+05 0.12426488D+05 0.12572504D+01  1  2  2  2  5  2       -1 0.353962553999D+00 0.100000000000D+01
-.995130965927D-05 0.000000000000D+00 -.687977613814D-06 0.289111403391D-02 0.000000000000D+00  5 2 -1 25 24 21 2 0.14128397D+00 0.21268181D-02 0.12426488D+05 0.12426488D+05 0.12426488D+05 0.12572504D+01  1  2  3  2  5  2       -1 -.310790566055D-01 0.100000000000D+01
0.124167483154D-04 0.000000000000D+00 0.000000000000D+00 0.289111403391D-02 0.000000000000D+00  5 2 -1 25 24 21 2 0.14128397D+00 0.21268181D-02 0.12426488D+05 0.12426488D+05 0.12426488D+05 0.12572504D+01  1  2 15  2  5  2       -1 0.387788981514D-01 0.100000000000D+01
0.170784928162D-02 0.000000000000D+00 0.000000000000D+00 0.289111403391D-02 0.000000000000D+00  5 2 -1 25 24 21 2 0.14128397D+00 0.10302844D-01 0.19201505D+05 0.19201505D+05 0.19201505D+05 0.12357788D+01  1  2 12  2  5  2       -1 0.507083224539D+00 0.100000000000D+01
-.224950168256D-02 0.000000000000D+00 -.704528134383D-04 0.289111403391D-02 0.000000000000D+00  5 2 -1 25 24 21 2 0.14128397D+00 0.10768870D-01 0.12426488D+05 0.12426488D+05 0.12426488D+05 0.12572504D+01  1  2  5  2  5  2       -1 -.644169687101D+00 0.100000000000D+01
0.327754520375D-03 0.000000000000D+00 0.000000000000D+00 0.289111403391D-02 0.000000000000D+00  5 2 21 25 24 1 2 0.14128397D+00 0.10302844D-01 0.19201505D+05 0.19201505D+05 0.19201505D+05 0.12357788D+01  1  2 12  4  5  2       -1 0.145708397714D+01 0.100000000000D+01
-.447188846921D-03 0.000000000000D+00 -.139376571585D-04 0.289111403391D-02 0.000000000000D+00  5 2 21 25 24 1 2 0.14128397D+00 0.10768870D-01 0.12426488D+05 0.12426488D+05 0.12426488D+05 0.12572504D+01  1  2  5  4  5  2       -1 -.191163564238D+01 0.100000000000D+01
  </mgrwgt>
  </event>
  <event>
  4     66 0.48098993E-03 0.17364065E+03 0.75467711E-02 0.11039799E+00
        2 -1    0    0  501    0 0.00000000E+00 0.00000000E+00 0.41855705E+04 0.41855705E+04 0.32000000E+00 0.0000E+00 0.9000E+01
       -1 -1    0    0    0  501 0.00000000E+00 0.00000000E+00 -.17370450E+02 0.17373397E+02 0.32000000E+00 0.0000E+00 0.9000E+01
       25  1    1    2    0    0 0.41570408E+02 -.22608440E+03 0.28847425E+04 0.28965853E+04 0.12500000E+03 0.0000E+00 0.9000E+01
       24  1    1    2    0    0 -.41570408E+02 0.22608440E+03 0.12834576E+04 0.13063586E+04 0.80419002E+02 0.0000E+00 0.9000E+01
#aMCatNLO 1  0  0  1  2 0.24822097D+02 0.00000000D+00  -5  5  0 0.00000000D+00 0.00000000D+00 0.00000000D+00 0.00000000D+00 0.00000000D+00
  <mgrwgt>
 0.5519180706D+00    9    2    0
 0.269650628998806D+03 0.000000000000000D+00 0.000000000000000D+00 0.269650628998806D+03
 0.269650628998806D+03 0.000000000000000D+00 0.000000000000000D+00 -.269650628998806D+03
 0.278141044985996D+03 0.415704083648491D+02 -.226084397869663D+03 0.943142995213006D+02
 0.261160213011616D+03 -.415704083648491D+02 0.226084397869663D+03 -.943142995213006D+02
 0.000000000000000D+00 -.000000000000000D+00 -.000000000000000D+00 0.000000000000000D+00
 0.288229896803191D+03 0.000000000000000D+00 0.000000000000000D+00 0.288229896803191D+03
 0.278356113090395D+03 0.000000000000000D+00 0.000000000000000D+00 -.278356113090395D+03
 0.270590379206195D+03 0.482069591783107D+02 -.215348683096832D+03 0.943142995213006D+02
 0.269281812480143D+03 -.351550559710002D+02 0.236462287740990D+03 -.943142995213006D+02
 0.267138182072477D+02 -.130519032073105D+02 -.211136046441580D+02 0.987378371279562D+01
0.991075935253D-02 0.000000000000D+00 0.000000000000D+00 0.179474118160D-02 0.000000000000D+00  5 2 -1 25 24 21 0 0.64393415D+00 0.26726045D-02 0.63806214D+05 0.63806214D+05 0.63806214D+05 0.11819348D+01  1  2  2  1  5  1        2 0.162219689368D+00 0.100000000000D+01
-.547741042881D-03 0.000000000000D+00 -.380599254766D-04 0.179474118160D-02 0.000000000000D+00  5 2 -1 25 24 21 2 0.64393415D+00 0.26726045D-02 0.63806214D+05 0.63806214D+05 0.63806214D+05 0.11819348D+01  1  2  3  1  5  1        2 -.125244582441D-01 0.100000000000D+01
0.681993514093D-03 0.000000000000D+00 0.000000000000D+00 0.179474118160D-02 0.000000000000D+00  5 2 -1 25 24 21 2 0.64393415D+00 0.26726045D-02 0.63806214D+05 0.63806214D+05 0.63806214D+05 0.11819348D+01  1  2 15  1  5  1        2 0.155942290632D-01 0.100000000000D+01
0.141903992845D-01 0.000000000000D+00 0.000000000000D+00 0.179474118160D-02 0.000000000000D+00  5 2 -1 25 24 21 2 0.69815756D+00 0.26726045D-02 0.70402373D+05 0.70402373D+05 0.70402373D+05 0.11778379D+01  1  2 12  1  5  1        2 0.157370974974D+00 0.100000000000D+01
-.135279573836D-01 0.000000000000D+00 0.000000000000D+00 0.179474118160D-02 0.000000000000D+00  5 2 -1 25 24 21 2 0.64393415D+00 0.26726045D-02 0.63806214D+05 0.63806214D+05 0.63806214D+05 0.11819348D+01  1  2  4  1  5  1        2 -.309325619435D+00 0.100000000000D+01
-.470161931018D-01 0.000000000000D+00 -.785487391906D-02 0.179474118160D-02 0.000000000000D+00  5 2 -1 25 24 21 2 0.69197924D+00 0.26726045D-02 0.63806214D+05 0.63806214D+05 0.63806214D+05 0.11819348D+01  1  2  5  1  5  1        2 -.576001206233D+00 0.100000000000D+01
0.487499965330D-01 0.000000000000D+00 0.835322727153D-02 0.179474118160D-02 0.000000000000D+00  5 2 -1 25 24 21 2 0.64393415D+00 0.26726045D-02 0.63806214D+05 0.63806214D+05 0.63806214D+05 0.11819348D+01  1  2  6  1  5  1        2 0.111470064899D+01 0.100000000000D+01
0.192182847947D-03 0.000000000000D+00 0.000000000000D+00 0.179474118160D-02 0.000000000000D+00  5 21 -1 25 24 -2 2 0.69815756D+00 0.26726045D-02 0.70402373D+05 0.70402373D+05 0.70402373D+05 0.11778379D+01  1  2 12  3  5  1        2 0.490185309249D-04 0.100000000000D+01
-.557352332230D-03 0.000000000000D+00 -.954404157209D-04 0.179474118160D-02 0.000000000000D+00  5 21 -1 25 24 -2 2 0.69197924D+00 0.26726045D-02 0.63806214D+05 0.63806214D+05 0.63806214D+05 0.11819348D+01  1  2  5  3  5  1        2 -.165206421534D-03 0.100000000000D+01
  </mgrwgt>
  </event>
  <event>
  4     66 0.48098993E-03 0.10375938E+03 0.75467711E-02 0.12038629E+00
        4 -1    0    0  501    0 0.00000000E+00 0.00000000E+00 0.15764918E+03 0.15765680E+03 0.15500000E+01 0.0000E+00 0.9000E+01
       -3 -1    0    0    0  501 0.00000000E+00 0.00000000E+00 -.91852208E+02 0.91853569E+02 0.50000000E+00 0.0000E+00 0.9000E+01
       25  1    1    2    0    0 0.58119161E+01 0.13152385E+02 -.24021109E+02 0.12809675E+03 0.12500000E+03 0.0000E+00 0.9000E+01
       24  1    1    2    0    0 -.58119161E+01 -.13152385E+02 0.89818085E+02 0.12141362E+03 0.80419002E+02 0.0000E+00 0.9000E+01
#aMCatNLO 1  0  0  2  1 0.73898046D+02 0.00000000D+00  -5  5  0 0.00000000D+00 0.00000000D+00 0.00000000D+00 0.00000000D+00 0.00000000D+00
  <mgrwgt>
 0.5231116297D-01    3    2    0
 0.120339295605500D+03 0.000000000000000D+00 0.000000000000000D+00 0.120339295605500D+03
 0.120339295605500D+03 0.000000000000000D+00 0.000000000000000D+00 -.120339295605500D+03
 0.139364220089957D+03 0.581191605900964D+01 0.131523852886966D+02 -.599218009928166D+02
 0.101314371121044D+03 -.581191605900964D+01 -.131523852886966D+02 0.599218009928166D+02
 0.000000000000000D+00 0.000000000000000D+00 0.000000000000000D+00 0.000000000000000D+00
 0.311634892668475D+03 0.000000000000000D+00 0.000000000000000D+00 0.311634892668475D+03
 0.133233770353830D+03 0.000000000000000D+00 0.000000000000000D+00 -.133233770353830D+03
 0.142612013507024D+03 -.333893914883183D+02 -.277717452542068D+01 -.599218009928166D+02
 0.109155946098853D+03 -.350722247370570D+02 -.250423926998973D+02 0.599218009928166D+02
 0.193100703416428D+03 0.684616162253753D+02 0.278195672253180D+02 0.178401122314645D+03
0.425306990846D-03 0.000000000000D+00 0.000000000000D+00 0.218094262054D-02 0.000000000000D+00  5 4 -3 25 24 21 0 0.24254412D-01 0.14131800D-01 0.10766009D+05 0.10766009D+05 0.10766009D+05 0.12645851D+01  1  2  2  2  5  2       -3 0.511288548702D-01 0.100000000000D+01
-.229968512755D-04 0.000000000000D+00 -.163329083075D-05 0.218094262054D-02 0.000000000000D+00  5 4 -3 25 24 21 2 0.24254412D-01 0.14131800D-01 0.10766009D+05 0.10766009D+05 0.10766009D+05 0.12645851D+01  1  2  3  2  5  2       -3 -.442107645368D-02 0.100000000000D+01
0.291467932087D-04 0.000000000000D+00 0.000000000000D+00 0.218094262054D-02 0.000000000000D+00  5 4 -3 25 24 21 2 0.24254412D-01 0.14131800D-01 0.10766009D+05 0.10766009D+05 0.10766009D+05 0.12645851D+01  1  2 15  2  5  2       -3 0.560338455086D-02 0.100000000000D+01
  </mgrwgt>
  </event>
  <event>
  4     66 0.48098993E-03 0.77113237E+02 0.75467711E-02 0.12182899E+00
        2 -1    0    0  501    0 0.00000000E+00 0.00000000E+00 0.29990592E+02 0.29992299E+02 0.32000000E+00 0.0000E+00 0.9000E+01
       -1 -1    0    0    0  501 0.00000000E+00 0.00000000E+00 -.51074244E+03 0.51074254E+03 0.32000000E+00 0.0000E+00 0.9000E+01
       25  1    1    2    0    0 -.46289822E+02 0.49282919E+02 -.26206509E+03 0.29811854E+03 0.12500000E+03 0.0000E+00 0.9000E+01
       24  1    1    2    0    0 0.46289822E+02 -.49282919E+02 -.21868676E+03 0.24261630E+03 0.80419002E+02 0.0000E+00 0.9000E+01
#aMCatNLO 1  0  0  1  2 0.24372103D+02 0.00000000D+00  -5  5  0 0.00000000D+00 0.00000000D+00 0.00000000D+00 0.00000000D+00 0.00000000D+00
  <mgrwgt>
 0.3872242561D+00    6    2    0
 0.123765733661930D+03 0.000000000000000D+00 0.000000000000000D+00 0.123765733661930D+03
 0.123765733661930D+03 0.000000000000000D+00 0.000000000000000D+00 -.123765733661930D+03
 0.142263955614551D+03 -.462898224228274D+02 0.492829185868025D+02 0.651761787224404D+01
 0.105267511709309D+03 0.462898224228274D+02 -.492829185868025D+02 -.651761787224404D+01
 0.000000000000000D+00 -.000000000000000D+00 -.000000000000000D+00 -.000000000000000D+00
 0.135876196034884D+03 0.000000000000000D+00 0.000000000000000D+00 0.135876196034884D+03
 0.137263795130745D+03 0.000000000000000D+00 0.000000000000000D+00 -.137263795130745D+03
 0.141120072503429D+03 -.339152795268480D+02 0.556520380153345D+02 0.651761787224404D+01
 0.107608347085299D+03 0.555854819688751D+02 -.444984860373798D+02 -.651761787224404D+01
 0.244115715769020D+02 -.216702024420271D+02 -.111535519779548D+02 -.138759909586113D+01
0.794378732370D-03 0.000000000000D+00 0.000000000000D+00 0.270938244860D-02 0.000000000000D+00  5 2 -1 25 24 21 0 0.46140763D-02 0.78575899D-01 0.15274504D+05 0.15274504D+05 0.15274504D+05 0.12469257D+01  1  2  2  1  5  1        2 0.257004923272D+00 0.100000000000D+01
-.441320435444D-04 0.000000000000D+00 -.305062349702D-05 0.270938244860D-02 0.000000000000D+00  5 2 -1 25 24 21 2 0.46140763D-02 0.78575899D-01 0.15274504D+05 0.15274504D+05 0.15274504D+05 0.12469257D+01  1  2  3  1  5  1        2 -.221997972622D-01 0.100000000000D+01
0.550183552150D-04 0.000000000000D+00 0.000000000000D+00 0.270938244860D-02 0.000000000000D+00  5 2 -1 25 24 21 2 0.46140763D-02 0.78575899D-01 0.15274504D+05 0.15274504D+05 0.15274504D+05 0.12469257D+01  1  2 15  1  5  1        2 0.276759522873D-01 0.100000000000D+01
0.815842716151D-03 0.000000000000D+00 0.000000000000D+00 0.270938244860D-02 0.000000000000D+00  5 2 -1 25 24 21 2 0.52926263D-02 0.78575899D-01 0.18598464D+05 0.18598464D+05 0.18598464D+05 0.12373149D+01  1  2 12  1  5  1        2 0.339680775409D+00 0.100000000000D+01
-.629435040604D-03 0.000000000000D+00 0.000000000000D+00 0.270938244860D-02 0.000000000000D+00  5 2 -1 25 24 21 2 0.46140763D-02 0.78575899D-01 0.15274504D+05 0.15274504D+05 0.15274504D+05 0.12469257D+01  1  2  4  1  5  1        2 -.316625498592D+00 0.100000000000D+01
0.173041088703D-04 0.000000000000D+00 0.000000000000D+00 0.270938244860D-02 0.000000000000D+00  5 21 -1 25 24 -2 2 0.52926263D-02 0.78575899D-01 0.18598464D+05 0.18598464D+05 0.18598464D+05 0.12373149D+01  1  2 12  3  5  1        2 0.101687901021D+00 0.100000000000D+01
  </mgrwgt>
  </event>
  <event>
  4     66 0.48098993E-03 0.16866265E+03 0.75467711E-02 0.11274707E+00
        2 -1    0    0  501    0 0.00000000E+00 0.00000000E+00 0.16935409E+04 0.16935409E+04 0.32000000E+00 0.0000E+00 0.9000E+01
       -1 -1    0    0    0  501 0.00000000E+00 0.00000000E+00 -.16800983E+02 0.16804030E+02 0.32000000E+00 0.0000E+00 0.9000E+01
       25  1    1    2    0    0 0.12361128E+03 0.48015521E+02 0.92072143E+03 0.93858308E+03 0.12500000E+03 0.0000E+00 0.9000E+01
       24  1    1    2    0    0 -.12361128E+03 -.48015521E+02 0.75601845E+03 0.77176184E+03 0.80419002E+02 0.0000E+00 0.9000E+01
#aMCatNLO 1  0  0  1  2 0.10450471D+03 0.00000000D+00  -5  5  0 0.00000000D+00 0.00000000D+00 0.00000000D+00 0.00000000D+00 0.00000000D+00
  <mgrwgt>
 0.5307650299D+00    3    2    0
 0.168688420772989D+03 0.000000000000000D+00 0.000000000000000D+00 0.168688420772989D+03
 0.168688420772989D+03 0.000000000000000D+00 0.000000000000000D+00 -.168688420772989D+03
 0.182260460874593D+03 0.123611276299081D+03 0.480155208271361D+02 0.293900146825514D+01
 0.155116380671384D+03 -.123611276299081D+03 -.480155208271361D+02 -.293900146825514D+01
 0.000000000000000D+00 -.000000000000000D+00 0.000000000000000D+00 -.000000000000000D+00
 0.202478133278520D+03 0.000000000000000D+00 0.000000000000000D+00 0.202478133278520D+03
 0.282085306060156D+03 0.000000000000000D+00 0.000000000000000D+00 -.282085306060156D+03
 0.198424691336732D+03 0.154071219896820D+03 -.882950707865291D+00 0.293900146825514D+01
 0.154766996488633D+03 -.988164290733830D+02 -.878196040943962D+02 -.293900146825514D+01
 0.131371751513312D+03 -.552547908234374D+02 0.887025548022615D+02 -.796071727816363D+02
0.910629737308D-03 0.000000000000D+00 0.000000000000D+00 0.228674853294D-02 0.000000000000D+00  5 2 -1 25 24 21 0 0.26054498D+00 0.25850034D-02 0.28447089D+05 0.28447089D+05 0.28447089D+05 0.12173286D+01  1  2  2  1  5  1        2 0.520299319915D+00 0.100000000000D+01
-.505905395257D-04 0.000000000000D+00 -.349705796558D-05 0.228674853294D-02 0.000000000000D+00  5 2 -1 25 24 21 2 0.26054498D+00 0.25850034D-02 0.28447089D+05 0.28447089D+05 0.28447089D+05 0.12173286D+01  1  2  3  1  5  1        2 -.428347636365D-01 0.100000000000D+01
0.629511986804D-04 0.000000000000D+00 0.000000000000D+00 0.228674853294D-02 0.000000000000D+00  5 2 -1 25 24 21 2 0.26054498D+00 0.25850034D-02 0.28447089D+05 0.28447089D+05 0.28447089D+05 0.12173286D+01  1  2 15  1  5  1        2 0.533004735943D-01 0.100000000000D+01
  </mgrwgt>
  </event>
  <event>
  4     66 0.48098993E-03 0.13971617E+03 0.75467711E-02 0.96085211E-01
        2 -1    0    0  501    0 0.00000000E+00 0.00000000E+00 0.12051495E+04 0.12051495E+04 0.32000000E+00 0.0000E+00 0.9000E+01
       -1 -1    0    0    0  501 0.00000000E+00 0.00000000E+00 -.19890830E+02 0.19893404E+02 0.32000000E+00 0.0000E+00 0.9000E+01
       25  1    1    2    0    0 -.58062353E+02 -.73292412E+02 0.91171545E+03 0.92498274E+03 0.12500000E+03 0.0000E+00 0.9000E+01
       24  1    1    2    0    0 0.58062353E+02 0.73292412E+02 0.27354319E+03 0.30006017E+03 0.80419002E+02 0.0000E+00 0.9000E+01
#aMCatNLO 1  0  0  1  2 0.74592453D+03 0.00000000D+00  -5  5  0 0.00000000D+00 0.00000000D+00 0.00000000D+00 0.00000000D+00 0.00000000D+00
  <mgrwgt>
 0.6017014285D+00    3    2    0
 0.154832251407577D+03 0.000000000000000D+00 0.000000000000000D+00 0.154832251407577D+03
 0.154832251407577D+03 0.000000000000000D+00 0.000000000000000D+00 -.154832251407577D+03
 0.169618873642893D+03 -.580623532035506D+02 -.732924122589289D+02 0.663516973529466D+02
 0.140045629172260D+03 0.580623532035506D+02 0.732924122589289D+02 -.663516973529466D+02
 0.000000000000000D+00 0.000000000000000D+00 0.000000000000000D+00 -.000000000000000D+00
 0.609179389771044D+03 0.000000000000000D+00 0.000000000000000D+00 0.609179389771044D+03
 0.108119074909582D+04 0.000000000000000D+00 0.000000000000000D+00 -.108119074909582D+04
 0.658090971740970D+03 -.511350276119322D+03 -.389329005415792D+03 0.663516973529466D+02
 0.149557165363269D+03 -.100536037207926D+03 -.372838736994308D+02 -.663516973529466D+02
 0.882722001762622D+03 0.611886313327248D+03 0.426612879115223D+03 -.472011359324773D+03
0.730881546445D-03 0.000000000000D+00 0.000000000000D+00 0.197212175485D-02 0.000000000000D+00  5 2 -1 25 24 21 0 0.18540781D+00 0.30603290D-02 0.19520608D+05 0.19520608D+05 0.19520608D+05 0.12349877D+01  1  2  2  1  5  1        2 0.589066162661D+00 0.100000000000D+01
-.400835223200D-04 0.000000000000D+00 -.280677758388D-05 0.197212175485D-02 0.000000000000D+00  5 2 -1 25 24 21 2 0.18540781D+00 0.30603290D-02 0.19520608D+05 0.19520608D+05 0.19520608D+05 0.12349877D+01  1  2  3  1  5  1        2 -.492729133382D-01 0.100000000000D+01
0.503623129319D-04 0.000000000000D+00 0.000000000000D+00 0.197212175485D-02 0.000000000000D+00  5 2 -1 25 24 21 2 0.18540781D+00 0.30603290D-02 0.19520608D+05 0.19520608D+05 0.19520608D+05 0.12349877D+01  1  2 15  1  5  1        2 0.619081791463D-01 0.100000000000D+01
  </mgrwgt>
  </event>
  <event>
  4     66 0.48098993E-03 0.11271558E+03 0.75467711E-02 0.11996533E+00
        2 -1    0    0  501    0 0.00000000E+00 0.00000000E+00 0.16386807E+03 0.16386839E+03 0.32000000E+00 0.0000E+00 0.9000E+01
       -1 -1    0    0    0  501 0.00000000E+00 0.00000000E+00 -.77530948E+02 0.77531608E+02 0.32000000E+00 0.0000E+00 0.9000E+01
       25  1    1    2    0    0 -.14393189E+02 0.43175177E+02 0.50523367E+02 0.14229853E+03 0.12500000E+03 0.0000E+00 0.9000E+01
       24  1    1    2    0    0 0.14393189E+02 -.43175177E+02 0.35813759E+02 0.99101469E+02 0.80419002E+02 0.0000E+00 0.9000E+01
#aMCatNLO 1  0  0  1  1 0.66346433D+02 0.00000000D+00  -5  5  0 0.00000000D+00 0.00000000D+00 0.00000000D+00 0.00000000D+00 0.00000000D+00
  <mgrwgt>
 0.2714826253D+00    7    2    0
 0.112716300936621D+03 0.000000000000000D+00 0.000000000000000D+00 0.112716300936621D+03
 0.112716300936621D+03 0.000000000000000D+00 0.000000000000000D+00 -.112716300936621D+03
 0.133027879584813D+03 -.143931888695118D+02 0.431751771929818D+02 -.396150669034003D+00
 0.924047222884303D+02 0.143931888695118D+02 -.431751771929818D+02 0.396150669034003D+00
 0.000000000000000D+00 -.000000000000000D+00 0.000000000000000D+00 0.000000000000000D+00
 0.153636337876145D+03 0.000000000000000D+00 0.000000000000000D+00 0.153636337876145D+03
 0.147946611630671D+03 0.000000000000000D+00 0.000000000000000D+00 -.147946611630671D+03
 0.126091612097218D+03 0.887314137073973D+01 0.139715807315276D+02 -.396150669034003D+00
 0.108901381816416D+03 0.324684570289184D+02 -.658630197452491D+02 0.396150669034003D+00
 0.665899555931812D+02 -.413415983996581D+02 0.518914390137216D+02 0.568972624547372D+01
0.252872758263D-03 0.000000000000D+00 0.000000000000D+00 0.294107113262D-02 0.000000000000D+00  5 2 -1 25 24 21 0 0.25210548D-01 0.11927913D-01 0.12704802D+05 0.12704802D+05 0.12704802D+05 0.12561295D+01  1  2  2  1  5  1        2 0.263385877105D+00 0.100000000000D+01
-.140484865695D-04 0.000000000000D+00 -.971097974656D-06 0.294107113262D-02 0.000000000000D+00  5 2 -1 25 24 21 2 0.25210548D-01 0.11927913D-01 0.12704802D+05 0.12704802D+05 0.12704802D+05 0.12561295D+01  1  2  3  1  5  1        2 -.230881317404D-01 0.100000000000D+01
0.175147177330D-04 0.000000000000D+00 0.000000000000D+00 0.294107113262D-02 0.000000000000D+00  5 2 -1 25 24 21 2 0.25210548D-01 0.11927913D-01 0.12704802D+05 0.12704802D+05 0.12704802D+05 0.12561295D+01  1  2 15  1  5  1        2 0.287847454895D-01 0.100000000000D+01
-.975666538312D-04 0.000000000000D+00 0.000000000000D+00 0.294107113262D-02 0.000000000000D+00  5 2 -1 25 24 21 2 0.25210548D-01 0.11927913D-01 0.12704802D+05 0.12704802D+05 0.12704802D+05 0.12561295D+01  1  2  4  1  5  1        2 -.160346934596D+00 0.100000000000D+01
-.139909149539D-03 0.000000000000D+00 -.102661378107D-03 0.294107113262D-02 0.000000000000D+00  5 2 -1 25 24 21 2 0.44247773D-01 0.11927913D-01 0.12704802D+05 0.12704802D+05 0.12704802D+05 0.12561295D+01  1  2  5  1  5  1        2 -.125948414000D+00 0.100000000000D+01
0.182380234775D-03 0.000000000000D+00 0.883151188124D-04 0.294107113262D-02 0.000000000000D+00  5 2 -1 25 24 21 2 0.25210548D-01 0.11927913D-01 0.12704802D+05 0.12704802D+05 0.12704802D+05 0.12561295D+01  1  2  6  1  5  1        2 0.299734698575D+00 0.100000000000D+01
-.344665723163D-05 0.000000000000D+00 -.637382364770D-05 0.294107113262D-02 0.000000000000D+00  5 21 -1 25 24 -2 2 0.44247773D-01 0.11927913D-01 0.12704802D+05 0.12704802D+05 0.12704802D+05 0.12561295D+01  1  2  5  3  5  1        2 -.110392155504D-01 0.100000000000D+01
  </mgrwgt>
  </event>
  <event>
  4     66 0.48098993E-03 0.96728481E+02 0.75467711E-02 0.11992322E+00
        2 -1    0    0  501    0 0.00000000E+00 0.00000000E+00 0.20763664E+04 0.20763665E+04 0.32000000E+00 0.0000E+00 0.9000E+01
       -1 -1    0    0    0  501 0.00000000E+00 0.00000000E+00 -.12819679E+02 0.12823672E+02 0.32000000E+00 0.0000E+00 0.9000E+01
       25  1    1    2    0    0 0.51038629E+02 -.96871561E+02 0.15143379E+04 0.15234281E+04 0.12500000E+03 0.0000E+00 0.9000E+01
       24  1    1    2    0    0 -.51038629E+02 0.96871561E+02 0.54920889E+03 0.56576202E+03 0.80419002E+02 0.0000E+00 0.9000E+01
#aMCatNLO 1  0  0  2  1 0.12245432D+02 0.00000000D+00  -5  5  0 0.00000000D+00 0.00000000D+00 0.00000000D+00 0.00000000D+00 0.00000000D+00
  <mgrwgt>
 0.2702417110D-03    1    2    0
 0.163164173220506D+03 0.000000000000000D+00 0.000000000000000D+00 0.163164173220506D+03
 0.163164173220506D+03 0.000000000000000D+00 0.000000000000000D+00 -.163164173220506D+03
 0.177195721729095D+03 0.510386286726088D+02 -.968715610862550D+02 0.615165248939363D+02
 0.149132624711916D+03 -.510386286726088D+02 0.968715610862550D+02 -.615165248939363D+02
 0.000000000000000D+00 0.000000000000000D+00 -.000000000000000D+00 -.000000000000000D+00
 0.180028949046542D+03 0.000000000000000D+00 0.000000000000000D+00 0.180028949046542D+03
 0.283914415533049D+03 0.000000000000000D+00 0.000000000000000D+00 -.283914415533049D+03
 0.156464617547639D+03 0.356867345252509D+02 -.616307608928106D+02 0.615165248939363D+02
 0.178642497695836D+03 -.661197407827528D+02 0.131490771814723D+03 -.615165248939363D+02
 0.128836249336117D+03 0.304330062575019D+02 -.698600109219123D+02 -.103885466486507D+03
0.334248604485D-06 0.000000000000D+00 0.000000000000D+00 0.201269744289D-02 0.000000000000D+00  5 2 -1 25 24 21 2 0.31944130D+00 0.19725673D-02 0.22805309D+05 0.22805309D+05 0.22805309D+05 0.12275991D+01  1  2 14  2  5  2       -1 0.270241711043D-03 0.100000000000D+01
  </mgrwgt>
  </event>
  <event>
  5     66 0.48098993E-03 0.10454650E+03 0.75467711E-02 0.11791502E+00
        2 -1    0    0  502    0 0.00000000E+00 0.00000000E+00 0.13706680E+04 0.13706681E+04 0.32000000E+00 0.0000E+00 0.9000E+01
       -1 -1    0    0    0  501 0.00000000E+00 0.00000000E+00 -.29830363E+02 0.29832079E+02 0.32000000E+00 0.0000E+00 0.9000E+01
       25  1    1    2    0    0 0.73449257E+02 -.11549238E+02 0.67204362E+03 0.68760148E+03 0.12500000E+03 0.0000E+00 0.9000E+01
       24  1    1    2    0    0 0.24829307E+02 -.24069483E+02 0.93103840E+02 0.12779427E+03 0.80419002E+02 0.0000E+00 0.9000E+01
       21  1    1    2  502  501 -.98278564E+02 0.35618721E+02 0.57569022E+03 0.58510440E+03 0.75000000E+00 0.0000E+00 0.9000E+01
#aMCatNLO 2  0  0  1  2 0.10453406D+03 0.00000000D+00  -5  5  0 0.00000000D+00 0.00000000D+00 0.00000000D+00 0.00000000D+00 0.00000000D+00
  <mgrwgt>
 0.1083968317D+00    2    2    0
 0.130855107088063D+03 0.000000000000000D+00 0.000000000000000D+00 0.130855107088063D+03
 0.130855107088063D+03 0.000000000000000D+00 0.000000000000000D+00 -.130855107088063D+03
 0.148351145739934D+03 0.168186508772787D+02 0.897517420363795D+01 0.775863497854717D+02
 0.113359068436193D+03 -.168186508772787D+02 -.897517420363795D+01 -.775863497854717D+02
 0.000000000000000D+00 -.000000000000000D+00 0.000000000000000D+00 0.000000000000000D+00
 0.244392279820277D+03 0.000000000000000D+00 0.000000000000000D+00 0.244392279820277D+03
 0.167305895615644D+03 0.000000000000000D+00 0.000000000000000D+00 -.167305895615644D+03
 0.164841802550764D+03 0.734492565910831D+02 -.115492381293576D+02 0.775863497854717D+02
 0.116973040308253D+03 0.248293073693065D+02 -.240694833162797D+02 -.775863497854717D+02
 0.129883332576904D+03 -.982785639603896D+02 0.356187214456373D+02 0.770863842046336D+02
-.291185826772D-11 0.000000000000D+00 0.000000000000D+00 0.179616823133D-02 0.000000000000D+00  5 2 -1 25 24 21 2 0.21518437D+00 0.35895070D-02 0.28478964D+05 0.28478964D+05 0.28478964D+05 0.12172772D+01  1  2 13  1  5  1        2 -.217512527372D-08 0.100000000000D+01
0.201530289019D-03 0.000000000000D+00 0.000000000000D+00 0.179616823133D-02 0.174357673863D-05  5 2 -1 25 24 21 2 0.21087089D+00 0.45893944D-02 0.28478964D+05 0.28478964D+05 0.28478964D+05 0.12172772D+01  1  2  1  1  5  1        2 0.108396833855D+00 0.100000000000D+01
  </mgrwgt>
  </event>
  <event>
  4     66 0.48098993E-03 0.12511498E+03 0.75467711E-02 0.11081457E+00
        2 -1    0    0  501    0 0.00000000E+00 0.00000000E+00 0.17218635E+04 0.17218635E+04 0.32000000E+00 0.0000E+00 0.9000E+01
       -1 -1    0    0    0  501 0.00000000E+00 0.00000000E+00 -.16605501E+02 0.16608584E+02 0.32000000E+00 0.0000E+00 0.9000E+01
       25  1    1    2    0    0 0.53319537E+02 -.45820537E+02 0.33956253E+03 0.36860576E+03 0.12500000E+03 0.0000E+00 0.9000E+01
       24  1    1    2    0    0 -.53319537E+02 0.45820537E+02 0.13656955E+04 0.13698663E+04 0.80419002E+02 0.0000E+00 0.9000E+01
#aMCatNLO 1  0  0  1  2 0.19799043D+03 0.00000000D+00  -5  5  0 0.00000000D+00 0.00000000D+00 0.00000000D+00 0.00000000D+00 0.00000000D+00
  <mgrwgt>
 0.3503317040D+00    5    2    0
 0.169100890448441D+03 0.000000000000000D+00 0.000000000000000D+00 0.169100890448441D+03
 0.169100890448441D+03 0.000000000000000D+00 0.000000000000000D+00 -.169100890448441D+03
 0.182639825727469D+03 0.533195366134003D+02 -.458205370197533D+02 -.113092048103807D+03
 0.155561955169414D+03 -.533195366134003D+02 0.458205370197533D+02 0.113092048103807D+03
 0.000000000000000D+00 0.000000000000000D+00 -.000000000000000D+00 0.000000000000000D+00
 0.489815779264471D+03 0.000000000000000D+00 0.000000000000000D+00 0.489815779264471D+03
 0.229295220204451D+03 0.000000000000000D+00 0.000000000000000D+00 -.229295220204451D+03
 0.175452929836603D+03 -.415921068450688D+02 -.252787636588996D+02 -.113092048103807D+03
 0.216440750612119D+03 -.151917979693060D+03 0.671602462237316D+02 0.113092048103807D+03
 0.327217319020201D+03 0.193510086538129D+03 -.418814825648320D+02 0.260520559060020D+03
0.610018939737D-03 0.000000000000D+00 0.000000000000D+00 0.133215662631D-02 0.000000000000D+00  5 2 -1 25 24 21 0 0.26490231D+00 0.25549319D-02 0.15653759D+05 0.15653759D+05 0.15653759D+05 0.12457159D+01  1  2  2  1  5  1        2 0.340689574735D+00 0.100000000000D+01
-.301501957886D-04 0.000000000000D+00 -.234263335026D-05 0.133215662631D-02 0.000000000000D+00  5 2 -1 25 24 21 2 0.26490231D+00 0.25549319D-02 0.15653759D+05 0.15653759D+05 0.15653759D+05 0.12457159D+01  1  2  3  1  5  1        2 -.261302571795D-01 0.100000000000D+01
0.416757997402D-04 0.000000000000D+00 0.000000000000D+00 0.133215662631D-02 0.000000000000D+00  5 2 -1 25 24 21 2 0.26490231D+00 0.25549319D-02 0.15653759D+05 0.15653759D+05 0.15653759D+05 0.12457159D+01  1  2 15  1  5  1        2 0.361191473848D-01 0.100000000000D+01
-.102903567402D-03 0.000000000000D+00 -.172447886235D-03 0.133215662631D-02 0.000000000000D+00  5 2 -1 25 24 21 2 0.78913370D+00 0.25549319D-02 0.15653759D+05 0.15653759D+05 0.15653759D+05 0.12457159D+01  1  2  5  1  5  1        2 -.346582791569D-03 0.100000000000D+01
-.402711679752D-05 0.000000000000D+00 -.213892953745D-04 0.133215662631D-02 0.000000000000D+00  5 21 -1 25 24 -2 2 0.78913370D+00 0.25549319D-02 0.15653759D+05 0.15653759D+05 0.15653759D+05 0.12457159D+01  1  2  5  3  5  1        2 -.178140886411D-06 0.100000000000D+01
  </mgrwgt>
  </event>
  <event>
  4     66 0.48098993E-03 0.11815505E+03 0.75467711E-02 0.11727310E+00
        4 -1    0    0  501    0 0.00000000E+00 0.00000000E+00 0.16040921E+02 0.16115633E+02 0.15500000E+01 0.0000E+00 0.9000E+01
       -3 -1    0    0    0  501 0.00000000E+00 0.00000000E+00 -.12018962E+04 0.12018963E+04 0.50000000E+00 0.0000E+00 0.9000E+01
       25  1    1    2    0    0 0.46065355E+02 -.80168393E+02 -.66800903E+03 0.68586445E+03 0.12500000E+03 0.0000E+00 0.9000E+01
       24  1    1    2    0    0 -.46065355E+02 0.80168393E+02 -.51784628E+03 0.53214751E+03 0.80419002E+02 0.0000E+00 0.9000E+01
#aMCatNLO 1  0  0  2  1 0.64578959D+02 0.00000000D+00  -5  5  0 0.00000000D+00 0.00000000D+00 0.00000000D+00 0.00000000D+00 0.00000000D+00
  <mgrwgt>
 0.1379591531D+00    9    2    0
 0.139014690689417D+03 0.000000000000000D+00 0.000000000000000D+00 0.139014690689417D+03
 0.139014690689417D+03 0.000000000000000D+00 0.000000000000000D+00 -.139014690689417D+03
 0.155483784711446D+03 0.460653545569982D+02 -.801683932398797D+02 -.110414811934571D+01
 0.122545596667387D+03 -.460653545569982D+02 0.801683932398797D+02 0.110414811934571D+01
 0.000000000000000D+00 -.000000000000000D+00 -.000000000000000D+00 -.000000000000000D+00
 0.163244547510181D+03 0.000000000000000D+00 0.000000000000000D+00 0.163244547510181D+03
 0.193502351811244D+03 0.000000000000000D+00 0.000000000000000D+00 -.193502351811244D+03
 0.143273828694911D+03 0.523299702635878D+02 -.465053229000859D+02 -.110414811934571D+01
 0.142157036649117D+03 -.405148340017456D+02 0.109994255291945D+03 0.110414811934571D+01
 0.713160339773975D+02 -.118151362618422D+02 -.634889323918587D+02 -.302578043010628D+02
0.352654215059D-02 0.000000000000D+00 0.000000000000D+00 0.251113894409D-02 0.000000000000D+00  5 4 -3 25 24 21 0 0.24735891D-02 0.18491287D+00 0.19323848D+05 0.19323848D+05 0.19323848D+05 0.12354738D+01  1  2  2  2  5  2       -3 0.102193980998D+00 0.100000000000D+01
-.195919008122D-03 0.000000000000D+00 -.135428504181D-04 0.251113894409D-02 0.000000000000D+00  5 4 -3 25 24 21 2 0.24735891D-02 0.18491287D+00 0.19323848D+05 0.19323848D+05 0.19323848D+05 0.12354738D+01  1  2  3  2  5  2       -3 -.866602419305D-02 0.100000000000D+01
0.244188126529D-03 0.000000000000D+00 0.000000000000D+00 0.251113894409D-02 0.000000000000D+00  5 4 -3 25 24 21 2 0.24735891D-02 0.18491287D+00 0.19323848D+05 0.19323848D+05 0.19323848D+05 0.12354738D+01  1  2 15  2  5  2       -3 0.108010970066D-01 0.100000000000D+01
0.125981670811D-02 0.000000000000D+00 0.000000000000D+00 0.251113894409D-02 0.000000000000D+00  5 4 -3 25 24 21 2 0.24735891D-02 0.26846495D+00 0.30625224D+05 0.30625224D+05 0.30625224D+05 0.12139593D+01  1  2 12  2  5  2       -3 0.184155395570D-01 0.100000000000D+01
-.175118193552D-02 0.000000000000D+00 0.000000000000D+00 0.251113894409D-02 0.000000000000D+00  5 4 -3 25 24 21 2 0.24735891D-02 0.18491287D+00 0.19323848D+05 0.19323848D+05 0.19323848D+05 0.12354738D+01  1  2  4  2  5  2       -3 -.774594826970D-01 0.100000000000D+01
-.280212934977D-02 0.000000000000D+00 -.110978397104D-02 0.251113894409D-02 0.000000000000D+00  5 4 -3 25 24 21 2 0.24735891D-02 0.27947719D+00 0.19323848D+05 0.19323848D+05 0.19323848D+05 0.12354738D+01  1  2  5  2  5  2       -3 -.362653487685D-01 0.100000000000D+01
0.308221186824D-02 0.000000000000D+00 0.102141246465D-02 0.251113894409D-02 0.000000000000D+00  5 4 -3 25 24 21 2 0.24735891D-02 0.18491287D+00 0.19323848D+05 0.19323848D+05 0.19323848D+05 0.12354738D+01  1  2  6  2  5  2       -3 0.136334513298D+00 0.100000000000D+01
0.569683005640D-04 0.000000000000D+00 0.000000000000D+00 0.251113894409D-02 0.000000000000D+00  5 4 21 25 24 3 2 0.24735891D-02 0.26846495D+00 0.30625224D+05 0.30625224D+05 0.30625224D+05 0.12139593D+01  1  2 12  4  5  2       -3 0.135004063037D-01 0.100000000000D+01
-.970232185823D-04 0.000000000000D+00 -.540880681072D-04 0.251113894409D-02 0.000000000000D+00  5 4 21 25 24 3 2 0.24735891D-02 0.27947719D+00 0.19323848D+05 0.19323848D+05 0.19323848D+05 0.12354738D+01  1  2  5  4  5  2       -3 -.208955284461D-01 0.100000000000D+01
  </mgrwgt>
  </event>
  <event>
  4     66 0.48098993E-03 0.10590758E+03 0.75467711E-02 0.11324953E+00
        4 -1    0    0  501    0 0.00000000E+00 0.00000000E+00 0.51786065E+03 0.51786297E+03 0.15500000E+01 0.0000E+00 0.9000E+01
       -3 -1    0    0    0  501 0.00000000E+00 0.00000000E+00 -.25768040E+02 0.25772890E+02 0.50000000E+00 0.0000E+00 0.9000E+01
       25  1    1    2    0    0 0.19012299E+02 -.16617787E+02 0.39492024E+03 0.41499954E+03 0.12500000E+03 0.0000E+00 0.9000E+01
       24  1    1    2    0    0 -.19012299E+02 0.16617787E+02 0.97172368E+02 0.12863632E+03 0.80419002E+02 0.0000E+00 0.9000E+01
#aMCatNLO 1  0  0  1  2 0.17202806D+03 0.00000000D+00  -5  5  0 0.00000000D+00 0.00000000D+00 0.00000000D+00 0.00000000D+00 0.00000000D+00
  <mgrwgt>
 0.1928169523D-01    5    2    0
 0.115525766499537D+03 0.000000000000000D+00 0.000000000000000D+00 0.115525766499537D+03
 0.115525766499537D+03 0.000000000000000D+00 0.000000000000000D+00 -.115525766499537D+03
 0.135343388842831D+03 0.190122988250634D+02 -.166177873270779D+02 0.453344740920210D+02
 0.957081441562428D+02 -.190122988250634D+02 0.166177873270779D+02 -.453344740920210D+02
 0.000000000000000D+00 -.000000000000000D+00 0.000000000000000D+00 0.000000000000000D+00
 0.305241328395372D+03 0.000000000000000D+00 0.000000000000000D+00 0.305241328395372D+03
 0.189922527360676D+03 0.000000000000000D+00 0.000000000000000D+00 -.189922527360676D+03
 0.187307138362612D+03 0.875419011335802D+02 -.986922747042995D+02 0.453344740920210D+02
 0.100752688460536D+03 0.227151480352833D+02 -.333570949902763D+02 -.453344740920210D+02
 0.207104028932901D+03 -.110257049168863D+03 0.132049369694576D+03 0.115318801034696D+03
0.205307654199D-03 0.000000000000D+00 0.000000000000D+00 0.249716577400D-02 0.000000000000D+00  5 4 -3 25 24 21 0 0.79671420D-01 0.39648654D-02 0.11216415D+05 0.11216415D+05 0.11216415D+05 0.12624758D+01  1  2  2  1  5  1        4 0.179930168140D-01 0.100000000000D+01
-.113011903634D-04 0.000000000000D+00 -.788435450870D-06 0.249716577400D-02 0.000000000000D+00  5 4 -3 25 24 21 2 0.79671420D-01 0.39648654D-02 0.11216415D+05 0.11216415D+05 0.11216415D+05 0.12624758D+01  1  2  3  1  5  1        4 -.157858935326D-02 0.100000000000D+01
0.141282334737D-04 0.000000000000D+00 0.000000000000D+00 0.249716577400D-02 0.000000000000D+00  5 4 -3 25 24 21 2 0.79671420D-01 0.39648654D-02 0.11216415D+05 0.11216415D+05 0.11216415D+05 0.12624758D+01  1  2 15  1  5  1        4 0.197348051177D-02 0.100000000000D+01
0.276882314827D-04 0.000000000000D+00 -.776687116654D-04 0.249716577400D-02 0.000000000000D+00  5 4 -3 25 24 21 2 0.28271349D+00 0.39648654D-02 0.11216415D+05 0.11216415D+05 0.11216415D+05 0.12624758D+01  1  2  5  1  5  1        4 0.134937426468D-03 0.100000000000D+01
0.644448809678D-05 0.000000000000D+00 -.115345545539D-04 0.249716577400D-02 0.000000000000D+00  5 21 -3 25 24 -4 2 0.28271349D+00 0.39648654D-02 0.11216415D+05 0.11216415D+05 0.11216415D+05 0.12624758D+01  1  2  5  3  5  1        4 0.758849834326D-03 0.100000000000D+01
  </mgrwgt>
  </event>
  <event>
  4     66 0.48098993E-03 0.10575509E+03 0.75467711E-02 0.12423815E+00
        2 -1    0    0  501    0 0.00000000E+00 0.00000000E+00 0.44964442E+03 0.44964453E+03 0.32000000E+00 0.0000E+00 0.9000E+01
       -1 -1    0    0    0  501 0.00000000E+00 0.00000000E+00 -.24872153E+02 0.24874211E+02 0.32000000E+00 0.0000E+00 0.9000E+01
       25  1    1    2    0    0 -.16134915E+02 0.18610666E+02 0.25588701E+03 0.28584936E+03 0.12500000E+03 0.0000E+00 0.9000E+01
       24  1    1    2    0    0 0.16134915E+02 -.18610666E+02 0.16888525E+03 0.18866938E+03 0.80419002E+02 0.0000E+00 0.9000E+01
#aMCatNLO 1  0  0  1  1 0.27570106D+02 0.00000000D+00  -5  5  0 0.00000000D+00 0.00000000D+00 0.00000000D+00 0.00000000D+00 0.00000000D+00
  <mgrwgt>
 0.2437050174D+00    4    2    0
 0.105755095096375D+03 0.000000000000000D+00 0.000000000000000D+00 0.105755095096375D+03
 0.105755095096375D+03 0.000000000000000D+00 0.000000000000000D+00 -.105755095096375D+03
 0.127403659728849D+03 -.161349154260493D+02 0.186106662372948D+02 0.108950745998510D-01
 0.841065304639000D+02 0.161349154260493D+02 -.186106662372948D+02 -.108950745998510D-01
 0.000000000000000D+00 0.000000000000000D+00 0.000000000000000D+00 -.000000000000000D+00
 0.112616452304274D+03 0.000000000000000D+00 0.000000000000000D+00 0.112616452304274D+03
 0.138497734237241D+03 0.000000000000000D+00 0.000000000000000D+00 -.138497734237241D+03
 0.129889978805210D+03 -.322715663313595D+02 0.143161615608321D+02 0.108950745998510D-01
 0.834095084891405D+02 0.562883429234207D+01 -.214066872223651D+02 -.108950745998510D-01
 0.378146992471642D+02 0.266427320390174D+02 0.709052566153308D+01 -.258812819329673D+02
0.171361383700D-03 0.000000000000D+00 0.000000000000D+00 0.313811073695D-02 0.000000000000D+00  5 2 -1 25 24 21 0 0.69176231D-01 0.38266522D-02 0.11184140D+05 0.11184140D+05 0.11184140D+05 0.12626238D+01  1  2  2  1  5  1        2 0.330296554882D+00 0.100000000000D+01
-.952007687221D-05 0.000000000000D+00 -.658072833896D-06 0.313811073695D-02 0.000000000000D+00  5 2 -1 25 24 21 2 0.69176231D-01 0.38266522D-02 0.11184140D+05 0.11184140D+05 0.11184140D+05 0.12626238D+01  1  2  3  1  5  1        2 -.292536090673D-01 0.100000000000D+01
0.118499177526D-04 0.000000000000D+00 0.000000000000D+00 0.313811073695D-02 0.000000000000D+00  5 2 -1 25 24 21 2 0.69176231D-01 0.38266522D-02 0.11184140D+05 0.11184140D+05 0.11184140D+05 0.12626238D+01  1  2 15  1  5  1        2 0.364128216680D-01 0.100000000000D+01
-.305095465511D-04 0.000000000000D+00 0.000000000000D+00 0.313811073695D-02 0.000000000000D+00  5 2 -1 25 24 21 2 0.69176231D-01 0.38266522D-02 0.11184140D+05 0.11184140D+05 0.11184140D+05 0.12626238D+01  1  2  4  1  5  1        2 -.937507500839D-01 0.100000000000D+01
  </mgrwgt>
  </event>
  <event>
  4     66 0.48098993E-03 0.13395529E+03 0.75467711E-02 0.10719929E+00
        2 -1    0    0  501    0 0.00000000E+00 0.00000000E+00 0.24269593E+03 0.24269614E+03 0.32000000E+00 0.0000E+00 0.9000E+01
       -1 -1    0    0    0  501 0.00000000E+00 0.00000000E+00 -.78569235E+02 0.78569886E+02 0.32000000E+00 0.0000E+00 0.9000E+01
       25  1    1    2    0    0 -.75404457E+02 -.38783824E+02 0.13062534E+03 0.19969476E+03 0.12500000E+03 0.0000E+00 0.9000E+01
       24  1    1    2    0    0 0.75404457E+02 0.38783824E+02 0.33501361E+02 0.12157127E+03 0.80419002E+02 0.0000E+00 0.9000E+01
#aMCatNLO 1  0  0  2  1 0.27332520D+03 0.00000000D+00  -5  5  0 0.00000000D+00 0.00000000D+00 0.00000000D+00 0.00000000D+00 0.00000000D+00
  <mgrwgt>
 0.4567057562D+00    3    2    0
 0.138089000566998D+03 0.000000000000000D+00 0.000000000000000D+00 0.138089000566998D+03
 0.138089000566998D+03 0.000000000000000D+00 0.000000000000000D+00 -.138089000566998D+03
 0.154668496413929D+03 -.754044570122161D+02 -.387838241708082D+02 0.332765176712677D+02
 0.121509504720067D+03 0.754044570122161D+02 0.387838241708082D+02 -.332765176712677D+02
 0.000000000000000D+00 0.000000000000000D+00 -.000000000000000D+00 0.000000000000000D+00
 0.714867931975224D+03 0.000000000000000D+00 0.000000000000000D+00 0.714867931975224D+03
 0.230157531076518D+03 0.000000000000000D+00 0.000000000000000D+00 -.230157531076518D+03
 0.196576029258238D+03 -.107166663685635D+03 0.102103451680632D+03 0.332765176712677D+02
 0.191986644500604D+03 0.470557461993912D+02 0.164529893434364D+03 -.332765176712677D+02
 0.556462789292900D+03 0.601109174862443D+02 -.266633345114996D+03 0.484710400898706D+03
0.661337092754D-03 0.000000000000D+00 0.000000000000D+00 0.238980208975D-02 0.000000000000D+00  5 2 -1 25 24 21 0 0.37337902D-01 0.12087641D-01 0.17944019D+05 0.17944019D+05 0.17944019D+05 0.12390464D+01  1  2  2  2  5  2       -1 0.447399847524D+00 0.100000000000D+01
-.366996866332D-04 0.000000000000D+00 -.253970857023D-05 0.238980208975D-02 0.000000000000D+00  5 2 -1 25 24 21 2 0.37337902D-01 0.12087641D-01 0.17944019D+05 0.17944019D+05 0.17944019D+05 0.12390464D+01  1  2  3  2  5  2       -1 -.381162767335D-01 0.100000000000D+01
0.456597415386D-04 0.000000000000D+00 0.000000000000D+00 0.238980208975D-02 0.000000000000D+00  5 2 -1 25 24 21 2 0.37337902D-01 0.12087641D-01 0.17944019D+05 0.17944019D+05 0.17944019D+05 0.12390464D+01  1  2 15  2  5  2       -1 0.474221854116D-01 0.100000000000D+01
  </mgrwgt>
  </event>
  <event>
  4     66 0.48098993E-03 0.73119441E+02 0.75467711E-02 0.11835677E+00
        2 -1    0    0  501    0 0.00000000E+00 0.00000000E+00 0.16701462E+04 0.16701463E+04 0.32000000E+00 0.0000E+00 0.9000E+01
       -1 -1    0    0    0  501 0.00000000E+00 0.00000000E+00 -.80455743E+01 0.80519356E+01 0.32000000E+00 0.0000E+00 0.9000E+01
       25  1    1    2    0    0 -.40277599E+02 -.19457713E+02 0.11754333E+04 0.11829071E+04 0.12500000E+03 0.0000E+00 0.9000E+01
       24  1    1    2    0    0 0.40277599E+02 0.19457713E+02 0.48666737E+03 0.49529106E+03 0.80419002E+02 0.0000E+00 0.9000E+01
#aMCatNLO 1  0  0  1  2 0.88165194D+02 0.00000000D+00  -5  5  0 0.00000000D+00 0.00000000D+00 0.00000000D+00 0.00000000D+00 0.00000000D+00
  <mgrwgt>
 0.3832987629D+00    7    2    0
 0.115942438631420D+03 0.000000000000000D+00 0.000000000000000D+00 0.115942438631420D+03
 0.115942438631420D+03 0.000000000000000D+00 0.000000000000000D+00 -.115942438631420D+03
 0.135688840711900D+03 -.402775993858161D+02 -.194577134999994D+02 0.280280906735887D+02
 0.961960365509401D+02 0.402775993858161D+02 0.194577134999994D+02 -.280280906735887D+02
 0.000000000000000D+00 0.000000000000000D+00 -.000000000000000D+00 0.000000000000000D+00
 0.262931761838072D+03 0.000000000000000D+00 0.000000000000000D+00 0.262931761838072D+03
 0.138031305913912D+03 0.000000000000000D+00 0.000000000000000D+00 -.138031305913912D+03
 0.158282337919743D+03 -.927300277015788D+02 -.662318601559798D+01 0.280280906735887D+02
 0.897976850479545D+02 0.709127685325118D+01 0.275780385702958D+02 -.280280906735887D+02
 0.152883044784286D+03 0.856387508483276D+02 -.209548525546978D+02 0.124900455924160D+03
0.235368634561D-03 0.000000000000D+00 0.000000000000D+00 0.272289436360D-02 0.000000000000D+00  5 2 -1 25 24 21 0 0.25694607D+00 0.12382724D-02 0.12632054D+05 0.12632054D+05 0.12632054D+05 0.12564198D+01  1  2  2  1  5  1        2 0.393074674590D+00 0.100000000000D+01
-.130606605575D-04 0.000000000000D+00 -.903877530701D-06 0.272289436360D-02 0.000000000000D+00  5 2 -1 25 24 21 2 0.25694607D+00 0.12382724D-02 0.12632054D+05 0.12632054D+05 0.12632054D+05 0.12564198D+01  1  2  3  1  5  1        2 -.344319131528D-01 0.100000000000D+01
0.162802844967D-04 0.000000000000D+00 0.000000000000D+00 0.272289436360D-02 0.000000000000D+00  5 2 -1 25 24 21 2 0.25694607D+00 0.12382724D-02 0.12632054D+05 0.12632054D+05 0.12632054D+05 0.12564198D+01  1  2 15  1  5  1        2 0.429198308480D-01 0.100000000000D+01
0.179712900301D-04 0.000000000000D+00 0.000000000000D+00 0.272289436360D-02 0.000000000000D+00  5 2 -1 25 24 21 2 0.57779886D+00 0.12382724D-02 0.27102658D+05 0.27102658D+05 0.27102658D+05 0.12195553D+01  1  2 12  1  5  1        2 0.292809328024D-02 0.100000000000D+01
-.152465294833D-03 0.000000000000D+00 -.651432700687D-04 0.272289436360D-02 0.000000000000D+00  5 2 -1 25 24 21 2 0.60073447D+00 0.12382724D-02 0.12632054D+05 0.12632054D+05 0.12632054D+05 0.12564198D+01  1  2  5  1  5  1        2 -.211334302905D-01 0.100000000000D+01
0.158132718360D-05 0.000000000000D+00 0.000000000000D+00 0.272289436360D-02 0.000000000000D+00  5 21 -1 25 24 -2 2 0.57779886D+00 0.12382724D-02 0.27102658D+05 0.27102658D+05 0.27102658D+05 0.12195553D+01  1  2 12  3  5  1        2 0.148786127627D-04 0.100000000000D+01
-.100034339296D-04 0.000000000000D+00 -.603250127709D-05 0.272289436360D-02 0.000000000000D+00  5 21 -1 25 24 -2 2 0.60073447D+00 0.12382724D-02 0.12632054D+05 0.12632054D+05 0.12632054D+05 0.12564198D+01  1  2  5  3  5  1        2 -.733709532976D-04 0.100000000000D+01
  </mgrwgt>
  </event>
  <event>
  4     66 -.48098993E-03 0.13166261E+03 0.75467711E-02 0.12192882E+00
        2 -1    0    0  501    0 0.00000000E+00 0.00000000E+00 0.28454791E+03 0.28454809E+03 0.32000000E+00 0.0000E+00 0.9000E+01
       -1 -1    0    0    0  501 0.00000000E+00 0.00000000E+00 -.61036436E+02 0.61037275E+02 0.32000000E+00 0.0000E+00 0.9000E+01
       25  1    1    2    0    0 -.74682569E+02 -.31840503E+02 0.13394472E+03 0.20039334E+03 0.12500000E+03 0.0000E+00 0.9000E+01
       24  1    1    2    0    0 0.74682569E+02 0.31840503E+02 0.89566755E+02 0.14519202E+03 0.80419002E+02 0.0000E+00 0.9000E+01
#aMCatNLO 1  0  0  1  2 0.78812783D+01 0.00000000D+00  -5  5  0 0.00000000D+00 0.00000000D+00 0.00000000D+00 0.00000000D+00 0.00000000D+00
  <mgrwgt>
 -.2304491652D+00    6    2    0
 0.131787580233084D+03 0.000000000000000D+00 0.000000000000000D+00 0.131787580233084D+03
 0.131787580233084D+03 0.000000000000000D+00 0.000000000000000D+00 -.131787580233084D+03
 0.149159824319804D+03 -.746825694452767D+02 -.318405034284913D+02 0.568764921443595D+01
 0.114415336146364D+03 0.746825694452767D+02 0.318405034284913D+02 -.568764921443595D+01
 0.000000000000000D+00 0.000000000000000D+00 -.000000000000000D+00 -.000000000000000D+00
 0.134807477953007D+03 0.000000000000000D+00 0.000000000000000D+00 0.134807477953007D+03
 0.137090879809671D+03 0.000000000000000D+00 0.000000000000000D+00 -.137090879809671D+03
 0.150145996865011D+03 -.778652221519000D+02 -.286963098714207D+02 0.568764921443595D+01
 0.113546968080972D+03 0.722585442736807D+02 0.342352366995292D+02 -.568764921443595D+01
 0.820539281669519D+01 0.560667787821936D+01 -.553892682810849D+01 -.228340185666448D+01
0.360676758684D-03 0.000000000000D+00 0.000000000000D+00 0.259256254149D-02 0.000000000000D+00  5 2 -1 25 24 21 0 0.43776680D-01 0.93902993D-02 0.17335044D+05 0.17335044D+05 0.17335044D+05 0.12407224D+01  1  2  2  1  5  1        2 0.302978570590D+00 0.100000000000D+01
-.200375757777D-04 0.000000000000D+00 -.138509372172D-05 0.259256254149D-02 0.000000000000D+00  5 2 -1 25 24 21 2 0.43776680D-01 0.93902993D-02 0.17335044D+05 0.17335044D+05 0.17335044D+05 0.12407224D+01  1  2  3  1  5  1        2 -.259112400564D-01 0.100000000000D+01
0.248848871530D-04 0.000000000000D+00 0.000000000000D+00 0.259256254149D-02 0.000000000000D+00  5 2 -1 25 24 21 2 0.43776680D-01 0.93902993D-02 0.17335044D+05 0.17335044D+05 0.17335044D+05 0.12407224D+01  1  2 15  1  5  1        2 0.321794558360D-01 0.100000000000D+01
-.421269499164D-03 0.000000000000D+00 0.000000000000D+00 0.259256254149D-02 0.000000000000D+00  5 2 -1 25 24 21 2 0.43776680D-01 0.93902993D-02 0.17335044D+05 0.17335044D+05 0.17335044D+05 0.12407224D+01  1  2  4  1  5  1        2 -.544757272156D+00 0.100000000000D+01
0.407204033246D-05 0.000000000000D+00 0.000000000000D+00 0.259256254149D-02 0.341411557667D-03  5 2 -1 25 24 21 2 0.44779817D-01 0.97681769D-02 0.18404170D+05 0.18404170D+05 0.18404170D+05 0.12378218D+01  1  2 11  1  5  1        2 0.482829728746D-02 0.100000000000D+01
0.564188272211D-07 0.000000000000D+00 0.000000000000D+00 0.259256254149D-02 0.143408021346D-05  5 21 -1 25 24 -2 2 0.44779817D-01 0.97681769D-02 0.18404170D+05 0.18404170D+05 0.18404170D+05 0.12378218D+01  1  2 11  3  5  1        2 0.233023269551D-03 0.100000000000D+01
  </mgrwgt>
  </event>
  <event>
  4     66 0.48098993E-03 0.85023445E+02 0.75467711E-02 0.12185740E+00
        2 -1    0    0  501    0 0.00000000E+00 0.00000000E+00 0.45214490E+03 0.45214502E+03 0.32000000E+00 0.0000E+00 0.9000E+01
       -1 -1    0    0    0  501 0.00000000E+00 0.00000000E+00 -.38497952E+02 0.38499282E+02 0.32000000E+00 0.0000E+00 0.9000E+01
       25  1    1    2    0    0 0.57103652E+02 -.53407561E+02 0.19046553E+03 0.24086368E+03 0.12500000E+03 0.0000E+00 0.9000E+01
       24  1    1    2    0    0 -.57103652E+02 0.53407561E+02 0.22318142E+03 0.24978062E+03 0.80419002E+02 0.0000E+00 0.9000E+01
#aMCatNLO 1  0  0  2  1 0.12434004D+02 0.00000000D+00  -5  5  0 0.00000000D+00 0.00000000D+00 0.00000000D+00 0.00000000D+00 0.00000000D+00
  <mgrwgt>
 0.5107185315D+00    6    2    0
 0.131935617103059D+03 0.000000000000000D+00 0.000000000000000D+00 0.131935617103059D+03
 0.131935617103059D+03 0.000000000000000D+00 0.000000000000000D+00 -.131935617103059D+03
 0.149288368859387D+03 0.571036520091676D+02 -.534075606958255D+02 -.234269602047306D+02
 0.114582865346730D+03 -.571036520091676D+02 0.534075606958255D+02 0.234269602047306D+02
 0.000000000000000D+00 -.000000000000000D+00 -.000000000000000D+00 0.000000000000000D+00
 0.138523092554888D+03 0.000000000000000D+00 0.000000000000000D+00 0.138523092554888D+03
 0.138082733383643D+03 0.000000000000000D+00 0.000000000000000D+00 -.138082733383643D+03
 0.148061005624439D+03 0.595979090190215D+02 -.468649993347558D+02 -.234269602047306D+02
 0.116103020517354D+03 -.551685886215627D+02 0.584833291114089D+02 0.234269602047306D+02
 0.124417997967379D+02 -.442932039745878D+01 -.116183297766531D+02 0.440359171245276D+00
0.269023316107D-03 0.000000000000D+00 0.000000000000D+00 0.252224713167D-02 0.000000000000D+00  5 2 -1 25 24 21 0 0.69560866D-01 0.59228729D-02 0.16848197D+05 0.16848197D+05 0.16848197D+05 0.12421105D+01  1  2  2  2  5  2       -1 0.275647716238D+00 0.100000000000D+01
-.149409030655D-04 0.000000000000D+00 -.103312036932D-05 0.252224713167D-02 0.000000000000D+00  5 2 -1 25 24 21 2 0.69560866D-01 0.59228729D-02 0.16848197D+05 0.16848197D+05 0.16848197D+05 0.12421105D+01  1  2  3  2  5  2       -1 -.236190157517D-01 0.100000000000D+01
0.185920635033D-04 0.000000000000D+00 0.000000000000D+00 0.252224713167D-02 0.000000000000D+00  5 2 -1 25 24 21 2 0.69560866D-01 0.59228729D-02 0.16848197D+05 0.16848197D+05 0.16848197D+05 0.12421105D+01  1  2 15  2  5  2       -1 0.293908767641D-01 0.100000000000D+01
0.447268343978D-03 0.000000000000D+00 0.000000000000D+00 0.252224713167D-02 0.000000000000D+00  5 2 -1 25 24 21 2 0.69560866D-01 0.63397453D-02 0.18542928D+05 0.18542928D+05 0.18542928D+05 0.12374592D+01  1  2 12  2  5  2       -1 0.636213965359D+00 0.100000000000D+01
-.335788018556D-03 0.000000000000D+00 0.000000000000D+00 0.252224713167D-02 0.000000000000D+00  5 2 -1 25 24 21 2 0.69560866D-01 0.59228729D-02 0.16848197D+05 0.16848197D+05 0.16848197D+05 0.12421105D+01  1  2  4  2  5  2       -1 -.530823502753D+00 0.100000000000D+01
0.522979707207D-05 0.000000000000D+00 0.000000000000D+00 0.252224713167D-02 0.000000000000D+00  5 2 21 25 24 1 2 0.69560866D-01 0.63397453D-02 0.18542928D+05 0.18542928D+05 0.18542928D+05 0.12374592D+01  1  2 12  4  5  2       -1 0.123908491685D+00 0.100000000000D+01
  </mgrwgt>
  </event>
  <event>
  4     66 0.48098993E-03 0.10394908E+03 0.75467711E-02 0.11261498E+00
        2 -1    0    0  501    0 0.00000000E+00 0.00000000E+00 0.29944197E+03 0.29944214E+03 0.32000000E+00 0.0000E+00 0.9000E+01
       -1 -1    0    0    0  501 0.00000000E+00 0.00000000E+00 -.37208476E+02 0.37209852E+02 0.32000000E+00 0.0000E+00 0.9000E+01
       25  1    1    2    0    0 0.10540720E+02 -.11544877E+02 0.18667233E+03 0.22520202E+03 0.12500000E+03 0.0000E+00 0.9000E+01
       24  1    1    2    0    0 -.10540720E+02 0.11544877E+02 0.75561166E+02 0.11144997E+03 0.80419002E+02 0.0000E+00 0.9000E+01
#aMCatNLO 1  0  0  2  1 0.18383653D+03 0.00000000D+00  -5  5  0 0.00000000D+00 0.00000000D+00 0.00000000D+00 0.00000000D+00 0.00000000D+00
  <mgrwgt>
 0.3014935603D+00    5    2    0
 0.105555860195018D+03 0.000000000000000D+00 0.000000000000000D+00 0.105555860195018D+03
 0.105555860195018D+03 0.000000000000000D+00 0.000000000000000D+00 -.105555860195018D+03
 0.127245286127198D+03 0.105407197539182D+02 -.115448770351483D+02 0.179435749756019D+02
 0.838664342628379D+02 -.105407197539182D+02 0.115448770351483D+02 -.179435749756019D+02
 0.000000000000000D+00 -.000000000000000D+00 -.000000000000000D+00 -.000000000000000D+00
 0.204662709607673D+03 0.000000000000000D+00 0.000000000000000D+00 0.204662709607673D+03
 0.270565146862468D+03 0.000000000000000D+00 0.000000000000000D+00 -.270565146862468D+03
 0.163293114944072D+03 0.549063542839994D+02 0.877665184707296D+02 0.179435749756019D+02
 0.116642645547107D+03 0.200773070611626D+02 0.800825865224403D+02 -.179435749756019D+02
 0.195292095978962D+03 -.749836613451620D+02 -.167849104993170D+03 -.659024372547950D+02
0.151653231799D-03 0.000000000000D+00 0.000000000000D+00 0.306960715508D-02 0.000000000000D+00  5 2 -1 25 24 21 0 0.46068114D-01 0.57244999D-02 0.10805412D+05 0.10805412D+05 0.10805412D+05 0.12643966D+01  1  2  2  2  5  2       -1 0.248421689978D+00 0.100000000000D+01
-.842276930716D-05 0.000000000000D+00 -.582388341320D-06 0.306960715508D-02 0.000000000000D+00  5 2 -1 25 24 21 2 0.46068114D-01 0.57244999D-02 0.10805412D+05 0.10805412D+05 0.10805412D+05 0.12643966D+01  1  2  3  2  5  2       -1 -.220576580305D-01 0.100000000000D+01
0.104233472258D-04 0.000000000000D+00 0.000000000000D+00 0.306960715508D-02 0.000000000000D+00  5 2 -1 25 24 21 2 0.46068114D-01 0.57244999D-02 0.10805412D+05 0.10805412D+05 0.10805412D+05 0.12643966D+01  1  2 15  2  5  2       -1 0.272967975561D-01 0.100000000000D+01
0.693751723236D-04 0.000000000000D+00 -.580184741699D-04 0.306960715508D-02 0.000000000000D+00  5 2 -1 25 24 21 2 0.46068114D-01 0.27968313D-01 0.10805412D+05 0.10805412D+05 0.10805412D+05 0.12643966D+01  1  2  5  2  5  2       -1 0.156337527312D-01 0.100000000000D+01
0.120003759064D-04 0.000000000000D+00 -.112009360996D-04 0.306960715508D-02 0.000000000000D+00  5 2 21 25 24 1 2 0.46068114D-01 0.27968313D-01 0.10805412D+05 0.10805412D+05 0.10805412D+05 0.12643966D+01  1  2  5  4  5  2       -1 0.321989780960D-01 0.100000000000D+01
  </mgrwgt>
  </event>
  <event>
  4     66 0.48098993E-03 0.49736522E+02 0.75467711E-02 0.11731076E+00
        2 -1    0    0  501    0 0.00000000E+00 0.00000000E+00 0.26878535E+02 0.26880439E+02 0.32000000E+00 0.0000E+00 0.9000E+01
       -1 -1    0    0    0  501 0.00000000E+00 0.00000000E+00 -.49901532E+03 0.49901542E+03 0.32000000E+00 0.0000E+00 0.9000E+01
       25  1    1    2    0    0 0.32107060E+02 -.12349915E+02 -.18626924E+03 0.22694628E+03 0.12500000E+03 0.0000E+00 0.9000E+01
       24  1    1    2    0    0 -.32107060E+02 0.12349915E+02 -.28586754E+03 0.29894958E+03 0.80419002E+02 0.0000E+00 0.9000E+01
#aMCatNLO 1  0  0  2  1 0.10685312D+03 0.00000000D+00  -5  5  0 0.00000000D+00 0.00000000D+00 0.00000000D+00 0.00000000D+00 0.00000000D+00
  <mgrwgt>
 0.2315017201D+00    7    2    0
 0.115815923991145D+03 0.000000000000000D+00 0.000000000000000D+00 0.115815923991145D+03
 0.115815923991145D+03 0.000000000000000D+00 0.000000000000000D+00 -.115815923991145D+03
 0.135583896585159D+03 0.321070600565895D+02 -.123499147979700D+02 0.396813471573308D+02
 0.960479513971314D+02 -.321070600565895D+02 0.123499147979700D+02 -.396813471573308D+02
 0.000000000000000D+00 0.000000000000000D+00 -.000000000000000D+00 -.000000000000000D+00
 0.152555357423458D+03 0.000000000000000D+00 0.000000000000000D+00 0.152555357423458D+03
 0.241673568970820D+03 0.000000000000000D+00 0.000000000000000D+00 -.241673568970820D+03
 0.133474707080266D+03 -.216449767572112D+02 0.121401441145444D+02 0.396813471573308D+02
 0.121615280374286D+03 -.755914232689135D+02 0.321619010959398D+02 -.396813471573308D+02
 0.139138938939726D+03 0.972364000261248D+02 -.443020452104842D+02 -.891182115473619D+02
0.619377558922D-03 0.000000000000D+00 0.000000000000D+00 0.258102187695D-02 0.000000000000D+00  5 2 -1 25 24 21 0 0.41353136D-02 0.76771741D-01 0.11784715D+05 0.11784715D+05 0.11784715D+05 0.12599466D+01  1  2  2  2  5  2       -1 0.240512886845D+00 0.100000000000D+01
-.342346062227D-04 0.000000000000D+00 -.237857291212D-05 0.258102187695D-02 0.000000000000D+00  5 2 -1 25 24 21 2 0.41353136D-02 0.76771741D-01 0.11784715D+05 0.11784715D+05 0.11784715D+05 0.12599466D+01  1  2  3  2  5  2       -1 -.211034028896D-01 0.100000000000D+01
0.425669048825D-04 0.000000000000D+00 0.000000000000D+00 0.258102187695D-02 0.000000000000D+00  5 2 -1 25 24 21 2 0.41353136D-02 0.76771741D-01 0.11784715D+05 0.11784715D+05 0.11784715D+05 0.12599466D+01  1  2 15  2  5  2       -1 0.262397218083D-01 0.100000000000D+01
0.906842216400D-07 0.000000000000D+00 0.000000000000D+00 0.258102187695D-02 0.000000000000D+00  5 2 -1 25 24 21 2 0.41353136D-02 0.16108812D+00 0.30494288D+05 0.30494288D+05 0.30494288D+05 0.12141542D+01  1  2 12  2  5  2       -1 0.958069954846D-05 0.100000000000D+01
-.155020140674D-03 0.000000000000D+00 -.166091394115D-03 0.258102187695D-02 0.000000000000D+00  5 2 -1 25 24 21 2 0.41353136D-02 0.19053912D+00 0.11784715D+05 0.11784715D+05 0.11784715D+05 0.12599466D+01  1  2  5  2  5  2       -1 -.109357119177D-01 0.100000000000D+01
0.726845741208D-08 0.000000000000D+00 0.000000000000D+00 0.258102187695D-02 0.000000000000D+00  5 2 21 25 24 1 2 0.41353136D-02 0.16108812D+00 0.30494288D+05 0.30494288D+05 0.30494288D+05 0.12141542D+01  1  2 12  4  5  2       -1 0.645667741076D-05 0.100000000000D+01
-.519120211637D-05 0.000000000000D+00 -.166004198199D-04 0.258102187695D-02 0.000000000000D+00  5 2 21 25 24 1 2 0.41353136D-02 0.19053912D+00 0.11784715D+05 0.11784715D+05 0.11784715D+05 0.12599466D+01  1  2  5  4  5  2       -1 -.322781113392D-02 0.100000000000D+01
  </mgrwgt>
  </event>
  <event>
  4     66 0.48098993E-03 0.10450146E+03 0.75467711E-02 0.10866381E+00
        2 -1    0    0  501    0 0.00000000E+00 0.00000000E+00 0.33087540E+02 0.33089088E+02 0.32000000E+00 0.0000E+00 0.9000E+01
       -1 -1    0    0    0  501 0.00000000E+00 0.00000000E+00 -.55949121E+03 0.55949131E+03 0.32000000E+00 0.0000E+00 0.9000E+01
       25  1    1    2    0    0 0.12703385E+02 0.13894015E+02 -.10848531E+03 0.16657876E+03 0.12500000E+03 0.0000E+00 0.9000E+01
       24  1    1    2    0    0 -.12703385E+02 -.13894015E+02 -.41791837E+03 0.42600164E+03 0.80419002E+02 0.0000E+00 0.9000E+01
#aMCatNLO 1  0  0  1  1 0.26035614D+03 0.00000000D+00  -5  5  0 0.00000000D+00 0.00000000D+00 0.00000000D+00 0.00000000D+00 0.00000000D+00
  <mgrwgt>
 0.2985546277D+00    3    2    0
 0.136061286761356D+03 0.000000000000000D+00 0.000000000000000D+00 0.136061286761356D+03
 0.136061286761356D+03 0.000000000000000D+00 0.000000000000000D+00 -.136061286761356D+03
 0.152887865914785D+03 0.127033850707037D+02 0.138940146494440D+02 0.859958133204388D+02
 0.119234707607927D+03 -.127033850707037D+02 -.138940146494440D+02 -.859958133204388D+02
 0.000000000000000D+00 -.000000000000000D+00 0.000000000000000D+00 -.000000000000000D+00
 0.288552389544837D+03 0.000000000000000D+00 0.000000000000000D+00 0.288552389544837D+03
 0.357351747419009D+03 0.000000000000000D+00 0.000000000000000D+00 -.357351747419009D+03
 0.212643776483052D+03 0.126559495625668D+03 -.786116393119192D+02 0.859958133204388D+02
 0.163967449302430D+03 0.755086664908839D+02 -.855644193137493D+02 -.859958133204388D+02
 0.269292911178364D+03 -.202068162116551D+03 0.164176058625668D+03 -.687993578741716D+02
0.124124699392D-02 0.000000000000D+00 0.000000000000D+00 0.163453400291D-02 0.000000000000D+00  5 2 -1 25 24 21 0 0.50905169D-02 0.86075698D-01 0.10920555D+05 0.10920555D+05 0.10920555D+05 0.12638503D+01  1  2  2  1  5  1        2 0.290290675618D+00 0.100000000000D+01
-.631188720844D-04 0.000000000000D+00 -.476671528449D-05 0.163453400291D-02 0.000000000000D+00  5 2 -1 25 24 21 2 0.50905169D-02 0.86075698D-01 0.10920555D+05 0.10920555D+05 0.10920555D+05 0.12638503D+01  1  2  3  1  5  1        2 -.235790001545D-01 0.100000000000D+01
0.852407318960D-04 0.000000000000D+00 0.000000000000D+00 0.163453400291D-02 0.000000000000D+00  5 2 -1 25 24 21 2 0.50905169D-02 0.86075698D-01 0.10920555D+05 0.10920555D+05 0.10920555D+05 0.12638503D+01  1  2 15  1  5  1        2 0.318429522609D-01 0.100000000000D+01
  </mgrwgt>
  </event>
  <event>
  4     66 0.48098993E-03 0.13320348E+03 0.75467711E-02 0.11074433E+00
        2 -1    0    0  501    0 0.00000000E+00 0.00000000E+00 0.87833030E+03 0.87833036E+03 0.32000000E+00 0.0000E+00 0.9000E+01
       -1 -1    0    0    0  501 0.00000000E+00 0.00000000E+00 -.20476973E+02 0.20479473E+02 0.32000000E+00 0.0000E+00 0.9000E+01
       25  1    1    2    0    0 -.66439483E+02 -.50776629E+02 0.53538399E+03 0.55610564E+03 0.12500000E+03 0.0000E+00 0.9000E+01
       24  1    1    2    0    0 0.66439483E+02 0.50776629E+02 0.32246934E+03 0.34270419E+03 0.80419002E+02 0.0000E+00 0.9000E+01
#aMCatNLO 1  0  0  2  2 0.19116158D+03 0.00000000D+00  -5  5  0 0.00000000D+00 0.00000000D+00 0.00000000D+00 0.00000000D+00 0.00000000D+00
  <mgrwgt>
 0.5056326071D+00    3    2    0
 0.134114487660640D+03 0.000000000000000D+00 0.000000000000000D+00 0.134114487660640D+03
 0.134114487660640D+03 0.000000000000000D+00 0.000000000000000D+00 -.134114487660640D+03
 0.151185320583631D+03 -.664394831607874D+02 -.507766285343302D+02 0.154767642609601D+02
 0.117043654737648D+03 0.664394831607874D+02 0.507766285343302D+02 -.154767642609601D+02
 0.000000000000000D+00 -.000000000000000D+00 -.000000000000000D+00 0.000000000000000D+00
 0.290309142680607D+03 0.000000000000000D+00 0.000000000000000D+00 0.290309142680607D+03
 0.237413307473196D+03 0.000000000000000D+00 0.000000000000000D+00 -.237413307473196D+03
 0.127529167887399D+03 0.146079342479806D+02 -.136296253459060D+02 0.154767642609601D+02
 0.201848327910466D+03 0.159170118614200D+03 0.932784789446785D+02 -.154767642609601D+02
 0.198344954355938D+03 -.173778052862180D+03 -.796488535987725D+02 0.528958352074106D+02
0.412465940739D-03 0.000000000000D+00 0.000000000000D+00 0.253686802712D-02 0.000000000000D+00  5 2 -1 25 24 21 0 0.13512794D+00 0.31505004D-02 0.17743166D+05 0.17743166D+05 0.17743166D+05 0.12395921D+01  1  2  2  2  5  2       -1 0.495303021354D+00 0.100000000000D+01
-.229134801327D-04 0.000000000000D+00 -.158397781722D-05 0.253686802712D-02 0.000000000000D+00  5 2 -1 25 24 21 2 0.13512794D+00 0.31505004D-02 0.17743166D+05 0.17743166D+05 0.17743166D+05 0.12395921D+01  1  2  3  2  5  2       -1 -.422796634267D-01 0.100000000000D+01
0.285116031729D-04 0.000000000000D+00 0.000000000000D+00 0.253686802712D-02 0.000000000000D+00  5 2 -1 25 24 21 2 0.13512794D+00 0.31505004D-02 0.17743166D+05 0.17743166D+05 0.17743166D+05 0.12395921D+01  1  2 15  2  5  2       -1 0.526092491809D-01 0.100000000000D+01
  </mgrwgt>
  </event>
  <event>
  4     66 0.48098993E-03 0.20202000E+03 0.75467711E-02 0.10584163E+00
        2 -1    0    0  501    0 0.00000000E+00 0.00000000E+00 0.80907209E+03 0.80907216E+03 0.32000000E+00 0.0000E+00 0.9000E+01
       -1 -1    0    0    0  501 0.00000000E+00 0.00000000E+00 -.71175819E+02 0.71176538E+02 0.32000000E+00 0.0000E+00 0.9000E+01
       25  1    1    2    0    0 0.12541195E+03 -.11902204E+03 0.62089339E+03 0.65652723E+03 0.12500000E+03 0.0000E+00 0.9000E+01
       24  1    1    2    0    0 -.12541195E+03 0.11902204E+03 0.11700289E+03 0.22372147E+03 0.80419002E+02 0.0000E+00 0.9000E+01
#aMCatNLO 1  0  0  2  2 0.25283634D+03 0.00000000D+00  -5  5  0 0.00000000D+00 0.00000000D+00 0.00000000D+00 0.00000000D+00 0.00000000D+00
  <mgrwgt>
 0.4508257970D+00    3    2    0
 0.239972317818095D+03 0.000000000000000D+00 0.000000000000000D+00 0.239972317818095D+03
 0.239972317818095D+03 0.000000000000000D+00 0.000000000000000D+00 -.239972317818095D+03
 0.249512776618608D+03 0.125411951996753D+03 -.119022037796228D+03 0.129372417891624D+03
 0.230431859017581D+03 -.125411951996753D+03 0.119022037796228D+03 -.129372417891624D+03
 0.000000000000000D+00 0.000000000000000D+00 -.000000000000000D+00 0.000000000000000D+00
 0.450118660266574D+03 0.000000000000000D+00 0.000000000000000D+00 0.450118660266574D+03
 0.360575055894472D+03 0.000000000000000D+00 0.000000000000000D+00 -.360575055894472D+03
 0.193558533067009D+03 0.302507625225677D+02 -.647114717707041D+02 0.129372417891624D+03
 0.348910885457686D+03 -.249841007709306D+03 0.190036413332207D+03 -.129372417891624D+03
 0.268224297636351D+03 0.219590245186739D+03 -.125324941561503D+03 0.895436043721017D+02
0.210590989392D-02 0.000000000000D+00 0.000000000000D+00 0.149331064117D-02 0.000000000000D+00  5 2 -1 25 24 21 0 0.12447269D+00 0.10950186D-01 0.40812080D+05 0.40812080D+05 0.40812080D+05 0.12011149D+01  1  2  2  2  5  2       -1 0.441378291458D+00 0.100000000000D+01
-.112779023625D-03 0.000000000000D+00 -.808724849148D-05 0.149331064117D-02 0.000000000000D+00  5 2 -1 25 24 21 2 0.12447269D+00 0.10950186D-01 0.40812080D+05 0.40812080D+05 0.40812080D+05 0.12011149D+01  1  2  3  2  5  2       -1 -.341011167688D-01 0.100000000000D+01
0.144023761228D-03 0.000000000000D+00 0.000000000000D+00 0.149331064117D-02 0.000000000000D+00  5 2 -1 25 24 21 2 0.12447269D+00 0.10950186D-01 0.40812080D+05 0.40812080D+05 0.40812080D+05 0.12011149D+01  1  2 15  2  5  2       -1 0.435486222638D-01 0.100000000000D+01
  </mgrwgt>
  </event>
  <event>
  4     66 0.48098993E-03 0.12080345E+03 0.75467711E-02 0.10689073E+00
        2 -1    0    0  501    0 0.00000000E+00 0.00000000E+00 0.99494104E+02 0.99494619E+02 0.32000000E+00 0.0000E+00 0.9000E+01
       -1 -1    0    0    0  501 0.00000000E+00 0.00000000E+00 -.17246397E+03 0.17246426E+03 0.32000000E+00 0.0000E+00 0.9000E+01
       25  1    1    2    0    0 -.20236615E+01 -.62469533E+02 0.10675539E+02 0.14016242E+03 0.12500000E+03 0.0000E+00 0.9000E+01
       24  1    1    2    0    0 0.20236615E+01 0.62469533E+02 -.83645402E+02 0.13179646E+03 0.80419002E+02 0.0000E+00 0.9000E+01
#aMCatNLO 1  0  0  2  2 0.29144785D+03 0.00000000D+00  -5  5  0 0.00000000D+00 0.00000000D+00 0.00000000D+00 0.00000000D+00 0.00000000D+00
  <mgrwgt>
 0.2632250407D+00    5    2    0
 0.130993352352547D+03 0.000000000000000D+00 0.000000000000000D+00 0.130993352352547D+03
 0.130993352352547D+03 0.000000000000000D+00 0.000000000000000D+00 -.130993352352547D+03
 0.148470926369018D+03 -.202366149816151D+01 -.624695326907402D+02 0.501206370312256D+02
 0.113515778336075D+03 0.202366149816151D+01 0.624695326907402D+02 -.501206370312256D+02
 0.000000000000000D+00 0.000000000000000D+00 -.000000000000000D+00 -.000000000000000D+00
 0.304746249906710D+03 0.000000000000000D+00 0.000000000000000D+00 0.304746249906710D+03
 0.391123628462039D+03 0.000000000000000D+00 0.000000000000000D+00 -.391123628462039D+03
 0.214276709014644D+03 -.162011886950850D+03 -.391098230161618D+02 0.501206370312256D+02
 0.177614710984471D+03 -.126378141348339D+03 0.812173425854982D+02 -.501206370312256D+02
 0.303978458369634D+03 0.288390028299189D+03 -.421075195693364D+02 -.863773785553292D+02
0.459797034914D-03 0.000000000000D+00 0.000000000000D+00 0.226894727476D-02 0.000000000000D+00  5 2 -1 25 24 21 0 0.15306848D-01 0.26532981D-01 0.14593474D+05 0.14593474D+05 0.14593474D+05 0.12491852D+01  1  2  2  2  5  2       -1 0.237948365034D+00 0.100000000000D+01
-.253405993755D-04 0.000000000000D+00 -.176574168141D-05 0.226894727476D-02 0.000000000000D+00  5 2 -1 25 24 21 2 0.15306848D-01 0.26532981D-01 0.14593474D+05 0.14593474D+05 0.14593474D+05 0.12491852D+01  1  2  3  2  5  2       -1 -.204638372043D-01 0.100000000000D+01
0.316599231110D-04 0.000000000000D+00 0.000000000000D+00 0.226894727476D-02 0.000000000000D+00  5 2 -1 25 24 21 2 0.15306848D-01 0.26532981D-01 0.14593474D+05 0.14593474D+05 0.14593474D+05 0.12491852D+01  1  2 15  2  5  2       -1 0.255670161089D-01 0.100000000000D+01
0.353206859282D-03 0.000000000000D+00 -.199849274333D-03 0.226894727476D-02 0.000000000000D+00  5 2 -1 25 24 21 2 0.15306848D-01 0.15997754D+00 0.14593474D+05 0.14593474D+05 0.14593474D+05 0.12491852D+01  1  2  5  2  5  2       -1 0.780575688561D-02 0.100000000000D+01
0.648093205515D-04 0.000000000000D+00 -.440061135977D-04 0.226894727476D-02 0.000000000000D+00  5 2 21 25 24 1 2 0.15306848D-01 0.15997754D+00 0.14593474D+05 0.14593474D+05 0.14593474D+05 0.12491852D+01  1  2  5  4  5  2       -1 0.123677398929D-01 0.100000000000D+01
  </mgrwgt>
  </event>
  <event>
  4     66 0.48098993E-03 0.11531834E+03 0.75467711E-02 0.10835125E+00
        2 -1    0    0  501    0 0.00000000E+00 0.00000000E+00 0.10421497E+02 0.10426409E+02 0.32000000E+00 0.0000E+00 0.9000E+01
       -1 -1    0    0    0  501 0.00000000E+00 0.00000000E+00 -.14190457E+04 0.14190457E+04 0.32000000E+00 0.0000E+00 0.9000E+01
       25  1    1    2    0    0 0.47043474E+02 0.20815246E+02 -.58923731E+03 0.60454278E+03 0.12500000E+03 0.0000E+00 0.9000E+01
       24  1    1    2    0    0 -.47043474E+02 -.20815246E+02 -.81938687E+03 0.82492934E+03 0.80419002E+02 0.0000E+00 0.9000E+01
#aMCatNLO 1  0  0  1  2 0.25957467D+03 0.00000000D+00  -5  5  0 0.00000000D+00 0.00000000D+00 0.00000000D+00 0.00000000D+00 0.00000000D+00
  <mgrwgt>
 0.4011198413D+00    5    2    0
 0.121622844391920D+03 0.000000000000000D+00 0.000000000000000D+00 0.121622844391920D+03
 0.121622844391920D+03 0.000000000000000D+00 0.000000000000000D+00 -.121622844391920D+03
 0.140446989007629D+03 0.470434738530266D+02 0.208152458240672D+02 0.381312710309045D+02
 0.102798699776211D+03 -.470434738530266D+02 -.208152458240672D+02 -.381312710309045D+02
 0.000000000000000D+00 0.000000000000000D+00 0.000000000000000D+00 0.000000000000000D+00
 0.430727332656922D+03 0.000000000000000D+00 0.000000000000000D+00 0.430727332656922D+03
 0.244484531957086D+03 0.000000000000000D+00 0.000000000000000D+00 -.244484531957086D+03
 0.161644211699113D+03 -.163803411365043D+02 -.937098808538734D+02 0.381312710309045D+02
 0.194090907595298D+03 -.109375218326856D+03 -.133368407961991D+03 -.381312710309045D+02
 0.319476745319597D+03 0.125755559463361D+03 0.227078288815865D+03 0.186242800699836D+03
0.274770721449D-02 0.000000000000D+00 0.000000000000D+00 0.251822708787D-02 0.000000000000D+00  5 2 -1 25 24 21 0 0.16036878D-02 0.21831510D+00 0.13298319D+05 0.13298319D+05 0.13298319D+05 0.12538286D+01  1  2  2  1  5  1        2 0.287994040711D+00 0.100000000000D+01
-.152124545955D-03 0.000000000000D+00 -.105519191916D-04 0.251822708787D-02 0.000000000000D+00  5 2 -1 25 24 21 2 0.16036878D-02 0.21831510D+00 0.13298319D+05 0.13298319D+05 0.13298319D+05 0.12538286D+01  1  2  3  1  5  1        2 -.250662108838D-01 0.100000000000D+01
0.189763295912D-03 0.000000000000D+00 0.000000000000D+00 0.251822708787D-02 0.000000000000D+00  5 2 -1 25 24 21 2 0.16036878D-02 0.21831510D+00 0.13298319D+05 0.13298319D+05 0.13298319D+05 0.12538286D+01  1  2 15  1  5  1        2 0.312681084007D-01 0.100000000000D+01
0.367339008664D-02 0.000000000000D+00 -.200780262252D-02 0.251822708787D-02 0.000000000000D+00  5 2 -1 25 24 21 2 0.13180722D-01 0.21831510D+00 0.13298319D+05 0.13298319D+05 0.13298319D+05 0.12538286D+01  1  2  5  1  5  1        2 0.395203295506D-01 0.100000000000D+01
0.687203266706D-03 0.000000000000D+00 -.512388423880D-03 0.251822708787D-02 0.000000000000D+00  5 21 -1 25 24 -2 2 0.13180722D-01 0.21831510D+00 0.13298319D+05 0.13298319D+05 0.13298319D+05 0.12538286D+01  1  2  5  3  5  1        2 0.674035735435D-01 0.100000000000D+01
  </mgrwgt>
  </event>
  <event>
  4     66 0.48098993E-03 0.12033401E+03 0.75467711E-02 0.11055595E+00
        2 -1    0    0  501    0 0.00000000E+00 0.00000000E+00 0.20294871E+02 0.20297394E+02 0.32000000E+00 0.0000E+00 0.9000E+01
       -1 -1    0    0    0  501 0.00000000E+00 0.00000000E+00 -.10313468E+04 0.10313469E+04 0.32000000E+00 0.0000E+00 0.9000E+01
       25  1    1    2    0    0 0.14946623E+02 0.59772426E+02 -.85021328E+03 0.86155892E+03 0.12500000E+03 0.0000E+00 0.9000E+01
       24  1    1    2    0    0 -.14946623E+02 -.59772426E+02 -.16083865E+03 0.19008532E+03 0.80419002E+02 0.0000E+00 0.9000E+01
#aMCatNLO 1  0  0  1  2 0.20890335D+03 0.00000000D+00  -5  5  0 0.00000000D+00 0.00000000D+00 0.00000000D+00 0.00000000D+00 0.00000000D+00
  <mgrwgt>
 0.1423409668D+00    5    2    0
 0.144680346843161D+03 0.000000000000000D+00 0.000000000000000D+00 0.144680346843161D+03
 0.144680346843161D+03 0.000000000000000D+00 0.000000000000000D+00 -.144680346843161D+03
 0.160504514128917D+03 0.149466227928126D+02 0.597724256694037D+02 -.796275998159226D+02
 0.128856179557405D+03 -.149466227928126D+02 -.597724256694037D+02 0.796275998159226D+02
 0.000000000000000D+00 0.000000000000000D+00 -.000000000000000D+00 0.000000000000000D+00
 0.900459287216137D+03 0.000000000000000D+00 0.000000000000000D+00 0.900459287216137D+03
 0.193555536707158D+03 0.000000000000000D+00 0.000000000000000D+00 -.193555536707158D+03
 0.220180237872276D+03 -.735646695516640D+02 0.145265349931778D+03 -.796275998159226D+02
 0.136709411360502D+03 -.766920789236503D+02 -.132582382572544D+00 0.796275998159226D+02
 0.737125174690517D+03 0.150256748475314D+03 -.145132767549206D+03 0.706903750508978D+03
0.239605012610D-02 0.000000000000D+00 0.000000000000D+00 0.178037999880D-02 0.000000000000D+00  5 2 -1 25 24 21 0 0.31224857D-02 0.15866894D+00 0.14480273D+05 0.14480273D+05 0.14480273D+05 0.12495722D+01  1  2  2  1  5  1        2 0.257747650181D+00 0.100000000000D+01
-.127619169669D-03 0.000000000000D+00 -.920146337873D-05 0.178037999880D-02 0.000000000000D+00  5 2 -1 25 24 21 2 0.31224857D-02 0.15866894D+00 0.14480273D+05 0.14480273D+05 0.14480273D+05 0.12495722D+01  1  2  3  1  5  1        2 -.214356883122D-01 0.100000000000D+01
0.163881372538D-03 0.000000000000D+00 0.000000000000D+00 0.178037999880D-02 0.000000000000D+00  5 2 -1 25 24 21 2 0.31224857D-02 0.15866894D+00 0.14480273D+05 0.14480273D+05 0.14480273D+05 0.12495722D+01  1  2 15  1  5  1        2 0.275265074284D-01 0.100000000000D+01
-.343970495002D-02 0.000000000000D+00 -.176061098451D-02 0.178037999880D-02 0.000000000000D+00  5 2 -1 25 24 21 2 0.25882969D-01 0.15866894D+00 0.14480273D+05 0.14480273D+05 0.14480273D+05 0.12495722D+01  1  2  5  1  5  1        2 -.429903550549D-01 0.100000000000D+01
-.110300634213D-02 0.000000000000D+00 -.450837059776D-03 0.178037999880D-02 0.000000000000D+00  5 21 -1 25 24 -2 2 0.25882969D-01 0.15866894D+00 0.14480273D+05 0.14480273D+05 0.14480273D+05 0.12495722D+01  1  2  5  3  5  1        2 -.785071474010D-01 0.100000000000D+01
  </mgrwgt>
  </event>
  <event>
  4     66 0.48098993E-03 0.90695066E+02 0.75467711E-02 0.11478003E+00
        2 -1    0    0  501    0 0.00000000E+00 0.00000000E+00 0.80348965E+03 0.80348971E+03 0.32000000E+00 0.0000E+00 0.9000E+01
       -1 -1    0    0    0  501 0.00000000E+00 0.00000000E+00 -.30856559E+02 0.30858219E+02 0.32000000E+00 0.0000E+00 0.9000E+01
       25  1    1    2    0    0 0.24885703E+02 -.99403453E+02 0.57779968E+03 0.59998151E+03 0.12500000E+03 0.0000E+00 0.9000E+01
       24  1    1    2    0    0 -.24885703E+02 0.99403453E+02 0.19483341E+03 0.23436642E+03 0.80419002E+02 0.0000E+00 0.9000E+01
#aMCatNLO 1  0  0  1  2 0.97056068D+02 0.00000000D+00  -5  5  0 0.00000000D+00 0.00000000D+00 0.00000000D+00 0.00000000D+00 0.00000000D+00
  <mgrwgt>
 0.2655269139D+00    7    2    0
 0.157459978145597D+03 0.000000000000000D+00 0.000000000000000D+00 0.157459978145597D+03
 0.157459978145597D+03 0.000000000000000D+00 0.000000000000000D+00 -.157459978145597D+03
 0.171999837977728D+03 0.248857033206362D+02 -.994034531015172D+02 0.588098592592806D+02
 0.142920118313466D+03 -.248857033206362D+02 0.994034531015172D+02 -.588098592592806D+02
 0.000000000000000D+00 0.000000000000000D+00 -.000000000000000D+00 0.000000000000000D+00
 0.390612198338939D+03 0.000000000000000D+00 0.000000000000000D+00 0.390612198338939D+03
 0.175195794264983D+03 0.000000000000000D+00 0.000000000000000D+00 -.175195794264983D+03
 0.148419317299587D+03 0.116318690367744D+02 -.530037151932796D+02 0.588098592592806D+02
 0.181117416977176D+03 -.382892084599472D+02 0.146327166813029D+03 -.588098592592806D+02
 0.236271258327160D+03 0.266573394231729D+02 -.933234516197493D+02 0.215416404073956D+03
0.493250363490D-03 0.000000000000D+00 0.000000000000D+00 0.205159860983D-02 0.000000000000D+00  5 2 -1 25 24 21 0 0.12361392D+00 0.47472955D-02 0.21300374D+05 0.21300374D+05 0.21300374D+05 0.12308256D+01  1  2  2  1  5  1        2 0.365162833865D+00 0.100000000000D+01
-.272107017848D-04 0.000000000000D+00 -.189421127161D-05 0.205159860983D-02 0.000000000000D+00  5 2 -1 25 24 21 2 0.12361392D+00 0.47472955D-02 0.21300374D+05 0.21300374D+05 0.21300374D+05 0.12308256D+01  1  2  3  1  5  1        2 -.305177085174D-01 0.100000000000D+01
0.339613156905D-04 0.000000000000D+00 0.000000000000D+00 0.205159860983D-02 0.000000000000D+00  5 2 -1 25 24 21 2 0.12361392D+00 0.47472955D-02 0.21300374D+05 0.21300374D+05 0.21300374D+05 0.12308256D+01  1  2 15  1  5  1        2 0.380887468947D-01 0.100000000000D+01
0.219855793210D-03 0.000000000000D+00 0.000000000000D+00 0.205159860983D-02 0.000000000000D+00  5 2 -1 25 24 21 2 0.30287265D+00 0.47472955D-02 0.40931424D+05 0.40931424D+05 0.40931424D+05 0.12009864D+01  1  2 12  1  5  1        2 0.532706108090D-01 0.100000000000D+01
-.684078397461D-03 0.000000000000D+00 -.161324088029D-03 0.205159860983D-02 0.000000000000D+00  5 2 -1 25 24 21 2 0.31647113D+00 0.47472955D-02 0.21300374D+05 0.21300374D+05 0.21300374D+05 0.12308256D+01  1  2  5  1  5  1        2 -.157689519562D+00 0.100000000000D+01
0.216203839773D-04 0.000000000000D+00 0.000000000000D+00 0.205159860983D-02 0.000000000000D+00  5 21 -1 25 24 -2 2 0.30287265D+00 0.47472955D-02 0.40931424D+05 0.40931424D+05 0.40931424D+05 0.12009864D+01  1  2 12  3  5  1        2 0.170812433481D-02 0.100000000000D+01
-.612363996037D-04 0.000000000000D+00 -.167588329088D-04 0.205159860983D-02 0.000000000000D+00  5 21 -1 25 24 -2 2 0.31647113D+00 0.47472955D-02 0.21300374D+05 0.21300374D+05 0.21300374D+05 0.12308256D+01  1  2  5  3  5  1        2 -.449617396864D-02 0.100000000000D+01
  </mgrwgt>
  </event>
  <event>
  4     66 0.48098993E-03 0.10601545E+03 0.75467711E-02 0.12615799E+00
        2 -1    0    0  501    0 0.00000000E+00 0.00000000E+00 0.25171637E+04 0.25171637E+04 0.32000000E+00 0.0000E+00 0.9000E+01
       -1 -1    0    0    0  501 0.00000000E+00 0.00000000E+00 -.46055482E+01 0.46166518E+01 0.32000000E+00 0.0000E+00 0.9000E+01
       25  1    1    2    0    0 -.92573003E+01 0.23954770E+02 0.12842196E+04 0.12905443E+04 0.12500000E+03 0.0000E+00 0.9000E+01
       24  1    1    2    0    0 0.92573003E+01 -.23954770E+02 0.12283386E+04 0.12312361E+04 0.80419002E+02 0.0000E+00 0.9000E+01
#aMCatNLO 1  0  0  1  2 0.67689584D+01 0.00000000D+00  -5  5  0 0.00000000D+00 0.00000000D+00 0.00000000D+00 0.00000000D+00 0.00000000D+00
  <mgrwgt>
 0.3093764357D+00    6    2    0
 0.107735532014858D+03 0.000000000000000D+00 0.000000000000000D+00 0.107735532014858D+03
 0.107735532014858D+03 0.000000000000000D+00 0.000000000000000D+00 -.107735532014858D+03
 0.128986144218561D+03 -.925730026109858D+01 0.239547699604837D+02 -.187855473273354D+02
 0.864849198111550D+02 0.925730026109858D+01 -.239547699604837D+02 0.187855473273354D+02
 0.000000000000000D+00 -.000000000000000D+00 0.000000000000000D+00 -.000000000000000D+00
 0.108785705586074D+03 0.000000000000000D+00 0.000000000000000D+00 0.108785705586074D+03
 0.119277553236220D+03 0.000000000000000D+00 0.000000000000000D+00 -.119277553236220D+03
 0.128689298855542D+03 -.522892837981453D+01 0.235732297223380D+02 -.187855473273354D+02
 0.868880613457512D+02 0.119677286742013D+02 -.242114834746993D+02 0.187855473273354D+02
 0.124858986210008D+02 -.673880029438674D+01 0.638253752361279D+00 -.104918476501463D+02
0.361827613565D-03 0.000000000000D+00 0.000000000000D+00 0.299857125653D-02 0.000000000000D+00  5 2 -1 25 24 21 0 0.38725681D+00 0.70940156D-03 0.11239275D+05 0.11239275D+05 0.11239275D+05 0.12623713D+01  1  2  2  1  5  1        2 0.488316319416D+00 0.100000000000D+01
-.200952030863D-04 0.000000000000D+00 -.138951330749D-05 0.299857125653D-02 0.000000000000D+00  5 2 -1 25 24 21 2 0.38725681D+00 0.70940156D-03 0.11239275D+05 0.11239275D+05 0.11239275D+05 0.12623713D+01  1  2  3  1  5  1        2 -.432181490504D-01 0.100000000000D+01
0.250620225500D-04 0.000000000000D+00 0.000000000000D+00 0.299857125653D-02 0.000000000000D+00  5 2 -1 25 24 21 2 0.38725681D+00 0.70940156D-03 0.11239275D+05 0.11239275D+05 0.11239275D+05 0.12623713D+01  1  2 15  1  5  1        2 0.539001383274D-01 0.100000000000D+01
-.934259205043D-04 0.000000000000D+00 0.000000000000D+00 0.299857125653D-02 0.000000000000D+00  5 2 -1 25 24 21 2 0.38725681D+00 0.70940156D-03 0.11239275D+05 0.11239275D+05 0.11239275D+05 0.12623713D+01  1  2  4  1  5  1        2 -.200928318076D+00 0.100000000000D+01
0.618980547804D-05 0.000000000000D+00 0.000000000000D+00 0.299857125653D-02 0.556196137293D-03  5 2 -1 25 24 21 2 0.39103168D+00 0.78540182D-03 0.11980699D+05 0.11980699D+05 0.11980699D+05 0.12591060D+01  1  2 11  1  5  1        2 0.111423723796D-01 0.100000000000D+01
0.411491738331D-06 0.000000000000D+00 0.000000000000D+00 0.299857125653D-02 0.105431928317D-05  5 21 -1 25 24 -2 2 0.39103168D+00 0.78540182D-03 0.11980699D+05 0.11980699D+05 0.11980699D+05 0.12591060D+01  1  2 11  3  5  1        2 0.164072733364D-03 0.100000000000D+01
  </mgrwgt>
  </event>
  <event>
  4     66 0.48098993E-03 0.14041193E+03 0.75467711E-02 0.11050447E+00
        2 -1    0    0  501    0 0.00000000E+00 0.00000000E+00 0.99345161E+02 0.99345677E+02 0.32000000E+00 0.0000E+00 0.9000E+01
       -1 -1    0    0    0  501 0.00000000E+00 0.00000000E+00 -.20001300E+03 0.20001326E+03 0.32000000E+00 0.0000E+00 0.9000E+01
       25  1    1    2    0    0 -.84243227E+02 0.42875885E+02 -.43005315E+02 0.16251068E+03 0.12500000E+03 0.0000E+00 0.9000E+01
       24  1    1    2    0    0 0.84243227E+02 -.42875885E+02 -.57662526E+02 0.13684826E+03 0.80419002E+02 0.0000E+00 0.9000E+01
#aMCatNLO 1  0  0  2  2 0.18872289D+03 0.00000000D+00  -5  5  0 0.00000000D+00 0.00000000D+00 0.00000000D+00 0.00000000D+00 0.00000000D+00
  <mgrwgt>
 0.2739455488D+00    5    2    0
 0.140962546205084D+03 0.000000000000000D+00 0.000000000000000D+00 0.140962546205084D+03
 0.140962546205084D+03 0.000000000000000D+00 0.000000000000000D+00 -.140962546205084D+03
 0.157204066190659D+03 -.842432274977766D+02 0.428758854153700D+02 0.123634743289632D+02
 0.124721026219509D+03 0.842432274977766D+02 -.428758854153700D+02 -.123634743289632D+02
 0.000000000000000D+00 0.000000000000000D+00 0.000000000000000D+00 -.000000000000000D+00
 0.210576238910050D+03 0.000000000000000D+00 0.000000000000000D+00 0.210576238910050D+03
 0.387091333646717D+03 0.000000000000000D+00 0.000000000000000D+00 -.387091333646717D+03
 0.202449031985075D+03 -.153129929994354D+03 -.419401906783399D+02 0.123634743289632D+02
 0.136812059771721D+03 0.341500905859225D+02 -.104552568405089D+03 -.123634743289632D+02
 0.258406480799972D+03 0.118979839408431D+03 0.146492759083429D+03 -.176515094736667D+03
0.654236189751D-03 0.000000000000D+00 0.000000000000D+00 0.247371855880D-02 0.000000000000D+00  5 2 -1 25 24 21 0 0.15283930D-01 0.30771290D-01 0.19715511D+05 0.19715511D+05 0.19715511D+05 0.12345116D+01  1  2  2  2  5  2       -1 0.267287754114D+00 0.100000000000D+01
-.363457780810D-04 0.000000000000D+00 -.251243923299D-05 0.247371855880D-02 0.000000000000D+00  5 2 -1 25 24 21 2 0.15283930D-01 0.30771290D-01 0.19715511D+05 0.19715511D+05 0.19715511D+05 0.12345116D+01  1  2  3  2  5  2       -1 -.226302228463D-01 0.100000000000D+01
0.451355568310D-04 0.000000000000D+00 0.000000000000D+00 0.247371855880D-02 0.000000000000D+00  5 2 -1 25 24 21 2 0.15283930D-01 0.30771290D-01 0.19715511D+05 0.19715511D+05 0.19715511D+05 0.12345116D+01  1  2 15  2  5  2       -1 0.281030635003D-01 0.100000000000D+01
-.564115171565D-05 0.000000000000D+00 -.209441901138D-03 0.247371855880D-02 0.000000000000D+00  5 2 -1 25 24 21 2 0.15283930D-01 0.11609802D+00 0.19715511D+05 0.19715511D+05 0.19715511D+05 0.12345116D+01  1  2  5  2  5  2       -1 -.269557069579D-03 0.100000000000D+01
0.350998531413D-05 0.000000000000D+00 -.329222630234D-04 0.247371855880D-02 0.000000000000D+00  5 2 21 25 24 1 2 0.15283930D-01 0.11609802D+00 0.19715511D+05 0.19715511D+05 0.19715511D+05 0.12345116D+01  1  2  5  4  5  2       -1 0.145451113897D-02 0.100000000000D+01
  </mgrwgt>
  </event>
  <event>
  4     66 0.48098993E-03 0.58585720E+02 0.75467711E-02 0.12164572E+00
        2 -1    0    0  501    0 0.00000000E+00 0.00000000E+00 0.82197434E+03 0.82197441E+03 0.32000000E+00 0.0000E+00 0.9000E+01
       -1 -1    0    0    0  501 0.00000000E+00 0.00000000E+00 -.18401376E+02 0.18404158E+02 0.32000000E+00 0.0000E+00 0.9000E+01
       25  1    1    2    0    0 0.58721628E+02 -.22146062E+02 0.53809857E+03 0.55597999E+03 0.12500000E+03 0.0000E+00 0.9000E+01
       24  1    1    2    0    0 -.58721628E+02 0.22146062E+02 0.26547440E+03 0.28439857E+03 0.80419002E+02 0.0000E+00 0.9000E+01
#aMCatNLO 1  0  0  1  2 0.31554433D+02 0.00000000D+00  -5  5  0 0.00000000D+00 0.00000000D+00 0.00000000D+00 0.00000000D+00 0.00000000D+00
  <mgrwgt>
 0.5400287939D+00    9    2    0
 0.122990464503718D+03 0.000000000000000D+00 0.000000000000000D+00 0.122990464503718D+03
 0.122990464503718D+03 0.000000000000000D+00 0.000000000000000D+00 -.122990464503718D+03
 0.141605289812701D+03 0.587216284479569D+02 -.221460616209225D+02 0.220993305337810D+02
 0.104375639194735D+03 -.587216284479569D+02 0.221460616209225D+02 -.220993305337810D+02
 0.000000000000000D+00 -.000000000000000D+00 -.000000000000000D+00 0.000000000000000D+00
 0.144845299442201D+03 0.000000000000000D+00 0.000000000000000D+00 0.144845299442201D+03
 0.135938632483549D+03 0.000000000000000D+00 0.000000000000000D+00 -.135938632483549D+03
 0.149284293617425D+03 0.766471216970215D+02 -.172522070000988D+02 0.220993305337810D+02
 0.987122783223827D+02 -.462067386004345D+02 0.255627626655419D+02 -.220993305337810D+02
 0.327873599859422D+02 -.304403830965870D+02 -.831055566544305D+01 0.890666695865283D+01
0.197685774396D-03 0.000000000000D+00 0.000000000000D+00 0.265236902518D-02 0.000000000000D+00  5 2 -1 25 24 21 0 0.12645781D+00 0.28311998D-02 0.14626423D+05 0.14626423D+05 0.14626423D+05 0.12490731D+01  1  2  2  1  5  1        2 0.299675476570D+00 0.100000000000D+01
-.109787677853D-04 0.000000000000D+00 -.759165425542D-06 0.265236902518D-02 0.000000000000D+00  5 2 -1 25 24 21 2 0.12645781D+00 0.28311998D-02 0.14626423D+05 0.14626423D+05 0.14626423D+05 0.12490731D+01  1  2  3  1  5  1        2 -.259660041793D-01 0.100000000000D+01
0.137026681330D-04 0.000000000000D+00 0.000000000000D+00 0.265236902518D-02 0.000000000000D+00  5 2 -1 25 24 21 2 0.12645781D+00 0.28311998D-02 0.14626423D+05 0.14626423D+05 0.14626423D+05 0.12490731D+01  1  2 15  1  5  1        2 0.324083307860D-01 0.100000000000D+01
0.191575511458D-03 0.000000000000D+00 0.000000000000D+00 0.265236902518D-02 0.000000000000D+00  5 2 -1 25 24 21 2 0.15462469D+00 0.28311998D-02 0.18961379D+05 0.18961379D+05 0.18961379D+05 0.12363839D+01  1  2 12  1  5  1        2 0.343935504063D+00 0.100000000000D+01
-.184315339310D-03 0.000000000000D+00 0.000000000000D+00 0.265236902518D-02 0.000000000000D+00  5 2 -1 25 24 21 2 0.12645781D+00 0.28311998D-02 0.14626423D+05 0.14626423D+05 0.14626423D+05 0.12490731D+01  1  2  4  1  5  1        2 -.435926231836D+00 0.100000000000D+01
-.457468650302D-03 0.000000000000D+00 -.131614145602D-03 0.265236902518D-02 0.000000000000D+00  5 2 -1 25 24 21 2 0.15962078D+00 0.28311998D-02 0.14626423D+05 0.14626423D+05 0.14626423D+05 0.12490731D+01  1  2  5  1  5  1        2 -.795996599778D+00 0.100000000000D+01
0.478573537815D-03 0.000000000000D+00 0.128123775212D-03 0.265236902518D-02 0.000000000000D+00  5 2 -1 25 24 21 2 0.12645781D+00 0.28311998D-02 0.14626423D+05 0.14626423D+05 0.14626423D+05 0.12490731D+01  1  2  6  1  5  1        2 0.113187952656D+01 0.100000000000D+01
0.550521554874D-05 0.000000000000D+00 0.000000000000D+00 0.265236902518D-02 0.000000000000D+00  5 21 -1 25 24 -2 2 0.15462469D+00 0.28311998D-02 0.18961379D+05 0.18961379D+05 0.18961379D+05 0.12363839D+01  1  2 12  3  5  1        2 0.847120371650D-02 0.100000000000D+01
-.127272727783D-04 0.000000000000D+00 -.422606863174D-05 0.265236902518D-02 0.000000000000D+00  5 21 -1 25 24 -2 2 0.15962078D+00 0.28311998D-02 0.14626423D+05 0.14626423D+05 0.14626423D+05 0.12490731D+01  1  2  5  3  5  1        2 -.184524119773D-01 0.100000000000D+01
  </mgrwgt>
  </event>
  <event>
  4     66 0.48098993E-03 0.47394126E+02 0.75467711E-02 0.12578692E+00
        2 -1    0    0  501    0 0.00000000E+00 0.00000000E+00 0.57621860E+03 0.57621869E+03 0.32000000E+00 0.0000E+00 0.9000E+01
       -1 -1    0    0    0  501 0.00000000E+00 0.00000000E+00 -.27981147E+02 0.27982977E+02 0.32000000E+00 0.0000E+00 0.9000E+01
       25  1    1    2    0    0 0.16928010E+02 -.28306193E+02 0.15675930E+03 0.20319025E+03 0.12500000E+03 0.0000E+00 0.9000E+01
       24  1    1    2    0    0 -.16928010E+02 0.28306193E+02 0.39147815E+03 0.40101142E+03 0.80419002E+02 0.0000E+00 0.9000E+01
#aMCatNLO 1  0  0  1  2 0.65390927D+01 0.00000000D+00  -5  5  0 0.00000000D+00 0.00000000D+00 0.00000000D+00 0.00000000D+00 0.00000000D+00
  <mgrwgt>
 0.4276695689D+00    8    2    0
 0.126979671645920D+03 0.000000000000000D+00 0.000000000000000D+00 0.126979671645920D+03
 0.126979671645920D+03 0.000000000000000D+00 0.000000000000000D+00 -.126979671645920D+03
 0.145009691583217D+03 0.169280103691872D+02 -.283061933128852D+02 -.656887550356524D+02
 0.108949651708623D+03 -.169280103691872D+02 0.283061933128852D+02 0.656887550356524D+02
 0.000000000000000D+00 0.000000000000000D+00 -.000000000000000D+00 -.000000000000000D+00
 0.130121249680200D+03 0.000000000000000D+00 0.000000000000000D+00 0.130121249680200D+03
 0.130470688610285D+03 0.000000000000000D+00 0.000000000000000D+00 -.130470688610285D+03
 0.144223727664115D+03 0.156533564970822D+02 -.248081340203990D+02 -.656887550356524D+02
 0.109819787857184D+03 -.178921289484526D+02 0.309520441034909D+02 0.656887550356524D+02
 0.654842276918600D+01 0.223877245137037D+01 -.614391008309198D+01 -.349438930085733D+00
0.203777811554D-03 0.000000000000D+00 0.000000000000D+00 0.203763239685D-02 0.000000000000D+00  5 2 -1 25 24 21 0 0.88649163D-01 0.43049395D-02 0.11685347D+05 0.11685347D+05 0.11685347D+05 0.12603788D+01  1  2  2  1  5  1        2 0.252750043411D+00 0.100000000000D+01
-.109642773736D-04 0.000000000000D+00 -.782560452297D-06 0.203763239685D-02 0.000000000000D+00  5 2 -1 25 24 21 2 0.88649163D-01 0.43049395D-02 0.11685347D+05 0.11685347D+05 0.11685347D+05 0.12603788D+01  1  2  3  1  5  1        2 -.216031225804D-01 0.100000000000D+01
0.139425045629D-04 0.000000000000D+00 0.000000000000D+00 0.203763239685D-02 0.000000000000D+00  5 2 -1 25 24 21 2 0.88649163D-01 0.43049395D-02 0.11685347D+05 0.11685347D+05 0.11685347D+05 0.12603788D+01  1  2 15  1  5  1        2 0.274711798037D-01 0.100000000000D+01
0.358603476414D-03 0.000000000000D+00 0.000000000000D+00 0.203763239685D-02 0.000000000000D+00  5 2 -1 25 24 21 2 0.92029693D-01 0.43049395D-02 0.12425857D+05 0.12425857D+05 0.12425857D+05 0.12572530D+01  1  2 12  1  5  1        2 0.675717947985D+00 0.100000000000D+01
-.317466937516D-03 0.000000000000D+00 0.000000000000D+00 0.203763239685D-02 0.000000000000D+00  5 2 -1 25 24 21 2 0.88649163D-01 0.43049395D-02 0.11685347D+05 0.11685347D+05 0.11685347D+05 0.12603788D+01  1  2  4  1  5  1        2 -.625511096871D+00 0.100000000000D+01
0.559101867118D-04 0.000000000000D+00 0.000000000000D+00 0.203763239685D-02 0.402052016164D-03  5 2 -1 25 24 21 2 0.90842413D-01 0.44232940D-02 0.12425857D+05 0.12425857D+05 0.12425857D+05 0.12572530D+01  1  2 11  1  5  1        2 0.102739979751D+00 0.100000000000D+01
0.471386084426D-05 0.000000000000D+00 0.000000000000D+00 0.203763239685D-02 0.000000000000D+00  5 21 -1 25 24 -2 2 0.92029693D-01 0.43049395D-02 0.12425857D+05 0.12425857D+05 0.12425857D+05 0.12572530D+01  1  2 12  3  5  1        2 0.144626139487D-01 0.100000000000D+01
0.540613223056D-06 0.000000000000D+00 0.000000000000D+00 0.203763239685D-02 0.179226650316D-05  5 21 -1 25 24 -2 2 0.90842413D-01 0.44232940D-02 0.12425857D+05 0.12425857D+05 0.12425857D+05 0.12572530D+01  1  2 11  3  5  1        2 0.164202341740D-02 0.100000000000D+01
  </mgrwgt>
  </event>
  <event>
  4     66 0.48098993E-03 0.18392892E+03 0.75467711E-02 0.11469471E+00
        2 -1    0    0  501    0 0.00000000E+00 0.00000000E+00 0.30326565E+04 0.30326565E+04 0.32000000E+00 0.0000E+00 0.9000E+01
       -1 -1    0    0    0  501 0.00000000E+00 0.00000000E+00 -.11395233E+02 0.11399725E+02 0.32000000E+00 0.0000E+00 0.9000E+01
       25  1    1    2    0    0 0.48940367E+02 -.14333010E+03 0.18321157E+04 0.18426100E+04 0.12500000E+03 0.0000E+00 0.9000E+01
       24  1    1    2    0    0 -.48940367E+02 0.14333010E+03 0.11891456E+04 0.12014463E+04 0.80419002E+02 0.0000E+00 0.9000E+01
#aMCatNLO 1  0  0  2  2 0.37017267D+02 0.00000000D+00  -5  5  0 0.00000000D+00 0.00000000D+00 0.00000000D+00 0.00000000D+00 0.00000000D+00
  <mgrwgt>
 0.4494421233D+00    4    2    0
 0.185915818027530D+03 0.000000000000000D+00 0.000000000000000D+00 0.185915818027530D+03
 0.185915818027530D+03 0.000000000000000D+00 0.000000000000000D+00 -.185915818027530D+03
 0.198230240951287D+03 0.489403669652562D+02 -.143330100424923D+03 0.270472035725148D+02
 0.173601395103772D+03 -.489403669652562D+02 0.143330100424923D+03 -.270472035725148D+02
 0.000000000000000D+00 0.000000000000000D+00 0.000000000000000D+00 0.000000000000000D+00
 0.293216375453084D+03 0.000000000000000D+00 0.000000000000000D+00 0.293216375453084D+03
 0.190055046662385D+03 0.000000000000000D+00 0.000000000000000D+00 -.190055046662385D+03
 0.209561257937773D+03 0.394988361972520D+02 -.161242710056707D+03 0.270472035725148D+02
 0.164108440620083D+03 -.567593082951534D+02 0.128495891098305D+03 -.270472035725148D+02
 0.109601723557613D+03 0.172604720979014D+02 0.327468189584018D+02 0.103161328790699D+03
0.237804637888D-02 0.000000000000D+00 0.000000000000D+00 0.216644129269D-02 0.000000000000D+00  5 2 -1 25 24 21 0 0.46656289D+00 0.17534597D-02 0.33829846D+05 0.33829846D+05 0.33829846D+05 0.12094599D+01  1  2  2  2  5  2       -1 0.454223914979D+00 0.100000000000D+01
-.132095143364D-03 0.000000000000D+00 -.913232424888D-05 0.216644129269D-02 0.000000000000D+00  5 2 -1 25 24 21 2 0.46656289D+00 0.17534597D-02 0.33829846D+05 0.33829846D+05 0.33829846D+05 0.12094599D+01  1  2  3  2  5  2       -1 -.369079113379D-01 0.100000000000D+01
0.163631746787D-03 0.000000000000D+00 0.000000000000D+00 0.216644129269D-02 0.000000000000D+00  5 2 -1 25 24 21 2 0.46656289D+00 0.17534597D-02 0.33829846D+05 0.33829846D+05 0.33829846D+05 0.12094599D+01  1  2 15  2  5  2       -1 0.457193644573D-01 0.100000000000D+01
-.486508597096D-04 0.000000000000D+00 0.000000000000D+00 0.216644129269D-02 0.000000000000D+00  5 2 -1 25 24 21 2 0.46656289D+00 0.17534597D-02 0.33829846D+05 0.33829846D+05 0.33829846D+05 0.12094599D+01  1  2  4  2  5  2       -1 -.135932447700D-01 0.100000000000D+01
  </mgrwgt>
  </event>
  <event>
  4     66 0.48098993E-03 0.41067570E+02 0.75467711E-02 0.12470442E+00
        2 -1    0    0  501    0 0.00000000E+00 0.00000000E+00 0.91019955E+03 0.91019961E+03 0.32000000E+00 0.0000E+00 0.9000E+01
       -1 -1    0    0    0  501 0.00000000E+00 0.00000000E+00 -.12184590E+02 0.12188792E+02 0.32000000E+00 0.0000E+00 0.9000E+01
       25  1    1    2    0    0 -.16130691E+02 -.14534535E+02 0.57181410E+03 0.58571991E+03 0.12500000E+03 0.0000E+00 0.9000E+01
       24  1    1    2    0    0 0.16130691E+02 0.14534535E+02 0.32620087E+03 0.33666849E+03 0.80419002E+02 0.0000E+00 0.9000E+01
#aMCatNLO 1  0  0  1  2 0.23770977D+02 0.00000000D+00  -5  5  0 0.00000000D+00 0.00000000D+00 0.00000000D+00 0.00000000D+00 0.00000000D+00
  <mgrwgt>
 0.4766599218D+00    9    2    0
 0.105320331853519D+03 0.000000000000000D+00 0.000000000000000D+00 0.105320331853519D+03
 0.105320331853519D+03 0.000000000000000D+00 0.000000000000000D+00 -.105320331853519D+03
 0.127058261948456D+03 -.161306910084624D+02 -.145345346397756D+02 0.688113651638992D+01
 0.835824017585823D+02 0.161306910084624D+02 0.145345346397756D+02 -.688113651638992D+01
 0.000000000000000D+00 0.000000000000000D+00 0.000000000000000D+00 0.000000000000000D+00
 0.134020130308879D+03 0.000000000000000D+00 0.000000000000000D+00 0.134020130308879D+03
 0.111028397526174D+03 0.000000000000000D+00 0.000000000000000D+00 -.111028397526174D+03
 0.129980431016946D+03 -.302867323167492D+02 -.174721565116438D+02 0.688113651638992D+01
 0.819972767100871D+02 0.701162515431564D+01 0.126421717453224D+02 -.688113651638992D+01
 0.330708201080194D+02 0.232751071624336D+02 0.482998476632144D+01 0.229917327827051D+02
0.126986547005D-03 0.000000000000D+00 0.000000000000D+00 0.314124784932D-02 0.000000000000D+00  5 2 -1 25 24 21 0 0.14003103D+00 0.18748799D-02 0.11042906D+05 0.11042906D+05 0.11042906D+05 0.12632769D+01  1  2  2  1  5  1        2 0.302627874772D+00 0.100000000000D+01
-.705476532933D-05 0.000000000000D+00 -.487661776826D-06 0.314124784932D-02 0.000000000000D+00  5 2 -1 25 24 21 2 0.14003103D+00 0.18748799D-02 0.11042906D+05 0.11042906D+05 0.11042906D+05 0.12632769D+01  1  2  3  1  5  1        2 -.268306304445D-01 0.100000000000D+01
0.879315983994D-05 0.000000000000D+00 0.000000000000D+00 0.314124784932D-02 0.000000000000D+00  5 2 -1 25 24 21 2 0.14003103D+00 0.18748799D-02 0.11042906D+05 0.11042906D+05 0.11042906D+05 0.12632769D+01  1  2 15  1  5  1        2 0.334420793735D-01 0.100000000000D+01
0.216001088841D-03 0.000000000000D+00 0.000000000000D+00 0.314124784932D-02 0.000000000000D+00  5 2 -1 25 24 21 2 0.18123074D+00 0.18748799D-02 0.13838837D+05 0.13838837D+05 0.13838837D+05 0.12518315D+01  1  2 12  1  5  1        2 0.568249021708D+00 0.100000000000D+01
-.221769944205D-03 0.000000000000D+00 0.000000000000D+00 0.314124784932D-02 0.000000000000D+00  5 2 -1 25 24 21 2 0.14003103D+00 0.18748799D-02 0.11042906D+05 0.11042906D+05 0.11042906D+05 0.12632769D+01  1  2  4  1  5  1        2 -.843433783958D+00 0.100000000000D+01
-.348302420950D-03 0.000000000000D+00 -.741459955833D-04 0.314124784932D-02 0.000000000000D+00  5 2 -1 25 24 21 2 0.18310612D+00 0.18748799D-02 0.11042906D+05 0.11042906D+05 0.11042906D+05 0.12632769D+01  1  2  5  1  5  1        2 -.911796882862D+00 0.100000000000D+01
0.357830497970D-03 0.000000000000D+00 0.715569072027D-04 0.314124784932D-02 0.000000000000D+00  5 2 -1 25 24 21 2 0.14003103D+00 0.18748799D-02 0.11042906D+05 0.11042906D+05 0.11042906D+05 0.12632769D+01  1  2  6  1  5  1        2 0.136089825878D+01 0.100000000000D+01
0.747964607536D-05 0.000000000000D+00 0.000000000000D+00 0.314124784932D-02 0.000000000000D+00  5 21 -1 25 24 -2 2 0.18123074D+00 0.18748799D-02 0.13838837D+05 0.13838837D+05 0.13838837D+05 0.12518315D+01  1  2 12  3  5  1        2 0.140240835665D-01 0.100000000000D+01
-.110189604269D-04 0.000000000000D+00 -.264218242912D-05 0.314124784932D-02 0.000000000000D+00  5 21 -1 25 24 -2 2 0.18310612D+00 0.18748799D-02 0.11042906D+05 0.11042906D+05 0.11042906D+05 0.12632769D+01  1  2  5  3  5  1        2 -.205200991070D-01 0.100000000000D+01
  </mgrwgt>
  </event>
  <event>
  4     66 0.48098993E-03 0.74805393E+02 0.75467711E-02 0.11102867E+00
        2 -1    0    0  501    0 0.00000000E+00 0.00000000E+00 0.28411762E+03 0.28411780E+03 0.32000000E+00 0.0000E+00 0.9000E+01
       -1 -1    0    0    0  501 0.00000000E+00 0.00000000E+00 -.13336263E+03 0.13336302E+03 0.32000000E+00 0.0000E+00 0.9000E+01
       25  1    1    2    0    0 -.15565260E+03 -.51450460E+02 0.68780792E+02 0.21732621E+03 0.12500000E+03 0.0000E+00 0.9000E+01
       24  1    1    2    0    0 0.15565260E+03 0.51450460E+02 0.81974195E+02 0.20015461E+03 0.80419002E+02 0.0000E+00 0.9000E+01
#aMCatNLO 1  0  0  2  1 0.10660821D+03 0.00000000D+00  -5  5  0 0.00000000D+00 0.00000000D+00 0.00000000D+00 0.00000000D+00 0.00000000D+00
  <mgrwgt>
 0.7275614574D+00    8    2    0
 0.194655570671446D+03 0.000000000000000D+00 0.000000000000000D+00 0.194655570671446D+03
 0.194655570671446D+03 0.000000000000000D+00 0.000000000000000D+00 -.194655570671446D+03
 0.206417093876305D+03 -.155652603172729D+03 -.514504597874025D+02 -.103987478841013D+02
 0.182894047466586D+03 0.155652603172729D+03 0.514504597874025D+02 0.103987478841013D+02
 0.000000000000000D+00 0.000000000000000D+00 0.000000000000000D+00 -.000000000000000D+00
 0.222235120910868D+03 0.000000000000000D+00 0.000000000000000D+00 0.222235120910868D+03
 0.341013226203536D+03 0.000000000000000D+00 0.000000000000000D+00 -.341013226203536D+03
 0.258422428807037D+03 -.211469667026862D+03 -.795587687217396D+02 -.103987478841013D+02
 0.145221567072759D+03 0.116253091481989D+03 0.316096876292774D+02 0.103987478841013D+02
 0.159604351234609D+03 0.952165755448733D+02 0.479490810924621D+02 -.118778105292668D+03
0.142026529615D-02 0.000000000000D+00 0.000000000000D+00 0.217434408222D-02 0.000000000000D+00  5 2 -1 25 24 21 0 0.43710446D-01 0.20517371D-01 0.37782260D+05 0.37782260D+05 0.37782260D+05 0.12045240D+01  1  2  2  2  5  2       -1 0.358050964816D+00 0.100000000000D+01
-.789034302276D-04 0.000000000000D+00 -.545419270165D-05 0.217434408222D-02 0.000000000000D+00  5 2 -1 25 24 21 2 0.43710446D-01 0.20517371D-01 0.37782260D+05 0.37782260D+05 0.37782260D+05 0.12045240D+01  1  2  3  2  5  2       -1 -.288603889691D-01 0.100000000000D+01
0.980169140051D-04 0.000000000000D+00 0.000000000000D+00 0.217434408222D-02 0.000000000000D+00  5 2 -1 25 24 21 2 0.43710446D-01 0.20517371D-01 0.37782260D+05 0.37782260D+05 0.37782260D+05 0.12045240D+01  1  2 15  2  5  2       -1 0.358514991753D-01 0.100000000000D+01
0.566315537057D-03 0.000000000000D+00 0.000000000000D+00 0.217434408222D-02 0.000000000000D+00  5 2 -1 25 24 21 2 0.43710446D-01 0.36459703D-01 0.64940907D+05 0.64940907D+05 0.64940907D+05 0.11811975D+01  1  2 12  2  5  2       -1 0.760696034670D-01 0.100000000000D+01
-.108899594369D-02 0.000000000000D+00 -.421448119175D-03 0.217434408222D-02 0.000000000000D+00  5 2 -1 25 24 21 2 0.43710446D-01 0.40283447D-01 0.37782260D+05 0.37782260D+05 0.37782260D+05 0.12045240D+01  1  2  5  2  5  2       -1 -.127443834485D+00 0.100000000000D+01
0.117595956096D-02 0.000000000000D+00 0.340879868685D-03 0.217434408222D-02 0.000000000000D+00  5 2 -1 25 24 21 2 0.43710446D-01 0.20517371D-01 0.37782260D+05 0.37782260D+05 0.37782260D+05 0.12045240D+01  1  2  6  2  5  2       -1 0.430128959453D+00 0.100000000000D+01
0.358182252803D-04 0.000000000000D+00 0.000000000000D+00 0.217434408222D-02 0.000000000000D+00  5 2 21 25 24 1 2 0.43710446D-01 0.36459703D-01 0.64940907D+05 0.64940907D+05 0.64940907D+05 0.11811975D+01  1  2 12  4  5  2       -1 0.514731301604D-01 0.100000000000D+01
-.546911910278D-04 0.000000000000D+00 -.307979924302D-04 0.217434408222D-02 0.000000000000D+00  5 2 21 25 24 1 2 0.43710446D-01 0.40283447D-01 0.37782260D+05 0.37782260D+05 0.37782260D+05 0.12045240D+01  1  2  5  4  5  2       -1 -.677084762132D-01 0.100000000000D+01
  </mgrwgt>
  </event>
  <event>
  4     66 0.48098993E-03 0.11331502E+03 0.75467711E-02 0.12522348E+00
        2 -1    0    0  501    0 0.00000000E+00 0.00000000E+00 0.41648301E+03 0.41648314E+03 0.32000000E+00 0.0000E+00 0.9000E+01
       -1 -1    0    0    0  501 0.00000000E+00 0.00000000E+00 -.45688166E+02 0.45689286E+02 0.32000000E+00 0.0000E+00 0.9000E+01
       25  1    1    2    0    0 -.29186355E+02 0.36749892E+02 0.77342507E+02 0.15430250E+03 0.12500000E+03 0.0000E+00 0.9000E+01
       24  1    1    2    0    0 0.29186355E+02 -.36749892E+02 0.29345234E+03 0.30786992E+03 0.80419002E+02 0.0000E+00 0.9000E+01
#aMCatNLO 1  0  0  1  1 0.26717574D+01 0.00000000D+00  -5  5  0 0.00000000D+00 0.00000000D+00 0.00000000D+00 0.00000000D+00 0.00000000D+00
  <mgrwgt>
 0.2952217346D+00    6    2    0
 0.137944308978189D+03 0.000000000000000D+00 0.000000000000000D+00 0.137944308978189D+03
 0.137944308978189D+03 0.000000000000000D+00 0.000000000000000D+00 -.137944308978189D+03
 0.154541195275030D+03 -.291863545981643D+02 0.367498915046501D+02 -.778176279303202D+02
 0.121347422681348D+03 0.291863545981643D+02 -.367498915046501D+02 0.778176279303202D+02
 0.000000000000000D+00 0.000000000000000D+00 -.000000000000000D+00 -.000000000000000D+00
 0.138503722239428D+03 0.000000000000000D+00 0.000000000000000D+00 0.138503722239428D+03
 0.141178172439008D+03 0.000000000000000D+00 0.000000000000000D+00 -.141178172439008D+03
 0.154987811298068D+03 -.297873788537452D+02 0.381228343029110D+02 -.778176279303202D+02
 0.120913743256205D+03 0.287159468695776D+02 -.356753210572640D+02 0.778176279303202D+02
 0.378034012416210D+01 0.107143198416757D+01 -.244751324564701D+01 -.267445019958030D+01
0.346556509417D-03 0.000000000000D+00 0.000000000000D+00 0.180198995019D-02 0.000000000000D+00  5 2 -1 25 24 21 0 0.64074406D-01 0.70290442D-02 0.12840294D+05 0.12840294D+05 0.12840294D+05 0.12555937D+01  1  2  2  1  5  1        2 0.297633643594D+00 0.100000000000D+01
-.183476236084D-04 0.000000000000D+00 -.133086824659D-05 0.180198995019D-02 0.000000000000D+00  5 2 -1 25 24 21 2 0.64074406D-01 0.70290442D-02 0.12840294D+05 0.12840294D+05 0.12840294D+05 0.12555937D+01  1  2  3  1  5  1        2 -.248419712164D-01 0.100000000000D+01
0.236928398736D-04 0.000000000000D+00 0.000000000000D+00 0.180198995019D-02 0.000000000000D+00  5 2 -1 25 24 21 2 0.64074406D-01 0.70290442D-02 0.12840294D+05 0.12840294D+05 0.12840294D+05 0.12555937D+01  1  2 15  1  5  1        2 0.320791868603D-01 0.100000000000D+01
-.530544382038D-03 0.000000000000D+00 0.000000000000D+00 0.180198995019D-02 0.000000000000D+00  5 2 -1 25 24 21 2 0.64074406D-01 0.70290442D-02 0.12840294D+05 0.12840294D+05 0.12840294D+05 0.12555937D+01  1  2  4  1  5  1        2 -.718336529511D+00 0.100000000000D+01
0.530264417607D-03 0.000000000000D+00 0.000000000000D+00 0.180198995019D-02 0.211943992924D-02  5 2 -1 25 24 21 2 0.64334250D-01 0.71938279D-02 0.13139185D+05 0.13139185D+05 0.13139185D+05 0.12544340D+01  1  2 11  1  5  1        2 0.689818915987D+00 0.100000000000D+01
0.597967858445D-05 0.000000000000D+00 0.000000000000D+00 0.180198995019D-02 0.162561857298D-05  5 21 -1 25 24 -2 2 0.64334250D-01 0.71938279D-02 0.13139185D+05 0.13139185D+05 0.13139185D+05 0.12544340D+01  1  2 11  3  5  1        2 0.188684888496D-01 0.100000000000D+01
  </mgrwgt>
  </event>
  <event>
  5     66 0.48098993E-03 0.10864766E+03 0.75467711E-02 0.12151925E+00
        2 -1    0    0  501    0 0.00000000E+00 0.00000000E+00 0.18809537E+03 0.18809564E+03 0.32000000E+00 0.0000E+00 0.9000E+01
       -1 -1    0    0    0  502 0.00000000E+00 0.00000000E+00 -.12105103E+03 0.12105146E+03 0.32000000E+00 0.0000E+00 0.9000E+01
       25  1    1    2    0    0 -.60926526E+02 0.14260987E+02 0.87435857E+02 0.16488010E+03 0.12500000E+03 0.0000E+00 0.9000E+01
       24  1    1    2    0    0 0.79389295E+01 -.22387994E+02 0.68450569E+01 0.84132750E+02 0.80419002E+02 0.0000E+00 0.9000E+01
       21  1    1    2  501  502 0.52987597E+02 0.81270068E+01 -.27236583E+02 0.60134247E+02 0.75000000E+00 0.0000E+00 0.9000E+01
#aMCatNLO 2  0  0  2  1 0.53607217D+02 0.00000000D+00  -5  5  0 0.00000000D+00 0.00000000D+00 0.00000000D+00 0.00000000D+00 0.00000000D+00
  <mgrwgt>
 0.4916759901D-01    2    2    0
 0.112076730122775D+03 0.000000000000000D+00 0.000000000000000D+00 0.112076730122775D+03
 0.112076730122775D+03 0.000000000000000D+00 0.000000000000000D+00 -.112076730122775D+03
 0.132504217692223D+03 -.288889681283658D+02 0.191747681566962D+02 0.270207974131634D+02
 0.916492425533269D+02 0.288889681283658D+02 -.191747681566962D+02 -.270207974131634D+02
 0.000000000000000D+00 0.000000000000000D+00 0.000000000000000D+00 -.000000000000000D+00
 0.126278650965367D+03 0.000000000000000D+00 0.000000000000000D+00 0.126278650965367D+03
 0.180304575309566D+03 0.000000000000000D+00 0.000000000000000D+00 -.180304575309566D+03
 0.142374649649907D+03 -.609265264048479D+02 0.142609870040603D+02 0.270207974131634D+02
 0.880998769395297D+02 0.793892949287078D+01 -.223879938371831D+02 -.270207974131634D+02
 0.761086996854955D+02 0.529875969119771D+02 0.812700683312284D+01 -.540259243441994D+02
-.122220479968D-03 0.000000000000D+00 0.000000000000D+00 0.281183632363D-02 0.000000000000D+00  5 2 -1 25 24 21 2 0.25682960D-01 0.18987331D-01 0.19216626D+05 0.19216626D+05 0.19216626D+05 0.12357410D+01  1  2 13  2  5  2       -1 -.933624415533D-01 0.100000000000D+01
0.206116135077D-03 0.000000000000D+00 0.000000000000D+00 0.281183632363D-02 0.889916450961D-05  5 2 -1 25 24 21 2 0.28937403D-01 0.18623033D-01 0.19216626D+05 0.19216626D+05 0.19216626D+05 0.12357410D+01  1  2  1  2  5  2       -1 0.142530040561D+00 0.100000000000D+01
  </mgrwgt>
  </event>
  <event>
  5     66 -.48098993E-03 0.24158495E+03 0.75467711E-02 0.10876161E+00
        2 -1    0    0  501    0 0.00000000E+00 0.00000000E+00 0.38511636E+04 0.38511636E+04 0.32000000E+00 0.0000E+00 0.9000E+01
       -1 -1    0    0    0  502 0.00000000E+00 0.00000000E+00 -.22935009E+02 0.22937241E+02 0.32000000E+00 0.0000E+00 0.9000E+01
       25  1    1    2    0    0 0.12412730E+03 -.12060035E+03 0.12745302E+04 0.12922864E+04 0.12500000E+03 0.0000E+00 0.9000E+01
       24  1    1    2    0    0 -.16938886E+03 0.20716343E+03 0.20222255E+04 0.20414389E+04 0.80419002E+02 0.0000E+00 0.9000E+01
       21  1    1    2  501  502 0.45261556E+02 -.86563086E+02 0.53147288E+03 0.54037557E+03 0.75000000E+00 0.0000E+00 0.9000E+01
#aMCatNLO 2  0  0  2  1 0.97682016D+02 0.00000000D+00  -5  5  0 0.00000000D+00 0.00000000D+00 0.00000000D+00 0.00000000D+00 0.00000000D+00
  <mgrwgt>
 -.4238799535D-01    2    2    0
 0.242685107481308D+03 0.000000000000000D+00 0.000000000000000D+00 0.242685107481308D+03
 0.242685107481308D+03 0.000000000000000D+00 0.000000000000000D+00 -.242685107481308D+03
 0.252118920850279D+03 0.145678457339499D+03 -.161817104983759D+03 -.230642982240507D+02
 0.233251294112336D+03 -.145678457339499D+03 0.161817104983759D+03 0.230642982240507D+02
 0.000000000000000D+00 0.000000000000000D+00 -.000000000000000D+00 -.000000000000000D+00
 0.287567428700373D+03 0.000000000000000D+00 0.000000000000000D+00 0.287567428700373D+03
 0.307162657538060D+03 0.000000000000000D+00 0.000000000000000D+00 -.307162657538060D+03
 0.214730045618127D+03 0.124127301236057D+03 -.120600347124078D+03 -.230642982240507D+02
 0.280371986113231D+03 -.169388856816740D+03 0.207163433009924D+03 0.230642982240507D+02
 0.996280545070755D+02 0.452615555806826D+02 -.865630858858455D+02 -.195952288376869D+02
-.133671065760D-02 0.000000000000D+00 0.000000000000D+00 0.205450804319D-02 0.000000000000D+00  5 2 -1 25 24 21 2 0.50001162D+00 0.37291242D-02 0.87199579D+05 0.87199579D+05 0.87199579D+05 0.11690760D+01  1  2 13  2  5  2       -1 -.828067440615D-01 0.100000000000D+01
0.152915059592D-02 0.000000000000D+00 0.000000000000D+00 0.205450804319D-02 0.158686701207D-05  5 2 -1 25 24 21 2 0.59248405D+00 0.35286187D-02 0.87199579D+05 0.87199579D+05 0.87199579D+05 0.11690760D+01  1  2  1  2  5  2       -1 0.404187487081D-01 0.100000000000D+01
  </mgrwgt>
  </event>
  <event>
  4     66 0.48098993E-03 0.65794518E+02 0.75467711E-02 0.11611625E+00
        2 -1    0    0  501    0 0.00000000E+00 0.00000000E+00 0.21100333E+04 0.21100333E+04 0.32000000E+00 0.0000E+00 0.9000E+01
       -1 -1    0    0    0  501 0.00000000E+00 0.00000000E+00 -.15193732E+02 0.15197101E+02 0.32000000E+00 0.0000E+00 0.9000E+01
       25  1    1    2    0    0 0.11827652E+03 0.72263273E+02 0.85888634E+03 0.87893234E+03 0.12500000E+03 0.0000E+00 0.9000E+01
       24  1    1    2    0    0 -.11827652E+03 -.72263273E+02 0.12359532E+04 0.12462980E+04 0.80419002E+02 0.0000E+00 0.9000E+01
#aMCatNLO 1  0  0  2  1 0.26260517D+02 0.00000000D+00  -5  5  0 0.00000000D+00 0.00000000D+00 0.00000000D+00 0.00000000D+00 0.00000000D+00
  <mgrwgt>
 0.2078313893D+00    7    2    0
 0.179061123540055D+03 0.000000000000000D+00 0.000000000000000D+00 0.179061123540055D+03
 0.179061123540055D+03 0.000000000000000D+00 0.000000000000000D+00 -.179061123540055D+03
 0.191846958712676D+03 0.118276520590285D+03 0.722632725791906D+02 -.443727357789052D+02
 0.166275288367435D+03 -.118276520590285D+03 -.722632725791906D+02 0.443727357789052D+02
 0.000000000000000D+00 -.000000000000000D+00 -.000000000000000D+00 -.000000000000000D+00
 0.180019368845505D+03 0.000000000000000D+00 0.000000000000000D+00 0.180019368845505D+03
 0.540611417008756D+03 0.000000000000000D+00 0.000000000000000D+00 -.540611417008756D+03
 0.198347485421034D+03 0.119436162899098D+03 0.865031114138859D+02 -.443727357789052D+02
 0.160736291136309D+03 -.117304655232474D+03 -.603292426122833D+02 0.443727357789052D+02
 0.361547009296917D+03 -.213150766662377D+01 -.261738688016026D+02 -.360592048163252D+03
0.598383894295D-03 0.000000000000D+00 0.000000000000D+00 0.210893683163D-02 0.000000000000D+00  5 2 -1 25 24 21 0 0.32462076D+00 0.23377583D-02 0.30083188D+05 0.30083188D+05 0.30083188D+05 0.12147722D+01  1  2  2  2  5  2       -1 0.241238776527D+00 0.100000000000D+01
-.332025053506D-04 0.000000000000D+00 -.229795171219D-05 0.210893683163D-02 0.000000000000D+00  5 2 -1 25 24 21 2 0.32462076D+00 0.23377583D-02 0.30083188D+05 0.30083188D+05 0.30083188D+05 0.12147722D+01  1  2  3  2  5  2       -1 -.197527590730D-01 0.100000000000D+01
0.413738909175D-04 0.000000000000D+00 0.000000000000D+00 0.210893683163D-02 0.000000000000D+00  5 2 -1 25 24 21 2 0.32462076D+00 0.23377583D-02 0.30083188D+05 0.30083188D+05 0.30083188D+05 0.12147722D+01  1  2 15  2  5  2       -1 0.246140612155D-01 0.100000000000D+01
0.226021531084D-01 0.000000000000D+00 0.000000000000D+00 0.210893683163D-02 0.000000000000D+00  5 2 -1 25 24 21 2 0.32462076D+00 0.70485285D-02 0.34982300D+05 0.34982300D+05 0.34982300D+05 0.12079569D+01  1  2 12  2  5  2       -1 0.258977644819D+01 0.100000000000D+01
-.224819361998D-01 0.000000000000D+00 -.179946572611D-03 0.210893683163D-02 0.000000000000D+00  5 2 -1 25 24 21 2 0.32462076D+00 0.70776863D-02 0.30083188D+05 0.30083188D+05 0.30083188D+05 0.12147722D+01  1  2  5  2  5  2       -1 -.259664941269D+01 0.100000000000D+01
0.284086396437D-02 0.000000000000D+00 0.000000000000D+00 0.210893683163D-02 0.000000000000D+00  5 2 21 25 24 1 2 0.32462076D+00 0.70485285D-02 0.34982300D+05 0.34982300D+05 0.34982300D+05 0.12079569D+01  1  2 12  4  5  2       -1 0.524451096054D+01 0.100000000000D+01
-.282970385194D-02 0.000000000000D+00 -.227198406095D-04 0.210893683163D-02 0.000000000000D+00  5 2 21 25 24 1 2 0.32462076D+00 0.70776863D-02 0.30083188D+05 0.30083188D+05 0.30083188D+05 0.12147722D+01  1  2  5  4  5  2       -1 -.527590668542D+01 0.100000000000D+01
  </mgrwgt>
  </event>
  <event>
  4     66 0.48098993E-03 0.11025847E+03 0.75467711E-02 0.10564162E+00
        2 -1    0    0  501    0 0.00000000E+00 0.00000000E+00 0.19886055E+03 0.19886080E+03 0.32000000E+00 0.0000E+00 0.9000E+01
       -1 -1    0    0    0  501 0.00000000E+00 0.00000000E+00 -.62246085E+02 0.62246908E+02 0.32000000E+00 0.0000E+00 0.9000E+01
       25  1    1    2    0    0 0.39017413E+00 -.39266112E+02 0.98098199E+02 0.16367723E+03 0.12500000E+03 0.0000E+00 0.9000E+01
       24  1    1    2    0    0 -.39017413E+00 0.39266112E+02 0.38516261E+02 0.97430478E+02 0.80419002E+02 0.0000E+00 0.9000E+01
#aMCatNLO 1  0  0  2  2 0.33225093D+03 0.00000000D+00  -5  5  0 0.00000000D+00 0.00000000D+00 0.00000000D+00 0.00000000D+00 0.00000000D+00
  <mgrwgt>
 0.4464608238D+00    3    2    0
 0.111258399600610D+03 0.000000000000000D+00 0.000000000000000D+00 0.111258399600610D+03
 0.111258399600610D+03 0.000000000000000D+00 0.000000000000000D+00 -.111258399600610D+03
 0.131836135929965D+03 0.390174131922128D+00 -.392661120120991D+02 0.146214550761659D+02
 0.906806632712554D+02 -.390174131922128D+00 0.392661120120991D+02 -.146214550761659D+02
 0.000000000000000D+00 0.000000000000000D+00 -.000000000000000D+00 0.000000000000000D+00
 0.205227025875703D+04 0.000000000000000D+00 0.000000000000000D+00 0.205227025875703D+04
 0.214839140139915D+03 0.000000000000000D+00 0.000000000000000D+00 -.214839140139915D+03
 0.213365204857520D+03 -.169089892749946D+03 0.330837099666710D+02 0.146214550761659D+02
 0.186515285628132D+03 -.136482310540432D+03 0.973628665332623D+02 -.146214550761659D+02
 0.186722890841129D+04 0.305572203290378D+03 -.130446576499933D+03 0.183743111861711D+04
0.371067356687D-03 0.000000000000D+00 0.000000000000D+00 0.293471089455D-02 0.000000000000D+00  5 2 -1 25 24 21 0 0.30594013D-01 0.95764039D-02 0.12156929D+05 0.12156929D+05 0.12156929D+05 0.12583633D+01  1  2  2  2  5  2       -1 0.437069082492D+00 0.100000000000D+01
-.206128102052D-04 0.000000000000D+00 -.142499635396D-05 0.293471089455D-02 0.000000000000D+00  5 2 -1 25 24 21 2 0.30594013D-01 0.95764039D-02 0.12156929D+05 0.12156929D+05 0.12156929D+05 0.12583633D+01  1  2  3  2  5  2       -1 -.384456006221D-01 0.100000000000D+01
0.256482415363D-04 0.000000000000D+00 0.000000000000D+00 0.293471089455D-02 0.000000000000D+00  5 2 -1 25 24 21 2 0.30594013D-01 0.95764039D-02 0.12156929D+05 0.12156929D+05 0.12156929D+05 0.12583633D+01  1  2 15  2  5  2       -1 0.478373419708D-01 0.100000000000D+01
  </mgrwgt>
  </event>
  <event>
  4     66 0.48098993E-03 0.40493093E+03 0.75467711E-02 0.97101034E-01
        2 -1    0    0  501    0 0.00000000E+00 0.00000000E+00 0.10274835E+04 0.10274835E+04 0.32000000E+00 0.0000E+00 0.9000E+01
       -1 -1    0    0    0  501 0.00000000E+00 0.00000000E+00 -.16688670E+03 0.16688701E+03 0.32000000E+00 0.0000E+00 0.9000E+01
       25  1    1    2    0    0 -.26721959E+03 0.28556718E+03 0.56096309E+03 0.69516869E+03 0.12500000E+03 0.0000E+00 0.9000E+01
       24  1    1    2    0    0 0.26721959E+03 -.28556718E+03 0.29963367E+03 0.49920184E+03 0.80419002E+02 0.0000E+00 0.9000E+01
#aMCatNLO 1  0  0  1  2 0.47237701D+03 0.00000000D+00  -5  5  0 0.00000000D+00 0.00000000D+00 0.00000000D+00 0.00000000D+00 0.00000000D+00
  <mgrwgt>
 0.3839512738D+00    5    2    0
 0.414093638327191D+03 0.000000000000000D+00 0.000000000000000D+00 0.414093638327191D+03
 0.414093638327191D+03 0.000000000000000D+00 0.000000000000000D+00 -.414093638327191D+03
 0.419622450652480D+03 -.267219585919127D+03 0.285567176538066D+03 0.866203306209411D+02
 0.408564826001901D+03 0.267219585919127D+03 -.285567176538066D+03 -.866203306209411D+02
 0.000000000000000D+00 0.000000000000000D+00 0.000000000000000D+00 0.000000000000000D+00
 0.138013980612790D+04 0.000000000000000D+00 0.000000000000000D+00 0.138013980612790D+04
 0.538464896449254D+03 0.000000000000000D+00 0.000000000000000D+00 -.538464896449254D+03
 0.616560913289222D+03 -.540269106090081D+03 0.255202999833039D+03 0.866203306209411D+02
 0.336871941187401D+03 0.707860600762255D+02 -.307411354421077D+03 -.866203306209411D+02
 0.965171848100531D+03 0.469483046013856D+03 0.522083545880371D+02 0.841674909678645D+03
0.101588489033D-01 0.000000000000D+00 0.000000000000D+00 0.187004084321D-02 0.000000000000D+00  5 2 -1 25 24 21 0 0.15807441D+00 0.25674905D-01 0.16396906D+06 0.16396906D+06 0.16396906D+06 0.11443440D+01  1  2  2  1  5  1        2 0.386153024793D+00 0.100000000000D+01
-.564036934077D-03 0.000000000000D+00 -.390126546751D-04 0.187004084321D-02 0.000000000000D+00  5 2 -1 25 24 21 2 0.15807441D+00 0.25674905D-01 0.16396906D+06 0.16396906D+06 0.16396906D+06 0.11443440D+01  1  2  3  1  5  1        2 -.280760302360D-01 0.100000000000D+01
0.698680330954D-03 0.000000000000D+00 0.000000000000D+00 0.187004084321D-02 0.000000000000D+00  5 2 -1 25 24 21 2 0.15807441D+00 0.25674905D-01 0.16396906D+06 0.16396906D+06 0.16396906D+06 0.11443440D+01  1  2 15  1  5  1        2 0.347781659533D-01 0.100000000000D+01
-.545189149859D-02 0.000000000000D+00 -.349812514751D-02 0.187004084321D-02 0.000000000000D+00  5 2 -1 25 24 21 2 0.55478155D+00 0.25674905D-01 0.16396906D+06 0.16396906D+06 0.16396906D+06 0.11443440D+01  1  2  5  1  5  1        2 -.883934652690D-02 0.100000000000D+01
-.690740964908D-03 0.000000000000D+00 -.514055051306D-03 0.187004084321D-02 0.000000000000D+00  5 21 -1 25 24 -2 2 0.55478155D+00 0.25674905D-01 0.16396906D+06 0.16396906D+06 0.16396906D+06 0.11443440D+01  1  2  5  3  5  1        2 -.645401889842D-04 0.100000000000D+01
  </mgrwgt>
  </event>
  <event>
  4     66 0.48098993E-03 0.15721294E+03 0.75467711E-02 0.11384603E+00
        2 -1    0    0  501    0 0.00000000E+00 0.00000000E+00 0.98778442E+03 0.98778448E+03 0.32000000E+00 0.0000E+00 0.9000E+01
       -1 -1    0    0    0  501 0.00000000E+00 0.00000000E+00 -.25163998E+02 0.25166033E+02 0.32000000E+00 0.0000E+00 0.9000E+01
       25  1    1    2    0    0 0.42622286E+01 -.11774424E+03 0.48755656E+03 0.51693159E+03 0.12500000E+03 0.0000E+00 0.9000E+01
       24  1    1    2    0    0 -.42622286E+01 0.11774424E+03 0.47506387E+03 0.49601892E+03 0.80419002E+02 0.0000E+00 0.9000E+01
#aMCatNLO 1  0  0  2  1 0.98453086D+02 0.00000000D+00  -5  5  0 0.00000000D+00 0.00000000D+00 0.00000000D+00 0.00000000D+00 0.00000000D+00
  <mgrwgt>
 0.4226609764D+00    4    2    0
 0.157663129087196D+03 0.000000000000000D+00 0.000000000000000D+00 0.157663129087196D+03
 0.157663129087196D+03 0.000000000000000D+00 0.000000000000000D+00 -.157663129087196D+03
 0.172184254125512D+03 0.426222855893102D+01 -.117744239211422D+03 -.118551638113403D+02
 0.143142004048880D+03 -.426222855893102D+01 0.117744239211422D+03 0.118551638113403D+02
 0.000000000000000D+00 0.000000000000000D+00 -.000000000000000D+00 0.000000000000000D+00
 0.245372560766768D+03 0.000000000000000D+00 0.000000000000000D+00 0.245372560766768D+03
 0.195383261832371D+03 0.000000000000000D+00 0.000000000000000D+00 -.195383261832371D+03
 0.162992740136884D+03 -.416206590149355D+02 -.952302954500218D+02 -.118551638113403D+02
 0.167345963642640D+03 -.467653978053132D+02 0.138599813319608D+03 0.118551638113403D+02
 0.110417118819616D+03 0.883860568202488D+02 -.433695178695865D+02 0.499892989343969D+02
0.673593331698D-03 0.000000000000D+00 0.000000000000D+00 0.234074750300D-02 0.000000000000D+00  5 2 -1 25 24 21 0 0.15196699D+00 0.38715448D-02 0.24715908D+05 0.24715908D+05 0.24715908D+05 0.12238301D+01  1  2  2  2  5  2       -1 0.516029802881D+00 0.100000000000D+01
-.374214797283D-04 0.000000000000D+00 -.258677575492D-05 0.234074750300D-02 0.000000000000D+00  5 2 -1 25 24 21 2 0.15196699D+00 0.38715448D-02 0.24715908D+05 0.24715908D+05 0.24715908D+05 0.12238301D+01  1  2  3  2  5  2       -1 -.429378459362D-01 0.100000000000D+01
0.464484799522D-04 0.000000000000D+00 0.000000000000D+00 0.234074750300D-02 0.000000000000D+00  5 2 -1 25 24 21 2 0.15196699D+00 0.38715448D-02 0.24715908D+05 0.24715908D+05 0.24715908D+05 0.12238301D+01  1  2 15  2  5  2       -1 0.532955321553D-01 0.100000000000D+01
-.904004266430D-04 0.000000000000D+00 0.000000000000D+00 0.234074750300D-02 0.000000000000D+00  5 2 -1 25 24 21 2 0.15196699D+00 0.38715448D-02 0.24715908D+05 0.24715908D+05 0.24715908D+05 0.12238301D+01  1  2  4  2  5  2       -1 -.103726512686D+00 0.100000000000D+01
  </mgrwgt>
  </event>
  <event>
  4     66 0.48098993E-03 0.20336624E+03 0.75467711E-02 0.97976098E-01
        2 -1    0    0  501    0 0.00000000E+00 0.00000000E+00 0.49820069E+03 0.49820079E+03 0.32000000E+00 0.0000E+00 0.9000E+01
       -1 -1    0    0    0  501 0.00000000E+00 0.00000000E+00 -.84499190E+02 0.84499796E+02 0.32000000E+00 0.0000E+00 0.9000E+01
       25  1    1    2    0    0 0.28321125E+02 0.17215217E+03 0.17953204E+03 0.27981281E+03 0.12500000E+03 0.0000E+00 0.9000E+01
       24  1    1    2    0    0 -.28321125E+02 -.17215217E+03 0.23416946E+03 0.30288778E+03 0.80419002E+02 0.0000E+00 0.9000E+01
#aMCatNLO 1  0  0  2  1 0.59183859D+03 0.00000000D+00  -5  5  0 0.00000000D+00 0.00000000D+00 0.00000000D+00 0.00000000D+00 0.00000000D+00
  <mgrwgt>
 0.4154852507D+00    5    2    0
 0.205177389459271D+03 0.000000000000000D+00 0.000000000000000D+00 0.205177389459271D+03
 0.205177389459271D+03 0.000000000000000D+00 0.000000000000000D+00 -.205177389459271D+03
 0.216335763281265D+03 0.283211251363883D+02 0.172152167127242D+03 -.271607750053423D+02
 0.194019015637278D+03 -.283211251363883D+02 -.172152167127242D+03 0.271607750053423D+02
 0.000000000000000D+00 -.000000000000000D+00 0.000000000000000D+00 -.000000000000000D+00
 0.532692331474547D+03 0.000000000000000D+00 0.000000000000000D+00 0.532692331474547D+03
 0.867437420313632D+03 0.000000000000000D+00 0.000000000000000D+00 -.867437420313632D+03
 0.266166424528804D+03 0.232265078611693D+03 0.231255509136672D+02 -.271607750053423D+02
 0.454016861822405D+03 0.245590583829769D+03 -.372305858535635D+03 0.271607750053423D+02
 0.679946465436970D+03 -.477855662441463D+03 0.349180307621968D+03 -.334745088839085D+03
0.132955957765D-02 0.000000000000D+00 0.000000000000D+00 0.211337409498D-02 0.000000000000D+00  5 2 -1 25 24 21 0 0.76646314D-01 0.12999930D-01 0.41357826D+05 0.41357826D+05 0.41357826D+05 0.12005308D+01  1  2  2  2  5  2       -1 0.377843073884D+00 0.100000000000D+01
-.738573607930D-04 0.000000000000D+00 -.510585885924D-05 0.211337409498D-02 0.000000000000D+00  5 2 -1 25 24 21 2 0.76646314D-01 0.12999930D-01 0.41357826D+05 0.41357826D+05 0.41357826D+05 0.12005308D+01  1  2  3  2  5  2       -1 -.302513014278D-01 0.100000000000D+01
0.918651913334D-04 0.000000000000D+00 0.000000000000D+00 0.211337409498D-02 0.000000000000D+00  5 2 -1 25 24 21 2 0.76646314D-01 0.12999930D-01 0.41357826D+05 0.41357826D+05 0.41357826D+05 0.12005308D+01  1  2 15  2  5  2       -1 0.376271445921D-01 0.100000000000D+01
0.195023389519D-02 0.000000000000D+00 -.885479379171D-03 0.211337409498D-02 0.000000000000D+00  5 2 -1 25 24 21 2 0.76646314D-01 0.13002535D+00 0.41357826D+05 0.41357826D+05 0.41357826D+05 0.12005308D+01  1  2  5  2  5  2       -1 0.112548747556D-01 0.100000000000D+01
0.393063788533D-03 0.000000000000D+00 -.242645965293D-03 0.211337409498D-02 0.000000000000D+00  5 2 21 25 24 1 2 0.76646314D-01 0.13002535D+00 0.41357826D+05 0.41357826D+05 0.41357826D+05 0.12005308D+01  1  2  5  4  5  2       -1 0.190114588890D-01 0.100000000000D+01
  </mgrwgt>
  </event>
  <event>
  4     66 0.48098993E-03 0.10473692E+03 0.75467711E-02 0.12434007E+00
        2 -1    0    0  501    0 0.00000000E+00 0.00000000E+00 0.23121925E+04 0.23121925E+04 0.32000000E+00 0.0000E+00 0.9000E+01
       -1 -1    0    0    0  501 0.00000000E+00 0.00000000E+00 -.47408932E+01 0.47516806E+01 0.32000000E+00 0.0000E+00 0.9000E+01
       25  1    1    2    0    0 -.97832773E+01 -.17487693E+02 0.14174992E+04 0.14231410E+04 0.12500000E+03 0.0000E+00 0.9000E+01
       24  1    1    2    0    0 0.97832773E+01 0.17487693E+02 0.88995241E+03 0.89380313E+03 0.80419002E+02 0.0000E+00 0.9000E+01
#aMCatNLO 1  0  0  1  1 0.28260386D+02 0.00000000D+00  -5  5  0 0.00000000D+00 0.00000000D+00 0.00000000D+00 0.00000000D+00 0.00000000D+00
  <mgrwgt>
 0.3536571410D+00    4    2    0
 0.104758675124132D+03 0.000000000000000D+00 0.000000000000000D+00 0.104758675124132D+03
 0.104758675124132D+03 0.000000000000000D+00 0.000000000000000D+00 -.104758675124132D+03
 0.126613151697977D+03 -.978327731392675D+01 -.174876931729681D+02 0.208764349971006D+01
 0.829041985502874D+02 0.978327731392675D+01 0.174876931729681D+02 -.208764349971006D+01
 0.000000000000000D+00 -.000000000000000D+00 0.000000000000000D+00 -.000000000000000D+00
 0.110721838411429D+03 0.000000000000000D+00 0.000000000000000D+00 0.110721838411429D+03
 0.145524381694386D+03 0.000000000000000D+00 0.000000000000000D+00 -.145524381694386D+03
 0.126626073522894D+03 0.716791718663494D+01 -.187996064759064D+02 0.208764349971006D+01
 0.847886125354370D+02 0.210082107916722D+02 0.166189556009012D+02 -.208764349971006D+01
 0.448315340474840D+02 -.281761279783071D+02 0.218065087500521D+01 -.348025432829572D+02
0.258069745576D-03 0.000000000000D+00 0.000000000000D+00 0.317008069302D-02 0.000000000000D+00  5 2 -1 25 24 21 0 0.35572275D+00 0.73019969D-03 0.10969823D+05 0.10969823D+05 0.10969823D+05 0.12636185D+01  1  2  2  1  5  1        2 0.427806957442D+00 0.100000000000D+01
-.143372073359D-04 0.000000000000D+00 -.991055774336D-06 0.317008069302D-02 0.000000000000D+00  5 2 -1 25 24 21 2 0.35572275D+00 0.73019969D-03 0.10969823D+05 0.10969823D+05 0.10969823D+05 0.12636185D+01  1  2  3  1  5  1        2 -.379496075844D-01 0.100000000000D+01
0.178492791156D-04 0.000000000000D+00 0.000000000000D+00 0.317008069302D-02 0.000000000000D+00  5 2 -1 25 24 21 2 0.35572275D+00 0.73019969D-03 0.10969823D+05 0.10969823D+05 0.10969823D+05 0.12636185D+01  1  2 15  1  5  1        2 0.472458214652D-01 0.100000000000D+01
-.315255707304D-04 0.000000000000D+00 0.000000000000D+00 0.317008069302D-02 0.000000000000D+00  5 2 -1 25 24 21 2 0.35572275D+00 0.73019969D-03 0.10969823D+05 0.10969823D+05 0.10969823D+05 0.12636185D+01  1  2  4  1  5  1        2 -.834460303224D-01 0.100000000000D+01
  </mgrwgt>
  </event>
  <event>
  5     66 0.48098993E-03 0.11544929E+03 0.75467711E-02 0.12423550E+00
        2 -1    0    0  502    0 0.00000000E+00 0.00000000E+00 0.49319287E+03 0.49319297E+03 0.32000000E+00 0.0000E+00 0.9000E+01
       -1 -1    0    0    0  501 0.00000000E+00 0.00000000E+00 -.42869327E+02 0.42870521E+02 0.32000000E+00 0.0000E+00 0.9000E+01
       25  1    1    2    0    0 0.38885619E+02 0.25368548E+02 0.96188057E+02 0.16441653E+03 0.12500000E+03 0.0000E+00 0.9000E+01
       24  1    1    2    0    0 -.47309060E+02 -.29920956E+02 0.34400644E+03 0.35768849E+03 0.80419002E+02 0.0000E+00 0.9000E+01
       21  1    1    2  502  501 0.84234409E+01 0.45524078E+01 0.10129047E+02 0.13958469E+02 0.75000000E+00 0.0000E+00 0.9000E+01
#aMCatNLO 2  0  0  1  1 0.95749033D+01 0.00000000D+00  -5  5  0 0.00000000D+00 0.00000000D+00 0.00000000D+00 0.00000000D+00 0.00000000D+00
  <mgrwgt>
 0.4479001584D+00    2    2    0
 0.140295032936857D+03 0.000000000000000D+00 0.000000000000000D+00 0.140295032936857D+03
 0.140295032936857D+03 0.000000000000000D+00 0.000000000000000D+00 -.140295032936857D+03
 0.156613828859146D+03 0.435608226018509D+02 0.278952391160977D+02 -.789126210363566D+02
 0.123976237014568D+03 -.435608226018509D+02 -.278952391160977D+02 0.789126210363566D+02
 0.000000000000000D+00 0.000000000000000D+00 0.000000000000000D+00 -.000000000000000D+00
 0.143876618224411D+03 0.000000000000000D+00 0.000000000000000D+00 0.143876618224411D+03
 0.146925317004852D+03 0.000000000000000D+00 0.000000000000000D+00 -.146925317004852D+03
 0.154944688136290D+03 0.388856192981085D+02 0.253685481379447D+02 -.789126210363566D+02
 0.125808698025175D+03 -.473090602195694D+02 -.299209559795936D+02 0.789126210363566D+02
 0.100485490677964D+02 0.842344092146095D+01 0.455240784164889D+01 -.304869878044090D+01
-.754589900508D-04 0.000000000000D+00 0.000000000000D+00 0.178554514176D-02 0.000000000000D+00  5 2 -1 25 24 21 2 0.73979979D-01 0.62971447D-02 0.13328539D+05 0.13328539D+05 0.13328539D+05 0.12537146D+01  1  2  8  1  5  1        2 -.102946869278D+00 0.100000000000D+01
0.446288059418D-03 0.000000000000D+00 0.000000000000D+00 0.178554514176D-02 0.162371864390D-03  5 2 -1 25 24 21 2 0.75868611D-01 0.65947451D-02 0.14508421D+05 0.14508421D+05 0.14508421D+05 0.12494756D+01  1  2  1  1  5  1        2 0.550847027693D+00 0.100000000000D+01
  </mgrwgt>
  </event>
  <event>
  4     66 0.48098993E-03 0.68141083E+02 0.75467711E-02 0.12271614E+00
        2 -1    0    0  501    0 0.00000000E+00 0.00000000E+00 0.36117832E+04 0.36117832E+04 0.32000000E+00 0.0000E+00 0.9000E+01
       -1 -1    0    0    0  501 0.00000000E+00 0.00000000E+00 -.45801647E+01 0.45913297E+01 0.32000000E+00 0.0000E+00 0.9000E+01
       25  1    1    2    0    0 0.59718716E+02 -.25640625E+02 0.14892670E+04 0.14959161E+04 0.12500000E+03 0.0000E+00 0.9000E+01
       24  1    1    2    0    0 -.59718716E+02 0.25640625E+02 0.21179360E+04 0.21204585E+04 0.80419002E+02 0.0000E+00 0.9000E+01
#aMCatNLO 1  0  0  1  2 0.15522290D+02 0.00000000D+00  -5  5  0 0.00000000D+00 0.00000000D+00 0.00000000D+00 0.00000000D+00 0.00000000D+00
  <mgrwgt>
 0.8269656586D+00    9    2    0
 0.128696448660211D+03 0.000000000000000D+00 0.000000000000000D+00 0.128696448660211D+03
 0.128696448660211D+03 0.000000000000000D+00 0.000000000000000D+00 -.128696448660211D+03
 0.146485952840331D+03 0.597187157163303D+02 -.256406245755730D+02 -.401169259054862D+02
 0.110906944480092D+03 -.597187157163303D+02 0.256406245755730D+02 0.401169259054862D+02
 0.000000000000000D+00 0.000000000000000D+00 0.000000000000000D+00 0.000000000000000D+00
 0.153885905740311D+03 0.000000000000000D+00 0.000000000000000D+00 0.153885905740311D+03
 0.131343954247551D+03 0.000000000000000D+00 0.000000000000000D+00 -.131343954247551D+03
 0.143379717217844D+03 0.510590136576672D+02 -.267647658250310D+02 -.401169259054862D+02
 0.114480797541822D+03 -.664521474234824D+02 0.247665381138054D+02 0.401169259054862D+02
 0.273693452281956D+02 0.153931337658153D+02 0.199822771122564D+01 0.225419514927604D+02
0.121410788164D-02 0.000000000000D+00 0.000000000000D+00 0.241298289550D-02 0.000000000000D+00  5 2 -1 25 24 21 0 0.55565981D+00 0.70550066D-03 0.14918529D+05 0.14918529D+05 0.14918529D+05 0.12480923D+01  1  2  2  1  5  1        2 0.376490961245D+00 0.100000000000D+01
-.672263152151D-04 0.000000000000D+00 -.466249394743D-05 0.241298289550D-02 0.000000000000D+00  5 2 -1 25 24 21 2 0.55565981D+00 0.70550066D-03 0.14918529D+05 0.14918529D+05 0.14918529D+05 0.12480923D+01  1  2  3  1  5  1        2 -.324735648809D-01 0.100000000000D+01
0.838194284110D-04 0.000000000000D+00 0.000000000000D+00 0.241298289550D-02 0.000000000000D+00  5 2 -1 25 24 21 2 0.55565981D+00 0.70550066D-03 0.14918529D+05 0.14918529D+05 0.14918529D+05 0.12480923D+01  1  2 15  1  5  1        2 0.404888418779D-01 0.100000000000D+01
0.260323746194D-02 0.000000000000D+00 0.000000000000D+00 0.241298289550D-02 0.000000000000D+00  5 2 -1 25 24 21 2 0.66938604D+00 0.70550066D-03 0.16951656D+05 0.16951656D+05 0.16951656D+05 0.12418118D+01  1  2 12  1  5  1        2 0.347139909233D+00 0.100000000000D+01
-.266864949573D-02 0.000000000000D+00 0.000000000000D+00 0.241298289550D-02 0.000000000000D+00  5 2 -1 25 24 21 2 0.55565981D+00 0.70550066D-03 0.14918529D+05 0.14918529D+05 0.14918529D+05 0.12480923D+01  1  2  4  1  5  1        2 -.128908690394D+01 0.100000000000D+01
-.381201792898D-02 0.000000000000D+00 -.508062078921D-03 0.241298289550D-02 0.000000000000D+00  5 2 -1 25 24 21 2 0.66657553D+00 0.70550066D-03 0.14918529D+05 0.14918529D+05 0.14918529D+05 0.12480923D+01  1  2  5  1  5  1        2 -.534585867699D+00 0.100000000000D+01
0.397297037621D-02 0.000000000000D+00 0.521849495240D-03 0.241298289550D-02 0.000000000000D+00  5 2 -1 25 24 21 2 0.55565981D+00 0.70550066D-03 0.14918529D+05 0.14918529D+05 0.14918529D+05 0.12480923D+01  1  2  6  1  5  1        2 0.191913703538D+01 0.100000000000D+01
0.704964242433D-04 0.000000000000D+00 0.000000000000D+00 0.241298289550D-02 0.000000000000D+00  5 21 -1 25 24 -2 2 0.66938604D+00 0.70550066D-03 0.16951656D+05 0.16951656D+05 0.16951656D+05 0.12418118D+01  1  2 12  3  5  1        2 0.298107877297D-03 0.100000000000D+01
-.964403961648D-04 0.000000000000D+00 -.135156390584D-04 0.241298289550D-02 0.000000000000D+00  5 21 -1 25 24 -2 2 0.66657553D+00 0.70550066D-03 0.14918529D+05 0.14918529D+05 0.14918529D+05 0.12480923D+01  1  2  5  3  5  1        2 -.442860491222D-03 0.100000000000D+01
  </mgrwgt>
  </event>
  <event>
  4     66 0.48098993E-03 0.10847822E+03 0.75467711E-02 0.11333277E+00
        2 -1    0    0  501    0 0.00000000E+00 0.00000000E+00 0.96097261E+03 0.96097266E+03 0.32000000E+00 0.0000E+00 0.9000E+01
       -1 -1    0    0    0  501 0.00000000E+00 0.00000000E+00 -.13343637E+02 0.13347474E+02 0.32000000E+00 0.0000E+00 0.9000E+01
       25  1    1    2    0    0 0.29703313E+02 -.16868796E+02 0.69582118E+03 0.70778454E+03 0.12500000E+03 0.0000E+00 0.9000E+01
       24  1    1    2    0    0 -.29703313E+02 0.16868796E+02 0.25180780E+03 0.26653560E+03 0.80419002E+02 0.0000E+00 0.9000E+01
#aMCatNLO 1  0  0  2  2 0.16727231D+03 0.00000000D+00  -5  5  0 0.00000000D+00 0.00000000D+00 0.00000000D+00 0.00000000D+00 0.00000000D+00
  <mgrwgt>
 0.5255750517D+00    3    2    0
 0.113246478238641D+03 0.000000000000000D+00 0.000000000000000D+00 0.113246478238641D+03
 0.113246478238641D+03 0.000000000000000D+00 0.000000000000000D+00 -.113246478238641D+03
 0.133462965735788D+03 0.297033132458839D+02 -.168687961634629D+02 0.319455806208706D+02
 0.930299907414950D+02 -.297033132458839D+02 0.168687961634629D+02 -.319455806208706D+02
 0.000000000000000D+00 0.000000000000000D+00 -.000000000000000D+00 0.000000000000000D+00
 0.306172082085585D+03 0.000000000000000D+00 0.000000000000000D+00 0.306172082085585D+03
 0.183076879337322D+03 0.000000000000000D+00 0.000000000000000D+00 -.183076879337322D+03
 0.140865245327875D+03 -.535686990657693D+02 0.181077801090841D+02 0.319455806208706D+02
 0.140700172661255D+03 -.100651834978349D+03 0.466691614111844D+02 -.319455806208706D+02
 0.207683543433776D+03 0.154220534044118D+03 -.647769415202685D+02 0.123095202748263D+03
0.263357770871D-03 0.000000000000D+00 0.000000000000D+00 0.273054771872D-02 0.000000000000D+00  5 2 -1 25 24 21 0 0.14784224D+00 0.20531665D-02 0.11767525D+05 0.11767525D+05 0.11767525D+05 0.12600211D+01  1  2  2  2  5  2       -1 0.514407410484D+00 0.100000000000D+01
-.145980687879D-04 0.000000000000D+00 -.101136318384D-05 0.273054771872D-02 0.000000000000D+00  5 2 -1 25 24 21 2 0.14784224D+00 0.20531665D-02 0.11767525D+05 0.11767525D+05 0.11767525D+05 0.12600211D+01  1  2  3  2  5  2       -1 -.452701667131D-01 0.100000000000D+01
0.181992482463D-04 0.000000000000D+00 0.000000000000D+00 0.273054771872D-02 0.000000000000D+00  5 2 -1 25 24 21 2 0.14784224D+00 0.20531665D-02 0.11767525D+05 0.11767525D+05 0.11767525D+05 0.12600211D+01  1  2 15  2  5  2       -1 0.564378079136D-01 0.100000000000D+01
  </mgrwgt>
  </event>
  <event>
  4     66 -.48098993E-03 0.60582103E+02 0.75467711E-02 0.12633488E+00
        4 -1    0    0  501    0 0.00000000E+00 0.00000000E+00 0.26961000E+02 0.27005519E+02 0.15500000E+01 0.0000E+00 0.9000E+01
       -3 -1    0    0    0  501 0.00000000E+00 0.00000000E+00 -.43251638E+03 0.43251667E+03 0.50000000E+00 0.0000E+00 0.9000E+01
       25  1    1    2    0    0 -.20418186E+02 0.24384438E+02 -.22569351E+03 0.25995012E+03 0.12500000E+03 0.0000E+00 0.9000E+01
       24  1    1    2    0    0 0.20418186E+02 -.24384438E+02 -.17986187E+03 0.19957207E+03 0.80419002E+02 0.0000E+00 0.9000E+01
#aMCatNLO 1  0  0  1  2 0.15577579D+01 0.00000000D+00  -5  5  0 0.00000000D+00 0.00000000D+00 0.00000000D+00 0.00000000D+00 0.00000000D+00
  <mgrwgt>
 -.1998713045D+00   11    2    0
 0.108034109275225D+03 0.000000000000000D+00 0.000000000000000D+00 0.108034109275225D+03
 0.108034109275225D+03 0.000000000000000D+00 0.000000000000000D+00 -.108034109275225D+03
 0.129225990494654D+03 -.204181859816711D+02 0.243844383503917D+02 0.792801784043384D+01
 0.868422280557963D+02 0.204181859816711D+02 -.243844383503917D+02 -.792801784043384D+01
 0.000000000000000D+00 -.000000000000000D+00 -.000000000000000D+00 0.000000000000000D+00
 0.110834691927009D+03 0.000000000000000D+00 0.000000000000000D+00 0.110834691927009D+03
 0.108253750825626D+03 0.000000000000000D+00 0.000000000000000D+00 -.108253750825626D+03
 0.129137347046307D+03 -.195242217511253D+02 0.246456020476886D+02 0.792801784043384D+01
 0.869364868100710D+02 0.210194785512706D+02 -.242087760752491D+02 -.792801784043384D+01
 0.301460889625634D+01 -.149525680014535D+01 -.436825972439495D+00 0.258094110138322D+01
0.352395842002D-03 0.000000000000D+00 0.000000000000D+00 0.305377224473D-02 0.000000000000D+00  5 4 -3 25 24 21 0 0.41512929D-02 0.66544428D-01 0.11605985D+05 0.11605985D+05 0.11605985D+05 0.12607270D+01  1  2  2  1  5  1        4 0.469982410225D-01 0.100000000000D+01
-.195773589712D-04 0.000000000000D+00 -.135329282124D-05 0.305377224473D-02 0.000000000000D+00  5 4 -3 25 24 21 2 0.41512929D-02 0.66544428D-01 0.11605985D+05 0.11605985D+05 0.11605985D+05 0.12607270D+01  1  2  3  1  5  1        4 -.414998962952D-02 0.100000000000D+01
0.243672395738D-04 0.000000000000D+00 0.000000000000D+00 0.305377224473D-02 0.000000000000D+00  5 4 -3 25 24 21 2 0.41512929D-02 0.66544428D-01 0.11605985D+05 0.11605985D+05 0.11605985D+05 0.12607270D+01  1  2 15  1  5  1        4 0.516534388935D-02 0.100000000000D+01
0.426142932190D-06 0.000000000000D+00 0.000000000000D+00 0.305377224473D-02 0.000000000000D+00  5 4 -3 25 24 21 2 0.42630665D-02 0.66544428D-01 0.11775045D+05 0.11775045D+05 0.11775045D+05 0.12599885D+01  1  2 12  1  5  1        4 0.866383376023D-04 0.100000000000D+01
-.143075607208D-01 0.000000000000D+00 0.000000000000D+00 0.305377224473D-02 0.000000000000D+00  5 4 -3 25 24 21 2 0.41512929D-02 0.66544428D-01 0.11605985D+05 0.11605985D+05 0.11605985D+05 0.12607270D+01  1  2  4  1  5  1        4 -.303290289065D+01 0.100000000000D+01
-.264930499704D-01 0.000000000000D+00 -.199377858679D-02 0.305377224473D-02 0.000000000000D+00  5 4 -3 25 24 21 2 0.42671120D-02 0.66544428D-01 0.11605985D+05 0.11605985D+05 0.11605985D+05 0.12607270D+01  1  2  5  1  5  1        4 -.537635465973D+01 0.100000000000D+01
0.265386199578D-01 0.000000000000D+00 0.199302397206D-02 0.305377224473D-02 0.000000000000D+00  5 4 -3 25 24 21 2 0.41512929D-02 0.66544428D-01 0.11605985D+05 0.11605985D+05 0.11605985D+05 0.12607270D+01  1  2  6  1  5  1        4 0.562563100409D+01 0.100000000000D+01
0.143118018695D-01 0.000000000000D+00 0.000000000000D+00 0.305377224473D-02 0.106588522110D-01  5 4 -3 25 24 21 2 0.42589074D-02 0.66679718D-01 0.11775045D+05 0.11775045D+05 0.11775045D+05 0.12599885D+01  1  2 11  1  5  1        4 0.290188380469D+01 0.100000000000D+01
0.165924825507D-07 0.000000000000D+00 0.000000000000D+00 0.305377224473D-02 0.000000000000D+00  5 21 -3 25 24 -4 2 0.42630665D-02 0.66544428D-01 0.11775045D+05 0.11775045D+05 0.11775045D+05 0.12599885D+01  1  2 12  3  5  1        4 0.964554244238D-04 0.100000000000D+01
-.130673769568D-03 0.000000000000D+00 -.987522710975D-05 0.305377224473D-02 0.000000000000D+00  5 21 -3 25 24 -4 2 0.42671120D-02 0.66544428D-01 0.11605985D+05 0.11605985D+05 0.11605985D+05 0.12607270D+01  1  2  5  3  5  1        4 -.758735108715D+00 0.100000000000D+01
0.676803619830D-04 0.000000000000D+00 0.000000000000D+00 0.305377224473D-02 0.493035569600D-04  5 21 -3 25 24 -4 2 0.42589074D-02 0.66679718D-01 0.11775045D+05 0.11775045D+05 0.11775045D+05 0.12599885D+01  1  2 11  3  5  1        4 0.392409856728D+00 0.100000000000D+01
  </mgrwgt>
  </event>
  <event>
  4     66 0.48098993E-03 0.13087533E+03 0.75467711E-02 0.11255586E+00
        4 -1    0    0  501    0 0.00000000E+00 0.00000000E+00 0.19910973E+02 0.19971213E+02 0.15500000E+01 0.0000E+00 0.9000E+01
       -3 -1    0    0    0  501 0.00000000E+00 0.00000000E+00 -.91286420E+03 0.91286434E+03 0.50000000E+00 0.0000E+00 0.9000E+01
       25  1    1    2    0    0 -.42079335E+02 0.67952845E+02 -.61505681E+03 0.63269909E+03 0.12500000E+03 0.0000E+00 0.9000E+01
       24  1    1    2    0    0 0.42079335E+02 -.67952845E+02 -.27789642E+03 0.30013646E+03 0.80419002E+02 0.0000E+00 0.9000E+01
#aMCatNLO 1  0  0  1  2 0.15750552D+03 0.00000000D+00  -5  5  0 0.00000000D+00 0.00000000D+00 0.00000000D+00 0.00000000D+00 0.00000000D+00
  <mgrwgt>
 0.1047919691D+00    5    2    0
 0.134922845675878D+03 0.000000000000000D+00 0.000000000000000D+00 0.134922845675878D+03
 0.134922845675878D+03 0.000000000000000D+00 0.000000000000000D+00 -.134922845675878D+03
 0.151891402779300D+03 -.420793348897951D+02 0.679528448767634D+02 -.325228948073592D+02
 0.117954288572455D+03 0.420793348897951D+02 -.679528448767634D+02 0.325228948073592D+02
 0.000000000000000D+00 0.000000000000000D+00 0.000000000000000D+00 0.000000000000000D+00
 0.243458307753071D+03 0.000000000000000D+00 0.000000000000000D+00 0.243458307753071D+03
 0.227321202951388D+03 0.000000000000000D+00 0.000000000000000D+00 -.227321202951388D+03
 0.165208167582053D+03 -.102749152778254D+03 0.732199102158506D+01 -.325228948073592D+02
 0.147241325226842D+03 -.865983695987575D+01 -.118659430461148D+03 0.325228948073592D+02
 0.158330017895564D+03 0.111408989738130D+03 0.111337439439563D+03 0.161371048016827D+02
0.189478872009D-02 0.000000000000D+00 0.000000000000D+00 0.242483334735D-02 0.000000000000D+00  5 4 -3 25 24 21 0 0.30678710D-02 0.14044529D+00 0.17128351D+05 0.17128351D+05 0.17128351D+05 0.12413063D+01  1  2  2  1  5  1        4 0.784139307363D-01 0.100000000000D+01
-.105147307107D-03 0.000000000000D+00 -.727648759448D-05 0.242483334735D-02 0.000000000000D+00  5 4 -3 25 24 21 2 0.30678710D-02 0.14044529D+00 0.17128351D+05 0.17128351D+05 0.17128351D+05 0.12413063D+01  1  2  3  1  5  1        4 -.670484176097D-02 0.100000000000D+01
0.130883873056D-03 0.000000000000D+00 0.000000000000D+00 0.242483334735D-02 0.000000000000D+00  5 4 -3 25 24 21 2 0.30678710D-02 0.14044529D+00 0.17128351D+05 0.17128351D+05 0.17128351D+05 0.12413063D+01  1  2 15  1  5  1        4 0.834596417207D-02 0.100000000000D+01
0.350441584477D-03 0.000000000000D+00 -.738208253002D-03 0.242483334735D-02 0.000000000000D+00  5 4 -3 25 24 21 2 0.96106647D-02 0.14044529D+00 0.17128351D+05 0.17128351D+05 0.17128351D+05 0.12413063D+01  1  2  5  1  5  1        4 0.352638814004D-02 0.100000000000D+01
0.795687393427D-04 0.000000000000D+00 -.966959496119D-04 0.242483334735D-02 0.000000000000D+00  5 21 -3 25 24 -4 2 0.96106647D-02 0.14044529D+00 0.17128351D+05 0.17128351D+05 0.17128351D+05 0.12413063D+01  1  2  5  3  5  1        4 0.212105278180D-01 0.100000000000D+01
  </mgrwgt>
  </event>
  <event>
  4     66 0.48098993E-03 0.12082934E+03 0.75467711E-02 0.12293800E+00
        2 -1    0    0  501    0 0.00000000E+00 0.00000000E+00 0.20237603E+04 0.20237603E+04 0.32000000E+00 0.0000E+00 0.9000E+01
       -1 -1    0    0    0  501 0.00000000E+00 0.00000000E+00 -.72163861E+01 0.72234776E+01 0.32000000E+00 0.0000E+00 0.9000E+01
       25  1    1    2    0    0 -.65871519E+01 -.62203282E+02 0.11378349E+04 0.11463882E+04 0.12500000E+03 0.0000E+00 0.9000E+01
       24  1    1    2    0    0 0.65871519E+01 0.62203282E+02 0.87870906E+03 0.88459565E+03 0.80419002E+02 0.0000E+00 0.9000E+01
#aMCatNLO 1  0  0  1  2 0.15282046D+02 0.00000000D+00  -5  5  0 0.00000000D+00 0.00000000D+00 0.00000000D+00 0.00000000D+00 0.00000000D+00
  <mgrwgt>
 0.2473326605D+00    4    2    0
 0.120877884226838D+03 0.000000000000000D+00 0.000000000000000D+00 0.120877884226838D+03
 0.120877884226838D+03 0.000000000000000D+00 0.000000000000000D+00 -.120877884226838D+03
 0.139818040451867D+03 -.658715185500520D+01 -.622032821841321D+02 -.338312751168895D+01
 0.101937728001808D+03 0.658715185500520D+01 0.622032821841321D+02 0.338312751168895D+01
 0.000000000000000D+00 -.000000000000000D+00 0.000000000000000D+00 -.000000000000000D+00
 0.124355918361895D+03 0.000000000000000D+00 0.000000000000000D+00 0.124355918361895D+03
 0.139157265258041D+03 0.000000000000000D+00 0.000000000000000D+00 -.139157265258041D+03
 0.140727765204759D+03 0.196023341687023D+01 -.645291858984508D+02 -.338312751168895D+01
 0.101510531753341D+03 0.127856072371834D+02 0.605165663128017D+02 0.338312751168895D+01
 0.212748866618357D+02 -.147458406540537D+02 0.401261958564913D+01 -.148013468961468D+02
0.333587191319D-03 0.000000000000D+00 0.000000000000D+00 0.276493559871D-02 0.000000000000D+00  5 2 -1 25 24 21 0 0.31134829D+00 0.11107607D-02 0.14599729D+05 0.14599729D+05 0.14599729D+05 0.12491639D+01  1  2  2  1  5  1        2 0.431587088574D+00 0.100000000000D+01
-.185326181041D-04 0.000000000000D+00 -.128106265019D-05 0.276493559871D-02 0.000000000000D+00  5 2 -1 25 24 21 2 0.31134829D+00 0.11107607D-02 0.14599729D+05 0.14599729D+05 0.14599729D+05 0.12491639D+01  1  2  3  1  5  1        2 -.374140465347D-01 0.100000000000D+01
0.230813236689D-04 0.000000000000D+00 0.000000000000D+00 0.276493559871D-02 0.000000000000D+00  5 2 -1 25 24 21 2 0.31134829D+00 0.11107607D-02 0.14599729D+05 0.14599729D+05 0.14599729D+05 0.12491639D+01  1  2 15  1  5  1        2 0.465970707959D-01 0.100000000000D+01
-.958170196443D-04 0.000000000000D+00 0.000000000000D+00 0.276493559871D-02 0.000000000000D+00  5 2 -1 25 24 21 2 0.31134829D+00 0.11107607D-02 0.14599729D+05 0.14599729D+05 0.14599729D+05 0.12491639D+01  1  2  4  1  5  1        2 -.193437452369D+00 0.100000000000D+01
  </mgrwgt>
  </event>
  <event>
  4     66 0.48098993E-03 0.11917302E+03 0.75467711E-02 0.11501823E+00
        2 -1    0    0  501    0 0.00000000E+00 0.00000000E+00 0.11536524E+04 0.11536525E+04 0.32000000E+00 0.0000E+00 0.9000E+01
       -1 -1    0    0    0  501 0.00000000E+00 0.00000000E+00 -.12698091E+02 0.12702122E+02 0.32000000E+00 0.0000E+00 0.9000E+01
       25  1    1    2    0    0 0.59038146E+02 0.62979910E+01 0.76045476E+03 0.77294347E+03 0.12500000E+03 0.0000E+00 0.9000E+01
       24  1    1    2    0    0 -.59038146E+02 -.62979910E+01 0.38049957E+03 0.39341111E+03 0.80419002E+02 0.0000E+00 0.9000E+01
#aMCatNLO 1  0  0  2  2 0.12859529D+03 0.00000000D+00  -5  5  0 0.00000000D+00 0.00000000D+00 0.00000000D+00 0.00000000D+00 0.00000000D+00
  <mgrwgt>
 0.4325150772D+00    3    2    0
 0.121043627525943D+03 0.000000000000000D+00 0.000000000000000D+00 0.121043627525943D+03
 0.121043627525943D+03 0.000000000000000D+00 0.000000000000000D+00 -.121043627525943D+03
 0.139957849267328D+03 0.590381456463394D+02 0.629799100449456D+01 0.209292197533767D+02
 0.102129405784557D+03 -.590381456463394D+02 -.629799100449456D+01 -.209292197533767D+02
 0.000000000000000D+00 -.000000000000000D+00 -.000000000000000D+00 0.000000000000000D+00
 0.213387035918159D+03 0.000000000000000D+00 0.000000000000000D+00 0.213387035918159D+03
 0.191226021723706D+03 0.000000000000000D+00 0.000000000000000D+00 -.191226021723706D+03
 0.188647073939917D+03 0.134370021670203D+03 0.383325389578720D+02 0.209292197533767D+02
 0.854751407700620D+02 -.160302615750090D+02 0.119909219680152D+02 -.209292197533767D+02
 0.130490842931886D+03 -.118339760095194D+03 -.503234609258872D+02 0.221610141944537D+02
0.259189856482D-03 0.000000000000D+00 0.000000000000D+00 0.269211765339D-02 0.000000000000D+00  5 2 -1 25 24 21 0 0.17748530D+00 0.19538659D-02 0.14202209D+05 0.14202209D+05 0.14202209D+05 0.12505375D+01  1  2  2  2  5  2       -1 0.423428756584D+00 0.100000000000D+01
-.143951896500D-04 0.000000000000D+00 -.995357295146D-06 0.269211765339D-02 0.000000000000D+00  5 2 -1 25 24 21 2 0.17748530D+00 0.19538659D-02 0.14202209D+05 0.14202209D+05 0.14202209D+05 0.12505375D+01  1  2  3  2  5  2       -1 -.367767357882D-01 0.100000000000D+01
0.179517670897D-04 0.000000000000D+00 0.000000000000D+00 0.269211765339D-02 0.000000000000D+00  5 2 -1 25 24 21 2 0.17748530D+00 0.19538659D-02 0.14202209D+05 0.14202209D+05 0.14202209D+05 0.12505375D+01  1  2 15  2  5  2       -1 0.458630564267D-01 0.100000000000D+01
  </mgrwgt>
  </event>
  <event>
  4     66 0.48098993E-03 0.12168628E+03 0.75467711E-02 0.12183527E+00
        2 -1    0    0  501    0 0.00000000E+00 0.00000000E+00 0.55297033E+03 0.55297042E+03 0.32000000E+00 0.0000E+00 0.9000E+01
       -1 -1    0    0    0  501 0.00000000E+00 0.00000000E+00 -.27531556E+02 0.27533416E+02 0.32000000E+00 0.0000E+00 0.9000E+01
       25  1    1    2    0    0 0.96736126E+01 0.63418001E+02 0.34970939E+03 0.37687807E+03 0.12500000E+03 0.0000E+00 0.9000E+01
       24  1    1    2    0    0 -.96736126E+01 -.63418001E+02 0.17572938E+03 0.20362577E+03 0.80419002E+02 0.0000E+00 0.9000E+01
#aMCatNLO 1  0  0  1  2 0.27713616D+02 0.00000000D+00  -5  5  0 0.00000000D+00 0.00000000D+00 0.00000000D+00 0.00000000D+00 0.00000000D+00
  <mgrwgt>
 0.2784326639D+00    4    2    0
 0.123388412568657D+03 0.000000000000000D+00 0.000000000000000D+00 0.123388412568657D+03
 0.123388412568657D+03 0.000000000000000D+00 0.000000000000000D+00 -.123388412568657D+03
 0.141943201983210D+03 0.967361255429380D+01 0.634180008743213D+02 0.201854148954208D+02
 0.104833623154105D+03 -.967361255429380D+01 -.634180008743213D+02 -.201854148954208D+02
 0.000000000000000D+00 0.000000000000000D+00 -.000000000000000D+00 -.000000000000000D+00
 0.130247242181977D+03 0.000000000000000D+00 0.000000000000000D+00 0.130247242181977D+03
 0.155728260588141D+03 0.000000000000000D+00 0.000000000000000D+00 -.155728260588141D+03
 0.142458678466232D+03 -.616782995319381D+01 0.649921685244730D+02 0.201854148954208D+02
 0.105869422952706D+03 -.214099631922669D+02 -.622517571123405D+02 -.201854148954208D+02
 0.376474013511802D+02 0.275777931454607D+02 -.274041141213248D+01 -.254810184061642D+02
0.293673238785D-03 0.000000000000D+00 0.000000000000D+00 0.265879278806D-02 0.000000000000D+00  5 2 -1 25 24 21 0 0.85072508D-01 0.42357742D-02 0.14807551D+05 0.14807551D+05 0.14807551D+05 0.12484624D+01  1  2  2  1  5  1        2 0.394066318069D+00 0.100000000000D+01
-.163113522348D-04 0.000000000000D+00 -.112778256287D-05 0.265879278806D-02 0.000000000000D+00  5 2 -1 25 24 21 2 0.85072508D-01 0.42357742D-02 0.14807551D+05 0.14807551D+05 0.14807551D+05 0.12484624D+01  1  2  3  1  5  1        2 -.341150347164D-01 0.100000000000D+01
0.203125089102D-04 0.000000000000D+00 0.000000000000D+00 0.265879278806D-02 0.000000000000D+00  5 2 -1 25 24 21 2 0.85072508D-01 0.42357742D-02 0.14807551D+05 0.14807551D+05 0.14807551D+05 0.12484624D+01  1  2 15  1  5  1        2 0.424834150272D-01 0.100000000000D+01
-.592888408008D-04 0.000000000000D+00 0.000000000000D+00 0.265879278806D-02 0.000000000000D+00  5 2 -1 25 24 21 2 0.85072508D-01 0.42357742D-02 0.14807551D+05 0.14807551D+05 0.14807551D+05 0.12484624D+01  1  2  4  1  5  1        2 -.124002034479D+00 0.100000000000D+01
  </mgrwgt>
  </event>
  <event>
  4     66 0.48098993E-03 0.57904203E+02 0.75467711E-02 0.12183353E+00
        2 -1    0    0  501    0 0.00000000E+00 0.00000000E+00 0.52201967E+03 0.52201976E+03 0.32000000E+00 0.0000E+00 0.9000E+01
       -1 -1    0    0    0  501 0.00000000E+00 0.00000000E+00 -.47952881E+02 0.47953949E+02 0.32000000E+00 0.0000E+00 0.9000E+01
       25  1    1    2    0    0 -.41539091E+02 0.41707829E+02 0.44530262E+03 0.46624507E+03 0.12500000E+03 0.0000E+00 0.9000E+01
       24  1    1    2    0    0 0.41539091E+02 -.41707829E+02 0.28764167E+02 0.10372865E+03 0.80419002E+02 0.0000E+00 0.9000E+01
#aMCatNLO 1  0  0  2  1 0.32175198D+02 0.00000000D+00  -5  5  0 0.00000000D+00 0.00000000D+00 0.00000000D+00 0.00000000D+00 0.00000000D+00
  <mgrwgt>
 0.3188337636D+00    9    2    0
 0.158217189782403D+03 0.000000000000000D+00 0.000000000000000D+00 0.158217189782403D+03
 0.158217189782403D+03 0.000000000000000D+00 0.000000000000000D+00 -.158217189782403D+03
 0.172687463300445D+03 -.415390905308184D+02 0.417078290712330D+02 0.103590158476469D+03
 0.143746916264361D+03 0.415390905308184D+02 -.417078290712330D+02 -.103590158476469D+03
 0.000000000000000D+00 -.000000000000000D+00 -.000000000000000D+00 -.000000000000000D+00
 0.171040994264517D+03 0.000000000000000D+00 0.000000000000000D+00 0.171040994264517D+03
 0.180586167184813D+03 0.000000000000000D+00 0.000000000000000D+00 -.180586167184813D+03
 0.170533745725422D+03 -.246748091887279D+02 0.460107736238235D+02 0.103590158476469D+03
 0.147532222204123D+03 0.558511820072051D+02 -.380560792690763D+02 -.103590158476469D+03
 0.335611935197854D+02 -.311763728184772D+02 -.795469435474722D+01 -.954517292029586D+01
0.402519222008D-03 0.000000000000D+00 0.000000000000D+00 0.142009071411D-02 0.000000000000D+00  5 2 -1 25 24 21 0 0.80310808D-01 0.73774560D-02 0.14140469D+05 0.14140469D+05 0.14140469D+05 0.12507547D+01  1  2  2  2  5  2       -1 0.252672538076D+00 0.100000000000D+01
-.201448875188D-04 0.000000000000D+00 -.154577979826D-05 0.142009071411D-02 0.000000000000D+00  5 2 -1 25 24 21 2 0.80310808D-01 0.73774560D-02 0.14140469D+05 0.14140469D+05 0.14140469D+05 0.12507547D+01  1  2  3  2  5  2       -1 -.197824721365D-01 0.100000000000D+01
0.276643025276D-04 0.000000000000D+00 0.000000000000D+00 0.142009071411D-02 0.000000000000D+00  5 2 -1 25 24 21 2 0.80310808D-01 0.73774560D-02 0.14140469D+05 0.14140469D+05 0.14140469D+05 0.12507547D+01  1  2 15  2  5  2       -1 0.271666095636D-01 0.100000000000D+01
0.386786621423D-03 0.000000000000D+00 0.000000000000D+00 0.142009071411D-02 0.000000000000D+00  5 2 -1 25 24 21 2 0.80310808D-01 0.86854977D-02 0.18589589D+05 0.18589589D+05 0.18589589D+05 0.12373380D+01  1  2 12  2  5  2       -1 0.292836019131D+00 0.100000000000D+01
-.375801416473D-03 0.000000000000D+00 0.000000000000D+00 0.142009071411D-02 0.000000000000D+00  5 2 -1 25 24 21 2 0.80310808D-01 0.73774560D-02 0.14140469D+05 0.14140469D+05 0.14140469D+05 0.12507547D+01  1  2  4  2  5  2       -1 -.369040583785D+00 0.100000000000D+01
-.828721554323D-03 0.000000000000D+00 -.259935590722D-03 0.142009071411D-02 0.000000000000D+00  5 2 -1 25 24 21 2 0.80310808D-01 0.90953701D-02 0.14140469D+05 0.14140469D+05 0.14140469D+05 0.12507547D+01  1  2  5  2  5  2       -1 -.593867094915D+00 0.100000000000D+01
0.869605321316D-03 0.000000000000D+00 0.254342336483D-03 0.142009071411D-02 0.000000000000D+00  5 2 -1 25 24 21 2 0.80310808D-01 0.73774560D-02 0.14140469D+05 0.14140469D+05 0.14140469D+05 0.12507547D+01  1  2  6  2  5  2       -1 0.853960739300D+00 0.100000000000D+01
0.944265272828D-05 0.000000000000D+00 0.000000000000D+00 0.142009071411D-02 0.000000000000D+00  5 2 21 25 24 1 2 0.80310808D-01 0.86854977D-02 0.18589589D+05 0.18589589D+05 0.18589589D+05 0.12373380D+01  1  2 12  4  5  2       -1 0.111266286850D+00 0.100000000000D+01
-.213194282328D-04 0.000000000000D+00 -.770229335918D-05 0.142009071411D-02 0.000000000000D+00  5 2 21 25 24 1 2 0.80310808D-01 0.90953701D-02 0.14140469D+05 0.14140469D+05 0.14140469D+05 0.12507547D+01  1  2  5  4  5  2       -1 -.236378278470D+00 0.100000000000D+01
  </mgrwgt>
  </event>
  <event>
  4     66 0.48098993E-03 0.87384008E+02 0.75467711E-02 0.12504610E+00
        2 -1    0    0  501    0 0.00000000E+00 0.00000000E+00 0.12750610E+03 0.12750651E+03 0.32000000E+00 0.0000E+00 0.9000E+01
       -1 -1    0    0    0  501 0.00000000E+00 0.00000000E+00 -.99573711E+02 0.99574225E+02 0.32000000E+00 0.0000E+00 0.9000E+01
       25  1    1    2    0    0 0.25998561E+02 -.20272187E+02 -.14998745E+02 0.13014165E+03 0.12500000E+03 0.0000E+00 0.9000E+01
       24  1    1    2    0    0 -.25998561E+02 0.20272187E+02 0.42931139E+02 0.96939081E+02 0.80419002E+02 0.0000E+00 0.9000E+01
#aMCatNLO 1  0  0  2  1 0.14670188D+02 0.00000000D+00  -5  5  0 0.00000000D+00 0.00000000D+00 0.00000000D+00 0.00000000D+00 0.00000000D+00
  <mgrwgt>
 0.4701143344D+00    6    2    0
 0.112678125294964D+03 0.000000000000000D+00 0.000000000000000D+00 0.112678125294964D+03
 0.112678125294964D+03 0.000000000000000D+00 0.000000000000000D+00 -.112678125294964D+03
 0.132996585558783D+03 0.259985607627604D+02 -.202721870242433D+02 -.312442801455530D+02
 0.923596650311443D+02 -.259985607627604D+02 0.202721870242433D+02 0.312442801455530D+02
 0.000000000000000D+00 -.000000000000000D+00 0.000000000000000D+00 0.000000000000000D+00
 0.121780014790797D+03 0.000000000000000D+00 0.000000000000000D+00 0.121780014790797D+03
 0.118986939003318D+03 0.000000000000000D+00 0.000000000000000D+00 -.118986939003318D+03
 0.135194814781067D+03 0.345522660544942D+02 -.219675627317352D+02 -.312442801455530D+02
 0.906384292194451D+02 -.201620135610793D+02 0.191153619988449D+02 0.312442801455530D+02
 0.149337097936025D+02 -.143902524934149D+02 0.285220073289027D+01 0.279307578747977D+01
0.301934863987D-03 0.000000000000D+00 0.000000000000D+00 0.275054292691D-02 0.000000000000D+00  5 2 -1 25 24 21 0 0.19616394D-01 0.15319103D-01 0.11684400D+05 0.11684400D+05 0.11684400D+05 0.12603829D+01  1  2  2  2  5  2       -1 0.281170827997D+00 0.100000000000D+01
-.167389825135D-04 0.000000000000D+00 -.115950937899D-05 0.275054292691D-02 0.000000000000D+00  5 2 -1 25 24 21 2 0.19616394D-01 0.15319103D-01 0.11684400D+05 0.11684400D+05 0.11684400D+05 0.12603829D+01  1  2  3  2  5  2       -1 -.247623055393D-01 0.100000000000D+01
0.208819285796D-04 0.000000000000D+00 0.000000000000D+00 0.275054292691D-02 0.000000000000D+00  5 2 -1 25 24 21 2 0.19616394D-01 0.15319103D-01 0.11684400D+05 0.11684400D+05 0.11684400D+05 0.12603829D+01  1  2 15  2  5  2       -1 0.308910470109D-01 0.100000000000D+01
0.335296114528D-03 0.000000000000D+00 0.000000000000D+00 0.275054292691D-02 0.000000000000D+00  5 2 -1 25 24 21 2 0.19616394D-01 0.16755615D-01 0.13373548D+05 0.13373548D+05 0.13373548D+05 0.12535452D+01  1  2 12  2  5  2       -1 0.428615067222D+00 0.100000000000D+01
-.223690827727D-03 0.000000000000D+00 0.000000000000D+00 0.275054292691D-02 0.000000000000D+00  5 2 -1 25 24 21 2 0.19616394D-01 0.15319103D-01 0.11684400D+05 0.11684400D+05 0.11684400D+05 0.12603829D+01  1  2  4  2  5  2       -1 -.330910234123D+00 0.100000000000D+01
0.495121282501D-05 0.000000000000D+00 0.000000000000D+00 0.275054292691D-02 0.000000000000D+00  5 2 21 25 24 1 2 0.19616394D-01 0.16755615D-01 0.13373548D+05 0.13373548D+05 0.13373548D+05 0.12535452D+01  1  2 12  4  5  2       -1 0.851099318452D-01 0.100000000000D+01
  </mgrwgt>
  </event>
  <event>
  4     66 0.48098993E-03 0.86986367E+02 0.75467711E-02 0.12681746E+00
        2 -1    0    0  501    0 0.00000000E+00 0.00000000E+00 0.50189668E+04 0.50189668E+04 0.32000000E+00 0.0000E+00 0.9000E+01
       -1 -1    0    0    0  501 0.00000000E+00 0.00000000E+00 -.22573317E+01 0.22799006E+01 0.32000000E+00 0.0000E+00 0.9000E+01
       25  1    1    2    0    0 -.15085287E+02 -.39996962E+01 0.24575083E+04 0.24607348E+04 0.12500000E+03 0.0000E+00 0.9000E+01
       24  1    1    2    0    0 0.15085287E+02 0.39996962E+01 0.25592011E+04 0.25605118E+04 0.80419002E+02 0.0000E+00 0.9000E+01
#aMCatNLO 1  0  0  1  2 0.40533491D+01 0.00000000D+00  -5  5  0 0.00000000D+00 0.00000000D+00 0.00000000D+00 0.00000000D+00 0.00000000D+00
  <mgrwgt>
 0.3069073533D+00   11    2    0
 0.106705951981487D+03 0.000000000000000D+00 0.000000000000000D+00 0.106705951981487D+03
 0.106705951981487D+03 0.000000000000000D+00 0.000000000000000D+00 -.106705951981487D+03
 0.128161606224697D+03 -.150852869244133D+02 -.399969624496920D+01 -.235973273582076D+02
 0.852502977382768D+02 0.150852869244133D+02 0.399969624496920D+01 0.235973273582076D+02
 0.000000000000000D+00 -.000000000000000D+00 0.000000000000000D+00 0.000000000000000D+00
 0.108880852596323D+03 0.000000000000000D+00 0.000000000000000D+00 0.108880852596323D+03
 0.108630607284259D+03 0.000000000000000D+00 0.000000000000000D+00 -.108630607284259D+03
 0.128006379696599D+03 -.131726914903645D+02 -.550268874998754D+01 -.235973273582076D+02
 0.854440135855454D+02 0.163597208052978D+02 0.299819611744041D+01 0.235973273582076D+02
 0.406106659843655D+01 -.318702931493329D+01 0.250449263254714D+01 0.250245312063887D+00
0.949298765051D-03 0.000000000000D+00 0.000000000000D+00 0.298186574450D-02 0.000000000000D+00  5 2 -1 25 24 21 0 0.77215047D+00 0.34901865D-03 0.10804546D+05 0.10804546D+05 0.10804546D+05 0.12644008D+01  1  2  2  1  5  1        2 0.486677641362D-01 0.100000000000D+01
-.526947506863D-04 0.000000000000D+00 -.364555721390D-05 0.298186574450D-02 0.000000000000D+00  5 2 -1 25 24 21 2 0.77215047D+00 0.34901865D-03 0.10804546D+05 0.10804546D+05 0.10804546D+05 0.12644008D+01  1  2  3  1  5  1        2 -.431892164576D-02 0.100000000000D+01
0.652572858067D-04 0.000000000000D+00 0.000000000000D+00 0.298186574450D-02 0.000000000000D+00  5 2 -1 25 24 21 2 0.77215047D+00 0.34901865D-03 0.10804546D+05 0.10804546D+05 0.10804546D+05 0.12644008D+01  1  2 15  1  5  1        2 0.534856129963D-02 0.100000000000D+01
0.617001084124D-04 0.000000000000D+00 0.000000000000D+00 0.298186574450D-02 0.000000000000D+00  5 2 -1 25 24 21 2 0.79471931D+00 0.34901865D-03 0.11234604D+05 0.11234604D+05 0.11234604D+05 0.12623926D+01  1  2 12  1  5  1        2 0.331373861617D-02 0.100000000000D+01
-.156004773307D-02 0.000000000000D+00 0.000000000000D+00 0.298186574450D-02 0.000000000000D+00  5 2 -1 25 24 21 2 0.77215047D+00 0.34901865D-03 0.10804546D+05 0.10804546D+05 0.10804546D+05 0.12644008D+01  1  2  4  1  5  1        2 -.127863284957D+00 0.100000000000D+01
-.120035423983D-01 0.000000000000D+00 -.151417950326D-02 0.298186574450D-02 0.000000000000D+00  5 2 -1 25 24 21 2 0.78954008D+00 0.34901865D-03 0.10804546D+05 0.10804546D+05 0.10804546D+05 0.12644008D+01  1  2  5  1  5  1        2 -.715817436710D+00 0.100000000000D+01
0.123211339533D-01 0.000000000000D+00 0.162880917109D-02 0.298186574450D-02 0.000000000000D+00  5 2 -1 25 24 21 2 0.77215047D+00 0.34901865D-03 0.10804546D+05 0.10804546D+05 0.10804546D+05 0.12644008D+01  1  2  6  1  5  1        2 0.100985413990D+01 0.100000000000D+01
0.147017393242D-02 0.000000000000D+00 0.000000000000D+00 0.298186574450D-02 0.154316262289D-02  5 2 -1 25 24 21 2 0.78788858D+00 0.35531390D-03 0.11234604D+05 0.11234604D+05 0.11234604D+05 0.12623926D+01  1  2 11  1  5  1        2 0.877526911187D-01 0.100000000000D+01
0.121873322919D-05 0.000000000000D+00 0.000000000000D+00 0.298186574450D-02 0.000000000000D+00  5 21 -1 25 24 -2 2 0.79471931D+00 0.34901865D-03 0.11234604D+05 0.11234604D+05 0.11234604D+05 0.12623926D+01  1  2 12  3  5  1        2 0.844163839627D-06 0.100000000000D+01
-.482177681515D-04 0.000000000000D+00 -.611694716024D-05 0.298186574450D-02 0.000000000000D+00  5 21 -1 25 24 -2 2 0.78954008D+00 0.34901865D-03 0.10804546D+05 0.10804546D+05 0.10804546D+05 0.12644008D+01  1  2  5  3  5  1        2 -.388938756872D-04 0.100000000000D+01
0.999420453912D-05 0.000000000000D+00 0.000000000000D+00 0.298186574450D-02 0.572026508587D-05  5 21 -1 25 24 -2 2 0.78788858D+00 0.35531390D-03 0.11234604D+05 0.11234604D+05 0.11234604D+05 0.12623926D+01  1  2 11  3  5  1        2 0.815124922416D-05 0.100000000000D+01
  </mgrwgt>
  </event>
  <event>
  5     66 0.48098993E-03 0.10842848E+03 0.75467711E-02 0.12248829E+00
       21 -1    0    0  501  502 0.00000000E+00 0.00000000E+00 0.15738665E+03 0.15738844E+03 0.75000000E+00 0.0000E+00 0.9000E+01
       -1 -1    0    0    0  501 0.00000000E+00 0.00000000E+00 -.15649734E+03 0.15649767E+03 0.32000000E+00 0.0000E+00 0.9000E+01
       25  1    1    2    0    0 0.27176472E+02 -.27455204E+02 0.12739307E+01 0.13083949E+03 0.12500000E+03 0.0000E+00 0.9000E+01
       24  1    1    2    0    0 0.13872928E+02 0.38388096E+02 0.60651031E+02 0.10868242E+03 0.80419002E+02 0.0000E+00 0.9000E+01
       -2  1    1    2    0  502 -.41049400E+02 -.10932893E+02 -.61035648E+02 0.74364199E+02 0.32000000E+00 0.0000E+00 0.9000E+01
#aMCatNLO 2  0  0  1  2 0.42480365D+02 0.00000000D+00  -5  5  0 0.00000000D+00 0.00000000D+00 0.00000000D+00 0.00000000D+00 0.00000000D+00
  <mgrwgt>
 0.4270532795D-01    1    2    0
 0.113722755529157D+03 0.000000000000000D+00 0.000000000000000D+00 0.113722755529157D+03
 0.113722755529157D+03 0.000000000000000D+00 0.000000000000000D+00 -.113722755529157D+03
 0.133854575240652D+03 0.311373235030695D+01 -.338639537155551D+02 -.336984364986973D+02
 0.935909358176628D+02 -.311373235030695D+01 0.338639537155551D+02 0.336984364986973D+02
 0.000000000000000D+00 -.000000000000000D+00 -.000000000000000D+00 -.000000000000000D+00
 0.120804251505510D+03 0.000000000000000D+00 0.000000000000000D+00 0.120804251505510D+03
 0.203890307999189D+03 0.000000000000000D+00 0.000000000000000D+00 -.203890307999189D+03
 0.135103417597939D+03 0.271764718900269D+02 -.274552035103889D+02 -.336984364986973D+02
 0.962751507988672D+02 0.138729284343802D+02 0.383880963473304D+02 0.336984364986973D+02
 0.933159911078931D+02 -.410494003244071D+02 -.109328928369415D+02 -.830860564936795D+02
0.127915658916D-04 0.000000000000D+00 0.000000000000D+00 0.269921851293D-02 0.212350144962D-06  5 21 -1 25 24 -2 2 0.24213441D-01 0.24076623D-01 0.17357874D+05 0.17357874D+05 0.17357874D+05 0.12406584D+01  1  2  1  3  5  1        2 0.427053279455D-01 0.100000000000D+01
  </mgrwgt>
  </event>
  <event>
  4     66 0.48098993E-03 0.36122353E+02 0.75467711E-02 0.12168525E+00
        2 -1    0    0  501    0 0.00000000E+00 0.00000000E+00 0.19058088E+04 0.19058088E+04 0.32000000E+00 0.0000E+00 0.9000E+01
       -1 -1    0    0    0  501 0.00000000E+00 0.00000000E+00 -.73676246E+01 0.73745706E+01 0.32000000E+00 0.0000E+00 0.9000E+01
       25  1    1    2    0    0 -.11778125E+02 0.53983708E+02 0.12487451E+04 0.12562015E+04 0.12500000E+03 0.0000E+00 0.9000E+01
       24  1    1    2    0    0 0.11778125E+02 -.53983708E+02 0.64969610E+03 0.65698189E+03 0.80419002E+02 0.0000E+00 0.9000E+01
#aMCatNLO 1  0  0  1  2 0.37545898D+02 0.00000000D+00  -5  5  0 0.00000000D+00 0.00000000D+00 0.00000000D+00 0.00000000D+00 0.00000000D+00
  <mgrwgt>
 0.1800990248D+01    8    2    0
 0.118524065055863D+03 0.000000000000000D+00 0.000000000000000D+00 0.118524065055863D+03
 0.118524065055863D+03 0.000000000000000D+00 0.000000000000000D+00 -.118524065055863D+03
 0.137840361795502D+03 -.117781247933093D+02 0.539837083308074D+02 0.179443682285703D+02
 0.992077683162237D+02 0.117781247933093D+02 -.539837083308074D+02 -.179443682285703D+02
 0.000000000000000D+00 -.000000000000000D+00 0.000000000000000D+00 0.000000000000000D+00
 0.234935735290475D+03 0.000000000000000D+00 0.000000000000000D+00 0.234935735290475D+03
 0.123067881959446D+03 0.000000000000000D+00 0.000000000000000D+00 -.123067881959446D+03
 0.131112479760937D+03 -.200759929005828D+01 0.352058452963442D+02 0.179443682285703D+02
 0.108890666945591D+03 0.193379299143329D+02 -.685128127359470D+02 -.179443682285703D+02
 0.118000470543393D+03 -.173303306242746D+02 0.333069674396029D+02 0.111867853331029D+03
0.262414308810D-03 0.000000000000D+00 0.000000000000D+00 0.275654129560D-02 0.000000000000D+00  5 2 -1 25 24 21 0 0.29320189D+00 0.11340171D-02 0.13716950D+05 0.13716950D+05 0.13716950D+05 0.12522741D+01  1  2  2  1  5  1        2 0.377943978319D+00 0.100000000000D+01
-.145760532250D-04 0.000000000000D+00 -.100774004110D-05 0.275654129560D-02 0.000000000000D+00  5 2 -1 25 24 21 2 0.29320189D+00 0.11340171D-02 0.13716950D+05 0.13716950D+05 0.13716950D+05 0.12522741D+01  1  2  3  1  5  1        2 -.329214260216D-01 0.100000000000D+01
0.181750113377D-04 0.000000000000D+00 0.000000000000D+00 0.275654129560D-02 0.000000000000D+00  5 2 -1 25 24 21 2 0.29320189D+00 0.11340171D-02 0.13716950D+05 0.13716950D+05 0.13716950D+05 0.12522741D+01  1  2 15  1  5  1        2 0.410500210146D-01 0.100000000000D+01
0.673227463988D-03 0.000000000000D+00 0.000000000000D+00 0.275654129560D-02 0.000000000000D+00  5 2 -1 25 24 21 2 0.58144429D+00 0.11340171D-02 0.18882409D+05 0.18882409D+05 0.18882409D+05 0.12365848D+01  1  2 12  1  5  1        2 0.124365964743D+00 0.100000000000D+01
-.723208739559D-03 0.000000000000D+00 -.715696712581D-04 0.275654129560D-02 0.000000000000D+00  5 2 -1 25 24 21 2 0.58449764D+00 0.11340171D-02 0.13716950D+05 0.13716950D+05 0.13716950D+05 0.12522741D+01  1  2  5  1  5  1        2 -.133844488186D+00 0.100000000000D+01
0.630657622805D-03 0.000000000000D+00 0.573675014783D-04 0.275654129560D-02 0.000000000000D+00  5 2 -1 25 24 21 2 0.29320189D+00 0.11340171D-02 0.13716950D+05 0.13716950D+05 0.13716950D+05 0.12522741D+01  1  2  6  1  5  1        2 0.142440123905D+01 0.100000000000D+01
0.498940680407D-04 0.000000000000D+00 0.000000000000D+00 0.275654129560D-02 0.000000000000D+00  5 21 -1 25 24 -2 2 0.58144429D+00 0.11340171D-02 0.18882409D+05 0.18882409D+05 0.18882409D+05 0.12365848D+01  1  2 12  3  5  1        2 0.537416266003D-03 0.100000000000D+01
-.497109276240D-04 0.000000000000D+00 -.534329568433D-05 0.275654129560D-02 0.000000000000D+00  5 21 -1 25 24 -2 2 0.58449764D+00 0.11340171D-02 0.13716950D+05 0.13716950D+05 0.13716950D+05 0.12522741D+01  1  2  5  3  5  1        2 -.542456900386D-03 0.100000000000D+01
  </mgrwgt>
  </event>
  <event>
  5     66 0.48098993E-03 0.19368656E+03 0.75467711E-02 0.11371848E+00
        4 -1    0    0  501    0 0.00000000E+00 0.00000000E+00 0.39272921E+03 0.39273227E+03 0.15500000E+01 0.0000E+00 0.9000E+01
       21 -1    0    0  502  501 0.00000000E+00 0.00000000E+00 -.15662457E+03 0.15662637E+03 0.75000000E+00 0.0000E+00 0.9000E+01
       25  1    1    2    0    0 0.18192224E+03 -.30407630E+02 0.69954103E+01 0.22292210E+03 0.12500000E+03 0.0000E+00 0.9000E+01
       24  1    1    2    0    0 -.14553550E+03 0.96564802E+01 0.10855033E+03 0.19880699E+03 0.80419002E+02 0.0000E+00 0.9000E+01
        3  1    1    2  502    0 -.36386739E+02 0.20751150E+02 0.12055889E+03 0.12762955E+03 0.50000000E+00 0.0000E+00 0.9000E+01
#aMCatNLO 2  0  0  2  2 0.41888005D+02 0.00000000D+00  -5  5  0 0.00000000D+00 0.00000000D+00 0.00000000D+00 0.00000000D+00 0.00000000D+00
  <mgrwgt>
 0.8975814032D-02    1    2    0
 0.201711428772719D+03 0.000000000000000D+00 0.000000000000000D+00 0.201711428772719D+03
 0.201711428772719D+03 0.000000000000000D+00 0.000000000000000D+00 -.201711428772719D+03
 0.213061534343520D+03 0.162003884011597D+03 -.190483045600501D+02 -.562327402440921D+02
 0.190361323201919D+03 -.162003884011597D+03 0.190483045600501D+02 0.562327402440921D+02
 0.000000000000000D+00 -.000000000000000D+00 0.000000000000000D+00 0.000000000000000D+00
 0.296474345283161D+03 0.000000000000000D+00 0.000000000000000D+00 0.296474345283161D+03
 0.207478355053770D+03 0.000000000000000D+00 0.000000000000000D+00 -.207478355053770D+03
 0.229798709162847D+03 0.181922240836010D+03 -.304076297457690D+02 -.562327402440921D+02
 0.175792966024913D+03 -.145535501734006D+03 0.965648016293967D+01 0.562327402440921D+02
 0.983610251491722D+02 -.363867391020035D+02 0.207511495828293D+02 0.889959902293910D+02
0.351024416020D-04 0.000000000000D+00 0.000000000000D+00 0.199905021149D-02 0.548426346794D-07  5 4 21 25 24 3 2 0.60420071D-01 0.24096389D-01 0.46495596D+05 0.46495596D+05 0.46495596D+05 0.11954199D+01  1  2  1  4  5  2       -3 0.897581403174D-02 0.100000000000D+01
  </mgrwgt>
  </event>
  <event>
  5     66 -.48098993E-03 0.81008937E+03 0.75467711E-02 0.95178746E-01
        2 -1    0    0  502    0 0.00000000E+00 0.00000000E+00 0.18137264E+04 0.18137265E+04 0.32000000E+00 0.0000E+00 0.9000E+01
       -1 -1    0    0    0  501 0.00000000E+00 0.00000000E+00 -.45743992E+03 0.45744003E+03 0.32000000E+00 0.0000E+00 0.9000E+01
       25  1    1    2    0    0 -.65823247E+03 -.47706151E+03 0.20648423E+03 0.84800850E+03 0.12500000E+03 0.0000E+00 0.9000E+01
       24  1    1    2    0    0 0.62261568E+03 0.49284502E+03 0.11127496E+04 0.13693887E+04 0.80419002E+02 0.0000E+00 0.9000E+01
       21  1    1    2  502  501 0.35616793E+02 -.15783509E+02 0.37052716E+02 0.53769335E+02 0.75000000E+00 0.0000E+00 0.9000E+01
#aMCatNLO 2  0  0  1  2 0.38957350D+02 0.00000000D+00  -5  5  0 0.00000000D+00 0.00000000D+00 0.00000000D+00 0.00000000D+00 0.00000000D+00
  <mgrwgt>
 -.3759503147D-01    3    2    0
 0.890920127729842D+03 0.000000000000000D+00 0.000000000000000D+00 0.890920127729842D+03
 0.890920127729842D+03 0.000000000000000D+00 0.000000000000000D+00 -.890920127729842D+03
 0.893489882234369D+03 -.640287745512256D+03 -.485013681880396D+03 -.370799812555024D+03
 0.888350373225315D+03 0.640287745512256D+03 0.485013681880396D+03 0.370799812555024D+03
 0.000000000000000D+00 0.000000000000000D+00 -.000000000000000D+00 0.000000000000000D+00
 0.914014102409236D+03 0.000000000000000D+00 0.000000000000000D+00 0.914014102409236D+03
 0.907715256567539D+03 0.000000000000000D+00 0.000000000000000D+00 -.907715256567539D+03
 0.902205728673216D+03 -.658232473679767D+03 -.477061512232271D+03 -.370799812555024D+03
 0.880060348852961D+03 0.622615680434273D+03 0.492845021437115D+03 0.370799812555024D+03
 0.394632814505988D+02 0.356167932454945D+02 -.157835092048442D+02 0.629884584169744D+01
-.482967872191D-01 0.000000000000D+00 0.000000000000D+00 0.157911439317D-02 0.000000000000D+00  5 2 -1 25 24 21 2 0.28154011D+00 0.69072983D-01 0.68854681D+06 0.68854681D+06 0.68854681D+06 0.10936413D+01  1  2 13  1  5  1        2 -.118695902506D+00 0.100000000000D+01
-.703957004843D-01 0.000000000000D+00 0.000000000000D+00 0.157911439317D-02 0.000000000000D+00  5 2 -1 25 24 21 2 0.27198354D+00 0.69072983D-01 0.65624479D+06 0.65624479D+06 0.65624479D+06 0.10952289D+01  1  2  8  1  5  1        2 -.188115627104D+00 0.100000000000D+01
0.111502809541D+00 0.000000000000D+00 0.000000000000D+00 0.157911439317D-02 0.664000168333D-05  5 2 -1 25 24 21 2 0.27903376D+00 0.70375108D-01 0.68854681D+06 0.68854681D+06 0.68854681D+06 0.10936413D+01  1  2  1  1  5  1        2 0.269216498140D+00 0.100000000000D+01
  </mgrwgt>
  </event>
  <event>
  4     66 0.48098993E-03 0.10472089E+03 0.75467711E-02 0.12612634E+00
        2 -1    0    0  501    0 0.00000000E+00 0.00000000E+00 0.24945928E+03 0.24945948E+03 0.32000000E+00 0.0000E+00 0.9000E+01
       -1 -1    0    0    0  501 0.00000000E+00 0.00000000E+00 -.62325009E+02 0.62325831E+02 0.32000000E+00 0.0000E+00 0.9000E+01
       25  1    1    2    0    0 -.19593138E+01 -.19861553E+02 0.19065649E+03 0.22885195E+03 0.12500000E+03 0.0000E+00 0.9000E+01
       24  1    1    2    0    0 0.19593138E+01 0.19861553E+02 -.35222204E+01 0.82933360E+02 0.80419002E+02 0.0000E+00 0.9000E+01
#aMCatNLO 1  0  0  1  2 0.96987990D+01 0.00000000D+00  -5  5  0 0.00000000D+00 0.00000000D+00 0.00000000D+00 0.00000000D+00 0.00000000D+00
  <mgrwgt>
 0.1767349955D+00    6    2    0
 0.124690464523653D+03 0.000000000000000D+00 0.000000000000000D+00 0.124690464523653D+03
 0.124690464523653D+03 0.000000000000000D+00 0.000000000000000D+00 -.124690464523653D+03
 0.143051499749190D+03 -.195931382319227D+01 -.198615532457709D+02 0.666364117618900D+02
 0.106329429298116D+03 0.195931382319227D+01 0.198615532457709D+02 -.666364117618900D+02
 0.000000000000000D+00 -.000000000000000D+00 0.000000000000000D+00 -.000000000000000D+00
 0.126510051003240D+03 0.000000000000000D+00 0.000000000000000D+00 0.126510051003240D+03
 0.138415041083467D+03 0.000000000000000D+00 0.000000000000000D+00 -.138415041083467D+03
 0.143883618556102D+03 -.468488974275899D+00 -.252361810577336D+02 0.666364117618900D+02
 0.105685839661843D+03 0.306087864098810D+01 0.158902611716493D+02 -.666364117618900D+02
 0.153556338687626D+02 -.259238966671220D+01 0.934591988608426D+01 -.119049900802272D+02
0.368917652276D-03 0.000000000000D+00 0.000000000000D+00 0.202593123170D-02 0.000000000000D+00  5 2 -1 25 24 21 0 0.38378429D-01 0.95885420D-02 0.10966465D+05 0.10966465D+05 0.10966465D+05 0.12636343D+01  1  2  2  1  5  1        2 0.339224621010D+00 0.100000000000D+01
-.197363108415D-04 0.000000000000D+00 -.141674092299D-05 0.202593123170D-02 0.000000000000D+00  5 2 -1 25 24 21 2 0.38378429D-01 0.95885420D-02 0.10966465D+05 0.10966465D+05 0.10966465D+05 0.12636343D+01  1  2  3  1  5  1        2 -.289778869432D-01 0.100000000000D+01
0.253300497722D-04 0.000000000000D+00 0.000000000000D+00 0.202593123170D-02 0.000000000000D+00  5 2 -1 25 24 21 2 0.38378429D-01 0.95885420D-02 0.10966465D+05 0.10966465D+05 0.10966465D+05 0.12636343D+01  1  2 15  1  5  1        2 0.371909078886D-01 0.100000000000D+01
-.116262600811D-03 0.000000000000D+00 0.000000000000D+00 0.202593123170D-02 0.000000000000D+00  5 2 -1 25 24 21 2 0.38378429D-01 0.95885420D-02 0.10966465D+05 0.10966465D+05 0.10966465D+05 0.12636343D+01  1  2  4  1  5  1        2 -.170702849641D+00 0.100000000000D+01
0.134360235529D-09 0.000000000000D+00 0.000000000000D+00 0.202593123170D-02 0.183034713665D-03  5 2 -1 25 24 21 2 0.38938479D-01 0.10643945D-01 0.12017934D+05 0.12017934D+05 0.12017934D+05 0.12589481D+01  1  2 11  1  5  1        2 0.165160691853D-06 0.100000000000D+01
0.769092174812D-11 0.000000000000D+00 0.000000000000D+00 0.202593123170D-02 0.513510948124D-06  5 21 -1 25 24 -2 2 0.38938479D-01 0.10643945D-01 0.12017934D+05 0.12017934D+05 0.12017934D+05 0.12589481D+01  1  2 11  3  5  1        2 0.380168325946D-07 0.100000000000D+01
  </mgrwgt>
  </event>
  <event>
  4     66 0.48098993E-03 0.56281357E+02 0.75467711E-02 0.12436108E+00
        2 -1    0    0  501    0 0.00000000E+00 0.00000000E+00 0.15580127E+04 0.15580128E+04 0.32000000E+00 0.0000E+00 0.9000E+01
       -1 -1    0    0    0  501 0.00000000E+00 0.00000000E+00 -.88501290E+01 0.88559123E+01 0.32000000E+00 0.0000E+00 0.9000E+01
       25  1    1    2    0    0 -.16342926E+02 -.48927419E+02 0.75913516E+03 0.77108506E+03 0.12500000E+03 0.0000E+00 0.9000E+01
       24  1    1    2    0    0 0.16342926E+02 0.48927419E+02 0.79002745E+03 0.79578362E+03 0.80419002E+02 0.0000E+00 0.9000E+01
#aMCatNLO 1  0  0  1  2 0.84552167D+01 0.00000000D+00  -5  5  0 0.00000000D+00 0.00000000D+00 0.00000000D+00 0.00000000D+00 0.00000000D+00
  <mgrwgt>
 0.5513021838D+00   11    2    0
 0.117444328265408D+03 0.000000000000000D+00 0.000000000000000D+00 0.117444328265408D+03
 0.117444328265408D+03 0.000000000000000D+00 0.000000000000000D+00 -.117444328265408D+03
 0.136938211411757D+03 -.163429255798474D+02 -.489274190404376D+02 -.215891221262950D+02
 0.979504451190581D+02 0.163429255798474D+02 0.489274190404376D+02 0.215891221262950D+02
 0.000000000000000D+00 0.000000000000000D+00 -.000000000000000D+00 0.000000000000000D+00
 0.135683312880393D+03 0.000000000000000D+00 0.000000000000000D+00 0.135683312880393D+03
 0.118504413414936D+03 0.000000000000000D+00 0.000000000000000D+00 -.118504413414936D+03
 0.136958253037591D+03 -.209562344981343D+02 -.471943758999318D+02 -.215891221262950D+02
 0.980825341803707D+02 0.130410914597956D+02 0.501677914226471D+02 0.215891221262950D+02
 0.191469390773661D+02 0.791514303833868D+01 -.297341552271534D+01 0.171788994654571D+02
0.176588808938D-03 0.000000000000D+00 0.000000000000D+00 0.275183077084D-02 0.000000000000D+00  5 2 -1 25 24 21 0 0.23969471D+00 0.13620057D-02 0.13313385D+05 0.13313385D+05 0.13313385D+05 0.12537717D+01  1  2  2  1  5  1        2 0.294242426972D+00 0.100000000000D+01
-.980675165917D-05 0.000000000000D+00 -.678147523225D-06 0.275183077084D-02 0.000000000000D+00  5 2 -1 25 24 21 2 0.23969471D+00 0.13620057D-02 0.13313385D+05 0.13313385D+05 0.13313385D+05 0.12537717D+01  1  2  3  1  5  1        2 -.256864581597D-01 0.100000000000D+01
0.122147727565D-04 0.000000000000D+00 0.000000000000D+00 0.275183077084D-02 0.000000000000D+00  5 2 -1 25 24 21 2 0.23969471D+00 0.13620057D-02 0.13313385D+05 0.13313385D+05 0.13313385D+05 0.12537717D+01  1  2 15  1  5  1        2 0.319936978364D-01 0.100000000000D+01
0.133692397573D-02 0.000000000000D+00 0.000000000000D+00 0.275183077084D-02 0.000000000000D+00  5 2 -1 25 24 21 2 0.27789510D+00 0.13620057D-02 0.14325482D+05 0.14325482D+05 0.14325482D+05 0.12501070D+01  1  2 12  1  5  1        2 0.260593233950D+01 0.100000000000D+01
-.135043192707D-02 0.000000000000D+00 0.000000000000D+00 0.275183077084D-02 0.000000000000D+00  5 2 -1 25 24 21 2 0.23969471D+00 0.13620057D-02 0.13313385D+05 0.13313385D+05 0.13313385D+05 0.12537717D+01  1  2  4  1  5  1        2 -.353713588329D+01 0.100000000000D+01
-.177576785383D-02 0.000000000000D+00 -.152478737733D-03 0.275183077084D-02 0.000000000000D+00  5 2 -1 25 24 21 2 0.27781384D+00 0.13620057D-02 0.13313385D+05 0.13313385D+05 0.13313385D+05 0.12537717D+01  1  2  5  1  5  1        2 -.347817495030D+01 0.100000000000D+01
0.178049111557D-02 0.000000000000D+00 0.150833077952D-03 0.275183077084D-02 0.000000000000D+00  5 2 -1 25 24 21 2 0.23969471D+00 0.13620057D-02 0.13313385D+05 0.13313385D+05 0.13313385D+05 0.12537717D+01  1  2  6  1  5  1        2 0.466357384519D+01 0.100000000000D+01
0.193764993529D-05 0.000000000000D+00 0.000000000000D+00 0.275183077084D-02 0.324207293283D-03  5 2 -1 25 24 21 2 0.27691906D+00 0.13742995D-02 0.14325482D+05 0.14325482D+05 0.14325482D+05 0.12501070D+01  1  2 11  1  5  1        2 0.375648654141D-02 0.100000000000D+01
0.301462994148D-04 0.000000000000D+00 0.000000000000D+00 0.275183077084D-02 0.000000000000D+00  5 21 -1 25 24 -2 2 0.27789510D+00 0.13620057D-02 0.14325482D+05 0.14325482D+05 0.14325482D+05 0.12501070D+01  1  2 12  3  5  1        2 0.236729503187D-01 0.100000000000D+01
-.389496516476D-04 0.000000000000D+00 -.343272242864D-05 0.275183077084D-02 0.000000000000D+00  5 21 -1 25 24 -2 2 0.27781384D+00 0.13620057D-02 0.13313385D+05 0.13313385D+05 0.13313385D+05 0.12537717D+01  1  2  5  3  5  1        2 -.309067298218D-01 0.100000000000D+01
0.438923019382D-07 0.000000000000D+00 0.000000000000D+00 0.275183077084D-02 0.723231742885D-05  5 21 -1 25 24 -2 2 0.27691906D+00 0.13742995D-02 0.14325482D+05 0.14325482D+05 0.14325482D+05 0.12501070D+01  1  2 11  3  5  1        2 0.344590371899D-04 0.100000000000D+01
  </mgrwgt>
  </event>
  <event>
  4     66 0.48098993E-03 0.66731750E+02 0.75467711E-02 0.12131705E+00
        2 -1    0    0  501    0 0.00000000E+00 0.00000000E+00 0.37599560E+04 0.37599560E+04 0.32000000E+00 0.0000E+00 0.9000E+01
       -1 -1    0    0    0  501 0.00000000E+00 0.00000000E+00 -.51178920E+01 0.51278864E+01 0.32000000E+00 0.0000E+00 0.9000E+01
       25  1    1    2    0    0 0.13475719E+02 -.89211979E+02 0.23534334E+04 0.23584771E+04 0.12500000E+03 0.0000E+00 0.9000E+01
       24  1    1    2    0    0 -.13475719E+02 0.89211979E+02 0.14014047E+04 0.14066068E+04 0.80419002E+02 0.0000E+00 0.9000E+01
#aMCatNLO 1  0  0  1  2 0.51728182D+01 0.00000000D+00  -5  5  0 0.00000000D+00 0.00000000D+00 0.00000000D+00 0.00000000D+00 0.00000000D+00
  <mgrwgt>
 0.3475314546D+00   11    2    0
 0.138787208166360D+03 0.000000000000000D+00 0.000000000000000D+00 0.138787208166360D+03
 0.138787208166360D+03 0.000000000000000D+00 0.000000000000000D+00 -.138787208166360D+03
 0.155283296254414D+03 0.134757194620062D+02 -.892119788870148D+02 0.186421539442276D+02
 0.122291120078306D+03 -.134757194620062D+02 0.892119788870148D+02 -.186421539442276D+02
 0.000000000000000D+00 0.000000000000000D+00 0.000000000000000D+00 0.000000000000000D+00
 0.187291885283017D+03 0.000000000000000D+00 0.000000000000000D+00 0.187291885283017D+03
 0.138949289297186D+03 0.000000000000000D+00 0.000000000000000D+00 -.138949289297186D+03
 0.156958912916083D+03 0.133368668623872D+02 -.921178507261933D+02 0.186421539442276D+02
 0.120663699006465D+03 -.135837602945045D+02 0.869509278624058D+02 -.186421539442276D+02
 0.486185626576555D+02 0.246893432117313D+00 0.516692286378749D+01 0.483425959858304D+02
0.100223376147D-02 0.000000000000D+00 0.000000000000D+00 0.247294006663D-02 0.000000000000D+00  5 2 -1 25 24 21 0 0.57845554D+00 0.78813785D-03 0.18909285D+05 0.18909285D+05 0.18909285D+05 0.12365163D+01  1  2  2  1  5  1        2 0.209797566675D+00 0.100000000000D+01
-.556738763588D-04 0.000000000000D+00 -.384884153827D-05 0.247294006663D-02 0.000000000000D+00  5 2 -1 25 24 21 2 0.57845554D+00 0.78813785D-03 0.18909285D+05 0.18909285D+05 0.18909285D+05 0.12365163D+01  1  2  3  1  5  1        2 -.178189703403D-01 0.100000000000D+01
0.691544640799D-04 0.000000000000D+00 0.000000000000D+00 0.247294006663D-02 0.000000000000D+00  5 2 -1 25 24 21 2 0.57845554D+00 0.78813785D-03 0.18909285D+05 0.18909285D+05 0.18909285D+05 0.12365163D+01  1  2 15  1  5  1        2 0.221335646974D-01 0.100000000000D+01
0.160975294168D-01 0.000000000000D+00 0.000000000000D+00 0.247294006663D-02 0.000000000000D+00  5 2 -1 25 24 21 2 0.78087204D+00 0.78813785D-03 0.19633005D+05 0.19633005D+05 0.19633005D+05 0.12347125D+01  1  2 12  1  5  1        2 0.329832159752D+00 0.100000000000D+01
-.364089332021D-01 0.000000000000D+00 0.000000000000D+00 0.247294006663D-02 0.000000000000D+00  5 2 -1 25 24 21 2 0.57845554D+00 0.78813785D-03 0.18909285D+05 0.18909285D+05 0.18909285D+05 0.12365163D+01  1  2  4  1  5  1        2 -.116530362763D+02 0.100000000000D+01
-.348117621073D-01 0.000000000000D+00 -.262774209836D-03 0.247294006663D-02 0.000000000000D+00  5 2 -1 25 24 21 2 0.78070490D+00 0.78813785D-03 0.18909285D+05 0.18909285D+05 0.18909285D+05 0.12365163D+01  1  2  5  1  5  1        2 -.719207138675D+00 0.100000000000D+01
0.368619429667D-01 0.000000000000D+00 0.277758163152D-03 0.247294006663D-02 0.000000000000D+00  5 2 -1 25 24 21 2 0.57845554D+00 0.78813785D-03 0.18909285D+05 0.18909285D+05 0.18909285D+05 0.12365163D+01  1  2  6  1  5  1        2 0.117980264959D+02 0.100000000000D+01
0.183839990524D-01 0.000000000000D+00 0.000000000000D+00 0.247294006663D-02 0.786011799813D-03  5 2 -1 25 24 21 2 0.78061970D+00 0.78905826D-03 0.19633005D+05 0.19633005D+05 0.19633005D+05 0.12347125D+01  1  2 11  1  5  1        2 0.377809733369D+00 0.100000000000D+01
0.622328467846D-03 0.000000000000D+00 0.000000000000D+00 0.247294006663D-02 0.000000000000D+00  5 21 -1 25 24 -2 2 0.78087204D+00 0.78813785D-03 0.19633005D+05 0.19633005D+05 0.19633005D+05 0.12347125D+01  1  2 12  3  5  1        2 0.176003485302D-03 0.100000000000D+01
-.133923773919D-02 0.000000000000D+00 -.101535807562D-04 0.247294006663D-02 0.000000000000D+00  5 21 -1 25 24 -2 2 0.78070490D+00 0.78813785D-03 0.18909285D+05 0.18909285D+05 0.18909285D+05 0.12365163D+01  1  2  5  3  5  1        2 -.383555450859D-03 0.100000000000D+01
0.710186611095D-03 0.000000000000D+00 0.000000000000D+00 0.247294006663D-02 0.303569665929D-04  5 21 -1 25 24 -2 2 0.78061970D+00 0.78905826D-03 0.19633005D+05 0.19633005D+05 0.19633005D+05 0.12347125D+01  1  2 11  3  5  1        2 0.201871508765D-03 0.100000000000D+01
  </mgrwgt>
  </event>
  <event>
  4     66 0.48098993E-03 0.84590181E+02 0.75467711E-02 0.11620586E+00
        4 -1    0    0  501    0 0.00000000E+00 0.00000000E+00 0.55486415E+02 0.55508061E+02 0.15500000E+01 0.0000E+00 0.9000E+01
       -3 -1    0    0    0  501 0.00000000E+00 0.00000000E+00 -.41254815E+03 0.41254845E+03 0.50000000E+00 0.0000E+00 0.9000E+01
       25  1    1    2    0    0 -.93054985E+02 -.52612373E+02 -.23585948E+03 0.28754475E+03 0.12500000E+03 0.0000E+00 0.9000E+01
       24  1    1    2    0    0 0.93054985E+02 0.52612373E+02 -.12120225E+03 0.18051176E+03 0.80419002E+02 0.0000E+00 0.9000E+01
#aMCatNLO 1  0  0  1  2 0.66513593D+02 0.00000000D+00  -5  5  0 0.00000000D+00 0.00000000D+00 0.00000000D+00 0.00000000D+00 0.00000000D+00
  <mgrwgt>
 0.7276956485D-01    9    2    0
 0.151314091096894D+03 0.000000000000000D+00 0.000000000000000D+00 0.151314091096894D+03
 0.151314091096894D+03 0.000000000000000D+00 0.000000000000000D+00 -.151314091096894D+03
 0.166444512823059D+03 -.930549849638374D+02 -.526123728277477D+02 -.255241816268303D+02
 0.136183669370728D+03 0.930549849638374D+02 0.526123728277477D+02 0.255241816268303D+02
 0.000000000000000D+00 -.000000000000000D+00 -.000000000000000D+00 0.000000000000000D+00
 0.223676352765506D+03 0.000000000000000D+00 0.000000000000000D+00 0.223676352765506D+03
 0.171013015504907D+03 0.000000000000000D+00 0.000000000000000D+00 -.171013015504907D+03
 0.154846477533386D+03 -.857857202009077D+02 -.184866970113528D+02 -.255241816268303D+02
 0.155004897567013D+03 0.996431771402200D+02 0.835407428568410D+02 0.255241816268303D+02
 0.848379931700140D+02 -.138574569393123D+02 -.650540458454881D+02 0.526633372605989D+02
0.125570476466D-02 0.000000000000D+00 0.000000000000D+00 0.233645610519D-02 0.000000000000D+00  5 4 -3 25 24 21 0 0.85380599D-02 0.63470634D-01 0.22237694D+05 0.22237694D+05 0.22237694D+05 0.12287873D+01  1  2  2  1  5  1        4 0.608298921803D-01 0.100000000000D+01
-.697433309867D-04 0.000000000000D+00 -.482223693096D-05 0.233645610519D-02 0.000000000000D+00  5 4 -3 25 24 21 2 0.85380599D-02 0.63470634D-01 0.22237694D+05 0.22237694D+05 0.22237694D+05 0.12287873D+01  1  2  3  1  5  1        4 -.510135557876D-02 0.100000000000D+01
0.867631129285D-04 0.000000000000D+00 0.000000000000D+00 0.233645610519D-02 0.000000000000D+00  5 4 -3 25 24 21 2 0.85380599D-02 0.63470634D-01 0.22237694D+05 0.22237694D+05 0.22237694D+05 0.12287873D+01  1  2 15  1  5  1        4 0.634626255882D-02 0.100000000000D+01
0.857211152298D-03 0.000000000000D+00 0.000000000000D+00 0.233645610519D-02 0.000000000000D+00  5 4 -3 25 24 21 2 0.12964870D-01 0.63470634D-01 0.34620352D+05 0.34620352D+05 0.34620352D+05 0.12084229D+01  1  2 12  1  5  1        4 0.307999533670D-01 0.100000000000D+01
-.114770120871D-02 0.000000000000D+00 0.000000000000D+00 0.233645610519D-02 0.000000000000D+00  5 4 -3 25 24 21 2 0.85380599D-02 0.63470634D-01 0.22237694D+05 0.22237694D+05 0.22237694D+05 0.12287873D+01  1  2  4  1  5  1        4 -.839482697625D-01 0.100000000000D+01
-.143184242356D-02 0.000000000000D+00 -.545149678700D-03 0.233645610519D-02 0.000000000000D+00  5 4 -3 25 24 21 2 0.14194687D-01 0.63470634D-01 0.22237694D+05 0.22237694D+05 0.22237694D+05 0.12287873D+01  1  2  5  1  5  1        4 -.440820529880D-01 0.100000000000D+01
0.156583050279D-02 0.000000000000D+00 0.481577604214D-03 0.233645610519D-02 0.000000000000D+00  5 4 -3 25 24 21 2 0.85380599D-02 0.63470634D-01 0.22237694D+05 0.22237694D+05 0.22237694D+05 0.12287873D+01  1  2  6  1  5  1        4 0.114532214877D+00 0.100000000000D+01
0.421277431831D-04 0.000000000000D+00 0.000000000000D+00 0.233645610519D-02 0.000000000000D+00  5 21 -3 25 24 -4 2 0.12964870D-01 0.63470634D-01 0.34620352D+05 0.34620352D+05 0.34620352D+05 0.12084229D+01  1  2 12  3  5  1        4 0.379431280842D-01 0.100000000000D+01
-.567528089811D-04 0.000000000000D+00 -.311438840883D-04 0.233645610519D-02 0.000000000000D+00  5 21 -3 25 24 -4 2 0.14194687D-01 0.63470634D-01 0.22237694D+05 0.22237694D+05 0.22237694D+05 0.12287873D+01  1  2  5  3  5  1        4 -.445502078913D-01 0.100000000000D+01
  </mgrwgt>
  </event>
  <event>
  5     66 0.48098993E-03 0.15667358E+03 0.75467711E-02 0.11307700E+00
        2 -1    0    0  501    0 0.00000000E+00 0.00000000E+00 0.70075750E+03 0.70075758E+03 0.32000000E+00 0.0000E+00 0.9000E+01
       21 -1    0    0  502  501 0.00000000E+00 0.00000000E+00 -.20747961E+03 0.20748097E+03 0.75000000E+00 0.0000E+00 0.9000E+01
       25  1    1    2    0    0 0.13258460E+03 -.11187132E+03 0.31076785E+03 0.37722079E+03 0.12500000E+03 0.0000E+00 0.9000E+01
       24  1    1    2    0    0 -.20212071E+02 0.85713525E+02 0.32586365E+03 0.34700097E+03 0.80419002E+02 0.0000E+00 0.9000E+01
        1  1    1    2  502    0 -.11237253E+03 0.26157798E+02 -.14335362E+03 0.18401678E+03 0.32000000E+00 0.0000E+00 0.9000E+01
#aMCatNLO 2  0  0  2  1 0.11537684D+03 0.00000000D+00  -5  5  0 0.00000000D+00 0.00000000D+00 0.00000000D+00 0.00000000D+00 0.00000000D+00
  <mgrwgt>
 0.4501086037D+00    2    2    0
 0.162700393412199D+03 0.000000000000000D+00 0.000000000000000D+00 0.162700393412199D+03
 0.162700393412199D+03 0.000000000000000D+00 0.000000000000000D+00 -.162700393412199D+03
 0.176771939051349D+03 0.663976106091681D+02 -.964644798563747D+02 -.436953071554172D+02
 0.148628847773050D+03 -.663976106091681D+02 0.964644798563747D+02 0.436953071554172D+02
 0.000000000000000D+00 -.000000000000000D+00 0.000000000000000D+00 -.000000000000000D+00
 0.177783051623075D+03 0.000000000000000D+00 0.000000000000000D+00 0.177783051623075D+03
 0.817814080418645D+03 0.000000000000000D+00 0.000000000000000D+00 -.817814080418645D+03
 0.218238742372644D+03 0.132584599496538D+03 -.111871322425945D+03 -.436953071554172D+02
 0.127011149099378D+03 -.202120711595964D+02 0.857135249141410D+02 0.436953071554172D+02
 0.650347240569698D+03 -.112372528336941D+03 0.261577975118042D+02 -.640031028795570D+03
-.817163996718D-04 0.000000000000D+00 0.000000000000D+00 0.216588454464D-02 0.000000000000D+00  5 2 21 25 24 1 2 0.98662700D-01 0.30582644D-01 0.50277948D+05 0.50277948D+05 0.50277948D+05 0.11920434D+01  1  2 13  4  5  2       -1 -.692595522394D-01 0.100000000000D+01
0.741080697435D-03 0.000000000000D+00 0.000000000000D+00 0.216588454464D-02 0.757527099079D-06  5 2 21 25 24 1 2 0.10780893D+00 0.31920044D-01 0.50277948D+05 0.50277948D+05 0.50277948D+05 0.11920434D+01  1  2  1  4  5  2       -1 0.519368155962D+00 0.100000000000D+01
  </mgrwgt>
  </event>
  <event>
  4     66 0.48098993E-03 0.18574610E+03 0.75467711E-02 0.11613501E+00
        2 -1    0    0  501    0 0.00000000E+00 0.00000000E+00 0.12441240E+04 0.12441241E+04 0.32000000E+00 0.0000E+00 0.9000E+01
       -1 -1    0    0    0  501 0.00000000E+00 0.00000000E+00 -.30612627E+02 0.30614299E+02 0.32000000E+00 0.0000E+00 0.9000E+01
       25  1    1    2    0    0 0.15159940E+03 -.25001054E+02 0.44806311E+03 0.48989078E+03 0.12500000E+03 0.0000E+00 0.9000E+01
       24  1    1    2    0    0 -.15159940E+03 0.25001054E+02 0.76544830E+03 0.78484759E+03 0.80419002E+02 0.0000E+00 0.9000E+01
#aMCatNLO 1  0  0  2  1 0.21722152D+01 0.00000000D+00  -5  5  0 0.00000000D+00 0.00000000D+00 0.00000000D+00 0.00000000D+00 0.00000000D+00
  <mgrwgt>
 0.4300747774D+00    6    2    0
 0.195158901845115D+03 0.000000000000000D+00 0.000000000000000D+00 0.195158901845115D+03
 0.195158901845115D+03 0.000000000000000D+00 0.000000000000000D+00 -.195158901845115D+03
 0.206890091095321D+03 0.151599395013910D+03 -.250010539495036D+02 -.597585184409787D+02
 0.183427712594910D+03 -.151599395013910D+03 0.250010539495036D+02 0.597585184409787D+02
 0.000000000000000D+00 -.000000000000000D+00 0.000000000000000D+00 0.000000000000000D+00
 0.197637612324843D+03 0.000000000000000D+00 0.000000000000000D+00 0.197637612324843D+03
 0.195638409627298D+03 0.000000000000000D+00 0.000000000000000D+00 -.195638409627298D+03
 0.207396864102678D+03 0.152117640664757D+03 -.260307916120819D+02 -.597585184409787D+02
 0.182926983998595D+03 -.151141109456533D+03 0.240904550899173D+02 0.597585184409787D+02
 0.295217385086833D+01 -.976531208224084D+00 0.194033652216457D+01 0.199920269754457D+01
0.842204483694D-03 0.000000000000D+00 0.000000000000D+00 0.198468581424D-02 0.000000000000D+00  5 2 -1 25 24 21 0 0.19140383D+00 0.47097667D-02 0.34501615D+05 0.34501615D+05 0.34501615D+05 0.12085770D+01  1  2  2  2  5  2       -1 0.345365476814D+00 0.100000000000D+01
-.466501211046D-04 0.000000000000D+00 -.323428697492D-05 0.198468581424D-02 0.000000000000D+00  5 2 -1 25 24 21 2 0.19140383D+00 0.47097667D-02 0.34501615D+05 0.34501615D+05 0.34501615D+05 0.12085770D+01  1  2  3  2  5  2       -1 -.279423410770D-01 0.100000000000D+01
0.580731467329D-04 0.000000000000D+00 0.000000000000D+00 0.198468581424D-02 0.000000000000D+00  5 2 -1 25 24 21 2 0.19140383D+00 0.47097667D-02 0.34501615D+05 0.34501615D+05 0.34501615D+05 0.12085770D+01  1  2 15  2  5  2       -1 0.347844686145D-01 0.100000000000D+01
-.172305335319D-02 0.000000000000D+00 0.000000000000D+00 0.198468581424D-02 0.000000000000D+00  5 2 -1 25 24 21 2 0.19140383D+00 0.47097667D-02 0.34501615D+05 0.34501615D+05 0.34501615D+05 0.12085770D+01  1  2  4  2  5  2       -1 -.103206901395D+01 0.100000000000D+01
0.172305243088D-02 0.000000000000D+00 0.000000000000D+00 0.198468581424D-02 0.327404559556D-02  5 2 -1 25 24 21 2 0.19383485D+00 0.47213387D-02 0.34906194D+05 0.34906194D+05 0.34906194D+05 0.12080544D+01  1  2 11  2  5  2       -1 0.100705970829D+01 0.100000000000D+01
0.100513899673D-04 0.000000000000D+00 0.000000000000D+00 0.198468581424D-02 0.150814382813D-05  5 2 21 25 24 1 2 0.19383485D+00 0.47213387D-02 0.34906194D+05 0.34906194D+05 0.34906194D+05 0.12080544D+01  1  2 11  4  5  2       -1 0.102876478697D+00 0.100000000000D+01
  </mgrwgt>
  </event>
  <event>
  4     66 0.48098993E-03 0.52393353E+02 0.75467711E-02 0.11828010E+00
        4 -1    0    0  501    0 0.00000000E+00 0.00000000E+00 0.17523581E+02 0.17591998E+02 0.15500000E+01 0.0000E+00 0.9000E+01
       -3 -1    0    0    0  501 0.00000000E+00 0.00000000E+00 -.10951709E+04 0.10951711E+04 0.50000000E+00 0.0000E+00 0.9000E+01
       25  1    1    2    0    0 0.44038072E+02 0.80607351E+02 -.58547709E+03 0.60567757E+03 0.12500000E+03 0.0000E+00 0.9000E+01
       24  1    1    2    0    0 -.44038072E+02 -.80607351E+02 -.49217027E+03 0.50708549E+03 0.80419002E+02 0.0000E+00 0.9000E+01
#aMCatNLO 1  0  0  1  2 0.49146704D+02 0.00000000D+00  -5  5  0 0.00000000D+00 0.00000000D+00 0.00000000D+00 0.00000000D+00 0.00000000D+00
  <mgrwgt>
 0.7411577564D-01    9    2    0
 0.138670276421776D+03 0.000000000000000D+00 0.000000000000000D+00 0.138670276421776D+03
 0.138670276421776D+03 0.000000000000000D+00 0.000000000000000D+00 -.138670276421776D+03
 0.155180274602236D+03 0.440380718327405D+02 0.806073512407523D+02 0.436128201674830D+01
 0.122160278241316D+03 -.440380718327405D+02 -.806073512407523D+02 -.436128201674830D+01
 0.000000000000000D+00 -.000000000000000D+00 0.000000000000000D+00 0.000000000000000D+00
 0.207152751640532D+03 0.000000000000000D+00 0.000000000000000D+00 0.207152751640532D+03
 0.149935546185598D+03 0.000000000000000D+00 0.000000000000000D+00 -.149935546185598D+03
 0.155557999661462D+03 0.661824874127333D+02 0.646076530893155D+02 0.436128201674830D+01
 0.126103465192536D+03 -.263458338196705D+02 -.933902791446273D+02 -.436128201674830D+01
 0.754268329721311D+02 -.398366535930628D+02 0.287826260553118D+02 0.572172054549344D+02
0.189425128011D-02 0.000000000000D+00 0.000000000000D+00 0.251274239797D-02 0.000000000000D+00  5 4 -3 25 24 21 0 0.27012072D-02 0.16849311D+00 0.19210151D+05 0.19210151D+05 0.19210151D+05 0.12357572D+01  1  2  2  1  5  1        4 0.610810551067D-01 0.100000000000D+01
-.105236149991D-03 0.000000000000D+00 -.727442368345D-05 0.251274239797D-02 0.000000000000D+00  5 4 -3 25 24 21 2 0.27012072D-02 0.16849311D+00 0.19210151D+05 0.19210151D+05 0.19210151D+05 0.12357572D+01  1  2  3  1  5  1        4 -.518203336824D-02 0.100000000000D+01
0.130900795053D-03 0.000000000000D+00 0.000000000000D+00 0.251274239797D-02 0.000000000000D+00  5 4 -3 25 24 21 2 0.27012072D-02 0.16849311D+00 0.19210151D+05 0.19210151D+05 0.19210151D+05 0.12357572D+01  1  2 15  1  5  1        4 0.644581056940D-02 0.100000000000D+01
0.235990150159D-02 0.000000000000D+00 0.000000000000D+00 0.251274239797D-02 0.000000000000D+00  5 4 -3 25 24 21 2 0.41016253D-02 0.16849311D+00 0.27335923D+05 0.27335923D+05 0.27335923D+05 0.12191602D+01  1  2 12  1  5  1        4 0.599407953951D-01 0.100000000000D+01
-.262737307968D-02 0.000000000000D+00 0.000000000000D+00 0.251274239797D-02 0.000000000000D+00  5 4 -3 25 24 21 2 0.27012072D-02 0.16849311D+00 0.19210151D+05 0.19210151D+05 0.19210151D+05 0.12357572D+01  1  2  4  1  5  1        4 -.129376977121D+00 0.100000000000D+01
-.322195203650D-02 0.000000000000D+00 -.852361500826D-03 0.251274239797D-02 0.000000000000D+00  5 4 -3 25 24 21 2 0.43706775D-02 0.16849311D+00 0.19210151D+05 0.19210151D+05 0.19210151D+05 0.12357572D+01  1  2  5  1  5  1        4 -.742652452439D-01 0.100000000000D+01
0.332914849580D-02 0.000000000000D+00 0.762372773763D-03 0.251274239797D-02 0.000000000000D+00  5 4 -3 25 24 21 2 0.27012072D-02 0.16849311D+00 0.19210151D+05 0.19210151D+05 0.19210151D+05 0.12357572D+01  1  2  6  1  5  1        4 0.163933767954D+00 0.100000000000D+01
0.115972481936D-03 0.000000000000D+00 0.000000000000D+00 0.251274239797D-02 0.000000000000D+00  5 21 -3 25 24 -4 2 0.41016253D-02 0.16849311D+00 0.27335923D+05 0.27335923D+05 0.27335923D+05 0.12191602D+01  1  2 12  3  5  1        4 0.811511804815D-01 0.100000000000D+01
-.139492532354D-03 0.000000000000D+00 -.466347598618D-04 0.251274239797D-02 0.000000000000D+00  5 21 -3 25 24 -4 2 0.43706775D-02 0.16849311D+00 0.19210151D+05 0.19210151D+05 0.19210151D+05 0.12357572D+01  1  2  5  3  5  1        4 -.896125781371D-01 0.100000000000D+01
  </mgrwgt>
  </event>
  <event>
  5     66 0.48098993E-03 0.12096638E+03 0.75467711E-02 0.11486145E+00
        2 -1    0    0  501    0 0.00000000E+00 0.00000000E+00 0.12202410E+04 0.12202411E+04 0.32000000E+00 0.0000E+00 0.9000E+01
       21 -1    0    0  502  501 0.00000000E+00 0.00000000E+00 -.33622265E+02 0.33630629E+02 0.75000000E+00 0.0000E+00 0.9000E+01
       25  1    1    2    0    0 0.40205544E+02 -.15686998E+01 0.32976233E+03 0.35494667E+03 0.12500000E+03 0.0000E+00 0.9000E+01
       24  1    1    2    0    0 0.17369375E+02 0.11661254E+03 0.42572836E+03 0.44901228E+03 0.80419002E+02 0.0000E+00 0.9000E+01
        1  1    1    2  502    0 -.57574918E+02 -.11504384E+03 0.43112807E+03 0.44991273E+03 0.32000000E+00 0.0000E+00 0.9000E+01
#aMCatNLO 2  0  0  2  2 0.12864663D+03 0.00000000D+00  -5  5  0 0.00000000D+00 0.00000000D+00 0.00000000D+00 0.00000000D+00 0.00000000D+00
  <mgrwgt>
 0.9300755455D-01    1    2    0
 0.121484430655026D+03 0.000000000000000D+00 0.000000000000000D+00 0.121484430655026D+03
 0.121484430655026D+03 0.000000000000000D+00 0.000000000000000D+00 -.121484430655026D+03
 0.140330022629759D+03 0.995450990809519D+01 -.620150747321570D+02 -.110703879662511D+02
 0.102638838680293D+03 -.995450990809519D+01 0.620150747321570D+02 0.110703879662511D+02
 0.000000000000000D+00 -.000000000000000D+00 -.000000000000000D+00 0.000000000000000D+00
 0.215124447217340D+03 0.000000000000000D+00 0.000000000000000D+00 0.215124447217340D+03
 0.190738233901921D+03 0.000000000000000D+00 0.000000000000000D+00 -.190738233901921D+03
 0.131782017162533D+03 0.402055436322576D+02 -.156869976014300D+01 -.110703879662511D+02
 0.143143107113894D+03 0.173693745355538D+02 0.116612540056245D+03 0.110703879662511D+02
 0.130937556842834D+03 -.575749181678114D+02 -.115043840296102D+03 0.243862133154196D+02
0.102131431139D-04 0.000000000000D+00 0.000000000000D+00 0.273586225030D-02 0.161334588886D-06  5 2 21 25 24 1 2 0.18772985D+00 0.51732978D-02 0.40537237D+05 0.40537237D+05 0.40537237D+05 0.12014123D+01  1  2  1  4  5  2       -1 0.930075545480D-01 0.100000000000D+01
  </mgrwgt>
  </event>
  <event>
  4     66 0.48098993E-03 0.13294972E+03 0.75467711E-02 0.10263094E+00
        2 -1    0    0  501    0 0.00000000E+00 0.00000000E+00 0.15057160E+03 0.15057194E+03 0.32000000E+00 0.0000E+00 0.9000E+01
       -1 -1    0    0    0  501 0.00000000E+00 0.00000000E+00 -.11892474E+03 0.11892517E+03 0.32000000E+00 0.0000E+00 0.9000E+01
       25  1    1    2    0    0 -.77466974E+02 -.30412658E+02 0.26638023E+01 0.15019373E+03 0.12500000E+03 0.0000E+00 0.9000E+01
       24  1    1    2    0    0 0.77466974E+02 0.30412658E+02 0.28983057E+02 0.11930338E+03 0.80419002E+02 0.0000E+00 0.9000E+01
#aMCatNLO 1  0  0  2  1 0.41596449D+03 0.00000000D+00  -5  5  0 0.00000000D+00 0.00000000D+00 0.00000000D+00 0.00000000D+00 0.00000000D+00
  <mgrwgt>
 0.3489492568D+00    5    2    0
 0.133816262153358D+03 0.000000000000000D+00 0.000000000000000D+00 0.133816262153358D+03
 0.133816262153358D+03 0.000000000000000D+00 0.000000000000000D+00 -.133816262153358D+03
 0.150925139464425D+03 -.774669737834416D+02 -.304126581507218D+02 -.150776629289499D+02
 0.116707384842291D+03 0.774669737834416D+02 0.304126581507218D+02 0.150776629289499D+02
 0.000000000000000D+00 -.000000000000000D+00 0.000000000000000D+00 -.000000000000000D+00
 0.269386948013716D+03 0.000000000000000D+00 0.000000000000000D+00 0.269386948013716D+03
 0.220687876904925D+04 0.000000000000000D+00 0.000000000000000D+00 -.220687876904925D+04
 0.160010400367290D+03 0.921336514898206D+02 -.355300234935728D+02 -.150776629289499D+02
 0.334614327526212D+03 0.323641613898640D+03 0.229848224951362D+02 0.150776629289499D+02
 0.198164098916946D+04 -.415775265388461D+03 0.125452009984366D+02 -.193749182103553D+04
0.580027102620D-03 0.000000000000D+00 0.000000000000D+00 0.254193577234D-02 0.000000000000D+00  5 2 -1 25 24 21 0 0.23164921D-01 0.18296173D-01 0.17675628D+05 0.17675628D+05 0.17675628D+05 0.12397771D+01  1  2  2  2  5  2       -1 0.344186355711D+00 0.100000000000D+01
-.322220742901D-04 0.000000000000D+00 -.222745679870D-05 0.254193577234D-02 0.000000000000D+00  5 2 -1 25 24 21 2 0.23164921D-01 0.18296173D-01 0.17675628D+05 0.17675628D+05 0.17675628D+05 0.12397771D+01  1  2  3  2  5  2       -1 -.293890861143D-01 0.100000000000D+01
0.400592287521D-04 0.000000000000D+00 0.000000000000D+00 0.254193577234D-02 0.000000000000D+00  5 2 -1 25 24 21 2 0.23164921D-01 0.18296173D-01 0.17675628D+05 0.17675628D+05 0.17675628D+05 0.12397771D+01  1  2 15  2  5  2       -1 0.365371922636D-01 0.100000000000D+01
-.103205136201D-02 0.000000000000D+00 -.806236484582D-03 0.254193577234D-02 0.000000000000D+00  5 2 -1 25 24 21 2 0.23164921D-01 0.41091694D+00 0.17675628D+05 0.17675628D+05 0.17675628D+05 0.12397771D+01  1  2  5  2  5  2       -1 -.347034134206D-03 0.100000000000D+01
-.553455638725D-03 0.000000000000D+00 -.263774813066D-03 0.254193577234D-02 0.000000000000D+00  5 2 21 25 24 1 2 0.23164921D-01 0.41091694D+00 0.17675628D+05 0.17675628D+05 0.17675628D+05 0.12397771D+01  1  2  5  4  5  2       -1 -.203817097319D-02 0.100000000000D+01
  </mgrwgt>
  </event>
  <event>
  5     66 0.48098993E-03 0.12076869E+03 0.75467711E-02 0.12313239E+00
        2 -1    0    0  502    0 0.00000000E+00 0.00000000E+00 0.10137210E+04 0.10137210E+04 0.32000000E+00 0.0000E+00 0.9000E+01
       -1 -1    0    0    0  501 0.00000000E+00 0.00000000E+00 -.18935666E+02 0.18938370E+02 0.32000000E+00 0.0000E+00 0.9000E+01
       25  1    1    2    0    0 0.57030818E+02 0.35465841E+02 0.52496451E+03 0.54380426E+03 0.12500000E+03 0.0000E+00 0.9000E+01
       24  1    1    2    0    0 -.54908117E+02 -.22663963E+02 0.46393632E+03 0.47458686E+03 0.80419002E+02 0.0000E+00 0.9000E+01
       21  1    1    2  502  501 -.21227012E+01 -.12801878E+02 0.58844650E+01 0.14268264E+02 0.75000000E+00 0.0000E+00 0.9000E+01
#aMCatNLO 2  0  0  1  1 0.12976669D+02 0.00000000D+00  -5  5  0 0.00000000D+00 0.00000000D+00 0.00000000D+00 0.00000000D+00 0.00000000D+00
  <mgrwgt>
 0.3294462716D-01    1    2    0
 0.121477592065058D+03 0.000000000000000D+00 0.000000000000000D+00 0.121477592065058D+03
 0.121477592065058D+03 0.000000000000000D+00 0.000000000000000D+00 -.121477592065058D+03
 0.140324244953776D+03 0.557962310563501D+02 0.280201223586109D+02 -.129439972482271D+02
 0.102630939176341D+03 -.557962310563501D+02 -.280201223586109D+02 0.129439972482271D+02
 0.000000000000000D+00 -.000000000000000D+00 -.000000000000000D+00 -.000000000000000D+00
 0.122868197701479D+03 0.000000000000000D+00 0.000000000000000D+00 0.122868197701479D+03
 0.156229909685674D+03 0.000000000000000D+00 0.000000000000000D+00 -.156229909685674D+03
 0.142488200130914D+03 0.570308183648310D+02 0.354658408672777D+02 -.129439972482271D+02
 0.100813290674044D+03 -.549081171542843D+02 -.226639632008168D+02 0.129439972482271D+02
 0.357966165821949D+02 -.212270121054679D+01 -.128018776664609D+02 -.333617119841951D+02
0.192084615199D-04 0.000000000000D+00 0.000000000000D+00 0.272868951442D-02 0.138063427650D-03  5 2 -1 25 24 21 2 0.15595234D+00 0.29132989D-02 0.16237714D+05 0.16237714D+05 0.16237714D+05 0.12439161D+01  1  2  1  1  5  1        2 0.329446271550D-01 0.100000000000D+01
  </mgrwgt>
  </event>
  <event>
  4     66 0.48098993E-03 0.13485417E+03 0.75467711E-02 0.11187217E+00
        2 -1    0    0  501    0 0.00000000E+00 0.00000000E+00 0.33252383E+03 0.33252399E+03 0.32000000E+00 0.0000E+00 0.9000E+01
       -1 -1    0    0    0  501 0.00000000E+00 0.00000000E+00 -.57874152E+02 0.57875037E+02 0.32000000E+00 0.0000E+00 0.9000E+01
       25  1    1    2    0    0 0.33179679E+02 -.79541649E+02 0.10821391E+03 0.18644843E+03 0.12500000E+03 0.0000E+00 0.9000E+01
       24  1    1    2    0    0 -.33179679E+02 0.79541649E+02 0.16643577E+03 0.20395060E+03 0.80419002E+02 0.0000E+00 0.9000E+01
#aMCatNLO 1  0  0  2  1 0.16635176D+03 0.00000000D+00  -5  5  0 0.00000000D+00 0.00000000D+00 0.00000000D+00 0.00000000D+00 0.00000000D+00
  <mgrwgt>
 0.4567286088D+00    3    2    0
 0.138725404134516D+03 0.000000000000000D+00 0.000000000000000D+00 0.138725404134516D+03
 0.138725404134516D+03 0.000000000000000D+00 0.000000000000000D+00 -.138725404134516D+03
 0.155228841451501D+03 0.331796790442960D+02 -.795416486943848D+02 -.322990439467133D+02
 0.122221966817531D+03 -.331796790442960D+02 0.795416486943848D+02 0.322990439467133D+02
 0.000000000000000D+00 0.000000000000000D+00 -.000000000000000D+00 0.000000000000000D+00
 0.391287926131085D+03 0.000000000000000D+00 0.000000000000000D+00 0.391287926131085D+03
 0.191889456486776D+03 0.000000000000000D+00 0.000000000000000D+00 -.191889456486776D+03
 0.141776174859121D+03 -.402524271749431D+02 -.425675654029960D+02 -.322990439467133D+02
 0.181723220141344D+03 -.108327686747465D+03 0.117379712166285D+03 0.322990439467133D+02
 0.259677987617396D+03 0.148580113922409D+03 -.748121467632893D+02 0.199398469644309D+03
0.578584350975D-03 0.000000000000D+00 0.000000000000D+00 0.239184200287D-02 0.000000000000D+00  5 2 -1 25 24 21 0 0.51157593D-01 0.89037956D-02 0.18185648D+05 0.18185648D+05 0.18185648D+05 0.12383990D+01  1  2  2  2  5  2       -1 0.447474262618D+00 0.100000000000D+01
-.321122692590D-04 0.000000000000D+00 -.222191625250D-05 0.239184200287D-02 0.000000000000D+00  5 2 -1 25 24 21 2 0.51157593D-01 0.89037956D-02 0.18185648D+05 0.18185648D+05 0.18185648D+05 0.12383990D+01  1  2  3  2  5  2       -1 -.380884744619D-01 0.100000000000D+01
0.399145784760D-04 0.000000000000D+00 0.000000000000D+00 0.239184200287D-02 0.000000000000D+00  5 2 -1 25 24 21 2 0.51157593D-01 0.89037956D-02 0.18185648D+05 0.18185648D+05 0.18185648D+05 0.12383990D+01  1  2 15  2  5  2       -1 0.473428206111D-01 0.100000000000D+01
  </mgrwgt>
  </event>
  <event>
  4     66 0.48098993E-03 0.66402912E+02 0.75467711E-02 0.12281642E+00
        2 -1    0    0  501    0 0.00000000E+00 0.00000000E+00 0.45731417E+02 0.45732537E+02 0.32000000E+00 0.0000E+00 0.9000E+01
       -1 -1    0    0    0  501 0.00000000E+00 0.00000000E+00 -.27926438E+03 0.27926456E+03 0.32000000E+00 0.0000E+00 0.9000E+01
       25  1    1    2    0    0 0.28840325E+02 0.35802861E+02 -.13094410E+03 0.18677518E+03 0.12500000E+03 0.0000E+00 0.9000E+01
       24  1    1    2    0    0 -.28840325E+02 -.35802861E+02 -.10258886E+03 0.13822192E+03 0.80419002E+02 0.0000E+00 0.9000E+01
#aMCatNLO 1  0  0  1  2 0.31095777D+02 0.00000000D+00  -5  5  0 0.00000000D+00 0.00000000D+00 0.00000000D+00 0.00000000D+00 0.00000000D+00
  <mgrwgt>
 0.1543524993D+00    7    2    0
 0.113010474813200D+03 0.000000000000000D+00 0.000000000000000D+00 0.113010474813200D+03
 0.113010474813200D+03 0.000000000000000D+00 0.000000000000000D+00 -.113010474813200D+03
 0.133269181054296D+03 0.288403247321821D+02 0.358028612191889D+02 0.469738403203972D+01
 0.927517685721044D+02 -.288403247321821D+02 -.358028612191889D+02 -.469738403203972D+01
 0.000000000000000D+00 0.000000000000000D+00 -.000000000000000D+00 0.000000000000000D+00
 0.292878131531577D+03 0.000000000000000D+00 0.000000000000000D+00 0.292878131531577D+03
 0.115426966003116D+03 0.000000000000000D+00 0.000000000000000D+00 -.115426966003116D+03
 0.131876494099730D+03 0.112337061450452D+02 0.402262119213126D+02 0.469738403203972D+01
 0.962734938876171D+02 -.413922763999905D+02 -.326494059462164D+02 -.469738403203972D+01
 0.180155109547345D+03 0.301585702549453D+02 -.757680597509615D+01 0.177451165528461D+03
0.309836292566D-03 0.000000000000D+00 0.000000000000D+00 0.292959337774D-02 0.000000000000D+00  5 2 -1 25 24 21 0 0.70357029D-02 0.42963850D-01 0.12748568D+05 0.12748568D+05 0.12748568D+05 0.12559557D+01  1  2  2  1  5  1        2 0.180686260437D+00 0.100000000000D+01
-.172131106604D-04 0.000000000000D+00 -.118985294522D-05 0.292959337774D-02 0.000000000000D+00  5 2 -1 25 24 21 2 0.70357029D-02 0.42963850D-01 0.12748568D+05 0.12748568D+05 0.12748568D+05 0.12559557D+01  1  2  3  1  5  1        2 -.158343725597D-01 0.100000000000D+01
0.214082942705D-04 0.000000000000D+00 0.000000000000D+00 0.292959337774D-02 0.000000000000D+00  5 2 -1 25 24 21 2 0.70357029D-02 0.42963850D-01 0.12748568D+05 0.12748568D+05 0.12748568D+05 0.12559557D+01  1  2 15  1  5  1        2 0.196935297771D-01 0.100000000000D+01
0.286279845578D-02 0.000000000000D+00 0.000000000000D+00 0.292959337774D-02 0.000000000000D+00  5 2 -1 25 24 21 2 0.18172003D-01 0.42963850D-01 0.16776391D+05 0.16776391D+05 0.16776391D+05 0.12423190D+01  1  2 12  1  5  1        2 0.827376274097D+00 0.100000000000D+01
-.293910597588D-02 0.000000000000D+00 -.115149227871D-03 0.292959337774D-02 0.000000000000D+00  5 2 -1 25 24 21 2 0.18479273D-01 0.42963850D-01 0.12748568D+05 0.12748568D+05 0.12748568D+05 0.12559557D+01  1  2  5  1  5  1        2 -.847448529902D+00 0.100000000000D+01
0.300634459694D-03 0.000000000000D+00 0.000000000000D+00 0.292959337774D-02 0.000000000000D+00  5 21 -1 25 24 -2 2 0.18172003D-01 0.42963850D-01 0.16776391D+05 0.16776391D+05 0.16776391D+05 0.12423190D+01  1  2 12  3  5  1        2 0.641979096387D+00 0.100000000000D+01
-.308138996089D-03 0.000000000000D+00 -.123418872867D-04 0.292959337774D-02 0.000000000000D+00  5 21 -1 25 24 -2 2 0.18479273D-01 0.42963850D-01 0.12748568D+05 0.12748568D+05 0.12748568D+05 0.12559557D+01  1  2  5  3  5  1        2 -.652099758974D+00 0.100000000000D+01
  </mgrwgt>
  </event>
  <event>
  4     66 0.48098993E-03 0.73336714E+02 0.75467711E-02 0.12255277E+00
        4 -1    0    0  501    0 0.00000000E+00 0.00000000E+00 0.14613529E+03 0.14614351E+03 0.15500000E+01 0.0000E+00 0.9000E+01
       -3 -1    0    0    0  501 0.00000000E+00 0.00000000E+00 -.11246637E+03 0.11246748E+03 0.50000000E+00 0.0000E+00 0.9000E+01
       25  1    1    2    0    0 0.18768191E+02 -.56635657E+02 -.27580908E+02 0.14122871E+03 0.12500000E+03 0.0000E+00 0.9000E+01
       24  1    1    2    0    0 -.18768191E+02 0.56635657E+02 0.61249825E+02 0.11738228E+03 0.80419002E+02 0.0000E+00 0.9000E+01
#aMCatNLO 1  0  0  2  1 0.22704692D+02 0.00000000D+00  -5  5  0 0.00000000D+00 0.00000000D+00 0.00000000D+00 0.00000000D+00 0.00000000D+00
  <mgrwgt>
 0.4339705167D-01    9    2    0
 0.128204961898430D+03 0.000000000000000D+00 0.000000000000000D+00 0.128204961898430D+03
 0.128204961898430D+03 0.000000000000000D+00 0.000000000000000D+00 -.128204961898430D+03
 0.146062663952280D+03 0.187681911075455D+02 -.566356565301317D+02 -.463622606522622D+02
 0.110347259844580D+03 -.187681911075455D+02 0.566356565301317D+02 0.463622606522622D+02
 0.000000000000000D+00 0.000000000000000D+00 -.000000000000000D+00 -.000000000000000D+00
 0.134409703029511D+03 0.000000000000000D+00 0.000000000000000D+00 0.134409703029511D+03
 0.151304063355383D+03 0.000000000000000D+00 0.000000000000000D+00 -.151304063355383D+03
 0.141963339965586D+03 0.958306717822165D+01 -.478256782999869D+02 -.463622606522622D+02
 0.115449853269177D+03 -.259688411829631D+02 0.635422122712896D+02 0.463622606522622D+02
 0.283005731501316D+02 0.163857740047414D+02 -.157165339713028D+02 -.168943603258713D+02
0.416057624618D-03 0.000000000000D+00 0.000000000000D+00 0.234132268275D-02 0.000000000000D+00  5 4 -3 25 24 21 0 0.22483070D-01 0.17303236D-01 0.14237807D+05 0.14237807D+05 0.14237807D+05 0.12504127D+01  1  2  2  2  5  2       -3 0.417912581599D-01 0.100000000000D+01
-.229694227102D-04 0.000000000000D+00 -.159777082902D-05 0.234132268275D-02 0.000000000000D+00  5 4 -3 25 24 21 2 0.22483070D-01 0.17303236D-01 0.14237807D+05 0.14237807D+05 0.14237807D+05 0.12504127D+01  1  2  3  2  5  2       -3 -.360735450013D-02 0.100000000000D+01
0.287364931761D-04 0.000000000000D+00 0.000000000000D+00 0.234132268275D-02 0.000000000000D+00  5 4 -3 25 24 21 2 0.22483070D-01 0.17303236D-01 0.14237807D+05 0.14237807D+05 0.14237807D+05 0.12504127D+01  1  2 15  2  5  2       -3 0.451307458986D-02 0.100000000000D+01
0.648661648108D-03 0.000000000000D+00 0.000000000000D+00 0.234132268275D-02 0.000000000000D+00  5 4 -3 25 24 21 2 0.22483070D-01 0.20785716D-01 0.17241784D+05 0.17241784D+05 0.17241784D+05 0.12409849D+01  1  2 12  2  5  2       -3 0.741545757487D-01 0.100000000000D+01
-.656715423836D-03 0.000000000000D+00 0.000000000000D+00 0.234132268275D-02 0.000000000000D+00  5 4 -3 25 24 21 2 0.22483070D-01 0.17303236D-01 0.14237807D+05 0.14237807D+05 0.14237807D+05 0.12504127D+01  1  2  4  2  5  2       -3 -.103137347829D+00 0.100000000000D+01
-.120579094078D-02 0.000000000000D+00 -.266281633116D-03 0.234132268275D-02 0.000000000000D+00  5 4 -3 25 24 21 2 0.22483070D-01 0.21326787D-01 0.14237807D+05 0.14237807D+05 0.14237807D+05 0.12504127D+01  1  2  5  2  5  2       -3 -.131394125814D+00 0.100000000000D+01
0.123997917646D-02 0.000000000000D+00 0.260566135009D-03 0.234132268275D-02 0.000000000000D+00  5 4 -3 25 24 21 2 0.22483070D-01 0.17303236D-01 0.14237807D+05 0.14237807D+05 0.14237807D+05 0.12504127D+01  1  2  6  2  5  2       -3 0.194739089385D+00 0.100000000000D+01
0.173575739309D-04 0.000000000000D+00 0.000000000000D+00 0.234132268275D-02 0.000000000000D+00  5 4 21 25 24 3 2 0.22483070D-01 0.20785716D-01 0.17241784D+05 0.17241784D+05 0.17241784D+05 0.12409849D+01  1  2 12  4  5  2       -3 0.426459031991D-01 0.100000000000D+01
-.323861658515D-04 0.000000000000D+00 -.788270048593D-05 0.234132268275D-02 0.000000000000D+00  5 4 21 25 24 3 2 0.22483070D-01 0.21326787D-01 0.14237807D+05 0.14237807D+05 0.14237807D+05 0.12504127D+01  1  2  5  4  5  2       -3 -.763080212647D-01 0.100000000000D+01
  </mgrwgt>
  </event>
  <event>
  4     66 0.48098993E-03 0.19606380E+03 0.75467711E-02 0.10788844E+00
        2 -1    0    0  501    0 0.00000000E+00 0.00000000E+00 0.48457376E+03 0.48457386E+03 0.32000000E+00 0.0000E+00 0.9000E+01
       -1 -1    0    0    0  501 0.00000000E+00 0.00000000E+00 -.17108366E+03 0.17108395E+03 0.32000000E+00 0.0000E+00 0.9000E+01
       25  1    1    2    0    0 0.21390249E+03 0.16162409E+03 0.15358358E+03 0.33330097E+03 0.12500000E+03 0.0000E+00 0.9000E+01
       24  1    1    2    0    0 -.21390249E+03 -.16162409E+03 0.15990653E+03 0.32235685E+03 0.80419002E+02 0.0000E+00 0.9000E+01
#aMCatNLO 1  0  0  2  1 0.48399155D+02 0.00000000D+00  -5  5  0 0.00000000D+00 0.00000000D+00 0.00000000D+00 0.00000000D+00 0.00000000D+00
  <mgrwgt>
 0.6448298585D+00    6    2    0
 0.287928433003589D+03 0.000000000000000D+00 0.000000000000000D+00 0.287928433003589D+03
 0.287928433003589D+03 0.000000000000000D+00 0.000000000000000D+00 -.287928433003589D+03
 0.295879874226412D+03 0.213902494388906D+03 0.161624088590199D+03 -.657851456095954D+01
 0.279976991780767D+03 -.213902494388906D+03 -.161624088590199D+03 0.657851456095954D+01
 0.000000000000000D+00 -.000000000000000D+00 0.000000000000000D+00 0.000000000000000D+00
 0.317040415035446D+03 0.000000000000000D+00 0.000000000000000D+00 0.317040415035446D+03
 0.309786510525407D+03 0.000000000000000D+00 0.000000000000000D+00 -.309786510525407D+03
 0.290484211739833D+03 0.222505020203071D+03 0.138579639199683D+03 -.657851456095954D+01
 0.287402981728141D+03 -.205578483786333D+03 -.183922451327018D+03 0.657851456095954D+01
 0.489397320928786D+02 -.169265364167384D+02 0.453428121273349D+02 0.725390451003928D+01
0.508526327262D-02 0.000000000000D+00 0.000000000000D+00 0.201832561566D-02 0.000000000000D+00  5 2 -1 25 24 21 0 0.74549840D-01 0.26320593D-01 0.82859473D+05 0.82859473D+05 0.82859473D+05 0.11711483D+01  1  2  2  2  5  2       -1 0.477920484287D+00 0.100000000000D+01
-.282514602808D-03 0.000000000000D+00 -.195287499474D-04 0.201832561566D-02 0.000000000000D+00  5 2 -1 25 24 21 2 0.74549840D-01 0.26320593D-01 0.82859473D+05 0.82859473D+05 0.82859473D+05 0.11711483D+01  1  2  3  2  5  2       -1 -.364172288114D-01 0.100000000000D+01
0.349066062103D-03 0.000000000000D+00 0.000000000000D+00 0.201832561566D-02 0.000000000000D+00  5 2 -1 25 24 21 2 0.74549840D-01 0.26320593D-01 0.82859473D+05 0.82859473D+05 0.82859473D+05 0.11711483D+01  1  2 15  2  5  2       -1 0.449959702174D-01 0.100000000000D+01
0.448044123064D-02 0.000000000000D+00 0.000000000000D+00 0.201832561566D-02 0.000000000000D+00  5 2 -1 25 24 21 2 0.74549840D-01 0.29539192D-01 0.98011745D+05 0.98011745D+05 0.98011745D+05 0.11643737D+01  1  2 12  2  5  2       -1 0.469279587601D+00 0.100000000000D+01
-.315923647707D-02 0.000000000000D+00 0.000000000000D+00 0.201832561566D-02 0.000000000000D+00  5 2 -1 25 24 21 2 0.74549840D-01 0.26320593D-01 0.82859473D+05 0.82859473D+05 0.82859473D+05 0.11711483D+01  1  2  4  2  5  2       -1 -.407237843678D+00 0.100000000000D+01
0.822336929551D-04 0.000000000000D+00 0.000000000000D+00 0.201832561566D-02 0.000000000000D+00  5 2 21 25 24 1 2 0.74549840D-01 0.29539192D-01 0.98011745D+05 0.98011745D+05 0.98011745D+05 0.11643737D+01  1  2 12  4  5  2       -1 0.962888889084D-01 0.100000000000D+01
  </mgrwgt>
  </event>
  <event>
  4     66 0.48098993E-03 0.18775209E+03 0.75467711E-02 0.10735022E+00
        2 -1    0    0  501    0 0.00000000E+00 0.00000000E+00 0.14406330E+04 0.14406330E+04 0.32000000E+00 0.0000E+00 0.9000E+01
       -1 -1    0    0    0  501 0.00000000E+00 0.00000000E+00 -.26442078E+02 0.26444014E+02 0.32000000E+00 0.0000E+00 0.9000E+01
       25  1    1    2    0    0 0.19401628E+02 -.15484511E+03 0.94962339E+03 0.97044475E+03 0.12500000E+03 0.0000E+00 0.9000E+01
       24  1    1    2    0    0 -.19401628E+02 0.15484511E+03 0.46456754E+03 0.49663230E+03 0.80419002E+02 0.0000E+00 0.9000E+01
#aMCatNLO 1  0  0  2  2 0.21718016D+03 0.00000000D+00  -5  5  0 0.00000000D+00 0.00000000D+00 0.00000000D+00 0.00000000D+00 0.00000000D+00
  <mgrwgt>
 0.4613759268D+00    3    2    0
 0.195178831198231D+03 0.000000000000000D+00 0.000000000000000D+00 0.195178831198231D+03
 0.195178831198231D+03 0.000000000000000D+00 0.000000000000000D+00 -.195178831198231D+03
 0.206908822598180D+03 0.194016281474476D+02 -.154845112330904D+03 0.532243260307073D+02
 0.183448839798282D+03 -.194016281474476D+02 0.154845112330904D+03 -.532243260307073D+02
 0.000000000000000D+00 -.000000000000000D+00 -.000000000000000D+00 0.000000000000000D+00
 0.362039384322743D+03 0.000000000000000D+00 0.000000000000000D+00 0.362039384322743D+03
 0.308378039539953D+03 0.000000000000000D+00 0.000000000000000D+00 -.308378039539953D+03
 0.152020578800217D+03 0.281462282213487D+02 -.621306473026131D+02 0.532243260307073D+02
 0.294685507264378D+03 -.775283696352913D+01 0.278351211376719D+03 -.532243260307073D+02
 0.223711337798102D+03 -.203933912578196D+02 -.216220564074106D+03 0.536613447827904D+02
0.113439110933D-02 0.000000000000D+00 0.000000000000D+00 0.202475299176D-02 0.000000000000D+00  5 2 -1 25 24 21 0 0.22163600D+00 0.40681636D-02 0.35250847D+05 0.35250847D+05 0.35250847D+05 0.12076146D+01  1  2  2  2  5  2       -1 0.452418054974D+00 0.100000000000D+01
-.629064104248D-04 0.000000000000D+00 -.435636055188D-05 0.202475299176D-02 0.000000000000D+00  5 2 -1 25 24 21 2 0.22163600D+00 0.40681636D-02 0.35250847D+05 0.35250847D+05 0.35250847D+05 0.12076146D+01  1  2  3  2  5  2       -1 -.365871622735D-01 0.100000000000D+01
0.783081942387D-04 0.000000000000D+00 0.000000000000D+00 0.202475299176D-02 0.000000000000D+00  5 2 -1 25 24 21 2 0.22163600D+00 0.40681636D-02 0.35250847D+05 0.35250847D+05 0.35250847D+05 0.12076146D+01  1  2 15  2  5  2       -1 0.455450341326D-01 0.100000000000D+01
  </mgrwgt>
  </event>
  <event>
  4     66 0.48098993E-03 0.10589073E+03 0.75467711E-02 0.11430240E+00
        2 -1    0    0  501    0 0.00000000E+00 0.00000000E+00 0.60192105E+03 0.60192113E+03 0.32000000E+00 0.0000E+00 0.9000E+01
       -1 -1    0    0    0  501 0.00000000E+00 0.00000000E+00 -.18630870E+02 0.18633618E+02 0.32000000E+00 0.0000E+00 0.9000E+01
       25  1    1    2    0    0 0.13082145E+02 0.21518743E+02 0.34678806E+03 0.36948770E+03 0.12500000E+03 0.0000E+00 0.9000E+01
       24  1    1    2    0    0 -.13082145E+02 -.21518743E+02 0.23650211E+03 0.25106705E+03 0.80419002E+02 0.0000E+00 0.9000E+01
#aMCatNLO 1  0  0  2  1 0.15430478D+03 0.00000000D+00  -5  5  0 0.00000000D+00 0.00000000D+00 0.00000000D+00 0.00000000D+00 0.00000000D+00
  <mgrwgt>
 0.1294658214D+00    5    2    0
 0.105901803901074D+03 0.000000000000000D+00 0.000000000000000D+00 0.105901803901074D+03
 0.105901803901074D+03 0.000000000000000D+00 0.000000000000000D+00 -.105901803901074D+03
 0.127520378156391D+03 0.130821454771363D+02 0.215187430080505D+02 -.149933792634092D+01
 0.842832296457568D+02 -.130821454771363D+02 -.215187430080505D+02 0.149933792634092D+01
 0.000000000000000D+00 0.000000000000000D+00 0.000000000000000D+00 -.000000000000000D+00
 0.140235267431774D+03 0.000000000000000D+00 0.000000000000000D+00 0.140235267431774D+03
 0.777349688371092D+03 0.000000000000000D+00 0.000000000000000D+00 -.777349688371092D+03
 0.139517247592088D+03 -.392651925602324D+02 -.479172100049923D+02 -.149933792634092D+01
 0.122533765223465D+03 -.536244440088388D+02 -.752959405014260D+02 0.149933792634092D+01
 0.655533942987313D+03 0.928896365690712D+02 0.123213150506418D+03 -.637114420939318D+03
0.123464016497D-03 0.000000000000D+00 0.000000000000D+00 0.313284700973D-02 0.000000000000D+00  5 2 -1 25 24 21 0 0.92603456D-01 0.28665057D-02 0.11212846D+05 0.11212846D+05 0.11212846D+05 0.12624921D+01  1  2  2  2  5  2       -1 0.262869006253D+00 0.100000000000D+01
-.685911193636D-05 0.000000000000D+00 -.474134332169D-06 0.313284700973D-02 0.000000000000D+00  5 2 -1 25 24 21 2 0.92603456D-01 0.28665057D-02 0.11212846D+05 0.11212846D+05 0.11212846D+05 0.12624921D+01  1  2  3  2  5  2       -1 -.232768519119D-01 0.100000000000D+01
0.851466679954D-05 0.000000000000D+00 0.000000000000D+00 0.313284700973D-02 0.000000000000D+00  5 2 -1 25 24 21 2 0.92603456D-01 0.28665057D-02 0.11212846D+05 0.11212846D+05 0.11212846D+05 0.12624921D+01  1  2 15  2  5  2       -1 0.288950872957D-01 0.100000000000D+01
-.263929023830D-03 0.000000000000D+00 -.797279367484D-04 0.313284700973D-02 0.000000000000D+00  5 2 -1 25 24 21 2 0.92603456D-01 0.27341575D-01 0.11212846D+05 0.11212846D+05 0.11212846D+05 0.12624921D+01  1  2  5  2  5  2       -1 -.291167331873D-01 0.100000000000D+01
-.832599835539D-04 0.000000000000D+00 -.215036503386D-04 0.313284700973D-02 0.000000000000D+00  5 2 21 25 24 1 2 0.92603456D-01 0.27341575D-01 0.11212846D+05 0.11212846D+05 0.11212846D+05 0.12624921D+01  1  2  5  4  5  2       -1 -.109904687060D+00 0.100000000000D+01
  </mgrwgt>
  </event>
  <event>
  4     66 0.48098993E-03 0.37441470E+03 0.75467711E-02 0.93400263E-01
        2 -1    0    0  501    0 0.00000000E+00 0.00000000E+00 0.72342530E+03 0.72342537E+03 0.32000000E+00 0.0000E+00 0.9000E+01
       -1 -1    0    0    0  501 0.00000000E+00 0.00000000E+00 -.24466059E+03 0.24466080E+03 0.32000000E+00 0.0000E+00 0.9000E+01
       25  1    1    2    0    0 -.13514326E+03 -.33303746E+03 0.46319127E+03 0.59945709E+03 0.12500000E+03 0.0000E+00 0.9000E+01
       24  1    1    2    0    0 0.13514326E+03 0.33303746E+03 0.15573438E+02 0.36862908E+03 0.80419002E+02 0.0000E+00 0.9000E+01
#aMCatNLO 1  0  0  2  1 0.83530639D+03 0.00000000D+00  -5  5  0 0.00000000D+00 0.00000000D+00 0.00000000D+00 0.00000000D+00 0.00000000D+00
  <mgrwgt>
 0.3692205858D+00    5    2    0
 0.420706305389008D+03 0.000000000000000D+00 0.000000000000000D+00 0.420706305389008D+03
 0.420706305389008D+03 0.000000000000000D+00 0.000000000000000D+00 -.420706305389008D+03
 0.426148215771811D+03 -.135143259273208D+03 -.333037457971035D+03 0.191832356151677D+03
 0.415264395006204D+03 0.135143259273208D+03 0.333037457971035D+03 -.191832356151677D+03
 0.000000000000000D+00 -.000000000000000D+00 0.000000000000000D+00 -.000000000000000D+00
 0.794569222211119D+03 0.000000000000000D+00 0.000000000000000D+00 0.794569222211119D+03
 0.145739525876441D+04 0.000000000000000D+00 0.000000000000000D+00 -.145739525876441D+04
 0.821449491058887D+03 0.119176115220616D+03 -.779840795967435D+03 0.191832356151677D+03
 0.364177745855944D+03 0.294030404250213D+03 0.538951123210456D+02 -.191832356151677D+03
 0.106633724406070D+04 -.413206519470829D+03 0.725945683646390D+03 -.662826036553290D+03
0.111583191482D-01 0.000000000000D+00 0.000000000000D+00 0.155111798262D-02 0.000000000000D+00  5 2 -1 25 24 21 0 0.11129622D+00 0.37640112D-01 0.14018637D+06 0.14018637D+06 0.14018637D+06 0.11503308D+01  1  2  2  2  5  2       -1 0.351325857189D+00 0.100000000000D+01
-.609664528487D-03 0.000000000000D+00 -.428508835819D-04 0.155111798262D-02 0.000000000000D+00  5 2 -1 25 24 21 2 0.11129622D+00 0.37640112D-01 0.14018637D+06 0.14018637D+06 0.14018637D+06 0.11503308D+01  1  2  3  2  5  2       -1 -.254008215237D-01 0.100000000000D+01
0.768073635840D-03 0.000000000000D+00 0.000000000000D+00 0.155111798262D-02 0.000000000000D+00  5 2 -1 25 24 21 2 0.11129622D+00 0.37640112D-01 0.14018637D+06 0.14018637D+06 0.14018637D+06 0.11503308D+01  1  2 15  2  5  2       -1 0.320007158518D-01 0.100000000000D+01
0.551922478976D-02 0.000000000000D+00 -.450927658262D-02 0.155111798262D-02 0.000000000000D+00  5 2 -1 25 24 21 2 0.11129622D+00 0.20871607D+00 0.14018637D+06 0.14018637D+06 0.14018637D+06 0.11503308D+01  1  2  5  2  5  2       -1 0.479408105537D-02 0.100000000000D+01
0.938909710392D-03 0.000000000000D+00 -.945514811248D-03 0.155111798262D-02 0.000000000000D+00  5 2 21 25 24 1 2 0.11129622D+00 0.20871607D+00 0.14018637D+06 0.14018637D+06 0.14018637D+06 0.11503308D+01  1  2  5  4  5  2       -1 0.650075320714D-02 0.100000000000D+01
  </mgrwgt>
  </event>
  <event>
  5     66 0.48098993E-03 0.11445408E+03 0.75467711E-02 0.12142499E+00
        2 -1    0    0  501    0 0.00000000E+00 0.00000000E+00 0.28177107E+04 0.28177108E+04 0.32000000E+00 0.0000E+00 0.9000E+01
       21 -1    0    0  502  501 0.00000000E+00 0.00000000E+00 -.31254245E+02 0.31263242E+02 0.75000000E+00 0.0000E+00 0.9000E+01
       25  1    1    2    0    0 -.38107167E+02 -.21591809E+02 0.18823588E+04 0.18870130E+04 0.12500000E+03 0.0000E+00 0.9000E+01
       24  1    1    2    0    0 0.57984085E+02 -.19036450E+02 0.91067556E+03 0.91625418E+03 0.80419002E+02 0.0000E+00 0.9000E+01
        1  1    1    2  502    0 -.19876918E+02 0.40628259E+02 -.65778270E+01 0.45706865E+02 0.32000000E+00 0.0000E+00 0.9000E+01
#aMCatNLO 2  0  0  2  1 0.45229938D+02 0.00000000D+00  -5  5  0 0.00000000D+00 0.00000000D+00 0.00000000D+00 0.00000000D+00 0.00000000D+00
  <mgrwgt>
 0.5951129612D+00    2    2    0
 0.117494848405054D+03 0.000000000000000D+00 0.000000000000000D+00 0.117494848405054D+03
 0.117494848405054D+03 0.000000000000000D+00 0.000000000000000D+00 -.117494848405054D+03
 0.136980349620517D+03 -.495059697987694D+02 0.170725125568842D+01 0.261698381651933D+02
 0.980093471895904D+02 0.495059697987694D+02 -.170725125568842D+01 -.261698381651933D+02
 0.000000000000000D+00 -.000000000000000D+00 0.000000000000000D+00 -.000000000000000D+00
 0.120488033361143D+03 0.000000000000000D+00 0.000000000000000D+00 0.120488033361143D+03
 0.731012040430236D+03 0.000000000000000D+00 0.000000000000000D+00 -.731012040430236D+03
 0.135011935828292D+03 -.381071669357660D+02 -.215918089710003D+02 0.261698381651933D+02
 0.104291020571553D+03 0.579840852990576D+02 -.190364502973842D+02 -.261698381651933D+02
 0.612197117391533D+03 -.198769183632917D+02 0.406282592683845D+02 -.610524007069093D+03
-.170130818258D-02 0.000000000000D+00 0.000000000000D+00 0.271231139878D-02 0.000000000000D+00  5 2 21 25 24 1 2 0.42272556D+00 0.47394162D-02 0.19409439D+05 0.19409439D+05 0.19409439D+05 0.12352617D+01  1  2 13  4  5  2       -1 -.301412259136D+01 0.100000000000D+01
0.228378483337D-02 0.000000000000D+00 0.000000000000D+00 0.271231139878D-02 0.811809789658D-05  5 2 21 25 24 1 2 0.43349450D+00 0.48090372D-02 0.19409439D+05 0.19409439D+05 0.19409439D+05 0.12352617D+01  1  2  1  4  5  2       -1 0.360923555260D+01 0.100000000000D+01
  </mgrwgt>
  </event>
  <event>
  4     66 0.48098993E-03 0.12748405E+03 0.75467711E-02 0.11785420E+00
        2 -1    0    0  501    0 0.00000000E+00 0.00000000E+00 0.27325782E+03 0.27325801E+03 0.32000000E+00 0.0000E+00 0.9000E+01
       -1 -1    0    0    0  501 0.00000000E+00 0.00000000E+00 -.74563591E+02 0.74564278E+02 0.32000000E+00 0.0000E+00 0.9000E+01
       25  1    1    2    0    0 -.36059751E+02 0.65025252E+02 0.18812075E+03 0.23778773E+03 0.12500000E+03 0.0000E+00 0.9000E+01
       24  1    1    2    0    0 0.36059751E+02 -.65025252E+02 0.10573481E+02 0.11003456E+03 0.80419002E+02 0.0000E+00 0.9000E+01
#aMCatNLO 1  0  0  2  2 0.73042669D+02 0.00000000D+00  -5  5  0 0.00000000D+00 0.00000000D+00 0.00000000D+00 0.00000000D+00 0.00000000D+00
  <mgrwgt>
 0.4025318919D+00    3    2    0
 0.142741853149020D+03 0.000000000000000D+00 0.000000000000000D+00 0.142741853149020D+03
 0.142741853149020D+03 0.000000000000000D+00 0.000000000000000D+00 -.142741853149020D+03
 0.158780919203580D+03 -.360597508940972D+02 0.650252515193466D+02 0.637007953909142D+02
 0.126702787094461D+03 0.360597508940972D+02 -.650252515193466D+02 -.637007953909142D+02
 0.000000000000000D+00 -.000000000000000D+00 0.000000000000000D+00 0.000000000000000D+00
 0.420705458565547D+03 0.000000000000000D+00 0.000000000000000D+00 0.420705458565547D+03
 0.152219104111035D+03 0.000000000000000D+00 0.000000000000000D+00 -.152219104111035D+03
 0.154403236083269D+03 0.336508413233963D+01 0.643913362831749D+02 0.637007953909142D+02
 0.140276552974888D+03 0.696681447416740D+02 -.655656437089132D+02 -.637007953909142D+02
 0.278244773618425D+03 -.730332288740136D+02 0.117430742573839D+01 0.268486354454513D+03
0.611120650963D-03 0.000000000000D+00 0.000000000000D+00 0.202773538897D-02 0.000000000000D+00  5 2 -1 25 24 21 0 0.42039733D-01 0.11471389D-01 0.16252183D+05 0.16252183D+05 0.16252183D+05 0.12438724D+01  1  2  2  2  5  2       -1 0.393795754791D+00 0.100000000000D+01
-.334236132936D-04 0.000000000000D+00 -.234686421146D-05 0.202773538897D-02 0.000000000000D+00  5 2 -1 25 24 21 2 0.42039733D-01 0.11471389D-01 0.16252183D+05 0.16252183D+05 0.16252183D+05 0.12438724D+01  1  2  3  2  5  2       -1 -.333233867193D-01 0.100000000000D+01
0.421860260762D-04 0.000000000000D+00 0.000000000000D+00 0.202773538897D-02 0.000000000000D+00  5 2 -1 25 24 21 2 0.42039733D-01 0.11471389D-01 0.16252183D+05 0.16252183D+05 0.16252183D+05 0.12438724D+01  1  2 15  2  5  2       -1 0.420595238684D-01 0.100000000000D+01
  </mgrwgt>
  </event>
  <event>
  4     66 0.48098993E-03 0.12056065E+03 0.75467711E-02 0.11906510E+00
        2 -1    0    0  501    0 0.00000000E+00 0.00000000E+00 0.24715730E+03 0.24715751E+03 0.32000000E+00 0.0000E+00 0.9000E+01
       -1 -1    0    0    0  501 0.00000000E+00 0.00000000E+00 -.63029495E+02 0.63030308E+02 0.32000000E+00 0.0000E+00 0.9000E+01
       25  1    1    2    0    0 -.50154362E+02 0.36522897E+02 0.65921210E+02 0.15433725E+03 0.12500000E+03 0.0000E+00 0.9000E+01
       24  1    1    2    0    0 0.50154362E+02 -.36522897E+02 0.11820659E+03 0.15585056E+03 0.80419002E+02 0.0000E+00 0.9000E+01
#aMCatNLO 1  0  0  1  2 0.66301780D+02 0.00000000D+00  -5  5  0 0.00000000D+00 0.00000000D+00 0.00000000D+00 0.00000000D+00 0.00000000D+00
  <mgrwgt>
 0.2816708965D+00    7    2    0
 0.124813291947306D+03 0.000000000000000D+00 0.000000000000000D+00 0.124813291947306D+03
 0.124813291947306D+03 0.000000000000000D+00 0.000000000000000D+00 -.124813291947306D+03
 0.143156258274754D+03 -.501543621480659D+02 0.365228973998481D+02 -.319269824172123D+02
 0.106470325619858D+03 0.501543621480659D+02 -.365228973998481D+02 0.319269824172123D+02
 0.000000000000000D+00 -.000000000000000D+00 0.000000000000000D+00 0.000000000000000D+00
 0.164485539785576D+03 0.000000000000000D+00 0.000000000000000D+00 0.164485539785576D+03
 0.160233963034306D+03 0.000000000000000D+00 0.000000000000000D+00 -.160233963034306D+03
 0.131647307210226D+03 -.205720839403741D+02 0.162317790702287D+02 -.319269824172123D+02
 0.126634239689432D+03 0.752477923962967D+02 -.537350187546703D+02 0.319269824172123D+02
 0.664379559202243D+02 -.546757084559226D+02 0.375032396844415D+02 0.425157675127050D+01
0.301602691106D-03 0.000000000000D+00 0.000000000000D+00 0.254414636355D-02 0.000000000000D+00  5 2 -1 25 24 21 0 0.38024278D-01 0.96969238D-02 0.14534870D+05 0.14534870D+05 0.14534870D+05 0.12493851D+01  1  2  2  1  5  1        2 0.278330959951D+00 0.100000000000D+01
-.167312227701D-04 0.000000000000D+00 -.115823374766D-05 0.254414636355D-02 0.000000000000D+00  5 2 -1 25 24 21 2 0.38024278D-01 0.96969238D-02 0.14534870D+05 0.14534870D+05 0.14534870D+05 0.12493851D+01  1  2  3  1  5  1        2 -.241016420464D-01 0.100000000000D+01
0.208956678067D-04 0.000000000000D+00 0.000000000000D+00 0.254414636355D-02 0.000000000000D+00  5 2 -1 25 24 21 2 0.38024278D-01 0.96969238D-02 0.14534870D+05 0.14534870D+05 0.14534870D+05 0.12493851D+01  1  2 15  1  5  1        2 0.301006036868D-01 0.100000000000D+01
-.122489907403D-03 0.000000000000D+00 0.000000000000D+00 0.254414636355D-02 0.000000000000D+00  5 2 -1 25 24 21 2 0.38024278D-01 0.96969238D-02 0.14534870D+05 0.14534870D+05 0.14534870D+05 0.12493851D+01  1  2  4  1  5  1        2 -.176449022470D+00 0.100000000000D+01
-.197130186501D-03 0.000000000000D+00 -.128047205045D-03 0.254414636355D-02 0.000000000000D+00  5 2 -1 25 24 21 2 0.62747448D-01 0.96969238D-02 0.14534870D+05 0.14534870D+05 0.14534870D+05 0.12493851D+01  1  2  5  1  5  1        2 -.167148920476D+00 0.100000000000D+01
0.244490352142D-03 0.000000000000D+00 0.113507790306D-03 0.254414636355D-02 0.000000000000D+00  5 2 -1 25 24 21 2 0.38024278D-01 0.96969238D-02 0.14534870D+05 0.14534870D+05 0.14534870D+05 0.12493851D+01  1  2  6  1  5  1        2 0.352192964739D+00 0.100000000000D+01
-.534332432361D-05 0.000000000000D+00 -.722985087423D-05 0.254414636355D-02 0.000000000000D+00  5 21 -1 25 24 -2 2 0.62747448D-01 0.96969238D-02 0.14534870D+05 0.14534870D+05 0.14534870D+05 0.12493851D+01  1  2  5  3  5  1        2 -.112540469056D-01 0.100000000000D+01
  </mgrwgt>
  </event>
  <event>
  4     66 0.48098993E-03 0.69933523E+02 0.75467711E-02 0.11721759E+00
        2 -1    0    0  501    0 0.00000000E+00 0.00000000E+00 0.51021086E+02 0.51022089E+02 0.32000000E+00 0.0000E+00 0.9000E+01
       -1 -1    0    0    0  501 0.00000000E+00 0.00000000E+00 -.31792136E+03 0.31792152E+03 0.32000000E+00 0.0000E+00 0.9000E+01
       25  1    1    2    0    0 0.47184959E+02 -.42997176E+02 -.20691888E+03 0.25003120E+03 0.12500000E+03 0.0000E+00 0.9000E+01
       24  1    1    2    0    0 -.47184959E+02 0.42997176E+02 -.59981389E+02 0.11891241E+03 0.80419002E+02 0.0000E+00 0.9000E+01
#aMCatNLO 1  0  0  2  1 0.91338015D+02 0.00000000D+00  -5  5  0 0.00000000D+00 0.00000000D+00 0.00000000D+00 0.00000000D+00 0.00000000D+00
  <mgrwgt>
 0.2312650437D+00    7    2    0
 0.127361327295396D+03 0.000000000000000D+00 0.000000000000000D+00 0.127361327295396D+03
 0.127361327295396D+03 0.000000000000000D+00 0.000000000000000D+00 -.127361327295396D+03
 0.145337317810141D+03 0.471849590500589D+02 -.429971761379657D+02 -.377194701957882D+02
 0.109385336780651D+03 -.471849590500589D+02 0.429971761379657D+02 0.377194701957882D+02
 0.000000000000000D+00 0.000000000000000D+00 0.000000000000000D+00 -.000000000000000D+00
 0.157166895928176D+03 0.000000000000000D+00 0.000000000000000D+00 0.157166895928176D+03
 0.230689143281188D+03 0.000000000000000D+00 0.000000000000000D+00 -.230689143281188D+03
 0.147907444047244D+03 0.356648441999477D+01 -.693983700213446D+02 -.377194701957882D+02
 0.122696073542706D+03 -.817057363153729D+02 0.221025955430194D+02 0.377194701957882D+02
 0.117252521619415D+03 0.781392518953782D+02 0.472957744783253D+02 -.735222473530116D+02
0.654092930939D-03 0.000000000000D+00 0.000000000000D+00 0.245367633370D-02 0.000000000000D+00  5 2 -1 25 24 21 0 0.78494874D-02 0.48911068D-01 0.14766318D+05 0.14766318D+05 0.14766318D+05 0.12486007D+01  1  2  2  2  5  2       -1 0.264859982332D+00 0.100000000000D+01
-.362409966001D-04 0.000000000000D+00 -.251188908143D-05 0.245367633370D-02 0.000000000000D+00  5 2 -1 25 24 21 2 0.78494874D-02 0.48911068D-01 0.14766318D+05 0.14766318D+05 0.14766318D+05 0.12486007D+01  1  2  3  2  5  2       -1 -.228783206832D-01 0.100000000000D+01
0.452512054756D-04 0.000000000000D+00 0.000000000000D+00 0.245367633370D-02 0.000000000000D+00  5 2 -1 25 24 21 2 0.78494874D-02 0.48911068D-01 0.14766318D+05 0.14766318D+05 0.14766318D+05 0.12486007D+01  1  2 15  2  5  2       -1 0.285663112854D-01 0.100000000000D+01
0.438278815711D-04 0.000000000000D+00 0.000000000000D+00 0.245367633370D-02 0.000000000000D+00  5 2 -1 25 24 21 2 0.78494874D-02 0.90407890D-01 0.30819434D+05 0.30819434D+05 0.30819434D+05 0.12136720D+01  1  2 12  2  5  2       -1 0.797340140146D-02 0.100000000000D+01
-.272980335267D-03 0.000000000000D+00 -.183372117083D-03 0.245367633370D-02 0.000000000000D+00  5 2 -1 25 24 21 2 0.78494874D-02 0.10390606D+00 0.14766318D+05 0.14766318D+05 0.14766318D+05 0.12486007D+01  1  2  5  2  5  2       -1 -.384688092726D-01 0.100000000000D+01
0.293750310740D-05 0.000000000000D+00 0.000000000000D+00 0.245367633370D-02 0.000000000000D+00  5 2 21 25 24 1 2 0.78494874D-02 0.90407890D-01 0.30819434D+05 0.30819434D+05 0.30819434D+05 0.12136720D+01  1  2 12  4  5  2       -1 0.474032927981D-02 0.100000000000D+01
-.108345879758D-04 0.000000000000D+00 -.149479256753D-04 0.245367633370D-02 0.000000000000D+00  5 2 21 25 24 1 2 0.78494874D-02 0.10390606D+00 0.14766318D+05 0.14766318D+05 0.14766318D+05 0.12486007D+01  1  2  5  4  5  2       -1 -.135278506553D-01 0.100000000000D+01
  </mgrwgt>
  </event>
  <event>
  4     66 0.48098993E-03 0.13869542E+03 0.75467711E-02 0.10984389E+00
        2 -1    0    0  501    0 0.00000000E+00 0.00000000E+00 0.26685637E+04 0.26685637E+04 0.32000000E+00 0.0000E+00 0.9000E+01
       -1 -1    0    0    0  501 0.00000000E+00 0.00000000E+00 -.73710314E+01 0.73779743E+01 0.32000000E+00 0.0000E+00 0.9000E+01
       25  1    1    2    0    0 -.89460840E+02 0.21437148E+02 0.16847353E+04 0.16918690E+04 0.12500000E+03 0.0000E+00 0.9000E+01
       24  1    1    2    0    0 0.89460840E+02 -.21437148E+02 0.97645742E+03 0.98407271E+03 0.80419002E+02 0.0000E+00 0.9000E+01
#aMCatNLO 1  0  0  2  2 0.20537560D+03 0.00000000D+00  -5  5  0 0.00000000D+00 0.00000000D+00 0.00000000D+00 0.00000000D+00 0.00000000D+00
  <mgrwgt>
 0.2932923955D+00    5    2    0
 0.140283220425675D+03 0.000000000000000D+00 0.000000000000000D+00 0.140283220425675D+03
 0.140283220425675D+03 0.000000000000000D+00 0.000000000000000D+00 -.140283220425675D+03
 0.156603390467825D+03 -.894608400921554D+02 0.214371475078718D+02 0.209004474294085D+02
 0.123963050383525D+03 0.894608400921554D+02 -.214371475078718D+02 -.209004474294085D+02
 0.000000000000000D+00 0.000000000000000D+00 -.000000000000000D+00 -.000000000000000D+00
 0.190293809328189D+03 0.000000000000000D+00 0.000000000000000D+00 0.190293809328189D+03
 0.815151187360115D+03 0.000000000000000D+00 0.000000000000000D+00 -.815151187360115D+03
 0.244419765939517D+03 -.164478966921079D+03 0.128941315022585D+03 0.209004474294085D+02
 0.103282211055530D+03 0.469507915537342D+02 0.394815607072076D+02 -.209004474294085D+02
 0.657743019693257D+03 0.117528175367345D+03 -.168422875729792D+03 -.624857378031926D+03
0.773384227644D-03 0.000000000000D+00 0.000000000000D+00 0.244798207204D-02 0.000000000000D+00  5 2 -1 25 24 21 0 0.41054880D+00 0.11345404D-02 0.19236420D+05 0.19236420D+05 0.19236420D+05 0.12356916D+01  1  2  2  2  5  2       -1 0.446458905070D+00 0.100000000000D+01
-.429590214525D-04 0.000000000000D+00 -.296999907090D-05 0.244798207204D-02 0.000000000000D+00  5 2 -1 25 24 21 2 0.41054880D+00 0.11345404D-02 0.19236420D+05 0.19236420D+05 0.19236420D+05 0.12356916D+01  1  2  3  2  5  2       -1 -.378669850867D-01 0.100000000000D+01
0.534148230164D-04 0.000000000000D+00 0.000000000000D+00 0.244798207204D-02 0.000000000000D+00  5 2 -1 25 24 21 2 0.41054880D+00 0.11345404D-02 0.19236420D+05 0.19236420D+05 0.19236420D+05 0.12356916D+01  1  2 15  2  5  2       -1 0.470834352875D-01 0.100000000000D+01
-.757404198866D-03 0.000000000000D+00 -.487477237459D-03 0.244798207204D-02 0.000000000000D+00  5 2 -1 25 24 21 2 0.41054880D+00 0.10499504D-01 0.19236420D+05 0.19236420D+05 0.19236420D+05 0.12356916D+01  1  2  5  2  5  2       -1 -.254471358606D-01 0.100000000000D+01
-.273384875567D-03 0.000000000000D+00 -.130101911760D-03 0.244798207204D-02 0.000000000000D+00  5 2 21 25 24 1 2 0.41054880D+00 0.10499504D-01 0.19236420D+05 0.19236420D+05 0.19236420D+05 0.12356916D+01  1  2  5  4  5  2       -1 -.136935823943D+00 0.100000000000D+01
  </mgrwgt>
  </event>
  <event>
  4     66 0.48098993E-03 0.17720487E+03 0.75467711E-02 0.10249427E+00
        2 -1    0    0  501    0 0.00000000E+00 0.00000000E+00 0.23296547E+03 0.23296569E+03 0.32000000E+00 0.0000E+00 0.9000E+01
       -1 -1    0    0    0  501 0.00000000E+00 0.00000000E+00 -.56296077E+03 0.56296086E+03 0.32000000E+00 0.0000E+00 0.9000E+01
       25  1    1    2    0    0 -.31163302E+03 -.11478058E+03 -.27696652E+03 0.45013906E+03 0.12500000E+03 0.0000E+00 0.9000E+01
       24  1    1    2    0    0 0.31163302E+03 0.11478058E+03 -.53028777E+02 0.34578749E+03 0.80419002E+02 0.0000E+00 0.9000E+01
#aMCatNLO 1  0  0  2  1 0.19653797D+03 0.00000000D+00  -5  5  0 0.00000000D+00 0.00000000D+00 0.00000000D+00 0.00000000D+00 0.00000000D+00
  <mgrwgt>
 0.3294905114D+00    7    2    0
 0.362147133606275D+03 0.000000000000000D+00 0.000000000000000D+00 0.362147133606275D+03
 0.362147133606275D+03 0.000000000000000D+00 0.000000000000000D+00 -.362147133606275D+03
 0.368469000601628D+03 -.311633024510374D+03 -.114780577185553D+03 -.992707486615785D+02
 0.355825266610921D+03 0.311633024510374D+03 0.114780577185553D+03 0.992707486615785D+02
 0.000000000000000D+00 -.000000000000000D+00 -.000000000000000D+00 -.000000000000000D+00
 0.391797070240022D+03 0.000000000000000D+00 0.000000000000000D+00 0.391797070240022D+03
 0.958593035247739D+03 0.000000000000000D+00 0.000000000000000D+00 -.958593035247739D+03
 0.295455178297537D+03 -.223326488776659D+03 -.109267379641354D+03 -.992707486615785D+02
 0.455030902846795D+03 0.419482537419885D+03 0.121513891597397D+03 0.992707486615785D+02
 0.599904024343430D+03 -.196156048643226D+03 -.122465119560424D+02 -.566795965007717D+03
0.163083524047D-01 0.000000000000D+00 0.000000000000D+00 0.182684259491D-02 0.000000000000D+00  5 2 -1 25 24 21 0 0.35840866D-01 0.86609373D-01 0.12129262D+06 0.12129262D+06 0.12129262D+06 0.11559481D+01  1  2  2  2  5  2       -1 0.369154288411D+00 0.100000000000D+01
-.904338046211D-03 0.000000000000D+00 -.626283673219D-04 0.182684259491D-02 0.000000000000D+00  5 2 -1 25 24 21 2 0.35840866D-01 0.86609373D-01 0.12129262D+06 0.12129262D+06 0.12129262D+06 0.11559481D+01  1  2  3  2  5  2       -1 -.273530224849D-01 0.100000000000D+01
0.112154182850D-02 0.000000000000D+00 0.000000000000D+00 0.182684259491D-02 0.000000000000D+00  5 2 -1 25 24 21 2 0.35840866D-01 0.86609373D-01 0.12129262D+06 0.12129262D+06 0.12129262D+06 0.11559481D+01  1  2 15  2  5  2       -1 0.339226675039D-01 0.100000000000D+01
0.154341189546D-01 0.000000000000D+00 0.000000000000D+00 0.182684259491D-02 0.000000000000D+00  5 2 -1 25 24 21 2 0.35840866D-01 0.22637277D+00 0.21108836D+06 0.21108836D+06 0.21108836D+06 0.11348925D+01  1  2 12  2  5  2       -1 0.353604008446D-01 0.100000000000D+01
-.284093757528D-01 0.000000000000D+00 -.437081410736D-02 0.182684259491D-02 0.000000000000D+00  5 2 -1 25 24 21 2 0.35840866D-01 0.23505866D+00 0.12129262D+06 0.12129262D+06 0.12129262D+06 0.11559481D+01  1  2  5  2  5  2       -1 -.607029273194D-01 0.100000000000D+01
0.164449164488D-02 0.000000000000D+00 0.000000000000D+00 0.182684259491D-02 0.000000000000D+00  5 2 21 25 24 1 2 0.35840866D-01 0.22637277D+00 0.21108836D+06 0.21108836D+06 0.21108836D+06 0.11348925D+01  1  2 12  4  5  2       -1 0.296859035222D-01 0.100000000000D+01
-.291389779224D-02 0.000000000000D+00 -.487239304565D-03 0.182684259491D-02 0.000000000000D+00  5 2 21 25 24 1 2 0.35840866D-01 0.23505866D+00 0.12129262D+06 0.12129262D+06 0.12129262D+06 0.11559481D+01  1  2  5  4  5  2       -1 -.505767990349D-01 0.100000000000D+01
  </mgrwgt>
  </event>
  <event>
  4     66 0.48098993E-03 0.16145757E+03 0.75467711E-02 0.11522480E+00
        2 -1    0    0  501    0 0.00000000E+00 0.00000000E+00 0.44112511E+03 0.44112522E+03 0.32000000E+00 0.0000E+00 0.9000E+01
       -1 -1    0    0    0  501 0.00000000E+00 0.00000000E+00 -.74403471E+02 0.74404159E+02 0.32000000E+00 0.0000E+00 0.9000E+01
       25  1    1    2    0    0 0.10544219E+03 -.64073793E+02 0.31271264E+03 0.35866099E+03 0.12500000E+03 0.0000E+00 0.9000E+01
       24  1    1    2    0    0 -.10544219E+03 0.64073793E+02 0.54008994E+02 0.15686840E+03 0.80419002E+02 0.0000E+00 0.9000E+01
#aMCatNLO 1  0  0  1  1 0.64659689D+02 0.00000000D+00  -5  5  0 0.00000000D+00 0.00000000D+00 0.00000000D+00 0.00000000D+00 0.00000000D+00
  <mgrwgt>
 0.2649659289D+00    4    2    0
 0.181166901846863D+03 0.000000000000000D+00 0.000000000000000D+00 0.181166901846863D+03
 0.181166901846863D+03 0.000000000000000D+00 0.000000000000000D+00 -.181166901846863D+03
 0.193804121935456D+03 0.105442189845694D+03 -.640737929902058D+02 0.819239362553207D+02
 0.168529681758269D+03 -.105442189845694D+03 0.640737929902058D+02 -.819239362553207D+02
 0.000000000000000D+00 0.000000000000000D+00 -.000000000000000D+00 -.000000000000000D+00
 0.204979476019641D+03 0.000000000000000D+00 0.000000000000000D+00 0.204979476019641D+03
 0.233918910048069D+03 0.000000000000000D+00 0.000000000000000D+00 -.233918910048069D+03
 0.174860128278064D+03 0.781379485629430D+02 -.461951742526210D+02 0.819239362553207D+02
 0.193197830016952D+03 -.132232678086416D+03 0.816160099699612D+02 -.819239362553207D+02
 0.708404277726938D+02 0.540947295234733D+02 -.354208357173402D+02 -.289394340284276D+02
0.111034461431D-02 0.000000000000D+00 0.000000000000D+00 0.180019868477D-02 0.000000000000D+00  5 2 -1 25 24 21 0 0.67865463D-01 0.11446750D-01 0.26068546D+05 0.26068546D+05 0.26068546D+05 0.12213537D+01  1  2  2  1  5  1        2 0.436166232149D+00 0.100000000000D+01
-.606908798343D-04 0.000000000000D+00 -.426401567938D-05 0.180019868477D-02 0.000000000000D+00  5 2 -1 25 24 21 2 0.67865463D-01 0.11446750D-01 0.26068546D+05 0.26068546D+05 0.26068546D+05 0.12213537D+01  1  2  3  1  5  1        2 -.355631770741D-01 0.100000000000D+01
0.763712749552D-04 0.000000000000D+00 0.000000000000D+00 0.180019868477D-02 0.000000000000D+00  5 2 -1 25 24 21 2 0.67865463D-01 0.11446750D-01 0.26068546D+05 0.26068546D+05 0.26068546D+05 0.12213537D+01  1  2 15  1  5  1        2 0.447514549471D-01 0.100000000000D+01
-.307844872205D-03 0.000000000000D+00 0.000000000000D+00 0.180019868477D-02 0.000000000000D+00  5 2 -1 25 24 21 2 0.67865463D-01 0.11446750D-01 0.26068546D+05 0.26068546D+05 0.26068546D+05 0.12213537D+01  1  2  4  1  5  1        2 -.180388581142D+00 0.100000000000D+01
  </mgrwgt>
  </event>
  <event>
  4     66 0.48098993E-03 0.75508236E+02 0.75467711E-02 0.11840435E+00
        2 -1    0    0  501    0 0.00000000E+00 0.00000000E+00 0.40178597E+03 0.40178609E+03 0.32000000E+00 0.0000E+00 0.9000E+01
       -1 -1    0    0    0  501 0.00000000E+00 0.00000000E+00 -.76883630E+02 0.76884296E+02 0.32000000E+00 0.0000E+00 0.9000E+01
       25  1    1    2    0    0 0.34185773E+02 -.11475562E+03 0.71890291E+02 0.18743195E+03 0.12500000E+03 0.0000E+00 0.9000E+01
       24  1    1    2    0    0 -.34185773E+02 0.11475562E+03 0.25301205E+03 0.29123844E+03 0.80419002E+02 0.0000E+00 0.9000E+01
#aMCatNLO 1  0  0  2  1 0.11012456D+02 0.00000000D+00  -5  5  0 0.00000000D+00 0.00000000D+00 0.00000000D+00 0.00000000D+00 0.00000000D+00
  <mgrwgt>
 0.6452342932D+00    6    2    0
 0.175758224085187D+03 0.000000000000000D+00 0.000000000000000D+00 0.175758224085187D+03
 0.175758224085187D+03 0.000000000000000D+00 0.000000000000000D+00 -.175758224085187D+03
 0.188784334375751D+03 0.341857733035570D+02 -.114755623040886D+03 -.753459009490991D+02
 0.162732113794623D+03 -.341857733035570D+02 0.114755623040886D+03 0.753459009490991D+02
 0.000000000000000D+00 -.000000000000000D+00 0.000000000000000D+00 0.000000000000000D+00
 0.182559284867942D+03 0.000000000000000D+00 0.000000000000000D+00 0.182559284867942D+03
 0.180359615375149D+03 0.000000000000000D+00 0.000000000000000D+00 -.180359615375149D+03
 0.192475175958361D+03 0.374385521179504D+02 -.119762445640034D+03 -.753459009490991D+02
 0.159213731358270D+03 -.314390388717324D+02 0.110527726583167D+03 0.753459009490991D+02
 0.112299929264594D+02 -.599951324621794D+01 0.923471905686694D+01 0.219966949279276D+01
0.752885676296D-03 0.000000000000D+00 0.000000000000D+00 0.186457198838D-02 0.000000000000D+00  5 2 -1 25 24 21 0 0.61813287D-01 0.11828312D-01 0.25175427D+05 0.25175427D+05 0.25175427D+05 0.12229722D+01  1  2  2  2  5  2       -1 0.310743380178D+00 0.100000000000D+01
-.412947904139D-04 0.000000000000D+00 -.289127923633D-05 0.186457198838D-02 0.000000000000D+00  5 2 -1 25 24 21 2 0.61813287D-01 0.11828312D-01 0.25175427D+05 0.25175427D+05 0.25175427D+05 0.12229722D+01  1  2  3  2  5  2       -1 -.254918456818D-01 0.100000000000D+01
0.518396292024D-04 0.000000000000D+00 0.000000000000D+00 0.186457198838D-02 0.000000000000D+00  5 2 -1 25 24 21 2 0.61813287D-01 0.11828312D-01 0.25175427D+05 0.25175427D+05 0.25175427D+05 0.12229722D+01  1  2 15  2  5  2       -1 0.320013206166D-01 0.100000000000D+01
0.122877016293D-02 0.000000000000D+00 0.000000000000D+00 0.186457198838D-02 0.000000000000D+00  5 2 -1 25 24 21 2 0.61813287D-01 0.12359623D-01 0.26959061D+05 0.26959061D+05 0.26959061D+05 0.12198004D+01  1  2 12  2  5  2       -1 0.705936120035D+00 0.100000000000D+01
-.786445387417D-03 0.000000000000D+00 0.000000000000D+00 0.186457198838D-02 0.000000000000D+00  5 2 -1 25 24 21 2 0.61813287D-01 0.11828312D-01 0.25175427D+05 0.25175427D+05 0.25175427D+05 0.12229722D+01  1  2  4  2  5  2       -1 -.485483622808D+00 0.100000000000D+01
0.131087221290D-04 0.000000000000D+00 0.000000000000D+00 0.186457198838D-02 0.000000000000D+00  5 2 21 25 24 1 2 0.61813287D-01 0.12359623D-01 0.26959061D+05 0.26959061D+05 0.26959061D+05 0.12198004D+01  1  2 12  4  5  2       -1 0.107528940827D+00 0.100000000000D+01
  </mgrwgt>
  </event>
  <event>
  4     66 0.48098993E-03 0.76915288E+02 0.75467711E-02 0.12082948E+00
        2 -1    0    0  501    0 0.00000000E+00 0.00000000E+00 0.52539612E+02 0.52540586E+02 0.32000000E+00 0.0000E+00 0.9000E+01
       -1 -1    0    0    0  501 0.00000000E+00 0.00000000E+00 -.34665200E+03 0.34665215E+03 0.32000000E+00 0.0000E+00 0.9000E+01
       25  1    1    2    0    0 -.11047104E+02 0.85601399E+02 -.16892353E+03 0.22717789E+03 0.12500000E+03 0.0000E+00 0.9000E+01
       24  1    1    2    0    0 0.11047104E+02 -.85601399E+02 -.12518887E+03 0.17201484E+03 0.80419002E+02 0.0000E+00 0.9000E+01
#aMCatNLO 1  0  0  2  1 0.17195498D+02 0.00000000D+00  -5  5  0 0.00000000D+00 0.00000000D+00 0.00000000D+00 0.00000000D+00 0.00000000D+00
  <mgrwgt>
 0.3828586911D+00    9    2    0
 0.134956236024515D+03 0.000000000000000D+00 0.000000000000000D+00 0.134956236024515D+03
 0.134956236024515D+03 0.000000000000000D+00 0.000000000000000D+00 -.134956236024515D+03
 0.151920594833333D+03 -.110471044485853D+02 0.856013994386995D+02 -.228670766647002D+01
 0.117991877215697D+03 0.110471044485853D+02 -.856013994386995D+02 0.228670766647002D+01
 0.000000000000000D+00 -.000000000000000D+00 0.000000000000000D+00 -.000000000000000D+00
 0.138389420416995D+03 0.000000000000000D+00 0.000000000000000D+00 0.138389420416995D+03
 0.158625674427697D+03 0.000000000000000D+00 0.000000000000000D+00 -.158625674427697D+03
 0.146761354576093D+03 -.883056837929942D+01 0.763589367864442D+02 -.228670766647002D+01
 0.123698305463817D+03 0.128407013116053D+02 -.930802996241611D+02 0.228670766647002D+01
 0.265554348047819D+02 -.401013293230587D+01 0.167213628377168D+02 -.202362540107027D+02
0.804716996067D-03 0.000000000000D+00 0.000000000000D+00 0.255651511417D-02 0.000000000000D+00  5 2 -1 25 24 21 0 0.80831035D-02 0.53331164D-01 0.18207873D+05 0.18207873D+05 0.18207873D+05 0.12383400D+01  1  2  2  2  5  2       -1 0.269717345346D+00 0.100000000000D+01
-.447064986248D-04 0.000000000000D+00 -.309032515175D-05 0.255651511417D-02 0.000000000000D+00  5 2 -1 25 24 21 2 0.80831035D-02 0.53331164D-01 0.18207873D+05 0.18207873D+05 0.18207873D+05 0.12383400D+01  1  2  3  2  5  2       -1 -.229782069654D-01 0.100000000000D+01
0.555833289262D-04 0.000000000000D+00 0.000000000000D+00 0.255651511417D-02 0.000000000000D+00  5 2 -1 25 24 21 2 0.80831035D-02 0.53331164D-01 0.18207873D+05 0.18207873D+05 0.18207873D+05 0.12383400D+01  1  2 15  2  5  2       -1 0.285686706672D-01 0.100000000000D+01
0.223571002817D-02 0.000000000000D+00 0.000000000000D+00 0.255651511417D-02 0.000000000000D+00  5 2 -1 25 24 21 2 0.80831035D-02 0.63283258D-01 0.20680770D+05 0.20680770D+05 0.20680770D+05 0.12322289D+01  1  2 12  2  5  2       -1 0.826405534396D+00 0.100000000000D+01
-.226808453209D-02 0.000000000000D+00 0.000000000000D+00 0.255651511417D-02 0.000000000000D+00  5 2 -1 25 24 21 2 0.80831035D-02 0.53331164D-01 0.18207873D+05 0.18207873D+05 0.18207873D+05 0.12383400D+01  1  2  4  2  5  2       -1 -.116574809919D+01 0.100000000000D+01
-.366550547324D-02 0.000000000000D+00 -.567602014566D-03 0.255651511417D-02 0.000000000000D+00  5 2 -1 25 24 21 2 0.80831035D-02 0.63790660D-01 0.18207873D+05 0.18207873D+05 0.18207873D+05 0.12383400D+01  1  2  5  2  5  2       -1 -.134370865397D+01 0.100000000000D+01
0.371638201905D-02 0.000000000000D+00 0.558620078600D-03 0.255651511417D-02 0.000000000000D+00  5 2 -1 25 24 21 2 0.80831035D-02 0.53331164D-01 0.18207873D+05 0.18207873D+05 0.18207873D+05 0.12383400D+01  1  2  6  2  5  2       -1 0.191014277171D+01 0.100000000000D+01
0.566597245664D-04 0.000000000000D+00 0.000000000000D+00 0.255651511417D-02 0.000000000000D+00  5 2 21 25 24 1 2 0.80831035D-02 0.63283258D-01 0.20680770D+05 0.20680770D+05 0.20680770D+05 0.12322289D+01  1  2 12  4  5  2       -1 0.201643018264D+00 0.100000000000D+01
-.908931229958D-04 0.000000000000D+00 -.149103244115D-04 0.255651511417D-02 0.000000000000D+00  5 2 21 25 24 1 2 0.80831035D-02 0.63790660D-01 0.18207873D+05 0.18207873D+05 0.18207873D+05 0.12383400D+01  1  2  5  4  5  2       -1 -.321183689163D+00 0.100000000000D+01
  </mgrwgt>
  </event>
  <event>
  5     66 -.48098993E-03 0.10838313E+03 0.75467711E-02 0.12446718E+00
        2 -1    0    0  502    0 0.00000000E+00 0.00000000E+00 0.10459931E+02 0.10464825E+02 0.32000000E+00 0.0000E+00 0.9000E+01
       -1 -1    0    0    0  501 0.00000000E+00 0.00000000E+00 -.13835672E+04 0.13835673E+04 0.32000000E+00 0.0000E+00 0.9000E+01
       25  1    1    2    0    0 0.36011616E+02 -.73257652E+01 -.65105820E+03 0.66396708E+03 0.12500000E+03 0.0000E+00 0.9000E+01
       24  1    1    2    0    0 -.24422736E+02 0.24090764E+02 -.59508429E+03 0.60147266E+03 0.80419002E+02 0.0000E+00 0.9000E+01
       21  1    1    2  502  501 -.11588881E+02 -.16764999E+02 -.12696482E+03 0.12859236E+03 0.75000000E+00 0.0000E+00 0.9000E+01
#aMCatNLO 2  0  0  1  2 0.20380563D+02 0.00000000D+00  -5  5  0 0.00000000D+00 0.00000000D+00 0.00000000D+00 0.00000000D+00 0.00000000D+00
  <mgrwgt>
 -.2057809970D+00    2    2    0
 0.109602996587335D+03 0.000000000000000D+00 0.000000000000000D+00 0.109602996587335D+03
 0.109602996587335D+03 0.000000000000000D+00 0.000000000000000D+00 -.109602996587335D+03
 0.130491531414785D+03 0.291071892557067D+02 -.173140217149211D+02 0.160011236062791D+02
 0.887144617598858D+02 -.291071892557067D+02 0.173140217149211D+02 -.160011236062791D+02
 0.000000000000000D+00 -.000000000000000D+00 -.000000000000000D+00 -.000000000000000D+00
 0.119352724470477D+03 0.000000000000000D+00 0.000000000000000D+00 0.119352724470477D+03
 0.121269131402434D+03 0.000000000000000D+00 0.000000000000000D+00 -.121269131402434D+03
 0.131268957903689D+03 0.360116164147877D+02 -.732576519219854D+01 0.160011236062791D+02
 0.888824326828885D+02 -.244227358282558D+02 0.240907638579078D+02 -.160011236062791D+02
 0.204704652863333D+02 -.115888805865318D+02 -.167649986657092D+02 -.191640693195631D+01
-.219439225097D-02 0.000000000000D+00 0.000000000000D+00 0.296860499061D-02 0.000000000000D+00  5 2 -1 25 24 21 2 0.16809519D-02 0.19236898D+00 0.14173010D+05 0.14173010D+05 0.14173010D+05 0.12506401D+01  1  2 13  1  5  1        2 -.498064311217D+00 0.100000000000D+01
0.165110048128D-02 0.000000000000D+00 0.000000000000D+00 0.296860499061D-02 0.601505400974D-04  5 2 -1 25 24 21 2 0.16095075D-02 0.21284472D+00 0.14173010D+05 0.14173010D+05 0.14173010D+05 0.12506401D+01  1  2  1  1  5  1        2 0.292283314223D+00 0.100000000000D+01
  </mgrwgt>
  </event>
  <event>
  5     66 0.48098993E-03 0.15295329E+03 0.75467711E-02 0.10386366E+00
        2 -1    0    0  501    0 0.00000000E+00 0.00000000E+00 0.33676727E+04 0.33676727E+04 0.32000000E+00 0.0000E+00 0.9000E+01
       21 -1    0    0  502  501 0.00000000E+00 0.00000000E+00 -.10197654E+03 0.10197930E+03 0.75000000E+00 0.0000E+00 0.9000E+01
       25  1    1    2    0    0 -.32448239E+03 -.16606999E+03 0.26630270E+04 0.26907631E+04 0.12500000E+03 0.0000E+00 0.9000E+01
       24  1    1    2    0    0 -.63323696E+01 0.18105186E+02 0.28573186E+03 0.29745220E+03 0.80419002E+02 0.0000E+00 0.9000E+01
        1  1    1    2  502    0 0.33081476E+03 0.14796481E+03 0.31693729E+03 0.48143674E+03 0.32000000E+00 0.0000E+00 0.9000E+01
#aMCatNLO 2  0  0  2  2 0.36239755D+03 0.00000000D+00  -5  5  0 0.00000000D+00 0.00000000D+00 0.00000000D+00 0.00000000D+00 0.00000000D+00
  <mgrwgt>
 0.2939244625D-01    1    2    0
 0.160405447997563D+03 0.000000000000000D+00 0.000000000000000D+00 0.160405447997563D+03
 0.160405447997563D+03 0.000000000000000D+00 0.000000000000000D+00 -.160405447997563D+03
 0.174678317404356D+03 -.930543536121970D+02 -.625582736536702D+02 0.481130360973572D+02
 0.146132578590769D+03 0.930543536121970D+02 0.625582736536702D+02 -.481130360973572D+02
 0.000000000000000D+00 0.000000000000000D+00 0.000000000000000D+00 -.000000000000000D+00
 0.274540336733113D+03 0.000000000000000D+00 0.000000000000000D+00 0.274540336733113D+03
 0.125092130960809D+04 0.000000000000000D+00 0.000000000000000D+00 -.125092130960809D+04
 0.388339961364638D+03 -.324482385620980D+03 -.166069993592763D+03 0.481130360973572D+02
 0.956555113490165D+02 -.633236956892792D+01 0.181051857269738D+02 -.481130360973572D+02
 0.104146617362755D+04 0.330814755189908D+03 0.147964807865789D+03 -.976380972874975D+03
0.433346041485D-03 0.000000000000D+00 0.000000000000D+00 0.214088117171D-02 0.111905270673D-06  5 2 21 25 24 1 2 0.51810366D+00 0.15688910D-01 0.17239946D+06 0.17239946D+06 0.17239946D+06 0.11424488D+01  1  2  1  4  5  2       -1 0.293924462451D-01 0.100000000000D+01
  </mgrwgt>
  </event>
  <event>
  4     66 0.48098993E-03 0.26440032E+03 0.75467711E-02 0.11017510E+00
        2 -1    0    0  501    0 0.00000000E+00 0.00000000E+00 0.20296746E+04 0.20296746E+04 0.32000000E+00 0.0000E+00 0.9000E+01
       -1 -1    0    0    0  501 0.00000000E+00 0.00000000E+00 -.34459770E+02 0.34461256E+02 0.32000000E+00 0.0000E+00 0.9000E+01
       25  1    1    2    0    0 0.19818527E+02 0.24195790E+03 0.10537132E+04 0.10885187E+04 0.12500000E+03 0.0000E+00 0.9000E+01
       24  1    1    2    0    0 -.19818527E+02 -.24195790E+03 0.94150166E+03 0.97561723E+03 0.80419002E+02 0.0000E+00 0.9000E+01
#aMCatNLO 1  0  0  1  2 0.94703813D+01 0.00000000D+00  -5  5  0 0.00000000D+00 0.00000000D+00 0.00000000D+00 0.00000000D+00 0.00000000D+00
  <mgrwgt>
 0.1925261214D+00    6    2    0
 0.264468673454853D+03 0.000000000000000D+00 0.000000000000000D+00 0.264468673454853D+03
 0.264468673454853D+03 0.000000000000000D+00 0.000000000000000D+00 -.264468673454853D+03
 0.273125449251773D+03 0.198185271789628D+02 0.241957896376927D+03 0.600944176207960D+01
 0.255811897657934D+03 -.198185271789628D+02 -.241957896376927D+03 -.600944176207960D+01
 0.000000000000000D+00 -.000000000000000D+00 0.000000000000000D+00 -.000000000000000D+00
 0.266213525608547D+03 0.000000000000000D+00 0.000000000000000D+00 0.266213525608547D+03
 0.277681394819768D+03 0.000000000000000D+00 0.000000000000000D+00 -.277681394819768D+03
 0.268970755504167D+03 0.206879587222697D+02 0.237183815405048D+03 0.600944176207960D+01
 0.260051366035579D+03 -.189911688806505D+02 -.246500951594218D+03 -.600944176207960D+01
 0.148727988885697D+02 -.169678984161917D+01 0.931713618916990D+01 -.114678692112214D+02
0.287364332458D-02 0.000000000000D+00 0.000000000000D+00 0.204229700676D-02 0.000000000000D+00  5 2 -1 25 24 21 0 0.31225775D+00 0.53016193D-02 0.69907527D+05 0.69907527D+05 0.69907527D+05 0.11781302D+01  1  2  2  1  5  1        2 0.377701556477D+00 0.100000000000D+01
-.159646838394D-03 0.000000000000D+00 -.110355470140D-04 0.204229700676D-02 0.000000000000D+00  5 2 -1 25 24 21 2 0.31225775D+00 0.53016193D-02 0.69907527D+05 0.69907527D+05 0.69907527D+05 0.11781302D+01  1  2  3  1  5  1        2 -.291247883843D-01 0.100000000000D+01
0.197127580916D-03 0.000000000000D+00 0.000000000000D+00 0.204229700676D-02 0.000000000000D+00  5 2 -1 25 24 21 2 0.31225775D+00 0.53016193D-02 0.69907527D+05 0.69907527D+05 0.69907527D+05 0.11781302D+01  1  2 15  1  5  1        2 0.359624978271D-01 0.100000000000D+01
-.105253591918D-02 0.000000000000D+00 0.000000000000D+00 0.204229700676D-02 0.000000000000D+00  5 2 -1 25 24 21 2 0.31225775D+00 0.53016193D-02 0.69907527D+05 0.69907527D+05 0.69907527D+05 0.11781302D+01  1  2  4  1  5  1        2 -.192016868116D+00 0.100000000000D+01
0.222233021017D-07 0.000000000000D+00 0.000000000000D+00 0.204229700676D-02 0.168309170410D-03  5 2 -1 25 24 21 2 0.31431789D+00 0.55664855D-02 0.72456773D+05 0.72456773D+05 0.72456773D+05 0.11766483D+01  1  2 11  1  5  1        2 0.369486036039D-05 0.100000000000D+01
0.590282119108D-09 0.000000000000D+00 0.000000000000D+00 0.204229700676D-02 0.210896358366D-06  5 21 -1 25 24 -2 2 0.31431789D+00 0.55664855D-02 0.72456773D+05 0.72456773D+05 0.72456773D+05 0.11766483D+01  1  2 11  3  5  1        2 0.287301674849D-07 0.100000000000D+01
  </mgrwgt>
  </event>
  <event>
  4     66 0.48098993E-03 0.10952889E+03 0.75467711E-02 0.10561730E+00
        2 -1    0    0  501    0 0.00000000E+00 0.00000000E+00 0.11735808E+04 0.11735808E+04 0.32000000E+00 0.0000E+00 0.9000E+01
       -1 -1    0    0    0  501 0.00000000E+00 0.00000000E+00 -.10481464E+02 0.10486348E+02 0.32000000E+00 0.0000E+00 0.9000E+01
       25  1    1    2    0    0 -.49617054E+01 -.36915752E+02 0.78163300E+03 0.79244087E+03 0.12500000E+03 0.0000E+00 0.9000E+01
       24  1    1    2    0    0 0.49617054E+01 0.36915752E+02 0.38146634E+03 0.39162632E+03 0.80419002E+02 0.0000E+00 0.9000E+01
#aMCatNLO 1  0  0  1  2 0.33336588D+03 0.00000000D+00  -5  5  0 0.00000000D+00 0.00000000D+00 0.00000000D+00 0.00000000D+00 0.00000000D+00
  <mgrwgt>
 0.3574495456D+00    5    2    0
 0.110922324138333D+03 0.000000000000000D+00 0.000000000000000D+00 0.110922324138333D+03
 0.110922324138333D+03 0.000000000000000D+00 0.000000000000000D+00 -.110922324138333D+03
 0.131562407450617D+03 -.496170539019369D+01 -.369157524755465D+02 0.172126625769321D+02
 0.902822408260492D+02 0.496170539019369D+01 0.369157524755465D+02 -.172126625769321D+02
 0.000000000000000D+00 -.000000000000000D+00 -.000000000000000D+00 0.000000000000000D+00
 0.388762954255409D+03 0.000000000000000D+00 0.000000000000000D+00 0.388762954255409D+03
 0.347572589760664D+03 0.000000000000000D+00 0.000000000000000D+00 -.347572589760664D+03
 0.185545066839739D+03 0.788679478973672D+02 0.110840168125251D+03 0.172126625769321D+02
 0.214889517647984D+03 0.856360659150711D+02 0.179110237848691D+03 -.172126625769321D+02
 0.335900959528351D+03 -.164504013812438D+03 -.289950405973943D+03 0.411903644947442D+02
0.167701718738D-03 0.000000000000D+00 0.000000000000D+00 0.292632546904D-02 0.000000000000D+00  5 2 -1 25 24 21 0 0.18055127D+00 0.16129119D-02 0.11996578D+05 0.11996578D+05 0.11996578D+05 0.12590386D+01  1  2  2  1  5  1        2 0.349432838975D+00 0.100000000000D+01
-.931495178795D-05 0.000000000000D+00 -.644018756830D-06 0.292632546904D-02 0.000000000000D+00  5 2 -1 25 24 21 2 0.18055127D+00 0.16129119D-02 0.11996578D+05 0.11996578D+05 0.11996578D+05 0.12590386D+01  1  2  3  1  5  1        2 -.307669836984D-01 0.100000000000D+01
0.116076668451D-04 0.000000000000D+00 0.000000000000D+00 0.292632546904D-02 0.000000000000D+00  5 2 -1 25 24 21 2 0.18055127D+00 0.16129119D-02 0.11996578D+05 0.11996578D+05 0.11996578D+05 0.12590386D+01  1  2 15  1  5  1        2 0.383397471860D-01 0.100000000000D+01
0.753595634967D-04 0.000000000000D+00 -.635396134522D-04 0.292632546904D-02 0.000000000000D+00  5 2 -1 25 24 21 2 0.79677986D+00 0.16129119D-02 0.11996578D+05 0.11996578D+05 0.11996578D+05 0.12590386D+01  1  2  5  1  5  1        2 0.442968465155D-03 0.100000000000D+01
0.131688718314D-04 0.000000000000D+00 -.113843387581D-04 0.292632546904D-02 0.000000000000D+00  5 21 -1 25 24 -2 2 0.79677986D+00 0.16129119D-02 0.11996578D+05 0.11996578D+05 0.11996578D+05 0.12590386D+01  1  2  5  3  5  1        2 0.974654404174D-06 0.100000000000D+01
  </mgrwgt>
  </event>
  <event>
  4     66 0.48098993E-03 0.12355168E+03 0.75467711E-02 0.11892464E+00
        2 -1    0    0  501    0 0.00000000E+00 0.00000000E+00 0.22987916E+04 0.22987917E+04 0.32000000E+00 0.0000E+00 0.9000E+01
       -1 -1    0    0    0  501 0.00000000E+00 0.00000000E+00 -.76678610E+01 0.76745354E+01 0.32000000E+00 0.0000E+00 0.9000E+01
       25  1    1    2    0    0 0.83097243E+00 -.67539549E+02 0.87569098E+03 0.88714259E+03 0.12500000E+03 0.0000E+00 0.9000E+01
       24  1    1    2    0    0 -.83097243E+00 0.67539549E+02 0.14154328E+04 0.14193236E+04 0.80419002E+02 0.0000E+00 0.9000E+01
#aMCatNLO 1  0  0  2  2 0.64495983D+02 0.00000000D+00  -5  5  0 0.00000000D+00 0.00000000D+00 0.00000000D+00 0.00000000D+00 0.00000000D+00
  <mgrwgt>
 0.3285881067D+00    4    2    0
 0.132795096140349D+03 0.000000000000000D+00 0.000000000000000D+00 0.132795096140349D+03
 0.132795096140349D+03 0.000000000000000D+00 0.000000000000000D+00 -.132795096140349D+03
 0.150035537074912D+03 0.830972428255802D+00 -.675395486450552D+02 -.482014651126194D+02
 0.115554655205785D+03 -.830972428255802D+00 0.675395486450552D+02 0.482014651126194D+02
 0.000000000000000D+00 0.000000000000000D+00 0.000000000000000D+00 0.000000000000000D+00
 0.181175047122194D+03 0.000000000000000D+00 0.000000000000000D+00 0.181175047122194D+03
 0.160013095654110D+03 0.000000000000000D+00 0.000000000000000D+00 -.160013095654110D+03
 0.168425283288650D+03 -.185140627647063D+02 -.100378903619254D+03 -.482014651126194D+02
 0.104883849466265D+03 -.142216012217646D+02 0.448081548847714D+02 0.482014651126194D+02
 0.678790100213884D+02 0.327356639864709D+02 0.555707487344831D+02 0.211619514680845D+02
0.505456021698D-03 0.000000000000D+00 0.000000000000D+00 0.228095434167D-02 0.000000000000D+00  5 2 -1 25 24 21 0 0.35366077D+00 0.11801861D-02 0.15265018D+05 0.15265018D+05 0.15265018D+05 0.12469564D+01  1  2  2  2  5  2       -1 0.433397254062D+00 0.100000000000D+01
-.279031693692D-04 0.000000000000D+00 -.194108421295D-05 0.228095434167D-02 0.000000000000D+00  5 2 -1 25 24 21 2 0.35366077D+00 0.11801861D-02 0.15265018D+05 0.15265018D+05 0.15265018D+05 0.12469564D+01  1  2  3  2  5  2       -1 -.372013610201D-01 0.100000000000D+01
0.348489332626D-04 0.000000000000D+00 0.000000000000D+00 0.228095434167D-02 0.000000000000D+00  5 2 -1 25 24 21 2 0.35366077D+00 0.11801861D-02 0.15265018D+05 0.15265018D+05 0.15265018D+05 0.12469564D+01  1  2 15  2  5  2       -1 0.464616664263D-01 0.100000000000D+01
-.855586777593D-04 0.000000000000D+00 0.000000000000D+00 0.228095434167D-02 0.000000000000D+00  5 2 -1 25 24 21 2 0.35366077D+00 0.11801861D-02 0.15265018D+05 0.15265018D+05 0.15265018D+05 0.12469564D+01  1  2  4  2  5  2       -1 -.114069452743D+00 0.100000000000D+01
  </mgrwgt>
  </event>
  <event>
  4     66 0.48098993E-03 0.47349119E+02 0.75467711E-02 0.12283840E+00
        2 -1    0    0  501    0 0.00000000E+00 0.00000000E+00 0.19063884E+04 0.19063884E+04 0.32000000E+00 0.0000E+00 0.9000E+01
       -1 -1    0    0    0  501 0.00000000E+00 0.00000000E+00 -.85444192E+01 0.85504093E+01 0.32000000E+00 0.0000E+00 0.9000E+01
       25  1    1    2    0    0 -.60447745E+02 -.25555568E+01 0.75445405E+03 0.76712866E+03 0.12500000E+03 0.0000E+00 0.9000E+01
       24  1    1    2    0    0 0.60447745E+02 0.25555568E+01 0.11433899E+04 0.11478102E+04 0.80419002E+02 0.0000E+00 0.9000E+01
#aMCatNLO 1  0  0  2  1 0.18680667D+02 0.00000000D+00  -5  5  0 0.00000000D+00 0.00000000D+00 0.00000000D+00 0.00000000D+00 0.00000000D+00
  <mgrwgt>
 0.2739969562D+00    9    2    0
 0.127650862514800D+03 0.000000000000000D+00 0.000000000000000D+00 0.127650862514800D+03
 0.127650862514800D+03 0.000000000000000D+00 0.000000000000000D+00 -.127650862514800D+03
 0.145586080235260D+03 -.604477447634864D+02 -.255555682276325D+01 -.437017853251038D+02
 0.109715644794341D+03 0.604477447634864D+02 0.255555682276325D+01 0.437017853251038D+02
 0.000000000000000D+00 0.000000000000000D+00 -.000000000000000D+00 -.000000000000000D+00
 0.136244565104641D+03 0.000000000000000D+00 0.000000000000000D+00 0.136244565104641D+03
 0.138563769292519D+03 0.000000000000000D+00 0.000000000000000D+00 -.138563769292519D+03
 0.149522678777162D+03 -.693524728033488D+02 0.352419411462535D+01 -.437017853251038D+02
 0.106461574862381D+03 0.539247281105796D+02 0.700918150760256D+01 0.437017853251038D+02
 0.188240807576170D+02 0.154277446927692D+02 -.105333756222279D+02 -.231920418787841D+01
0.280411127590D-03 0.000000000000D+00 0.000000000000D+00 0.238061652948D-02 0.000000000000D+00  5 2 -1 25 24 21 0 0.29329099D+00 0.13149889D-02 0.14341076D+05 0.14341076D+05 0.14341076D+05 0.12500528D+01  1  2  2  2  5  2       -1 0.327140513072D+00 0.100000000000D+01
-.155011588931D-04 0.000000000000D+00 -.107685256389D-05 0.238061652948D-02 0.000000000000D+00  5 2 -1 25 24 21 2 0.29329099D+00 0.13149889D-02 0.14341076D+05 0.14341076D+05 0.14341076D+05 0.12500528D+01  1  2  3  2  5  2       -1 -.282592065405D-01 0.100000000000D+01
0.193954043167D-04 0.000000000000D+00 0.000000000000D+00 0.238061652948D-02 0.000000000000D+00  5 2 -1 25 24 21 2 0.29329099D+00 0.13149889D-02 0.14341076D+05 0.14341076D+05 0.14341076D+05 0.12500528D+01  1  2 15  2  5  2       -1 0.353585651436D-01 0.100000000000D+01
0.319538567181D-03 0.000000000000D+00 0.000000000000D+00 0.238061652948D-02 0.000000000000D+00  5 2 -1 25 24 21 2 0.29329099D+00 0.14683359D-02 0.16738246D+05 0.16738246D+05 0.16738246D+05 0.12424302D+01  1  2 12  2  5  2       -1 0.492881160736D+00 0.100000000000D+01
-.271825606096D-03 0.000000000000D+00 0.000000000000D+00 0.238061652948D-02 0.000000000000D+00  5 2 -1 25 24 21 2 0.29329099D+00 0.13149889D-02 0.14341076D+05 0.14341076D+05 0.14341076D+05 0.12500528D+01  1  2  4  2  5  2       -1 -.495548494062D+00 0.100000000000D+01
-.920970013992D-03 0.000000000000D+00 -.231894825570D-03 0.238061652948D-02 0.000000000000D+00  5 2 -1 25 24 21 2 0.29329099D+00 0.15416744D-02 0.14341076D+05 0.14341076D+05 0.14341076D+05 0.12500528D+01  1  2  5  2  5  2       -1 -.133768394466D+01 0.100000000000D+01
0.948729066892D-03 0.000000000000D+00 0.228992644090D-03 0.238061652948D-02 0.000000000000D+00  5 2 -1 25 24 21 2 0.29329099D+00 0.13149889D-02 0.14341076D+05 0.14341076D+05 0.14341076D+05 0.12500528D+01  1  2  6  2  5  2       -1 0.172956943653D+01 0.100000000000D+01
0.564547969567D-05 0.000000000000D+00 0.000000000000D+00 0.238061652948D-02 0.000000000000D+00  5 2 21 25 24 1 2 0.29329099D+00 0.14683359D-02 0.16738246D+05 0.16738246D+05 0.16738246D+05 0.12424302D+01  1  2 12  4  5  2       -1 0.190807644169D+00 0.100000000000D+01
-.202347556579D-04 0.000000000000D+00 -.554499638069D-05 0.238061652948D-02 0.000000000000D+00  5 2 21 25 24 1 2 0.29329099D+00 0.15416744D-02 0.14341076D+05 0.14341076D+05 0.14341076D+05 0.12500528D+01  1  2  5  4  5  2       -1 -.640268718212D+00 0.100000000000D+01
  </mgrwgt>
  </event>
  <event>
  4     66 0.48098993E-03 0.13817868E+03 0.75467711E-02 0.11392372E+00
        2 -1    0    0  501    0 0.00000000E+00 0.00000000E+00 0.18096888E+04 0.18096888E+04 0.32000000E+00 0.0000E+00 0.9000E+01
       -1 -1    0    0    0  501 0.00000000E+00 0.00000000E+00 -.13151745E+02 0.13155637E+02 0.32000000E+00 0.0000E+00 0.9000E+01
       25  1    1    2    0    0 -.46207225E+02 0.78655300E+02 0.13877706E+04 0.13963718E+04 0.12500000E+03 0.0000E+00 0.9000E+01
       24  1    1    2    0    0 0.46207225E+02 -.78655300E+02 0.40876641E+03 0.42647270E+03 0.80419002E+02 0.0000E+00 0.9000E+01
#aMCatNLO 1  0  0  1  1 0.12322379D+03 0.00000000D+00  -5  5  0 0.00000000D+00 0.00000000D+00 0.00000000D+00 0.00000000D+00 0.00000000D+00
  <mgrwgt>
 0.5080405005D+00    6    2    0
 0.154285898651711D+03 0.000000000000000D+00 0.000000000000000D+00 0.154285898651711D+03
 0.154285898651711D+03 0.000000000000000D+00 0.000000000000000D+00 -.154285898651711D+03
 0.169124882845435D+03 -.462072245197772D+02 0.786552995635161D+02 0.682382755514432D+02
 0.139446914457986D+03 0.462072245197772D+02 -.786552995635161D+02 -.682382755514432D+02
 0.000000000000000D+00 0.000000000000000D+00 0.000000000000000D+00 0.000000000000000D+00
 0.242214046479048D+03 0.000000000000000D+00 0.000000000000000D+00 0.242214046479048D+03
 0.216027455453801D+03 0.000000000000000D+00 0.000000000000000D+00 -.216027455453801D+03
 0.179232415491638D+03 -.101100438871959D+03 0.402678255264627D+02 0.682382755514432D+02
 0.153033528722029D+03 0.118936035674494D+00 -.110885384802192D+03 -.682382755514432D+02
 0.125975557719183D+03 0.100981502836284D+03 0.706175592757292D+02 0.261865910252468D+02
0.428942823054D-03 0.000000000000D+00 0.000000000000D+00 0.194951821133D-02 0.000000000000D+00  5 2 -1 25 24 21 0 0.27841396D+00 0.20236469D-02 0.19093349D+05 0.19093349D+05 0.19093349D+05 0.12360503D+01  1  2  2  1  5  1        2 0.303365463038D+00 0.100000000000D+01
-.234779140873D-04 0.000000000000D+00 -.164725338376D-05 0.194951821133D-02 0.000000000000D+00  5 2 -1 25 24 21 2 0.27841396D+00 0.20236469D-02 0.19093349D+05 0.19093349D+05 0.19093349D+05 0.12360503D+01  1  2  3  1  5  1        2 -.253687199657D-01 0.100000000000D+01
0.295812893777D-04 0.000000000000D+00 0.000000000000D+00 0.194951821133D-02 0.000000000000D+00  5 2 -1 25 24 21 2 0.27841396D+00 0.20236469D-02 0.19093349D+05 0.19093349D+05 0.19093349D+05 0.12360503D+01  1  2 15  1  5  1        2 0.319636337221D-01 0.100000000000D+01
-.153730248092D-03 0.000000000000D+00 -.127723712351D-03 0.194951821133D-02 0.000000000000D+00  5 2 -1 25 24 21 2 0.49437985D+00 0.20236469D-02 0.19093349D+05 0.19093349D+05 0.19093349D+05 0.12360503D+01  1  2  5  1  5  1        2 -.287638793439D-01 0.100000000000D+01
0.209994263009D-03 0.000000000000D+00 0.109218839674D-03 0.194951821133D-02 0.000000000000D+00  5 2 -1 25 24 21 2 0.27841396D+00 0.20236469D-02 0.19093349D+05 0.19093349D+05 0.19093349D+05 0.12360503D+01  1  2  6  1  5  1        2 0.226906258915D+00 0.100000000000D+01
-.306560415107D-05 0.000000000000D+00 -.806933529230D-05 0.194951821133D-02 0.000000000000D+00  5 21 -1 25 24 -2 2 0.49437985D+00 0.20236469D-02 0.19093349D+05 0.19093349D+05 0.19093349D+05 0.12360503D+01  1  2  5  3  5  1        2 -.622558673914D-04 0.100000000000D+01
  </mgrwgt>
  </event>
  <event>
  4     66 0.48098993E-03 0.48990889E+02 0.75467711E-02 0.12512656E+00
        2 -1    0    0  501    0 0.00000000E+00 0.00000000E+00 0.26347396E+03 0.26347416E+03 0.32000000E+00 0.0000E+00 0.9000E+01
       -1 -1    0    0    0  501 0.00000000E+00 0.00000000E+00 -.41294277E+02 0.41295517E+02 0.32000000E+00 0.0000E+00 0.9000E+01
       25  1    1    2    0    0 -.44122832E+01 0.14071923E+02 0.14895333E+03 0.19501175E+03 0.12500000E+03 0.0000E+00 0.9000E+01
       24  1    1    2    0    0 0.44122832E+01 -.14071923E+02 0.73226351E+02 0.10975792E+03 0.80419002E+02 0.0000E+00 0.9000E+01
#aMCatNLO 1  0  0  1  2 0.21617596D+02 0.00000000D+00  -5  5  0 0.00000000D+00 0.00000000D+00 0.00000000D+00 0.00000000D+00 0.00000000D+00
  <mgrwgt>
 0.4266164704D+00    9    2    0
 0.104308127478488D+03 0.000000000000000D+00 0.000000000000000D+00 0.104308127478488D+03
 0.104308127478488D+03 0.000000000000000D+00 0.000000000000000D+00 -.104308127478488D+03
 0.126257002094030D+03 -.441228318838709D+01 0.140719234592311D+02 0.991681929829487D+01
 0.823592528629452D+02 0.441228318838709D+01 -.140719234592311D+02 -.991681929829487D+01
 0.000000000000000D+00 0.000000000000000D+00 -.000000000000000D+00 0.000000000000000D+00
 0.132410500726591D+03 0.000000000000000D+00 0.000000000000000D+00 0.132410500726591D+03
 0.109108261214680D+03 0.000000000000000D+00 0.000000000000000D+00 -.109108261214680D+03
 0.128123778606831D+03 -.153384372088366D+02 0.213797026052214D+02 0.991681929829487D+01
 0.816095336653701D+02 -.263049815389263D+01 -.936147451932466D+01 -.991681929829487D+01
 0.317854496690706D+02 0.179689353627292D+02 -.120182280858967D+02 0.233022395119106D+02
0.184361611524D-03 0.000000000000D+00 0.000000000000D+00 0.316285150238D-02 0.000000000000D+00  5 2 -1 25 24 21 0 0.40534566D-01 0.63530761D-02 0.10777240D+05 0.10777240D+05 0.10777240D+05 0.12645313D+01  1  2  2  1  5  1        2 0.296081107730D+00 0.100000000000D+01
-.102420303778D-04 0.000000000000D+00 -.707997131778D-06 0.316285150238D-02 0.000000000000D+00  5 2 -1 25 24 21 2 0.40534566D-01 0.63530761D-02 0.10777240D+05 0.10777240D+05 0.10777240D+05 0.12645313D+01  1  2  3  1  5  1        2 -.263017965708D-01 0.100000000000D+01
0.127458054320D-04 0.000000000000D+00 0.000000000000D+00 0.316285150238D-02 0.000000000000D+00  5 2 -1 25 24 21 2 0.40534566D-01 0.63530761D-02 0.10777240D+05 0.10777240D+05 0.10777240D+05 0.12645313D+01  1  2 15  1  5  1        2 0.327315550958D-01 0.100000000000D+01
0.389908064444D-03 0.000000000000D+00 0.000000000000D+00 0.316285150238D-02 0.000000000000D+00  5 2 -1 25 24 21 2 0.52206849D-01 0.63530761D-02 0.13266638D+05 0.13266638D+05 0.13266638D+05 0.12539485D+01  1  2 12  1  5  1        2 0.761348382588D+00 0.100000000000D+01
-.398010366160D-03 0.000000000000D+00 0.000000000000D+00 0.316285150238D-02 0.000000000000D+00  5 2 -1 25 24 21 2 0.40534566D-01 0.63530761D-02 0.10777240D+05 0.10777240D+05 0.10777240D+05 0.12645313D+01  1  2  4  1  5  1        2 -.102210082354D+01 0.100000000000D+01
-.595283884904D-03 0.000000000000D+00 -.118414635506D-03 0.316285150238D-02 0.000000000000D+00  5 2 -1 25 24 21 2 0.53257799D-01 0.63530761D-02 0.10777240D+05 0.10777240D+05 0.10777240D+05 0.12645313D+01  1  2  5  1  5  1        2 -.114758067319D+01 0.100000000000D+01
0.609053568727D-03 0.000000000000D+00 0.114135301201D-03 0.316285150238D-02 0.000000000000D+00  5 2 -1 25 24 21 2 0.40534566D-01 0.63530761D-02 0.10777240D+05 0.10777240D+05 0.10777240D+05 0.12645313D+01  1  2  6  1  5  1        2 0.156406517795D+01 0.100000000000D+01
0.133145481998D-04 0.000000000000D+00 0.000000000000D+00 0.316285150238D-02 0.000000000000D+00  5 21 -1 25 24 -2 2 0.52206849D-01 0.63530761D-02 0.13266638D+05 0.13266638D+05 0.13266638D+05 0.12539485D+01  1  2 12  3  5  1        2 0.784280609092D-01 0.100000000000D+01
-.192002307127D-04 0.000000000000D+00 -.427452202331D-05 0.316285150238D-02 0.000000000000D+00  5 21 -1 25 24 -2 2 0.53257799D-01 0.63530761D-02 0.10777240D+05 0.10777240D+05 0.10777240D+05 0.12645313D+01  1  2  5  3  5  1        2 -.110054520530D+00 0.100000000000D+01
  </mgrwgt>
  </event>
  <event>
  4     66 0.48098993E-03 0.84829206E+02 0.75467711E-02 0.11912055E+00
        2 -1    0    0  501    0 0.00000000E+00 0.00000000E+00 0.25045445E+04 0.25045445E+04 0.32000000E+00 0.0000E+00 0.9000E+01
       -1 -1    0    0    0  501 0.00000000E+00 0.00000000E+00 -.11972151E+02 0.11976427E+02 0.32000000E+00 0.0000E+00 0.9000E+01
       25  1    1    2    0    0 0.66264323E+02 0.91108773E+02 0.19239169E+04 0.19312621E+04 0.12500000E+03 0.0000E+00 0.9000E+01
       24  1    1    2    0    0 -.66264323E+02 -.91108773E+02 0.56865537E+03 0.58525884E+03 0.80419002E+02 0.0000E+00 0.9000E+01
#aMCatNLO 1  0  0  1  2 0.88534336D+01 0.00000000D+00  -5  5  0 0.00000000D+00 0.00000000D+00 0.00000000D+00 0.00000000D+00 0.00000000D+00
  <mgrwgt>
 0.8761900737D+00   11    2    0
 0.173176761771236D+03 0.000000000000000D+00 0.000000000000000D+00 0.173176761771236D+03
 0.173176761771236D+03 0.000000000000000D+00 0.000000000000000D+00 -.173176761771236D+03
 0.186397045994079D+03 0.662643233448602D+02 0.911087731165128D+02 0.801691316416137D+02
 0.159956477548392D+03 -.662643233448602D+02 -.911087731165128D+02 -.801691316416137D+02
 0.000000000000000D+00 -.000000000000000D+00 0.000000000000000D+00 0.000000000000000D+00
 0.181009885251747D+03 0.000000000000000D+00 0.000000000000000D+00 0.181009885251747D+03
 0.175753188929440D+03 0.000000000000000D+00 0.000000000000000D+00 -.175753188929440D+03
 0.187978932767372D+03 0.710358877237054D+02 0.907628346378341D+02 0.801691316416137D+02
 0.158487727327222D+03 -.622056307181029D+02 -.914030283840200D+02 -.801691316416137D+02
 0.102964140865935D+02 -.883025700560248D+01 0.640193746185888D+00 0.525669632230674D+01
0.692599789279D-03 0.000000000000D+00 0.000000000000D+00 0.181067802867D-02 0.000000000000D+00  5 2 -1 25 24 21 0 0.38531486D+00 0.18421999D-02 0.23514974D+05 0.23514974D+05 0.23514974D+05 0.12261593D+01  1  2  2  1  5  1        2 0.244457521885D+00 0.100000000000D+01
-.377858137354D-04 0.000000000000D+00 -.265976555655D-05 0.181067802867D-02 0.000000000000D+00  5 2 -1 25 24 21 2 0.38531486D+00 0.18421999D-02 0.23514974D+05 0.23514974D+05 0.23514974D+05 0.12261593D+01  1  2  3  1  5  1        2 -.200513510243D-01 0.100000000000D+01
0.478939211514D-04 0.000000000000D+00 0.000000000000D+00 0.181067802867D-02 0.000000000000D+00  5 2 -1 25 24 21 2 0.38531486D+00 0.18421999D-02 0.23514974D+05 0.23514974D+05 0.23514974D+05 0.12261593D+01  1  2 15  1  5  1        2 0.254153008762D-01 0.100000000000D+01
0.198660305368D-02 0.000000000000D+00 0.000000000000D+00 0.181067802867D-02 0.000000000000D+00  5 2 -1 25 24 21 2 0.40552099D+00 0.18421999D-02 0.24900192D+05 0.24900192D+05 0.24900192D+05 0.12234839D+01  1  2 12  1  5  1        2 0.890662589801D+00 0.100000000000D+01
-.195810551184D-02 0.000000000000D+00 0.000000000000D+00 0.181067802867D-02 0.000000000000D+00  5 2 -1 25 24 21 2 0.38531486D+00 0.18421999D-02 0.23514974D+05 0.23514974D+05 0.23514974D+05 0.12261593D+01  1  2  4  1  5  1        2 -.103908470082D+01 0.100000000000D+01
-.965745521003D-02 0.000000000000D+00 -.136444313156D-02 0.181067802867D-02 0.000000000000D+00  5 2 -1 25 24 21 2 0.40480848D+00 0.18421999D-02 0.23514974D+05 0.23514974D+05 0.23514974D+05 0.12261593D+01  1  2  5  1  5  1        2 -.437607409695D+01 0.100000000000D+01
0.971462136408D-02 0.000000000000D+00 0.136278310097D-02 0.181067802867D-02 0.000000000000D+00  5 2 -1 25 24 21 2 0.38531486D+00 0.18421999D-02 0.23514974D+05 0.23514974D+05 0.23514974D+05 0.12261593D+01  1  2  6  1  5  1        2 0.515514326099D+01 0.100000000000D+01
0.108189670334D-05 0.000000000000D+00 0.000000000000D+00 0.181067802867D-02 0.184688093492D-03  5 2 -1 25 24 21 2 0.40274341D+00 0.18696071D-02 0.24900192D+05 0.24900192D+05 0.24900192D+05 0.12234839D+01  1  2 11  1  5  1        2 0.485712726658D-03 0.100000000000D+01
0.274686318498D-04 0.000000000000D+00 0.000000000000D+00 0.181067802867D-02 0.000000000000D+00  5 21 -1 25 24 -2 2 0.40552099D+00 0.18421999D-02 0.24900192D+05 0.24900192D+05 0.24900192D+05 0.12234839D+01  1  2 12  3  5  1        2 0.232966942254D-02 0.100000000000D+01
-.819394206720D-04 0.000000000000D+00 -.117421353536D-04 0.181067802867D-02 0.000000000000D+00  5 21 -1 25 24 -2 2 0.40480848D+00 0.18421999D-02 0.23514974D+05 0.23514974D+05 0.23514974D+05 0.12261593D+01  1  2  5  3  5  1        2 -.709470000415D-02 0.100000000000D+01
0.100352868293D-07 0.000000000000D+00 0.000000000000D+00 0.181067802867D-02 0.143621446417D-05  5 21 -1 25 24 -2 2 0.40274341D+00 0.18696071D-02 0.24900192D+05 0.24900192D+05 0.24900192D+05 0.12234839D+01  1  2 11  3  5  1        2 0.866829236705D-06 0.100000000000D+01
  </mgrwgt>
  </event>
  <event>
  5     66 0.48098993E-03 0.11066704E+03 0.75467711E-02 0.12406279E+00
        4 -1    0    0  501    0 0.00000000E+00 0.00000000E+00 0.20131013E+04 0.20131019E+04 0.15500000E+01 0.0000E+00 0.9000E+01
       -3 -1    0    0    0  502 0.00000000E+00 0.00000000E+00 -.10335300E+02 0.10347388E+02 0.50000000E+00 0.0000E+00 0.9000E+01
       25  1    1    2    0    0 -.67208202E-03 0.29732797E+02 0.49903475E+03 0.51531031E+03 0.12500000E+03 0.0000E+00 0.9000E+01
       24  1    1    2    0    0 0.90068381E+01 -.48054919E+02 0.11672427E+04 0.11710308E+04 0.80419002E+02 0.0000E+00 0.9000E+01
       21  1    1    2  501  502 -.90061660E+01 0.18322123E+02 0.33648863E+03 0.33710825E+03 0.75000000E+00 0.0000E+00 0.9000E+01
#aMCatNLO 2  0  0  2  2 0.20415955D+02 0.00000000D+00  -5  5  0 0.00000000D+00 0.00000000D+00 0.00000000D+00 0.00000000D+00 0.00000000D+00
  <mgrwgt>
 0.7970766207D-03    1    2    0
 0.129275872771384D+03 0.000000000000000D+00 0.000000000000000D+00 0.129275872771384D+03
 0.129275872771384D+03 0.000000000000000D+00 0.000000000000000D+00 -.129275872771384D+03
 0.146985643065924D+03 -.506822790241090D+01 0.400422201744039D+02 -.659599343309032D+02
 0.111566102476845D+03 0.506822790241090D+01 -.400422201744039D+02 0.659599343309032D+02
 0.000000000000000D+00 -.000000000000000D+00 0.000000000000000D+00 0.000000000000000D+00
 0.155727461997814D+03 0.000000000000000D+00 0.000000000000000D+00 0.155727461997814D+03
 0.133678503241527D+03 0.000000000000000D+00 0.000000000000000D+00 -.133678503241527D+03
 0.144429055734503D+03 -.672082023941201D-03 0.297327967566352D+02 -.659599343309032D+02
 0.114927487128982D+03 0.900683811326161D+01 -.480549193493894D+02 0.659599343309032D+02
 0.300494223758554D+02 -.900616603123767D+01 0.183221225927541D+02 0.220489587562866D+02
0.583353912370D-04 0.000000000000D+00 0.000000000000D+00 0.202584637886D-02 0.413592066666D-04  5 4 -3 25 24 21 2 0.30969827D+00 0.15909674D-02 0.14764481D+05 0.14764481D+05 0.14764481D+05 0.12486068D+01  1  2  1  2  5  2       -3 0.797076620683D-03 0.100000000000D+01
  </mgrwgt>
  </event>
  <event>
  4     66 0.48098993E-03 0.11460460E+03 0.75467711E-02 0.11243140E+00
        2 -1    0    0  501    0 0.00000000E+00 0.00000000E+00 0.86880152E+03 0.86880158E+03 0.32000000E+00 0.0000E+00 0.9000E+01
       -1 -1    0    0    0  501 0.00000000E+00 0.00000000E+00 -.15160977E+02 0.15164354E+02 0.32000000E+00 0.0000E+00 0.9000E+01
       25  1    1    2    0    0 0.49868510E+02 -.56092651E+00 0.47726121E+03 0.49587341E+03 0.12500000E+03 0.0000E+00 0.9000E+01
       24  1    1    2    0    0 -.49868510E+02 0.56092651E+00 0.37637934E+03 0.38809252E+03 0.80419002E+02 0.0000E+00 0.9000E+01
#aMCatNLO 1  0  0  2  1 0.17704115D+03 0.00000000D+00  -5  5  0 0.00000000D+00 0.00000000D+00 0.00000000D+00 0.00000000D+00 0.00000000D+00
  <mgrwgt>
 0.3596882220D+00    5    2    0
 0.114775426748517D+03 0.000000000000000D+00 0.000000000000000D+00 0.114775426748517D+03
 0.114775426748517D+03 0.000000000000000D+00 0.000000000000000D+00 -.114775426748517D+03
 0.134722606003391D+03 0.498685102373125D+02 -.560926512670325D+00 -.616422067284157D+01
 0.948282474936428D+02 -.498685102373125D+02 0.560926512670325D+00 0.616422067284157D+01
 0.000000000000000D+00 0.000000000000000D+00 -.000000000000000D+00 -.000000000000000D+00
 0.181852527549347D+03 0.000000000000000D+00 0.000000000000000D+00 0.181852527549347D+03
 0.357262011494502D+03 0.000000000000000D+00 0.000000000000000D+00 -.357262011494502D+03
 0.142694099178210D+03 -.168411998124345D+02 0.664453332646842D+02 -.616422067284157D+01
 0.147197538734332D+03 -.108067853399654D+03 0.590189876240014D+02 0.616422067284157D+01
 0.249222901131307D+03 0.124909053212089D+03 -.125464320888686D+03 -.175409483945155D+03
0.173918221730D-03 0.000000000000D+00 0.000000000000D+00 0.288511722919D-02 0.000000000000D+00  5 2 -1 25 24 21 0 0.13366204D+00 0.23327223D-02 0.13134214D+05 0.13134214D+05 0.13134214D+05 0.12544531D+01  1  2  2  2  5  2       -1 0.323890335735D+00 0.100000000000D+01
-.966209736643D-05 0.000000000000D+00 -.667891765162D-06 0.288511722919D-02 0.000000000000D+00  5 2 -1 25 24 21 2 0.13366204D+00 0.23327223D-02 0.13134214D+05 0.13134214D+05 0.13134214D+05 0.12544531D+01  1  2  3  2  5  2       -1 -.283160807204D-01 0.100000000000D+01
0.120420754176D-04 0.000000000000D+00 0.000000000000D+00 0.288511722919D-02 0.000000000000D+00  5 2 -1 25 24 21 2 0.13366204D+00 0.23327223D-02 0.13134214D+05 0.13134214D+05 0.13134214D+05 0.12544531D+01  1  2 15  2  5  2       -1 0.352909276976D-01 0.100000000000D+01
0.348665122775D-04 0.000000000000D+00 -.678791354628D-04 0.288511722919D-02 0.000000000000D+00  5 2 -1 25 24 21 2 0.13366204D+00 0.11683294D-01 0.13134214D+05 0.13134214D+05 0.13134214D+05 0.12544531D+01  1  2  5  2  5  2       -1 0.943073481083D-02 0.100000000000D+01
0.489727076246D-05 0.000000000000D+00 -.133300119096D-04 0.288511722919D-02 0.000000000000D+00  5 2 21 25 24 1 2 0.13366204D+00 0.11683294D-01 0.13134214D+05 0.13134214D+05 0.13134214D+05 0.12544531D+01  1  2  5  4  5  2       -1 0.193923044452D-01 0.100000000000D+01
  </mgrwgt>
  </event>
  <event>
  4     66 0.48098993E-03 0.12311393E+03 0.75467711E-02 0.11777485E+00
        2 -1    0    0  501    0 0.00000000E+00 0.00000000E+00 0.17747529E+03 0.17747558E+03 0.32000000E+00 0.0000E+00 0.9000E+01
       -1 -1    0    0    0  501 0.00000000E+00 0.00000000E+00 -.10170186E+03 0.10170236E+03 0.32000000E+00 0.0000E+00 0.9000E+01
       25  1    1    2    0    0 -.33441694E+02 0.57778901E+02 0.98035318E+02 0.17231562E+03 0.12500000E+03 0.0000E+00 0.9000E+01
       24  1    1    2    0    0 0.33441694E+02 -.57778901E+02 -.22261888E+02 0.10686232E+03 0.80419002E+02 0.0000E+00 0.9000E+01
#aMCatNLO 1  0  0  2  1 0.80660596D+02 0.00000000D+00  -5  5  0 0.00000000D+00 0.00000000D+00 0.00000000D+00 0.00000000D+00 0.00000000D+00
  <mgrwgt>
 0.3515415968D+00    4    2    0
 0.134349087444313D+03 0.000000000000000D+00 0.000000000000000D+00 0.134349087444313D+03
 0.134349087444313D+03 0.000000000000000D+00 0.000000000000000D+00 -.134349087444313D+03
 0.151390111354180D+03 -.334416941229762D+02 0.577789012888391D+02 0.532655374127670D+02
 0.117308063534446D+03 0.334416941229762D+02 -.577789012888391D+02 -.532655374127670D+02
 0.000000000000000D+00 0.000000000000000D+00 0.000000000000000D+00 0.000000000000000D+00
 0.224895356634783D+03 0.000000000000000D+00 0.000000000000000D+00 0.224895356634783D+03
 0.159492746991210D+03 0.000000000000000D+00 0.000000000000000D+00 -.159492746991210D+03
 0.140786649072524D+03 -.337269343376421D+02 0.148713476653473D+02 0.532655374127670D+02
 0.139757181518194D+03 0.331907318439267D+02 -.955301610766591D+02 -.532655374127670D+02
 0.103844273035275D+03 0.536202493715403D+00 0.806588134113118D+02 0.654026096435732D+02
0.644487670740D-03 0.000000000000D+00 0.000000000000D+00 0.220480307246D-02 0.000000000000D+00  5 2 -1 25 24 21 0 0.27303952D-01 0.15646501D-01 0.15157039D+05 0.15157039D+05 0.15157039D+05 0.12473072D+01  1  2  2  2  5  2       -1 0.406531571213D+00 0.100000000000D+01
-.354728506420D-04 0.000000000000D+00 -.247500235314D-05 0.220480307246D-02 0.000000000000D+00  5 2 -1 25 24 21 2 0.27303952D-01 0.15646501D-01 0.15157039D+05 0.15157039D+05 0.15157039D+05 0.12473072D+01  1  2  3  2  5  2       -1 -.348114914231D-01 0.100000000000D+01
0.444181881532D-04 0.000000000000D+00 0.000000000000D+00 0.220480307246D-02 0.000000000000D+00  5 2 -1 25 24 21 2 0.27303952D-01 0.15646501D-01 0.15157039D+05 0.15157039D+05 0.15157039D+05 0.12473072D+01  1  2 15  2  5  2       -1 0.435900512064D-01 0.100000000000D+01
-.649800280891D-04 0.000000000000D+00 0.000000000000D+00 0.220480307246D-02 0.000000000000D+00  5 2 -1 25 24 21 2 0.27303952D-01 0.15646501D-01 0.15157039D+05 0.15157039D+05 0.15157039D+05 0.12473072D+01  1  2  4  2  5  2       -1 -.637685342326D-01 0.100000000000D+01
  </mgrwgt>
  </event>
  <event>
  4     66 0.48098993E-03 0.13342339E+03 0.75467711E-02 0.11770467E+00
        2 -1    0    0  501    0 0.00000000E+00 0.00000000E+00 0.79374049E+03 0.79374056E+03 0.32000000E+00 0.0000E+00 0.9000E+01
       -1 -1    0    0    0  501 0.00000000E+00 0.00000000E+00 -.25473096E+02 0.25475105E+02 0.32000000E+00 0.0000E+00 0.9000E+01
       25  1    1    2    0    0 0.51961758E+02 0.65955355E+02 0.28701417E+03 0.32411767E+03 0.12500000E+03 0.0000E+00 0.9000E+01
       24  1    1    2    0    0 -.51961758E+02 -.65955355E+02 0.48125323E+03 0.49509799E+03 0.80419002E+02 0.0000E+00 0.9000E+01
#aMCatNLO 1  0  0  1  1 0.67365916D+02 0.00000000D+00  -5  5  0 0.00000000D+00 0.00000000D+00 0.00000000D+00 0.00000000D+00 0.00000000D+00
  <mgrwgt>
 0.3932307971D+00    4    2    0
 0.142196614533080D+03 0.000000000000000D+00 0.000000000000000D+00 0.142196614533080D+03
 0.142196614533080D+03 0.000000000000000D+00 0.000000000000000D+00 -.142196614533080D+03
 0.158297180773177D+03 0.519617579195311D+02 0.659553551418322D+02 -.488145908798056D+02
 0.126096048292984D+03 -.519617579195311D+02 -.659553551418322D+02 0.488145908798056D+02
 0.000000000000000D+00 -.000000000000000D+00 -.000000000000000D+00 -.000000000000000D+00
 0.160197582730305D+03 0.000000000000000D+00 0.000000000000000D+00 0.160197582730305D+03
 0.226789550574948D+03 0.000000000000000D+00 0.000000000000000D+00 -.226789550574948D+03
 0.182327598664473D+03 0.811252797503923D+02 0.930278342078918D+02 -.488145908798056D+02
 0.109935425649885D+03 -.317532779185534D+02 -.471958358026962D+02 0.488145908798056D+02
 0.947241089908950D+02 -.493720018318390D+02 -.458319984051956D+02 -.665919678446432D+02
0.472874951826D-03 0.000000000000D+00 0.000000000000D+00 0.221463798627D-02 0.000000000000D+00  5 2 -1 25 24 21 0 0.12211408D+00 0.39190974D-02 0.17801801D+05 0.17801801D+05 0.17801801D+05 0.12394321D+01  1  2  2  1  5  1        2 0.469121654581D+00 0.100000000000D+01
-.261412901001D-04 0.000000000000D+00 -.181596432585D-05 0.221463798627D-02 0.000000000000D+00  5 2 -1 25 24 21 2 0.12211408D+00 0.39190974D-02 0.17801801D+05 0.17801801D+05 0.17801801D+05 0.12394321D+01  1  2  3  1  5  1        2 -.398392952320D-01 0.100000000000D+01
0.326846997988D-04 0.000000000000D+00 0.000000000000D+00 0.221463798627D-02 0.000000000000D+00  5 2 -1 25 24 21 2 0.12211408D+00 0.39190974D-02 0.17801801D+05 0.17801801D+05 0.17801801D+05 0.12394321D+01  1  2 15  1  5  1        2 0.498114438832D-01 0.100000000000D+01
-.563405988573D-04 0.000000000000D+00 0.000000000000D+00 0.221463798627D-02 0.000000000000D+00  5 2 -1 25 24 21 2 0.12211408D+00 0.39190974D-02 0.17801801D+05 0.17801801D+05 0.17801801D+05 0.12394321D+01  1  2  4  1  5  1        2 -.858630061037D-01 0.100000000000D+01
  </mgrwgt>
  </event>
  <event>
  5     66 0.48098993E-03 0.10702951E+03 0.75467711E-02 0.12599215E+00
        2 -1    0    0  502    0 0.00000000E+00 0.00000000E+00 0.11561613E+03 0.11561657E+03 0.32000000E+00 0.0000E+00 0.9000E+01
       -1 -1    0    0    0  501 0.00000000E+00 0.00000000E+00 -.11526107E+03 0.11526151E+03 0.32000000E+00 0.0000E+00 0.9000E+01
       25  1    1    2    0    0 0.62321749E+01 0.25848305E+02 -.38834870E+01 0.12785561E+03 0.12500000E+03 0.0000E+00 0.9000E+01
       24  1    1    2    0    0 -.27362570E+01 -.31374569E+02 0.17587994E+02 0.88138551E+02 0.80419002E+02 0.0000E+00 0.9000E+01
       21  1    1    2  502  501 -.34959179E+01 0.55262644E+01 -.13349444E+02 0.14883924E+02 0.75000000E+00 0.0000E+00 0.9000E+01
#aMCatNLO 2  0  0  1  1 0.65391926D+01 0.00000000D+00  -5  5  0 0.00000000D+00 0.00000000D+00 0.00000000D+00 0.00000000D+00 0.00000000D+00
  <mgrwgt>
 0.5089125499D-01    1    2    0
 0.107729872787795D+03 0.000000000000000D+00 0.000000000000000D+00 0.107729872787795D+03
 0.107729872787795D+03 0.000000000000000D+00 0.000000000000000D+00 -.107729872787795D+03
 0.128981601321041D+03 0.414491663961187D+01 0.291477934267650D+02 -.120199535665201D+02
 0.864781442545487D+02 -.414491663961187D+01 -.291477934267650D+02 0.120199535665201D+02
 0.000000000000000D+00 -.000000000000000D+00 0.000000000000000D+00 -.000000000000000D+00
 0.108490614414294D+03 0.000000000000000D+00 0.000000000000000D+00 0.108490614414294D+03
 0.122812107977230D+03 0.000000000000000D+00 0.000000000000000D+00 -.122812107977230D+03
 0.128360640980614D+03 0.623217489044571D+01 0.258483048834492D+02 -.120199535665201D+02
 0.871983138391265D+02 -.273625703950358D+01 -.313745692510467D+02 0.120199535665201D+02
 0.157437675717829D+02 -.349591785094213D+01 0.552626436759753D+01 -.143214935629357D+02
0.387958951018D-04 0.000000000000D+00 0.000000000000D+00 0.304470910414D-02 0.606325159263D-03  5 2 -1 25 24 21 2 0.17785710D-01 0.17731090D-01 0.12177310D+05 0.12177310D+05 0.12177310D+05 0.12582782D+01  1  2  1  1  5  1        2 0.508912549880D-01 0.100000000000D+01
  </mgrwgt>
  </event>
  <event>
  5     66 0.48098993E-03 0.11654047E+03 0.75467711E-02 0.11699819E+00
        2 -1    0    0  501    0 0.00000000E+00 0.00000000E+00 0.15548744E+04 0.15548744E+04 0.32000000E+00 0.0000E+00 0.9000E+01
       21 -1    0    0  502  501 0.00000000E+00 0.00000000E+00 -.22634852E+02 0.22647274E+02 0.75000000E+00 0.0000E+00 0.9000E+01
       25  1    1    2    0    0 0.11507748E+02 0.33185132E+02 0.79730274E+03 0.80780588E+03 0.12500000E+03 0.0000E+00 0.9000E+01
       24  1    1    2    0    0 -.89827166E+02 0.30937646E+02 0.46677970E+03 0.48309063E+03 0.80419002E+02 0.0000E+00 0.9000E+01
        1  1    1    2  502    0 0.78319418E+02 -.64122779E+02 0.26815707E+03 0.28662516E+03 0.32000000E+00 0.0000E+00 0.9000E+01
#aMCatNLO 2  0  0  2  1 0.10122086D+03 0.00000000D+00  -5  5  0 0.00000000D+00 0.00000000D+00 0.00000000D+00 0.00000000D+00 0.00000000D+00
  <mgrwgt>
 0.1475405939D+00    2    2    0
 0.120689412800024D+03 0.000000000000000D+00 0.000000000000000D+00 0.120689412800024D+03
 0.120689412800024D+03 0.000000000000000D+00 0.000000000000000D+00 -.120689412800024D+03
 0.139659146418671D+03 0.540264420737974D+02 -.162637300276705D+01 0.309544123848949D+02
 0.101719679181377D+03 -.540264420737974D+02 0.162637300276705D+01 -.309544123848949D+02
 0.000000000000000D+00 0.000000000000000D+00 -.000000000000000D+00 -.000000000000000D+00
 0.159288439232093D+03 0.000000000000000D+00 0.000000000000000D+00 0.159288439232093D+03
 0.221008429190315D+03 0.000000000000000D+00 0.000000000000000D+00 -.221008429190315D+03
 0.133479799629702D+03 0.115077477311252D+02 0.331851322921580D+02 0.309544123848949D+02
 0.128263202942674D+03 -.898271655171234D+02 0.309376463844313D+02 -.309544123848949D+02
 0.118553865850033D+03 0.783194177859982D+02 -.641227786765893D+02 -.617199899582216D+02
-.169360777211D-06 0.000000000000D+00 0.000000000000D+00 0.261243572135D-02 0.000000000000D+00  5 2 21 25 24 1 2 0.18124585D+00 0.35801654D-02 0.31601074D+05 0.31601074D+05 0.31601074D+05 0.12125356D+01  1  2 13  4  5  2       -1 -.308647502231D-02 0.100000000000D+01
0.126146864233D-04 0.000000000000D+00 0.000000000000D+00 0.261243572135D-02 0.248815920933D-06  5 2 21 25 24 1 2 0.23921210D+00 0.34832387D-02 0.31601074D+05 0.31601074D+05 0.31601074D+05 0.12125356D+01  1  2  1  4  5  2       -1 0.150627068953D+00 0.100000000000D+01
  </mgrwgt>
  </event>
  <event>
  4     66 0.48098993E-03 0.11102198E+03 0.75467711E-02 0.11072432E+00
        2 -1    0    0  501    0 0.00000000E+00 0.00000000E+00 0.32164467E+04 0.32164467E+04 0.32000000E+00 0.0000E+00 0.9000E+01
       -1 -1    0    0    0  501 0.00000000E+00 0.00000000E+00 -.14524514E+02 0.14528038E+02 0.32000000E+00 0.0000E+00 0.9000E+01
       25  1    1    2    0    0 -.81363020E+02 0.11334431E+03 0.26342430E+04 0.26408953E+04 0.12500000E+03 0.0000E+00 0.9000E+01
       24  1    1    2    0    0 0.81363020E+02 -.11334431E+03 0.56767923E+03 0.59007948E+03 0.80419002E+02 0.0000E+00 0.9000E+01
#aMCatNLO 1  0  0  2  1 0.14287964D+03 0.00000000D+00  -5  5  0 0.00000000D+00 0.00000000D+00 0.00000000D+00 0.00000000D+00 0.00000000D+00
  <mgrwgt>
 0.2511692195D+00    7    2    0
 0.216155139451874D+03 0.000000000000000D+00 0.000000000000000D+00 0.216155139451874D+03
 0.216155139451874D+03 0.000000000000000D+00 0.000000000000000D+00 -.216155139451874D+03
 0.226746819192698D+03 -.813630201229595D+02 0.113344311168439D+03 0.127758546079036D+03
 0.205563459711051D+03 0.813630201229595D+02 -.113344311168439D+03 -.127758546079036D+03
 0.000000000000000D+00 0.000000000000000D+00 0.000000000000000D+00 -.000000000000000D+00
 0.265463516813618D+03 0.000000000000000D+00 0.000000000000000D+00 0.265463516813618D+03
 0.362640663732231D+03 0.000000000000000D+00 0.000000000000000D+00 -.362640663732231D+03
 0.222506946147646D+03 -.121406795628363D+03 0.531270643173060D+02 0.127758546079036D+03
 0.232802585851256D+03 0.422897103992445D+02 -.172102185700181D+03 -.127758546079036D+03
 0.172794648546948D+03 0.791170852291184D+02 0.118975121382875D+03 -.971771469186135D+02
0.241498480882D-02 0.000000000000D+00 0.000000000000D+00 0.141130562247D-02 0.000000000000D+00  5 2 -1 25 24 21 0 0.49483823D+00 0.22348129D-02 0.30340222D+05 0.30340222D+05 0.30340222D+05 0.12143847D+01  1  2  2  2  5  2       -1 0.252264135933D+00 0.100000000000D+01
-.126563353948D-03 0.000000000000D+00 -.927417754597D-05 0.141130562247D-02 0.000000000000D+00  5 2 -1 25 24 21 2 0.49483823D+00 0.22348129D-02 0.30340222D+05 0.30340222D+05 0.30340222D+05 0.12143847D+01  1  2  3  2  5  2       -1 -.194967253876D-01 0.100000000000D+01
0.165428185460D-03 0.000000000000D+00 0.000000000000D+00 0.141130562247D-02 0.000000000000D+00  5 2 -1 25 24 21 2 0.49483823D+00 0.22348129D-02 0.30340222D+05 0.30340222D+05 0.30340222D+05 0.12143847D+01  1  2 15  2  5  2       -1 0.254837423525D-01 0.100000000000D+01
0.635238014936D-04 0.000000000000D+00 0.000000000000D+00 0.141130562247D-02 0.000000000000D+00  5 2 -1 25 24 21 2 0.49483823D+00 0.38621702D-02 0.67513548D+05 0.67513548D+05 0.67513548D+05 0.11795774D+01  1  2 12  2  5  2       -1 0.402685129054D-02 0.100000000000D+01
-.424185160204D-03 0.000000000000D+00 -.699495097774D-03 0.141130562247D-02 0.000000000000D+00  5 2 -1 25 24 21 2 0.49483823D+00 0.53416787D-02 0.30340222D+05 0.30340222D+05 0.30340222D+05 0.12143847D+01  1  2  5  2  5  2       -1 -.181207481932D-01 0.100000000000D+01
0.385280813153D-05 0.000000000000D+00 0.000000000000D+00 0.141130562247D-02 0.000000000000D+00  5 2 21 25 24 1 2 0.49483823D+00 0.38621702D-02 0.67513548D+05 0.67513548D+05 0.67513548D+05 0.11795774D+01  1  2 12  4  5  2       -1 0.439087967614D-02 0.100000000000D+01
0.358350842222D-05 0.000000000000D+00 -.666504135268D-04 0.141130562247D-02 0.000000000000D+00  5 2 21 25 24 1 2 0.49483823D+00 0.53416787D-02 0.30340222D+05 0.30340222D+05 0.30340222D+05 0.12143847D+01  1  2  5  4  5  2       -1 0.262108382272D-02 0.100000000000D+01
  </mgrwgt>
  </event>
  <event>
  4     66 0.48098993E-03 0.14307886E+03 0.75467711E-02 0.10366110E+00
        4 -1    0    0  501    0 0.00000000E+00 0.00000000E+00 0.24941513E+02 0.24989629E+02 0.15500000E+01 0.0000E+00 0.9000E+01
       -3 -1    0    0    0  501 0.00000000E+00 0.00000000E+00 -.83205726E+03 0.83205741E+03 0.50000000E+00 0.0000E+00 0.9000E+01
       25  1    1    2    0    0 -.61201432E+01 -.98204064E+02 -.49937344E+03 0.52409954E+03 0.12500000E+03 0.0000E+00 0.9000E+01
       24  1    1    2    0    0 0.61201432E+01 0.98204064E+02 -.30774231E+03 0.33294750E+03 0.80419002E+02 0.0000E+00 0.9000E+01
#aMCatNLO 1  0  0  1  1 0.37287698D+03 0.00000000D+00  -5  5  0 0.00000000D+00 0.00000000D+00 0.00000000D+00 0.00000000D+00 0.00000000D+00
  <mgrwgt>
 0.1128399721D+00    5    2    0
 0.144129974343159D+03 0.000000000000000D+00 0.000000000000000D+00 0.144129974343159D+03
 0.144129974343159D+03 0.000000000000000D+00 0.000000000000000D+00 -.144129974343159D+03
 0.160014567550373D+03 -.612014323275400D+01 -.982040635849172D+02 -.172675293702706D+02
 0.128245381135944D+03 0.612014323275400D+01 0.982040635849172D+02 0.172675293702706D+02
 0.000000000000000D+00 0.000000000000000D+00 -.000000000000000D+00 0.000000000000000D+00
 0.529882208004350D+03 0.000000000000000D+00 0.000000000000000D+00 0.529882208004350D+03
 0.353791106206025D+03 0.000000000000000D+00 0.000000000000000D+00 -.353791106206025D+03
 0.168229675731561D+03 -.108025682473053D+03 0.266178164473384D+02 -.172675293702706D+02
 0.303078122487938D+03 -.127787016217575D+03 0.262224032636406D+03 0.172675293702706D+02
 0.412365515990876D+03 0.235812698690627D+03 -.288841849083745D+03 0.176091101798324D+03
0.226463824316D-02 0.000000000000D+00 0.000000000000D+00 0.242819249150D-02 0.000000000000D+00  5 4 -3 25 24 21 0 0.38408686D-02 0.12801252D+00 0.20471561D+05 0.20471561D+05 0.20471561D+05 0.12327134D+01  1  2  2  1  5  1        4 0.834422651117D-01 0.100000000000D+01
-.125805040267D-03 0.000000000000D+00 -.869680714669D-05 0.242819249150D-02 0.000000000000D+00  5 4 -3 25 24 21 2 0.38408686D-02 0.12801252D+00 0.20471561D+05 0.20471561D+05 0.20471561D+05 0.12327134D+01  1  2  3  1  5  1        4 -.704384030925D-02 0.100000000000D+01
0.156338286379D-03 0.000000000000D+00 0.000000000000D+00 0.242819249150D-02 0.000000000000D+00  5 4 -3 25 24 21 2 0.38408686D-02 0.12801252D+00 0.20471561D+05 0.20471561D+05 0.20471561D+05 0.12327134D+01  1  2 15  1  5  1        4 0.875340066773D-02 0.100000000000D+01
0.409763292288D-02 0.000000000000D+00 -.186576022279D-02 0.242819249150D-02 0.000000000000D+00  5 4 -3 25 24 21 2 0.36469693D-01 0.12801252D+00 0.20471561D+05 0.20471561D+05 0.20471561D+05 0.12327134D+01  1  2  5  1  5  1        4 0.468829116205D-02 0.100000000000D+01
0.822367802563D-03 0.000000000000D+00 -.502436370078D-03 0.242819249150D-02 0.000000000000D+00  5 21 -3 25 24 -4 2 0.36469693D-01 0.12801252D+00 0.20471561D+05 0.20471561D+05 0.20471561D+05 0.12327134D+01  1  2  5  3  5  1        4 0.229998554512D-01 0.100000000000D+01
  </mgrwgt>
  </event>
  <event>
  4     66 0.48098993E-03 0.11347412E+03 0.75467711E-02 0.11986654E+00
        2 -1    0    0  501    0 0.00000000E+00 0.00000000E+00 0.67481185E+03 0.67481193E+03 0.32000000E+00 0.0000E+00 0.9000E+01
       -1 -1    0    0    0  501 0.00000000E+00 0.00000000E+00 -.27654190E+02 0.27656042E+02 0.32000000E+00 0.0000E+00 0.9000E+01
       25  1    1    2    0    0 -.53116495E+01 0.47001310E+02 0.55669680E+03 0.57251521E+03 0.12500000E+03 0.0000E+00 0.9000E+01
       24  1    1    2    0    0 0.53116495E+01 -.47001310E+02 0.90460864E+02 0.12995276E+03 0.80419002E+02 0.0000E+00 0.9000E+01
#aMCatNLO 1  0  0  2  1 0.67267245D+02 0.00000000D+00  -5  5  0 0.00000000D+00 0.00000000D+00 0.00000000D+00 0.00000000D+00 0.00000000D+00
  <mgrwgt>
 0.4637062982D+00    3    2    0
 0.136609121856155D+03 0.000000000000000D+00 0.000000000000000D+00 0.136609121856155D+03
 0.136609121856155D+03 0.000000000000000D+00 0.000000000000000D+00 -.136609121856155D+03
 0.153368222422061D+03 -.531164951722204D+01 0.470013100105734D+02 0.752294814922900D+02
 0.119850021290249D+03 0.531164951722204D+01 -.470013100105734D+02 -.752294814922900D+02
 0.000000000000000D+00 0.000000000000000D+00 -.000000000000000D+00 0.000000000000000D+00
 0.260316881379249D+03 0.000000000000000D+00 0.000000000000000D+00 0.260316881379249D+03
 0.150144693547049D+03 0.000000000000000D+00 0.000000000000000D+00 -.150144693547049D+03
 0.164735842619507D+03 -.389902595310275D+02 0.658269140979837D+02 0.752294814922900D+02
 0.116641290255791D+03 -.197263790039529D+02 -.330056014027742D+02 -.752294814922900D+02
 0.129084442050999D+03 0.587166385349804D+02 -.328213126952095D+02 0.110172187832200D+03
0.428045309217D-03 0.000000000000D+00 0.000000000000D+00 0.184836385416D-02 0.000000000000D+00  5 2 -1 25 24 21 0 0.10381736D+00 0.42546390D-02 0.12876377D+05 0.12876377D+05 0.12876377D+05 0.12554521D+01  1  2  2  2  5  2       -1 0.452727862861D+00 0.100000000000D+01
-.227848539585D-04 0.000000000000D+00 -.164380669431D-05 0.184836385416D-02 0.000000000000D+00  5 2 -1 25 24 21 2 0.10381736D+00 0.42546390D-02 0.12876377D+05 0.12876377D+05 0.12876377D+05 0.12554521D+01  1  2  3  2  5  2       -1 -.379834175737D-01 0.100000000000D+01
0.293704131800D-04 0.000000000000D+00 0.000000000000D+00 0.184836385416D-02 0.000000000000D+00  5 2 -1 25 24 21 2 0.10381736D+00 0.42546390D-02 0.12876377D+05 0.12876377D+05 0.12876377D+05 0.12554521D+01  1  2 15  2  5  2       -1 0.489618529116D-01 0.100000000000D+01
  </mgrwgt>
  </event>
  <event>
  5     66 0.48098993E-03 0.10460545E+03 0.75467711E-02 0.12254654E+00
        2 -1    0    0  501    0 0.00000000E+00 0.00000000E+00 0.13412727E+04 0.13412727E+04 0.32000000E+00 0.0000E+00 0.9000E+01
       -1 -1    0    0    0  502 0.00000000E+00 0.00000000E+00 -.14141283E+02 0.14144903E+02 0.32000000E+00 0.0000E+00 0.9000E+01
       25  1    1    2    0    0 -.21841870E+02 -.18240556E+02 0.80578887E+03 0.81592309E+03 0.12500000E+03 0.0000E+00 0.9000E+01
       24  1    1    2    0    0 -.26145718E+02 0.18277480E+02 0.26710637E+03 0.28076804E+03 0.80419002E+02 0.0000E+00 0.9000E+01
       21  1    1    2  501  502 0.47987587E+02 -.36924184E-01 0.25423614E+03 0.25872647E+03 0.75000000E+00 0.0000E+00 0.9000E+01
#aMCatNLO 2  0  0  2  1 0.47987602D+02 0.00000000D+00  -5  5  0 0.00000000D+00 0.00000000D+00 0.00000000D+00 0.00000000D+00 0.00000000D+00
  <mgrwgt>
 0.1027670478D+00    1    2    0
 0.111045523949480D+03 0.000000000000000D+00 0.000000000000000D+00 0.111045523949480D+03
 0.111045523949480D+03 0.000000000000000D+00 0.000000000000000D+00 -.111045523949480D+03
 0.131662708055423D+03 0.645737157815561D+01 -.182623305148107D+02 0.365357130621128D+02
 0.904283398435365D+02 -.645737157815561D+01 0.182623305148107D+02 -.365357130621128D+02
 0.000000000000000D+00 0.000000000000000D+00 -.000000000000000D+00 0.000000000000000D+00
 0.140465926540813D+03 0.000000000000000D+00 0.000000000000000D+00 0.140465926540813D+03
 0.135043367895764D+03 0.000000000000000D+00 0.000000000000000D+00 -.135043367895764D+03
 0.133302826158255D+03 -.218418695354585D+02 -.182405555841054D+02 0.365357130621128D+02
 0.939134661116255D+02 -.261457179494132D+02 0.182774797683265D+02 -.365357130621128D+02
 0.482930021666970D+02 0.479875874848718D+02 -.369241842211524D-01 0.542255864504886D+01
0.600089557743D-04 0.000000000000D+00 0.000000000000D+00 0.271165960879D-02 0.101716880554D-04  5 2 -1 25 24 21 2 0.20634555D+00 0.21758173D-02 0.17252958D+05 0.17252958D+05 0.17252958D+05 0.12409534D+01  1  2  1  2  5  2       -1 0.102767047833D+00 0.100000000000D+01
  </mgrwgt>
  </event>
  <event>
  4     66 0.48098993E-03 0.92536500E+02 0.75467711E-02 0.12038040E+00
        2 -1    0    0  501    0 0.00000000E+00 0.00000000E+00 0.19092266E+03 0.19092293E+03 0.32000000E+00 0.0000E+00 0.9000E+01
       -1 -1    0    0    0  501 0.00000000E+00 0.00000000E+00 -.81364883E+02 0.81365512E+02 0.32000000E+00 0.0000E+00 0.9000E+01
       25  1    1    2    0    0 -.60297691E+02 0.22960137E+02 0.34729359E+02 0.14489344E+03 0.12500000E+03 0.0000E+00 0.9000E+01
       24  1    1    2    0    0 0.60297691E+02 -.22960137E+02 0.74828423E+02 0.12739501E+03 0.80419002E+02 0.0000E+00 0.9000E+01
#aMCatNLO 1  0  0  1  2 0.46653529D+02 0.00000000D+00  -5  5  0 0.00000000D+00 0.00000000D+00 0.00000000D+00 0.00000000D+00 0.00000000D+00
  <mgrwgt>
 0.3877405462D+00    9    2    0
 0.124637564046598D+03 0.000000000000000D+00 0.000000000000000D+00 0.124637564046598D+03
 0.124637564046598D+03 0.000000000000000D+00 0.000000000000000D+00 -.124637564046598D+03
 0.143006392328186D+03 -.602976909131893D+02 0.229601368973920D+02 -.257458507514052D+02
 0.106268735765011D+03 0.602976909131893D+02 -.229601368973920D+02 0.257458507514052D+02
 0.000000000000000D+00 0.000000000000000D+00 -.000000000000000D+00 0.000000000000000D+00
 0.151559437568848D+03 0.000000000000000D+00 0.000000000000000D+00 0.151559437568848D+03
 0.148780120024047D+03 0.000000000000000D+00 0.000000000000000D+00 -.148780120024047D+03
 0.156807464930664D+03 -.881114814037249D+02 0.231753979881433D+02 -.257458507514052D+02
 0.967958498572053D+02 0.414593493762688D+02 -.228143400866854D+02 0.257458507514052D+02
 0.467362428050249D+02 0.466521320274561D+02 -.361057901457908D+00 0.277931754480103D+01
0.305156451522D-03 0.000000000000D+00 0.000000000000D+00 0.260069500201D-02 0.000000000000D+00  5 2 -1 25 24 21 0 0.29372787D-01 0.12517743D-01 0.14856269D+05 0.14856269D+05 0.14856269D+05 0.12482995D+01  1  2  2  1  5  1        2 0.251394459247D+00 0.100000000000D+01
-.169428660755D-04 0.000000000000D+00 -.117188112338D-05 0.260069500201D-02 0.000000000000D+00  5 2 -1 25 24 21 2 0.29372787D-01 0.12517743D-01 0.14856269D+05 0.14856269D+05 0.14856269D+05 0.12482995D+01  1  2  3  1  5  1        2 -.217499179963D-01 0.100000000000D+01
0.210893538208D-04 0.000000000000D+00 0.000000000000D+00 0.260069500201D-02 0.000000000000D+00  5 2 -1 25 24 21 2 0.29372787D-01 0.12517743D-01 0.14856269D+05 0.14856269D+05 0.14856269D+05 0.12482995D+01  1  2 15  1  5  1        2 0.270728526184D-01 0.100000000000D+01
0.159475698917D-03 0.000000000000D+00 0.000000000000D+00 0.260069500201D-02 0.000000000000D+00  5 2 -1 25 24 21 2 0.38016032D-01 0.12517743D-01 0.21703488D+05 0.21703488D+05 0.21703488D+05 0.12299369D+01  1  2 12  1  5  1        2 0.152562516745D+00 0.100000000000D+01
-.162852272864D-03 0.000000000000D+00 0.000000000000D+00 0.260069500201D-02 0.000000000000D+00  5 2 -1 25 24 21 2 0.29372787D-01 0.12517743D-01 0.14856269D+05 0.14856269D+05 0.14856269D+05 0.12482995D+01  1  2  4  1  5  1        2 -.209056930776D+00 0.100000000000D+01
-.368099018457D-03 0.000000000000D+00 -.160956106011D-03 0.260069500201D-02 0.000000000000D+00  5 2 -1 25 24 21 2 0.42095174D-01 0.12517743D-01 0.14856269D+05 0.14856269D+05 0.14856269D+05 0.12482995D+01  1  2  5  1  5  1        2 -.321780173243D+00 0.100000000000D+01
0.409130448937D-03 0.000000000000D+00 0.151068232403D-03 0.260069500201D-02 0.000000000000D+00  5 2 -1 25 24 21 2 0.29372787D-01 0.12517743D-01 0.14856269D+05 0.14856269D+05 0.14856269D+05 0.12482995D+01  1  2  6  1  5  1        2 0.525209470139D+00 0.100000000000D+01
0.552280340325D-05 0.000000000000D+00 0.000000000000D+00 0.260069500201D-02 0.000000000000D+00  5 21 -1 25 24 -2 2 0.38016032D-01 0.12517743D-01 0.21703488D+05 0.21703488D+05 0.21703488D+05 0.12299369D+01  1  2 12  3  5  1        2 0.214112455253D-01 0.100000000000D+01
-.114850236906D-04 0.000000000000D+00 -.709407827113D-05 0.260069500201D-02 0.000000000000D+00  5 21 -1 25 24 -2 2 0.42095174D-01 0.12517743D-01 0.14856269D+05 0.14856269D+05 0.14856269D+05 0.12482995D+01  1  2  5  3  5  1        2 -.373229760763D-01 0.100000000000D+01
  </mgrwgt>
  </event>
  <event>
  4     66 0.48098993E-03 0.88061000E+02 0.75467711E-02 0.11763503E+00
        2 -1    0    0  501    0 0.00000000E+00 0.00000000E+00 0.69608472E+03 0.69608480E+03 0.32000000E+00 0.0000E+00 0.9000E+01
       -1 -1    0    0    0  501 0.00000000E+00 0.00000000E+00 -.40600124E+02 0.40601386E+02 0.32000000E+00 0.0000E+00 0.9000E+01
       25  1    1    2    0    0 0.10841052E+03 -.72975027E+02 0.31492760E+03 0.36315642E+03 0.12500000E+03 0.0000E+00 0.9000E+01
       24  1    1    2    0    0 -.10841052E+03 0.72975027E+02 0.34055700E+03 0.37352976E+03 0.80419002E+02 0.0000E+00 0.9000E+01
#aMCatNLO 1  0  0  1  2 0.84990291D+01 0.00000000D+00  -5  5  0 0.00000000D+00 0.00000000D+00 0.00000000D+00 0.00000000D+00 0.00000000D+00
  <mgrwgt>
 0.5198534417D+00   11    2    0
 0.168111921257175D+03 0.000000000000000D+00 0.000000000000000D+00 0.168111921257175D+03
 0.168111921257175D+03 0.000000000000000D+00 0.000000000000000D+00 -.168111921257175D+03
 0.181730503415338D+03 0.108410518054944D+03 -.729750273876740D+02 -.179661020930811D+02
 0.154493339099013D+03 -.108410518054944D+03 0.729750273876740D+02 0.179661020930811D+02
 0.000000000000000D+00 -.000000000000000D+00 -.000000000000000D+00 0.000000000000000D+00
 0.177270281470291D+03 0.000000000000000D+00 0.000000000000000D+00 0.177270281470291D+03
 0.170149043191769D+03 0.000000000000000D+00 0.000000000000000D+00 -.170149043191769D+03
 0.183944897836357D+03 0.112867670321527D+03 -.717553734001836D+02 -.179661020930811D+02
 0.152386346282629D+03 -.104670016285929D+03 0.739985773193192D+02 0.179661020930811D+02
 0.110880805430734D+02 -.819765403559864D+01 -.224320391913558D+01 0.712123827852229D+01
0.392182331492D-03 0.000000000000D+00 0.000000000000D+00 0.226608217661D-02 0.000000000000D+00  5 2 -1 25 24 21 0 0.10709006D+00 0.62462757D-02 0.27936680D+05 0.27936680D+05 0.27936680D+05 0.12181598D+01  1  2  2  1  5  1        2 0.231356990730D+00 0.100000000000D+01
-.217870216566D-04 0.000000000000D+00 -.150608341691D-05 0.226608217661D-02 0.000000000000D+00  5 2 -1 25 24 21 2 0.10709006D+00 0.62462757D-02 0.27936680D+05 0.27936680D+05 0.27936680D+05 0.12181598D+01  1  2  3  1  5  1        2 -.190722094719D-01 0.100000000000D+01
0.270487114097D-04 0.000000000000D+00 0.000000000000D+00 0.226608217661D-02 0.000000000000D+00  5 2 -1 25 24 21 2 0.10709006D+00 0.62462757D-02 0.27936680D+05 0.27936680D+05 0.27936680D+05 0.12181598D+01  1  2 15  1  5  1        2 0.236782566283D-01 0.100000000000D+01
0.202194058949D-02 0.000000000000D+00 0.000000000000D+00 0.226608217661D-02 0.000000000000D+00  5 2 -1 25 24 21 2 0.11355029D+00 0.62462757D-02 0.29393044D+05 0.29393044D+05 0.29393044D+05 0.12158311D+01  1  2 12  1  5  1        2 0.164461937140D+01 0.100000000000D+01
-.204482116330D-02 0.000000000000D+00 0.000000000000D+00 0.226608217661D-02 0.000000000000D+00  5 2 -1 25 24 21 2 0.10709006D+00 0.62462757D-02 0.27936680D+05 0.27936680D+05 0.27936680D+05 0.12181598D+01  1  2  4  1  5  1        2 -.179002243508D+01 0.100000000000D+01
-.699389296889D-02 0.000000000000D+00 -.919840895974D-03 0.226608217661D-02 0.000000000000D+00  5 2 -1 25 24 21 2 0.11377931D+00 0.62462757D-02 0.27936680D+05 0.27936680D+05 0.27936680D+05 0.12181598D+01  1  2  5  1  5  1        2 -.569067215714D+01 0.100000000000D+01
0.703838883881D-02 0.000000000000D+00 0.918155009423D-03 0.226608217661D-02 0.000000000000D+00  5 2 -1 25 24 21 2 0.10709006D+00 0.62462757D-02 0.27936680D+05 0.27936680D+05 0.27936680D+05 0.12181598D+01  1  2  6  1  5  1        2 0.616135736193D+01 0.100000000000D+01
0.340672086372D-05 0.000000000000D+00 0.000000000000D+00 0.226608217661D-02 0.247636376678D-03  5 2 -1 25 24 21 2 0.11292409D+00 0.63219659D-02 0.29393044D+05 0.29393044D+05 0.29393044D+05 0.12158311D+01  1  2 11  1  5  1        2 0.273972013552D-02 0.100000000000D+01
0.274003248707D-04 0.000000000000D+00 0.000000000000D+00 0.226608217661D-02 0.000000000000D+00  5 21 -1 25 24 -2 2 0.11355029D+00 0.62462757D-02 0.29393044D+05 0.29393044D+05 0.29393044D+05 0.12158311D+01  1  2 12  3  5  1        2 0.274207752032D-01 0.100000000000D+01
-.715408937492D-04 0.000000000000D+00 -.956331473487D-05 0.226608217661D-02 0.000000000000D+00  5 21 -1 25 24 -2 2 0.11377931D+00 0.62462757D-02 0.27936680D+05 0.27936680D+05 0.27936680D+05 0.12181598D+01  1  2  5  3  5  1        2 -.715871775224D-01 0.100000000000D+01
0.350828936727D-07 0.000000000000D+00 0.000000000000D+00 0.226608217661D-02 0.230135456082D-05  5 21 -1 25 24 -2 2 0.11292409D+00 0.63219659D-02 0.29393044D+05 0.29393044D+05 0.29393044D+05 0.12158311D+01  1  2 11  3  5  1        2 0.349449191625D-04 0.100000000000D+01
  </mgrwgt>
  </event>
  <event>
  4     66 0.48098993E-03 0.11182165E+03 0.75467711E-02 0.12291941E+00
        2 -1    0    0  501    0 0.00000000E+00 0.00000000E+00 0.24816772E+04 0.24816772E+04 0.32000000E+00 0.0000E+00 0.9000E+01
       -1 -1    0    0    0  501 0.00000000E+00 0.00000000E+00 -.70760128E+01 0.70832448E+01 0.32000000E+00 0.0000E+00 0.9000E+01
       25  1    1    2    0    0 0.63691746E+01 -.75511729E+02 0.10901460E+04 0.10999027E+04 0.12500000E+03 0.0000E+00 0.9000E+01
       24  1    1    2    0    0 -.63691746E+01 0.75511729E+02 0.13844552E+04 0.13888578E+04 0.80419002E+02 0.0000E+00 0.9000E+01
#aMCatNLO 1  0  0  1  2 0.99028541D+00 0.00000000D+00  -5  5  0 0.00000000D+00 0.00000000D+00 0.00000000D+00 0.00000000D+00 0.00000000D+00
  <mgrwgt>
 0.1087168310D+01   10    2    0
 0.132549630773806D+03 0.000000000000000D+00 0.000000000000000D+00 0.132549630773806D+03
 0.132549630773806D+03 0.000000000000000D+00 0.000000000000000D+00 -.132549630773806D+03
 0.149821998852404D+03 0.636917462871153D+01 -.755117285144886D+02 -.328488022830783D+02
 0.115277262695209D+03 -.636917462871153D+01 0.755117285144886D+02 0.328488022830783D+02
 0.000000000000000D+00 0.000000000000000D+00 -.000000000000000D+00 0.000000000000000D+00
 0.133198061441710D+03 0.000000000000000D+00 0.000000000000000D+00 0.133198061441710D+03
 0.132929187359602D+03 0.000000000000000D+00 0.000000000000000D+00 -.132929187359602D+03
 0.149601483378463D+03 0.598552969980648D+01 -.751048164355416D+02 -.328488022830783D+02
 0.115499627781555D+03 -.666486414203974D+01 0.758253508916555D+02 0.328488022830783D+02
 0.102613764129423D+01 0.679334442233267D+00 -.720534456113945D+00 0.268874082107362D+00
0.269200172543D-03 0.000000000000D+00 0.000000000000D+00 0.244568085865D-02 0.000000000000D+00  5 2 -1 25 24 21 0 0.38179705D+00 0.10891753D-02 0.16470455D+05 0.16470455D+05 0.16470455D+05 0.12432189D+01  1  2  2  1  5  1        2 0.207564110875D+00 0.100000000000D+01
-.149365995611D-04 0.000000000000D+00 -.103379954460D-05 0.244568085865D-02 0.000000000000D+00  5 2 -1 25 24 21 2 0.38179705D+00 0.10891753D-02 0.16470455D+05 0.16470455D+05 0.16470455D+05 0.12432189D+01  1  2  3  1  5  1        2 -.178001579328D-01 0.100000000000D+01
0.186168028558D-04 0.000000000000D+00 0.000000000000D+00 0.244568085865D-02 0.000000000000D+00  5 2 -1 25 24 21 2 0.38179705D+00 0.10891753D-02 0.16470455D+05 0.16470455D+05 0.16470455D+05 0.12432189D+01  1  2 15  1  5  1        2 0.221859084914D-01 0.100000000000D+01
-.633035666587D-02 0.000000000000D+00 0.000000000000D+00 0.244568085865D-02 0.000000000000D+00  5 2 -1 25 24 21 2 0.38179705D+00 0.10891753D-02 0.16470455D+05 0.16470455D+05 0.16470455D+05 0.12432189D+01  1  2  4  1  5  1        2 -.754397598746D+01 0.100000000000D+01
-.462275493399D-01 0.000000000000D+00 -.427239824473D-02 0.244568085865D-02 0.000000000000D+00  5 2 -1 25 24 21 2 0.38410340D+00 0.10891753D-02 0.16470455D+05 0.16470455D+05 0.16470455D+05 0.12432189D+01  1  2  5  1  5  1        2 -.540876521571D+02 0.100000000000D+01
0.462525189420D-01 0.000000000000D+00 0.427232076226D-02 0.244568085865D-02 0.000000000000D+00  5 2 -1 25 24 21 2 0.38179705D+00 0.10891753D-02 0.16470455D+05 0.16470455D+05 0.16470455D+05 0.12432189D+01  1  2  6  1  5  1        2 0.551197840303D+02 0.100000000000D+01
0.633045635855D-02 0.000000000000D+00 0.000000000000D+00 0.244568085865D-02 0.205454151474D-01  5 2 -1 25 24 21 2 0.38366479D+00 0.10922941D-02 0.16598556D+05 0.16598556D+05 0.16598556D+05 0.12428398D+01  1  2 11  1  5  1        2 0.739840143807D+01 0.100000000000D+01
0.726264404520D-10 0.000000000000D+00 0.000000000000D+00 0.244568085865D-02 0.000000000000D+00  5 21 -1 25 24 -2 2 0.38420931D+00 0.10891753D-02 0.16598556D+05 0.16598556D+05 0.16598556D+05 0.12428398D+01  1  2 12  3  5  1        2 0.189501685373D-07 0.100000000000D+01
-.516757826290D-04 0.000000000000D+00 -.478126013297D-05 0.244568085865D-02 0.000000000000D+00  5 21 -1 25 24 -2 2 0.38410340D+00 0.10891753D-02 0.16470455D+05 0.16470455D+05 0.16470455D+05 0.12432189D+01  1  2  5  3  5  1        2 -.135212220103D-01 0.100000000000D+01
0.833511244519D-05 0.000000000000D+00 0.000000000000D+00 0.244568085865D-02 0.186753416195D-04  5 21 -1 25 24 -2 2 0.38366479D+00 0.10922941D-02 0.16598556D+05 0.16598556D+05 0.16598556D+05 0.12428398D+01  1  2 11  3  5  1        2 0.218232740339D-02 0.100000000000D+01
  </mgrwgt>
  </event>
  <event>
  4     66 0.48098993E-03 0.10406138E+03 0.75467711E-02 0.12619234E+00
        4 -1    0    0  501    0 0.00000000E+00 0.00000000E+00 0.21763100E+03 0.21763652E+03 0.15500000E+01 0.0000E+00 0.9000E+01
       -3 -1    0    0    0  501 0.00000000E+00 0.00000000E+00 -.50541728E+02 0.50544201E+02 0.50000000E+00 0.0000E+00 0.9000E+01
       25  1    1    2    0    0 -.76002547E+01 -.14454704E+02 0.11731407E+03 0.17220422E+03 0.12500000E+03 0.0000E+00 0.9000E+01
       24  1    1    2    0    0 0.76002547E+01 0.14454704E+02 0.49775202E+02 0.95976503E+02 0.80419002E+02 0.0000E+00 0.9000E+01
#aMCatNLO 1  0  0  1  2 0.10170199D+02 0.00000000D+00  -5  5  0 0.00000000D+00 0.00000000D+00 0.00000000D+00 0.00000000D+00 0.00000000D+00
  <mgrwgt>
 0.4348716649D-01    4    2    0
 0.104883358044954D+03 0.000000000000000D+00 0.000000000000000D+00 0.104883358044954D+03
 0.104883358044954D+03 0.000000000000000D+00 0.000000000000000D+00 -.104883358044954D+03
 0.126711854520306D+03 -.760025472692610D+01 -.144547040484454D+02 0.128137322795871D+02
 0.830548615696021D+02 0.760025472692610D+01 0.144547040484454D+02 -.128137322795871D+02
 0.000000000000000D+00 0.000000000000000D+00 -.000000000000000D+00 -.000000000000000D+00
 0.105631766486369D+03 0.000000000000000D+00 0.000000000000000D+00 0.105631766486369D+03
 0.146365881265257D+03 0.000000000000000D+00 0.000000000000000D+00 -.146365881265257D+03
 0.126377376216155D+03 -.101571505771671D+02 -.888154133579976D+01 0.128137322795871D+02
 0.836357379717211D+02 0.591622217840091D+01 0.181253218428454D+02 -.128137322795871D+02
 0.419845335637485D+02 0.424092839876623D+01 -.924378050704563D+01 -.407341147788881D+02
0.257352572439D-03 0.000000000000D+00 0.000000000000D+00 0.312800546776D-02 0.000000000000D+00  5 4 -3 25 24 21 0 0.33482308D-01 0.77762653D-02 0.10828770D+05 0.10828770D+05 0.10828770D+05 0.12642853D+01  1  2  2  1  5  1        4 0.454234800356D-01 0.100000000000D+01
-.142962890060D-04 0.000000000000D+00 -.988301640654D-06 0.312800546776D-02 0.000000000000D+00  5 4 -3 25 24 21 2 0.33482308D-01 0.77762653D-02 0.10828770D+05 0.10828770D+05 0.10828770D+05 0.12642853D+01  1  2  3  1  5  1        4 -.403334492165D-02 0.100000000000D+01
0.177467618732D-04 0.000000000000D+00 0.000000000000D+00 0.312800546776D-02 0.000000000000D+00  5 4 -3 25 24 21 2 0.33482308D-01 0.77762653D-02 0.10828770D+05 0.10828770D+05 0.10828770D+05 0.12642853D+01  1  2 15  1  5  1        4 0.500681063785D-02 0.100000000000D+01
-.103137832605D-04 0.000000000000D+00 0.000000000000D+00 0.312800546776D-02 0.000000000000D+00  5 4 -3 25 24 21 2 0.33482308D-01 0.77762653D-02 0.10828770D+05 0.10828770D+05 0.10828770D+05 0.12642853D+01  1  2  4  1  5  1        4 -.290977926644D-02 0.100000000000D+01
  </mgrwgt>
  </event>
  <event>
  4     66 0.48098993E-03 0.64820134E+02 0.75467711E-02 0.12539187E+00
        2 -1    0    0  501    0 0.00000000E+00 0.00000000E+00 0.77103518E+03 0.77103525E+03 0.32000000E+00 0.0000E+00 0.9000E+01
       -1 -1    0    0    0  501 0.00000000E+00 0.00000000E+00 -.16525743E+02 0.16528841E+02 0.32000000E+00 0.0000E+00 0.9000E+01
       25  1    1    2    0    0 0.38499226E+01 -.45692058E+02 0.45343690E+03 0.47258079E+03 0.12500000E+03 0.0000E+00 0.9000E+01
       24  1    1    2    0    0 -.38499226E+01 0.45692058E+02 0.30107254E+03 0.31498330E+03 0.80419002E+02 0.0000E+00 0.9000E+01
#aMCatNLO 1  0  0  1  2 0.16181442D+01 0.00000000D+00  -5  5  0 0.00000000D+00 0.00000000D+00 0.00000000D+00 0.00000000D+00 0.00000000D+00
  <mgrwgt>
 0.3721003304D+00   11    2    0
 0.112885674798808D+03 0.000000000000000D+00 0.000000000000000D+00 0.112885674798808D+03
 0.112885674798808D+03 0.000000000000000D+00 0.000000000000000D+00 -.112885674798808D+03
 0.133166777919180D+03 0.384992255380586D+01 -.456920580339751D+02 0.240928834423806D+01
 0.926045716784364D+02 -.384992255380586D+01 0.456920580339751D+02 -.240928834423806D+01
 0.000000000000000D+00 0.000000000000000D+00 -.000000000000000D+00 0.000000000000000D+00
 0.117560986755963D+03 0.000000000000000D+00 0.000000000000000D+00 0.117560986755963D+03
 0.113028672571370D+03 0.000000000000000D+00 0.000000000000000D+00 -.113028672571370D+03
 0.133107696958427D+03 0.290120234324396D+01 -.455898820377332D+02 0.240928834423806D+01
 0.926694513310976D+02 -.451004294349793D+01 0.457631521855548D+02 -.240928834423806D+01
 0.481251103780713D+01 0.160884060025396D+01 -.173270147821606D+00 0.453231418459310D+01
0.876205237471D-04 0.000000000000D+00 0.000000000000D+00 0.293580609475D-02 0.000000000000D+00  5 2 -1 25 24 21 0 0.11862104D+00 0.25426655D-02 0.12737177D+05 0.12737177D+05 0.12737177D+05 0.12560009D+01  1  2  2  1  5  1        2 0.167011920783D+00 0.100000000000D+01
-.486780654684D-05 0.000000000000D+00 -.336485882202D-06 0.293580609475D-02 0.000000000000D+00  5 2 -1 25 24 21 2 0.11862104D+00 0.25426655D-02 0.12737177D+05 0.12737177D+05 0.12737177D+05 0.12560009D+01  1  2  3  1  5  1        2 -.146370926657D-01 0.100000000000D+01
0.605001448875D-05 0.000000000000D+00 0.000000000000D+00 0.293580609475D-02 0.000000000000D+00  5 2 -1 25 24 21 2 0.11862104D+00 0.25426655D-02 0.12737177D+05 0.12737177D+05 0.12737177D+05 0.12560009D+01  1  2 15  1  5  1        2 0.181918944084D-01 0.100000000000D+01
0.510536331580D-06 0.000000000000D+00 0.000000000000D+00 0.293580609475D-02 0.000000000000D+00  5 2 -1 25 24 21 2 0.12360733D+00 0.25426655D-02 0.12921115D+05 0.12921115D+05 0.12921115D+05 0.12552772D+01  1  2 12  1  5  1        2 0.145870170635D-02 0.100000000000D+01
-.500399430371D-02 0.000000000000D+00 0.000000000000D+00 0.293580609475D-02 0.000000000000D+00  5 2 -1 25 24 21 2 0.11862104D+00 0.25426655D-02 0.12737177D+05 0.12737177D+05 0.12737177D+05 0.12560009D+01  1  2  4  1  5  1        2 -.150465980144D+02 0.100000000000D+01
-.656414709637D-02 0.000000000000D+00 -.295450610618D-03 0.293580609475D-02 0.000000000000D+00  5 2 -1 25 24 21 2 0.12360557D+00 0.25426655D-02 0.12737177D+05 0.12737177D+05 0.12737177D+05 0.12560009D+01  1  2  5  1  5  1        2 -.187663622700D+02 0.100000000000D+01
0.657099110462D-02 0.000000000000D+00 0.295200498276D-03 0.293580609475D-02 0.000000000000D+00  5 2 -1 25 24 21 2 0.11862104D+00 0.25426655D-02 0.12737177D+05 0.12737177D+05 0.12737177D+05 0.12560009D+01  1  2  6  1  5  1        2 0.197584281089D+02 0.100000000000D+01
0.500759833514D-02 0.000000000000D+00 0.000000000000D+00 0.293580609475D-02 0.943036150182D-02  5 2 -1 25 24 21 2 0.12353389D+00 0.25458864D-02 0.12921115D+05 0.12921115D+05 0.12921115D+05 0.12552772D+01  1  2 11  1  5  1        2 0.142920593594D+02 0.100000000000D+01
0.114002134795D-07 0.000000000000D+00 0.000000000000D+00 0.293580609475D-02 0.000000000000D+00  5 21 -1 25 24 -2 2 0.12360733D+00 0.25426655D-02 0.12921115D+05 0.12921115D+05 0.12921115D+05 0.12552772D+01  1  2 12  3  5  1        2 0.373160912463D-04 0.100000000000D+01
-.474987122268D-04 0.000000000000D+00 -.214582397016D-05 0.293580609475D-02 0.000000000000D+00  5 21 -1 25 24 -2 2 0.12360557D+00 0.25426655D-02 0.12737177D+05 0.12737177D+05 0.12737177D+05 0.12560009D+01  1  2  5  3  5  1        2 -.155658718311D+00 0.100000000000D+01
0.361145437541D-04 0.000000000000D+00 0.000000000000D+00 0.293580609475D-02 0.676387694488D-04  5 21 -1 25 24 -2 2 0.12353389D+00 0.25458864D-02 0.12921115D+05 0.12921115D+05 0.12921115D+05 0.12552772D+01  1  2 11  3  5  1        2 0.118169124403D+00 0.100000000000D+01
  </mgrwgt>
  </event>
  <event>
  4     66 0.48098993E-03 0.73160689E+02 0.75467711E-02 0.11970777E+00
        4 -1    0    0  501    0 0.00000000E+00 0.00000000E+00 0.11624744E+04 0.11624755E+04 0.15500000E+01 0.0000E+00 0.9000E+01
       -3 -1    0    0    0  501 0.00000000E+00 0.00000000E+00 -.19698191E+02 0.19704536E+02 0.50000000E+00 0.0000E+00 0.9000E+01
       25  1    1    2    0    0 0.48284012E+02 -.23931401E+02 0.10027617E+04 0.10119586E+04 0.12500000E+03 0.0000E+00 0.9000E+01
       24  1    1    2    0    0 -.48284012E+02 0.23931401E+02 0.14001453E+03 0.17022145E+03 0.80419002E+02 0.0000E+00 0.9000E+01
#aMCatNLO 1  0  0  1  2 0.65320831D+02 0.00000000D+00  -5  5  0 0.00000000D+00 0.00000000D+00 0.00000000D+00 0.00000000D+00 0.00000000D+00
  <mgrwgt>
 0.2209693321D-01    8    2    0
 0.151337387488931D+03 0.000000000000000D+00 0.000000000000000D+00 0.151337387488931D+03
 0.151337387488931D+03 0.000000000000000D+00 0.000000000000000D+00 -.151337387488931D+03
 0.166465480086505D+03 0.482840121206544D+02 -.239314014460590D+02 0.958211785504149D+02
 0.136209294891358D+03 -.482840121206544D+02 0.239314014460590D+02 -.958211785504149D+02
 0.000000000000000D+00 -.000000000000000D+00 0.000000000000000D+00 0.000000000000000D+00
 0.294084575631472D+03 0.000000000000000D+00 0.000000000000000D+00 0.294084575631472D+03
 0.162481160308813D+03 0.000000000000000D+00 0.000000000000000D+00 -.162481160308813D+03
 0.178007656520111D+03 0.578930283324547D+02 -.594005453803997D+02 0.958211785504149D+02
 0.131635412878976D+03 -.408125321539910D+02 -.364759233425004D+01 -.958211785504149D+02
 0.146922666541199D+03 -.170804961784637D+02 0.630481377146498D+02 0.131603415322659D+03
0.368687106032D-03 0.000000000000D+00 0.000000000000D+00 0.151848093118D-02 0.000000000000D+00  5 4 -3 25 24 21 0 0.17884279D+00 0.30310585D-02 0.13563726D+05 0.13563726D+05 0.13563726D+05 0.12528368D+01  1  2  2  1  5  1        4 0.711945786797D-02 0.100000000000D+01
-.187739693738D-04 0.000000000000D+00 -.141585556471D-05 0.151848093118D-02 0.000000000000D+00  5 4 -3 25 24 21 2 0.17884279D+00 0.30310585D-02 0.13563726D+05 0.13563726D+05 0.13563726D+05 0.12528368D+01  1  2  3  1  5  1        4 -.569028568557D-03 0.100000000000D+01
0.252522708166D-04 0.000000000000D+00 0.000000000000D+00 0.151848093118D-02 0.000000000000D+00  5 4 -3 25 24 21 2 0.17884279D+00 0.30310585D-02 0.13563726D+05 0.13563726D+05 0.13563726D+05 0.12528368D+01  1  2 15  1  5  1        4 0.765382281686D-03 0.100000000000D+01
0.310304747503D-03 0.000000000000D+00 0.000000000000D+00 0.151848093118D-02 0.000000000000D+00  5 4 -3 25 24 21 2 0.34829136D+00 0.30310585D-02 0.23346893D+05 0.23346893D+05 0.23346893D+05 0.12264959D+01  1  2 12  1  5  1        4 0.915048494981D-03 0.100000000000D+01
-.565652938605D-03 0.000000000000D+00 -.117104739495D-03 0.151848093118D-02 0.000000000000D+00  5 4 -3 25 24 21 2 0.35447022D+00 0.30310585D-02 0.13563726D+05 0.13563726D+05 0.13563726D+05 0.12528368D+01  1  2  5  1  5  1        4 -.157699675382D-02 0.100000000000D+01
0.537836714646D-03 0.000000000000D+00 0.941902796727D-04 0.151848093118D-02 0.000000000000D+00  5 4 -3 25 24 21 2 0.17884279D+00 0.30310585D-02 0.13563726D+05 0.13563726D+05 0.13563726D+05 0.12528368D+01  1  2  6  1  5  1        4 0.163015316452D-01 0.100000000000D+01
0.224164965444D-04 0.000000000000D+00 0.000000000000D+00 0.151848093118D-02 0.000000000000D+00  5 21 -3 25 24 -4 2 0.34829136D+00 0.30310585D-02 0.23346893D+05 0.23346893D+05 0.23346893D+05 0.12264959D+01  1  2 12  3  5  1        4 0.154129080786D-02 0.100000000000D+01
-.349160096633D-04 0.000000000000D+00 -.867229467543D-05 0.151848093118D-02 0.000000000000D+00  5 21 -3 25 24 -4 2 0.35447022D+00 0.30310585D-02 0.13563726D+05 0.13563726D+05 0.13563726D+05 0.12528368D+01  1  2  5  3  5  1        4 -.239975256602D-02 0.100000000000D+01
  </mgrwgt>
  </event>
  <event>
  4     66 0.48098993E-03 0.12338643E+03 0.75467711E-02 0.11728820E+00
        2 -1    0    0  501    0 0.00000000E+00 0.00000000E+00 0.26713510E+02 0.26715427E+02 0.32000000E+00 0.0000E+00 0.9000E+01
       -1 -1    0    0    0  501 0.00000000E+00 0.00000000E+00 -.57763943E+03 0.57763952E+03 0.32000000E+00 0.0000E+00 0.9000E+01
       25  1    1    2    0    0 0.46295586E+02 0.48776156E+02 -.28171165E+03 0.31545023E+03 0.12500000E+03 0.0000E+00 0.9000E+01
       24  1    1    2    0    0 -.46295586E+02 -.48776156E+02 -.26921427E+03 0.28890471E+03 0.80419002E+02 0.0000E+00 0.9000E+01
#aMCatNLO 1  0  0  2  2 0.87755188D+02 0.00000000D+00  -5  5  0 0.00000000D+00 0.00000000D+00 0.00000000D+00 0.00000000D+00 0.00000000D+00
  <mgrwgt>
 0.4074836442D+00    3    2    0
 0.124223116116333D+03 0.000000000000000D+00 0.000000000000000D+00 0.124223116116333D+03
 0.124223116116333D+03 0.000000000000000D+00 0.000000000000000D+00 -.124223116116333D+03
 0.142653228666910D+03 0.462955856771098D+02 0.487761556964043D+02 0.142319721538210D+02
 0.105793003565756D+03 -.462955856771098D+02 -.487761556964043D+02 -.142319721538210D+02
 0.000000000000000D+00 0.000000000000000D+00 0.000000000000000D+00 0.000000000000000D+00
 0.196243248438618D+03 0.000000000000000D+00 0.000000000000000D+00 0.196243248438618D+03
 0.161593881812326D+03 0.000000000000000D+00 0.000000000000000D+00 -.161593881812326D+03
 0.127591858918527D+03 0.167552879360568D+02 0.130917438516764D+02 0.142319721538210D+02
 0.135897236465445D+03 -.727145734019880D+02 -.806900533408820D+02 -.142319721538210D+02
 0.943480348669712D+02 0.559592854659313D+02 0.675983094892056D+02 0.346493666262921D+02
0.136700782502D-02 0.000000000000D+00 0.000000000000D+00 0.267726920336D-02 0.000000000000D+00  5 2 -1 25 24 21 0 0.41099250D-02 0.88867759D-01 0.15224211D+05 0.15224211D+05 0.15224211D+05 0.12470886D+01  1  2  2  2  5  2       -1 0.399091565680D+00 0.100000000000D+01
-.759406618847D-04 0.000000000000D+00 -.524966998949D-05 0.267726920336D-02 0.000000000000D+00  5 2 -1 25 24 21 2 0.41099250D-02 0.88867759D-01 0.15224211D+05 0.15224211D+05 0.15224211D+05 0.12470886D+01  1  2  3  2  5  2       -1 -.344802628227D-01 0.100000000000D+01
0.944236995420D-04 0.000000000000D+00 0.000000000000D+00 0.267726920336D-02 0.000000000000D+00  5 2 -1 25 24 21 2 0.41099250D-02 0.88867759D-01 0.15224211D+05 0.15224211D+05 0.15224211D+05 0.12470886D+01  1  2 15  2  5  2       -1 0.428723413268D-01 0.100000000000D+01
  </mgrwgt>
  </event>
  <event>
  4     66 0.48098993E-03 0.19031604E+03 0.75467711E-02 0.10938671E+00
        2 -1    0    0  501    0 0.00000000E+00 0.00000000E+00 0.22113501E+03 0.22113524E+03 0.32000000E+00 0.0000E+00 0.9000E+01
       -1 -1    0    0    0  501 0.00000000E+00 0.00000000E+00 -.20334997E+03 0.20335022E+03 0.32000000E+00 0.0000E+00 0.9000E+01
       25  1    1    2    0    0 0.18425936E+03 0.91621238E+01 0.76415375E+01 0.22297724E+03 0.12500000E+03 0.0000E+00 0.9000E+01
       24  1    1    2    0    0 -.18425936E+03 -.91621238E+01 0.10143502E+02 0.20150822E+03 0.80419002E+02 0.0000E+00 0.9000E+01
#aMCatNLO 1  0  0  2  1 0.12467725D+03 0.00000000D+00  -5  5  0 0.00000000D+00 0.00000000D+00 0.00000000D+00 0.00000000D+00 0.00000000D+00
  <mgrwgt>
 0.3506900779D+00    9    2    0
 0.212056360079364D+03 0.000000000000000D+00 0.000000000000000D+00 0.212056360079364D+03
 0.212056360079364D+03 0.000000000000000D+00 0.000000000000000D+00 -.212056360079364D+03
 0.222852763500372D+03 0.184259360955960D+03 0.916212380110607D+01 -.170223009825249D+01
 0.201259956658356D+03 -.184259360955960D+03 -.916212380110607D+01 0.170223009825249D+01
 0.000000000000000D+00 -.000000000000000D+00 -.000000000000000D+00 -.000000000000000D+00
 0.255069011221578D+03 0.000000000000000D+00 0.000000000000000D+00 0.255069011221578D+03
 0.335193668781736D+03 0.000000000000000D+00 0.000000000000000D+00 -.335193668781736D+03
 0.263861178438417D+03 0.222172574096481D+03 0.680747472925612D+02 -.170223009825249D+01
 0.178197660562779D+03 -.154701018200887D+03 0.367680249126632D+02 0.170223009825249D+01
 0.148203841002119D+03 -.674715558955941D+02 -.104842772205224D+03 -.801246575601577D+02
0.195932621849D-02 0.000000000000D+00 0.000000000000D+00 0.213168303558D-02 0.000000000000D+00  5 2 -1 25 24 21 0 0.34020808D-01 0.31284648D-01 0.44964995D+05 0.44964995D+05 0.44964995D+05 0.11968740D+01  1  2  2  2  5  2       -1 0.321662890478D+00 0.100000000000D+01
-.108851456445D-03 0.000000000000D+00 -.752432858144D-05 0.213168303558D-02 0.000000000000D+00  5 2 -1 25 24 21 2 0.34020808D-01 0.31284648D-01 0.44964995D+05 0.44964995D+05 0.44964995D+05 0.11968740D+01  1  2  3  2  5  2       -1 -.255991375408D-01 0.100000000000D+01
0.134728478078D-03 0.000000000000D+00 0.000000000000D+00 0.213168303558D-02 0.000000000000D+00  5 2 -1 25 24 21 2 0.34020808D-01 0.31284648D-01 0.44964995D+05 0.44964995D+05 0.44964995D+05 0.11968740D+01  1  2 15  2  5  2       -1 0.316847652170D-01 0.100000000000D+01
0.435156644306D-03 0.000000000000D+00 0.000000000000D+00 0.213168303558D-02 0.000000000000D+00  5 2 -1 25 24 21 2 0.34020808D-01 0.51126592D-01 0.80293590D+05 0.80293590D+05 0.80293590D+05 0.11724308D+01  1  2 12  2  5  2       -1 0.410738890570D-01 0.100000000000D+01
-.984058787576D-03 0.000000000000D+00 0.000000000000D+00 0.213168303558D-02 0.000000000000D+00  5 2 -1 25 24 21 2 0.34020808D-01 0.31284648D-01 0.44964995D+05 0.44964995D+05 0.44964995D+05 0.11968740D+01  1  2  4  2  5  2       -1 -.231425991660D+00 0.100000000000D+01
-.109917074939D-02 0.000000000000D+00 -.593059955152D-03 0.213168303558D-02 0.000000000000D+00  5 2 -1 25 24 21 2 0.34020808D-01 0.57972951D-01 0.44964995D+05 0.44964995D+05 0.44964995D+05 0.11968740D+01  1  2  5  2  5  2       -1 -.853921846858D-01 0.100000000000D+01
0.130590955954D-02 0.000000000000D+00 0.495719897200D-03 0.213168303558D-02 0.000000000000D+00  5 2 -1 25 24 21 2 0.34020808D-01 0.31284648D-01 0.44964995D+05 0.44964995D+05 0.44964995D+05 0.11968740D+01  1  2  6  2  5  2       -1 0.307117235932D+00 0.100000000000D+01
0.241929732955D-04 0.000000000000D+00 0.000000000000D+00 0.213168303558D-02 0.000000000000D+00  5 2 21 25 24 1 2 0.34020808D-01 0.51126592D-01 0.80293590D+05 0.80293590D+05 0.80293590D+05 0.11724308D+01  1  2 12  4  5  2       -1 0.223068200282D-01 0.100000000000D+01
-.410924464069D-04 0.000000000000D+00 -.398950256804D-04 0.213168303558D-02 0.000000000000D+00  5 2 21 25 24 1 2 0.34020808D-01 0.57972951D-01 0.44964995D+05 0.44964995D+05 0.44964995D+05 0.11968740D+01  1  2  5  4  5  2       -1 -.307382089408D-01 0.100000000000D+01
  </mgrwgt>
  </event>
  <event>
  4     66 0.48098993E-03 0.81403520E+02 0.75467711E-02 0.12210413E+00
        4 -1    0    0  501    0 0.00000000E+00 0.00000000E+00 0.18220883E+02 0.18286691E+02 0.15500000E+01 0.0000E+00 0.9000E+01
       -3 -1    0    0    0  501 0.00000000E+00 0.00000000E+00 -.14652328E+04 0.14652329E+04 0.50000000E+00 0.0000E+00 0.9000E+01
       25  1    1    2    0    0 -.14203498E+02 0.57111842E+02 -.12911645E+04 0.12985354E+04 0.12500000E+03 0.0000E+00 0.9000E+01
       24  1    1    2    0    0 0.14203498E+02 -.57111842E+02 -.15584744E+03 0.18498417E+03 0.80419002E+02 0.0000E+00 0.9000E+01
#aMCatNLO 1  0  0  2  1 0.30114284D+02 0.00000000D+00  -5  5  0 0.00000000D+00 0.00000000D+00 0.00000000D+00 0.00000000D+00 0.00000000D+00
  <mgrwgt>
 0.6696092196D-01    7    2    0
 0.163544219906604D+03 0.000000000000000D+00 0.000000000000000D+00 0.163544219906604D+03
 0.163544219906604D+03 0.000000000000000D+00 0.000000000000000D+00 -.163544219906604D+03
 0.177543161677306D+03 -.142034980438478D+02 0.571118424925112D+02 -.111503687601814D+03
 0.149545278135902D+03 0.142034980438478D+02 -.571118424925112D+02 0.111503687601814D+03
 0.000000000000000D+00 -.000000000000000D+00 -.000000000000000D+00 -.000000000000000D+00
 0.165161243540617D+03 0.000000000000000D+00 0.000000000000000D+00 0.165161243540617D+03
 0.409243745306719D+03 0.000000000000000D+00 0.000000000000000D+00 -.409243745306719D+03
 0.182346132809581D+03 -.653663902378855D+01 0.717587078484494D+02 -.111503687601814D+03
 0.146125658287657D+03 0.205022888681771D+02 -.450785520840413D+02 0.111503687601814D+03
 0.245933197750098D+03 -.139656498443885D+02 -.266801557644082D+02 -.244082501766103D+03
0.489422303314D-02 0.000000000000D+00 0.000000000000D+00 0.131727854052D-02 0.000000000000D+00  5 4 -3 25 24 21 0 0.28082815D-02 0.22542550D+00 0.14138890D+05 0.14138890D+05 0.14138890D+05 0.12507603D+01  1  2  2  2  5  2       -3 0.656637737612D-01 0.100000000000D+01
-.238314442351D-03 0.000000000000D+00 -.187951051258D-04 0.131727854052D-02 0.000000000000D+00  5 4 -3 25 24 21 2 0.28082815D-02 0.22542550D+00 0.14138890D+05 0.14138890D+05 0.14138890D+05 0.12507603D+01  1  2  3  2  5  2       -3 -.500196453554D-02 0.100000000000D+01
0.335293480874D-03 0.000000000000D+00 0.000000000000D+00 0.131727854052D-02 0.000000000000D+00  5 4 -3 25 24 21 2 0.28082815D-02 0.22542550D+00 0.14138890D+05 0.14138890D+05 0.14138890D+05 0.12507603D+01  1  2 15  2  5  2       -3 0.703745053712D-02 0.100000000000D+01
0.570012109770D-01 0.000000000000D+00 0.000000000000D+00 0.131727854052D-02 0.000000000000D+00  5 4 -3 25 24 21 2 0.28082815D-02 0.56330761D+00 0.18068632D+05 0.18068632D+05 0.18068632D+05 0.12387113D+01  1  2 12  2  5  2       -3 0.208470012885D-01 0.100000000000D+01
-.577122387483D-01 0.000000000000D+00 -.110166366639D-02 0.131727854052D-02 0.000000000000D+00  5 4 -3 25 24 21 2 0.28082815D-02 0.56480015D+00 0.14138890D+05 0.14138890D+05 0.14138890D+05 0.12507603D+01  1  2  5  2  5  2       -3 -.211727758673D-01 0.100000000000D+01
0.574599294229D-02 0.000000000000D+00 0.000000000000D+00 0.131727854052D-02 0.000000000000D+00  5 4 21 25 24 3 2 0.28082815D-02 0.56330761D+00 0.18068632D+05 0.18068632D+05 0.18068632D+05 0.12387113D+01  1  2 12  4  5  2       -3 0.157308733915D-01 0.100000000000D+01
-.576893132133D-02 0.000000000000D+00 -.111420731513D-03 0.131727854052D-02 0.000000000000D+00  5 4 21 25 24 3 2 0.28082815D-02 0.56480015D+00 0.14138890D+05 0.14138890D+05 0.14138890D+05 0.12507603D+01  1  2  5  4  5  2       -3 -.161434366139D-01 0.100000000000D+01
  </mgrwgt>
  </event>
  <event>
  4     66 0.48098993E-03 0.10801850E+03 0.75467711E-02 0.11927766E+00
        4 -1    0    0  501    0 0.00000000E+00 0.00000000E+00 0.54119972E+02 0.54142164E+02 0.15500000E+01 0.0000E+00 0.9000E+01
       -3 -1    0    0    0  501 0.00000000E+00 0.00000000E+00 -.26848368E+03 0.26848414E+03 0.50000000E+00 0.0000E+00 0.9000E+01
       25  1    1    2    0    0 0.25623394E+02 0.20360621E+02 -.19458305E+03 0.23357799E+03 0.12500000E+03 0.0000E+00 0.9000E+01
       24  1    1    2    0    0 -.25623394E+02 -.20360621E+02 -.19780658E+02 0.89048322E+02 0.80419002E+02 0.0000E+00 0.9000E+01
#aMCatNLO 1  0  0  1  1 0.81705223D+02 0.00000000D+00  -5  5  0 0.00000000D+00 0.00000000D+00 0.00000000D+00 0.00000000D+00 0.00000000D+00
  <mgrwgt>
 0.9582472670D-01    3    2    0
 0.120556974272994D+03 0.000000000000000D+00 0.000000000000000D+00 0.120556974272994D+03
 0.120556974272994D+03 0.000000000000000D+00 0.000000000000000D+00 -.120556974272994D+03
 0.139547547196822D+03 0.256233938200849D+02 0.203606208382991D+02 -.527010885738542D+02
 0.101566401349166D+03 -.256233938200849D+02 -.203606208382991D+02 0.527010885738542D+02
 0.000000000000000D+00 0.000000000000000D+00 -.000000000000000D+00 -.000000000000000D+00
 0.135295830989457D+03 0.000000000000000D+00 0.000000000000000D+00 0.135295830989457D+03
 0.335773710364865D+03 0.000000000000000D+00 0.000000000000000D+00 -.335773710364865D+03
 0.144804963807506D+03 -.111563241123458D+02 0.494126424989013D+02 -.527010885738542D+02
 0.109776417284103D+03 -.529596365313657D+02 0.123207100416187D+01 0.527010885738542D+02
 0.216488160262713D+03 0.641159606437115D+02 -.506447135030631D+02 -.200477879375409D+03
0.833053602159D-03 0.000000000000D+00 0.000000000000D+00 0.231390702505D-02 0.000000000000D+00  5 4 -3 25 24 21 0 0.83278924D-02 0.41306924D-01 0.11667996D+05 0.11667996D+05 0.11667996D+05 0.12604547D+01  1  2  2  1  5  1        4 0.937789317680D-01 0.100000000000D+01
-.456021074879D-04 0.000000000000D+00 -.319914518034D-05 0.231390702505D-02 0.000000000000D+00  5 4 -3 25 24 21 2 0.83278924D-02 0.41306924D-01 0.11667996D+05 0.11667996D+05 0.11667996D+05 0.12604547D+01  1  2  3  1  5  1        4 -.815589681499D-02 0.100000000000D+01
0.570407711162D-04 0.000000000000D+00 0.000000000000D+00 0.231390702505D-02 0.000000000000D+00  5 4 -3 25 24 21 2 0.83278924D-02 0.41306924D-01 0.11667996D+05 0.11667996D+05 0.11667996D+05 0.12604547D+01  1  2 15  1  5  1        4 0.102016917441D-01 0.100000000000D+01
  </mgrwgt>
  </event>
  <event>
  5     66 0.48098993E-03 0.12544190E+03 0.75467711E-02 0.11884151E+00
        2 -1    0    0  501    0 0.00000000E+00 0.00000000E+00 0.29225118E+03 0.29225136E+03 0.32000000E+00 0.0000E+00 0.9000E+01
       21 -1    0    0  502  501 0.00000000E+00 0.00000000E+00 -.15186864E+03 0.15187049E+03 0.75000000E+00 0.0000E+00 0.9000E+01
       25  1    1    2    0    0 0.19501974E+02 0.75148383E+02 -.64399526E+02 0.16062349E+03 0.12500000E+03 0.0000E+00 0.9000E+01
       24  1    1    2    0    0 -.67875940E+02 -.36335281E+02 0.61085018E+02 0.12698815E+03 0.80419002E+02 0.0000E+00 0.9000E+01
        1  1    1    2  502    0 0.48373967E+02 -.38813102E+02 0.14369705E+03 0.15651020E+03 0.32000000E+00 0.0000E+00 0.9000E+01
#aMCatNLO 2  0  0  2  1 0.62020138D+02 0.00000000D+00  -5  5  0 0.00000000D+00 0.00000000D+00 0.00000000D+00 0.00000000D+00 0.00000000D+00
  <mgrwgt>
 0.8491330352D-01    1    2    0
 0.140412761359109D+03 0.000000000000000D+00 0.000000000000000D+00 0.140412761359109D+03
 0.140412761359109D+03 0.000000000000000D+00 0.000000000000000D+00 -.140412761359109D+03
 0.156717874863373D+03 0.464463551517276D+02 0.535294196836656D+02 -.625526148385607D+02
 0.124107647854845D+03 -.464463551517276D+02 -.535294196836656D+02 0.625526148385607D+02
 0.000000000000000D+00 0.000000000000000D+00 -.000000000000000D+00 0.000000000000000D+00
 0.295639508527499D+03 0.000000000000000D+00 0.000000000000000D+00 0.295639508527499D+03
 0.150129280021367D+03 0.000000000000000D+00 0.000000000000000D+00 -.150129280021367D+03
 0.159891951338682D+03 0.195019738010359D+02 0.751483832002654D+02 -.625526148385607D+02
 0.127700593317761D+03 -.678759404516851D+02 -.363352812565923D+02 0.625526148385607D+02
 0.158176243892422D+03 0.483739666506492D+02 -.388131019436731D+02 0.145510228506132D+03
0.235917679601D-04 0.000000000000D+00 0.000000000000D+00 0.204994293315D-02 0.954656771535D-07  5 2 21 25 24 1 2 0.44961830D-01 0.23364537D-01 0.25679979D+05 0.25679979D+05 0.25679979D+05 0.12220501D+01  1  2  1  4  5  2       -1 0.849133035220D-01 0.100000000000D+01
  </mgrwgt>
  </event>
  <event>
  4     66 0.48098993E-03 0.11200335E+03 0.75467711E-02 0.11701830E+00
        2 -1    0    0  501    0 0.00000000E+00 0.00000000E+00 0.70696065E+03 0.70696073E+03 0.32000000E+00 0.0000E+00 0.9000E+01
       -1 -1    0    0    0  501 0.00000000E+00 0.00000000E+00 -.23161614E+02 0.23163825E+02 0.32000000E+00 0.0000E+00 0.9000E+01
       25  1    1    2    0    0 0.89278207E+01 0.42857499E+02 0.56399625E+03 0.57933863E+03 0.12500000E+03 0.0000E+00 0.9000E+01
       24  1    1    2    0    0 -.89278207E+01 -.42857499E+02 0.11980279E+03 0.15078592E+03 0.80419002E+02 0.0000E+00 0.9000E+01
#aMCatNLO 1  0  0  1  1 0.10659416D+03 0.00000000D+00  -5  5  0 0.00000000D+00 0.00000000D+00 0.00000000D+00 0.00000000D+00 0.00000000D+00
  <mgrwgt>
 0.2395157582D+00    5    2    0
 0.127965555049760D+03 0.000000000000000D+00 0.000000000000000D+00 0.127965555049760D+03
 0.127965555049760D+03 0.000000000000000D+00 0.000000000000000D+00 -.127965555049760D+03
 0.145856666532980D+03 0.892782068114805D+01 0.428574988345369D+02 0.610957935020563D+02
 0.110074443566540D+03 -.892782068114805D+01 -.428574988345369D+02 -.610957935020563D+02
 0.000000000000000D+00 0.000000000000000D+00 0.000000000000000D+00 0.000000000000000D+00
 0.197907539603296D+03 0.000000000000000D+00 0.000000000000000D+00 0.197907539603296D+03
 0.186533582978926D+03 0.000000000000000D+00 0.000000000000000D+00 -.186533582978926D+03
 0.151596696291415D+03 -.498404311349323D+02 0.337608318486032D+02 0.610957935020563D+02
 0.125645162654318D+03 -.554992530725608D+02 -.500662348175032D+02 -.610957935020563D+02
 0.107199263636490D+03 0.105339684207493D+03 0.163054029688999D+02 0.113739566243694D+02
0.204855471969D-03 0.000000000000D+00 0.000000000000D+00 0.211767527801D-02 0.000000000000D+00  5 2 -1 25 24 21 0 0.10876335D+00 0.35635009D-02 0.12544750D+05 0.12544750D+05 0.12544750D+05 0.12567707D+01  1  2  2  1  5  1        2 0.265502059917D+00 0.100000000000D+01
-.111352325967D-04 0.000000000000D+00 -.786698952045D-06 0.211767527801D-02 0.000000000000D+00  5 2 -1 25 24 21 2 0.10876335D+00 0.35635009D-02 0.12544750D+05 0.12544750D+05 0.12544750D+05 0.12567707D+01  1  2  3  1  5  1        2 -.227945856497D-01 0.100000000000D+01
0.140675988120D-04 0.000000000000D+00 0.000000000000D+00 0.211767527801D-02 0.000000000000D+00  5 2 -1 25 24 21 2 0.10876335D+00 0.35635009D-02 0.12544750D+05 0.12544750D+05 0.12544750D+05 0.12567707D+01  1  2 15  1  5  1        2 0.287973406232D-01 0.100000000000D+01
-.419170254567D-04 0.000000000000D+00 -.702024949138D-04 0.211767527801D-02 0.000000000000D+00  5 2 -1 25 24 21 2 0.21875817D+00 0.35635009D-02 0.12544750D+05 0.12544750D+05 0.12544750D+05 0.12567707D+01  1  2  5  1  5  1        2 -.324524205992D-01 0.100000000000D+01
0.106210373249D-05 0.000000000000D+00 -.530691042138D-05 0.211767527801D-02 0.000000000000D+00  5 21 -1 25 24 -2 2 0.21875817D+00 0.35635009D-02 0.12544750D+05 0.12544750D+05 0.12544750D+05 0.12567707D+01  1  2  5  3  5  1        2 0.463363895642D-03 0.100000000000D+01
  </mgrwgt>
  </event>
  <event>
  4     66 0.48098993E-03 0.65772089E+02 0.75467711E-02 0.12009364E+00
        2 -1    0    0  501    0 0.00000000E+00 0.00000000E+00 0.78133833E+03 0.78133839E+03 0.32000000E+00 0.0000E+00 0.9000E+01
       -1 -1    0    0    0  501 0.00000000E+00 0.00000000E+00 -.24628040E+02 0.24630119E+02 0.32000000E+00 0.0000E+00 0.9000E+01
       25  1    1    2    0    0 -.62830097E+02 -.65071111E+02 0.47267591E+03 0.49722167E+03 0.12500000E+03 0.0000E+00 0.9000E+01
       24  1    1    2    0    0 0.62830097E+02 0.65071111E+02 0.28403438E+03 0.30874685E+03 0.80419002E+02 0.0000E+00 0.9000E+01
#aMCatNLO 1  0  0  2  1 0.22943881D+02 0.00000000D+00  -5  5  0 0.00000000D+00 0.00000000D+00 0.00000000D+00 0.00000000D+00 0.00000000D+00
  <mgrwgt>
 0.3211688338D+00    9    2    0
 0.138721648798998D+03 0.000000000000000D+00 0.000000000000000D+00 0.138721648798998D+03
 0.138721648798998D+03 0.000000000000000D+00 0.000000000000000D+00 -.138721648798998D+03
 0.155225532880744D+03 -.628300968769983D+02 -.650711114763598D+02 0.169733743188867D+02
 0.122217764717251D+03 0.628300968769983D+02 0.650711114763598D+02 -.169733743188867D+02
 0.000000000000000D+00 -.000000000000000D+00 -.000000000000000D+00 -.000000000000000D+00
 0.147495321199865D+03 0.000000000000000D+00 0.000000000000000D+00 0.147495321199865D+03
 0.155051017942111D+03 0.000000000000000D+00 0.000000000000000D+00 -.155051017942111D+03
 0.148669295927544D+03 -.574666400862321D+02 -.537312701601410D+02 0.169733743188867D+02
 0.129721086575070D+03 0.672765797214762D+02 0.744722145035117D+02 -.169733743188867D+02
 0.241559566393617D+02 -.980993963524409D+01 -.207409443433707D+02 -.755569674224590D+01
0.293689129220D-03 0.000000000000D+00 0.000000000000D+00 0.248058182621D-02 0.000000000000D+00  5 2 -1 25 24 21 0 0.12020606D+00 0.37890942D-02 0.18951399D+05 0.18951399D+05 0.18951399D+05 0.12364093D+01  1  2  2  2  5  2       -1 0.312734127733D+00 0.100000000000D+01
-.163149008961D-04 0.000000000000D+00 -.112784358633D-05 0.248058182621D-02 0.000000000000D+00  5 2 -1 25 24 21 2 0.12020606D+00 0.37890942D-02 0.18951399D+05 0.18951399D+05 0.18951399D+05 0.12364093D+01  1  2  3  2  5  2       -1 -.265580604747D-01 0.100000000000D+01
0.203190413927D-04 0.000000000000D+00 0.000000000000D+00 0.248058182621D-02 0.000000000000D+00  5 2 -1 25 24 21 2 0.12020606D+00 0.37890942D-02 0.18951399D+05 0.18951399D+05 0.18951399D+05 0.12364093D+01  1  2 15  2  5  2       -1 0.330761635349D-01 0.100000000000D+01
0.366137768006D-03 0.000000000000D+00 0.000000000000D+00 0.248058182621D-02 0.000000000000D+00  5 2 -1 25 24 21 2 0.12020606D+00 0.43438218D-02 0.22387182D+05 0.22387182D+05 0.22387182D+05 0.12284711D+01  1  2 12  2  5  2       -1 0.483566579719D+00 0.100000000000D+01
-.342627511216D-03 0.000000000000D+00 0.000000000000D+00 0.248058182621D-02 0.000000000000D+00  5 2 -1 25 24 21 2 0.12020606D+00 0.37890942D-02 0.18951399D+05 0.18951399D+05 0.18951399D+05 0.12364093D+01  1  2  4  2  5  2       -1 -.557743024069D+00 0.100000000000D+01
-.939026242727D-03 0.000000000000D+00 -.224277137350D-03 0.248058182621D-02 0.000000000000D+00  5 2 -1 25 24 21 2 0.12020606D+00 0.45066093D-02 0.18951399D+05 0.18951399D+05 0.18951399D+05 0.12364093D+01  1  2  5  2  5  2       -1 -.118455068585D+01 0.100000000000D+01
0.966678312346D-03 0.000000000000D+00 0.220946450926D-03 0.248058182621D-02 0.000000000000D+00  5 2 -1 25 24 21 2 0.12020606D+00 0.37890942D-02 0.18951399D+05 0.18951399D+05 0.18951399D+05 0.12364093D+01  1  2  6  2  5  2       -1 0.157359834684D+01 0.100000000000D+01
0.773902130058D-05 0.000000000000D+00 0.000000000000D+00 0.248058182621D-02 0.000000000000D+00  5 2 21 25 24 1 2 0.12020606D+00 0.43438218D-02 0.22387182D+05 0.22387182D+05 0.22387182D+05 0.12284711D+01  1  2 12  4  5  2       -1 0.183379286251D+00 0.100000000000D+01
-.220368398088D-04 0.000000000000D+00 -.574454069422D-05 0.248058182621D-02 0.000000000000D+00  5 2 21 25 24 1 2 0.12020606D+00 0.45066093D-02 0.18951399D+05 0.18951399D+05 0.18951399D+05 0.12364093D+01  1  2  5  4  5  2       -1 -.496333899923D+00 0.100000000000D+01
  </mgrwgt>
  </event>
  <event>
  4     66 0.48098993E-03 0.16753052E+03 0.75467711E-02 0.10442722E+00
        4 -1    0    0  501    0 0.00000000E+00 0.00000000E+00 0.48709479E+03 0.48709725E+03 0.15500000E+01 0.0000E+00 0.9000E+01
       -3 -1    0    0    0  501 0.00000000E+00 0.00000000E+00 -.21072404E+03 0.21072463E+03 0.50000000E+00 0.0000E+00 0.9000E+01
       25  1    1    2    0    0 -.18277036E+03 -.24022849E+03 0.11610432E+03 0.34672748E+03 0.12500000E+03 0.0000E+00 0.9000E+01
       24  1    1    2    0    0 0.18277036E+03 0.24022849E+03 0.16026643E+03 0.35109440E+03 0.80419002E+02 0.0000E+00 0.9000E+01
#aMCatNLO 1  0  0  2  1 0.14240012D+03 0.00000000D+00  -5  5  0 0.00000000D+00 0.00000000D+00 0.00000000D+00 0.00000000D+00 0.00000000D+00
  <mgrwgt>
 0.3169993663D-01    9    2    0
 0.320380472096593D+03 0.000000000000000D+00 0.000000000000000D+00 0.320380472096593D+03
 0.320380472096593D+03 0.000000000000000D+00 0.000000000000000D+00 -.320380472096593D+03
 0.327526494438170D+03 -.182770364541737D+03 -.240228489449953D+03 -.231056543043305D+02
 0.313234449755015D+03 0.182770364541737D+03 0.240228489449953D+03 0.231056543043305D+02
 0.000000000000000D+00 0.000000000000000D+00 -.000000000000000D+00 -.000000000000000D+00
 0.355175308833760D+03 0.000000000000000D+00 0.000000000000000D+00 0.355175308833760D+03
 0.516103178384342D+03 0.000000000000000D+00 0.000000000000000D+00 -.516103178384342D+03
 0.343340745316242D+03 -.246183004773581D+03 -.202775551519734D+03 -.231056543043305D+02
 0.313052719846864D+03 0.123571583301022D+03 0.275192627061111D+03 0.231056543043305D+02
 0.214885022054996D+03 0.122611421472559D+03 -.724170755413767D+02 -.160927869550582D+03
0.863516346289D-02 0.000000000000D+00 0.000000000000D+00 0.198471469826D-02 0.000000000000D+00  5 4 -3 25 24 21 0 0.74937895D-01 0.32419318D-01 0.10210951D+06 0.10210951D+06 0.10210951D+06 0.11627397D+01  1  2  2  2  5  2       -3 0.284302894925D-01 0.100000000000D+01
-.479727334066D-03 0.000000000000D+00 -.331613013882D-04 0.198471469826D-02 0.000000000000D+00  5 4 -3 25 24 21 2 0.74937895D-01 0.32419318D-01 0.10210951D+06 0.10210951D+06 0.10210951D+06 0.11627397D+01  1  2  3  2  5  2       -3 -.213535560905D-02 0.100000000000D+01
0.593065927424D-03 0.000000000000D+00 0.000000000000D+00 0.198471469826D-02 0.000000000000D+00  5 4 -3 25 24 21 2 0.74937895D-01 0.32419318D-01 0.10210951D+06 0.10210951D+06 0.10210951D+06 0.11627397D+01  1  2 15  2  5  2       -3 0.263984677280D-02 0.100000000000D+01
0.574544998695D-02 0.000000000000D+00 0.000000000000D+00 0.198471469826D-02 0.000000000000D+00  5 4 -3 25 24 21 2 0.74937895D-01 0.53092155D-01 0.15886657D+06 0.15886657D+06 0.15886657D+06 0.11455441D+01  1  2 12  2  5  2       -3 0.948294612706D-02 0.100000000000D+01
-.750431164623D-02 0.000000000000D+00 0.000000000000D+00 0.198471469826D-02 0.000000000000D+00  5 4 -3 25 24 21 2 0.74937895D-01 0.32419318D-01 0.10210951D+06 0.10210951D+06 0.10210951D+06 0.11627397D+01  1  2  4  2  5  2       -3 -.334030871871D-01 0.100000000000D+01
-.871417393484D-02 0.000000000000D+00 -.272344708488D-02 0.198471469826D-02 0.000000000000D+00  5 4 -3 25 24 21 2 0.74937895D-01 0.56665985D-01 0.10210951D+06 0.10210951D+06 0.10210951D+06 0.11627397D+01  1  2  5  2  5  2       -3 -.128166248028D-01 0.100000000000D+01
0.914704757103D-02 0.000000000000D+00 0.234777847580D-02 0.198471469826D-02 0.000000000000D+00  5 4 -3 25 24 21 2 0.74937895D-01 0.32419318D-01 0.10210951D+06 0.10210951D+06 0.10210951D+06 0.11627397D+01  1  2  6  2  5  2       -3 0.407152103914D-01 0.100000000000D+01
0.320496542037D-03 0.000000000000D+00 0.000000000000D+00 0.198471469826D-02 0.000000000000D+00  5 4 21 25 24 3 2 0.74937895D-01 0.53092155D-01 0.15886657D+06 0.15886657D+06 0.15886657D+06 0.11455441D+01  1  2 12  4  5  2       -3 0.950246767855D-02 0.100000000000D+01
-.399667173555D-03 0.000000000000D+00 -.168041903386D-03 0.198471469826D-02 0.000000000000D+00  5 4 21 25 24 3 2 0.74937895D-01 0.56665985D-01 0.10210951D+06 0.10210951D+06 0.10210951D+06 0.11627397D+01  1  2  5  4  5  2       -3 -.107157562375D-01 0.100000000000D+01
  </mgrwgt>
  </event>
  <event>
  4     66 0.48098993E-03 0.78339460E+02 0.75467711E-02 0.12205215E+00
        2 -1    0    0  501    0 0.00000000E+00 0.00000000E+00 0.39509594E+03 0.39509607E+03 0.32000000E+00 0.0000E+00 0.9000E+01
       -1 -1    0    0    0  501 0.00000000E+00 0.00000000E+00 -.38785725E+02 0.38787045E+02 0.32000000E+00 0.0000E+00 0.9000E+01
       25  1    1    2    0    0 0.33127937E+02 -.52149271E+02 0.15510105E+03 0.20856256E+03 0.12500000E+03 0.0000E+00 0.9000E+01
       24  1    1    2    0    0 -.33127937E+02 0.52149271E+02 0.20120917E+03 0.22532055E+03 0.80419002E+02 0.0000E+00 0.9000E+01
#aMCatNLO 1  0  0  1  2 0.27311838D+02 0.00000000D+00  -5  5  0 0.00000000D+00 0.00000000D+00 0.00000000D+00 0.00000000D+00 0.00000000D+00
  <mgrwgt>
 0.4431221233D+00    9    2    0
 0.123791747302785D+03 0.000000000000000D+00 0.000000000000000D+00 0.123791747302785D+03
 0.123791747302785D+03 0.000000000000000D+00 0.000000000000000D+00 -.123791747302785D+03
 0.142286082032608D+03 0.331279370359184D+02 -.521492705361232D+02 -.283429446332680D+02
 0.105297412572962D+03 -.331279370359184D+02 0.521492705361232D+02 0.283429446332680D+02
 0.000000000000000D+00 -.000000000000000D+00 0.000000000000000D+00 0.000000000000000D+00
 0.141983631843209D+03 0.000000000000000D+00 0.000000000000000D+00 0.141983631843209D+03
 0.135235004033134D+03 0.000000000000000D+00 0.000000000000000D+00 -.135235004033134D+03
 0.149280477961263D+03 0.467717898350863D+02 -.605701103307657D+02 -.283429446332680D+02
 0.998048955100394D+02 -.235301776072895D+02 0.462256362280096D+02 0.283429446332680D+02
 0.281332624050399D+02 -.232416122277968D+02 0.143444741027561D+02 0.674862781007477D+01
0.212017826408D-03 0.000000000000D+00 0.000000000000D+00 0.259125552027D-02 0.000000000000D+00  5 2 -1 25 24 21 0 0.60784102D-01 0.59671461D-02 0.14501669D+05 0.14501669D+05 0.14501669D+05 0.12494988D+01  1  2  2  1  5  1        2 0.246860453637D+00 0.100000000000D+01
-.117678657384D-04 0.000000000000D+00 -.814204278982D-06 0.259125552027D-02 0.000000000000D+00  5 2 -1 25 24 21 2 0.60784102D-01 0.59671461D-02 0.14501669D+05 0.14501669D+05 0.14501669D+05 0.12494988D+01  1  2  3  1  5  1        2 -.213918586963D-01 0.100000000000D+01
0.146779677471D-04 0.000000000000D+00 0.000000000000D+00 0.259125552027D-02 0.000000000000D+00  5 2 -1 25 24 21 2 0.60784102D-01 0.59671461D-02 0.14501669D+05 0.14501669D+05 0.14501669D+05 0.12494988D+01  1  2 15  1  5  1        2 0.266818995880D-01 0.100000000000D+01
0.239591352418D-03 0.000000000000D+00 0.000000000000D+00 0.259125552027D-02 0.000000000000D+00  5 2 -1 25 24 21 2 0.72186584D-01 0.59671461D-02 0.18167376D+05 0.18167376D+05 0.18167376D+05 0.12384476D+01  1  2 12  1  5  1        2 0.358649106435D+00 0.100000000000D+01
-.222744115014D-03 0.000000000000D+00 0.000000000000D+00 0.259125552027D-02 0.000000000000D+00  5 2 -1 25 24 21 2 0.60784102D-01 0.59671461D-02 0.14501669D+05 0.14501669D+05 0.14501669D+05 0.12494988D+01  1  2  4  1  5  1        2 -.404908650365D+00 0.100000000000D+01
-.593872882155D-03 0.000000000000D+00 -.164562108189D-03 0.259125552027D-02 0.000000000000D+00  5 2 -1 25 24 21 2 0.75108781D-01 0.59671461D-02 0.14501669D+05 0.14501669D+05 0.14501669D+05 0.12494988D+01  1  2  5  1  5  1        2 -.859989200484D+00 0.100000000000D+01
0.618415065549D-03 0.000000000000D+00 0.160945202682D-03 0.259125552027D-02 0.000000000000D+00  5 2 -1 25 24 21 2 0.60784102D-01 0.59671461D-02 0.14501669D+05 0.14501669D+05 0.14501669D+05 0.12494988D+01  1  2  6  1  5  1        2 0.112416711679D+01 0.100000000000D+01
0.609511217248D-05 0.000000000000D+00 0.000000000000D+00 0.259125552027D-02 0.000000000000D+00  5 21 -1 25 24 -2 2 0.72186584D-01 0.59671461D-02 0.18167376D+05 0.18167376D+05 0.18167376D+05 0.12384476D+01  1  2 12  3  5  1        2 0.193247096568D-01 0.100000000000D+01
-.156550536170D-04 0.000000000000D+00 -.491639367655D-05 0.259125552027D-02 0.000000000000D+00  5 21 -1 25 24 -2 2 0.75108781D-01 0.59671461D-02 0.14501669D+05 0.14501669D+05 0.14501669D+05 0.12494988D+01  1  2  5  3  5  1        2 -.462714532611D-01 0.100000000000D+01
  </mgrwgt>
  </event>
  <event>
  5     66 0.48098993E-03 0.16948362E+03 0.75467711E-02 0.11518214E+00
        2 -1    0    0  501    0 0.00000000E+00 0.00000000E+00 0.48188165E+03 0.48188176E+03 0.32000000E+00 0.0000E+00 0.9000E+01
       21 -1    0    0  502  501 0.00000000E+00 0.00000000E+00 -.12308525E+03 0.12308753E+03 0.75000000E+00 0.0000E+00 0.9000E+01
       25  1    1    2    0    0 -.61321000E+02 -.11451116E+03 0.24539241E+03 0.30449221E+03 0.12500000E+03 0.0000E+00 0.9000E+01
       24  1    1    2    0    0 0.10798574E+03 0.91594939E+02 -.13435816E+02 0.16339611E+03 0.80419002E+02 0.0000E+00 0.9000E+01
        1  1    1    2  502    0 -.46664737E+02 0.22916222E+02 0.12683982E+03 0.13708097E+03 0.32000000E+00 0.0000E+00 0.9000E+01
#aMCatNLO 2  0  0  2  2 0.51987988D+02 0.00000000D+00  -5  5  0 0.00000000D+00 0.00000000D+00 0.00000000D+00 0.00000000D+00 0.00000000D+00
  <mgrwgt>
 0.8279848784D-01    1    2    0
 0.201502399815788D+03 0.000000000000000D+00 0.000000000000000D+00 0.201502399815788D+03
 0.201502399815788D+03 0.000000000000000D+00 0.000000000000000D+00 -.201502399815788D+03
 0.212864279443527D+03 -.857327419316831D+02 -.102522989173151D+03 0.108743437111806D+03
 0.190140520188050D+03 0.857327419316831D+02 0.102522989173151D+03 -.108743437111806D+03
 0.000000000000000D+00 -.000000000000000D+00 0.000000000000000D+00 0.000000000000000D+00
 0.279790617260183D+03 0.000000000000000D+00 0.000000000000000D+00 0.279790617260183D+03
 0.211990964111374D+03 0.000000000000000D+00 0.000000000000000D+00 -.211990964111374D+03
 0.210530772616256D+03 -.613210004590558D+02 -.114511161055195D+03 0.108743437111806D+03
 0.195813440418980D+03 0.107985737711485D+03 0.915949388905518D+02 -.108743437111806D+03
 0.854373683363221D+02 -.466647372524294D+02 0.229162221646435D+02 0.677996531488089D+02
0.275821114441D-04 0.000000000000D+00 0.000000000000D+00 0.156034876637D-02 0.508996885576D-07  5 2 21 25 24 1 2 0.74135722D-01 0.18936350D-01 0.39026590D+05 0.39026590D+05 0.39026590D+05 0.12030883D+01  1  2  1  4  5  2       -1 0.827984878431D-01 0.100000000000D+01
  </mgrwgt>
  </event>
  <event>
  4     66 0.48098993E-03 0.10934556E+03 0.75467711E-02 0.12297163E+00
        2 -1    0    0  501    0 0.00000000E+00 0.00000000E+00 0.53273539E+02 0.53274500E+02 0.32000000E+00 0.0000E+00 0.9000E+01
       -1 -1    0    0    0  501 0.00000000E+00 0.00000000E+00 -.23077873E+03 0.23077896E+03 0.32000000E+00 0.0000E+00 0.9000E+01
       25  1    1    2    0    0 -.28698161E+02 -.22916095E+02 -.12840903E+03 0.18292788E+03 0.12500000E+03 0.0000E+00 0.9000E+01
       24  1    1    2    0    0 0.28698161E+02 0.22916095E+02 -.49096165E+02 0.10112557E+03 0.80419002E+02 0.0000E+00 0.9000E+01
#aMCatNLO 1  0  0  2  2 0.35405081D+02 0.00000000D+00  -5  5  0 0.00000000D+00 0.00000000D+00 0.00000000D+00 0.00000000D+00 0.00000000D+00
  <mgrwgt>
 0.2454987808D+00    4    2    0
 0.110880872551128D+03 0.000000000000000D+00 0.000000000000000D+00 0.110880872551128D+03
 0.110880872551128D+03 0.000000000000000D+00 0.000000000000000D+00 -.110880872551128D+03
 0.131528671930157D+03 -.286981610265553D+02 -.229160952888719D+02 -.180571224206980D+02
 0.902330731720990D+02 0.286981610265553D+02 0.229160952888719D+02 0.180571224206980D+02
 0.000000000000000D+00 -.000000000000000D+00 0.000000000000000D+00 0.000000000000000D+00
 0.140260156792150D+03 0.000000000000000D+00 0.000000000000000D+00 0.140260156792150D+03
 0.123487245922835D+03 0.000000000000000D+00 0.000000000000000D+00 -.123487245922835D+03
 0.129864061114957D+03 -.884629277681007D+01 -.289025570367081D+02 -.180571224206980D+02
 0.947061759210455D+02 0.427436532804286D+02 0.186805845022021D+02 0.180571224206980D+02
 0.391771656789826D+02 -.338973605036186D+02 0.102219725345060D+02 0.167729108693149D+02
0.553330872228D-03 0.000000000000D+00 0.000000000000D+00 0.292126966685D-02 0.000000000000D+00  5 2 -1 25 24 21 0 0.81960201D-02 0.35504512D-01 0.11956452D+05 0.11956452D+05 0.11956452D+05 0.12592092D+01  1  2  2  2  5  2       -1 0.370246344254D+00 0.100000000000D+01
-.307333375792D-04 0.000000000000D+00 -.212493624472D-05 0.292126966685D-02 0.000000000000D+00  5 2 -1 25 24 21 2 0.81960201D-02 0.35504512D-01 0.11956452D+05 0.11956452D+05 0.11956452D+05 0.12592092D+01  1  2  3  2  5  2       -1 -.326070400695D-01 0.100000000000D+01
0.383073106606D-04 0.000000000000D+00 0.000000000000D+00 0.292126966685D-02 0.000000000000D+00  5 2 -1 25 24 21 2 0.81960201D-02 0.35504512D-01 0.11956452D+05 0.11956452D+05 0.11956452D+05 0.12592092D+01  1  2 15  2  5  2       -1 0.406427714025D-01 0.100000000000D+01
-.125153151434D-03 0.000000000000D+00 0.000000000000D+00 0.292126966685D-02 0.000000000000D+00  5 2 -1 25 24 21 2 0.81960201D-02 0.35504512D-01 0.11956452D+05 0.11956452D+05 0.11956452D+05 0.12592092D+01  1  2  4  2  5  2       -1 -.132783294789D+00 0.100000000000D+01
  </mgrwgt>
  </event>
  <event>
  4     66 0.48098993E-03 0.53796630E+02 0.75467711E-02 0.12127256E+00
        2 -1    0    0  501    0 0.00000000E+00 0.00000000E+00 0.39789485E+03 0.39789498E+03 0.32000000E+00 0.0000E+00 0.9000E+01
       -1 -1    0    0    0  501 0.00000000E+00 0.00000000E+00 -.44896113E+02 0.44897254E+02 0.32000000E+00 0.0000E+00 0.9000E+01
       25  1    1    2    0    0 0.44510071E+02 0.17610878E+02 0.84115518E+02 0.15808767E+03 0.12500000E+03 0.0000E+00 0.9000E+01
       24  1    1    2    0    0 -.44510071E+02 -.17610878E+02 0.26888322E+03 0.28470457E+03 0.80419002E+02 0.0000E+00 0.9000E+01
#aMCatNLO 1  0  0  1  2 0.48016230D+02 0.00000000D+00  -5  5  0 0.00000000D+00 0.00000000D+00 0.00000000D+00 0.00000000D+00 0.00000000D+00
  <mgrwgt>
 0.4442971286D+00    9    2    0
 0.133657073416029D+03 0.000000000000000D+00 0.000000000000000D+00 0.133657073416029D+03
 0.133657073416029D+03 0.000000000000000D+00 0.000000000000000D+00 -.133657073416029D+03
 0.150786327804842D+03 0.445100712775690D+02 0.176108776249511D+02 -.694278560594660D+02
 0.116527819027217D+03 -.445100712775690D+02 -.176108776249511D+02 0.694278560594660D+02
 0.000000000000000D+00 0.000000000000000D+00 -.000000000000000D+00 0.000000000000000D+00
 0.160432993686861D+03 0.000000000000000D+00 0.000000000000000D+00 0.160432993686861D+03
 0.159191642628479D+03 0.000000000000000D+00 0.000000000000000D+00 -.159191642628479D+03
 0.148899317000468D+03 0.235852570352117D+02 0.341981732958802D+02 -.694278560594660D+02
 0.122693045661662D+03 -.612130807252281D+02 -.437024604305612D+01 0.694278560594660D+02
 0.480322736532102D+02 0.376278236900164D+02 -.298279272528241D+02 0.124135105838261D+01
0.319139207039D-03 0.000000000000D+00 0.000000000000D+00 0.195430251054D-02 0.000000000000D+00  5 2 -1 25 24 21 0 0.61214690D-01 0.69071920D-02 0.12932083D+05 0.12932083D+05 0.12932083D+05 0.12552344D+01  1  2  2  1  5  1        2 0.295402207749D+00 0.100000000000D+01
-.171673927135D-04 0.000000000000D+00 -.122557858631D-05 0.195430251054D-02 0.000000000000D+00  5 2 -1 25 24 21 2 0.61214690D-01 0.69071920D-02 0.12932083D+05 0.12932083D+05 0.12932083D+05 0.12552344D+01  1  2  3  1  5  1        2 -.250373041757D-01 0.100000000000D+01
0.218317216970D-04 0.000000000000D+00 0.000000000000D+00 0.195430251054D-02 0.000000000000D+00  5 2 -1 25 24 21 2 0.61214690D-01 0.69071920D-02 0.12932083D+05 0.12932083D+05 0.12932083D+05 0.12552344D+01  1  2 15  1  5  1        2 0.318398644412D-01 0.100000000000D+01
0.155240747659D-03 0.000000000000D+00 0.000000000000D+00 0.195430251054D-02 0.000000000000D+00  5 2 -1 25 24 21 2 0.78263097D-01 0.69071920D-02 0.19726012D+05 0.19726012D+05 0.19726012D+05 0.12344861D+01  1  2 12  1  5  1        2 0.170278101566D+00 0.100000000000D+01
-.168503502628D-03 0.000000000000D+00 0.000000000000D+00 0.195430251054D-02 0.000000000000D+00  5 2 -1 25 24 21 2 0.61214690D-01 0.69071920D-02 0.12932083D+05 0.12932083D+05 0.12932083D+05 0.12552344D+01  1  2  4  1  5  1        2 -.245749224729D+00 0.100000000000D+01
-.368996356626D-03 0.000000000000D+00 -.172176758884D-03 0.195430251054D-02 0.000000000000D+00  5 2 -1 25 24 21 2 0.85404786D-01 0.69071920D-02 0.12932083D+05 0.12932083D+05 0.12932083D+05 0.12552344D+01  1  2  5  1  5  1        2 -.375280887467D+00 0.100000000000D+01
0.412380408280D-03 0.000000000000D+00 0.163051760087D-03 0.195430251054D-02 0.000000000000D+00  5 2 -1 25 24 21 2 0.61214690D-01 0.69071920D-02 0.12932083D+05 0.12932083D+05 0.12932083D+05 0.12552344D+01  1  2  6  1  5  1        2 0.601424682858D+00 0.100000000000D+01
0.518677363227D-05 0.000000000000D+00 0.000000000000D+00 0.195430251054D-02 0.000000000000D+00  5 21 -1 25 24 -2 2 0.78263097D-01 0.69071920D-02 0.19726012D+05 0.19726012D+05 0.19726012D+05 0.12344861D+01  1  2 12  3  5  1        2 0.109808767084D-01 0.100000000000D+01
-.108537053078D-04 0.000000000000D+00 -.717583975042D-05 0.195430251054D-02 0.000000000000D+00  5 21 -1 25 24 -2 2 0.85404786D-01 0.69071920D-02 0.12932083D+05 0.12932083D+05 0.12932083D+05 0.12552344D+01  1  2  5  3  5  1        2 -.195611883282D-01 0.100000000000D+01
  </mgrwgt>
  </event>
  <event>
  4     66 0.48098993E-03 0.75510074E+02 0.75467711E-02 0.11212077E+00
        2 -1    0    0  501    0 0.00000000E+00 0.00000000E+00 0.13935446E+04 0.13935447E+04 0.32000000E+00 0.0000E+00 0.9000E+01
       -1 -1    0    0    0  501 0.00000000E+00 0.00000000E+00 -.25433547E+02 0.25435560E+02 0.32000000E+00 0.0000E+00 0.9000E+01
       25  1    1    2    0    0 -.22513588E+02 0.12972715E+03 0.40824682E+03 0.44679577E+03 0.12500000E+03 0.0000E+00 0.9000E+01
       24  1    1    2    0    0 0.22513588E+02 -.12972715E+03 0.95986426E+03 0.97218445E+03 0.80419002E+02 0.0000E+00 0.9000E+01
#aMCatNLO 1  0  0  2  1 0.11958818D+03 0.00000000D+00  -5  5  0 0.00000000D+00 0.00000000D+00 0.00000000D+00 0.00000000D+00 0.00000000D+00
  <mgrwgt>
 0.3224293507D+00    9    2    0
 0.188266399936703D+03 0.000000000000000D+00 0.000000000000000D+00 0.188266399936703D+03
 0.188266399936703D+03 0.000000000000000D+00 0.000000000000000D+00 -.188266399936703D+03
 0.200427072325281D+03 -.225135883031632D+02 0.129727152081921D+03 -.849118111649567D+02
 0.176105727548124D+03 0.225135883031632D+02 -.129727152081921D+03 0.849118111649567D+02
 0.000000000000000D+00 0.000000000000000D+00 0.000000000000000D+00 -.000000000000000D+00
 0.232922811733117D+03 0.000000000000000D+00 0.000000000000000D+00 0.232922811733117D+03
 0.298562953390256D+03 0.000000000000000D+00 0.000000000000000D+00 -.298562953390256D+03
 0.177535515550918D+03 -.505435274340234D+02 0.782891783143941D+02 -.849118111649567D+02
 0.217531923005063D+03 -.667882316438327D+01 -.183298388475556D+03 0.849118111649567D+02
 0.136418326567391D+03 0.572223505984067D+02 0.105009210161162D+03 -.656401416571393D+02
0.745743288787D-03 0.000000000000D+00 0.000000000000D+00 0.177838792431D-02 0.000000000000D+00  5 2 -1 25 24 21 0 0.21439164D+00 0.39130111D-02 0.28196208D+05 0.28196208D+05 0.28196208D+05 0.12177351D+01  1  2  2  2  5  2       -1 0.333131630299D+00 0.100000000000D+01
-.407710867693D-04 0.000000000000D+00 -.286385058766D-05 0.177838792431D-02 0.000000000000D+00  5 2 -1 25 24 21 2 0.21439164D+00 0.39130111D-02 0.28196208D+05 0.28196208D+05 0.28196208D+05 0.12177351D+01  1  2  3  2  5  2       -1 -.270075023676D-01 0.100000000000D+01
0.514275872740D-04 0.000000000000D+00 0.000000000000D+00 0.177838792431D-02 0.000000000000D+00  5 2 -1 25 24 21 2 0.21439164D+00 0.39130111D-02 0.28196208D+05 0.28196208D+05 0.28196208D+05 0.12177351D+01  1  2 15  2  5  2       -1 0.340665602789D-01 0.100000000000D+01
0.622241205038D-04 0.000000000000D+00 0.000000000000D+00 0.177838792431D-02 0.000000000000D+00  5 2 -1 25 24 21 2 0.21439164D+00 0.64491940D-02 0.56590754D+05 0.56590754D+05 0.56590754D+05 0.11869925D+01  1  2 12  2  5  2       -1 0.186162026589D-01 0.100000000000D+01
-.321636720719D-03 0.000000000000D+00 0.000000000000D+00 0.177838792431D-02 0.000000000000D+00  5 2 -1 25 24 21 2 0.21439164D+00 0.39130111D-02 0.28196208D+05 0.28196208D+05 0.28196208D+05 0.12177351D+01  1  2  4  2  5  2       -1 -.213057958094D+00 0.100000000000D+01
-.266157765311D-03 0.000000000000D+00 -.223446437375D-03 0.177838792431D-02 0.000000000000D+00  5 2 -1 25 24 21 2 0.21439164D+00 0.78118022D-02 0.28196208D+05 0.28196208D+05 0.28196208D+05 0.12177351D+01  1  2  5  2  5  2       -1 -.627821783889D-01 0.100000000000D+01
0.372507440278D-03 0.000000000000D+00 0.178952125750D-03 0.177838792431D-02 0.000000000000D+00  5 2 -1 25 24 21 2 0.21439164D+00 0.39130111D-02 0.28196208D+05 0.28196208D+05 0.28196208D+05 0.12177351D+01  1  2  6  2  5  2       -1 0.246755639166D+00 0.100000000000D+01
0.350639823907D-05 0.000000000000D+00 0.000000000000D+00 0.177838792431D-02 0.000000000000D+00  5 2 21 25 24 1 2 0.21439164D+00 0.64491940D-02 0.56590754D+05 0.56590754D+05 0.56590754D+05 0.11869925D+01  1  2 12  4  5  2       -1 0.170537017280D-01 0.100000000000D+01
-.652389530160D-05 0.000000000000D+00 -.167158502315D-04 0.177838792431D-02 0.000000000000D+00  5 2 21 25 24 1 2 0.21439164D+00 0.78118022D-02 0.28196208D+05 0.28196208D+05 0.28196208D+05 0.12177351D+01  1  2  5  4  5  2       -1 -.243467446249D-01 0.100000000000D+01
  </mgrwgt>
  </event>
  <event>
  5     66 0.48098993E-03 0.13335251E+03 0.75467711E-02 0.11676438E+00
        2 -1    0    0  501    0 0.00000000E+00 0.00000000E+00 0.25983744E+04 0.25983744E+04 0.32000000E+00 0.0000E+00 0.9000E+01
       21 -1    0    0  502  501 0.00000000E+00 0.00000000E+00 -.15421465E+02 0.15439692E+02 0.75000000E+00 0.0000E+00 0.9000E+01
       25  1    1    2    0    0 0.41077052E+02 0.11826067E+03 0.18213927E+04 0.18299643E+04 0.12500000E+03 0.0000E+00 0.9000E+01
       24  1    1    2    0    0 0.16177605E+02 -.59210390E+02 0.47871934E+03 0.48929235E+03 0.80419002E+02 0.0000E+00 0.9000E+01
        1  1    1    2  502    0 -.57254657E+02 -.59050279E+02 0.28284088E+03 0.29455746E+03 0.32000000E+00 0.0000E+00 0.9000E+01
#aMCatNLO 2  0  0  2  1 0.82249809D+02 0.00000000D+00  -5  5  0 0.00000000D+00 0.00000000D+00 0.00000000D+00 0.00000000D+00 0.00000000D+00
  <mgrwgt>
 0.1265662218D+00    2    2    0
 0.142890623274578D+03 0.000000000000000D+00 0.000000000000000D+00 0.142890623274578D+03
 0.142890623274578D+03 0.000000000000000D+00 0.000000000000000D+00 -.142890623274578D+03
 0.158912990305674D+03 0.739970206369435D+01 0.835271295138415D+02 0.509588219294550D+02
 0.126868256243482D+03 -.739970206369435D+01 -.835271295138415D+02 -.509588219294550D+02
 0.000000000000000D+00 -.000000000000000D+00 -.000000000000000D+00 -.000000000000000D+00
 0.167276329048355D+03 0.000000000000000D+00 0.000000000000000D+00 0.167276329048355D+03
 0.239690109780374D+03 0.000000000000000D+00 0.000000000000000D+00 -.239690109780374D+03
 0.184105164237694D+03 0.410770516386175D+02 0.118260668843148D+03 0.509588219294550D+02
 0.113276664432075D+03 0.161776052452995D+02 -.592103901910452D+02 -.509588219294550D+02
 0.109584610158959D+03 -.572546568839170D+02 -.590502786521031D+02 -.724137807320190D+02
-.721477002541D-05 0.000000000000D+00 0.000000000000D+00 0.218745095598D-02 0.000000000000D+00  5 2 21 25 24 1 2 0.34147473D+00 0.24264791D-02 0.32459275D+05 0.32459275D+05 0.32459275D+05 0.12113235D+01  1  2 13  4  5  2       -1 -.705012292662D-01 0.100000000000D+01
0.310180516930D-04 0.000000000000D+00 0.000000000000D+00 0.218745095598D-02 0.214739939568D-06  5 2 21 25 24 1 2 0.39975079D+00 0.23739336D-02 0.32459275D+05 0.32459275D+05 0.32459275D+05 0.12113235D+01  1  2  1  4  5  2       -1 0.197067451100D+00 0.100000000000D+01
  </mgrwgt>
  </event>
  <event>
  5     66 0.48098993E-03 0.11332732E+03 0.75467711E-02 0.12155000E+00
        2 -1    0    0  501    0 0.00000000E+00 0.00000000E+00 0.15806744E+04 0.15806745E+04 0.32000000E+00 0.0000E+00 0.9000E+01
       21 -1    0    0  502  501 0.00000000E+00 0.00000000E+00 -.22638898E+02 0.22651318E+02 0.75000000E+00 0.0000E+00 0.9000E+01
       25  1    1    2    0    0 -.24903787E+02 -.62558720E+02 0.13317182E+04 0.13392655E+04 0.12500000E+03 0.0000E+00 0.9000E+01
       24  1    1    2    0    0 -.12015938E+02 0.33975629E+02 0.13044851E+03 0.15742540E+03 0.80419002E+02 0.0000E+00 0.9000E+01
        1  1    1    2  502    0 0.36919725E+02 0.28583091E+02 0.95868852E+02 0.10663488E+03 0.32000000E+00 0.0000E+00 0.9000E+01
#aMCatNLO 2  0  0  2  1 0.46691104D+02 0.00000000D+00  -5  5  0 0.00000000D+00 0.00000000D+00 0.00000000D+00 0.00000000D+00 0.00000000D+00
  <mgrwgt>
 0.9268783330D-01    2    2    0
 0.158091889830623D+03 0.000000000000000D+00 0.000000000000000D+00 0.158091889830623D+03
 0.158091889830623D+03 0.000000000000000D+00 0.000000000000000D+00 -.158091889830623D+03
 0.172573632150613D+03 -.447720148133379D+01 -.467445458984022D+02 0.109323193373148D+03
 0.143610147510632D+03 0.447720148133379D+01 0.467445458984022D+02 -.109323193373148D+03
 0.000000000000000D+00 0.000000000000000D+00 0.000000000000000D+00 -.000000000000000D+00
 0.170743035700921D+03 0.000000000000000D+00 0.000000000000000D+00 0.170743035700921D+03
 0.209639825544393D+03 0.000000000000000D+00 0.000000000000000D+00 -.209639825544393D+03
 0.179193617752104D+03 -.249037870403054D+02 -.625587198145518D+02 0.109323193373148D+03
 0.140419025406790D+03 -.120159376708931D+02 0.339756291245455D+02 -.109323193373148D+03
 0.607702180864198D+02 0.369197247111986D+02 0.285830906900064D+02 -.388967898434718D+02
-.118541636291D-04 0.000000000000D+00 0.000000000000D+00 0.131335428017D-02 0.000000000000D+00  5 2 21 25 24 1 2 0.22516265D+00 0.35630449D-02 0.19154193D+05 0.19154193D+05 0.19154193D+05 0.12358974D+01  1  2 13  4  5  2       -1 -.158648593794D+00 0.100000000000D+01
0.208184640425D-04 0.000000000000D+00 0.000000000000D+00 0.131335428017D-02 0.233288844467D-06  5 2 21 25 24 1 2 0.24318106D+00 0.34838570D-02 0.19154193D+05 0.19154193D+05 0.19154193D+05 0.12358974D+01  1  2  1  4  5  2       -1 0.251336427091D+00 0.100000000000D+01
  </mgrwgt>
  </event>
  <event>
  4     66 0.48098993E-03 0.16427987E+03 0.75467711E-02 0.10997541E+00
        2 -1    0    0  501    0 0.00000000E+00 0.00000000E+00 0.19159784E+04 0.19159784E+04 0.32000000E+00 0.0000E+00 0.9000E+01
       -1 -1    0    0    0  501 0.00000000E+00 0.00000000E+00 -.16898932E+02 0.16901962E+02 0.32000000E+00 0.0000E+00 0.9000E+01
       25  1    1    2    0    0 0.10490212E+03 0.71634717E+02 0.62344995E+03 0.64842180E+03 0.12500000E+03 0.0000E+00 0.9000E+01
       24  1    1    2    0    0 -.10490212E+03 -.71634717E+02 0.12756295E+04 0.12844586E+04 0.80419002E+02 0.0000E+00 0.9000E+01
#aMCatNLO 1  0  0  2  1 0.17421730D+03 0.00000000D+00  -5  5  0 0.00000000D+00 0.00000000D+00 0.00000000D+00 0.00000000D+00 0.00000000D+00
  <mgrwgt>
 0.4739193069D+00    3    2    0
 0.179947053983735D+03 0.000000000000000D+00 0.000000000000000D+00 0.179947053983735D+03
 0.179947053983735D+03 0.000000000000000D+00 0.000000000000000D+00 -.179947053983735D+03
 0.192669940859195D+03 0.104902120924607D+03 0.716347174079548D+02 -.732169269915599D+02
 0.167224167108275D+03 -.104902120924607D+03 -.716347174079548D+02 0.732169269915599D+02
 0.000000000000000D+00 0.000000000000000D+00 -.000000000000000D+00 0.000000000000000D+00
 0.378797832815349D+03 0.000000000000000D+00 0.000000000000000D+00 0.378797832815349D+03
 0.242342186719853D+03 0.000000000000000D+00 0.000000000000000D+00 -.242342186719853D+03
 0.167340604070720D+03 0.228351141320607D+02 0.805960106658003D+02 -.732169269915599D+02
 0.232503661187093D+03 -.196022969638280D+03 -.616847913762774D+02 0.732169269915599D+02
 0.221295754277389D+03 0.173187855506219D+03 -.189112192895229D+02 0.136455646095496D+03
0.106745216153D-02 0.000000000000D+00 0.000000000000D+00 0.188647712414D-02 0.000000000000D+00  5 2 -1 25 24 21 0 0.29476614D+00 0.26000708D-02 0.26987877D+05 0.26987877D+05 0.26987877D+05 0.12197511D+01  1  2  2  2  5  2       -1 0.464239054383D+00 0.100000000000D+01
-.587046105599D-04 0.000000000000D+00 -.409929736687D-05 0.188647712414D-02 0.000000000000D+00  5 2 -1 25 24 21 2 0.29476614D+00 0.26000708D-02 0.26987877D+05 0.26987877D+05 0.26987877D+05 0.12197511D+01  1  2  3  2  5  2       -1 -.379846280394D-01 0.100000000000D+01
0.736652797710D-04 0.000000000000D+00 0.000000000000D+00 0.188647712414D-02 0.000000000000D+00  5 2 -1 25 24 21 2 0.29476614D+00 0.26000708D-02 0.26987877D+05 0.26987877D+05 0.26987877D+05 0.12197511D+01  1  2 15  2  5  2       -1 0.476648805746D-01 0.100000000000D+01
  </mgrwgt>
  </event>
  <event>
  4     66 0.48098993E-03 0.18513602E+03 0.75467711E-02 0.95753975E-01
        4 -1    0    0  501    0 0.00000000E+00 0.00000000E+00 0.24537204E+03 0.24537694E+03 0.15500000E+01 0.0000E+00 0.9000E+01
       -3 -1    0    0    0  501 0.00000000E+00 0.00000000E+00 -.22399450E+03 0.22399506E+03 0.50000000E+00 0.0000E+00 0.9000E+01
       25  1    1    2    0    0 -.82422848E+02 -.12879689E+03 0.15491594E+03 0.25101018E+03 0.12500000E+03 0.0000E+00 0.9000E+01
       24  1    1    2    0    0 0.82422848E+02 0.12879689E+03 -.13353839E+03 0.21836181E+03 0.80419002E+02 0.0000E+00 0.9000E+01
#aMCatNLO 1  0  0  1  1 0.75234082D+03 0.00000000D+00  -5  5  0 0.00000000D+00 0.00000000D+00 0.00000000D+00 0.00000000D+00 0.00000000D+00
  <mgrwgt>
 0.3723352915D-01    3    2    0
 0.234442461221894D+03 0.000000000000000D+00 0.000000000000000D+00 0.234442461221894D+03
 0.234442461221894D+03 0.000000000000000D+00 0.000000000000000D+00 -.234442461221894D+03
 0.244207953357896D+03 -.824228476798444D+02 -.128796889000464D+03 0.143632726240923D+03
 0.224676969085892D+03 0.824228476798444D+02 0.128796889000464D+03 -.143632726240923D+03
 0.000000000000000D+00 0.000000000000000D+00 -.000000000000000D+00 -.000000000000000D+00
 0.650948600096080D+03 0.000000000000000D+00 0.000000000000000D+00 0.650948600096080D+03
 0.112453072783780D+04 0.000000000000000D+00 0.000000000000000D+00 -.112453072783780D+04
 0.260299785650048D+03 -.932126996215349D+02 0.151036455835427D+03 0.143632726240923D+03
 0.626193183649258D+03 0.642253806049711D+02 0.600745726354478D+03 -.143632726240923D+03
 0.888986358634572D+03 0.289873190165638D+02 -.751782182189905D+03 -.473582127741718D+03
0.312330387685D-02 0.000000000000D+00 0.000000000000D+00 0.133035394270D-02 0.000000000000D+00  5 4 -3 25 24 21 0 0.37749965D-01 0.34461111D-01 0.34275347D+05 0.34275347D+05 0.34275347D+05 0.12088722D+01  1  2  2  1  5  1        4 0.363524358379D-01 0.100000000000D+01
-.161754738514D-03 0.000000000000D+00 -.119943092719D-04 0.133035394270D-02 0.000000000000D+00  5 4 -3 25 24 21 2 0.37749965D-01 0.34461111D-01 0.34275347D+05 0.34275347D+05 0.34275347D+05 0.12088722D+01  1  2  3  1  5  1        4 -.275129449363D-02 0.100000000000D+01
0.213556179249D-03 0.000000000000D+00 0.000000000000D+00 0.133035394270D-02 0.000000000000D+00  5 4 -3 25 24 21 2 0.37749965D-01 0.34461111D-01 0.34275347D+05 0.34275347D+05 0.34275347D+05 0.12088722D+01  1  2 15  1  5  1        4 0.363238780791D-02 0.100000000000D+01
  </mgrwgt>
  </event>
  <event>
  4     66 0.48098993E-03 0.17438129E+03 0.75467711E-02 0.11320205E+00
        2 -1    0    0  501    0 0.00000000E+00 0.00000000E+00 0.13412251E+04 0.13412251E+04 0.32000000E+00 0.0000E+00 0.9000E+01
       -1 -1    0    0    0  501 0.00000000E+00 0.00000000E+00 -.25193708E+02 0.25195740E+02 0.32000000E+00 0.0000E+00 0.9000E+01
       25  1    1    2    0    0 0.11908960E+03 -.73162577E+02 0.48697674E+03 0.52182990E+03 0.12500000E+03 0.0000E+00 0.9000E+01
       24  1    1    2    0    0 -.11908960E+03 0.73162577E+02 0.82905465E+03 0.84459098E+03 0.80419002E+02 0.0000E+00 0.9000E+01
#aMCatNLO 1  0  0  2  1 0.86435926D+02 0.00000000D+00  -5  5  0 0.00000000D+00 0.00000000D+00 0.00000000D+00 0.00000000D+00 0.00000000D+00
  <mgrwgt>
 0.3370567499D+00    4    2    0
 0.183825589635566D+03 0.000000000000000D+00 0.000000000000000D+00 0.183825589635566D+03
 0.183825589635566D+03 0.000000000000000D+00 0.000000000000000D+00 -.183825589635566D+03
 0.196280036352947D+03 0.119089596491866D+03 -.731625767891200D+02 -.580151535005732D+02
 0.171371142918185D+03 -.119089596491866D+03 0.731625767891200D+02 0.580151535005732D+02
 0.000000000000000D+00 -.000000000000000D+00 0.000000000000000D+00 0.000000000000000D+00
 0.244940483515779D+03 0.000000000000000D+00 0.000000000000000D+00 0.244940483515779D+03
 0.222129872346008D+03 0.000000000000000D+00 0.000000000000000D+00 -.222129872346008D+03
 0.225374272592790D+03 0.131498493095647D+03 -.120461408860299D+03 -.580151535005732D+02
 0.152300930441045D+03 -.109564226522593D+03 0.368548462165892D+02 0.580151535005732D+02
 0.893951528279517D+02 -.219342665730544D+02 0.836065626437095D+02 0.228106111697715D+02
0.991972456106D-03 0.000000000000D+00 0.000000000000D+00 0.201024941354D-02 0.000000000000D+00  5 2 -1 25 24 21 0 0.20634248D+00 0.38761143D-02 0.30408833D+05 0.30408833D+05 0.30408833D+05 0.12142819D+01  1  2  2  2  5  2       -1 0.479783857568D+00 0.100000000000D+01
-.549231825786D-04 0.000000000000D+00 -.380943542379D-05 0.201024941354D-02 0.000000000000D+00  5 2 -1 25 24 21 2 0.20634248D+00 0.38761143D-02 0.30408833D+05 0.30408833D+05 0.30408833D+05 0.12142819D+01  1  2  3  2  5  2       -1 -.391688450451D-01 0.100000000000D+01
0.685261292059D-04 0.000000000000D+00 0.000000000000D+00 0.201024941354D-02 0.000000000000D+00  5 2 -1 25 24 21 2 0.20634248D+00 0.38761143D-02 0.30408833D+05 0.30408833D+05 0.30408833D+05 0.12142819D+01  1  2 15  2  5  2       -1 0.488698799012D-01 0.100000000000D+01
-.213737185509D-03 0.000000000000D+00 0.000000000000D+00 0.201024941354D-02 0.000000000000D+00  5 2 -1 25 24 21 2 0.20634248D+00 0.38761143D-02 0.30408833D+05 0.30408833D+05 0.30408833D+05 0.12142819D+01  1  2  4  2  5  2       -1 -.152428142481D+00 0.100000000000D+01
  </mgrwgt>
  </event>
  <event>
  4     66 0.48098993E-03 0.13113720E+03 0.75467711E-02 0.11553437E+00
        2 -1    0    0  501    0 0.00000000E+00 0.00000000E+00 0.34723278E+03 0.34723293E+03 0.32000000E+00 0.0000E+00 0.9000E+01
       -1 -1    0    0    0  501 0.00000000E+00 0.00000000E+00 -.49525918E+02 0.49526951E+02 0.32000000E+00 0.0000E+00 0.9000E+01
       25  1    1    2    0    0 -.75518113E+02 -.27434786E+02 0.16947946E+03 0.22539729E+03 0.12500000E+03 0.0000E+00 0.9000E+01
       24  1    1    2    0    0 0.75518113E+02 0.27434786E+02 0.12822741E+03 0.17136259E+03 0.80419002E+02 0.0000E+00 0.9000E+01
#aMCatNLO 1  0  0  1  1 0.10462392D+03 0.00000000D+00  -5  5  0 0.00000000D+00 0.00000000D+00 0.00000000D+00 0.00000000D+00 0.00000000D+00
  <mgrwgt>
 0.2386303308D+00    5    2    0
 0.131138310739439D+03 0.000000000000000D+00 0.000000000000000D+00 0.131138310739439D+03
 0.131138310739439D+03 0.000000000000000D+00 0.000000000000000D+00 -.131138310739439D+03
 0.148596565299057D+03 -.755181133770427D+02 -.274347863946991D+02 0.535038434392383D+00
 0.113680056179822D+03 0.755181133770427D+02 0.274347863946991D+02 -.535038434392383D+00
 0.000000000000000D+00 0.000000000000000D+00 0.000000000000000D+00 0.000000000000000D+00
 0.195009369372782D+03 0.000000000000000D+00 0.000000000000000D+00 0.195009369372782D+03
 0.192031132999192D+03 0.000000000000000D+00 0.000000000000000D+00 -.192031132999192D+03
 0.191861839798808D+03 -.134344612626699D+03 -.560107522091900D+02 0.535038434392383D+00
 0.905123631841612D+02 0.402364900578945D+02 0.102961418262207D+02 -.535038434392383D+00
 0.104666299389005D+03 0.941081225688045D+02 0.457146103829693D+02 0.297823637358946D+01
0.304634417119D-03 0.000000000000D+00 0.000000000000D+00 0.260541409582D-02 0.000000000000D+00  5 2 -1 25 24 21 0 0.53420519D-01 0.76194628D-02 0.17196965D+05 0.17196965D+05 0.17196965D+05 0.12411116D+01  1  2  2  1  5  1        2 0.284162010176D+00 0.100000000000D+01
-.169241342829D-04 0.000000000000D+00 -.116987637382D-05 0.260541409582D-02 0.000000000000D+00  5 2 -1 25 24 21 2 0.53420519D-01 0.76194628D-02 0.17196965D+05 0.17196965D+05 0.17196965D+05 0.12411116D+01  1  2  3  1  5  1        2 -.243172914677D-01 0.100000000000D+01
0.210621267399D-04 0.000000000000D+00 0.000000000000D+00 0.260541409582D-02 0.000000000000D+00  5 2 -1 25 24 21 2 0.53420519D-01 0.76194628D-02 0.17196965D+05 0.17196965D+05 0.17196965D+05 0.12411116D+01  1  2 15  1  5  1        2 0.302629290398D-01 0.100000000000D+01
-.800961339635D-04 0.000000000000D+00 -.110027889979D-03 0.260541409582D-02 0.000000000000D+00  5 2 -1 25 24 21 2 0.10978478D+00 0.76194628D-02 0.17196965D+05 0.17196965D+05 0.17196965D+05 0.12411116D+01  1  2  5  1  5  1        2 -.518943963864D-01 0.100000000000D+01
0.492581262704D-06 0.000000000000D+00 -.857014029811D-05 0.260541409582D-02 0.000000000000D+00  5 21 -1 25 24 -2 2 0.10978478D+00 0.76194628D-02 0.17196965D+05 0.17196965D+05 0.17196965D+05 0.12411116D+01  1  2  5  3  5  1        2 0.417079403317D-03 0.100000000000D+01
  </mgrwgt>
  </event>
  <event>
  4     66 0.48098993E-03 0.64098777E+02 0.75467711E-02 0.11851091E+00
        2 -1    0    0  501    0 0.00000000E+00 0.00000000E+00 0.16348529E+04 0.16348529E+04 0.32000000E+00 0.0000E+00 0.9000E+01
       -1 -1    0    0    0  501 0.00000000E+00 0.00000000E+00 -.29258460E+02 0.29260210E+02 0.32000000E+00 0.0000E+00 0.9000E+01
       25  1    1    2    0    0 -.10301176E+03 0.84475366E+01 0.22525018E+03 0.27757058E+03 0.12500000E+03 0.0000E+00 0.9000E+01
       24  1    1    2    0    0 0.10301176E+03 -.84475366E+01 0.13803443E+04 0.13865426E+04 0.80419002E+02 0.0000E+00 0.9000E+01
#aMCatNLO 1  0  0  1  2 0.30897753D+02 0.00000000D+00  -5  5  0 0.00000000D+00 0.00000000D+00 0.00000000D+00 0.00000000D+00 0.00000000D+00
  <mgrwgt>
 0.3741040744D+00    9    2    0
 0.218711591244550D+03 0.000000000000000D+00 0.000000000000000D+00 0.218711591244550D+03
 0.218711591244550D+03 0.000000000000000D+00 0.000000000000000D+00 -.218711591244550D+03
 0.229179468133834D+03 -.103011757762726D+03 0.844753655752425D+01 -.161911844850369D+03
 0.208243714355266D+03 0.103011757762726D+03 -.844753655752425D+01 0.161911844850369D+03
 0.000000000000000D+00 -.000000000000000D+00 0.000000000000000D+00 0.000000000000000D+00
 0.242441928276278D+03 0.000000000000000D+00 0.000000000000000D+00 0.242441928276278D+03
 0.229550420045262D+03 0.000000000000000D+00 0.000000000000000D+00 -.229550420045262D+03
 0.223517295676164D+03 -.901034307618849D+02 -.952747854275156D+00 -.161911844850369D+03
 0.214995773381585D+03 0.115080131438286D+03 -.172361382818797D+02 0.161911844850369D+03
 0.334792792637909D+02 -.249767006764012D+02 0.181888861361549D+02 0.128915082310158D+02
0.676329430397D-03 0.000000000000D+00 0.000000000000D+00 0.100311682336D-02 0.000000000000D+00  5 2 -1 25 24 21 0 0.25151597D+00 0.45014386D-02 0.21484926D+05 0.21484926D+05 0.21484926D+05 0.12304164D+01  1  2  2  1  5  1        2 0.183348380974D+00 0.100000000000D+01
-.302570347945D-04 0.000000000000D+00 -.259728309435D-05 0.100311682336D-02 0.000000000000D+00  5 2 -1 25 24 21 2 0.25151597D+00 0.45014386D-02 0.21484926D+05 0.21484926D+05 0.21484926D+05 0.12304164D+01  1  2  3  1  5  1        2 -.124179350860D-01 0.100000000000D+01
0.461482580960D-04 0.000000000000D+00 0.000000000000D+00 0.100311682336D-02 0.000000000000D+00  5 2 -1 25 24 21 2 0.25151597D+00 0.45014386D-02 0.21484926D+05 0.21484926D+05 0.21484926D+05 0.12304164D+01  1  2 15  1  5  1        2 0.189399284253D-01 0.100000000000D+01
0.117753275821D-02 0.000000000000D+00 0.000000000000D+00 0.100311682336D-02 0.000000000000D+00  5 2 -1 25 24 21 2 0.28452590D+00 0.45014386D-02 0.26640619D+05 0.26640619D+05 0.26640619D+05 0.12203491D+01  1  2 12  1  5  1        2 0.368554056032D+00 0.100000000000D+01
-.114476594223D-02 0.000000000000D+00 0.000000000000D+00 0.100311682336D-02 0.000000000000D+00  5 2 -1 25 24 21 2 0.25151597D+00 0.45014386D-02 0.21484926D+05 0.21484926D+05 0.21484926D+05 0.12304164D+01  1  2  4  1  5  1        2 -.469828892880D+00 0.100000000000D+01
-.278323455131D-02 0.000000000000D+00 -.662585876692D-03 0.100311682336D-02 0.000000000000D+00  5 2 -1 25 24 21 2 0.28539561D+00 0.45014386D-02 0.21484926D+05 0.21484926D+05 0.21484926D+05 0.12304164D+01  1  2  5  1  5  1        2 -.880445616586D+00 0.100000000000D+01
0.284943886701D-02 0.000000000000D+00 0.657330321751D-03 0.100311682336D-02 0.000000000000D+00  5 2 -1 25 24 21 2 0.25151597D+00 0.45014386D-02 0.21484926D+05 0.21484926D+05 0.21484926D+05 0.12304164D+01  1  2  6  1  5  1        2 0.116945190176D+01 0.100000000000D+01
0.228593545341D-04 0.000000000000D+00 0.000000000000D+00 0.100311682336D-02 0.000000000000D+00  5 21 -1 25 24 -2 2 0.28452590D+00 0.45014386D-02 0.26640619D+05 0.26640619D+05 0.26640619D+05 0.12203491D+01  1  2 12  3  5  1        2 0.266231589078D-02 0.100000000000D+01
-.517761125303D-04 0.000000000000D+00 -.131281714544D-04 0.100311682336D-02 0.000000000000D+00  5 21 -1 25 24 -2 2 0.28539561D+00 0.45014386D-02 0.21484926D+05 0.21484926D+05 0.21484926D+05 0.12304164D+01  1  2  5  3  5  1        2 -.616006415267D-02 0.100000000000D+01
  </mgrwgt>
  </event>
  <event>
  5     66 0.48098993E-03 0.11319749E+03 0.75467711E-02 0.12494875E+00
        2 -1    0    0  501    0 0.00000000E+00 0.00000000E+00 0.16065749E+03 0.16065781E+03 0.32000000E+00 0.0000E+00 0.9000E+01
       21 -1    0    0  502  501 0.00000000E+00 0.00000000E+00 -.14699196E+03 0.14699388E+03 0.75000000E+00 0.0000E+00 0.9000E+01
       25  1    1    2    0    0 -.45622734E+02 0.22388207E+01 -.51379508E+02 0.14265798E+03 0.12500000E+03 0.0000E+00 0.9000E+01
       24  1    1    2    0    0 0.47360023E+02 0.34406916E+01 -.61091163E+01 0.93591385E+02 0.80419002E+02 0.0000E+00 0.9000E+01
        1  1    1    2  502    0 -.17372892E+01 -.56795123E+01 0.71154150E+02 0.71402315E+02 0.32000000E+00 0.0000E+00 0.9000E+01
#aMCatNLO 2  0  0  2  2 0.59392789D+01 0.00000000D+00  -5  5  0 0.00000000D+00 0.00000000D+00 0.00000000D+00 0.00000000D+00 0.00000000D+00
  <mgrwgt>
 0.6482456449D-01    1    2    0
 0.114535526197712D+03 0.000000000000000D+00 0.000000000000000D+00 0.114535526197712D+03
 0.114535526197712D+03 0.000000000000000D+00 0.000000000000000D+00 -.114535526197712D+03
 0.134524485845528D+03 -.466415325769217D+02 -.109181517858918D+01 -.171817539993821D+02
 0.945465665498968D+02 0.466415325769217D+02 0.109181517858918D+01 0.171817539993821D+02
 0.000000000000000D+00 -.000000000000000D+00 -.000000000000000D+00 0.000000000000000D+00
 0.205942943636490D+03 0.000000000000000D+00 0.000000000000000D+00 0.205942943636490D+03
 0.114670535784515D+03 0.000000000000000D+00 0.000000000000000D+00 -.114670535784515D+03
 0.134188892490054D+03 -.456227342337787D+02 0.223882072662040D+01 -.171817539993821D+02
 0.949591428050380D+02 0.473600234235734D+02 0.344069160494826D+01 0.171817539993821D+02
 0.914654441259135D+02 -.173728918979475D+01 -.567951233156866D+01 0.912724078519746D+02
0.847143254590D-05 0.000000000000D+00 0.000000000000D+00 0.284220582971D-02 0.229527393971D-06  5 2 21 25 24 1 2 0.24716648D-01 0.22614265D-01 0.13504232D+05 0.13504232D+05 0.13504232D+05 0.12530572D+01  1  2  1  4  5  2       -1 0.648245644882D-01 0.100000000000D+01
  </mgrwgt>
  </event>
  <event>
  4     66 0.48098993E-03 0.10563883E+03 0.75467711E-02 0.12430573E+00
        2 -1    0    0  501    0 0.00000000E+00 0.00000000E+00 0.91764168E+03 0.91764174E+03 0.32000000E+00 0.0000E+00 0.9000E+01
       -1 -1    0    0    0  501 0.00000000E+00 0.00000000E+00 -.12883011E+02 0.12886984E+02 0.32000000E+00 0.0000E+00 0.9000E+01
       25  1    1    2    0    0 -.24025058E+02 -.24378346E+01 0.64804204E+03 0.66042913E+03 0.12500000E+03 0.0000E+00 0.9000E+01
       24  1    1    2    0    0 0.24025058E+02 0.24378346E+01 0.25671663E+03 0.27009959E+03 0.80419002E+02 0.0000E+00 0.9000E+01
#aMCatNLO 1  0  0  2  2 0.27114976D+02 0.00000000D+00  -5  5  0 0.00000000D+00 0.00000000D+00 0.00000000D+00 0.00000000D+00 0.00000000D+00
  <mgrwgt>
 0.4595072773D+00    4    2    0
 0.108737584958605D+03 0.000000000000000D+00 0.000000000000000D+00 0.108737584958605D+03
 0.108737584958605D+03 0.000000000000000D+00 0.000000000000000D+00 -.108737584958605D+03
 0.129792365716141D+03 -.240250576232809D+02 -.243783459659196D+01 0.252569152287092D+02
 0.876828042010692D+02 0.240250576232809D+02 0.243783459659196D+01 -.252569152287092D+02
 0.000000000000000D+00 0.000000000000000D+00 0.000000000000000D+00 0.000000000000000D+00
 0.184160807573763D+03 0.000000000000000D+00 0.000000000000000D+00 0.184160807573763D+03
 0.112044002957807D+03 0.000000000000000D+00 0.000000000000000D+00 -.112044002957807D+03
 0.133734918145385D+03 -.395483241119555D+02 -.761883353396605D+01 0.252569152287092D+02
 0.854240914121409D+02 0.138280699252517D+02 -.965481481660636D+00 -.252569152287092D+02
 0.770458009740446D+02 0.257202541867038D+02 0.858431501562668D+01 0.721168046159557D+02
0.217204840477D-03 0.000000000000D+00 0.000000000000D+00 0.290971896989D-02 0.000000000000D+00  5 2 -1 25 24 21 0 0.14117595D+00 0.19823116D-02 0.11159562D+05 0.11159562D+05 0.11159562D+05 0.12627367D+01  1  2  2  2  5  2       -1 0.473122353884D+00 0.100000000000D+01
-.120546719199D-04 0.000000000000D+00 -.834123778780D-06 0.290971896989D-02 0.000000000000D+00  5 2 -1 25 24 21 2 0.14117595D+00 0.19823116D-02 0.11159562D+05 0.11159562D+05 0.11159562D+05 0.12627367D+01  1  2  3  2  5  2       -1 -.418682686041D-01 0.100000000000D+01
0.150423348184D-04 0.000000000000D+00 0.000000000000D+00 0.290971896989D-02 0.000000000000D+00  5 2 -1 25 24 21 2 0.14117595D+00 0.19823116D-02 0.11159562D+05 0.11159562D+05 0.11159562D+05 0.12627367D+01  1  2 15  2  5  2       -1 0.522450149449D-01 0.100000000000D+01
-.690770274072D-05 0.000000000000D+00 0.000000000000D+00 0.290971896989D-02 0.000000000000D+00  5 2 -1 25 24 21 2 0.14117595D+00 0.19823116D-02 0.11159562D+05 0.11159562D+05 0.11159562D+05 0.12627367D+01  1  2  4  2  5  2       -1 -.239918228972D-01 0.100000000000D+01
  </mgrwgt>
  </event>
  <event>
  4     66 0.48098993E-03 0.62693015E+02 0.75467711E-02 0.12170006E+00
        2 -1    0    0  501    0 0.00000000E+00 0.00000000E+00 0.14900530E+03 0.14900564E+03 0.32000000E+00 0.0000E+00 0.9000E+01
       -1 -1    0    0    0  501 0.00000000E+00 0.00000000E+00 -.10804396E+03 0.10804443E+03 0.32000000E+00 0.0000E+00 0.9000E+01
       25  1    1    2    0    0 0.46864698E+02 -.54985070E+02 0.36167538E+02 0.14883799E+03 0.12500000E+03 0.0000E+00 0.9000E+01
       24  1    1    2    0    0 -.46864698E+02 0.54985070E+02 0.47938002E+01 0.10821208E+03 0.80419002E+02 0.0000E+00 0.9000E+01
#aMCatNLO 1  0  0  2  1 0.21243924D+02 0.00000000D+00  -5  5  0 0.00000000D+00 0.00000000D+00 0.00000000D+00 0.00000000D+00 0.00000000D+00
  <mgrwgt>
 0.4020514503D+00    6    2    0
 0.126882731075520D+03 0.000000000000000D+00 0.000000000000000D+00 0.126882731075520D+03
 0.126882731075520D+03 0.000000000000000D+00 0.000000000000000D+00 -.126882731075520D+03
 0.144926526255533D+03 0.468646984257367D+02 -.549850696179208D+02 0.126111130782645D+02
 0.108838935895506D+03 -.468646984257367D+02 0.549850696179208D+02 -.126111130782645D+02
 0.000000000000000D+00 -.000000000000000D+00 -.000000000000000D+00 0.000000000000000D+00
 0.139152816208327D+03 0.000000000000000D+00 0.000000000000000D+00 0.139152816208327D+03
 0.136866867844359D+03 0.000000000000000D+00 0.000000000000000D+00 -.136866867844359D+03
 0.147563711395929D+03 0.583623173513882D+02 -.508414069557886D+02 0.126111130782645D+02
 0.107089413593735D+03 -.383766822184040D+02 0.580440921913189D+02 -.126111130782645D+02
 0.213665590630224D+02 -.199856351329841D+02 -.720268523553032D+01 0.228594836396780D+01
0.401327635553D-03 0.000000000000D+00 0.000000000000D+00 0.264298420901D-02 0.000000000000D+00  5 2 -1 25 24 21 0 0.22923955D-01 0.16622211D-01 0.15936870D+05 0.15936870D+05 0.15936870D+05 0.12448341D+01  1  2  2  2  5  2       -1 0.279493363950D+00 0.100000000000D+01
-.222952834819D-04 0.000000000000D+00 -.154120379252D-05 0.264298420901D-02 0.000000000000D+00  5 2 -1 25 24 21 2 0.22923955D-01 0.16622211D-01 0.15936870D+05 0.15936870D+05 0.15936870D+05 0.12448341D+01  1  2  3  2  5  2       -1 -.240607061456D-01 0.100000000000D+01
0.277791465543D-04 0.000000000000D+00 0.000000000000D+00 0.264298420901D-02 0.000000000000D+00  5 2 -1 25 24 21 2 0.22923955D-01 0.16622211D-01 0.15936870D+05 0.15936870D+05 0.15936870D+05 0.12448341D+01  1  2 15  2  5  2       -1 0.299788016942D-01 0.100000000000D+01
0.367648484566D-03 0.000000000000D+00 0.000000000000D+00 0.264298420901D-02 0.000000000000D+00  5 2 -1 25 24 21 2 0.22923955D-01 0.18667478D-01 0.18852941D+05 0.18852941D+05 0.18852941D+05 0.12366600D+01  1  2 12  2  5  2       -1 0.327559850723D+00 0.100000000000D+01
-.268342388314D-03 0.000000000000D+00 0.000000000000D+00 0.264298420901D-02 0.000000000000D+00  5 2 -1 25 24 21 2 0.22923955D-01 0.16622211D-01 0.15936870D+05 0.15936870D+05 0.15936870D+05 0.12448341D+01  1  2  4  2  5  2       -1 -.289590726976D+00 0.100000000000D+01
0.678125232105D-05 0.000000000000D+00 0.000000000000D+00 0.264298420901D-02 0.000000000000D+00  5 2 21 25 24 1 2 0.22923955D-01 0.18667478D-01 0.18852941D+05 0.18852941D+05 0.18852941D+05 0.12366600D+01  1  2 12  4  5  2       -1 0.786708670130D-01 0.100000000000D+01
  </mgrwgt>
  </event>
  <event>
  5     66 0.48098993E-03 0.11223954E+03 0.75467711E-02 0.11692805E+00
        2 -1    0    0  501    0 0.00000000E+00 0.00000000E+00 0.14098198E+04 0.14098198E+04 0.32000000E+00 0.0000E+00 0.9000E+01
       21 -1    0    0  502  501 0.00000000E+00 0.00000000E+00 -.24488384E+02 0.24499867E+02 0.75000000E+00 0.0000E+00 0.9000E+01
       25  1    1    2    0    0 -.11538587E+02 -.91612073E+01 0.60477303E+03 0.61773172E+03 0.12500000E+03 0.0000E+00 0.9000E+01
       24  1    1    2    0    0 -.62014152E+02 -.69768696E+02 0.52355537E+03 0.53785766E+03 0.80419002E+02 0.0000E+00 0.9000E+01
        1  1    1    2  502    0 0.73552739E+02 0.78929904E+02 0.25700302E+03 0.27873032E+03 0.32000000E+00 0.0000E+00 0.9000E+01
#aMCatNLO 2  0  0  2  2 0.10788853D+03 0.00000000D+00  -5  5  0 0.00000000D+00 0.00000000D+00 0.00000000D+00 0.00000000D+00 0.00000000D+00
  <mgrwgt>
 0.1306876171D+00    1    2    0
 0.112496583411628D+03 0.000000000000000D+00 0.000000000000000D+00 0.112496583411628D+03
 0.112496583411628D+03 0.000000000000000D+00 0.000000000000000D+00 -.112496583411628D+03
 0.132847832684953D+03 0.285977828880974D+02 0.339093815425173D+02 0.747444354975014D+01
 0.921453341383041D+02 -.285977828880974D+02 -.339093815425173D+02 -.747444354975014D+01
 0.000000000000000D+00 0.000000000000000D+00 0.000000000000000D+00 -.000000000000000D+00
 0.154026502328744D+03 0.000000000000000D+00 0.000000000000000D+00 0.154026502328744D+03
 0.224197708806955D+03 0.000000000000000D+00 0.000000000000000D+00 -.224197708806955D+03
 0.126087009660779D+03 -.115385865831564D+02 -.916120726116085D+01 0.747444354975014D+01
 0.123436256209755D+03 -.620141523616851D+02 -.697686963701700D+02 -.747444354975014D+01
 0.128700945265165D+03 0.735527389448415D+02 0.789299036313308D+02 -.701712064782113D+02
0.104654480989D-04 0.000000000000D+00 0.000000000000D+00 0.293553592467D-02 0.295793567015D-06  5 2 21 25 24 1 2 0.21689599D+00 0.37683254D-02 0.31855744D+05 0.31855744D+05 0.31855744D+05 0.12121721D+01  1  2  1  4  5  2       -1 0.130687617080D+00 0.100000000000D+01
  </mgrwgt>
  </event>
  <event>
  4     66 0.48098993E-03 0.13261328E+03 0.75467711E-02 0.10743241E+00
        2 -1    0    0  501    0 0.00000000E+00 0.00000000E+00 0.16835419E+04 0.16835419E+04 0.32000000E+00 0.0000E+00 0.9000E+01
       -1 -1    0    0    0  501 0.00000000E+00 0.00000000E+00 -.11055621E+02 0.11060251E+02 0.32000000E+00 0.0000E+00 0.9000E+01
       25  1    1    2    0    0 0.70027322E+02 -.43981784E+02 0.74135989E+03 0.75635819E+03 0.12500000E+03 0.0000E+00 0.9000E+01
       24  1    1    2    0    0 -.70027322E+02 0.43981784E+02 0.93112638E+03 0.93824399E+03 0.80419002E+02 0.0000E+00 0.9000E+01
#aMCatNLO 1  0  0  1  2 0.26866576D+03 0.00000000D+00  -5  5  0 0.00000000D+00 0.00000000D+00 0.00000000D+00 0.00000000D+00 0.00000000D+00
  <mgrwgt>
 0.3802360614D+00    5    2    0
 0.136442480868100D+03 0.000000000000000D+00 0.000000000000000D+00 0.136442480868100D+03
 0.136442480868100D+03 0.000000000000000D+00 0.000000000000000D+00 -.136442480868100D+03
 0.153222049788579D+03 0.700273218133323D+02 -.439817839209142D+02 -.318398087965314D+02
 0.119662911947621D+03 -.700273218133323D+02 0.439817839209142D+02 0.318398087965314D+02
 0.000000000000000D+00 0.000000000000000D+00 0.000000000000000D+00 0.000000000000000D+00
 0.444885722457092D+03 0.000000000000000D+00 0.000000000000000D+00 0.444885722457092D+03
 0.262682096375375D+03 0.000000000000000D+00 0.000000000000000D+00 -.262682096375375D+03
 0.245865012593147D+03 0.420076676408570D+02 -.205051668738892D+03 -.318398087965314D+02
 0.137080794726058D+03 -.880531376065664D+02 -.596389123123185D+02 0.318398087965314D+02
 0.324622011513262D+03 0.460454699657094D+02 0.264690581051210D+03 0.182203626081717D+03
0.354034578873D-03 0.000000000000D+00 0.000000000000D+00 0.241589363031D-02 0.000000000000D+00  5 2 -1 25 24 21 0 0.25900680D+00 0.17012233D-02 0.17586283D+05 0.17586283D+05 0.17586283D+05 0.12400231D+01  1  2  2  1  5  1        2 0.372470798945D+00 0.100000000000D+01
-.196492099169D-04 0.000000000000D+00 -.135958600232D-05 0.241589363031D-02 0.000000000000D+00  5 2 -1 25 24 21 2 0.25900680D+00 0.17012233D-02 0.17586283D+05 0.17586283D+05 0.17586283D+05 0.12400231D+01  1  2  3  1  5  1        2 -.317871208911D-01 0.100000000000D+01
0.244422836972D-04 0.000000000000D+00 0.000000000000D+00 0.241589363031D-02 0.000000000000D+00  5 2 -1 25 24 21 2 0.25900680D+00 0.17012233D-02 0.17586283D+05 0.17586283D+05 0.17586283D+05 0.12400231D+01  1  2 15  1  5  1        2 0.395410212433D-01 0.100000000000D+01
0.207257177319D-04 0.000000000000D+00 -.106016743789D-03 0.241589363031D-02 0.000000000000D+00  5 2 -1 25 24 21 2 0.88459025D+00 0.17012233D-02 0.17586283D+05 0.17586283D+05 0.17586283D+05 0.12400231D+01  1  2  5  1  5  1        2 0.113438819952D-04 0.100000000000D+01
0.670164742062D-05 0.000000000000D+00 -.151713421734D-04 0.241589363031D-02 0.000000000000D+00  5 21 -1 25 24 -2 2 0.88459025D+00 0.17012233D-02 0.17586283D+05 0.17586283D+05 0.17586283D+05 0.12400231D+01  1  2  5  3  5  1        2 0.182166532706D-07 0.100000000000D+01
  </mgrwgt>
  </event>
  <event>
  4     66 0.48098993E-03 0.26628079E+03 0.75467711E-02 0.10618071E+00
        2 -1    0    0  501    0 0.00000000E+00 0.00000000E+00 0.20679518E+04 0.20679518E+04 0.32000000E+00 0.0000E+00 0.9000E+01
       -1 -1    0    0    0  501 0.00000000E+00 0.00000000E+00 -.34718074E+02 0.34719548E+02 0.32000000E+00 0.0000E+00 0.9000E+01
       25  1    1    2    0    0 0.24404927E+03 -.19319157E+02 0.93194821E+03 0.97164075E+03 0.12500000E+03 0.0000E+00 0.9000E+01
       24  1    1    2    0    0 -.24404927E+03 0.19319157E+02 0.11012855E+04 0.11310306E+04 0.80419002E+02 0.0000E+00 0.9000E+01
#aMCatNLO 1  0  0  2  2 0.15060512D+03 0.00000000D+00  -5  5  0 0.00000000D+00 0.00000000D+00 0.00000000D+00 0.00000000D+00 0.00000000D+00
  <mgrwgt>
 0.4742484060D+00    3    2    0
 0.267949397752324D+03 0.000000000000000D+00 0.000000000000000D+00 0.267949397752324D+03
 0.267949397752324D+03 0.000000000000000D+00 0.000000000000000D+00 -.267949397752324D+03
 0.276493720040832D+03 0.244049266651822D+03 -.193191573690809D+02 -.298412939946382D+02
 0.259405075463816D+03 -.244049266651822D+03 0.193191573690809D+02 0.298412939946382D+02
 0.000000000000000D+00 0.000000000000000D+00 0.000000000000000D+00 0.000000000000000D+00
 0.503592744959726D+03 0.000000000000000D+00 0.000000000000000D+00 0.503592744959726D+03
 0.303502253100787D+03 0.000000000000000D+00 0.000000000000000D+00 -.303502253100787D+03
 0.229247643081947D+03 0.182540531681182D+03 -.521338021335963D+02 -.298412939946382D+02
 0.327411518568507D+03 -.315418446613369D+03 -.187559922611438D+02 0.298412939946382D+02
 0.250435836410060D+03 0.132877914932187D+03 0.708897943947401D+02 0.200090491858939D+03
0.375582729902D-02 0.000000000000D+00 0.000000000000D+00 0.201471630738D-02 0.000000000000D+00  5 2 -1 25 24 21 0 0.31814655D+00 0.53413575D-02 0.70905459D+05 0.70905459D+05 0.70905459D+05 0.11775430D+01  1  2  2  2  5  2       -1 0.465873728366D+00 0.100000000000D+01
-.208647172306D-03 0.000000000000D+00 -.144233657603D-04 0.201471630738D-02 0.000000000000D+00  5 2 -1 25 24 21 2 0.31814655D+00 0.53413575D-02 0.70905459D+05 0.70905459D+05 0.70905459D+05 0.11775430D+01  1  2  3  2  5  2       -1 -.358862994173D-01 0.100000000000D+01
0.257338534716D-03 0.000000000000D+00 0.000000000000D+00 0.201471630738D-02 0.000000000000D+00  5 2 -1 25 24 21 2 0.31814655D+00 0.53413575D-02 0.70905459D+05 0.70905459D+05 0.70905459D+05 0.11775430D+01  1  2 15  2  5  2       -1 0.442609770665D-01 0.100000000000D+01
  </mgrwgt>
  </event>
  <event>
  5     66 0.48098993E-03 0.10754461E+03 0.75467711E-02 0.12321645E+00
        2 -1    0    0  501    0 0.00000000E+00 0.00000000E+00 0.59165224E+03 0.59165233E+03 0.32000000E+00 0.0000E+00 0.9000E+01
       -1 -1    0    0    0  502 0.00000000E+00 0.00000000E+00 -.32449477E+02 0.32451055E+02 0.32000000E+00 0.0000E+00 0.9000E+01
       25  1    1    2    0    0 -.16893801E+02 -.44871056E+02 0.17892301E+03 0.22346645E+03 0.12500000E+03 0.0000E+00 0.9000E+01
       24  1    1    2    0    0 0.22611426E+02 0.95362456E+01 0.20203839E+03 0.21883542E+03 0.80419002E+02 0.0000E+00 0.9000E+01
       21  1    1    2  501  502 -.57176254E+01 0.35334810E+02 0.17824137E+03 0.18180151E+03 0.75000000E+00 0.0000E+00 0.9000E+01
#aMCatNLO 2  0  0  2  2 0.35794414D+02 0.00000000D+00  -5  5  0 0.00000000D+00 0.00000000D+00 0.00000000D+00 0.00000000D+00 0.00000000D+00
  <mgrwgt>
 0.3638442259D-01    1    2    0
 0.110925790010375D+03 0.000000000000000D+00 0.000000000000000D+00 0.110925790010375D+03
 0.110925790010375D+03 0.000000000000000D+00 0.000000000000000D+00 -.110925790010375D+03
 0.131565228424050D+03 -.203260793008511D+02 -.236596423824319D+02 -.266736040471370D+02
 0.902863515967005D+02 0.203260793008511D+02 0.236596423824319D+02 0.266736040471370D+02
 0.000000000000000D+00 -.000000000000000D+00 0.000000000000000D+00 0.000000000000000D+00
 0.161496263980659D+03 0.000000000000000D+00 0.000000000000000D+00 0.161496263980659D+03
 0.118879170304600D+03 0.000000000000000D+00 0.000000000000000D+00 -.118879170304600D+03
 0.136511147161550D+03 -.168938005996902D+02 -.448710557909765D+02 -.266736040471370D+02
 0.882094874336153D+02 0.226114260241918D+02 0.953624555156084D+01 0.266736040471370D+02
 0.556547996900934D+02 -.571762542450165D+01 0.353348102394156D+02 0.426170936760591D+02
0.239871110387D-04 0.000000000000D+00 0.000000000000D+00 0.284140845363D-02 0.196195397197D-04  5 2 -1 25 24 21 2 0.91021693D-01 0.49922534D-02 0.16097795D+05 0.16097795D+05 0.16097795D+05 0.12443406D+01  1  2  1  2  5  2       -1 0.363844225858D-01 0.100000000000D+01
  </mgrwgt>
  </event>
  <event>
  4     66 0.48098993E-03 0.10598392E+03 0.75467711E-02 0.11230474E+00
        2 -1    0    0  501    0 0.00000000E+00 0.00000000E+00 0.17527577E+03 0.17527606E+03 0.32000000E+00 0.0000E+00 0.9000E+01
       -1 -1    0    0    0  501 0.00000000E+00 0.00000000E+00 -.71926590E+02 0.71927302E+02 0.32000000E+00 0.0000E+00 0.9000E+01
       25  1    1    2    0    0 0.11747002E+02 -.22696494E+02 0.10110864E+03 0.16279152E+03 0.12500000E+03 0.0000E+00 0.9000E+01
       24  1    1    2    0    0 -.11747002E+02 0.22696494E+02 0.22405386E+01 0.84411841E+02 0.80419002E+02 0.0000E+00 0.9000E+01
#aMCatNLO 1  0  0  1  1 0.18721178D+03 0.00000000D+00  -5  5  0 0.00000000D+00 0.00000000D+00 0.00000000D+00 0.00000000D+00 0.00000000D+00
  <mgrwgt>
 0.4153143998D+00    3    2    0
 0.112281399312885D+03 0.000000000000000D+00 0.000000000000000D+00 0.112281399312885D+03
 0.112281399312885D+03 0.000000000000000D+00 0.000000000000000D+00 -.112281399312885D+03
 0.132671651174884D+03 0.117470016840830D+02 -.226964936946880D+02 0.363819206594582D+02
 0.918911474508862D+02 -.117470016840830D+02 0.226964936946880D+02 -.363819206594582D+02
 0.000000000000000D+00 0.000000000000000D+00 -.000000000000000D+00 -.000000000000000D+00
 0.158299607578400D+03 0.000000000000000D+00 0.000000000000000D+00 0.158299607578400D+03
 0.869266943712894D+03 0.000000000000000D+00 0.000000000000000D+00 -.869266943712894D+03
 0.152762278747551D+03 -.746259812406855D+00 0.799194141217614D+02 0.363819206594582D+02
 0.139601711718122D+03 -.218792968353792D+02 0.105920131133687D+03 -.363819206594582D+02
 0.735202560825622D+03 0.226255566477861D+02 -.185839545255448D+03 -.710967336134494D+03
0.376578447364D-03 0.000000000000D+00 0.000000000000D+00 0.268987511197D-02 0.000000000000D+00  5 2 -1 25 24 21 0 0.26965580D-01 0.11065706D-01 0.11232592D+05 0.11232592D+05 0.11232592D+05 0.12624018D+01  1  2  2  1  5  1        2 0.406685074010D+00 0.100000000000D+01
-.208362769300D-04 0.000000000000D+00 -.144616039326D-05 0.268987511197D-02 0.000000000000D+00  5 2 -1 25 24 21 2 0.26965580D-01 0.11065706D-01 0.11232592D+05 0.11232592D+05 0.11232592D+05 0.12624018D+01  1  2  3  1  5  1        2 -.358606477479D-01 0.100000000000D+01
0.258502137169D-04 0.000000000000D+00 0.000000000000D+00 0.268987511197D-02 0.000000000000D+00  5 2 -1 25 24 21 2 0.26965580D-01 0.11065706D-01 0.11232592D+05 0.11232592D+05 0.11232592D+05 0.12624018D+01  1  2 15  1  5  1        2 0.444899734930D-01 0.100000000000D+01
  </mgrwgt>
  </event>
  <event>
  4     66 0.48098993E-03 0.61957495E+02 0.75467711E-02 0.12158464E+00
        2 -1    0    0  501    0 0.00000000E+00 0.00000000E+00 0.15177540E+04 0.15177540E+04 0.32000000E+00 0.0000E+00 0.9000E+01
       -1 -1    0    0    0  501 0.00000000E+00 0.00000000E+00 -.12124164E+02 0.12128386E+02 0.32000000E+00 0.0000E+00 0.9000E+01
       25  1    1    2    0    0 0.19555786E+02 -.72130172E+02 0.11022675E+04 0.11118470E+04 0.12500000E+03 0.0000E+00 0.9000E+01
       24  1    1    2    0    0 -.19555786E+02 0.72130172E+02 0.40336232E+03 0.41803537E+03 0.80419002E+02 0.0000E+00 0.9000E+01
#aMCatNLO 1  0  0  2  1 0.20010910D+02 0.00000000D+00  -5  5  0 0.00000000D+00 0.00000000D+00 0.00000000D+00 0.00000000D+00 0.00000000D+00
  <mgrwgt>
 0.6557590443D+00    6    2    0
 0.135664117336554D+03 0.000000000000000D+00 0.000000000000000D+00 0.135664117336554D+03
 0.135664117336554D+03 0.000000000000000D+00 0.000000000000000D+00 -.135664117336554D+03
 0.152539957878292D+03 0.195557862754988D+02 -.721301722114686D+02 0.453679207083824D+02
 0.118788276794816D+03 -.195557862754988D+02 0.721301722114686D+02 -.453679207083824D+02
 0.000000000000000D+00 0.000000000000000D+00 -.000000000000000D+00 0.000000000000000D+00
 0.147927282443515D+03 0.000000000000000D+00 0.000000000000000D+00 0.147927282443515D+03
 0.144448852619612D+03 0.000000000000000D+00 0.000000000000000D+00 -.144448852619612D+03
 0.150548545085168D+03 0.858871045584922D+01 -.700560507776771D+02 0.453679207083824D+02
 0.121516607867359D+03 -.282510744971044D+02 0.737746473632783D+02 -.453679207083824D+02
 0.203109821105998D+02 0.196623640412552D+02 -.371859658560118D+01 0.347842982390301D+01
0.348349722139D-03 0.000000000000D+00 0.000000000000D+00 0.229385140816D-02 0.000000000000D+00  5 2 -1 25 24 21 0 0.23350094D+00 0.18655833D-02 0.16309926D+05 0.16309926D+05 0.16309926D+05 0.12436986D+01  1  2  2  2  5  2       -1 0.390058687786D+00 0.100000000000D+01
-.192668708028D-04 0.000000000000D+00 -.133775465560D-05 0.229385140816D-02 0.000000000000D+00  5 2 -1 25 24 21 2 0.23350094D+00 0.18655833D-02 0.16309926D+05 0.16309926D+05 0.16309926D+05 0.12436986D+01  1  2  3  2  5  2       -1 -.333699790994D-01 0.100000000000D+01
0.240564528195D-04 0.000000000000D+00 0.000000000000D+00 0.229385140816D-02 0.000000000000D+00  5 2 -1 25 24 21 2 0.23350094D+00 0.18655833D-02 0.16309926D+05 0.16309926D+05 0.16309926D+05 0.12436986D+01  1  2 15  2  5  2       -1 0.416654752092D-01 0.100000000000D+01
0.320893524746D-03 0.000000000000D+00 0.000000000000D+00 0.229385140816D-02 0.000000000000D+00  5 2 -1 25 24 21 2 0.23350094D+00 0.20645626D-02 0.19084164D+05 0.19084164D+05 0.19084164D+05 0.12360735D+01  1  2 12  2  5  2       -1 0.475996048858D+00 0.100000000000D+01
-.219447754133D-03 0.000000000000D+00 0.000000000000D+00 0.229385140816D-02 0.000000000000D+00  5 2 -1 25 24 21 2 0.23350094D+00 0.18655833D-02 0.16309926D+05 0.16309926D+05 0.16309926D+05 0.12436986D+01  1  2  4  2  5  2       -1 -.380080763700D+00 0.100000000000D+01
0.527247893639D-05 0.000000000000D+00 0.000000000000D+00 0.229385140816D-02 0.000000000000D+00  5 2 21 25 24 1 2 0.23350094D+00 0.20645626D-02 0.19084164D+05 0.19084164D+05 0.19084164D+05 0.12360735D+01  1  2 12  4  5  2       -1 0.161489575212D+00 0.100000000000D+01
  </mgrwgt>
  </event>
  <event>
  4     66 0.48098993E-03 0.68250001E+02 0.75467711E-02 0.12254849E+00
        2 -1    0    0  501    0 0.00000000E+00 0.00000000E+00 0.23364845E+04 0.23364845E+04 0.32000000E+00 0.0000E+00 0.9000E+01
       -1 -1    0    0    0  501 0.00000000E+00 0.00000000E+00 -.64015823E+01 0.64095753E+01 0.32000000E+00 0.0000E+00 0.9000E+01
       25  1    1    2    0    0 0.44853982E+01 -.93261889E+01 0.72539032E+03 0.73615434E+03 0.12500000E+03 0.0000E+00 0.9000E+01
       24  1    1    2    0    0 -.44853982E+01 0.93261889E+01 0.16046926E+04 0.16067398E+04 0.80419002E+02 0.0000E+00 0.9000E+01
#aMCatNLO 1  0  0  2  1 0.49913510D+02 0.00000000D+00  -5  5  0 0.00000000D+00 0.00000000D+00 0.00000000D+00 0.00000000D+00 0.00000000D+00
  <mgrwgt>
 0.3859872874D+00    9    2    0
 0.122338002415199D+03 0.000000000000000D+00 0.000000000000000D+00 0.122338002415199D+03
 0.122338002415199D+03 0.000000000000000D+00 0.000000000000000D+00 -.122338002415199D+03
 0.141052105688173D+03 0.448539816238315D+01 -.932618893801145D+01 -.645259631643338D+02
 0.103623899142225D+03 -.448539816238315D+01 0.932618893801145D+01 0.645259631643338D+02
 0.000000000000000D+00 0.000000000000000D+00 -.000000000000000D+00 -.000000000000000D+00
 0.145180564875326D+03 0.000000000000000D+00 0.000000000000000D+00 0.145180564875326D+03
 0.155504746979695D+03 0.000000000000000D+00 0.000000000000000D+00 -.155504746979695D+03
 0.141850826549061D+03 -.613132375345144D+01 0.171890645294341D+02 -.645259631643338D+02
 0.107864422996283D+03 -.124220875661824D+02 0.291480636091616D+02 0.645259631643338D+02
 0.509700623096769D+02 0.185534113196338D+02 -.463371281385958D+02 -.103241821043695D+02
0.284923448775D-03 0.000000000000D+00 0.000000000000D+00 0.207730266968D-02 0.000000000000D+00  5 2 -1 25 24 21 0 0.35945977D+00 0.98547534D-03 0.10661573D+05 0.10661573D+05 0.10661573D+05 0.12650884D+01  1  2  2  2  5  2       -1 0.300261242505D+00 0.100000000000D+01
-.152755739486D-04 0.000000000000D+00 -.109418106536D-05 0.207730266968D-02 0.000000000000D+00  5 2 -1 25 24 21 2 0.35945977D+00 0.98547534D-03 0.10661573D+05 0.10661573D+05 0.10661573D+05 0.12650884D+01  1  2  3  2  5  2       -1 -.257638250387D-01 0.100000000000D+01
0.195192713342D-04 0.000000000000D+00 0.000000000000D+00 0.207730266968D-02 0.000000000000D+00  5 2 -1 25 24 21 2 0.35945977D+00 0.98547534D-03 0.10661573D+05 0.10661573D+05 0.10661573D+05 0.12650884D+01  1  2 15  2  5  2       -1 0.329212567220D-01 0.100000000000D+01
0.847030732905D-04 0.000000000000D+00 0.000000000000D+00 0.207730266968D-02 0.000000000000D+00  5 2 -1 25 24 21 2 0.35945977D+00 0.13238307D-02 0.17249465D+05 0.17249465D+05 0.17249465D+05 0.12409632D+01  1  2 12  2  5  2       -1 0.908237954090D-01 0.100000000000D+01
-.118130490660D-03 0.000000000000D+00 0.000000000000D+00 0.207730266968D-02 0.000000000000D+00  5 2 -1 25 24 21 2 0.35945977D+00 0.98547534D-03 0.10661573D+05 0.10661573D+05 0.10661573D+05 0.12650884D+01  1  2  4  2  5  2       -1 -.199239210477D+00 0.100000000000D+01
-.160601730437D-03 0.000000000000D+00 -.101900024031D-03 0.207730266968D-02 0.000000000000D+00  5 2 -1 25 24 21 2 0.35945977D+00 0.15721371D-02 0.10661573D+05 0.10661573D+05 0.10661573D+05 0.12650884D+01  1  2  5  2  5  2       -1 -.139539659249D+00 0.100000000000D+01
0.196551178739D-03 0.000000000000D+00 0.917131487193D-04 0.207730266968D-02 0.000000000000D+00  5 2 -1 25 24 21 2 0.35945977D+00 0.98547534D-03 0.10661573D+05 0.10661573D+05 0.10661573D+05 0.12650884D+01  1  2  6  2  5  2       -1 0.331503758695D+00 0.100000000000D+01
0.323594917154D-05 0.000000000000D+00 0.000000000000D+00 0.207730266968D-02 0.000000000000D+00  5 2 21 25 24 1 2 0.35945977D+00 0.13238307D-02 0.17249465D+05 0.17249465D+05 0.17249465D+05 0.12409632D+01  1  2 12  4  5  2       -1 0.772814220382D-01 0.100000000000D+01
-.434178067861D-05 0.000000000000D+00 -.544791092307D-05 0.207730266968D-02 0.000000000000D+00  5 2 21 25 24 1 2 0.35945977D+00 0.15721371D-02 0.10661573D+05 0.10661573D+05 0.10661573D+05 0.12650884D+01  1  2  5  4  5  2       -1 -.822614932085D-01 0.100000000000D+01
  </mgrwgt>
  </event>
  <event>
  4     66 0.48098993E-03 0.92633305E+02 0.75467711E-02 0.11522532E+00
        2 -1    0    0  501    0 0.00000000E+00 0.00000000E+00 0.19060053E+03 0.19060079E+03 0.32000000E+00 0.0000E+00 0.9000E+01
       -1 -1    0    0    0  501 0.00000000E+00 0.00000000E+00 -.16985080E+03 0.16985110E+03 0.32000000E+00 0.0000E+00 0.9000E+01
       25  1    1    2    0    0 -.44542503E+02 -.13102622E+03 -.37320984E+02 0.19018349E+03 0.12500000E+03 0.0000E+00 0.9000E+01
       24  1    1    2    0    0 0.44542503E+02 0.13102622E+03 0.58070711E+02 0.17026840E+03 0.80419002E+02 0.0000E+00 0.9000E+01
#aMCatNLO 1  0  0  1  2 0.44920889D+02 0.00000000D+00  -5  5  0 0.00000000D+00 0.00000000D+00 0.00000000D+00 0.00000000D+00 0.00000000D+00
  <mgrwgt>
 0.3188206434D+00    9    2    0
 0.179927080974463D+03 0.000000000000000D+00 0.000000000000000D+00 0.179927080974463D+03
 0.179927080974463D+03 0.000000000000000D+00 0.000000000000000D+00 -.179927080974463D+03
 0.192651380168381D+03 -.445425033244898D+02 -.131026221437554D+03 -.483492396441464D+02
 0.167202781780545D+03 0.445425033244898D+02 0.131026221437554D+03 0.483492396441464D+02
 0.000000000000000D+00 0.000000000000000D+00 0.000000000000000D+00 0.000000000000000D+00
 0.301931959505833D+03 0.000000000000000D+00 0.000000000000000D+00 0.301931959505833D+03
 0.185506262324213D+03 0.000000000000000D+00 0.000000000000000D+00 -.185506262324213D+03
 0.208833780717982D+03 -.638160584819571D+02 -.146889106725538D+03 -.483492396441464D+02
 0.153813298619840D+03 0.291319184889970D+02 0.118342710924370D+03 0.483492396441464D+02
 0.124791142492224D+03 0.346841399929601D+02 0.285463958011676D+02 0.116425697181620D+03
0.111306413687D-02 0.000000000000D+00 0.000000000000D+00 0.208270104104D-02 0.000000000000D+00  5 2 -1 25 24 21 0 0.29323202D-01 0.26130936D-01 0.30023431D+05 0.30023431D+05 0.30023431D+05 0.12148628D+01  1  2  2  1  5  1        2 0.289232129236D+00 0.100000000000D+01
-.617301224834D-04 0.000000000000D+00 -.427445936208D-05 0.208270104104D-02 0.000000000000D+00  5 2 -1 25 24 21 2 0.29323202D-01 0.26130936D-01 0.30023431D+05 0.30023431D+05 0.30023431D+05 0.12148628D+01  1  2  3  1  5  1        2 -.236743444115D-01 0.100000000000D+01
0.767204951700D-04 0.000000000000D+00 0.000000000000D+00 0.208270104104D-02 0.000000000000D+00  5 2 -1 25 24 21 2 0.29323202D-01 0.26130936D-01 0.30023431D+05 0.30023431D+05 0.30023431D+05 0.12148628D+01  1  2 15  1  5  1        2 0.294233569124D-01 0.100000000000D+01
0.415225751825D-02 0.000000000000D+00 0.000000000000D+00 0.208270104104D-02 0.000000000000D+00  5 2 -1 25 24 21 2 0.49393103D-01 0.26130936D-01 0.38828189D+05 0.38828189D+05 0.38828189D+05 0.12033138D+01  1  2 12  1  5  1        2 0.893621132972D+00 0.100000000000D+01
-.391679114696D-02 0.000000000000D+00 0.000000000000D+00 0.208270104104D-02 0.000000000000D+00  5 2 -1 25 24 21 2 0.29323202D-01 0.26130936D-01 0.30023431D+05 0.30023431D+05 0.30023431D+05 0.12148628D+01  1  2  4  1  5  1        2 -.150214285782D+01 0.100000000000D+01
-.446037607443D-02 0.000000000000D+00 -.460524302049D-03 0.208270104104D-02 0.000000000000D+00  5 2 -1 25 24 21 2 0.50108589D-01 0.26130936D-01 0.30023431D+05 0.30023431D+05 0.30023431D+05 0.12148628D+01  1  2  5  1  5  1        2 -.961185570293D+00 0.100000000000D+01
0.415526916955D-02 0.000000000000D+00 0.401497943139D-03 0.208270104104D-02 0.000000000000D+00  5 2 -1 25 24 21 2 0.29323202D-01 0.26130936D-01 0.30023431D+05 0.30023431D+05 0.30023431D+05 0.12148628D+01  1  2  6  1  5  1        2 0.159360243403D+01 0.100000000000D+01
0.242117348984D-03 0.000000000000D+00 0.000000000000D+00 0.208270104104D-02 0.000000000000D+00  5 21 -1 25 24 -2 2 0.49393103D-01 0.26130936D-01 0.38828189D+05 0.38828189D+05 0.38828189D+05 0.12033138D+01  1  2 12  3  5  1        2 0.161277664650D+00 0.100000000000D+01
-.243531387157D-03 0.000000000000D+00 -.274555396360D-04 0.208270104104D-02 0.000000000000D+00  5 21 -1 25 24 -2 2 0.50108589D-01 0.26130936D-01 0.30023431D+05 0.30023431D+05 0.30023431D+05 0.12148628D+01  1  2  5  3  5  1        2 -.161333301822D+00 0.100000000000D+01
  </mgrwgt>
  </event>
  <event>
  4     66 0.48098993E-03 0.63871076E+02 0.75467711E-02 0.11356264E+00
        2 -1    0    0  501    0 0.00000000E+00 0.00000000E+00 0.24468144E+03 0.24468164E+03 0.32000000E+00 0.0000E+00 0.9000E+01
       -1 -1    0    0    0  501 0.00000000E+00 0.00000000E+00 -.36152191E+03 0.36152206E+03 0.32000000E+00 0.0000E+00 0.9000E+01
       25  1    1    2    0    0 -.15620377E+03 -.40068800E+02 -.29112808E+03 0.35550765E+03 0.12500000E+03 0.0000E+00 0.9000E+01
       24  1    1    2    0    0 0.15620377E+03 0.40068800E+02 0.17428761E+03 0.25069605E+03 0.80419002E+02 0.0000E+00 0.9000E+01
#aMCatNLO 1  0  0  1  2 0.47804798D+02 0.00000000D+00  -5  5  0 0.00000000D+00 0.00000000D+00 0.00000000D+00 0.00000000D+00 0.00000000D+00
  <mgrwgt>
 0.2546865019D+00    9    2    0
 0.297418572114577D+03 0.000000000000000D+00 0.000000000000000D+00 0.297418572114577D+03
 0.297418572114577D+03 0.000000000000000D+00 0.000000000000000D+00 -.297418572114577D+03
 0.305116295881892D+03 -.156203767486185D+03 -.400688001056770D+02 -.226860812600810D+03
 0.289720848347262D+03 0.156203767486185D+03 0.400688001056770D+02 0.226860812600810D+03
 0.000000000000000D+00 -.000000000000000D+00 -.000000000000000D+00 0.000000000000000D+00
 0.335573394384418D+03 0.000000000000000D+00 0.000000000000000D+00 0.335573394384418D+03
 0.313737383307602D+03 0.000000000000000D+00 0.000000000000000D+00 -.313737383307602D+03
 0.295126187422217D+03 -.139635866969868D+03 -.225934252393789D+02 -.226860812600810D+03
 0.301628809897065D+03 0.172526208134203D+03 0.572852705194201D+02 0.226860812600810D+03
 0.525557803727380D+02 -.328903411643351D+02 -.346918452800413D+02 0.218360110768151D+02
0.324754615037D-02 0.000000000000D+00 0.000000000000D+00 0.866320256073D-03 0.000000000000D+00  5 2 -1 25 24 21 0 0.37643325D-01 0.55618783D-01 0.36909221D+05 0.36909221D+05 0.36909221D+05 0.12055631D+01  1  2  2  1  5  1        2 0.170810259944D+00 0.100000000000D+01
-.138521445940D-03 0.000000000000D+00 -.124714323160D-04 0.866320256073D-03 0.000000000000D+00  5 2 -1 25 24 21 2 0.37643325D-01 0.55618783D-01 0.36909221D+05 0.36909221D+05 0.36909221D+05 0.12055631D+01  1  2  3  1  5  1        2 -.105890147606D-01 0.100000000000D+01
0.222033383471D-03 0.000000000000D+00 0.000000000000D+00 0.866320256073D-03 0.000000000000D+00  5 2 -1 25 24 21 2 0.37643325D-01 0.55618783D-01 0.36909221D+05 0.36909221D+05 0.36909221D+05 0.12055631D+01  1  2 15  1  5  1        2 0.169729297797D-01 0.100000000000D+01
0.567590163604D-02 0.000000000000D+00 0.000000000000D+00 0.866320256073D-03 0.000000000000D+00  5 2 -1 25 24 21 2 0.43405657D-01 0.55618783D-01 0.47383517D+05 0.47383517D+05 0.47383517D+05 0.11946005D+01  1  2 12  1  5  1        2 0.365131105233D+00 0.100000000000D+01
-.567989992302D-02 0.000000000000D+00 0.000000000000D+00 0.866320256073D-03 0.000000000000D+00  5 2 -1 25 24 21 2 0.37643325D-01 0.55618783D-01 0.36909221D+05 0.36909221D+05 0.36909221D+05 0.12055631D+01  1  2  4  1  5  1        2 -.434189404503D+00 0.100000000000D+01
-.114674481915D-01 0.000000000000D+00 -.316659544707D-02 0.866320256073D-03 0.000000000000D+00  5 2 -1 25 24 21 2 0.44510243D-01 0.55618783D-01 0.36909221D+05 0.36909221D+05 0.36909221D+05 0.12055631D+01  1  2  5  1  5  1        2 -.732247600640D+00 0.100000000000D+01
0.118748959268D-01 0.000000000000D+00 0.312265447052D-02 0.866320256073D-03 0.000000000000D+00  5 2 -1 25 24 21 2 0.37643325D-01 0.55618783D-01 0.36909221D+05 0.36909221D+05 0.36909221D+05 0.12055631D+01  1  2  6  1  5  1        2 0.907754372591D+00 0.100000000000D+01
0.124136201362D-03 0.000000000000D+00 0.000000000000D+00 0.866320256073D-03 0.000000000000D+00  5 21 -1 25 24 -2 2 0.43405657D-01 0.55618783D-01 0.47383517D+05 0.47383517D+05 0.47383517D+05 0.11946005D+01  1  2 12  3  5  1        2 0.279212587891D-01 0.100000000000D+01
-.259079188301D-03 0.000000000000D+00 -.789354310884D-04 0.866320256073D-03 0.000000000000D+00  5 21 -1 25 24 -2 2 0.44510243D-01 0.55618783D-01 0.36909221D+05 0.36909221D+05 0.36909221D+05 0.12055631D+01  1  2  5  3  5  1        2 -.568774045482D-01 0.100000000000D+01
  </mgrwgt>
  </event>
  <event>
  4     66 0.48098993E-03 0.81723627E+02 0.75467711E-02 0.12466891E+00
        2 -1    0    0  501    0 0.00000000E+00 0.00000000E+00 0.41789730E+03 0.41789742E+03 0.32000000E+00 0.0000E+00 0.9000E+01
       -1 -1    0    0    0  501 0.00000000E+00 0.00000000E+00 -.36343478E+02 0.36344887E+02 0.32000000E+00 0.0000E+00 0.9000E+01
       25  1    1    2    0    0 0.53106641E+02 0.19981321E+02 0.15391994E+03 0.20624238E+03 0.12500000E+03 0.0000E+00 0.9000E+01
       24  1    1    2    0    0 -.53106641E+02 -.19981321E+02 0.22763388E+03 0.24799993E+03 0.80419002E+02 0.0000E+00 0.9000E+01
#aMCatNLO 1  0  0  2  1 0.49913510D+02 0.00000000D+00  -5  5  0 0.00000000D+00 0.00000000D+00 0.00000000D+00 0.00000000D+00 0.00000000D+00
  <mgrwgt>
 0.1937587077D-03    1    2    0
 0.123240371479185D+03 0.000000000000000D+00 0.000000000000000D+00 0.123240371479185D+03
 0.123240371479185D+03 0.000000000000000D+00 0.000000000000000D+00 -.123240371479185D+03
 0.141817449622722D+03 0.531066409977737D+02 0.199813214891793D+02 -.356036583931062D+02
 0.104663293335648D+03 -.531066409977737D+02 -.199813214891793D+02 0.356036583931062D+02
 0.000000000000000D+00 -.000000000000000D+00 0.000000000000000D+00 0.000000000000000D+00
 0.132005739190335D+03 0.000000000000000D+00 0.000000000000000D+00 0.132005739190335D+03
 0.125121045140318D+03 0.000000000000000D+00 0.000000000000000D+00 -.125121045140318D+03
 0.143314851969414D+03 0.574713903527511D+02 0.185355225166078D+02 -.356036583931062D+02
 0.103294114085025D+03 -.499232697878694D+02 -.210357955151264D+02 0.356036583931062D+02
 0.105178182762135D+02 -.754812056488168D+01 0.250027299851861D+01 0.688469405001708D+01
0.102573021087D-06 0.000000000000D+00 0.000000000000D+00 0.252659007377D-02 0.000000000000D+00  5 2 -1 25 24 21 2 0.64292010D-01 0.55914221D-02 0.13888267D+05 0.13888267D+05 0.13888267D+05 0.12516532D+01  1  2 14  2  5  2       -1 0.193758707650D-03 0.100000000000D+01
  </mgrwgt>
  </event>
  <event>
  5     66 0.48098993E-03 0.12028516E+03 0.75467711E-02 0.11823783E+00
        2 -1    0    0  501    0 0.00000000E+00 0.00000000E+00 0.21292753E+04 0.21292754E+04 0.32000000E+00 0.0000E+00 0.9000E+01
       21 -1    0    0  502  501 0.00000000E+00 0.00000000E+00 -.13599105E+02 0.13619771E+02 0.75000000E+00 0.0000E+00 0.9000E+01
       25  1    1    2    0    0 -.17914888E+02 0.24484149E+02 0.95012557E+03 0.95879300E+03 0.12500000E+03 0.0000E+00 0.9000E+01
       24  1    1    2    0    0 0.94658094E+02 -.89744063E+01 0.57124530E+03 0.58466153E+03 0.80419002E+02 0.0000E+00 0.9000E+01
        1  1    1    2  502    0 -.76743205E+02 -.15509743E+02 0.59430535E+03 0.59944059E+03 0.32000000E+00 0.0000E+00 0.9000E+01
#aMCatNLO 2  0  0  2  2 0.78294775D+02 0.00000000D+00  -5  5  0 0.00000000D+00 0.00000000D+00 0.00000000D+00 0.00000000D+00 0.00000000D+00
  <mgrwgt>
 0.1017136614D+00    1    2    0
 0.124048866376007D+03 0.000000000000000D+00 0.000000000000000D+00 0.124048866376007D+03
 0.124048866376007D+03 0.000000000000000D+00 0.000000000000000D+00 -.124048866376007D+03
 0.142504867452775D+03 -.593742976741747D+02 0.161052344487279D+02 0.299658379956726D+02
 0.105592865299240D+03 0.593742976741747D+02 -.161052344487279D+02 -.299658379956726D+02
 0.000000000000000D+00 -.000000000000000D+00 -.000000000000000D+00 0.000000000000000D+00
 0.180744775512846D+03 0.000000000000000D+00 0.000000000000000D+00 0.180744775512846D+03
 0.160327166893020D+03 0.000000000000000D+00 0.000000000000000D+00 -.160327166893020D+03
 0.132073344162241D+03 -.179148883044697D+02 0.244841493308058D+02 0.299658379956726D+02
 0.128085370300805D+03 0.946580937683686D+02 -.897440628005950D+01 -.299658379956726D+02
 0.809132279428203D+02 -.767432054638989D+02 -.155097430507463D+02 0.204176086198267D+02
0.722762805721D-05 0.000000000000D+00 0.000000000000D+00 0.257303180179D-02 0.176906906780D-06  5 2 21 25 24 1 2 0.32758179D+00 0.20937576D-02 0.27465526D+05 0.27465526D+05 0.27465526D+05 0.12189423D+01  1  2  1  4  5  2       -1 0.101713661388D+00 0.100000000000D+01
  </mgrwgt>
  </event>
  <event>
  4     66 0.48098993E-03 0.19795440E+03 0.75467711E-02 0.10364621E+00
        2 -1    0    0  501    0 0.00000000E+00 0.00000000E+00 0.45016183E+03 0.45016194E+03 0.32000000E+00 0.0000E+00 0.9000E+01
       -1 -1    0    0    0  501 0.00000000E+00 0.00000000E+00 -.37741058E+03 0.37741072E+03 0.32000000E+00 0.0000E+00 0.9000E+01
       25  1    1    2    0    0 -.36623016E+03 0.15245603E+03 0.75918269E+02 0.42279541E+03 0.12500000E+03 0.0000E+00 0.9000E+01
       24  1    1    2    0    0 0.36623016E+03 -.15245603E+03 -.31670230E+01 0.40477725E+03 0.80419002E+02 0.0000E+00 0.9000E+01
#aMCatNLO 1  0  0  1  2 0.22721140D+02 0.00000000D+00  -5  5  0 0.00000000D+00 0.00000000D+00 0.00000000D+00 0.00000000D+00 0.00000000D+00
  <mgrwgt>
 0.5417417085D+00    9    2    0
 0.412184350676426D+03 0.000000000000000D+00 0.000000000000000D+00 0.412184350676426D+03
 0.412184350676426D+03 0.000000000000000D+00 0.000000000000000D+00 -.412184350676426D+03
 0.417738773127570D+03 -.366230162650787D+03 0.152456031734281D+03 0.389012715311723D+02
 0.406629928225282D+03 0.366230162650787D+03 -.152456031734281D+03 -.389012715311723D+02
 0.000000000000000D+00 -.000000000000000D+00 -.000000000000000D+00 0.000000000000000D+00
 0.426594928560479D+03 0.000000000000000D+00 0.000000000000000D+00 0.426594928560479D+03
 0.421395328613010D+03 0.000000000000000D+00 0.000000000000000D+00 -.421395328613010D+03
 0.420148023343786D+03 -.364082266425069D+03 0.163799132683092D+03 0.389012715311723D+02
 0.404533737065631D+03 0.368309554977357D+03 -.141474701821753D+03 -.389012715311723D+02
 0.233084967640720D+02 -.422728855228765D+01 -.223244308613397D+02 0.519959994746853D+01
0.897231387581D-02 0.000000000000D+00 0.000000000000D+00 0.193795072173D-02 0.000000000000D+00  5 2 -1 25 24 21 0 0.69255685D-01 0.58063185D-01 0.16838235D+06 0.16838235D+06 0.16838235D+06 0.11433388D+01  1  2  2  1  5  1        2 0.220631889444D+00 0.100000000000D+01
-.498449748511D-03 0.000000000000D+00 -.344560477476D-04 0.193795072173D-02 0.000000000000D+00  5 2 -1 25 24 21 2 0.69255685D-01 0.58063185D-01 0.16838235D+06 0.16838235D+06 0.16838235D+06 0.11433388D+01  1  2  3  1  5  1        2 -.160226783007D-01 0.100000000000D+01
0.617064434959D-03 0.000000000000D+00 0.000000000000D+00 0.193795072173D-02 0.000000000000D+00  5 2 -1 25 24 21 2 0.69255685D-01 0.58063185D-01 0.16838235D+06 0.16838235D+06 0.16838235D+06 0.11433388D+01  1  2 15  1  5  1        2 0.198355500463D-01 0.100000000000D+01
0.234187766840D-01 0.000000000000D+00 0.000000000000D+00 0.193795072173D-02 0.000000000000D+00  5 2 -1 25 24 21 2 0.72428555D-01 0.58063185D-01 0.17796726D+06 0.17796726D+06 0.17796726D+06 0.11412522D+01  1  2 12  1  5  1        2 0.712499639687D+00 0.100000000000D+01
-.206767853013D-01 0.000000000000D+00 0.000000000000D+00 0.193795072173D-02 0.000000000000D+00  5 2 -1 25 24 21 2 0.69255685D-01 0.58063185D-01 0.16838235D+06 0.16838235D+06 0.16838235D+06 0.11433388D+01  1  2  4  1  5  1        2 -.664655725408D+00 0.100000000000D+01
-.161618679492D+00 0.000000000000D+00 -.250403442080D-01 0.193795072173D-02 0.000000000000D+00  5 2 -1 25 24 21 2 0.73014440D-01 0.58063185D-01 0.16838235D+06 0.16838235D+06 0.16838235D+06 0.11433388D+01  1  2  5  1  5  1        2 -.489489865170D+01 0.100000000000D+01
0.162749684015D+00 0.000000000000D+00 0.250054118520D-01 0.193795072173D-02 0.000000000000D+00  5 2 -1 25 24 21 2 0.69255685D-01 0.58063185D-01 0.16838235D+06 0.16838235D+06 0.16838235D+06 0.11433388D+01  1  2  6  1  5  1        2 0.523159222832D+01 0.100000000000D+01
0.308389630615D-03 0.000000000000D+00 0.000000000000D+00 0.193795072173D-02 0.000000000000D+00  5 21 -1 25 24 -2 2 0.72428555D-01 0.58063185D-01 0.17796726D+06 0.17796726D+06 0.17796726D+06 0.11412522D+01  1  2 12  3  5  1        2 0.183192337336D-01 0.100000000000D+01
-.145746180680D-02 0.000000000000D+00 -.229612013838D-03 0.193795072173D-02 0.000000000000D+00  5 21 -1 25 24 -2 2 0.73014440D-01 0.58063185D-01 0.16838235D+06 0.16838235D+06 0.16838235D+06 0.11433388D+01  1  2  5  3  5  1        2 -.855597773294D-01 0.100000000000D+01
  </mgrwgt>
  </event>
  <event>
  5     66 0.48098993E-03 0.23444949E+03 0.75467711E-02 0.10966601E+00
        2 -1    0    0  501    0 0.00000000E+00 0.00000000E+00 0.87802366E+03 0.87802372E+03 0.32000000E+00 0.0000E+00 0.9000E+01
       -1 -1    0    0    0  502 0.00000000E+00 0.00000000E+00 -.23020950E+03 0.23020972E+03 0.32000000E+00 0.0000E+00 0.9000E+01
       25  1    1    2    0    0 0.12187659E+03 -.18061542E+03 0.14948443E+03 0.29231220E+03 0.12500000E+03 0.0000E+00 0.9000E+01
       24  1    1    2    0    0 -.44818989E+02 0.20476194E+03 0.62589559E+03 0.66494263E+03 0.80419002E+02 0.0000E+00 0.9000E+01
       21  1    1    2  501  502 -.77057600E+02 -.24146525E+02 -.12756586E+03 0.15097861E+03 0.75000000E+00 0.0000E+00 0.9000E+01
#aMCatNLO 2  0  0  2  1 0.80752266D+02 0.00000000D+00  -5  5  0 0.00000000D+00 0.00000000D+00 0.00000000D+00 0.00000000D+00 0.00000000D+00
  <mgrwgt>
 0.5603193703D-01    2    2    0
 0.277759661664060D+03 0.000000000000000D+00 0.000000000000000D+00 0.277759661664060D+03
 0.277759661664060D+03 0.000000000000000D+00 0.000000000000000D+00 -.277759661664060D+03
 0.286002204867387D+03 0.819988156124121D+02 -.193111387934459D+03 -.148850419136781D+03
 0.269517118460734D+03 -.819988156124121D+02 0.193111387934459D+03 0.148850419136781D+03
 0.000000000000000D+00 -.000000000000000D+00 -.000000000000000D+00 -.000000000000000D+00
 0.284471367948176D+03 0.000000000000000D+00 0.000000000000000D+00 0.284471367948176D+03
 0.710542821660500D+03 0.000000000000000D+00 0.000000000000000D+00 -.710542821660500D+03
 0.291988490444848D+03 0.121876589750301D+03 -.180615415028459D+03 -.148850419136781D+03
 0.269369369629669D+03 -.448189893066955D+02 0.204761940459270D+03 0.148850419136781D+03
 0.433656329534160D+03 -.770576004436057D+02 -.241465254308110D+02 -.426071453712324D+03
-.100544790461D-01 0.000000000000D+00 0.000000000000D+00 0.146067705325D-02 0.000000000000D+00  5 2 -1 25 24 21 2 0.13189340D+00 0.35288606D-01 0.77411402D+05 0.77411402D+05 0.77411402D+05 0.11739266D+01  1  2 13  2  5  2       -1 -.397339308090D+00 0.100000000000D+01
0.119160826388D-01 0.000000000000D+00 0.000000000000D+00 0.146067705325D-02 0.248223055853D-05  5 2 -1 25 24 21 2 0.13508043D+00 0.35416828D-01 0.77411402D+05 0.77411402D+05 0.77411402D+05 0.11739266D+01  1  2  1  2  5  2       -1 0.453371245122D+00 0.100000000000D+01
  </mgrwgt>
  </event>
  <event>
  4     66 0.48098993E-03 0.19538181E+03 0.75467711E-02 0.11340580E+00
        2 -1    0    0  501    0 0.00000000E+00 0.00000000E+00 0.15870447E+04 0.15870447E+04 0.32000000E+00 0.0000E+00 0.9000E+01
       -1 -1    0    0    0  501 0.00000000E+00 0.00000000E+00 -.25777321E+02 0.25779307E+02 0.32000000E+00 0.0000E+00 0.9000E+01
       25  1    1    2    0    0 -.11149405E+03 -.12179626E+03 0.61607656E+03 0.64995429E+03 0.12500000E+03 0.0000E+00 0.9000E+01
       24  1    1    2    0    0 0.11149405E+03 0.12179626E+03 0.94519078E+03 0.96286971E+03 0.80419002E+02 0.0000E+00 0.9000E+01
#aMCatNLO 1  0  0  1  1 0.46277582D+02 0.00000000D+00  -5  5  0 0.00000000D+00 0.00000000D+00 0.00000000D+00 0.00000000D+00 0.00000000D+00
  <mgrwgt>
 0.1443233041D+00    4    2    0
 0.202265636459488D+03 0.000000000000000D+00 0.000000000000000D+00 0.202265636459488D+03
 0.202265636459488D+03 0.000000000000000D+00 0.000000000000000D+00 -.202265636459488D+03
 0.213584642749842D+03 -.111494050965891D+03 -.121796259131518D+03 -.522316712288729D+02
 0.190946630169134D+03 0.111494050965891D+03 0.121796259131518D+03 0.522316712288729D+02
 0.000000000000000D+00 0.000000000000000D+00 0.000000000000000D+00 -.000000000000000D+00
 0.220716639207350D+03 0.000000000000000D+00 0.000000000000000D+00 0.220716639207350D+03
 0.234836908064423D+03 0.000000000000000D+00 0.000000000000000D+00 -.234836908064423D+03
 0.231613115564854D+03 -.135456827544779D+03 -.130165032531019D+03 -.522316712288729D+02
 0.175556585374201D+03 0.917670094310123D+02 0.114906776190989D+03 0.522316712288729D+02
 0.483838463327186D+02 0.436898181137669D+02 0.152582563400298D+02 -.141202688570734D+02
0.121474963679D-02 0.000000000000D+00 0.000000000000D+00 0.202023567757D-02 0.000000000000D+00  5 2 -1 25 24 21 0 0.24416087D+00 0.39658970D-02 0.38174053D+05 0.38174053D+05 0.38174053D+05 0.12040663D+01  1  2  2  1  5  1        2 0.421214319929D+00 0.100000000000D+01
-.673877112343D-04 0.000000000000D+00 -.466495845620D-05 0.202023567757D-02 0.000000000000D+00  5 2 -1 25 24 21 2 0.24416087D+00 0.39658970D-02 0.38174053D+05 0.38174053D+05 0.38174053D+05 0.12040663D+01  1  2  3  1  5  1        2 -.338764498524D-01 0.100000000000D+01
0.838237642227D-04 0.000000000000D+00 0.000000000000D+00 0.202023567757D-02 0.000000000000D+00  5 2 -1 25 24 21 2 0.24416087D+00 0.39658970D-02 0.38174053D+05 0.38174053D+05 0.38174053D+05 0.12040663D+01  1  2 15  1  5  1        2 0.421390115959D-01 0.100000000000D+01
-.567233196804D-03 0.000000000000D+00 0.000000000000D+00 0.202023567757D-02 0.000000000000D+00  5 2 -1 25 24 21 2 0.24416087D+00 0.39658970D-02 0.38174053D+05 0.38174053D+05 0.38174053D+05 0.12040663D+01  1  2  4  1  5  1        2 -.285153577620D+00 0.100000000000D+01
  </mgrwgt>
  </event>
  <event>
  4     66 0.48098993E-03 0.81964165E+02 0.75467711E-02 0.11557362E+00
        2 -1    0    0  501    0 0.00000000E+00 0.00000000E+00 0.19350808E+03 0.19350834E+03 0.32000000E+00 0.0000E+00 0.9000E+01
       -1 -1    0    0    0  501 0.00000000E+00 0.00000000E+00 -.10062166E+03 0.10062216E+03 0.32000000E+00 0.0000E+00 0.9000E+01
       25  1    1    2    0    0 -.15163729E+02 0.89703662E+02 0.30366138E+02 0.15755567E+03 0.12500000E+03 0.0000E+00 0.9000E+01
       24  1    1    2    0    0 0.15163729E+02 -.89703662E+02 0.62520286E+02 0.13657484E+03 0.80419002E+02 0.0000E+00 0.9000E+01
#aMCatNLO 1  0  0  1  2 0.94493380D+02 0.00000000D+00  -5  5  0 0.00000000D+00 0.00000000D+00 0.00000000D+00 0.00000000D+00 0.00000000D+00
  <mgrwgt>
 0.1199316731D+00    7    2    0
 0.139539303188298D+03 0.000000000000000D+00 0.000000000000000D+00 0.139539303188298D+03
 0.139539303188298D+03 0.000000000000000D+00 0.000000000000000D+00 -.139539303188298D+03
 0.155946479941345D+03 -.151637290108701D+02 0.897036615408209D+02 -.204357293667503D+02
 0.123132126435252D+03 0.151637290108701D+02 -.897036615408209D+02 0.204357293667503D+02
 0.000000000000000D+00 0.000000000000000D+00 -.000000000000000D+00 0.000000000000000D+00
 0.393278359662492D+03 0.000000000000000D+00 0.000000000000000D+00 0.393278359662492D+03
 0.156396723092986D+03 0.000000000000000D+00 0.000000000000000D+00 -.156396723092986D+03
 0.182852519718162D+03 -.650395965153531D+02 0.114726962034431D+03 -.204357293667503D+02
 0.111789411085522D+03 -.194199488958269D+02 -.723526297145428D+02 0.204357293667503D+02
 0.255033151951794D+03 0.844595454111800D+02 -.423743323198884D+02 0.236881636569506D+03
0.550017610069D-03 0.000000000000D+00 0.000000000000D+00 0.245733421335D-02 0.000000000000D+00  5 2 -1 25 24 21 0 0.29770533D-01 0.15480314D-01 0.19047611D+05 0.19047611D+05 0.19047611D+05 0.12361657D+01  1  2  2  1  5  1        2 0.323527285178D+00 0.100000000000D+01
-.305520402538D-04 0.000000000000D+00 -.211221244563D-05 0.245733421335D-02 0.000000000000D+00  5 2 -1 25 24 21 2 0.29770533D-01 0.15480314D-01 0.19047611D+05 0.19047611D+05 0.19047611D+05 0.12361657D+01  1  2  3  1  5  1        2 -.274617297261D-01 0.100000000000D+01
0.379199077254D-04 0.000000000000D+00 0.000000000000D+00 0.245733421335D-02 0.000000000000D+00  5 2 -1 25 24 21 2 0.29770533D-01 0.15480314D-01 0.19047611D+05 0.19047611D+05 0.19047611D+05 0.12361657D+01  1  2 15  1  5  1        2 0.340843442383D-01 0.100000000000D+01
0.255964703502D-03 0.000000000000D+00 0.000000000000D+00 0.245733421335D-02 0.000000000000D+00  5 2 -1 25 24 21 2 0.82114343D-01 0.15480314D-01 0.37269463D+05 0.37269463D+05 0.37269463D+05 0.12051311D+01  1  2 12  1  5  1        2 0.741913414549D-01 0.100000000000D+01
-.920925628078D-03 0.000000000000D+00 -.206074771984D-03 0.245733421335D-02 0.000000000000D+00  5 2 -1 25 24 21 2 0.89922522D-01 0.15480314D-01 0.19047611D+05 0.19047611D+05 0.19047611D+05 0.12361657D+01  1  2  5  1  5  1        2 -.251797486578D+00 0.100000000000D+01
0.290826546827D-04 0.000000000000D+00 0.000000000000D+00 0.245733421335D-02 0.000000000000D+00  5 21 -1 25 24 -2 2 0.82114343D-01 0.15480314D-01 0.37269463D+05 0.37269463D+05 0.37269463D+05 0.12051311D+01  1  2 12  3  5  1        2 0.150794429665D-01 0.100000000000D+01
-.105811026466D-03 0.000000000000D+00 -.259527107052D-04 0.245733421335D-02 0.000000000000D+00  5 21 -1 25 24 -2 2 0.89922522D-01 0.15480314D-01 0.19047611D+05 0.19047611D+05 0.19047611D+05 0.12361657D+01  1  2  5  3  5  1        2 -.476915244727D-01 0.100000000000D+01
  </mgrwgt>
  </event>
  <event>
  4     66 0.48098993E-03 0.10614581E+03 0.75467711E-02 0.12288224E+00
        2 -1    0    0  501    0 0.00000000E+00 0.00000000E+00 0.31539602E+04 0.31539602E+04 0.32000000E+00 0.0000E+00 0.9000E+01
       -1 -1    0    0    0  501 0.00000000E+00 0.00000000E+00 -.35861534E+01 0.36004022E+01 0.32000000E+00 0.0000E+00 0.9000E+01
       25  1    1    2    0    0 -.25115192E+02 -.74343034E+01 0.20115338E+04 0.20155841E+04 0.12500000E+03 0.0000E+00 0.9000E+01
       24  1    1    2    0    0 0.25115192E+02 0.74343034E+01 0.11388402E+04 0.11419765E+04 0.80419002E+02 0.0000E+00 0.9000E+01
#aMCatNLO 1  0  0  1  1 0.41796437D+02 0.00000000D+00  -5  5  0 0.00000000D+00 0.00000000D+00 0.00000000D+00 0.00000000D+00 0.00000000D+00
  <mgrwgt>
 0.1250984159D+01    7    2    0
 0.106457062759235D+03 0.000000000000000D+00 0.000000000000000D+00 0.106457062759235D+03
 0.106457062759235D+03 0.000000000000000D+00 0.000000000000000D+00 -.106457062759235D+03
 0.127962878832568D+03 -.251151916579401D+02 -.743430336432284D+01 0.796596764935582D+01
 0.849512466859020D+02 0.251151916579401D+02 0.743430336432284D+01 -.796596764935582D+01
 0.000000000000000D+00 0.000000000000000D+00 -.000000000000000D+00 0.000000000000000D+00
 0.129666354813050D+03 0.000000000000000D+00 0.000000000000000D+00 0.129666354813050D+03
 0.129111567567838D+03 0.000000000000000D+00 0.000000000000000D+00 -.129111567567838D+03
 0.129077334520840D+03 -.257794339858398D+02 0.175477186489880D+02 0.796596764935582D+01
 0.879004685602273D+02 0.246685089221198D+02 0.242339523335688D+02 -.796596764935582D+01
 0.418001192998211D+02 0.111092506372003D+01 -.417816709825568D+02 0.554787245212066D+00
0.779201847138D-03 0.000000000000D+00 0.000000000000D+00 0.310121866854D-02 0.000000000000D+00  5 2 -1 25 24 21 0 0.48522574D+00 0.55281321D-03 0.11266933D+05 0.11266933D+05 0.11266933D+05 0.12622452D+01  1  2  2  1  5  1        2 0.659855866075D+00 0.100000000000D+01
-.432885402707D-04 0.000000000000D+00 -.299234026157D-05 0.310121866854D-02 0.000000000000D+00  5 2 -1 25 24 21 2 0.48522574D+00 0.55281321D-03 0.11266933D+05 0.11266933D+05 0.11266933D+05 0.12622452D+01  1  2  3  1  5  1        2 -.584062744477D-01 0.100000000000D+01
0.539895329538D-04 0.000000000000D+00 0.000000000000D+00 0.310121866854D-02 0.000000000000D+00  5 2 -1 25 24 21 2 0.48522574D+00 0.55281321D-03 0.11266933D+05 0.11266933D+05 0.11266933D+05 0.12622452D+01  1  2 15  1  5  1        2 0.728443939038D-01 0.100000000000D+01
-.287820054941D-03 0.000000000000D+00 0.000000000000D+00 0.310121866854D-02 0.000000000000D+00  5 2 -1 25 24 21 2 0.48522574D+00 0.55281321D-03 0.11266933D+05 0.11266933D+05 0.11266933D+05 0.12622452D+01  1  2  4  1  5  1        2 -.388335966409D+00 0.100000000000D+01
-.898056172798D-03 0.000000000000D+00 -.291699796109D-03 0.310121866854D-02 0.000000000000D+00  5 2 -1 25 24 21 2 0.62083915D+00 0.55281321D-03 0.11266933D+05 0.11266933D+05 0.11266933D+05 0.12622452D+01  1  2  5  1  5  1        2 -.315793864522D+00 0.100000000000D+01
0.949601814144D-03 0.000000000000D+00 0.283059472198D-03 0.310121866854D-02 0.000000000000D+00  5 2 -1 25 24 21 2 0.48522574D+00 0.55281321D-03 0.11266933D+05 0.11266933D+05 0.11266933D+05 0.12622452D+01  1  2  6  1  5  1        2 0.128123295048D+01 0.100000000000D+01
-.252991285918D-04 0.000000000000D+00 -.976857246388D-05 0.310121866854D-02 0.000000000000D+00  5 21 -1 25 24 -2 2 0.62083915D+00 0.55281321D-03 0.11266933D+05 0.11266933D+05 0.11266933D+05 0.12622452D+01  1  2  5  3  5  1        2 -.412946462208D-03 0.100000000000D+01
  </mgrwgt>
  </event>
  <event>
  4     66 0.48098993E-03 0.52387376E+02 0.75467711E-02 0.12603271E+00
        2 -1    0    0  501    0 0.00000000E+00 0.00000000E+00 0.19440397E+04 0.19440398E+04 0.32000000E+00 0.0000E+00 0.9000E+01
       -1 -1    0    0    0  501 0.00000000E+00 0.00000000E+00 -.76390227E+01 0.76457222E+01 0.32000000E+00 0.0000E+00 0.9000E+01
       25  1    1    2    0    0 -.20516253E+02 0.41782300E+01 0.16060515E+04 0.16110446E+04 0.12500000E+03 0.0000E+00 0.9000E+01
       24  1    1    2    0    0 0.20516253E+02 -.41782300E+01 0.33034922E+03 0.34064086E+03 0.80419002E+02 0.0000E+00 0.9000E+01
#aMCatNLO 1  0  0  1  2 0.10084612D+02 0.00000000D+00  -5  5  0 0.00000000D+00 0.00000000D+00 0.00000000D+00 0.00000000D+00 0.00000000D+00
  <mgrwgt>
 0.6414876172D+00    6    2    0
 0.121889815533307D+03 0.000000000000000D+00 0.000000000000000D+00 0.121889815533307D+03
 0.121889815533307D+03 0.000000000000000D+00 0.000000000000000D+00 -.121889815533307D+03
 0.140672730261582D+03 -.205162533474166D+02 0.417823000398964D+01 0.610364053812664D+02
 0.103106900805031D+03 0.205162533474166D+02 -.417823000398964D+01 -.610364053812664D+02
 0.000000000000000D+00 -.000000000000000D+00 0.000000000000000D+00 -.000000000000000D+00
 0.125954363596458D+03 0.000000000000000D+00 0.000000000000000D+00 0.125954363596458D+03
 0.128413998653217D+03 0.000000000000000D+00 0.000000000000000D+00 -.128413998653217D+03
 0.140058853489793D+03 -.163097390971947D+02 0.179079843625304D+00 0.610364053812664D+02
 0.103929277215920D+03 0.236185071854738D+02 -.712755531135149D+01 -.610364053812664D+02
 0.103802315439628D+02 -.730876808827912D+01 0.694847546772618D+01 -.245963505675964D+01
0.273534092906D-03 0.000000000000D+00 0.000000000000D+00 0.214959710595D-02 0.000000000000D+00  5 2 -1 25 24 21 0 0.29908355D+00 0.11757516D-02 0.11008337D+05 0.11008337D+05 0.11008337D+05 0.12634382D+01  1  2  2  1  5  1        2 0.356146433862D+00 0.100000000000D+01
-.147810965141D-04 0.000000000000D+00 -.105044293994D-05 0.214959710595D-02 0.000000000000D+00  5 2 -1 25 24 21 2 0.29908355D+00 0.11757516D-02 0.11008337D+05 0.11008337D+05 0.11008337D+05 0.12634382D+01  1  2  3  1  5  1        2 -.307207468713D-01 0.100000000000D+01
0.188323946621D-04 0.000000000000D+00 0.000000000000D+00 0.214959710595D-02 0.000000000000D+00  5 2 -1 25 24 21 2 0.29908355D+00 0.11757516D-02 0.11008337D+05 0.11008337D+05 0.11008337D+05 0.12634382D+01  1  2 15  1  5  1        2 0.391408870678D-01 0.100000000000D+01
0.525138094250D-03 0.000000000000D+00 0.000000000000D+00 0.214959710595D-02 0.000000000000D+00  5 2 -1 25 24 21 2 0.31672781D+00 0.11757516D-02 0.12128877D+05 0.12128877D+05 0.12128877D+05 0.12584807D+01  1  2 12  1  5  1        2 0.949123574009D+00 0.100000000000D+01
-.325005182688D-03 0.000000000000D+00 0.000000000000D+00 0.214959710595D-02 0.000000000000D+00  5 2 -1 25 24 21 2 0.29908355D+00 0.11757516D-02 0.11008337D+05 0.11008337D+05 0.11008337D+05 0.12634382D+01  1  2  4  1  5  1        2 -.675484524420D+00 0.100000000000D+01
0.545876507607D-05 0.000000000000D+00 0.000000000000D+00 0.214959710595D-02 0.000000000000D+00  5 21 -1 25 24 -2 2 0.31672781D+00 0.11757516D-02 0.12128877D+05 0.12128877D+05 0.12128877D+05 0.12584807D+01  1  2 12  3  5  1        2 0.328199351042D-02 0.100000000000D+01
  </mgrwgt>
  </event>
  <event>
  4     66 0.48098993E-03 0.13547736E+03 0.75467711E-02 0.11665992E+00
        2 -1    0    0  501    0 0.00000000E+00 0.00000000E+00 0.37324059E+03 0.37324072E+03 0.32000000E+00 0.0000E+00 0.9000E+01
       -1 -1    0    0    0  501 0.00000000E+00 0.00000000E+00 -.54532020E+02 0.54532958E+02 0.32000000E+00 0.0000E+00 0.9000E+01
       25  1    1    2    0    0 -.10593109E+02 0.86494923E+02 0.24384804E+03 0.28754209E+03 0.12500000E+03 0.0000E+00 0.9000E+01
       24  1    1    2    0    0 0.10593109E+02 -.86494923E+02 0.74860528E+02 0.14023159E+03 0.80419002E+02 0.0000E+00 0.9000E+01
#aMCatNLO 1  0  0  2  2 0.80772624D+02 0.00000000D+00  -5  5  0 0.00000000D+00 0.00000000D+00 0.00000000D+00 0.00000000D+00 0.00000000D+00
  <mgrwgt>
 0.4546084721D+00    3    2    0
 0.142666720273966D+03 0.000000000000000D+00 0.000000000000000D+00 0.142666720273966D+03
 0.142666720273966D+03 0.000000000000000D+00 0.000000000000000D+00 -.142666720273966D+03
 0.158714233015626D+03 -.105931087567748D+02 0.864949228982104D+02 0.444029517198839D+02
 0.126619207532306D+03 0.105931087567748D+02 -.864949228982104D+02 -.444029517198839D+02
 0.000000000000000D+00 -.000000000000000D+00 -.000000000000000D+00 0.000000000000000D+00
 0.310998125142276D+03 0.000000000000000D+00 0.000000000000000D+00 0.310998125142276D+03
 0.158296244315433D+03 0.000000000000000D+00 0.000000000000000D+00 -.158296244315433D+03
 0.188044044973725D+03 0.727523433204748D+00 0.133279448671939D+03 0.444029517198839D+02
 0.108501717351532D+03 0.182691115510310D+02 -.547724762591467D+02 -.444029517198839D+02
 0.172748607132453D+03 -.189966349842357D+02 -.785069724127925D+02 0.152701880826843D+03
0.594658966939D-03 0.000000000000D+00 0.000000000000D+00 0.225731261255D-02 0.000000000000D+00  5 2 -1 25 24 21 0 0.57421711D-01 0.83896242D-02 0.18354114D+05 0.18354114D+05 0.18354114D+05 0.12379533D+01  1  2  2  2  5  2       -1 0.445242531731D+00 0.100000000000D+01
-.329292172947D-04 0.000000000000D+00 -.228364701035D-05 0.225731261255D-02 0.000000000000D+00  5 2 -1 25 24 21 2 0.57421711D-01 0.83896242D-02 0.18354114D+05 0.18354114D+05 0.18354114D+05 0.12379533D+01  1  2  3  2  5  2       -1 -.377849298380D-01 0.100000000000D+01
0.410915477698D-04 0.000000000000D+00 0.000000000000D+00 0.225731261255D-02 0.000000000000D+00  5 2 -1 25 24 21 2 0.57421711D-01 0.83896242D-02 0.18354114D+05 0.18354114D+05 0.18354114D+05 0.12379533D+01  1  2 15  2  5  2       -1 0.471508701686D-01 0.100000000000D+01
  </mgrwgt>
  </event>
  <event>
  4     66 0.48098993E-03 0.70441025E+02 0.75467711E-02 0.12416141E+00
        2 -1    0    0  501    0 0.00000000E+00 0.00000000E+00 0.34145009E+04 0.34145009E+04 0.32000000E+00 0.0000E+00 0.9000E+01
       -1 -1    0    0    0  501 0.00000000E+00 0.00000000E+00 -.40332682E+01 0.40459427E+01 0.32000000E+00 0.0000E+00 0.9000E+01
       25  1    1    2    0    0 0.39322680E+02 -.17086670E+02 0.14657596E+04 0.14717046E+04 0.12500000E+03 0.0000E+00 0.9000E+01
       24  1    1    2    0    0 -.39322680E+02 0.17086670E+02 0.19447080E+04 0.19468422E+04 0.80419002E+02 0.0000E+00 0.9000E+01
#aMCatNLO 1  0  0  1  2 0.17739875D+02 0.00000000D+00  -5  5  0 0.00000000D+00 0.00000000D+00 0.00000000D+00 0.00000000D+00 0.00000000D+00
  <mgrwgt>
 0.1143190954D+01    9    2    0
 0.117444827180226D+03 0.000000000000000D+00 0.000000000000000D+00 0.117444827180226D+03
 0.117444827180226D+03 0.000000000000000D+00 0.000000000000000D+00 -.117444827180226D+03
 0.136938627515034D+03 0.393226802262226D+02 -.170866699888024D+02 -.359020923376513D+02
 0.979510268454179D+02 -.393226802262226D+02 0.170866699888024D+02 0.359020923376513D+02
 0.000000000000000D+00 0.000000000000000D+00 -.000000000000000D+00 0.000000000000000D+00
 0.130250026851650D+03 0.000000000000000D+00 0.000000000000000D+00 0.130250026851650D+03
 0.124088135748925D+03 0.000000000000000D+00 0.000000000000000D+00 -.124088135748925D+03
 0.135083368168727D+03 0.357450158171023D+02 -.747328346992027D+01 -.359020923376513D+02
 0.100475229395774D+03 -.419324050501459D+02 0.240991481229564D+02 0.359020923376513D+02
 0.187795650360731D+02 0.618738923304366D+01 -.166258646530362D+02 0.616189110272452D+01
0.813709753599D-03 0.000000000000D+00 0.000000000000D+00 0.260662639353D-02 0.000000000000D+00  5 2 -1 25 24 21 0 0.52530880D+00 0.62147891D-03 0.12463792D+05 0.12463792D+05 0.12463792D+05 0.12570985D+01  1  2  2  1  5  1        2 0.405384079037D+00 0.100000000000D+01
-.450649404535D-04 0.000000000000D+00 -.312485970852D-05 0.260662639353D-02 0.000000000000D+00  5 2 -1 25 24 21 2 0.52530880D+00 0.62147891D-03 0.12463792D+05 0.12463792D+05 0.12463792D+05 0.12570985D+01  1  2  3  1  5  1        2 -.354792644788D-01 0.100000000000D+01
0.563569325855D-04 0.000000000000D+00 0.000000000000D+00 0.260662639353D-02 0.000000000000D+00  5 2 -1 25 24 21 2 0.52530880D+00 0.62147891D-03 0.12463792D+05 0.12463792D+05 0.12463792D+05 0.12570985D+01  1  2 15  1  5  1        2 0.443693588916D-01 0.100000000000D+01
0.917497187458D-03 0.000000000000D+00 0.000000000000D+00 0.260662639353D-02 0.000000000000D+00  5 2 -1 25 24 21 2 0.59617692D+00 0.62147891D-03 0.14617638D+05 0.14617638D+05 0.14617638D+05 0.12491030D+01  1  2 12  1  5  1        2 0.349650994686D+00 0.100000000000D+01
-.861747729883D-03 0.000000000000D+00 0.000000000000D+00 0.260662639353D-02 0.000000000000D+00  5 2 -1 25 24 21 2 0.52530880D+00 0.62147891D-03 0.12463792D+05 0.12463792D+05 0.12463792D+05 0.12570985D+01  1  2  4  1  5  1        2 -.678447043639D+00 0.100000000000D+01
-.269293774251D-02 0.000000000000D+00 -.545203327736D-03 0.260662639353D-02 0.000000000000D+00  5 2 -1 25 24 21 2 0.59020159D+00 0.62147891D-03 0.12463792D+05 0.12463792D+05 0.12463792D+05 0.12570985D+01  1  2  5  1  5  1        2 -.111060145211D+01 0.100000000000D+01
0.275508797175D-02 0.000000000000D+00 0.548041033083D-03 0.260662639353D-02 0.000000000000D+00  5 2 -1 25 24 21 2 0.52530880D+00 0.62147891D-03 0.12463792D+05 0.12463792D+05 0.12463792D+05 0.12570985D+01  1  2  6  1  5  1        2 0.216905855923D+01 0.100000000000D+01
0.182006111584D-04 0.000000000000D+00 0.000000000000D+00 0.260662639353D-02 0.000000000000D+00  5 21 -1 25 24 -2 2 0.59617692D+00 0.62147891D-03 0.14617638D+05 0.14617638D+05 0.14617638D+05 0.12491030D+01  1  2 12  3  5  1        2 0.373688249131D-03 0.100000000000D+01
-.474413831741D-04 0.000000000000D+00 -.100880706349D-04 0.260662639353D-02 0.000000000000D+00  5 21 -1 25 24 -2 2 0.59020159D+00 0.62147891D-03 0.12463792D+05 0.12463792D+05 0.12463792D+05 0.12570985D+01  1  2  5  3  5  1        2 -.111796626480D-02 0.100000000000D+01
  </mgrwgt>
  </event>
  <event>
  4     66 0.48098993E-03 0.10640153E+03 0.75467711E-02 0.10886286E+00
        2 -1    0    0  501    0 0.00000000E+00 0.00000000E+00 0.20246558E+03 0.20246583E+03 0.32000000E+00 0.0000E+00 0.9000E+01
       -1 -1    0    0    0  501 0.00000000E+00 0.00000000E+00 -.56050277E+02 0.56051191E+02 0.32000000E+00 0.0000E+00 0.9000E+01
       25  1    1    2    0    0 0.18618083E+02 -.19787078E+02 0.94164845E+02 0.15884011E+03 0.12500000E+03 0.0000E+00 0.9000E+01
       24  1    1    2    0    0 -.18618083E+02 0.19787078E+02 0.52250457E+02 0.99676917E+02 0.80419002E+02 0.0000E+00 0.9000E+01
#aMCatNLO 1  0  0  1  2 0.25471888D+03 0.00000000D+00  -5  5  0 0.00000000D+00 0.00000000D+00 0.00000000D+00 0.00000000D+00 0.00000000D+00
  <mgrwgt>
 0.3951462248D+00    3    2    0
 0.106528881671192D+03 0.000000000000000D+00 0.000000000000000D+00 0.106528881671192D+03
 0.106528881671192D+03 0.000000000000000D+00 0.000000000000000D+00 -.106528881671192D+03
 0.128020199100712D+03 0.186180827344549D+02 -.197870776199634D+02 0.509999336670100D+01
 0.850375642416714D+02 -.186180827344549D+02 0.197870776199634D+02 -.509999336670100D+01
 0.000000000000000D+00 -.000000000000000D+00 -.000000000000000D+00 -.000000000000000D+00
 0.229943065315235D+03 0.000000000000000D+00 0.000000000000000D+00 0.229943065315235D+03
 0.419861861121082D+03 0.000000000000000D+00 0.000000000000000D+00 -.419861861121082D+03
 0.176495284970401D+03 0.224992662680483D+02 0.122447371151209D+03 0.509999336670100D+01
 0.155581994212338D+03 -.155512808245917D+02 0.132176732828027D+03 -.509999336670100D+01
 0.317727647253578D+03 -.694798544345658D+01 -.254624103979236D+03 -.189918795805847D+03
0.286646935030D-03 0.000000000000D+00 0.000000000000D+00 0.310749565711D-02 0.000000000000D+00  5 2 -1 25 24 21 0 0.31148640D-01 0.86232093D-02 0.11321286D+05 0.11321286D+05 0.11321286D+05 0.12619984D+01  1  2  2  1  5  1        2 0.386738114139D+00 0.100000000000D+01
-.159248020211D-04 0.000000000000D+00 -.110079970639D-05 0.310749565711D-02 0.000000000000D+00  5 2 -1 25 24 21 2 0.31148640D-01 0.86232093D-02 0.11321286D+05 0.11321286D+05 0.11321286D+05 0.12619984D+01  1  2  3  1  5  1        2 -.342185266721D-01 0.100000000000D+01
0.198378137997D-04 0.000000000000D+00 0.000000000000D+00 0.310749565711D-02 0.000000000000D+00  5 2 -1 25 24 21 2 0.31148640D-01 0.86232093D-02 0.11321286D+05 0.11321286D+05 0.11321286D+05 0.12619984D+01  1  2 15  1  5  1        2 0.426266373496D-01 0.100000000000D+01
  </mgrwgt>
  </event>
  <event>
  4     66 0.48098993E-03 0.67614023E+02 0.75467711E-02 0.12002498E+00
        2 -1    0    0  501    0 0.00000000E+00 0.00000000E+00 0.36414061E+03 0.36414075E+03 0.32000000E+00 0.0000E+00 0.9000E+01
       -1 -1    0    0    0  501 0.00000000E+00 0.00000000E+00 -.50080516E+02 0.50081539E+02 0.32000000E+00 0.0000E+00 0.9000E+01
       25  1    1    2    0    0 -.18099677E+01 0.26578786E+02 0.30291728E+03 0.32877590E+03 0.12500000E+03 0.0000E+00 0.9000E+01
       24  1    1    2    0    0 0.18099677E+01 -.26578786E+02 0.11142807E+02 0.85446392E+02 0.80419002E+02 0.0000E+00 0.9000E+01
#aMCatNLO 1  0  0  2  1 0.75819458D+02 0.00000000D+00  -5  5  0 0.00000000D+00 0.00000000D+00 0.00000000D+00 0.00000000D+00 0.00000000D+00
  <mgrwgt>
 0.2038713977D+00    7    2    0
 0.135042921063252D+03 0.000000000000000D+00 0.000000000000000D+00 0.135042921063252D+03
 0.135042921063252D+03 0.000000000000000D+00 0.000000000000000D+00 -.135042921063252D+03
 0.151996390326073D+03 -.180996772691187D+01 0.265787862171390D+02 0.822690392079978D+02
 0.118089451800432D+03 0.180996772691187D+01 -.265787862171390D+02 -.822690392079978D+02
 0.000000000000000D+00 0.000000000000000D+00 -.000000000000000D+00 -.000000000000000D+00
 0.154960202295776D+03 0.000000000000000D+00 0.000000000000000D+00 0.154960202295776D+03
 0.238047539080473D+03 0.000000000000000D+00 0.000000000000000D+00 -.238047539080473D+03
 0.163412806026305D+03 -.330983142807132D+02 0.567014281386177D+02 0.822690392079978D+02
 0.117113400140426D+03 -.215219719472450D+02 -.411612067073018D+01 -.822690392079978D+02
 0.112481535209518D+03 0.546202862279582D+02 -.525853074678875D+02 -.830873367846968D+02
0.354064108815D-03 0.000000000000D+00 0.000000000000D+00 0.170858781883D-02 0.000000000000D+00  5 2 -1 25 24 21 0 0.56021722D-01 0.77047843D-02 0.11291616D+05 0.11291616D+05 0.11291616D+05 0.12621329D+01  1  2  2  2  5  2       -1 0.304216924089D+00 0.100000000000D+01
-.182962757254D-04 0.000000000000D+00 -.135969940507D-05 0.170858781883D-02 0.000000000000D+00  5 2 -1 25 24 21 2 0.56021722D-01 0.77047843D-02 0.11291616D+05 0.11291616D+05 0.11291616D+05 0.12621329D+01  1  2  3  2  5  2       -1 -.250423089200D-01 0.100000000000D+01
0.242974759159D-04 0.000000000000D+00 0.000000000000D+00 0.170858781883D-02 0.000000000000D+00  5 2 -1 25 24 21 2 0.56021722D-01 0.77047843D-02 0.11291616D+05 0.11291616D+05 0.11291616D+05 0.12621329D+01  1  2 15  2  5  2       -1 0.332562160188D-01 0.100000000000D+01
0.488150858900D-04 0.000000000000D+00 0.000000000000D+00 0.170858781883D-02 0.000000000000D+00  5 2 -1 25 24 21 2 0.56021722D-01 0.13777613D-01 0.22554566D+05 0.22554566D+05 0.22554566D+05 0.12281199D+01  1  2 12  2  5  2       -1 0.265718825906D-01 0.100000000000D+01
-.207872063912D-03 0.000000000000D+00 -.105432372563D-03 0.170858781883D-02 0.000000000000D+00  5 2 -1 25 24 21 2 0.56021722D-01 0.15474266D-01 0.11291616D+05 0.11291616D+05 0.11291616D+05 0.12621329D+01  1  2  5  2  5  2       -1 -.982004524866D-01 0.100000000000D+01
0.311635620942D-05 0.000000000000D+00 0.000000000000D+00 0.170858781883D-02 0.000000000000D+00  5 2 21 25 24 1 2 0.56021722D-01 0.13777613D-01 0.22554566D+05 0.22554566D+05 0.22554566D+05 0.12281199D+01  1  2 12  4  5  2       -1 0.236856393255D-01 0.100000000000D+01
-.933520118848D-05 0.000000000000D+00 -.795390165242D-05 0.170858781883D-02 0.000000000000D+00  5 2 21 25 24 1 2 0.56021722D-01 0.15474266D-01 0.11291616D+05 0.11291616D+05 0.11291616D+05 0.12621329D+01  1  2  5  4  5  2       -1 -.606165029291D-01 0.100000000000D+01
  </mgrwgt>
  </event>
  <event>
  4     66 0.48098993E-03 0.11698616E+03 0.75467711E-02 0.12458207E+00
        4 -1    0    0  501    0 0.00000000E+00 0.00000000E+00 0.32091424E+03 0.32091798E+03 0.15500000E+01 0.0000E+00 0.9000E+01
       -3 -1    0    0    0  501 0.00000000E+00 0.00000000E+00 -.50948242E+02 0.50950695E+02 0.50000000E+00 0.0000E+00 0.9000E+01
       25  1    1    2    0    0 -.52260333E+02 -.17073535E+02 0.79697258E+02 0.15811167E+03 0.12500000E+03 0.0000E+00 0.9000E+01
       24  1    1    2    0    0 0.52260333E+02 0.17073535E+02 0.19026874E+03 0.21375700E+03 0.80419002E+02 0.0000E+00 0.9000E+01
#aMCatNLO 1  0  0  2  1 0.27635268D+01 0.00000000D+00  -5  5  0 0.00000000D+00 0.00000000D+00 0.00000000D+00 0.00000000D+00 0.00000000D+00
  <mgrwgt>
 0.3848191263D-01    8    2    0
 0.127871686640815D+03 0.000000000000000D+00 0.000000000000000D+00 0.127871686640815D+03
 0.127871686640815D+03 0.000000000000000D+00 0.000000000000000D+00 -.127871686640815D+03
 0.145775931681692D+03 -.522603328367726D+02 -.170735348557344D+02 -.510193519851537D+02
 0.109967441599938D+03 0.522603328367726D+02 0.170735348557344D+02 0.510193519851537D+02
 0.000000000000000D+00 0.000000000000000D+00 -.000000000000000D+00 0.000000000000000D+00
 0.134876180543047D+03 0.000000000000000D+00 0.000000000000000D+00 0.134876180543047D+03
 0.128152020698053D+03 0.000000000000000D+00 0.000000000000000D+00 -.128152020698053D+03
 0.146176313820178D+03 -.536175041850836D+02 -.162697169622816D+02 -.510193519851537D+02
 0.109581990166108D+03 0.512397337390721D+02 0.176780096096367D+02 0.510193519851537D+02
 0.726989725481390D+01 0.237777044601153D+01 -.140829264735508D+01 0.672415984499405D+01
0.335893403602D-03 0.000000000000D+00 0.000000000000D+00 0.227948668249D-02 0.000000000000D+00  5 4 -3 25 24 21 0 0.49371898D-01 0.78386677D-02 0.13685762D+05 0.13685762D+05 0.13685762D+05 0.12523880D+01  1  2  2  2  5  2       -3 0.279533967059D-01 0.100000000000D+01
-.184811415353D-04 0.000000000000D+00 -.128991911260D-05 0.227948668249D-02 0.000000000000D+00  5 4 -3 25 24 21 2 0.49371898D-01 0.78386677D-02 0.13685762D+05 0.13685762D+05 0.13685762D+05 0.12523880D+01  1  2  3  2  5  2       -3 -.241234669403D-02 0.100000000000D+01
0.231770518468D-04 0.000000000000D+00 0.000000000000D+00 0.227948668249D-02 0.000000000000D+00  5 4 -3 25 24 21 2 0.49371898D-01 0.78386677D-02 0.13685762D+05 0.13685762D+05 0.13685762D+05 0.12523880D+01  1  2 15  2  5  2       -3 0.302530470281D-02 0.100000000000D+01
-.784192112200D-04 0.000000000000D+00 0.000000000000D+00 0.227948668249D-02 0.000000000000D+00  5 4 -3 25 24 21 2 0.49371898D-01 0.78386677D-02 0.13685762D+05 0.13685762D+05 0.13685762D+05 0.12523880D+01  1  2  4  2  5  2       -3 -.102360735982D-01 0.100000000000D+01
0.100847449225D-06 0.000000000000D+00 0.000000000000D+00 0.227948668249D-02 0.000000000000D+00  5 4 -3 25 24 21 2 0.49371898D-01 0.82984918D-02 0.13685762D+05 0.13685762D+05 0.13685762D+05 0.12523880D+01  1  2  5  2  5  2       -3 0.120012571144D-04 0.100000000000D+01
-.100683815948D-06 0.000000000000D+00 0.000000000000D+00 0.227948668249D-02 0.000000000000D+00  5 4 -3 25 24 21 2 0.49371898D-01 0.78386677D-02 0.13685762D+05 0.13685762D+05 0.13685762D+05 0.12523880D+01  1  2  6  2  5  2       -3 -.131422764162D-04 0.100000000000D+01
0.780883557362D-04 0.000000000000D+00 0.000000000000D+00 0.227948668249D-02 0.249540290920D-02  5 4 -3 25 24 21 2 0.52076368D-01 0.78558525D-02 0.14010020D+05 0.14010020D+05 0.14010020D+05 0.12512172D+01  1  2 11  2  5  2       -3 0.911527132825D-02 0.100000000000D+01
0.397492381580D-05 0.000000000000D+00 0.000000000000D+00 0.227948668249D-02 0.104751850257D-05  5 4 21 25 24 3 2 0.52076368D-01 0.78558525D-02 0.14010020D+05 0.14010020D+05 0.14010020D+05 0.12512172D+01  1  2 11  4  5  2       -3 0.110375012093D-01 0.100000000000D+01
  </mgrwgt>
  </event>
  <event>
  4     66 0.48098993E-03 0.85768772E+02 0.75467711E-02 0.12180430E+00
        2 -1    0    0  501    0 0.00000000E+00 0.00000000E+00 0.47223628E+03 0.47223638E+03 0.32000000E+00 0.0000E+00 0.9000E+01
       -1 -1    0    0    0  501 0.00000000E+00 0.00000000E+00 -.37166070E+02 0.37167447E+02 0.32000000E+00 0.0000E+00 0.9000E+01
       25  1    1    2    0    0 -.36630471E+02 -.34977247E+02 0.12074077E+03 0.18102080E+03 0.12500000E+03 0.0000E+00 0.9000E+01
       24  1    1    2    0    0 0.36630471E+02 0.34977247E+02 0.31432944E+03 0.32838303E+03 0.80419002E+02 0.0000E+00 0.9000E+01
#aMCatNLO 1  0  0  1  2 0.39359870D+02 0.00000000D+00  -5  5  0 0.00000000D+00 0.00000000D+00 0.00000000D+00 0.00000000D+00 0.00000000D+00
  <mgrwgt>
 0.4809294610D+00    9    2    0
 0.132482243613744D+03 0.000000000000000D+00 0.000000000000000D+00 0.132482243613744D+03
 0.132482243613744D+03 0.000000000000000D+00 0.000000000000000D+00 -.132482243613744D+03
 0.149763397291080D+03 -.366304711626962D+02 -.349772470802145D+02 -.651066504840665D+02
 0.115201089936408D+03 0.366304711626962D+02 0.349772470802145D+02 0.651066504840665D+02
 0.000000000000000D+00 -.000000000000000D+00 -.000000000000000D+00 0.000000000000000D+00
 0.155998573730770D+03 0.000000000000000D+00 0.000000000000000D+00 0.155998573730770D+03
 0.151490558852371D+03 0.000000000000000D+00 0.000000000000000D+00 -.151490558852371D+03
 0.145308429258827D+03 -.150370418462106D+02 -.320086089814653D+02 -.651066504840665D+02
 0.122563515623278D+03 0.540301438598345D+02 0.373693326779873D+02 0.651066504840665D+02
 0.396171877010369D+02 -.389931020136239D+02 -.536072369652191D+01 0.450801487839823D+01
0.287890713503D-03 0.000000000000D+00 0.000000000000D+00 0.203209893609D-02 0.000000000000D+00  5 2 -1 25 24 21 0 0.72651849D-01 0.57179712D-02 0.13214660D+05 0.13214660D+05 0.13214660D+05 0.12541459D+01  1  2  2  1  5  1        2 0.293947721136D+00 0.100000000000D+01
-.156023238140D-04 0.000000000000D+00 -.110557614322D-05 0.203209893609D-02 0.000000000000D+00  5 2 -1 25 24 21 2 0.72651849D-01 0.57179712D-02 0.13214660D+05 0.13214660D+05 0.13214660D+05 0.12541459D+01  1  2  3  1  5  1        2 -.250569278832D-01 0.100000000000D+01
0.197225479787D-04 0.000000000000D+00 0.000000000000D+00 0.203209893609D-02 0.000000000000D+00  5 2 -1 25 24 21 2 0.72651849D-01 0.57179712D-02 0.13214660D+05 0.13214660D+05 0.13214660D+05 0.12541459D+01  1  2 15  1  5  1        2 0.316739011616D-01 0.100000000000D+01
0.203570590809D-03 0.000000000000D+00 0.000000000000D+00 0.203209893609D-02 0.000000000000D+00  5 2 -1 25 24 21 2 0.89951244D-01 0.57179712D-02 0.18646881D+05 0.18646881D+05 0.18646881D+05 0.12371896D+01  1  2 12  1  5  1        2 0.254173321435D+00 0.100000000000D+01
-.198737908552D-03 0.000000000000D+00 0.000000000000D+00 0.203209893609D-02 0.000000000000D+00  5 2 -1 25 24 21 2 0.72651849D-01 0.57179712D-02 0.13214660D+05 0.13214660D+05 0.13214660D+05 0.12541459D+01  1  2  4  1  5  1        2 -.319167933036D+00 0.100000000000D+01
-.475785598157D-03 0.000000000000D+00 -.177863835395D-03 0.203209893609D-02 0.000000000000D+00  5 2 -1 25 24 21 2 0.95614240D-01 0.57179712D-02 0.13214660D+05 0.13214660D+05 0.13214660D+05 0.12541459D+01  1  2  5  1  5  1        2 -.563682203690D+00 0.100000000000D+01
0.511717401776D-03 0.000000000000D+00 0.171360362684D-03 0.203209893609D-02 0.000000000000D+00  5 2 -1 25 24 21 2 0.72651849D-01 0.57179712D-02 0.13214660D+05 0.13214660D+05 0.13214660D+05 0.12541459D+01  1  2  6  1  5  1        2 0.821804891744D+00 0.100000000000D+01
0.612489394982D-05 0.000000000000D+00 0.000000000000D+00 0.203209893609D-02 0.000000000000D+00  5 21 -1 25 24 -2 2 0.89951244D-01 0.57179712D-02 0.18646881D+05 0.18646881D+05 0.18646881D+05 0.12371896D+01  1  2 12  3  5  1        2 0.126107893008D-01 0.100000000000D+01
-.137802079723D-04 0.000000000000D+00 -.644883443664D-05 0.203209893609D-02 0.000000000000D+00  5 21 -1 25 24 -2 2 0.95614240D-01 0.57179712D-02 0.13214660D+05 0.13214660D+05 0.13214660D+05 0.12541459D+01  1  2  5  3  5  1        2 -.253740991716D-01 0.100000000000D+01
  </mgrwgt>
  </event>
  <event>
  4     66 0.48098993E-03 0.52975970E+02 0.75467711E-02 0.12162663E+00
        2 -1    0    0  501    0 0.00000000E+00 0.00000000E+00 0.29652003E+03 0.29652020E+03 0.32000000E+00 0.0000E+00 0.9000E+01
       -1 -1    0    0    0  501 0.00000000E+00 0.00000000E+00 -.44821239E+02 0.44822381E+02 0.32000000E+00 0.0000E+00 0.9000E+01
       25  1    1    2    0    0 -.17713205E+02 -.46621983E+02 0.12930481E+03 0.18663360E+03 0.12500000E+03 0.0000E+00 0.9000E+01
       24  1    1    2    0    0 0.17713205E+02 0.46621983E+02 0.12239398E+03 0.15470898E+03 0.80419002E+02 0.0000E+00 0.9000E+01
#aMCatNLO 1  0  0  2  1 0.42531549D+02 0.00000000D+00  -5  5  0 0.00000000D+00 0.00000000D+00 0.00000000D+00 0.00000000D+00 0.00000000D+00
  <mgrwgt>
 0.3473747184D+00    9    2    0
 0.115284949031036D+03 0.000000000000000D+00 0.000000000000000D+00 0.115284949031036D+03
 0.115284949031036D+03 0.000000000000000D+00 0.000000000000000D+00 -.115284949031036D+03
 0.135143968188784D+03 -.177132049813545D+02 -.466219828972017D+02 -.123095579868940D+02
 0.954259298732880D+02 0.177132049813545D+02 0.466219828972017D+02 0.123095579868940D+02
 0.000000000000000D+00 0.000000000000000D+00 -.000000000000000D+00 -.000000000000000D+00
 0.136960046401284D+03 0.000000000000000D+00 0.000000000000000D+00 0.136960046401284D+03
 0.140150852675762D+03 0.000000000000000D+00 0.000000000000000D+00 -.140150852675762D+03
 0.130346526553912D+03 -.255805416546823D+02 -.236501089953103D+02 -.123095579868940D+02
 0.104113300662833D+03 0.118002162406997D+02 0.638873469427154D+02 0.123095579868940D+02
 0.426510718603014D+02 0.137803254139825D+02 -.402372379474051D+02 -.319080627447791D+01
0.192662196415D-03 0.000000000000D+00 0.000000000000D+00 0.285266158963D-02 0.000000000000D+00  5 2 -1 25 24 21 0 0.45618567D-01 0.68956763D-02 0.13134404D+05 0.13134404D+05 0.13134404D+05 0.12544523D+01  1  2  2  2  5  2       -1 0.244016420633D+00 0.100000000000D+01
-.107030005412D-04 0.000000000000D+00 -.739873563354D-06 0.285266158963D-02 0.000000000000D+00  5 2 -1 25 24 21 2 0.45618567D-01 0.68956763D-02 0.13134404D+05 0.13134404D+05 0.13134404D+05 0.12544523D+01  1  2  3  2  5  2       -1 -.213322378762D-01 0.100000000000D+01
0.132953411960D-04 0.000000000000D+00 0.000000000000D+00 0.285266158963D-02 0.000000000000D+00  5 2 -1 25 24 21 2 0.45618567D-01 0.68956763D-02 0.13134404D+05 0.13134404D+05 0.13134404D+05 0.12544523D+01  1  2 15  2  5  2       -1 0.264990532279D-01 0.100000000000D+01
0.819907522997D-04 0.000000000000D+00 0.000000000000D+00 0.285266158963D-02 0.000000000000D+00  5 2 -1 25 24 21 2 0.45618567D-01 0.89078092D-02 0.18999670D+05 0.18999670D+05 0.18999670D+05 0.12362869D+01  1  2 12  2  5  2       -1 0.109517371043D+00 0.100000000000D+01
-.826318291919D-04 0.000000000000D+00 0.000000000000D+00 0.285266158963D-02 0.000000000000D+00  5 2 -1 25 24 21 2 0.45618567D-01 0.68956763D-02 0.13134404D+05 0.13134404D+05 0.13134404D+05 0.12544523D+01  1  2  4  2  5  2       -1 -.164694174282D+00 0.100000000000D+01
-.184729699172D-03 0.000000000000D+00 -.802416753740D-04 0.285266158963D-02 0.000000000000D+00  5 2 -1 25 24 21 2 0.45618567D-01 0.99367413D-02 0.13134404D+05 0.13134404D+05 0.13134404D+05 0.12544523D+01  1  2  5  2  5  2       -1 -.212485611113D+00 0.100000000000D+01
0.205266088671D-03 0.000000000000D+00 0.751689751453D-04 0.285266158963D-02 0.000000000000D+00  5 2 -1 25 24 21 2 0.45618567D-01 0.68956763D-02 0.13134404D+05 0.13134404D+05 0.13134404D+05 0.12544523D+01  1  2  6  2  5  2       -1 0.409117519391D+00 0.100000000000D+01
0.282399425609D-05 0.000000000000D+00 0.000000000000D+00 0.285266158963D-02 0.000000000000D+00  5 2 21 25 24 1 2 0.45618567D-01 0.89078092D-02 0.18999670D+05 0.18999670D+05 0.18999670D+05 0.12362869D+01  1  2 12  4  5  2       -1 0.583612384942D-01 0.100000000000D+01
-.581725875520D-05 0.000000000000D+00 -.357550253779D-05 0.285266158963D-02 0.000000000000D+00  5 2 21 25 24 1 2 0.45618567D-01 0.99367413D-02 0.13134404D+05 0.13134404D+05 0.13134404D+05 0.12544523D+01  1  2  5  4  5  2       -1 -.101624861087D+00 0.100000000000D+01
  </mgrwgt>
  </event>
  <event>
  4     66 0.48098993E-03 0.12359356E+03 0.75467711E-02 0.11991914E+00
        2 -1    0    0  501    0 0.00000000E+00 0.00000000E+00 0.24940867E+03 0.24940888E+03 0.32000000E+00 0.0000E+00 0.9000E+01
       -1 -1    0    0    0  501 0.00000000E+00 0.00000000E+00 -.89219833E+02 0.89220406E+02 0.32000000E+00 0.0000E+00 0.9000E+01
       25  1    1    2    0    0 -.26408930E+02 -.62249226E+02 -.57381083E+01 0.14223334E+03 0.12500000E+03 0.0000E+00 0.9000E+01
       24  1    1    2    0    0 0.26408930E+02 0.62249226E+02 0.16592695E+03 0.19639594E+03 0.80419002E+02 0.0000E+00 0.9000E+01
#aMCatNLO 1  0  0  1  2 0.49277865D+02 0.00000000D+00  -5  5  0 0.00000000D+00 0.00000000D+00 0.00000000D+00 0.00000000D+00 0.00000000D+00
  <mgrwgt>
 0.3282105885D+00    4    2    0
 0.149172155013530D+03 0.000000000000000D+00 0.000000000000000D+00 0.149172155013530D+03
 0.149172155013530D+03 0.000000000000000D+00 0.000000000000000D+00 -.149172155013530D+03
 0.164519831737780D+03 -.264089304865594D+02 -.622492263735928D+02 -.828817063137130D+02
 0.133824478289279D+03 0.264089304865594D+02 0.622492263735928D+02 0.828817063137130D+02
 0.000000000000000D+00 -.000000000000000D+00 -.000000000000000D+00 -.000000000000000D+00
 0.159091652419463D+03 0.000000000000000D+00 0.000000000000000D+00 0.159091652419463D+03
 0.228054335009106D+03 0.000000000000000D+00 0.000000000000000D+00 -.228054335009106D+03
 0.156209553200294D+03 -.247287662723542D+02 -.359935464800307D+02 -.828817063137130D+02
 0.146177012747007D+03 0.278757386658415D+02 0.851708227835640D+02 0.828817063137130D+02
 0.847594214812677D+02 -.314697239348728D+01 -.491772763035333D+02 -.689626825896424D+02
0.698057297481D-03 0.000000000000D+00 0.000000000000D+00 0.173520659110D-02 0.000000000000D+00  5 2 -1 25 24 21 0 0.38370625D-01 0.13726188D-01 0.15275368D+05 0.15275368D+05 0.15275368D+05 0.12469229D+01  1  2  2  1  5  1        2 0.374867204817D+00 0.100000000000D+01
-.371126010168D-04 0.000000000000D+00 -.268072382503D-05 0.173520659110D-02 0.000000000000D+00  5 2 -1 25 24 21 2 0.38370625D-01 0.13726188D-01 0.15275368D+05 0.15275368D+05 0.15275368D+05 0.12469229D+01  1  2  3  1  5  1        2 -.309875299607D-01 0.100000000000D+01
0.476817524902D-04 0.000000000000D+00 0.000000000000D+00 0.173520659110D-02 0.000000000000D+00  5 2 -1 25 24 21 2 0.38370625D-01 0.13726188D-01 0.15275368D+05 0.15275368D+05 0.15275368D+05 0.12469229D+01  1  2 15  1  5  1        2 0.398123465720D-01 0.100000000000D+01
-.664480288721D-04 0.000000000000D+00 0.000000000000D+00 0.173520659110D-02 0.000000000000D+00  5 2 -1 25 24 21 2 0.38370625D-01 0.13726188D-01 0.15275368D+05 0.15275368D+05 0.15275368D+05 0.12469229D+01  1  2  4  1  5  1        2 -.554814329660D-01 0.100000000000D+01
  </mgrwgt>
  </event>
  <event>
  4     66 0.48098993E-03 0.11578675E+03 0.75467711E-02 0.11789656E+00
        2 -1    0    0  501    0 0.00000000E+00 0.00000000E+00 0.57975775E+03 0.57975784E+03 0.32000000E+00 0.0000E+00 0.9000E+01
       -1 -1    0    0    0  501 0.00000000E+00 0.00000000E+00 -.23150881E+02 0.23153093E+02 0.32000000E+00 0.0000E+00 0.9000E+01
       25  1    1    2    0    0 -.22437536E+02 0.47412981E+02 0.31550978E+03 0.34339898E+03 0.12500000E+03 0.0000E+00 0.9000E+01
       24  1    1    2    0    0 0.22437536E+02 -.47412981E+02 0.24109709E+03 0.25951195E+03 0.80419002E+02 0.0000E+00 0.9000E+01
#aMCatNLO 1  0  0  2  2 0.89578674D+02 0.00000000D+00  -5  5  0 0.00000000D+00 0.00000000D+00 0.00000000D+00 0.00000000D+00 0.00000000D+00
  <mgrwgt>
 0.3727048687D+00    3    2    0
 0.115855928039137D+03 0.000000000000000D+00 0.000000000000000D+00 0.115855928039137D+03
 0.115855928039137D+03 0.000000000000000D+00 0.000000000000000D+00 -.115855928039137D+03
 0.135617074923516D+03 -.224375364177403D+02 0.474129810836896D+02 -.394426102974023D+01
 0.960947811547588D+02 0.224375364177403D+02 -.474129810836896D+02 0.394426102974023D+01
 0.000000000000000D+00 -.000000000000000D+00 -.000000000000000D+00 0.000000000000000D+00
 0.271142575639442D+03 0.000000000000000D+00 0.000000000000000D+00 0.271142575639442D+03
 0.137865546128411D+03 0.000000000000000D+00 0.000000000000000D+00 -.137865546128411D+03
 0.161988139682172D+03 -.130042918068855D+02 0.102129763522793D+03 -.394426102974023D+01
 0.864363420196404D+02 0.282232573980651D+02 -.138533683318374D+02 0.394426102974023D+01
 0.160583640066041D+03 -.152189655911797D+02 -.882763951909556D+02 0.133277029511032D+03
0.223413092912D-03 0.000000000000D+00 0.000000000000D+00 0.286517082364D-02 0.000000000000D+00  5 2 -1 25 24 21 0 0.89193677D-01 0.35618509D-02 0.13406572D+05 0.13406572D+05 0.13406572D+05 0.12534214D+01  1  2  2  2  5  2       -1 0.364886218469D+00 0.100000000000D+01
-.124118331119D-04 0.000000000000D+00 -.857965102799D-06 0.286517082364D-02 0.000000000000D+00  5 2 -1 25 24 21 2 0.89193677D-01 0.35618509D-02 0.13406572D+05 0.13406572D+05 0.13406572D+05 0.12534214D+01  1  2  3  2  5  2       -1 -.318477662776D-01 0.100000000000D+01
0.154589473446D-04 0.000000000000D+00 0.000000000000D+00 0.286517082364D-02 0.000000000000D+00  5 2 -1 25 24 21 2 0.89193677D-01 0.35618509D-02 0.13406572D+05 0.13406572D+05 0.13406572D+05 0.12534214D+01  1  2 15  2  5  2       -1 0.396664165148D-01 0.100000000000D+01
  </mgrwgt>
  </event>
  <event>
  4     66 0.48098993E-03 0.10307687E+03 0.75467711E-02 0.10918084E+00
        2 -1    0    0  501    0 0.00000000E+00 0.00000000E+00 0.99433382E+03 0.99433387E+03 0.32000000E+00 0.0000E+00 0.9000E+01
       -1 -1    0    0    0  501 0.00000000E+00 0.00000000E+00 -.10759136E+02 0.10763894E+02 0.32000000E+00 0.0000E+00 0.9000E+01
       25  1    1    2    0    0 -.31257096E+01 0.78927197E+01 0.63830399E+03 0.65048370E+03 0.12500000E+03 0.0000E+00 0.9000E+01
       24  1    1    2    0    0 0.31257096E+01 -.78927197E+01 0.34527070E+03 0.35461406E+03 0.80419002E+02 0.0000E+00 0.9000E+01
#aMCatNLO 1  0  0  2  2 0.25023352D+03 0.00000000D+00  -5  5  0 0.00000000D+00 0.00000000D+00 0.00000000D+00 0.00000000D+00 0.00000000D+00
  <mgrwgt>
 0.3406464422D+00    5    2    0
 0.103443656293017D+03 0.000000000000000D+00 0.000000000000000D+00 0.103443656293017D+03
 0.103443656293017D+03 0.000000000000000D+00 0.000000000000000D+00 -.103443656293017D+03
 0.125575956072930D+03 -.312570963901194D+01 0.789271972620835D+01 0.850033282916191D+01
 0.813113565131031D+02 0.312570963901194D+01 -.789271972620835D+01 -.850033282916191D+01
 0.000000000000000D+00 -.000000000000000D+00 -.000000000000000D+00 -.000000000000000D+00
 0.220577405642196D+03 0.000000000000000D+00 0.000000000000000D+00 0.220577405642196D+03
 0.431148766083738D+03 0.000000000000000D+00 0.000000000000000D+00 -.431148766083738D+03
 0.201034729769780D+03 0.106937710526831D+03 0.115247702721926D+03 0.850033282916191D+01
 0.123648460459214D+03 0.721944187485547D+02 0.594763487691964D+02 -.850033282916191D+01
 0.327042981496940D+03 -.179132129275386D+03 -.174724051491123D+03 -.210571360441543D+03
0.106487605069D-03 0.000000000000D+00 0.000000000000D+00 0.319908960943D-02 0.000000000000D+00  5 2 -1 25 24 21 0 0.15297480D+00 0.16556217D-02 0.10624842D+05 0.10624842D+05 0.10624842D+05 0.12652667D+01  1  2  2  2  5  2       -1 0.269150938889D+00 0.100000000000D+01
-.591588730725D-05 0.000000000000D+00 -.408940442296D-06 0.319908960943D-02 0.000000000000D+00  5 2 -1 25 24 21 2 0.15297480D+00 0.16556217D-02 0.10624842D+05 0.10624842D+05 0.10624842D+05 0.12652667D+01  1  2  3  2  5  2       -1 -.239376152170D-01 0.100000000000D+01
0.738458151398D-05 0.000000000000D+00 0.000000000000D+00 0.319908960943D-02 0.000000000000D+00  5 2 -1 25 24 21 2 0.15297480D+00 0.16556217D-02 0.10624842D+05 0.10624842D+05 0.10624842D+05 0.12652667D+01  1  2 15  2  5  2       -1 0.298804324084D-01 0.100000000000D+01
0.126883412432D-03 0.000000000000D+00 -.687902510997D-04 0.319908960943D-02 0.000000000000D+00  5 2 -1 25 24 21 2 0.15297480D+00 0.15776217D-01 0.10624842D+05 0.10624842D+05 0.10624842D+05 0.12652667D+01  1  2  5  2  5  2       -1 0.183644524198D-01 0.100000000000D+01
0.238039475348D-04 0.000000000000D+00 -.185473301260D-04 0.319908960943D-02 0.000000000000D+00  5 2 21 25 24 1 2 0.15297480D+00 0.15776217D-01 0.10624842D+05 0.10624842D+05 0.10624842D+05 0.12652667D+01  1  2  5  4  5  2       -1 0.471882336754D-01 0.100000000000D+01
  </mgrwgt>
  </event>
  <event>
  5     66 0.48098993E-03 0.11495420E+03 0.75467711E-02 0.11836230E+00
        2 -1    0    0  501    0 0.00000000E+00 0.00000000E+00 0.85394814E+03 0.85394820E+03 0.32000000E+00 0.0000E+00 0.9000E+01
       21 -1    0    0  502  501 0.00000000E+00 0.00000000E+00 -.75976369E+02 0.75980071E+02 0.75000000E+00 0.0000E+00 0.9000E+01
       25  1    1    2    0    0 -.19236402E+02 -.12394257E+02 0.52628727E+03 0.54141199E+03 0.12500000E+03 0.0000E+00 0.9000E+01
       24  1    1    2    0    0 0.62092848E+02 -.59967471E+02 0.27667662E+03 0.30078030E+03 0.80419002E+02 0.0000E+00 0.9000E+01
        1  1    1    2  502    0 -.42856446E+02 0.72361728E+02 -.24992114E+02 0.87735984E+02 0.32000000E+00 0.0000E+00 0.9000E+01
#aMCatNLO 2  0  0  2  1 0.84100503D+02 0.00000000D+00  -5  5  0 0.00000000D+00 0.00000000D+00 0.00000000D+00 0.00000000D+00 0.00000000D+00
  <mgrwgt>
 0.5109449797D+00    2    2    0
 0.119858200575967D+03 0.000000000000000D+00 0.000000000000000D+00 0.119858200575967D+03
 0.119858200575967D+03 0.000000000000000D+00 0.000000000000000D+00 -.119858200575967D+03
 0.138959488601365D+03 -.427034758583557D+02 0.272291403186408D+02 0.334623152139143D+02
 0.100756912550570D+03 0.427034758583557D+02 -.272291403186408D+02 -.334623152139143D+02
 0.000000000000000D+00 -.000000000000000D+00 0.000000000000000D+00 -.000000000000000D+00
 0.131864829120606D+03 0.000000000000000D+00 0.000000000000000D+00 0.131864829120606D+03
 0.492030839120121D+03 0.000000000000000D+00 0.000000000000000D+00 -.492030839120121D+03
 0.131409220858415D+03 -.192364024836490D+02 -.123942570018302D+02 0.334623152139143D+02
 0.122631814532697D+03 0.620928484674120D+02 -.599674712735079D+02 -.334623152139143D+02
 0.369854632849615D+03 -.428564459837630D+02 0.723617282753381D+02 -.360166009999515D+03
-.175217727026D-04 0.000000000000D+00 0.000000000000D+00 0.259826458015D-02 0.000000000000D+00  5 2 21 25 24 1 2 0.11941466D+00 0.11261213D-01 0.27085915D+05 0.27085915D+05 0.27085915D+05 0.12195838D+01  1  2 13  4  5  2       -1 -.801361347460D-01 0.100000000000D+01
0.155783206182D-03 0.000000000000D+00 0.000000000000D+00 0.259826458015D-02 0.130178589391D-05  5 2 21 25 24 1 2 0.13137686D+00 0.11688956D-01 0.27085915D+05 0.27085915D+05 0.27085915D+05 0.12195838D+01  1  2  1  4  5  2       -1 0.591081114438D+00 0.100000000000D+01
  </mgrwgt>
  </event>
  <event>
  4     66 0.48098993E-03 0.10576523E+03 0.75467711E-02 0.12615309E+00
        2 -1    0    0  501    0 0.00000000E+00 0.00000000E+00 0.28681376E+04 0.28681376E+04 0.32000000E+00 0.0000E+00 0.9000E+01
       -1 -1    0    0    0  501 0.00000000E+00 0.00000000E+00 -.38960980E+01 0.39092173E+01 0.32000000E+00 0.0000E+00 0.9000E+01
       25  1    1    2    0    0 0.55256830E+01 -.24046050E+02 0.17605093E+04 0.17651138E+04 0.12500000E+03 0.0000E+00 0.9000E+01
       24  1    1    2    0    0 -.55256830E+01 0.24046050E+02 0.11037322E+04 0.11069330E+04 0.80419002E+02 0.0000E+00 0.9000E+01
#aMCatNLO 1  0  0  2  1 0.73087613D+01 0.00000000D+00  -5  5  0 0.00000000D+00 0.00000000D+00 0.00000000D+00 0.00000000D+00 0.00000000D+00
  <mgrwgt>
 0.4135151632D+00    6    2    0
 0.105798914737384D+03 0.000000000000000D+00 0.000000000000000D+00 0.105798914737384D+03
 0.105798914737384D+03 0.000000000000000D+00 0.000000000000000D+00 -.105798914737384D+03
 0.127438512998767D+03 0.552568298255068D+01 -.240460504120461D+02 0.261321305956926D+01
 0.841593164760002D+02 -.552568298255068D+01 0.240460504120461D+02 -.261321305956926D+01
 0.000000000000000D+00 -.000000000000000D+00 0.000000000000000D+00 0.000000000000000D+00
 0.130568062793879D+03 0.000000000000000D+00 0.000000000000000D+00 0.130568062793879D+03
 0.106402544006097D+03 0.000000000000000D+00 0.000000000000000D+00 -.106402544006097D+03
 0.128106036683130D+03 0.930698845864506D+01 -.263193411390805D+02 0.261321305956926D+01
 0.836179804478194D+02 -.304307393292675D+01 0.225535256300518D+02 -.261321305956926D+01
 0.252465896690263D+02 -.626391452571831D+01 0.376581550902871D+01 0.241655187877819D+02
0.384635273163D-03 0.000000000000D+00 0.000000000000D+00 0.313510974592D-02 0.000000000000D+00  5 2 -1 25 24 21 0 0.44125295D+00 0.60041025D-03 0.11186283D+05 0.11186283D+05 0.11186283D+05 0.12626139D+01  1  2  2  2  5  2       -1 0.423210965723D+00 0.100000000000D+01
-.213686236517D-04 0.000000000000D+00 -.147710072574D-05 0.313510974592D-02 0.000000000000D+00  5 2 -1 25 24 21 2 0.44125295D+00 0.60041025D-03 0.11186283D+05 0.11186283D+05 0.11186283D+05 0.12626139D+01  1  2  3  2  5  2       -1 -.374822367666D-01 0.100000000000D+01
0.266301322848D-04 0.000000000000D+00 0.000000000000D+00 0.313510974592D-02 0.000000000000D+00  5 2 -1 25 24 21 2 0.44125295D+00 0.60041025D-03 0.11186283D+05 0.11186283D+05 0.11186283D+05 0.12626139D+01  1  2 15  2  5  2       -1 0.467113343233D-01 0.100000000000D+01
-.116565653584D-04 0.000000000000D+00 0.000000000000D+00 0.313510974592D-02 0.000000000000D+00  5 2 -1 25 24 21 2 0.44125295D+00 0.60041025D-03 0.11186283D+05 0.11186283D+05 0.11186283D+05 0.12626139D+01  1  2  4  2  5  2       -1 -.204465271030D-01 0.100000000000D+01
0.283918628997D-06 0.000000000000D+00 0.000000000000D+00 0.313510974592D-02 0.507261138507D-03  5 2 -1 25 24 21 2 0.54455703D+00 0.60383585D-03 0.11986448D+05 0.11986448D+05 0.11986448D+05 0.12590816D+01  1  2 11  2  5  2       -1 0.194305003364D-03 0.100000000000D+01
0.770540585906D-07 0.000000000000D+00 0.000000000000D+00 0.313510974592D-02 0.602955871639D-06  5 2 21 25 24 1 2 0.54455703D+00 0.60383585D-03 0.11986448D+05 0.11986448D+05 0.11986448D+05 0.12590816D+01  1  2 11  4  5  2       -1 0.132732203805D-02 0.100000000000D+01
  </mgrwgt>
  </event>
  <event>
  4     66 0.48098993E-03 0.11120386E+03 0.75467711E-02 0.11563713E+00
        2 -1    0    0  501    0 0.00000000E+00 0.00000000E+00 0.36609600E+03 0.36609614E+03 0.32000000E+00 0.0000E+00 0.9000E+01
       -1 -1    0    0    0  501 0.00000000E+00 0.00000000E+00 -.33842539E+02 0.33844052E+02 0.32000000E+00 0.0000E+00 0.9000E+01
       25  1    1    2    0    0 0.17407177E+02 0.37961033E+02 0.20540989E+03 0.24405383E+03 0.12500000E+03 0.0000E+00 0.9000E+01
       24  1    1    2    0    0 -.17407177E+02 -.37961033E+02 0.12684357E+03 0.15588636E+03 0.80419002E+02 0.0000E+00 0.9000E+01
#aMCatNLO 1  0  0  2  2 0.12803629D+03 0.00000000D+00  -5  5  0 0.00000000D+00 0.00000000D+00 0.00000000D+00 0.00000000D+00 0.00000000D+00
  <mgrwgt>
 0.3826392784D+00    3    2    0
 0.111310146332564D+03 0.000000000000000D+00 0.000000000000000D+00 0.111310146332564D+03
 0.111310146332564D+03 0.000000000000000D+00 0.000000000000000D+00 -.111310146332564D+03
 0.131878316322810D+03 0.174071767114140D+02 0.379610333474813D+02 0.477916962120295D+01
 0.907419763423177D+02 -.174071767114140D+02 -.379610333474813D+02 -.477916962120295D+01
 0.000000000000000D+00 0.000000000000000D+00 0.000000000000000D+00 0.000000000000000D+00
 0.386159635669496D+03 0.000000000000000D+00 0.000000000000000D+00 0.386159635669496D+03
 0.144306859152786D+03 0.000000000000000D+00 0.000000000000000D+00 -.144306859152786D+03
 0.128643523809186D+03 0.223441919494122D+01 -.299386560593085D+02 0.477916962120295D+01
 0.128169803692096D+03 -.301565698305425D+02 -.950159116037272D+02 -.477916962120295D+01
 0.273653167321000D+03 0.279221506356013D+02 0.124954567663036D+03 0.241852776516710D+03
0.244198940908D-03 0.000000000000D+00 0.000000000000D+00 0.297207911006D-02 0.000000000000D+00  5 2 -1 25 24 21 0 0.56322588D-01 0.52066716D-02 0.12366299D+05 0.12366299D+05 0.12366299D+05 0.12574965D+01  1  2  2  2  5  2       -1 0.374656388141D+00 0.100000000000D+01
-.135665927751D-04 0.000000000000D+00 -.937788232144D-06 0.297207911006D-02 0.000000000000D+00  5 2 -1 25 24 21 2 0.56322588D-01 0.52066716D-02 0.12366299D+05 0.12366299D+05 0.12366299D+05 0.12574965D+01  1  2  3  2  5  2       -1 -.329134761444D-01 0.100000000000D+01
0.168570571673D-04 0.000000000000D+00 0.000000000000D+00 0.297207911006D-02 0.000000000000D+00  5 2 -1 25 24 21 2 0.56322588D-01 0.52066716D-02 0.12366299D+05 0.12366299D+05 0.12366299D+05 0.12574965D+01  1  2 15  2  5  2       -1 0.408963664010D-01 0.100000000000D+01
  </mgrwgt>
  </event>
  <event>
  4     66 0.48098993E-03 0.13224312E+03 0.75467711E-02 0.11256828E+00
        2 -1    0    0  501    0 0.00000000E+00 0.00000000E+00 0.10238172E+04 0.10238173E+04 0.32000000E+00 0.0000E+00 0.9000E+01
       -1 -1    0    0    0  501 0.00000000E+00 0.00000000E+00 -.51954604E+02 0.51955589E+02 0.32000000E+00 0.0000E+00 0.9000E+01
       25  1    1    2    0    0 -.51439265E+00 0.19420382E+03 0.34988364E+03 0.41923615E+03 0.12500000E+03 0.0000E+00 0.9000E+01
       24  1    1    2    0    0 0.51439265E+00 -.19420382E+03 0.62197896E+03 0.65653669E+03 0.80419002E+02 0.0000E+00 0.9000E+01
#aMCatNLO 1  0  0  2  1 0.21108073D+02 0.00000000D+00  -5  5  0 0.00000000D+00 0.00000000D+00 0.00000000D+00 0.00000000D+00 0.00000000D+00
  <mgrwgt>
 0.3304040604D+00    9    2    0
 0.230635154339168D+03 0.000000000000000D+00 0.000000000000000D+00 0.230635154339168D+03
 0.230635154339168D+03 0.000000000000000D+00 0.000000000000000D+00 -.230635154339168D+03
 0.240561854446821D+03 -.514392653662250D+00 0.194203819126394D+03 -.673024357049154D+02
 0.220708454231514D+03 0.514392653662250D+00 -.194203819126394D+03 0.673024357049154D+02
 0.000000000000000D+00 0.000000000000000D+00 -.000000000000000D+00 -.000000000000000D+00
 0.239824324216490D+03 0.000000000000000D+00 0.000000000000000D+00 0.239824324216490D+03
 0.243325097733693D+03 0.000000000000000D+00 0.000000000000000D+00 -.243325097733693D+03
 0.244368421023153D+03 -.106898511147485D+02 0.198612775079246D+03 -.673024357049154D+02
 0.217384595655185D+03 -.867826422240594D+01 -.190220704320191D+03 0.673024357049154D+02
 0.213964052718453D+02 0.193681153371545D+02 -.839207075905502D+01 -.350077351720223D+01
0.120724040278D-02 0.000000000000D+00 0.000000000000D+00 0.192104809120D-02 0.000000000000D+00  5 2 -1 25 24 21 0 0.15751042D+00 0.79930957D-02 0.48653764D+05 0.48653764D+05 0.48653764D+05 0.11934575D+01  1  2  2  2  5  2       -1 0.299731957584D+00 0.100000000000D+01
-.669067408915D-04 0.000000000000D+00 -.463612102036D-05 0.192104809120D-02 0.000000000000D+00  5 2 -1 25 24 21 2 0.15751042D+00 0.79930957D-02 0.48653764D+05 0.48653764D+05 0.48653764D+05 0.11934575D+01  1  2  3  2  5  2       -1 -.236604532493D-01 0.100000000000D+01
0.827721577459D-04 0.000000000000D+00 0.000000000000D+00 0.192104809120D-02 0.000000000000D+00  5 2 -1 25 24 21 2 0.15751042D+00 0.79930957D-02 0.48653764D+05 0.48653764D+05 0.48653764D+05 0.11934575D+01  1  2 15  2  5  2       -1 0.292709933648D-01 0.100000000000D+01
0.232838495395D-02 0.000000000000D+00 0.000000000000D+00 0.192104809120D-02 0.000000000000D+00  5 2 -1 25 24 21 2 0.15751042D+00 0.85845980D-02 0.53529646D+05 0.53529646D+05 0.53529646D+05 0.11893590D+01  1  2 12  2  5  2       -1 0.733454206842D+00 0.100000000000D+01
-.200094828808D-02 0.000000000000D+00 0.000000000000D+00 0.192104809120D-02 0.000000000000D+00  5 2 -1 25 24 21 2 0.15751042D+00 0.79930957D-02 0.48653764D+05 0.48653764D+05 0.48653764D+05 0.11934575D+01  1  2  4  2  5  2       -1 -.707601996355D+00 0.100000000000D+01
-.830628317690D-02 0.000000000000D+00 -.161772629514D-02 0.192104809120D-02 0.000000000000D+00  5 2 -1 25 24 21 2 0.15751042D+00 0.87778272D-02 0.48653764D+05 0.48653764D+05 0.48653764D+05 0.11934575D+01  1  2  5  2  5  2       -1 -.254525820041D+01 0.100000000000D+01
0.842786759013D-02 0.000000000000D+00 0.161065801846D-02 0.192104809120D-02 0.000000000000D+00  5 2 -1 25 24 21 2 0.15751042D+00 0.79930957D-02 0.48653764D+05 0.48653764D+05 0.48653764D+05 0.11934575D+01  1  2  6  2  5  2       -1 0.298037483893D+01 0.100000000000D+01
0.285672163651D-04 0.000000000000D+00 0.000000000000D+00 0.192104809120D-02 0.000000000000D+00  5 2 21 25 24 1 2 0.15751042D+00 0.85845980D-02 0.53529646D+05 0.53529646D+05 0.53529646D+05 0.11893590D+01  1  2 12  4  5  2       -1 0.137635672448D+00 0.100000000000D+01
-.122729544221D-03 0.000000000000D+00 -.248217623364D-04 0.192104809120D-02 0.000000000000D+00  5 2 21 25 24 1 2 0.15751042D+00 0.87778272D-02 0.48653764D+05 0.48653764D+05 0.48653764D+05 0.11934575D+01  1  2  5  4  5  2       -1 -.573542958741D+00 0.100000000000D+01
  </mgrwgt>
  </event>
  <event>
  4     66 0.48098993E-03 0.24539323E+03 0.75467711E-02 0.11154303E+00
        2 -1    0    0  501    0 0.00000000E+00 0.00000000E+00 0.41469881E+03 0.41469894E+03 0.32000000E+00 0.0000E+00 0.9000E+01
       -1 -1    0    0    0  501 0.00000000E+00 0.00000000E+00 -.19336109E+03 0.19336135E+03 0.32000000E+00 0.0000E+00 0.9000E+01
       25  1    1    2    0    0 0.14159908E+03 0.17090487E+03 -.37808864E+02 0.25751366E+03 0.12500000E+03 0.0000E+00 0.9000E+01
       24  1    1    2    0    0 -.14159908E+03 -.17090487E+03 0.25914659E+03 0.35054663E+03 0.80419002E+02 0.0000E+00 0.9000E+01
#aMCatNLO 1  0  0  1  1 0.25426009D+01 0.00000000D+00  -5  5  0 0.00000000D+00 0.00000000D+00 0.00000000D+00 0.00000000D+00 0.00000000D+00
  <mgrwgt>
 0.3604008308D+00    6    2    0
 0.283172619187378D+03 0.000000000000000D+00 0.000000000000000D+00 0.283172619187378D+03
 0.283172619187378D+03 0.000000000000000D+00 0.000000000000000D+00 -.283172619187378D+03
 0.291257602890878D+03 0.141599082688710D+03 0.170904865092213D+03 -.141234620795570D+03
 0.275087635483878D+03 -.141599082688710D+03 -.170904865092213D+03 0.141234620795570D+03
 0.000000000000000D+00 -.000000000000000D+00 0.000000000000000D+00 -.000000000000000D+00
 0.283738068314406D+03 0.000000000000000D+00 0.000000000000000D+00 0.283738068314406D+03
 0.286048238819160D+03 0.000000000000000D+00 0.000000000000000D+00 -.286048238819160D+03
 0.291453470054208D+03 0.142748841097852D+03 0.170281165900961D+03 -.141234620795570D+03
 0.274897475781713D+03 -.140513896503068D+03 -.171493536365204D+03 0.141234620795570D+03
 0.343536129764494D+01 -.223494459478417D+01 0.121237046424332D+01 -.231017050475331D+01
0.408753092875D-02 0.000000000000D+00 0.000000000000D+00 0.153226424704D-02 0.000000000000D+00  5 2 -1 25 24 21 0 0.63799847D-01 0.29747890D-01 0.60217838D+05 0.60217838D+05 0.60217838D+05 0.11843660D+01  1  2  2  1  5  1        2 0.371040747837D+00 0.100000000000D+01
-.221423648327D-03 0.000000000000D+00 -.156971950380D-04 0.153226424704D-02 0.000000000000D+00  5 2 -1 25 24 21 2 0.63799847D-01 0.29747890D-01 0.60217838D+05 0.60217838D+05 0.60217838D+05 0.11843660D+01  1  2  3  1  5  1        2 -.281939797578D-01 0.100000000000D+01
0.280004160051D-03 0.000000000000D+00 0.000000000000D+00 0.153226424704D-02 0.000000000000D+00  5 2 -1 25 24 21 2 0.63799847D-01 0.29747890D-01 0.60217838D+05 0.60217838D+05 0.60217838D+05 0.11843660D+01  1  2 15  1  5  1        2 0.356530645223D-01 0.100000000000D+01
-.151929470833D-01 0.000000000000D+00 0.000000000000D+00 0.153226424704D-02 0.000000000000D+00  5 2 -1 25 24 21 2 0.63799847D-01 0.29747890D-01 0.60217838D+05 0.60217838D+05 0.60217838D+05 0.11843660D+01  1  2  4  1  5  1        2 -.193452526758D+01 0.100000000000D+01
0.151923814105D-01 0.000000000000D+00 0.000000000000D+00 0.153226424704D-02 0.177197245162D-02  5 2 -1 25 24 21 2 0.63927245D-01 0.30049980D-01 0.60843962D+05 0.60843962D+05 0.60843962D+05 0.11839303D+01  1  2 11  1  5  1        2 0.189591122040D+01 0.100000000000D+01
0.706744652510D-04 0.000000000000D+00 0.000000000000D+00 0.153226424704D-02 0.664814828788D-06  5 21 -1 25 24 -2 2 0.63927245D-01 0.30049980D-01 0.60843962D+05 0.60843962D+05 0.60843962D+05 0.11839303D+01  1  2 11  3  5  1        2 0.205150453267D-01 0.100000000000D+01
  </mgrwgt>
  </event>
  <event>
  4     66 0.48098993E-03 0.12134674E+03 0.75467711E-02 0.10070729E+00
        2 -1    0    0  501    0 0.00000000E+00 0.00000000E+00 0.57307280E+03 0.57307289E+03 0.32000000E+00 0.0000E+00 0.9000E+01
       -1 -1    0    0    0  501 0.00000000E+00 0.00000000E+00 -.32351640E+02 0.32353222E+02 0.32000000E+00 0.0000E+00 0.9000E+01
       25  1    1    2    0    0 -.15441663E+02 -.61615259E+02 0.16774932E+03 0.21863147E+03 0.12500000E+03 0.0000E+00 0.9000E+01
       24  1    1    2    0    0 0.15441663E+02 0.61615259E+02 0.37297184E+03 0.38679464E+03 0.80419002E+02 0.0000E+00 0.9000E+01
#aMCatNLO 1  0  0  2  2 0.49864020D+03 0.00000000D+00  -5  5  0 0.00000000D+00 0.00000000D+00 0.00000000D+00 0.00000000D+00 0.00000000D+00
  <mgrwgt>
 0.3672888441D+00    3    2    0
 0.136162956297173D+03 0.000000000000000D+00 0.000000000000000D+00 0.136162956297173D+03
 0.136162956297173D+03 0.000000000000000D+00 0.000000000000000D+00 -.136162956297173D+03
 0.152976971457146D+03 -.154416625587291D+02 -.616152588044336D+02 -.611724507935187D+02
 0.119348941137201D+03 0.154416625587291D+02 0.616152588044336D+02 0.611724507935187D+02
 0.000000000000000D+00 -.000000000000000D+00 -.000000000000000D+00 0.000000000000000D+00
 0.535166996422360D+03 0.000000000000000D+00 0.000000000000000D+00 0.535166996422360D+03
 0.531643603261392D+03 0.000000000000000D+00 0.000000000000000D+00 -.531643603261392D+03
 0.238515276809338D+03 0.186055059197477D+03 0.539071746836443D+02 -.611724507935187D+02
 0.329642671906180D+03 0.246532670170941D+03 0.194104737163664D+03 0.611724507935187D+02
 0.498652650968234D+03 -.432587729368418D+03 -.248011911847308D+03 0.352339316096785D+01
0.353316717800D-03 0.000000000000D+00 0.000000000000D+00 0.208352164156D-02 0.000000000000D+00  5 2 -1 25 24 21 0 0.88165174D-01 0.49773039D-02 0.14725030D+05 0.14725030D+05 0.14725030D+05 0.12487396D+01  1  2  2  2  5  2       -1 0.359272275616D+00 0.100000000000D+01
-.193119827096D-04 0.000000000000D+00 -.135682922678D-05 0.208352164156D-02 0.000000000000D+00  5 2 -1 25 24 21 2 0.88165174D-01 0.49773039D-02 0.14725030D+05 0.14725030D+05 0.14725030D+05 0.12487396D+01  1  2  3  2  5  2       -1 -.306217591425D-01 0.100000000000D+01
0.243677285764D-04 0.000000000000D+00 0.000000000000D+00 0.208352164156D-02 0.000000000000D+00  5 2 -1 25 24 21 2 0.88165174D-01 0.49773039D-02 0.14725030D+05 0.14725030D+05 0.14725030D+05 0.12487396D+01  1  2 15  2  5  2       -1 0.386383276403D-01 0.100000000000D+01
  </mgrwgt>
  </event>
  <event>
  4     66 0.48098993E-03 0.71281848E+02 0.75467711E-02 0.11813082E+00
        2 -1    0    0  501    0 0.00000000E+00 0.00000000E+00 0.20771600E+03 0.20771625E+03 0.32000000E+00 0.0000E+00 0.9000E+01
       -1 -1    0    0    0  501 0.00000000E+00 0.00000000E+00 -.53445737E+02 0.53446695E+02 0.32000000E+00 0.0000E+00 0.9000E+01
       25  1    1    2    0    0 0.34049958E+01 -.22228888E+02 0.98856280E+02 0.16094496E+03 0.12500000E+03 0.0000E+00 0.9000E+01
       24  1    1    2    0    0 -.34049958E+01 0.22228888E+02 0.55413985E+02 0.10021798E+03 0.80419002E+02 0.0000E+00 0.9000E+01
#aMCatNLO 1  0  0  2  1 0.10027613D+03 0.00000000D+00  -5  5  0 0.00000000D+00 0.00000000D+00 0.00000000D+00 0.00000000D+00 0.00000000D+00
  <mgrwgt>
 0.2046780426D+00    7    2    0
 0.105364566943312D+03 0.000000000000000D+00 0.000000000000000D+00 0.105364566943312D+03
 0.105364566943312D+03 0.000000000000000D+00 0.000000000000000D+00 -.105364566943312D+03
 0.127093370827061D+03 0.340499583074010D+01 -.222288878894654D+02 0.469121037419645D+01
 0.836357630595625D+02 -.340499583074010D+01 0.222288878894654D+02 -.469121037419645D+01
 0.000000000000000D+00 -.000000000000000D+00 0.000000000000000D+00 -.000000000000000D+00
 0.138567602248697D+03 0.000000000000000D+00 0.000000000000000D+00 0.138567602248697D+03
 0.231566249845409D+03 0.000000000000000D+00 0.000000000000000D+00 -.231566249845409D+03
 0.144276107896964D+03 0.636461580945398D+02 -.334328343836736D+02 0.469121037419645D+01
 0.890949913721289D+02 0.349394099388203D+02 0.150974074456938D+02 -.469121037419645D+01
 0.136762752825013D+03 -.985855680333600D+02 0.183354269379798D+02 -.929986475967121D+02
0.161614456317D-03 0.000000000000D+00 0.000000000000D+00 0.314573201326D-02 0.000000000000D+00  5 2 -1 25 24 21 0 0.31956400D-01 0.82225137D-02 0.11078705D+05 0.11078705D+05 0.11078705D+05 0.12631104D+01  1  2  2  2  5  2       -1 0.227646814108D+00 0.100000000000D+01
-.897856918134D-05 0.000000000000D+00 -.620642066321D-06 0.314573201326D-02 0.000000000000D+00  5 2 -1 25 24 21 2 0.31956400D-01 0.82225137D-02 0.11078705D+05 0.11078705D+05 0.11078705D+05 0.12631104D+01  1  2  3  2  5  2       -1 -.201776764506D-01 0.100000000000D+01
0.111800314183D-04 0.000000000000D+00 0.000000000000D+00 0.314573201326D-02 0.000000000000D+00  5 2 -1 25 24 21 2 0.31956400D-01 0.82225137D-02 0.11078705D+05 0.11078705D+05 0.11078705D+05 0.12631104D+01  1  2 15  2  5  2       -1 0.251250563547D-01 0.100000000000D+01
0.248753036804D-06 0.000000000000D+00 0.000000000000D+00 0.314573201326D-02 0.000000000000D+00  5 2 -1 25 24 21 2 0.31956400D-01 0.18017343D-01 0.27796784D+05 0.27796784D+05 0.27796784D+05 0.12183906D+01  1  2 12  2  5  2       -1 0.159808415605D-03 0.100000000000D+01
-.389230421809D-04 0.000000000000D+00 -.475067563795D-04 0.314573201326D-02 0.000000000000D+00  5 2 -1 25 24 21 2 0.31956400D-01 0.23416122D-01 0.11078705D+05 0.11078705D+05 0.11078705D+05 0.12631104D+01  1  2  5  2  5  2       -1 -.172401581186D-01 0.100000000000D+01
0.211449403064D-07 0.000000000000D+00 0.000000000000D+00 0.314573201326D-02 0.000000000000D+00  5 2 21 25 24 1 2 0.31956400D-01 0.18017343D-01 0.27796784D+05 0.27796784D+05 0.27796784D+05 0.12183906D+01  1  2 12  4  5  2       -1 0.177143363472D-03 0.100000000000D+01
-.199929179233D-05 0.000000000000D+00 -.560124625626D-05 0.314573201326D-02 0.000000000000D+00  5 2 21 25 24 1 2 0.31956400D-01 0.23416122D-01 0.11078705D+05 0.11078705D+05 0.11078705D+05 0.12631104D+01  1  2  5  4  5  2       -1 -.110129450962D-01 0.100000000000D+01
  </mgrwgt>
  </event>
  <event>
  4     66 0.48098993E-03 0.23868841E+03 0.75467711E-02 0.99416818E-01
        2 -1    0    0  501    0 0.00000000E+00 0.00000000E+00 0.59194815E+03 0.59194824E+03 0.32000000E+00 0.0000E+00 0.9000E+01
       -1 -1    0    0    0  501 0.00000000E+00 0.00000000E+00 -.10348276E+03 0.10348326E+03 0.32000000E+00 0.0000E+00 0.9000E+01
       25  1    1    2    0    0 -.11963213E+03 0.17806237E+03 0.34525121E+03 0.42525457E+03 0.12500000E+03 0.0000E+00 0.9000E+01
       24  1    1    2    0    0 0.11963213E+03 -.17806237E+03 0.14321418E+03 0.27017692E+03 0.80419002E+02 0.0000E+00 0.9000E+01
#aMCatNLO 1  0  0  2  1 0.48518399D+03 0.00000000D+00  -5  5  0 0.00000000D+00 0.00000000D+00 0.00000000D+00 0.00000000D+00 0.00000000D+00
  <mgrwgt>
 0.4872318413D+00    5    2    0
 0.247500770714846D+03 0.000000000000000D+00 0.000000000000000D+00 0.247500770714846D+03
 0.247500770714846D+03 0.000000000000000D+00 0.000000000000000D+00 -.247500770714846D+03
 0.256751028824326D+03 -.119632125133344D+03 0.178062367888394D+03 0.654067166306919D+02
 0.238250512605367D+03 0.119632125133344D+03 -.178062367888394D+03 -.654067166306919D+02
 0.000000000000000D+00 0.000000000000000D+00 0.000000000000000D+00 -.000000000000000D+00
 0.567836224235104D+03 0.000000000000000D+00 0.000000000000000D+00 0.567836224235104D+03
 0.612532805671074D+03 0.000000000000000D+00 0.000000000000000D+00 -.612532805671074D+03
 0.388902626445775D+03 -.356884384009611D+03 0.630535544287131D+02 0.654067166306919D+02
 0.304227973785842D+03 -.797073275864744D+02 -.274692823765171D+03 -.654067166306919D+02
 0.487238429674560D+03 0.436591711596086D+03 0.211639269336458D+03 -.446965814359698D+02
0.252147603997D-02 0.000000000000D+00 0.000000000000D+00 0.192567638162D-02 0.000000000000D+00  5 2 -1 25 24 21 0 0.91068991D-01 0.15920470D-01 0.56972158D+05 0.56972158D+05 0.56972158D+05 0.11867076D+01  1  2  2  2  5  2       -1 0.429053165054D+00 0.100000000000D+01
-.139858133861D-03 0.000000000000D+00 -.968313191338D-05 0.192567638162D-02 0.000000000000D+00  5 2 -1 25 24 21 2 0.91068991D-01 0.15920470D-01 0.56972158D+05 0.56972158D+05 0.56972158D+05 0.11867076D+01  1  2  3  2  5  2       -1 -.335144010934D-01 0.100000000000D+01
0.172886241521D-03 0.000000000000D+00 0.000000000000D+00 0.192567638162D-02 0.000000000000D+00  5 2 -1 25 24 21 2 0.91068991D-01 0.15920470D-01 0.56972158D+05 0.56972158D+05 0.56972158D+05 0.11867076D+01  1  2 15  2  5  2       -1 0.414289729307D-01 0.100000000000D+01
0.169734680828D-02 0.000000000000D+00 -.103056210134D-02 0.192567638162D-02 0.000000000000D+00  5 2 -1 25 24 21 2 0.91068991D-01 0.86928792D-01 0.56972158D+05 0.56972158D+05 0.56972158D+05 0.11867076D+01  1  2  5  2  5  2       -1 0.194866723744D-01 0.100000000000D+01
0.305740046335D-03 0.000000000000D+00 -.214049632427D-03 0.192567638162D-02 0.000000000000D+00  5 2 21 25 24 1 2 0.91068991D-01 0.86928792D-01 0.56972158D+05 0.56972158D+05 0.56972158D+05 0.11867076D+01  1  2  5  4  5  2       -1 0.307774320303D-01 0.100000000000D+01
  </mgrwgt>
  </event>
  <event>
  4     66 0.48098993E-03 0.97786529E+02 0.75467711E-02 0.11315947E+00
        2 -1    0    0  501    0 0.00000000E+00 0.00000000E+00 0.18836298E+03 0.18836325E+03 0.32000000E+00 0.0000E+00 0.9000E+01
       -1 -1    0    0    0  501 0.00000000E+00 0.00000000E+00 -.28569458E+03 0.28569476E+03 0.32000000E+00 0.0000E+00 0.9000E+01
       25  1    1    2    0    0 0.18221757E+03 -.64575683E+02 -.12646031E+03 0.26266037E+03 0.12500000E+03 0.0000E+00 0.9000E+01
       24  1    1    2    0    0 -.18221757E+03 0.64575683E+02 0.29128711E+02 0.21139763E+03 0.80419002E+02 0.0000E+00 0.9000E+01
#aMCatNLO 1  0  0  2  1 0.65818863D+01 0.00000000D+00  -5  5  0 0.00000000D+00 0.00000000D+00 0.00000000D+00 0.00000000D+00 0.00000000D+00
  <mgrwgt>
 0.3796618707D+00   11    2    0
 0.231979283054884D+03 0.000000000000000D+00 0.000000000000000D+00 0.231979283054884D+03
 0.231979283054884D+03 0.000000000000000D+00 0.000000000000000D+00 -.231979283054884D+03
 0.241848466118381D+03 0.182217567873691D+03 -.645756831639303D+02 -.741108606475611D+02
 0.222110099991388D+03 -.182217567873691D+03 0.645756831639303D+02 0.741108606475611D+02
 0.000000000000000D+00 -.000000000000000D+00 0.000000000000000D+00 -.000000000000000D+00
 0.234509750843066D+03 0.000000000000000D+00 0.000000000000000D+00 0.234509750843066D+03
 0.236322435159260D+03 0.000000000000000D+00 0.000000000000000D+00 -.236322435159260D+03
 0.244549294443420D+03 0.185642409576670D+03 -.649910264068841D+02 -.741108606475611D+02
 0.219455955843114D+03 -.179108396809878D+03 0.641986224690028D+02 0.741108606475611D+02
 0.682693571579144D+01 -.653401276679230D+01 0.792403937881286D+00 -.181268431619358D+01
0.212770475542D-02 0.000000000000D+00 0.000000000000D+00 0.188465899170D-02 0.000000000000D+00  5 2 -1 25 24 21 0 0.28978954D-01 0.43953047D-01 0.48310872D+05 0.48310872D+05 0.48310872D+05 0.11937627D+01  1  2  2  2  5  2       -1 0.229594109483D+00 0.100000000000D+01
-.117787627211D-03 0.000000000000D+00 -.817094649833D-05 0.188465899170D-02 0.000000000000D+00  5 2 -1 25 24 21 2 0.28978954D-01 0.43953047D-01 0.48310872D+05 0.48310872D+05 0.48310872D+05 0.11937627D+01  1  2  3  2  5  2       -1 -.181127782825D-01 0.100000000000D+01
0.145955094497D-03 0.000000000000D+00 0.000000000000D+00 0.188465899170D-02 0.000000000000D+00  5 2 -1 25 24 21 2 0.28978954D-01 0.43953047D-01 0.48310872D+05 0.48310872D+05 0.48310872D+05 0.11937627D+01  1  2 15  2  5  2       -1 0.224442271944D-01 0.100000000000D+01
0.188450662490D-02 0.000000000000D+00 0.000000000000D+00 0.188465899170D-02 0.000000000000D+00  5 2 -1 25 24 21 2 0.28978954D-01 0.45012103D-01 0.49772415D+05 0.49772415D+05 0.49772415D+05 0.11924780D+01  1  2 12  2  5  2       -1 0.277041156042D+00 0.100000000000D+01
-.287819771082D-02 0.000000000000D+00 0.000000000000D+00 0.188465899170D-02 0.000000000000D+00  5 2 -1 25 24 21 2 0.28978954D-01 0.43953047D-01 0.48310872D+05 0.48310872D+05 0.48310872D+05 0.11937627D+01  1  2  4  2  5  2       -1 -.442594508638D+00 0.100000000000D+01
-.677242148300D-01 0.000000000000D+00 -.880499786921D-02 0.188465899170D-02 0.000000000000D+00  5 2 -1 25 24 21 2 0.28978954D-01 0.45209340D-01 0.48310872D+05 0.48310872D+05 0.48310872D+05 0.11937627D+01  1  2  5  2  5  2       -1 -.989717833748D+01 0.100000000000D+01
0.679488657804D-01 0.000000000000D+00 0.880150251266D-02 0.188465899170D-02 0.000000000000D+00  5 2 -1 25 24 21 2 0.28978954D-01 0.43953047D-01 0.48310872D+05 0.48310872D+05 0.48310872D+05 0.11937627D+01  1  2  6  2  5  2       -1 0.104488287061D+02 0.100000000000D+01
0.118486267494D-02 0.000000000000D+00 0.000000000000D+00 0.188465899170D-02 0.329993872270D-03  5 2 -1 25 24 21 2 0.29295061D-01 0.44775942D-01 0.49772415D+05 0.49772415D+05 0.49772415D+05 0.11924780D+01  1  2 11  2  5  2       -1 0.173764043977D+00 0.100000000000D+01
0.569355019916D-04 0.000000000000D+00 0.000000000000D+00 0.188465899170D-02 0.000000000000D+00  5 2 21 25 24 1 2 0.28978954D-01 0.45012103D-01 0.49772415D+05 0.49772415D+05 0.49772415D+05 0.11924780D+01  1  2 12  4  5  2       -1 0.854788686348D-01 0.100000000000D+01
-.340672011182D-03 0.000000000000D+00 -.446206930092D-04 0.188465899170D-02 0.000000000000D+00  5 2 21 25 24 1 2 0.28978954D-01 0.45209340D-01 0.48310872D+05 0.48310872D+05 0.48310872D+05 0.11937627D+01  1  2  5  4  5  2       -1 -.508284751464D+00 0.100000000000D+01
0.578873495512D-05 0.000000000000D+00 0.000000000000D+00 0.188465899170D-02 0.111395537049D-05  5 2 21 25 24 1 2 0.29295061D-01 0.44775942D-01 0.49772415D+05 0.49772415D+05 0.49772415D+05 0.11924780D+01  1  2 11  4  5  2       -1 0.868113514592D-02 0.100000000000D+01
  </mgrwgt>
  </event>
  <event>
  5     66 0.48098993E-03 0.13299200E+03 0.75467711E-02 0.11727373E+00
        2 -1    0    0  501    0 0.00000000E+00 0.00000000E+00 0.20639827E+04 0.20639827E+04 0.32000000E+00 0.0000E+00 0.9000E+01
       21 -1    0    0  502  501 0.00000000E+00 0.00000000E+00 -.22076710E+02 0.22089446E+02 0.75000000E+00 0.0000E+00 0.9000E+01
       25  1    1    2    0    0 -.46274531E+02 -.34999078E+01 0.12044987E+04 0.12118563E+04 0.12500000E+03 0.0000E+00 0.9000E+01
       24  1    1    2    0    0 0.11810012E+03 -.11268816E+02 0.30752509E+03 0.33928383E+03 0.80419002E+02 0.0000E+00 0.9000E+01
        1  1    1    2  502    0 -.71825586E+02 0.14768723E+02 0.52988215E+03 0.53493198E+03 0.32000000E+00 0.0000E+00 0.9000E+01
#aMCatNLO 2  0  0  2  2 0.73328234D+02 0.00000000D+00  -5  5  0 0.00000000D+00 0.00000000D+00 0.00000000D+00 0.00000000D+00 0.00000000D+00
  <mgrwgt>
 0.8467542493D-01    1    2    0
 0.169146947661510D+03 0.000000000000000D+00 0.000000000000000D+00 0.169146947661510D+03
 0.169146947661510D+03 0.000000000000000D+00 0.000000000000000D+00 -.169146947661510D+03
 0.182682196408587D+03 -.831888536439256D+02 0.409038786875435D+01 0.103974363384242D+03
 0.155611698914433D+03 0.831888536439256D+02 -.409038786875435D+01 -.103974363384242D+03
 0.000000000000000D+00 -.000000000000000D+00 0.000000000000000D+00 0.000000000000000D+00
 0.233238781920147D+03 0.000000000000000D+00 0.000000000000000D+00 0.233238781920147D+03
 0.195418268235307D+03 0.000000000000000D+00 0.000000000000000D+00 -.195418268235307D+03
 0.169083558561092D+03 -.462745305776869D+02 -.349990776143708D+01 0.103974363384242D+03
 0.177066393828344D+03 0.118100116093636D+03 -.112688156660355D+02 -.103974363384242D+03
 0.825070977660178D+02 -.718255855159492D+02 0.147687234274725D+02 0.378205136848393D+02
0.124517074397D-04 0.000000000000D+00 0.000000000000D+00 0.147988941255D-02 0.570884099653D-07  5 2 21 25 24 1 2 0.31753630D+00 0.33973934D-02 0.30623045D+05 0.30623045D+05 0.30623045D+05 0.12139626D+01  1  2  1  4  5  2       -1 0.846754249282D-01 0.100000000000D+01
  </mgrwgt>
  </event>
  <event>
  4     66 0.48098993E-03 0.11659032E+03 0.75467711E-02 0.12079437E+00
        4 -1    0    0  501    0 0.00000000E+00 0.00000000E+00 0.77833404E+03 0.77833558E+03 0.15500000E+01 0.0000E+00 0.9000E+01
       -3 -1    0    0    0  501 0.00000000E+00 0.00000000E+00 -.18717582E+02 0.18724259E+02 0.50000000E+00 0.0000E+00 0.9000E+01
       25  1    1    2    0    0 -.13874904E+02 0.52347701E+02 0.54137880E+03 0.55825514E+03 0.12500000E+03 0.0000E+00 0.9000E+01
       24  1    1    2    0    0 0.13874904E+02 -.52347701E+02 0.21823766E+03 0.23880470E+03 0.80419002E+02 0.0000E+00 0.9000E+01
#aMCatNLO 1  0  0  1  2 0.49586761D+02 0.00000000D+00  -5  5  0 0.00000000D+00 0.00000000D+00 0.00000000D+00 0.00000000D+00 0.00000000D+00
  <mgrwgt>
 0.1694046571D-01    4    2    0
 0.120713739470534D+03 0.000000000000000D+00 0.000000000000000D+00 0.120713739470534D+03
 0.120713739470534D+03 0.000000000000000D+00 0.000000000000000D+00 -.120713739470534D+03
 0.139679650239674D+03 -.138749039823450D+02 0.523477005790116D+02 0.308643803541952D+02
 0.101747828701393D+03 0.138749039823450D+02 -.523477005790116D+02 -.308643803541952D+02
 0.000000000000000D+00 -.000000000000000D+00 0.000000000000000D+00 -.000000000000000D+00
 0.131615810422328D+03 0.000000000000000D+00 0.000000000000000D+00 0.131615810422328D+03
 0.196568816335344D+03 0.000000000000000D+00 0.000000000000000D+00 -.196568816335344D+03
 0.131768024914877D+03 -.131011318028336D+02 0.247701990465146D+02 0.308643803541952D+02
 0.114699162547605D+03 0.144918945683652D+02 -.743374532246185D+02 -.308643803541952D+02
 0.817174392951898D+02 -.139076276553161D+01 0.495672541781038D+02 -.649530059130160D+02
0.336038200776D-03 0.000000000000D+00 0.000000000000D+00 0.261297987029D-02 0.000000000000D+00  5 4 -3 25 24 21 0 0.11974433D+00 0.28802603D-02 0.13593304D+05 0.13593304D+05 0.13593304D+05 0.12527276D+01  1  2  2  1  5  1        4 0.193495452073D-01 0.100000000000D+01
-.186413701108D-04 0.000000000000D+00 -.129047517187D-05 0.261297987029D-02 0.000000000000D+00  5 4 -3 25 24 21 2 0.11974433D+00 0.28802603D-02 0.13593304D+05 0.13593304D+05 0.13593304D+05 0.12527276D+01  1  2  3  1  5  1        4 -.168450860822D-02 0.100000000000D+01
0.232706187011D-04 0.000000000000D+00 0.000000000000D+00 0.261297987029D-02 0.000000000000D+00  5 4 -3 25 24 21 2 0.11974433D+00 0.28802603D-02 0.13593304D+05 0.13593304D+05 0.13593304D+05 0.12527276D+01  1  2 15  1  5  1        4 0.210282598799D-02 0.100000000000D+01
-.312889773409D-04 0.000000000000D+00 0.000000000000D+00 0.261297987029D-02 0.000000000000D+00  5 4 -3 25 24 21 2 0.11974433D+00 0.28802603D-02 0.13593304D+05 0.13593304D+05 0.13593304D+05 0.12527276D+01  1  2  4  1  5  1        4 -.282739687909D-02 0.100000000000D+01
  </mgrwgt>
  </event>
  <event>
  4     66 0.48098993E-03 0.19425297E+03 0.75467711E-02 0.10229767E+00
        2 -1    0    0  501    0 0.00000000E+00 0.00000000E+00 0.57303079E+03 0.57303088E+03 0.32000000E+00 0.0000E+00 0.9000E+01
       -1 -1    0    0    0  501 0.00000000E+00 0.00000000E+00 -.65858536E+02 0.65859314E+02 0.32000000E+00 0.0000E+00 0.9000E+01
       25  1    1    2    0    0 -.14208456E+03 0.81480018E+02 0.27265152E+03 0.34174678E+03 0.12500000E+03 0.0000E+00 0.9000E+01
       24  1    1    2    0    0 0.14208456E+03 -.81480018E+02 0.23452074E+03 0.29714341E+03 0.80419002E+02 0.0000E+00 0.9000E+01
#aMCatNLO 1  0  0  2  1 0.38535427D+03 0.00000000D+00  -5  5  0 0.00000000D+00 0.00000000D+00 0.00000000D+00 0.00000000D+00 0.00000000D+00
  <mgrwgt>
 0.5368047402D+00    3    2    0
 0.194265916295486D+03 0.000000000000000D+00 0.000000000000000D+00 0.194265916295486D+03
 0.194265916295486D+03 0.000000000000000D+00 0.000000000000000D+00 -.194265916295486D+03
 0.206051030509372D+03 -.142084555999509D+03 0.814800179818066D+02 0.223892609989151D+01
 0.182480802081601D+03 0.142084555999509D+03 -.814800179818066D+02 -.223892609989151D+01
 0.000000000000000D+00 0.000000000000000D+00 -.000000000000000D+00 0.000000000000000D+00
 0.128222930864719D+04 0.000000000000000D+00 0.000000000000000D+00 0.128222930864719D+04
 0.310419671155478D+03 0.000000000000000D+00 0.000000000000000D+00 -.310419671155478D+03
 0.434709782811047D+03 -.405675881535988D+03 0.936464714847580D+02 0.223892609989151D+01
 0.112514937885781D+03 0.207314449647165D+02 -.758787828886625D+02 -.223892609989151D+01
 0.104542425910584D+04 0.384944436571272D+03 -.177676885960955D+02 0.971809637491712D+03
0.147506069048D-02 0.000000000000D+00 0.000000000000D+00 0.218123102854D-02 0.000000000000D+00  5 2 -1 25 24 21 0 0.88158650D-01 0.10132149D-01 0.37734215D+05 0.37734215D+05 0.37734215D+05 0.12045805D+01  1  2  2  2  5  2       -1 0.526593494904D+00 0.100000000000D+01
-.819478156949D-04 0.000000000000D+00 -.566462144383D-05 0.218123102854D-02 0.000000000000D+00  5 2 -1 25 24 21 2 0.88158650D-01 0.10132149D-01 0.37734215D+05 0.37734215D+05 0.37734215D+05 0.12045805D+01  1  2  3  2  5  2       -1 -.424497011421D-01 0.100000000000D+01
0.101660304298D-03 0.000000000000D+00 0.000000000000D+00 0.218123102854D-02 0.000000000000D+00  5 2 -1 25 24 21 2 0.88158650D-01 0.10132149D-01 0.37734215D+05 0.37734215D+05 0.37734215D+05 0.12045805D+01  1  2 15  2  5  2       -1 0.526609464680D-01 0.100000000000D+01
  </mgrwgt>
  </event>
  <event>
  4     66 0.48098993E-03 0.13538720E+03 0.75467711E-02 0.11832188E+00
        2 -1    0    0  501    0 0.00000000E+00 0.00000000E+00 0.20760590E+04 0.20760590E+04 0.32000000E+00 0.0000E+00 0.9000E+01
       -1 -1    0    0    0  501 0.00000000E+00 0.00000000E+00 -.89817086E+01 0.89874073E+01 0.32000000E+00 0.0000E+00 0.9000E+01
       25  1    1    2    0    0 0.86853585E+02 -.50990679E+01 0.12964943E+04 0.13054087E+04 0.12500000E+03 0.0000E+00 0.9000E+01
       24  1    1    2    0    0 -.86853585E+02 0.50990679E+01 0.77058301E+03 0.77963769E+03 0.80419002E+02 0.0000E+00 0.9000E+01
#aMCatNLO 1  0  0  1  1 0.53873239D+02 0.00000000D+00  -5  5  0 0.00000000D+00 0.00000000D+00 0.00000000D+00 0.00000000D+00 0.00000000D+00
  <mgrwgt>
 0.4974365244D+00    3    2    0
 0.136574241287515D+03 0.000000000000000D+00 0.000000000000000D+00 0.136574241287515D+03
 0.136574241287515D+03 0.000000000000000D+00 0.000000000000000D+00 -.136574241287515D+03
 0.153337622067260D+03 0.868535847647072D+02 -.509906789229374D+01 0.178292080977126D+02
 0.119810860507771D+03 -.868535847647072D+02 0.509906789229374D+01 -.178292080977126D+02
 0.000000000000000D+00 -.000000000000000D+00 -.000000000000000D+00 -.000000000000000D+00
 0.141933036916492D+03 0.000000000000000D+00 0.000000000000000D+00 0.141933036916492D+03
 0.405202789939461D+03 0.000000000000000D+00 0.000000000000000D+00 -.405202789939461D+03
 0.166053677062082D+03 0.106074271155520D+03 0.194728529823444D+02 0.178292080977126D+02
 0.112356846204403D+03 -.728819371557915D+02 0.229605642277574D+02 -.178292080977126D+02
 0.268725303589468D+03 -.331923339997288D+02 -.424334172101018D+02 -.263269753022970D+03
0.545397307038D-03 0.000000000000D+00 0.000000000000D+00 0.249950072232D-02 0.000000000000D+00  5 2 -1 25 24 21 0 0.31939413D+00 0.13822416D-02 0.18329693D+05 0.18329693D+05 0.18329693D+05 0.12380176D+01  1  2  2  1  5  1        2 0.487320807635D+00 0.100000000000D+01
-.302970429814D-04 0.000000000000D+00 -.209446926543D-05 0.249950072232D-02 0.000000000000D+00  5 2 -1 25 24 21 2 0.31939413D+00 0.13822416D-02 0.18329693D+05 0.18329693D+05 0.18329693D+05 0.12380176D+01  1  2  3  1  5  1        2 -.414911889370D-01 0.100000000000D+01
0.376835824865D-04 0.000000000000D+00 0.000000000000D+00 0.249950072232D-02 0.000000000000D+00  5 2 -1 25 24 21 2 0.31939413D+00 0.13822416D-02 0.18329693D+05 0.18329693D+05 0.18329693D+05 0.12380176D+01  1  2 15  1  5  1        2 0.516069057211D-01 0.100000000000D+01
  </mgrwgt>
  </event>
  <event>
  5     66 0.48098993E-03 0.10833230E+03 0.75467711E-02 0.12544296E+00
        2 -1    0    0  502    0 0.00000000E+00 0.00000000E+00 0.43020366E+02 0.43021556E+02 0.32000000E+00 0.0000E+00 0.9000E+01
       -1 -1    0    0    0  501 0.00000000E+00 0.00000000E+00 -.34004850E+03 0.34004865E+03 0.32000000E+00 0.0000E+00 0.9000E+01
       25  1    1    2    0    0 0.22557296E+02 -.31359242E+02 -.10265551E+03 0.16629909E+03 0.12500000E+03 0.0000E+00 0.9000E+01
       24  1    1    2    0    0 -.21621510E+02 0.21466736E+02 -.17383542E+03 0.19394401E+03 0.80419002E+02 0.0000E+00 0.9000E+01
       21  1    1    2  502  501 -.93578588E+00 0.98925063E+01 -.20537209E+02 0.22827108E+02 0.75000000E+00 0.0000E+00 0.9000E+01
#aMCatNLO 2  0  0  1  1 0.99366683D+01 0.00000000D+00  -5  5  0 0.00000000D+00 0.00000000D+00 0.00000000D+00 0.00000000D+00 0.00000000D+00
  <mgrwgt>
 0.2870615089D+00    2    2    0
 0.115357185136840D+03 0.000000000000000D+00 0.000000000000000D+00 0.115357185136840D+03
 0.115357185136840D+03 0.000000000000000D+00 0.000000000000000D+00 -.115357185136840D+03
 0.135203768673804D+03 0.220065037369993D+02 -.255366362008405D+02 0.389698995176912D+02
 0.955106015998754D+02 -.220065037369993D+02 0.255366362008405D+02 -.389698995176912D+02
 0.000000000000000D+00 -.000000000000000D+00 0.000000000000000D+00 -.000000000000000D+00
 0.118608440993945D+03 0.000000000000000D+00 0.000000000000000D+00 0.118608440993945D+03
 0.123314595694463D+03 0.000000000000000D+00 0.000000000000000D+00 -.123314595694463D+03
 0.136513320649533D+03 0.225572956331907D+02 -.313592420198607D+02 0.389698995176912D+02
 0.944149323369050D+02 -.216215097521427D+02 0.214667356957425D+02 -.389698995176912D+02
 0.109947837019696D+02 -.935785881048002D+00 0.989250632411827D+01 -.470615470051811D+01
-.488731412993D-05 0.000000000000D+00 0.000000000000D+00 0.259860649587D-02 0.000000000000D+00  5 2 -1 25 24 21 2 0.64365079D-02 0.48934176D-01 0.11735887D+05 0.11735887D+05 0.11735887D+05 0.12601585D+01  1  2  8  1  5  1        2 -.400388239846D-02 0.100000000000D+01
0.417344341074D-03 0.000000000000D+00 0.000000000000D+00 0.259860649587D-02 0.221809609729D-03  5 2 -1 25 24 21 2 0.66179161D-02 0.52309686D-01 0.12855791D+05 0.12855791D+05 0.12855791D+05 0.12555329D+01  1  2  1  1  5  1        2 0.291065391320D+00 0.100000000000D+01
  </mgrwgt>
  </event>
  <event>
  4     66 0.48098993E-03 0.10451644E+03 0.75467711E-02 0.12146407E+00
        2 -1    0    0  501    0 0.00000000E+00 0.00000000E+00 0.20894443E+04 0.20894444E+04 0.32000000E+00 0.0000E+00 0.9000E+01
       -1 -1    0    0    0  501 0.00000000E+00 0.00000000E+00 -.72137378E+01 0.72208319E+01 0.32000000E+00 0.0000E+00 0.9000E+01
       25  1    1    2    0    0 -.18749784E+02 0.24203728E+01 0.65762743E+03 0.66966876E+03 0.12500000E+03 0.0000E+00 0.9000E+01
       24  1    1    2    0    0 0.18749784E+02 -.24203728E+01 0.14246032E+04 0.14269964E+04 0.80419002E+02 0.0000E+00 0.9000E+01
#aMCatNLO 1  0  0  2  1 0.60118003D+02 0.00000000D+00  -5  5  0 0.00000000D+00 0.00000000D+00 0.00000000D+00 0.00000000D+00 0.00000000D+00
  <mgrwgt>
 0.4686459186D+00    4    2    0
 0.122801328374351D+03 0.000000000000000D+00 0.000000000000000D+00 0.122801328374351D+03
 0.122801328374351D+03 0.000000000000000D+00 0.000000000000000D+00 -.122801328374351D+03
 0.141444823861860D+03 -.187497839019700D+02 0.242037277057728D+01 -.634367842548274D+02
 0.104157832886841D+03 0.187497839019700D+02 -.242037277057728D+01 0.634367842548274D+02
 0.000000000000000D+00 -.000000000000000D+00 0.000000000000000D+00 0.000000000000000D+00
 0.210322159354595D+03 0.000000000000000D+00 0.000000000000000D+00 0.210322159354595D+03
 0.137196571507057D+03 0.000000000000000D+00 0.000000000000000D+00 -.137196571507057D+03
 0.142089114837369D+03 0.430270201043222D+01 -.228380759715647D+02 -.634367842548274D+02
 0.110764279953644D+03 0.362238436256446D+02 -.215665786732607D+02 0.634367842548274D+02
 0.946653360706400D+02 -.405265456360768D+02 0.444046546448254D+02 0.731255878475379D+02
0.420610219943D-03 0.000000000000D+00 0.000000000000D+00 0.209740019919D-02 0.000000000000D+00  5 2 -1 25 24 21 0 0.32145352D+00 0.11103534D-02 0.10923686D+05 0.10923686D+05 0.10923686D+05 0.12638355D+01  1  2  2  2  5  2       -1 0.501245674357D+00 0.100000000000D+01
-.226287432307D-04 0.000000000000D+00 -.161525399379D-05 0.209740019919D-02 0.000000000000D+00  5 2 -1 25 24 21 2 0.32145352D+00 0.11103534D-02 0.10923686D+05 0.10923686D+05 0.10923686D+05 0.12638355D+01  1  2  3  2  5  2       -1 -.430737204494D-01 0.100000000000D+01
0.288685001989D-04 0.000000000000D+00 0.000000000000D+00 0.209740019919D-02 0.000000000000D+00  5 2 -1 25 24 21 2 0.32145352D+00 0.11103534D-02 0.10923686D+05 0.10923686D+05 0.10923686D+05 0.12638355D+01  1  2 15  2  5  2       -1 0.549510723898D-01 0.100000000000D+01
-.233660115476D-04 0.000000000000D+00 0.000000000000D+00 0.209740019919D-02 0.000000000000D+00  5 2 -1 25 24 21 2 0.32145352D+00 0.11103534D-02 0.10923686D+05 0.10923686D+05 0.10923686D+05 0.12638355D+01  1  2  4  2  5  2       -1 -.444771076837D-01 0.100000000000D+01
  </mgrwgt>
  </event>
  <event>
  4     66 0.48098993E-03 0.88791726E+02 0.75467711E-02 0.12062077E+00
        2 -1    0    0  501    0 0.00000000E+00 0.00000000E+00 0.47779009E+03 0.47779020E+03 0.32000000E+00 0.0000E+00 0.9000E+01
       -1 -1    0    0    0  501 0.00000000E+00 0.00000000E+00 -.10893483E+03 0.10893530E+03 0.32000000E+00 0.0000E+00 0.9000E+01
       25  1    1    2    0    0 -.62220479E+02 0.70002445E+02 -.38672807E+02 0.16091090E+03 0.12500000E+03 0.0000E+00 0.9000E+01
       24  1    1    2    0    0 0.62220479E+02 -.70002445E+02 0.40752807E+03 0.42581460E+03 0.80419002E+02 0.0000E+00 0.9000E+01
#aMCatNLO 1  0  0  2  1 0.11571658D+02 0.00000000D+00  -5  5  0 0.00000000D+00 0.00000000D+00 0.00000000D+00 0.00000000D+00 0.00000000D+00
  <mgrwgt>
 0.1418215540D+00    9    2    0
 0.228140637403608D+03 0.000000000000000D+00 0.000000000000000D+00 0.228140637403608D+03
 0.228140637403608D+03 0.000000000000000D+00 0.000000000000000D+00 -.228140637403608D+03
 0.238175877234016D+03 -.622204794388161D+02 0.700024447454350D+02 -.179808281689858D+03
 0.218105397573200D+03 0.622204794388161D+02 -.700024447454350D+02 0.179808281689858D+03
 0.000000000000000D+00 0.000000000000000D+00 -.000000000000000D+00 -.000000000000000D+00
 0.230377585386015D+03 0.000000000000000D+00 0.000000000000000D+00 0.230377585386015D+03
 0.243686318368875D+03 0.000000000000000D+00 0.000000000000000D+00 -.243686318368875D+03
 0.240470204968133D+03 -.676087746924944D+02 0.727939207471075D+02 -.179808281689858D+03
 0.215957779510057D+03 0.573340703698990D+02 -.674709773688234D+02 0.179808281689858D+03
 0.176359192766992D+02 0.102747043225954D+02 -.532294337828408D+01 -.133087329828602D+02
0.832795845249D-03 0.000000000000D+00 0.000000000000D+00 0.842535049784D-03 0.000000000000D+00  5 2 -1 25 24 21 0 0.73506212D-01 0.16759249D-01 0.19549724D+05 0.19549724D+05 0.19549724D+05 0.12349163D+01  1  2  2  2  5  2       -1 0.164500286483D+00 0.100000000000D+01
-.327818520519D-04 0.000000000000D+00 -.319815532594D-05 0.842535049784D-03 0.000000000000D+00  5 2 -1 25 24 21 2 0.73506212D-01 0.16759249D-01 0.19549724D+05 0.19549724D+05 0.19549724D+05 0.12349163D+01  1  2  3  2  5  2       -1 -.987498891488D-02 0.100000000000D+01
0.565498805226D-04 0.000000000000D+00 0.000000000000D+00 0.842535049784D-03 0.000000000000D+00  5 2 -1 25 24 21 2 0.73506212D-01 0.16759249D-01 0.19549724D+05 0.19549724D+05 0.19549724D+05 0.12349163D+01  1  2 15  2  5  2       -1 0.170347130606D-01 0.100000000000D+01
0.498293927505D-02 0.000000000000D+00 0.000000000000D+00 0.842535049784D-03 0.000000000000D+00  5 2 -1 25 24 21 2 0.73506212D-01 0.17979968D-01 0.21148967D+05 0.21148967D+05 0.21148967D+05 0.12311642D+01  1  2 12  2  5  2       -1 0.133562570089D+01 0.100000000000D+01
-.507654476316D-02 0.000000000000D+00 0.000000000000D+00 0.842535049784D-03 0.000000000000D+00  5 2 -1 25 24 21 2 0.73506212D-01 0.16759249D-01 0.19549724D+05 0.19549724D+05 0.19549724D+05 0.12349163D+01  1  2  4  2  5  2       -1 -.152922486450D+01 0.100000000000D+01
-.101734161918D-01 0.000000000000D+00 -.137506249753D-02 0.842535049784D-03 0.000000000000D+00  5 2 -1 25 24 21 2 0.73506212D-01 0.18055595D-01 0.19549724D+05 0.19549724D+05 0.19549724D+05 0.12349163D+01  1  2  5  2  5  2       -1 -.272287713755D+01 0.100000000000D+01
0.102512077775D-01 0.000000000000D+00 0.137125478729D-02 0.842535049784D-03 0.000000000000D+00  5 2 -1 25 24 21 2 0.73506212D-01 0.16759249D-01 0.19549724D+05 0.19549724D+05 0.19549724D+05 0.12349163D+01  1  2  6  2  5  2       -1 0.308800622389D+01 0.100000000000D+01
0.675000942486D-04 0.000000000000D+00 0.000000000000D+00 0.842535049784D-03 0.000000000000D+00  5 2 21 25 24 1 2 0.73506212D-01 0.17979968D-01 0.21148967D+05 0.21148967D+05 0.21148967D+05 0.12311642D+01  1  2 12  4  5  2       -1 0.237261465031D+00 0.100000000000D+01
-.124925267182D-03 0.000000000000D+00 -.172370177921D-04 0.842535049784D-03 0.000000000000D+00  5 2 21 25 24 1 2 0.73506212D-01 0.18055595D-01 0.19549724D+05 0.19549724D+05 0.19549724D+05 0.12349163D+01  1  2  5  4  5  2       -1 -.438629844406D+00 0.100000000000D+01
  </mgrwgt>
  </event>
  <event>
  5     66 0.48098993E-03 0.10435028E+03 0.75467711E-02 0.10730760E+00
        2 -1    0    0  502    0 0.00000000E+00 0.00000000E+00 0.16649821E+03 0.16649852E+03 0.32000000E+00 0.0000E+00 0.9000E+01
       -1 -1    0    0    0  501 0.00000000E+00 0.00000000E+00 -.75112480E+03 0.75112486E+03 0.32000000E+00 0.0000E+00 0.9000E+01
       25  1    1    2    0    0 0.14740979E+03 -.11937485E+03 -.32683969E+03 0.39803164E+03 0.12500000E+03 0.0000E+00 0.9000E+01
       24  1    1    2    0    0 0.62810997E+02 -.83606455E+02 -.16857014E+03 0.21405226E+03 0.80419002E+02 0.0000E+00 0.9000E+01
       21  1    1    2  502  501 -.21022079E+03 0.20298130E+03 -.89216753E+02 0.30553949E+03 0.75000000E+00 0.0000E+00 0.9000E+01
#aMCatNLO 2  0  0  1  1 0.29222284D+03 0.00000000D+00  -5  5  0 0.00000000D+00 0.00000000D+00 0.00000000D+00 0.00000000D+00 0.00000000D+00
  <mgrwgt>
 0.1181753304D-01    1    2    0
 0.104668051602005D+03 0.000000000000000D+00 0.000000000000000D+00 0.104668051602005D+03
 0.104668051602005D+03 0.000000000000000D+00 0.000000000000000D+00 -.104668051602005D+03
 0.126541450183196D+03 0.166326435374165D+02 0.689865696408119D+01 -.796883401229525D+01
 0.827946530208133D+02 -.166326435374165D+02 -.689865696408119D+01 0.796883401229525D+01
 0.000000000000000D+00 -.000000000000000D+00 0.000000000000000D+00 0.000000000000000D+00
 0.512971227566530D+03 0.000000000000000D+00 0.000000000000000D+00 0.512971227566530D+03
 0.243796910700014D+03 0.000000000000000D+00 0.000000000000000D+00 -.243796910700014D+03
 0.227307068242332D+03 0.147409790819046D+03 -.119374848808674D+03 -.796883401229525D+01
 0.132158915345278D+03 0.628109969051263D+02 -.836064549131138D+02 0.796883401229525D+01
 0.397302154678934D+03 -.210220787724172D+03 0.202981303721788D+03 0.269174316866515D+03
0.508466783400D-03 0.000000000000D+00 0.000000000000D+00 0.315905740816D-02 0.100975813768D-05  5 2 -1 25 24 21 2 0.25615107D-01 0.11555755D+00 0.10605073D+06 0.10605073D+06 0.10605073D+06 0.11612352D+01  1  2  1  1  5  1        2 0.118175330426D-01 0.100000000000D+01
  </mgrwgt>
  </event>
  <event>
  5     66 -.48098993E-03 0.10307758E+03 0.75467711E-02 0.12545898E+00
        2 -1    0    0  502    0 0.00000000E+00 0.00000000E+00 0.10179827E+04 0.10179828E+04 0.32000000E+00 0.0000E+00 0.9000E+01
       -1 -1    0    0    0  501 0.00000000E+00 0.00000000E+00 -.13599172E+02 0.13602936E+02 0.32000000E+00 0.0000E+00 0.9000E+01
       25  1    1    2    0    0 -.18529839E+02 0.70217110E+01 0.42491614E+03 0.44336371E+03 0.12500000E+03 0.0000E+00 0.9000E+01
       24  1    1    2    0    0 0.17251252E+01 0.29384762E+01 0.49652873E+03 0.50301054E+03 0.80419002E+02 0.0000E+00 0.9000E+01
       21  1    1    2  502  501 0.16804713E+02 -.99601872E+01 0.82938673E+02 0.85211441E+02 0.75000000E+00 0.0000E+00 0.9000E+01
#aMCatNLO 2  0  0  1  2 0.19534680D+02 0.00000000D+00  -5  5  0 0.00000000D+00 0.00000000D+00 0.00000000D+00 0.00000000D+00 0.00000000D+00
  <mgrwgt>
 -.1556331635D+00    2    2    0
 0.107449973714506D+03 0.000000000000000D+00 0.000000000000000D+00 0.107449973714506D+03
 0.107449973714506D+03 0.000000000000000D+00 0.000000000000000D+00 -.107449973714506D+03
 0.128757061396913D+03 -.843370424283566D+01 0.103771200695584D+01 -.296846196893869D+02
 0.861428860320983D+02 0.843370424283566D+01 -.103771200695584D+01 0.296846196893869D+02
 0.000000000000000D+00 0.000000000000000D+00 -.000000000000000D+00 -.000000000000000D+00
 0.117598849294985D+03 0.000000000000000D+00 0.000000000000000D+00 0.117598849294985D+03
 0.117722204760453D+03 0.000000000000000D+00 0.000000000000000D+00 -.117722204760453D+03
 0.129995522961789D+03 -.185298385963449D+02 0.702171101646818D+01 -.296846196893869D+02
 0.857904615898912D+02 0.172512515079521D+01 0.293847622869810D+01 0.296846196893869D+02
 0.195350695037585D+02 0.168047134455497D+02 -.996018724516628D+01 -.123355465467771D+00
-.201253189876D-03 0.000000000000D+00 0.000000000000D+00 0.288926280017D-02 0.000000000000D+00  5 2 -1 25 24 21 2 0.16282140D+00 0.19097714D-02 0.12835387D+05 0.12835387D+05 0.12835387D+05 0.12556130D+01  1  2 13  1  5  1        2 -.604462190088D+00 0.100000000000D+01
0.161379360971D-03 0.000000000000D+00 0.000000000000D+00 0.288926280017D-02 0.642221471813D-04  5 2 -1 25 24 21 2 0.15660344D+00 0.20923457D-02 0.12835387D+05 0.12835387D+05 0.12835387D+05 0.12556130D+01  1  2  1  1  5  1        2 0.448829026571D+00 0.100000000000D+01
  </mgrwgt>
  </event>
  <event>
  5     66 0.48098993E-03 0.10493402E+03 0.75467711E-02 0.12306324E+00
        2 -1    0    0  502    0 0.00000000E+00 0.00000000E+00 0.34262646E+03 0.34262661E+03 0.32000000E+00 0.0000E+00 0.9000E+01
       -1 -1    0    0    0  501 0.00000000E+00 0.00000000E+00 -.56174241E+02 0.56175152E+02 0.32000000E+00 0.0000E+00 0.9000E+01
       25  1    1    2    0    0 0.37078222E+02 -.21134605E+02 0.85751475E+02 0.15747946E+03 0.12500000E+03 0.0000E+00 0.9000E+01
       24  1    1    2    0    0 -.97459265E+01 -.10711233E+02 0.17215119E+03 0.19055960E+03 0.80419002E+02 0.0000E+00 0.9000E+01
       21  1    1    2  502  501 -.27332295E+02 0.31845838E+02 0.28549555E+02 0.50762697E+02 0.75000000E+00 0.0000E+00 0.9000E+01
#aMCatNLO 2  0  0  1  2 0.41966794D+02 0.00000000D+00  -5  5  0 0.00000000D+00 0.00000000D+00 0.00000000D+00 0.00000000D+00 0.00000000D+00
  <mgrwgt>
 0.1228168504D+00    1    2    0
 0.114952375555964D+03 0.000000000000000D+00 0.000000000000000D+00 0.114952375555964D+03
 0.114952375555964D+03 0.000000000000000D+00 0.000000000000000D+00 -.114952375555964D+03
 0.134868849663911D+03 0.208794916245273D+02 -.226088287362185D+01 -.460819036911414D+02
 0.950359014480165D+02 -.208794916245273D+02 0.226088287362185D+01 0.460819036911414D+02
 0.000000000000000D+00 -.000000000000000D+00 0.000000000000000D+00 -.000000000000000D+00
 0.132143596351891D+03 0.000000000000000D+00 0.000000000000000D+00 0.132143596351891D+03
 0.145645312940030D+03 0.000000000000000D+00 0.000000000000000D+00 -.145645312940030D+03
 0.139892844356449D+03 0.370782218085141D+02 -.211346048426883D+02 -.460819036911414D+02
 0.938108277764079D+02 -.974592650460855D+01 -.107112334719895D+02 0.460819036911414D+02
 0.440852371590641D+02 -.273322953039056D+02 0.318458383146778D+02 -.135017165881388D+02
0.101671323366D-03 0.000000000000D+00 0.000000000000D+00 0.249248041911D-02 0.121954670031D-04  5 2 -1 25 24 21 2 0.52710616D-01 0.86420710D-02 0.16353850D+05 0.16353850D+05 0.16353850D+05 0.12435668D+01  1  2  1  1  5  1        2 0.122816850358D+00 0.100000000000D+01
  </mgrwgt>
  </event>
  <event>
  4     66 0.48098993E-03 0.13012551E+03 0.75467711E-02 0.10956256E+00
        2 -1    0    0  501    0 0.00000000E+00 0.00000000E+00 0.62767458E+03 0.62767466E+03 0.32000000E+00 0.0000E+00 0.9000E+01
       -1 -1    0    0    0  501 0.00000000E+00 0.00000000E+00 -.46486289E+02 0.46487390E+02 0.32000000E+00 0.0000E+00 0.9000E+01
       25  1    1    2    0    0 -.76975856E+02 -.16456346E+02 0.96183459E+02 0.17627351E+03 0.12500000E+03 0.0000E+00 0.9000E+01
       24  1    1    2    0    0 0.76975856E+02 0.16456346E+02 0.48500483E+03 0.49788853E+03 0.80419002E+02 0.0000E+00 0.9000E+01
#aMCatNLO 1  0  0  2  2 0.21934121D+03 0.00000000D+00  -5  5  0 0.00000000D+00 0.00000000D+00 0.00000000D+00 0.00000000D+00 0.00000000D+00
  <mgrwgt>
 0.3921412568D+00    5    2    0
 0.170817623145003D+03 0.000000000000000D+00 0.000000000000000D+00 0.170817623145003D+03
 0.170817623145003D+03 0.000000000000000D+00 0.000000000000000D+00 -.170817623145003D+03
 0.184220490889299D+03 -.769758558251996D+02 -.164563457827850D+02 -.110073137353987D+03
 0.157414755400708D+03 0.769758558251996D+02 0.164563457827850D+02 0.110073137353987D+03
 0.000000000000000D+00 -.000000000000000D+00 -.000000000000000D+00 -.000000000000000D+00
 0.309284946321520D+03 0.000000000000000D+00 0.000000000000000D+00 0.309284946321520D+03
 0.316150388826997D+03 0.000000000000000D+00 0.000000000000000D+00 -.316150388826997D+03
 0.193390792074849D+03 -.422358129621392D+02 0.887414164627478D+02 -.110073137353987D+03
 0.212595915998324D+03 0.111016646352671D+03 0.119536673077563D+03 0.110073137353987D+03
 0.219448627075345D+03 -.687808333905314D+02 -.208278089540311D+03 -.686544250547747D+01
0.563961880905D-03 0.000000000000D+00 0.000000000000D+00 0.139371957068D-02 0.000000000000D+00  5 2 -1 25 24 21 0 0.96565410D-01 0.71518277D-02 0.16932648D+05 0.16932648D+05 0.16932648D+05 0.12418665D+01  1  2  2  2  5  2       -1 0.303018632219D+00 0.100000000000D+01
-.285108441192D-04 0.000000000000D+00 -.216576211725D-05 0.139371957068D-02 0.000000000000D+00  5 2 -1 25 24 21 2 0.96565410D-01 0.71518277D-02 0.16932648D+05 0.16932648D+05 0.16932648D+05 0.12418665D+01  1  2  3  2  5  2       -1 -.236254179120D-01 0.100000000000D+01
0.385714551052D-04 0.000000000000D+00 0.000000000000D+00 0.139371957068D-02 0.000000000000D+00  5 2 -1 25 24 21 2 0.96565410D-01 0.71518277D-02 0.16932648D+05 0.16932648D+05 0.16932648D+05 0.12418665D+01  1  2 15  2  5  2       -1 0.319621103648D-01 0.100000000000D+01
0.206803791604D-03 0.000000000000D+00 -.175409642168D-03 0.139371957068D-02 0.000000000000D+00  5 2 -1 25 24 21 2 0.96565410D-01 0.24069728D-01 0.16932648D+05 0.16932648D+05 0.16932648D+05 0.12418665D+01  1  2  5  2  5  2       -1 0.259416374043D-01 0.100000000000D+01
0.356807496596D-04 0.000000000000D+00 -.247384986150D-04 0.139371957068D-02 0.000000000000D+00  5 2 21 25 24 1 2 0.96565410D-01 0.24069728D-01 0.16932648D+05 0.16932648D+05 0.16932648D+05 0.12418665D+01  1  2  5  4  5  2       -1 0.548442947529D-01 0.100000000000D+01
  </mgrwgt>
  </event>
  <event>
  4     66 0.48098993E-03 0.71843916E+02 0.75467711E-02 0.12515927E+00
        2 -1    0    0  501    0 0.00000000E+00 0.00000000E+00 0.17608671E+04 0.17608671E+04 0.32000000E+00 0.0000E+00 0.9000E+01
       -1 -1    0    0    0  501 0.00000000E+00 0.00000000E+00 -.14115439E+02 0.14119066E+02 0.32000000E+00 0.0000E+00 0.9000E+01
       25  1    1    2    0    0 -.87440625E+01 0.39007119E+02 0.32635952E+03 0.35175780E+03 0.12500000E+03 0.0000E+00 0.9000E+01
       24  1    1    2    0    0 0.87440625E+01 -.39007119E+02 0.14203921E+04 0.14232284E+04 0.80419002E+02 0.0000E+00 0.9000E+01
#aMCatNLO 1  0  0  1  2 0.85099064D+01 0.00000000D+00  -5  5  0 0.00000000D+00 0.00000000D+00 0.00000000D+00 0.00000000D+00 0.00000000D+00
  <mgrwgt>
 0.5970752736D+00   11    2    0
 0.157666284180654D+03 0.000000000000000D+00 0.000000000000000D+00 0.157666284180654D+03
 0.157666284180654D+03 0.000000000000000D+00 0.000000000000000D+00 -.157666284180654D+03
 0.172187118633657D+03 -.874406252624512D+01 0.390071187680070D+02 -.111469232882068D+03
 0.143145449727651D+03 0.874406252624512D+01 -.390071187680070D+02 0.111469232882068D+03
 0.000000000000000D+00 0.000000000000000D+00 0.000000000000000D+00 0.000000000000000D+00
 0.164070769304576D+03 0.000000000000000D+00 0.000000000000000D+00 0.164070769304576D+03
 0.160576121549764D+03 0.000000000000000D+00 0.000000000000000D+00 -.160576121549764D+03
 0.171256656341481D+03 -.957662565207196D+01 0.344491030807405D+02 -.111469232882068D+03
 0.144190719896745D+03 0.804751328885417D+01 -.428205021049503D+02 0.111469232882068D+03
 0.919951461611455D+01 0.152911236321780D+01 0.837139902420981D+01 0.349464775481288D+01
0.277164668528D-03 0.000000000000D+00 0.000000000000D+00 0.126845351436D-02 0.000000000000D+00  5 2 -1 25 24 21 0 0.27090291D+00 0.21718873D-02 0.12215014D+05 0.12215014D+05 0.12215014D+05 0.12581212D+01  1  2  2  1  5  1        2 0.186311086063D+00 0.100000000000D+01
-.130350343528D-04 0.000000000000D+00 -.106438530628D-05 0.126845351436D-02 0.000000000000D+00  5 2 -1 25 24 21 2 0.27090291D+00 0.21718873D-02 0.12215014D+05 0.12215014D+05 0.12215014D+05 0.12581212D+01  1  2  3  1  5  1        2 -.138694092549D-01 0.100000000000D+01
0.189645434034D-04 0.000000000000D+00 0.000000000000D+00 0.126845351436D-02 0.000000000000D+00  5 2 -1 25 24 21 2 0.27090291D+00 0.21718873D-02 0.12215014D+05 0.12215014D+05 0.12215014D+05 0.12581212D+01  1  2 15  1  5  1        2 0.201784672503D-01 0.100000000000D+01
0.768510622925D-03 0.000000000000D+00 0.000000000000D+00 0.126845351436D-02 0.000000000000D+00  5 2 -1 25 24 21 2 0.28433193D+00 0.21718873D-02 0.13223470D+05 0.13223470D+05 0.13223470D+05 0.12541123D+01  1  2 12  1  5  1        2 0.734654455319D+00 0.100000000000D+01
-.728972321579D-03 0.000000000000D+00 0.000000000000D+00 0.126845351436D-02 0.000000000000D+00  5 2 -1 25 24 21 2 0.27090291D+00 0.21718873D-02 0.12215014D+05 0.12215014D+05 0.12215014D+05 0.12581212D+01  1  2  4  1  5  1        2 -.775633971484D+00 0.100000000000D+01
-.410150288171D-02 0.000000000000D+00 -.657952883896D-03 0.126845351436D-02 0.000000000000D+00  5 2 -1 25 24 21 2 0.28438253D+00 0.21718873D-02 0.12215014D+05 0.12215014D+05 0.12215014D+05 0.12581212D+01  1  2  5  1  5  1        2 -.394050219241D+01 0.100000000000D+01
0.412935833035D-02 0.000000000000D+00 0.657177901895D-03 0.126845351436D-02 0.000000000000D+00  5 2 -1 25 24 21 2 0.27090291D+00 0.21718873D-02 0.12215014D+05 0.12215014D+05 0.12215014D+05 0.12581212D+01  1  2  6  1  5  1        2 0.439367930255D+01 0.100000000000D+01
0.139268314217D-05 0.000000000000D+00 0.000000000000D+00 0.126845351436D-02 0.147196126217D-03  5 2 -1 25 24 21 2 0.28190712D+00 0.22119709D-02 0.13223470D+05 0.13223470D+05 0.13223470D+05 0.12541123D+01  1  2 11  1  5  1        2 0.132082077139D-02 0.100000000000D+01
0.103571831457D-04 0.000000000000D+00 0.000000000000D+00 0.126845351436D-02 0.000000000000D+00  5 21 -1 25 24 -2 2 0.28433193D+00 0.21718873D-02 0.13223470D+05 0.13223470D+05 0.13223470D+05 0.12541123D+01  1  2 12  3  5  1        2 0.387758856962D-02 0.100000000000D+01
-.342218550525D-04 0.000000000000D+00 -.557755187830D-05 0.126845351436D-02 0.000000000000D+00  5 21 -1 25 24 -2 2 0.28438253D+00 0.21718873D-02 0.12215014D+05 0.12215014D+05 0.12215014D+05 0.12581212D+01  1  2  5  3  5  1        2 -.129457046398D-01 0.100000000000D+01
0.128412007574D-07 0.000000000000D+00 0.000000000000D+00 0.126845351436D-02 0.103512572585D-05  5 21 -1 25 24 -2 2 0.28190712D+00 0.22119709D-02 0.13223470D+05 0.13223470D+05 0.13223470D+05 0.12541123D+01  1  2 11  3  5  1        2 0.483083292354D-05 0.100000000000D+01
  </mgrwgt>
  </event>
  <event>
  4     66 0.48098993E-03 0.10643323E+03 0.75467711E-02 0.10154475E+00
        2 -1    0    0  501    0 0.00000000E+00 0.00000000E+00 0.11760355E+04 0.11760356E+04 0.32000000E+00 0.0000E+00 0.9000E+01
       -1 -1    0    0    0  501 0.00000000E+00 0.00000000E+00 -.10303738E+02 0.10308706E+02 0.32000000E+00 0.0000E+00 0.9000E+01
       25  1    1    2    0    0 -.75609563E+01 -.26219548E+02 0.84171703E+03 0.85138546E+03 0.12500000E+03 0.0000E+00 0.9000E+01
       24  1    1    2    0    0 0.75609563E+01 0.26219548E+02 0.32401475E+03 0.33495881E+03 0.80419002E+02 0.0000E+00 0.9000E+01
#aMCatNLO 1  0  0  1  2 0.47080822D+03 0.00000000D+00  -5  5  0 0.00000000D+00 0.00000000D+00 0.00000000D+00 0.00000000D+00 0.00000000D+00
  <mgrwgt>
 0.4778682913D+00    3    2    0
 0.110093300062575D+03 0.000000000000000D+00 0.000000000000000D+00 0.110093300062575D+03
 0.110093300062575D+03 0.000000000000000D+00 0.000000000000000D+00 -.110093300062575D+03
 0.130888807237908D+03 -.756095628115654D+01 -.262195477295869D+02 0.276088231754376D+02
 0.892977928872420D+02 0.756095628115654D+01 0.262195477295869D+02 -.276088231754376D+02
 0.000000000000000D+00 0.000000000000000D+00 0.000000000000000D+00 -.000000000000000D+00
 0.494600105493919D+03 0.000000000000000D+00 0.000000000000000D+00 0.494600105493919D+03
 0.495962445239422D+03 0.000000000000000D+00 0.000000000000000D+00 -.495962445239422D+03
 0.338604542366841D+03 -.296847359672365D+03 -.100734472996443D+03 0.276088231754376D+02
 0.181147819085811D+03 -.159078759630652D+03 -.167038176000534D+02 -.276088231754376D+02
 0.470810189280689D+03 0.455926119303017D+03 0.117438290596496D+03 -.136233974550326D+01
0.220221810619D-03 0.000000000000D+00 0.000000000000D+00 0.285026604104D-02 0.000000000000D+00  5 2 -1 25 24 21 0 0.18092893D+00 0.15855760D-02 0.11328033D+05 0.11328033D+05 0.11328033D+05 0.12619678D+01  1  2  2  1  5  1        2 0.467718721442D+00 0.100000000000D+01
-.122175403944D-04 0.000000000000D+00 -.845709738512D-06 0.285026604104D-02 0.000000000000D+00  5 2 -1 25 24 21 2 0.18092893D+00 0.15855760D-02 0.11328033D+05 0.11328033D+05 0.11328033D+05 0.12619678D+01  1  2  3  1  5  1        2 -.413242306020D-01 0.100000000000D+01
0.152182684986D-04 0.000000000000D+00 0.000000000000D+00 0.285026604104D-02 0.000000000000D+00  5 2 -1 25 24 21 2 0.18092893D+00 0.15855760D-02 0.11328033D+05 0.11328033D+05 0.11328033D+05 0.12619678D+01  1  2 15  1  5  1        2 0.514738004949D-01 0.100000000000D+01
  </mgrwgt>
  </event>
  <event>
  4     66 0.48098993E-03 0.13230759E+03 0.75467711E-02 0.11261706E+00
        2 -1    0    0  501    0 0.00000000E+00 0.00000000E+00 0.44993592E+03 0.44993603E+03 0.32000000E+00 0.0000E+00 0.9000E+01
       -1 -1    0    0    0  501 0.00000000E+00 0.00000000E+00 -.87625623E+02 0.87626207E+02 0.32000000E+00 0.0000E+00 0.9000E+01
       25  1    1    2    0    0 -.81551124E+02 0.10393861E+02 -.79800390E+01 0.14982423E+03 0.12500000E+03 0.0000E+00 0.9000E+01
       24  1    1    2    0    0 0.81551124E+02 -.10393861E+02 0.37029033E+03 0.38773801E+03 0.80419002E+02 0.0000E+00 0.9000E+01
#aMCatNLO 1  0  0  1  2 0.15693704D+03 0.00000000D+00  -5  5  0 0.00000000D+00 0.00000000D+00 0.00000000D+00 0.00000000D+00 0.00000000D+00
  <mgrwgt>
 0.1854815341D+00    5    2    0
 0.198560073288456D+03 0.000000000000000D+00 0.000000000000000D+00 0.198560073288456D+03
 0.198560073288456D+03 0.000000000000000D+00 0.000000000000000D+00 -.198560073288456D+03
 0.210090316874141D+03 -.815511241282421D+02 0.103938611343639D+02 -.147493467816092D+03
 0.187029829702771D+03 0.815511241282421D+02 -.103938611343639D+02 0.147493467816092D+03
 0.000000000000000D+00 0.000000000000000D+00 -.000000000000000D+00 0.000000000000000D+00
 0.396682098789837D+03 0.000000000000000D+00 0.000000000000000D+00 0.396682098789837D+03
 0.247116268774319D+03 0.000000000000000D+00 0.000000000000000D+00 -.247116268774319D+03
 0.239704998760917D+03 -.107850060470031D+03 0.919104337883631D+02 -.147493467816092D+03
 0.187300441985653D+03 0.596645289509687D+02 0.574461534856157D+02 0.147493467816092D+03
 0.216792926817586D+03 0.481855315190623D+02 -.149356587273979D+03 0.149565830015519D+03
0.702255677210D-03 0.000000000000D+00 0.000000000000D+00 0.103014918311D-02 0.000000000000D+00  5 2 -1 25 24 21 0 0.69220964D-01 0.13480919D-01 0.17505299D+05 0.17505299D+05 0.17505299D+05 0.12402473D+01  1  2  2  1  5  1        2 0.207923530124D+00 0.100000000000D+01
-.311965668735D-04 0.000000000000D+00 -.269684670865D-05 0.103014918311D-02 0.000000000000D+00  5 2 -1 25 24 21 2 0.69220964D-01 0.13480919D-01 0.17505299D+05 0.17505299D+05 0.17505299D+05 0.12402473D+01  1  2  3  1  5  1        2 -.142079610876D-01 0.100000000000D+01
0.479688158269D-04 0.000000000000D+00 0.000000000000D+00 0.103014918311D-02 0.000000000000D+00  5 2 -1 25 24 21 2 0.69220964D-01 0.13480919D-01 0.17505299D+05 0.17505299D+05 0.17505299D+05 0.12402473D+01  1  2 15  1  5  1        2 0.218466048347D-01 0.100000000000D+01
-.178432156923D-03 0.000000000000D+00 -.243756117422D-03 0.103014918311D-02 0.000000000000D+00  5 2 -1 25 24 21 2 0.15920004D+00 0.13480919D-01 0.17505299D+05 0.17505299D+05 0.17505299D+05 0.12402473D+01  1  2  5  1  5  1        2 -.299756791969D-01 0.100000000000D+01
-.753417532182D-06 0.000000000000D+00 -.220940180272D-04 0.103014918311D-02 0.000000000000D+00  5 21 -1 25 24 -2 2 0.15920004D+00 0.13480919D-01 0.17505299D+05 0.17505299D+05 0.17505299D+05 0.12402473D+01  1  2  5  3  5  1        2 -.104960540846D-03 0.100000000000D+01
  </mgrwgt>
  </event>
  <event>
  5     66 -.48098993E-03 0.10618468E+03 0.75467711E-02 0.12505989E+00
        2 -1    0    0  501    0 0.00000000E+00 0.00000000E+00 0.11066423E+04 0.11066423E+04 0.32000000E+00 0.0000E+00 0.9000E+01
       -1 -1    0    0    0  502 0.00000000E+00 0.00000000E+00 -.12499106E+02 0.12503202E+02 0.32000000E+00 0.0000E+00 0.9000E+01
       25  1    1    2    0    0 0.61697603E+01 0.26276015E+02 0.54333331E+03 0.55817970E+03 0.12500000E+03 0.0000E+00 0.9000E+01
       24  1    1    2    0    0 0.11816966E+02 -.25713106E+02 0.49597653E+03 0.50325018E+03 0.80419002E+02 0.0000E+00 0.9000E+01
       21  1    1    2  501  502 -.17986726E+02 -.56290918E+00 0.54833308E+02 0.57715625E+02 0.75000000E+00 0.0000E+00 0.9000E+01
#aMCatNLO 2  0  0  2  1 0.17995532D+02 0.00000000D+00  -5  5  0 0.00000000D+00 0.00000000D+00 0.00000000D+00 0.00000000D+00 0.00000000D+00
  <mgrwgt>
 -.3448738569D-01    2    2    0
 0.107406474596747D+03 0.000000000000000D+00 0.000000000000000D+00 0.107406474596747D+03
 0.107406474596747D+03 0.000000000000000D+00 0.000000000000000D+00 -.107406474596747D+03
 0.128722191549593D+03 -.459517162101362D+01 0.259391177822410D+02 -.158255857326879D+02
 0.860907576439000D+02 0.459517162101362D+01 -.259391177822410D+02 0.158255857326879D+02
 0.000000000000000D+00 -.000000000000000D+00 -.000000000000000D+00 -.000000000000000D+00
 0.113550300840145D+03 0.000000000000000D+00 0.000000000000000D+00 0.113550300840145D+03
 0.121819699520001D+03 0.000000000000000D+00 0.000000000000000D+00 -.121819699520001D+03
 0.128856292328689D+03 0.616976026855496D+01 0.262760150544626D+02 -.158255857326879D+02
 0.867091091688368D+02 0.118169658048968D+02 -.257131058774695D+02 0.158255857326879D+02
 0.198045988626211D+02 -.179867260734518D+02 -.562909176993038D+00 -.826939867985576D+01
-.180940227105D-03 0.000000000000D+00 0.000000000000D+00 0.303062880834D-02 0.000000000000D+00  5 2 -1 25 24 21 2 0.16103130D+00 0.19667416D-02 0.13355154D+05 0.13355154D+05 0.13355154D+05 0.12536144D+01  1  2 13  2  5  2       -1 -.528235761931D+00 0.100000000000D+01
0.177243252945D-03 0.000000000000D+00 0.000000000000D+00 0.303062880834D-02 0.791898514070D-04  5 2 -1 25 24 21 2 0.17024255D+00 0.19231403D-02 0.13355154D+05 0.13355154D+05 0.13355154D+05 0.12536144D+01  1  2  1  2  5  2       -1 0.493748376243D+00 0.100000000000D+01
  </mgrwgt>
  </event>
  <event>
  4     66 0.48098993E-03 0.12648288E+03 0.75467711E-02 0.10886900E+00
        2 -1    0    0  501    0 0.00000000E+00 0.00000000E+00 0.57452884E+03 0.57452893E+03 0.32000000E+00 0.0000E+00 0.9000E+01
       -1 -1    0    0    0  501 0.00000000E+00 0.00000000E+00 -.28067242E+02 0.28069066E+02 0.32000000E+00 0.0000E+00 0.9000E+01
       25  1    1    2    0    0 0.68596639E+02 -.23957288E+02 0.28544235E+03 0.31997154E+03 0.12500000E+03 0.0000E+00 0.9000E+01
       24  1    1    2    0    0 -.68596639E+02 0.23957288E+02 0.26101925E+03 0.28262646E+03 0.80419002E+02 0.0000E+00 0.9000E+01
#aMCatNLO 1  0  0  2  2 0.23864698D+03 0.00000000D+00  -5  5  0 0.00000000D+00 0.00000000D+00 0.00000000D+00 0.00000000D+00 0.00000000D+00
  <mgrwgt>
 0.3333659522D+00    5    2    0
 0.126988254195232D+03 0.000000000000000D+00 0.000000000000000D+00 0.126988254195232D+03
 0.126988254195232D+03 0.000000000000000D+00 0.000000000000000D+00 -.126988254195232D+03
 0.145017055566795D+03 0.685966388240720D+02 -.239572879496957D+02 -.112024953201496D+02
 0.108959452823669D+03 -.685966388240720D+02 0.239572879496957D+02 0.112024953201496D+02
 0.000000000000000D+00 -.000000000000000D+00 -.000000000000000D+00 -.000000000000000D+00
 0.218552281577184D+03 0.000000000000000D+00 0.000000000000000D+00 0.218552281577184D+03
 0.495659977881349D+03 0.000000000000000D+00 0.000000000000000D+00 -.495659977881349D+03
 0.209827500957139D+03 0.135412651518440D+03 0.997020464447234D+02 -.112024953201496D+02
 0.138678518388904D+03 -.219672583701810D+02 0.110256333906360D+03 0.112024953201496D+02
 0.365706240112491D+03 -.113445393148259D+03 -.209958380351083D+03 -.277107696304165D+03
0.239278563317D-03 0.000000000000D+00 0.000000000000D+00 0.264630251160D-02 0.000000000000D+00  5 2 -1 25 24 21 0 0.88389200D-01 0.43181844D-02 0.15997918D+05 0.15997918D+05 0.15997918D+05 0.12446462D+01  1  2  2  2  5  2       -1 0.299929664691D+00 0.100000000000D+01
-.132929965087D-04 0.000000000000D+00 -.918892686632D-06 0.264630251160D-02 0.000000000000D+00  5 2 -1 25 24 21 2 0.88389200D-01 0.43181844D-02 0.15997918D+05 0.15997918D+05 0.15997918D+05 0.12446462D+01  1  2  3  2  5  2       -1 -.258125181863D-01 0.100000000000D+01
0.165405794834D-04 0.000000000000D+00 0.000000000000D+00 0.264630251160D-02 0.000000000000D+00  5 2 -1 25 24 21 2 0.88389200D-01 0.43181844D-02 0.15997918D+05 0.15997918D+05 0.15997918D+05 0.12446462D+01  1  2 15  2  5  2       -1 0.321187181875D-01 0.100000000000D+01
0.100311455617D-03 0.000000000000D+00 -.114594680566D-03 0.264630251160D-02 0.000000000000D+00  5 2 -1 25 24 21 2 0.88389200D-01 0.28701919D-01 0.15997918D+05 0.15997918D+05 0.15997918D+05 0.12446462D+01  1  2  5  2  5  2       -1 0.104531830086D-01 0.100000000000D+01
0.136327105406D-04 0.000000000000D+00 -.265738211544D-04 0.264630251160D-02 0.000000000000D+00  5 2 21 25 24 1 2 0.88389200D-01 0.28701919D-01 0.15997918D+05 0.15997918D+05 0.15997918D+05 0.12446462D+01  1  2  5  4  5  2       -1 0.166769045392D-01 0.100000000000D+01
  </mgrwgt>
  </event>
  <event>
  4     66 0.48098993E-03 0.11046542E+03 0.75467711E-02 0.10995936E+00
        2 -1    0    0  501    0 0.00000000E+00 0.00000000E+00 0.20612616E+03 0.20612640E+03 0.32000000E+00 0.0000E+00 0.9000E+01
       -1 -1    0    0    0  501 0.00000000E+00 0.00000000E+00 -.61833289E+02 0.61834117E+02 0.32000000E+00 0.0000E+00 0.9000E+01
       25  1    1    2    0    0 -.28248593E+02 -.28072442E+02 0.11228986E+03 0.17268485E+03 0.12500000E+03 0.0000E+00 0.9000E+01
       24  1    1    2    0    0 0.28248593E+02 0.28072442E+02 0.32003009E+02 0.95275671E+02 0.80419002E+02 0.0000E+00 0.9000E+01
#aMCatNLO 1  0  0  1  1 0.22819689D+03 0.00000000D+00  -5  5  0 0.00000000D+00 0.00000000D+00 0.00000000D+00 0.00000000D+00 0.00000000D+00
  <mgrwgt>
 0.4733727027D+00    3    2    0
 0.112896422963210D+03 0.000000000000000D+00 0.000000000000000D+00 0.112896422963210D+03
 0.112896422963210D+03 0.000000000000000D+00 0.000000000000000D+00 -.112896422963210D+03
 0.133175595246228D+03 -.282485929573802D+02 -.280724421549522D+02 0.229062034517337D+02
 0.926172506801926D+02 0.282485929573802D+02 0.280724421549522D+02 -.229062034517337D+02
 0.000000000000000D+00 -.000000000000000D+00 -.000000000000000D+00 -.000000000000000D+00
 0.182792947612099D+03 0.000000000000000D+00 0.000000000000000D+00 0.182792947612099D+03
 0.744794696521857D+03 0.000000000000000D+00 0.000000000000000D+00 -.744794696521857D+03
 0.157057320625607D+03 0.916452366760927D+02 -.108838596143710D+02 0.229062034517337D+02
 0.163966404092045D+03 0.134242073743623D+03 0.432682007592732D+02 -.229062034517337D+02
 0.606563919416305D+03 -.225887310419716D+03 -.323843411449022D+02 -.562001748909758D+03
0.404611844323D-03 0.000000000000D+00 0.000000000000D+00 0.283426076040D-02 0.000000000000D+00  5 2 -1 25 24 21 0 0.31711799D-01 0.95128965D-02 0.12202609D+05 0.12202609D+05 0.12202609D+05 0.12581728D+01  1  2  2  1  5  1        2 0.463297918837D+00 0.100000000000D+01
-.224654850225D-04 0.000000000000D+00 -.155381601895D-05 0.283426076040D-02 0.000000000000D+00  5 2 -1 25 24 21 2 0.31711799D-01 0.95128965D-02 0.12202609D+05 0.12202609D+05 0.12202609D+05 0.12581728D+01  1  2  3  1  5  1        2 -.407209721748D-01 0.100000000000D+01
0.280236751760D-04 0.000000000000D+00 0.000000000000D+00 0.283426076040D-02 0.000000000000D+00  5 2 -1 25 24 21 2 0.31711799D-01 0.95128965D-02 0.12202609D+05 0.12202609D+05 0.12202609D+05 0.12581728D+01  1  2 15  1  5  1        2 0.507957560647D-01 0.100000000000D+01
  </mgrwgt>
  </event>
  <event>
  5     66 0.48098993E-03 0.12154731E+03 0.75467711E-02 0.12293029E+00
        2 -1    0    0  502    0 0.00000000E+00 0.00000000E+00 0.87681608E+03 0.87681614E+03 0.32000000E+00 0.0000E+00 0.9000E+01
       -1 -1    0    0    0  501 0.00000000E+00 0.00000000E+00 -.19409262E+02 0.19411900E+02 0.32000000E+00 0.0000E+00 0.9000E+01
       25  1    1    2    0    0 -.40471856E+02 0.44276577E+02 0.41750775E+03 0.43992739E+03 0.12500000E+03 0.0000E+00 0.9000E+01
       24  1    1    2    0    0 0.35284503E+02 -.57299703E+02 0.41109622E+03 0.42425885E+03 0.80419002E+02 0.0000E+00 0.9000E+01
       21  1    1    2  502  501 0.51873531E+01 0.13023126E+02 0.28802850E+02 0.32041803E+02 0.75000000E+00 0.0000E+00 0.9000E+01
#aMCatNLO 2  0  0  1  1 0.14018218D+02 0.00000000D+00  -5  5  0 0.00000000D+00 0.00000000D+00 0.00000000D+00 0.00000000D+00 0.00000000D+00
  <mgrwgt>
 0.3486270815D+00    1    2    0
 0.122512043516169D+03 0.000000000000000D+00 0.000000000000000D+00 0.122512043516169D+03
 0.122512043516169D+03 0.000000000000000D+00 0.000000000000000D+00 -.122512043516169D+03
 0.141199561458886D+03 -.375032326933757D+02 0.517294646006266D+02 -.151619980827313D+02
 0.103824525573451D+03 0.375032326933757D+02 -.517294646006266D+02 0.151619980827313D+02
 0.000000000000000D+00 0.000000000000000D+00 0.000000000000000D+00 -.000000000000000D+00
 0.127114185349279D+03 0.000000000000000D+00 0.000000000000000D+00 0.127114185349279D+03
 0.133873169761499D+03 0.000000000000000D+00 0.000000000000000D+00 -.133873169761499D+03
 0.139474989233995D+03 -.404718562209324D+02 0.442765772163386D+02 -.151619980827313D+02
 0.105949772492660D+03 0.352845031534924D+02 -.572997032123756D+02 0.151619980827313D+02
 0.155625933841234D+02 0.518735306744006D+01 0.130231259960370D+02 -.675898441221959D+01
0.173803775876D-03 0.000000000000D+00 0.000000000000D+00 0.270095511594D-02 0.113722066130D-03  5 2 -1 25 24 21 2 0.13488555D+00 0.29860387D-02 0.16579900D+05 0.16579900D+05 0.16579900D+05 0.12428948D+01  1  2  1  1  5  1        2 0.348627081467D+00 0.100000000000D+01
  </mgrwgt>
  </event>
  <event>
  4     66 0.48098993E-03 0.12897330E+03 0.75467711E-02 0.10952434E+00
        2 -1    0    0  501    0 0.00000000E+00 0.00000000E+00 0.84221376E+03 0.84221382E+03 0.32000000E+00 0.0000E+00 0.9000E+01
       -1 -1    0    0    0  501 0.00000000E+00 0.00000000E+00 -.20928182E+02 0.20930628E+02 0.32000000E+00 0.0000E+00 0.9000E+01
       25  1    1    2    0    0 0.38640192E+02 -.66408205E+02 0.56548941E+03 0.58421433E+03 0.12500000E+03 0.0000E+00 0.9000E+01
       24  1    1    2    0    0 -.38640192E+02 0.66408205E+02 0.25579617E+03 0.27893012E+03 0.80419002E+02 0.0000E+00 0.9000E+01
#aMCatNLO 1  0  0  1  1 0.22207640D+03 0.00000000D+00  -5  5  0 0.00000000D+00 0.00000000D+00 0.00000000D+00 0.00000000D+00 0.00000000D+00
  <mgrwgt>
 0.4761527865D+00    3    2    0
 0.132767032571161D+03 0.000000000000000D+00 0.000000000000000D+00 0.132767032571161D+03
 0.132767032571161D+03 0.000000000000000D+00 0.000000000000000D+00 -.132767032571161D+03
 0.150011117695834D+03 0.386401920688479D+02 -.664082054235102D+02 0.312285324929752D+02
 0.115522947446488D+03 -.386401920688479D+02 0.664082054235102D+02 -.312285324929752D+02
 0.000000000000000D+00 0.000000000000000D+00 0.000000000000000D+00 -.000000000000000D+00
 0.224184794789761D+03 0.000000000000000D+00 0.000000000000000D+00 0.224184794789761D+03
 0.414336839014255D+03 0.000000000000000D+00 0.000000000000000D+00 -.414336839014255D+03
 0.236206894936566D+03 -.106176696608900D+02 -.197688495024069D+03 0.312285324929752D+02
 0.109952415305133D+03 -.673970958864150D+02 -.102336651046711D+02 -.312285324929752D+02
 0.292362323562316D+03 0.780147655473050D+02 0.207922160128740D+03 -.190152044224495D+03
0.380837586829D-03 0.000000000000D+00 0.000000000000D+00 0.245699965195D-02 0.000000000000D+00  5 2 -1 25 24 21 0 0.12957154D+00 0.32199132D-02 0.16634113D+05 0.16634113D+05 0.16634113D+05 0.12427352D+01  1  2  2  1  5  1        2 0.466499543673D+00 0.100000000000D+01
-.211360234466D-04 0.000000000000D+00 -.146251661026D-05 0.245699965195D-02 0.000000000000D+00  5 2 -1 25 24 21 2 0.12957154D+00 0.32199132D-02 0.16634113D+05 0.16634113D+05 0.16634113D+05 0.12427352D+01  1  2  3  1  5  1        2 -.399845215545D-01 0.100000000000D+01
0.262387771958D-04 0.000000000000D+00 0.000000000000D+00 0.245699965195D-02 0.000000000000D+00  5 2 -1 25 24 21 2 0.12957154D+00 0.32199132D-02 0.16634113D+05 0.16634113D+05 0.16634113D+05 0.12427352D+01  1  2 15  1  5  1        2 0.496377644072D-01 0.100000000000D+01
  </mgrwgt>
  </event>
  <event>
  4     66 0.48098993E-03 0.15987253E+03 0.75467711E-02 0.11174858E+00
        2 -1    0    0  501    0 0.00000000E+00 0.00000000E+00 0.38840680E+03 0.38840693E+03 0.32000000E+00 0.0000E+00 0.9000E+01
       -1 -1    0    0    0  501 0.00000000E+00 0.00000000E+00 -.65831110E+02 0.65831887E+02 0.32000000E+00 0.0000E+00 0.9000E+01
       25  1    1    2    0    0 0.11979937E+03 -.19139074E+02 0.18025406E+03 0.25066855E+03 0.12500000E+03 0.0000E+00 0.9000E+01
       24  1    1    2    0    0 -.11979937E+03 0.19139074E+02 0.14232163E+03 0.20357027E+03 0.80419002E+02 0.0000E+00 0.9000E+01
#aMCatNLO 1  0  0  1  1 0.13852917D+03 0.00000000D+00  -5  5  0 0.00000000D+00 0.00000000D+00 0.00000000D+00 0.00000000D+00 0.00000000D+00
  <mgrwgt>
 0.4575823677D+00    3    2    0
 0.159904525364184D+03 0.000000000000000D+00 0.000000000000000D+00 0.159904525364184D+03
 0.159904525364184D+03 0.000000000000000D+00 0.000000000000000D+00 -.159904525364184D+03
 0.174222106471993D+03 0.119799372242330D+03 -.191390742187520D+02 0.318569175080125D+01
 0.145586944256375D+03 -.119799372242330D+03 0.191390742187520D+02 -.318569175080125D+01
 0.000000000000000D+00 -.000000000000000D+00 -.000000000000000D+00 -.000000000000000D+00
 0.191358230233277D+03 0.000000000000000D+00 0.000000000000000D+00 0.191358230233277D+03
 0.454874032034734D+03 0.000000000000000D+00 0.000000000000000D+00 -.454874032034734D+03
 0.210010261044322D+03 0.161552958337525D+03 0.486806200080371D+02 0.318569175080125D+01
 0.138512564436288D+03 -.889269775701193D+02 0.692846200874231D+02 -.318569175080125D+01
 0.297709436787402D+03 -.726259807674058D+02 -.117965240095460D+03 -.263515801801457D+03
0.824921482069D-03 0.000000000000D+00 0.000000000000D+00 0.233749339931D-02 0.000000000000D+00  5 2 -1 25 24 21 0 0.59754962D-01 0.10127933D-01 0.25559227D+05 0.25559227D+05 0.25559227D+05 0.12222689D+01  1  2  2  1  5  1        2 0.448609316264D+00 0.100000000000D+01
-.458289689950D-04 0.000000000000D+00 -.316791569796D-05 0.233749339931D-02 0.000000000000D+00  5 2 -1 25 24 21 2 0.59754962D-01 0.10127933D-01 0.25559227D+05 0.25559227D+05 0.25559227D+05 0.12222689D+01  1  2  3  1  5  1        2 -.372331086270D-01 0.100000000000D+01
0.568735933374D-04 0.000000000000D+00 0.000000000000D+00 0.233749339931D-02 0.000000000000D+00  5 2 -1 25 24 21 2 0.59754962D-01 0.10127933D-01 0.25559227D+05 0.25559227D+05 0.25559227D+05 0.12222689D+01  1  2 15  1  5  1        2 0.462061601030D-01 0.100000000000D+01
  </mgrwgt>
  </event>
  <event>
  4     66 -.48098993E-03 0.80284774E+02 0.75467711E-02 0.12414467E+00
        2 -1    0    0  501    0 0.00000000E+00 0.00000000E+00 0.15975914E+04 0.15975914E+04 0.32000000E+00 0.0000E+00 0.9000E+01
       -1 -1    0    0    0  501 0.00000000E+00 0.00000000E+00 -.90910959E+01 0.90967261E+01 0.32000000E+00 0.0000E+00 0.9000E+01
       25  1    1    2    0    0 -.49352111E+02 0.36835253E+02 0.96682633E+03 0.97681657E+03 0.12500000E+03 0.0000E+00 0.9000E+01
       24  1    1    2    0    0 0.49352111E+02 -.36835253E+02 0.62167399E+03 0.62987160E+03 0.80419002E+02 0.0000E+00 0.9000E+01
#aMCatNLO 1  0  0  2  1 0.13710311D+01 0.00000000D+00  -5  5  0 0.00000000D+00 0.00000000D+00 0.00000000D+00 0.00000000D+00 0.00000000D+00
  <mgrwgt>
 -.5860415537D+00   11    2    0
 0.120533835190894D+03 0.000000000000000D+00 0.000000000000000D+00 0.120533835190894D+03
 0.120533835190894D+03 0.000000000000000D+00 0.000000000000000D+00 -.120533835190894D+03
 0.139528053766795D+03 -.493521110131697D+02 0.368352529995861D+02 0.711414527190486D+01
 0.101539616614994D+03 0.493521110131697D+02 -.368352529995861D+02 -.711414527190486D+01
 0.000000000000000D+00 -.000000000000000D+00 -.000000000000000D+00 -.000000000000000D+00
 0.120806736280859D+03 0.000000000000000D+00 0.000000000000000D+00 0.120806736280859D+03
 0.122270158356129D+03 0.000000000000000D+00 0.000000000000000D+00 -.122270158356129D+03
 0.139269166153307D+03 -.485623912956263D+02 0.369050637411456D+02 0.711414527190486D+01
 0.101802402949379D+03 0.499280966786691D+02 -.367843362179193D+02 -.711414527190486D+01
 0.200532553430205D+01 -.136570538304283D+01 -.120727523226348D+00 -.146342207526990D+01
0.151489977271D-03 0.000000000000D+00 0.000000000000D+00 0.276483860455D-02 0.000000000000D+00  5 2 -1 25 24 21 0 0.24578373D+00 0.13990657D-02 0.14476501D+05 0.14476501D+05 0.14476501D+05 0.12495851D+01  1  2  2  2  5  2       -1 0.232373685464D+00 0.100000000000D+01
-.841607707939D-05 0.000000000000D+00 -.581761400946D-06 0.276483860455D-02 0.000000000000D+00  5 2 -1 25 24 21 2 0.24578373D+00 0.13990657D-02 0.14476501D+05 0.14476501D+05 0.14476501D+05 0.12495851D+01  1  2  3  2  5  2       -1 -.201578615759D-01 0.100000000000D+01
0.104802000286D-04 0.000000000000D+00 0.000000000000D+00 0.276483860455D-02 0.000000000000D+00  5 2 -1 25 24 21 2 0.24578373D+00 0.13990657D-02 0.14476501D+05 0.14476501D+05 0.14476501D+05 0.12495851D+01  1  2 15  2  5  2       -1 0.251017688492D-01 0.100000000000D+01
0.166418184219D-07 0.000000000000D+00 0.000000000000D+00 0.276483860455D-02 0.000000000000D+00  5 2 -1 25 24 21 2 0.24578373D+00 0.14207900D-02 0.14642440D+05 0.14642440D+05 0.14642440D+05 0.12490188D+01  1  2 12  2  5  2       -1 0.389683283435D-04 0.100000000000D+01
-.437904639338D-02 0.000000000000D+00 0.000000000000D+00 0.276483860455D-02 0.000000000000D+00  5 2 -1 25 24 21 2 0.24578373D+00 0.13990657D-02 0.14476501D+05 0.14476501D+05 0.14476501D+05 0.12495851D+01  1  2  4  2  5  2       -1 -.104885221701D+02 0.100000000000D+01
-.122374225690D-01 0.000000000000D+00 -.109766258739D-02 0.276483860455D-02 0.000000000000D+00  5 2 -1 25 24 21 2 0.24578373D+00 0.14226429D-02 0.14476501D+05 0.14476501D+05 0.14476501D+05 0.12495851D+01  1  2  5  2  5  2       -1 -.286190216004D+02 0.100000000000D+01
0.122542084083D-01 0.000000000000D+00 0.109750932723D-02 0.276483860455D-02 0.000000000000D+00  5 2 -1 25 24 21 2 0.24578373D+00 0.13990657D-02 0.14476501D+05 0.14476501D+05 0.14476501D+05 0.12495851D+01  1  2  6  2  5  2       -1 0.293508049517D+02 0.100000000000D+01
0.437948286974D-02 0.000000000000D+00 0.000000000000D+00 0.276483860455D-02 0.122393059818D-01  5 2 -1 25 24 21 2 0.24634021D+00 0.14192196D-02 0.14642440D+05 0.14642440D+05 0.14642440D+05 0.12490188D+01  1  2 11  2  5  2       -1 0.102273974127D+02 0.100000000000D+01
0.126305088803D-08 0.000000000000D+00 0.000000000000D+00 0.276483860455D-02 0.000000000000D+00  5 2 21 25 24 1 2 0.24578373D+00 0.14207900D-02 0.14642440D+05 0.14642440D+05 0.14642440D+05 0.12490188D+01  1  2 12  4  5  2       -1 0.652782154796D-04 0.100000000000D+01
-.372892478616D-04 0.000000000000D+00 -.335483863860D-05 0.276483860455D-02 0.000000000000D+00  5 2 21 25 24 1 2 0.24578373D+00 0.14226429D-02 0.14476501D+05 0.14476501D+05 0.14476501D+05 0.12495851D+01  1  2  5  4  5  2       -1 -.192470499041D+01 0.100000000000D+01
0.122316611706D-04 0.000000000000D+00 0.000000000000D+00 0.276483860455D-02 0.321616123217D-04  5 2 21 25 24 1 2 0.24634021D+00 0.14192196D-02 0.14642440D+05 0.14642440D+05 0.14642440D+05 0.12490188D+01  1  2 11  4  5  2       -1 0.630583003572D+00 0.100000000000D+01
  </mgrwgt>
  </event>
  <event>
  5     66 0.48098993E-03 0.12292139E+03 0.75467711E-02 0.11536551E+00
        2 -1    0    0  501    0 0.00000000E+00 0.00000000E+00 0.28653420E+03 0.28653438E+03 0.32000000E+00 0.0000E+00 0.9000E+01
       -1 -1    0    0    0  502 0.00000000E+00 0.00000000E+00 -.16765537E+03 0.16765567E+03 0.32000000E+00 0.0000E+00 0.9000E+01
       25  1    1    2    0    0 0.37864757E+02 -.52971797E+02 0.42656268E+01 0.14100690E+03 0.12500000E+03 0.0000E+00 0.9000E+01
       24  1    1    2    0    0 0.79266207E+02 0.68015445E+02 -.20862635E+02 0.13346047E+03 0.80419002E+02 0.0000E+00 0.9000E+01
       21  1    1    2  501  502 -.11713096E+03 -.15043648E+02 0.13547584E+03 0.17972267E+03 0.75000000E+00 0.0000E+00 0.9000E+01
#aMCatNLO 2  0  0  2  1 0.11809307D+03 0.00000000D+00  -5  5  0 0.00000000D+00 0.00000000D+00 0.00000000D+00 0.00000000D+00 0.00000000D+00
  <mgrwgt>
 0.1195528833D-01    1    2    0
 0.123603100265490D+03 0.000000000000000D+00 0.000000000000000D+00 0.123603100265490D+03
 0.123603100265490D+03 0.000000000000000D+00 0.000000000000000D+00 -.123603100265490D+03
 0.142125661645341D+03 -.258842211693741D+02 -.611593603349065D+02 0.128157495296142D+02
 0.105080538885639D+03 0.258842211693741D+02 0.611593603349065D+02 -.128157495296142D+02
 0.000000000000000D+00 -.000000000000000D+00 -.000000000000000D+00 0.000000000000000D+00
 0.304416913796352D+03 0.000000000000000D+00 0.000000000000000D+00 0.304416913796352D+03
 0.157805600082463D+03 0.000000000000000D+00 0.000000000000000D+00 -.157805600082463D+03
 0.141523830220016D+03 0.378647572296974D+02 -.529717966853524D+02 0.128157495296142D+02
 0.132441276415727D+03 0.792662067085640D+02 0.680154451745039D+02 -.128157495296142D+02
 0.188257407243072D+03 -.117130963938261D+03 -.150436484891515D+02 0.146611313713889D+03
0.480677153807D-04 0.000000000000D+00 0.000000000000D+00 0.269319243796D-02 0.219633110237D-05  5 2 -1 25 24 21 2 0.44082032D-01 0.25793060D-01 0.38191947D+05 0.38191947D+05 0.38191947D+05 0.12040456D+01  1  2  1  2  5  2       -1 0.119552883303D-01 0.100000000000D+01
  </mgrwgt>
  </event>
  <event>
  4     66 0.48098993E-03 0.11723223E+03 0.75467711E-02 0.12132388E+00
        4 -1    0    0  501    0 0.00000000E+00 0.00000000E+00 0.43172514E+03 0.43172792E+03 0.15500000E+01 0.0000E+00 0.9000E+01
       -3 -1    0    0    0  501 0.00000000E+00 0.00000000E+00 -.32099662E+02 0.32103555E+02 0.50000000E+00 0.0000E+00 0.9000E+01
       25  1    1    2    0    0 -.21943184E+02 -.50962466E+02 0.25377645E+03 0.28828140E+03 0.12500000E+03 0.0000E+00 0.9000E+01
       24  1    1    2    0    0 0.21943184E+02 0.50962466E+02 0.14584902E+03 0.17555008E+03 0.80419002E+02 0.0000E+00 0.9000E+01
#aMCatNLO 1  0  0  2  1 0.41976206D+02 0.00000000D+00  -5  5  0 0.00000000D+00 0.00000000D+00 0.00000000D+00 0.00000000D+00 0.00000000D+00
  <mgrwgt>
 0.2599129037D-01    3    2    0
 0.117727562990102D+03 0.000000000000000D+00 0.000000000000000D+00 0.117727562990102D+03
 0.117727562990102D+03 0.000000000000000D+00 0.000000000000000D+00 -.117727562990102D+03
 0.137174546799661D+03 -.219431835251551D+02 -.509624658203764D+02 0.106386119386264D+02
 0.982805791805425D+02 0.219431835251551D+02 0.509624658203764D+02 -.106386119386264D+02
 0.000000000000000D+00 0.000000000000000D+00 0.000000000000000D+00 0.000000000000000D+00
 0.273514333149417D+03 0.000000000000000D+00 0.000000000000000D+00 0.273514333149417D+03
 0.122445459358609D+03 0.000000000000000D+00 0.000000000000000D+00 -.122445459358609D+03
 0.148927715923028D+03 -.259507378485770D+02 -.759463212485223D+02 0.106386119386264D+02
 0.902398366777711D+02 0.193024990355026D+02 0.344999367573913D+02 -.106386119386264D+02
 0.156792239907227D+03 0.664823881307437D+01 0.414463844911309D+02 0.151068873790808D+03
0.270880122308D-03 0.000000000000D+00 0.000000000000D+00 0.280836886016D-02 0.000000000000D+00  5 4 -3 25 24 21 0 0.66419765D-01 0.49389230D-02 0.13743396D+05 0.13743396D+05 0.13743396D+05 0.12521777D+01  1  2  2  2  5  2       -3 0.254579595634D-01 0.100000000000D+01
-.150485704096D-04 0.000000000000D+00 -.104025099404D-05 0.280836886016D-02 0.000000000000D+00  5 4 -3 25 24 21 2 0.66419765D-01 0.49389230D-02 0.13743396D+05 0.13743396D+05 0.13743396D+05 0.12521777D+01  1  2  3  2  5  2       -3 -.221755092632D-02 0.100000000000D+01
0.186678181894D-04 0.000000000000D+00 0.000000000000D+00 0.280836886016D-02 0.000000000000D+00  5 4 -3 25 24 21 2 0.66419765D-01 0.49389230D-02 0.13743396D+05 0.13743396D+05 0.13743396D+05 0.12521777D+01  1  2 15  2  5  2       -3 0.275088173770D-02 0.100000000000D+01
  </mgrwgt>
  </event>
  <event>
  5     66 0.48098993E-03 0.22942635E+03 0.75467711E-02 0.10887156E+00
        2 -1    0    0  501    0 0.00000000E+00 0.00000000E+00 0.48919502E+03 0.48919512E+03 0.32000000E+00 0.0000E+00 0.9000E+01
       21 -1    0    0  502  501 0.00000000E+00 0.00000000E+00 -.35945166E+03 0.35945244E+03 0.75000000E+00 0.0000E+00 0.9000E+01
       25  1    1    2    0    0 -.77251387E+02 0.15405717E+03 0.19152751E+03 0.28637244E+03 0.12500000E+03 0.0000E+00 0.9000E+01
       24  1    1    2    0    0 0.11567395E+02 -.24675732E+03 0.16560490E+03 0.30808308E+03 0.80419002E+02 0.0000E+00 0.9000E+01
        1  1    1    2  502    0 0.65683992E+02 0.92700160E+02 -.22738906E+03 0.25419204E+03 0.32000000E+00 0.0000E+00 0.9000E+01
#aMCatNLO 2  0  0  2  1 0.11361209D+03 0.00000000D+00  -5  5  0 0.00000000D+00 0.00000000D+00 0.00000000D+00 0.00000000D+00 0.00000000D+00
  <mgrwgt>
 0.1478187649D+00    2    2    0
 0.230719577314820D+03 0.000000000000000D+00 0.000000000000000D+00 0.230719577314820D+03
 0.230719577314820D+03 0.000000000000000D+00 0.000000000000000D+00 -.230719577314820D+03
 0.240642645127498D+03 -.453488299579868D+02 0.199081410082308D+03 0.243712624835148D+02
 0.220796509502142D+03 0.453488299579868D+02 -.199081410082308D+03 -.243712624835148D+02
 0.000000000000000D+00 0.000000000000000D+00 0.000000000000000D+00 -.000000000000000D+00
 0.244302476179744D+03 0.000000000000000D+00 0.000000000000000D+00 0.244302476179744D+03
 0.719772738037416D+03 0.000000000000000D+00 0.000000000000000D+00 -.719772738037416D+03
 0.214290329606433D+03 -.772513868882262D+02 0.154057165207071D+03 0.243712624835148D+02
 0.260929408786187D+03 0.115673953588495D+02 -.246757324804575D+03 -.243712624835148D+02
 0.488855475824540D+03 0.656839915293766D+02 0.927001595975034D+02 -.475470261857672D+03
-.606119517101D-03 0.000000000000D+00 0.000000000000D+00 0.207018356049D-02 0.000000000000D+00  5 2 21 25 24 1 2 0.71076421D-01 0.54487122D-01 0.85937154D+05 0.85937154D+05 0.85937154D+05 0.11696668D+01  1  2 13  4  5  2       -1 -.216892938564D+00 0.100000000000D+01
0.112155688955D-02 0.000000000000D+00 0.000000000000D+00 0.207018356049D-02 0.282480995127D-06  5 2 21 25 24 1 2 0.75260824D-01 0.55300312D-01 0.85937154D+05 0.85937154D+05 0.85937154D+05 0.11696668D+01  1  2  1  4  5  2       -1 0.364711703460D+00 0.100000000000D+01
  </mgrwgt>
  </event>
  <event>
  4     66 0.48098993E-03 0.59255402E+02 0.75467711E-02 0.12236095E+00
        2 -1    0    0  501    0 0.00000000E+00 0.00000000E+00 0.36946617E+02 0.36948003E+02 0.32000000E+00 0.0000E+00 0.9000E+01
       -1 -1    0    0    0  501 0.00000000E+00 0.00000000E+00 -.49621425E+03 0.49621435E+03 0.32000000E+00 0.0000E+00 0.9000E+01
       25  1    1    2    0    0 0.76140550E+02 -.17805058E+02 -.33351728E+03 0.36465488E+03 0.12500000E+03 0.0000E+00 0.9000E+01
       24  1    1    2    0    0 -.76140550E+02 0.17805058E+02 -.12575035E+03 0.16850748E+03 0.80419002E+02 0.0000E+00 0.9000E+01
#aMCatNLO 1  0  0  2  1 0.56184781D+01 0.00000000D+00  -5  5  0 0.00000000D+00 0.00000000D+00 0.00000000D+00 0.00000000D+00 0.00000000D+00
  <mgrwgt>
 0.2689450991D+00   11    2    0
 0.135402492884969D+03 0.000000000000000D+00 0.000000000000000D+00 0.135402492884969D+03
 0.135402492884969D+03 0.000000000000000D+00 0.000000000000000D+00 -.135402492884969D+03
 0.152310940895245D+03 0.761405504980187D+02 -.178050577966929D+02 -.381997277884286D+02
 0.118494044874692D+03 -.761405504980187D+02 0.178050577966929D+02 0.381997277884286D+02
 0.000000000000000D+00 -.000000000000000D+00 0.000000000000000D+00 -.000000000000000D+00
 0.135707293999726D+03 0.000000000000000D+00 0.000000000000000D+00 0.135707293999726D+03
 0.164060240595378D+03 0.000000000000000D+00 0.000000000000000D+00 -.164060240595378D+03
 0.153840779800408D+03 0.787153273533041D+02 -.196637627668174D+02 -.381997277884286D+02
 0.117022483884517D+03 -.741598250397117D+02 0.163751924294283D+02 0.381997277884286D+02
 0.289042709101788D+02 -.455550231359239D+01 0.328857033738910D+01 -.283529465956522D+02
0.761261958342D-03 0.000000000000D+00 0.000000000000D+00 0.237029206646D-02 0.000000000000D+00  5 2 -1 25 24 21 0 0.56842095D-02 0.76340769D-01 0.16849429D+05 0.16849429D+05 0.16849429D+05 0.12421069D+01  1  2  2  2  5  2       -1 0.199611855921D+00 0.100000000000D+01
-.422006895339D-04 0.000000000000D+00 -.292344636491D-05 0.237029206646D-02 0.000000000000D+00  5 2 -1 25 24 21 2 0.56842095D-02 0.76340769D-01 0.16849429D+05 0.16849429D+05 0.16849429D+05 0.12421069D+01  1  2  3  2  5  2       -1 -.170722093401D-01 0.100000000000D+01
0.526835565184D-04 0.000000000000D+00 0.000000000000D+00 0.237029206646D-02 0.000000000000D+00  5 2 -1 25 24 21 2 0.56842095D-02 0.76340769D-01 0.16849429D+05 0.16849429D+05 0.16849429D+05 0.12421069D+01  1  2 15  2  5  2       -1 0.213130334029D-01 0.100000000000D+01
0.139412641010D-01 0.000000000000D+00 0.000000000000D+00 0.237029206646D-02 0.000000000000D+00  5 2 -1 25 24 21 2 0.56842095D-02 0.92572345D-01 0.17589829D+05 0.17589829D+05 0.17589829D+05 0.12400133D+01  1  2 12  2  5  2       -1 0.377049786339D+01 0.100000000000D+01
-.211525130284D-01 0.000000000000D+00 0.000000000000D+00 0.237029206646D-02 0.000000000000D+00  5 2 -1 25 24 21 2 0.56842095D-02 0.76340769D-01 0.16849429D+05 0.16849429D+05 0.16849429D+05 0.12421069D+01  1  2  4  2  5  2       -1 -.855720924177D+01 0.100000000000D+01
-.225491725685D-01 0.000000000000D+00 -.490790316296D-03 0.237029206646D-02 0.000000000000D+00  5 2 -1 25 24 21 2 0.56842095D-02 0.92587484D-01 0.16849429D+05 0.16849429D+05 0.16849429D+05 0.12421069D+01  1  2  5  2  5  2       -1 -.611158632618D+01 0.100000000000D+01
0.222376424218D-01 0.000000000000D+00 0.481794223629D-03 0.237029206646D-02 0.000000000000D+00  5 2 -1 25 24 21 2 0.56842095D-02 0.76340769D-01 0.16849429D+05 0.16849429D+05 0.16849429D+05 0.12421069D+01  1  2  6  2  5  2       -1 0.899619629080D+01 0.100000000000D+01
0.753437110706D-02 0.000000000000D+00 0.000000000000D+00 0.237029206646D-02 0.627805435556D-03  5 2 -1 25 24 21 2 0.56970051D-02 0.92498185D-01 0.17589829D+05 0.17589829D+05 0.17589829D+05 0.12400133D+01  1  2 11  2  5  2       -1 0.203529027874D+01 0.100000000000D+01
0.387828469101D-03 0.000000000000D+00 0.000000000000D+00 0.237029206646D-02 0.000000000000D+00  5 2 21 25 24 1 2 0.56842095D-02 0.92572345D-01 0.17589829D+05 0.17589829D+05 0.17589829D+05 0.12400133D+01  1  2 12  4  5  2       -1 0.940929603098D+00 0.100000000000D+01
-.622387824185D-03 0.000000000000D+00 -.136621129775D-04 0.237029206646D-02 0.000000000000D+00  5 2 21 25 24 1 2 0.56842095D-02 0.92587484D-01 0.16849429D+05 0.16849429D+05 0.16849429D+05 0.12421069D+01  1  2  5  4  5  2       -1 -.151495908485D+01 0.100000000000D+01
0.208754707050D-03 0.000000000000D+00 0.000000000000D+00 0.237029206646D-02 0.173727767700D-04  5 2 21 25 24 1 2 0.56970051D-02 0.92498185D-01 0.17589829D+05 0.17589829D+05 0.17589829D+05 0.12400133D+01  1  2 11  4  5  2       -1 0.505933035842D+00 0.100000000000D+01
  </mgrwgt>
  </event>
  <event>
  4     66 0.48098993E-03 0.83196441E+02 0.75467711E-02 0.12432423E+00
        2 -1    0    0  501    0 0.00000000E+00 0.00000000E+00 0.79670396E+02 0.79671038E+02 0.32000000E+00 0.0000E+00 0.9000E+01
       -1 -1    0    0    0  501 0.00000000E+00 0.00000000E+00 -.15619940E+03 0.15619973E+03 0.32000000E+00 0.0000E+00 0.9000E+01
       25  1    1    2    0    0 -.28575301E+02 -.19436139E+01 -.78724417E+02 0.15047544E+03 0.12500000E+03 0.0000E+00 0.9000E+01
       24  1    1    2    0    0 0.28575301E+02 0.19436139E+01 0.21954110E+01 0.85395323E+02 0.80419002E+02 0.0000E+00 0.9000E+01
#aMCatNLO 1  0  0  1  2 0.24777205D+02 0.00000000D+00  -5  5  0 0.00000000D+00 0.00000000D+00 0.00000000D+00 0.00000000D+00 0.00000000D+00
  <mgrwgt>
 0.3536975317D+00    9    2    0
 0.111555289214844D+03 0.000000000000000D+00 0.000000000000000D+00 0.111555289214844D+03
 0.111555289214844D+03 0.000000000000000D+00 0.000000000000000D+00 -.111555289214844D+03
 0.132078260626788D+03 -.285753009840322D+02 -.194361385687978D+01 -.316123625982774D+02
 0.910323178029000D+02 0.285753009840322D+02 0.194361385687978D+01 0.316123625982774D+02
 0.000000000000000D+00 -.000000000000000D+00 0.000000000000000D+00 0.000000000000000D+00
 0.141780964053487D+03 0.000000000000000D+00 0.000000000000000D+00 0.141780964053487D+03
 0.117436681633020D+03 0.000000000000000D+00 0.000000000000000D+00 -.117436681633020D+03
 0.132672520325656D+03 -.265823277855192D+02 -.164631719306991D+02 -.316123625982774D+02
 0.918096395359939D+02 0.299516864255751D+02 -.808387089070908D+01 0.316123625982774D+02
 0.347354858248567D+02 -.336935864005591D+01 0.245470428214082D+02 0.243442824204670D+02
0.339176081551D-03 0.000000000000D+00 0.000000000000D+00 0.276916800571D-02 0.000000000000D+00  5 2 -1 25 24 21 0 0.12257059D-01 0.24030752D-01 0.11406926D+05 0.11406926D+05 0.11406926D+05 0.12616122D+01  1  2  2  1  5  1        2 0.265778226733D+00 0.100000000000D+01
-.187996988363D-04 0.000000000000D+00 -.130252546027D-05 0.276916800571D-02 0.000000000000D+00  5 2 -1 25 24 21 2 0.12257059D-01 0.24030752D-01 0.11406926D+05 0.11406926D+05 0.11406926D+05 0.12616122D+01  1  2  3  1  5  1        2 -.234475144905D-01 0.100000000000D+01
0.234494894766D-04 0.000000000000D+00 0.000000000000D+00 0.276916800571D-02 0.000000000000D+00  5 2 -1 25 24 21 2 0.12257059D-01 0.24030752D-01 0.11406926D+05 0.11406926D+05 0.11406926D+05 0.12616122D+01  1  2 15  1  5  1        2 0.292468644889D-01 0.100000000000D+01
0.632947996309D-03 0.000000000000D+00 0.000000000000D+00 0.276916800571D-02 0.000000000000D+00  5 2 -1 25 24 21 2 0.15837547D-01 0.24030752D-01 0.14378891D+05 0.14378891D+05 0.14378891D+05 0.12499217D+01  1  2 12  1  5  1        2 0.578329329666D+00 0.100000000000D+01
-.652039873028D-03 0.000000000000D+00 0.000000000000D+00 0.276916800571D-02 0.000000000000D+00  5 2 -1 25 24 21 2 0.12257059D-01 0.24030752D-01 0.11406926D+05 0.11406926D+05 0.11406926D+05 0.12616122D+01  1  2  4  1  5  1        2 -.813242515444D+00 0.100000000000D+01
-.974305891234D-03 0.000000000000D+00 -.215432735800D-03 0.276916800571D-02 0.000000000000D+00  5 2 -1 25 24 21 2 0.16335569D-01 0.24030752D-01 0.11406926D+05 0.11406926D+05 0.11406926D+05 0.12616122D+01  1  2  5  1  5  1        2 -.868227427840D+00 0.100000000000D+01
0.100311139176D-02 0.000000000000D+00 0.206840842736D-03 0.276916800571D-02 0.000000000000D+00  5 2 -1 25 24 21 2 0.12257059D-01 0.24030752D-01 0.11406926D+05 0.11406926D+05 0.11406926D+05 0.12616122D+01  1  2  6  1  5  1        2 0.125110881290D+01 0.100000000000D+01
0.218160319979D-04 0.000000000000D+00 0.000000000000D+00 0.276916800571D-02 0.000000000000D+00  5 21 -1 25 24 -2 2 0.15837547D-01 0.24030752D-01 0.14378891D+05 0.14378891D+05 0.14378891D+05 0.12499217D+01  1  2 12  3  5  1        2 0.161901575086D+00 0.100000000000D+01
-.319827981967D-04 0.000000000000D+00 -.806978373084D-05 0.276916800571D-02 0.000000000000D+00  5 21 -1 25 24 -2 2 0.16335569D-01 0.24030752D-01 0.11406926D+05 0.11406926D+05 0.11406926D+05 0.12616122D+01  1  2  5  3  5  1        2 -.227749819425D+00 0.100000000000D+01
  </mgrwgt>
  </event>
  <event>
  4     66 0.48098993E-03 0.13037192E+03 0.75467711E-02 0.12126707E+00
        2 -1    0    0  501    0 0.00000000E+00 0.00000000E+00 0.28007596E+04 0.28007596E+04 0.32000000E+00 0.0000E+00 0.9000E+01
       -1 -1    0    0    0  501 0.00000000E+00 0.00000000E+00 -.85363509E+01 0.85423467E+01 0.32000000E+00 0.0000E+00 0.9000E+01
       25  1    1    2    0    0 -.35195456E+02 -.70854747E+02 0.22804249E+04 0.22852181E+04 0.12500000E+03 0.0000E+00 0.9000E+01
       24  1    1    2    0    0 0.35195456E+02 0.70854747E+02 0.51179840E+03 0.52408389E+03 0.80419002E+02 0.0000E+00 0.9000E+01
#aMCatNLO 1  0  0  2  2 0.19472536D+02 0.00000000D+00  -5  5  0 0.00000000D+00 0.00000000D+00 0.00000000D+00 0.00000000D+00 0.00000000D+00
  <mgrwgt>
 0.3767206346D+00    4    2    0
 0.154650298215098D+03 0.000000000000000D+00 0.000000000000000D+00 0.154650298215098D+03
 0.154650298215098D+03 0.000000000000000D+00 0.000000000000000D+00 -.154650298215098D+03
 0.169454317591918D+03 -.351954557215244D+02 -.708547473866466D+02 0.826477490308808D+02
 0.139846278838278D+03 0.351954557215244D+02 0.708547473866466D+02 -.826477490308808D+02
 0.000000000000000D+00 -.000000000000000D+00 0.000000000000000D+00 0.000000000000000D+00
 0.180204950860552D+03 0.000000000000000D+00 0.000000000000000D+00 0.180204950860552D+03
 0.158710957386558D+03 0.000000000000000D+00 0.000000000000000D+00 -.158710957386558D+03
 0.169388213921995D+03 -.253011556231246D+02 -.748102140081579D+02 0.826477490308808D+02
 0.140524739332494D+03 0.433823706884303D+02 0.675818459623220D+02 -.826477490308808D+02
 0.290029549926215D+02 -.180812150653057D+02 0.722836804583588D+01 0.214939934739947D+02
0.113903086698D-02 0.000000000000D+00 0.000000000000D+00 0.175085462062D-02 0.000000000000D+00  5 2 -1 25 24 21 0 0.43088656D+00 0.13137474D-02 0.16996839D+05 0.16996839D+05 0.16996839D+05 0.12416820D+01  1  2  2  2  5  2       -1 0.450758727702D+00 0.100000000000D+01
-.610356437413D-04 0.000000000000D+00 -.437417844291D-05 0.175085462062D-02 0.000000000000D+00  5 2 -1 25 24 21 2 0.43088656D+00 0.13137474D-02 0.16996839D+05 0.16996839D+05 0.16996839D+05 0.12416820D+01  1  2  3  2  5  2       -1 -.372402802651D-01 0.100000000000D+01
0.785013529563D-04 0.000000000000D+00 0.000000000000D+00 0.175085462062D-02 0.000000000000D+00  5 2 -1 25 24 21 2 0.43088656D+00 0.13137474D-02 0.16996839D+05 0.16996839D+05 0.16996839D+05 0.12416820D+01  1  2 15  2  5  2       -1 0.478968059659D-01 0.100000000000D+01
-.138811806612D-03 0.000000000000D+00 0.000000000000D+00 0.175085462062D-02 0.000000000000D+00  5 2 -1 25 24 21 2 0.43088656D+00 0.13137474D-02 0.16996839D+05 0.16996839D+05 0.16996839D+05 0.12416820D+01  1  2  4  2  5  2       -1 -.846946188401D-01 0.100000000000D+01
  </mgrwgt>
  </event>
  <event>
  4     66 0.48098993E-03 0.12580930E+03 0.75467711E-02 0.12327494E+00
        2 -1    0    0  501    0 0.00000000E+00 0.00000000E+00 0.24242161E+03 0.24242182E+03 0.32000000E+00 0.0000E+00 0.9000E+01
       -1 -1    0    0    0  501 0.00000000E+00 0.00000000E+00 -.76890660E+02 0.76891326E+02 0.32000000E+00 0.0000E+00 0.9000E+01
       25  1    1    2    0    0 -.25442971E+02 0.66825780E+02 0.31471827E+02 0.14740592E+03 0.12500000E+03 0.0000E+00 0.9000E+01
       24  1    1    2    0    0 0.25442971E+02 -.66825780E+02 0.13405912E+03 0.17190722E+03 0.80419002E+02 0.0000E+00 0.9000E+01
#aMCatNLO 1  0  0  2  1 0.13686325D+01 0.00000000D+00  -5  5  0 0.00000000D+00 0.00000000D+00 0.00000000D+00 0.00000000D+00 0.00000000D+00
  <mgrwgt>
 0.3968010631D+00    8    2    0
 0.136528741724841D+03 0.000000000000000D+00 0.000000000000000D+00 0.136528741724841D+03
 0.136528741724841D+03 0.000000000000000D+00 0.000000000000000D+00 -.136528741724841D+03
 0.153297709068153D+03 -.254429714899520D+02 0.668257803532983D+02 -.525562354766611D+02
 0.119759774381528D+03 0.254429714899520D+02 -.668257803532983D+02 0.525562354766611D+02
 0.000000000000000D+00 0.000000000000000D+00 0.000000000000000D+00 0.000000000000000D+00
 0.139651929224511D+03 0.000000000000000D+00 0.000000000000000D+00 0.139651929224511D+03
 0.136680478423391D+03 0.000000000000000D+00 0.000000000000000D+00 -.136680478423391D+03
 0.153272929235416D+03 -.261386238736619D+02 0.664996638406387D+02 -.525562354766611D+02
 0.119787984156950D+03 0.248994035534993D+02 -.670806008412037D+02 0.525562354766611D+02
 0.327149425553623D+01 0.123922032016261D+01 0.580937000565029D+00 0.297145080112008D+01
0.452468638537D-03 0.000000000000D+00 0.000000000000D+00 0.220178873081D-02 0.000000000000D+00  5 2 -1 25 24 21 0 0.37295699D-01 0.11829400D-01 0.15827980D+05 0.15827980D+05 0.15827980D+05 0.12451712D+01  1  2  2  2  5  2       -1 0.315518176843D+00 0.100000000000D+01
-.249328020017D-04 0.000000000000D+00 -.173759870971D-05 0.220178873081D-02 0.000000000000D+00  5 2 -1 25 24 21 2 0.37295699D-01 0.11829400D-01 0.15827980D+05 0.15827980D+05 0.15827980D+05 0.12451712D+01  1  2  3  2  5  2       -1 -.269565984866D-01 0.100000000000D+01
0.311979028370D-04 0.000000000000D+00 0.000000000000D+00 0.220178873081D-02 0.000000000000D+00  5 2 -1 25 24 21 2 0.37295699D-01 0.11829400D-01 0.15827980D+05 0.15827980D+05 0.15827980D+05 0.12451712D+01  1  2 15  2  5  2       -1 0.337302377945D-01 0.100000000000D+01
-.274218029132D-03 0.000000000000D+00 0.000000000000D+00 0.220178873081D-02 0.000000000000D+00  5 2 -1 25 24 21 2 0.37295699D-01 0.11829400D-01 0.15827980D+05 0.15827980D+05 0.15827980D+05 0.12451712D+01  1  2  4  2  5  2       -1 -.296476316966D+00 0.100000000000D+01
0.517858649881D-09 0.000000000000D+00 0.000000000000D+00 0.220178873081D-02 0.000000000000D+00  5 2 -1 25 24 21 2 0.37295699D-01 0.12115913D-01 0.15827980D+05 0.15827980D+05 0.15827980D+05 0.12451712D+01  1  2  5  2  5  2       -1 0.539639776710D-06 0.100000000000D+01
-.517710388676D-09 0.000000000000D+00 0.000000000000D+00 0.220178873081D-02 0.000000000000D+00  5 2 -1 25 24 21 2 0.37295699D-01 0.11829400D-01 0.15827980D+05 0.15827980D+05 0.15827980D+05 0.12451712D+01  1  2  6  2  5  2       -1 -.559732960577D-06 0.100000000000D+01
0.274287890892D-03 0.000000000000D+00 0.000000000000D+00 0.220178873081D-02 0.971403871064D-02  5 2 -1 25 24 21 2 0.38148864D-01 0.11842547D-01 0.16001269D+05 0.16001269D+05 0.16001269D+05 0.12446359D+01  1  2 11  2  5  2       -1 0.288861247491D+00 0.100000000000D+01
0.536053302627D-05 0.000000000000D+00 0.000000000000D+00 0.220178873081D-02 0.204363538138D-05  5 2 21 25 24 1 2 0.38148864D-01 0.11842547D-01 0.16001269D+05 0.16001269D+05 0.16001269D+05 0.12446359D+01  1  2 11  4  5  2       -1 0.821243364692D-01 0.100000000000D+01
  </mgrwgt>
  </event>
  <event>
  4     66 0.48098993E-03 0.10581087E+03 0.75467711E-02 0.11994032E+00
        2 -1    0    0  501    0 0.00000000E+00 0.00000000E+00 0.19773974E+04 0.19773974E+04 0.32000000E+00 0.0000E+00 0.9000E+01
       -1 -1    0    0    0  501 0.00000000E+00 0.00000000E+00 -.10741750E+02 0.10746515E+02 0.32000000E+00 0.0000E+00 0.9000E+01
       25  1    1    2    0    0 0.14909794E+02 0.87615155E+02 0.74507779E+03 0.76070009E+03 0.12500000E+03 0.0000E+00 0.9000E+01
       24  1    1    2    0    0 -.14909794E+02 -.87615155E+02 0.12215779E+04 0.12274439E+04 0.80419002E+02 0.0000E+00 0.9000E+01
#aMCatNLO 1  0  0  1  2 0.27389285D+02 0.00000000D+00  -5  5  0 0.00000000D+00 0.00000000D+00 0.00000000D+00 0.00000000D+00 0.00000000D+00
  <mgrwgt>
 0.6834165374D+00    9    2    0
 0.145758262648215D+03 0.000000000000000D+00 0.000000000000000D+00 0.145758262648215D+03
 0.145758262648215D+03 0.000000000000000D+00 0.000000000000000D+00 -.145758262648215D+03
 0.161465406585111D+03 0.149097939623996D+02 0.876151546295929D+02 -.504713804737542D+02
 0.130051118711319D+03 -.149097939623996D+02 -.876151546295929D+02 0.504713804737542D+02
 0.000000000000000D+00 -.000000000000000D+00 -.000000000000000D+00 0.000000000000000D+00
 0.170854608874918D+03 0.000000000000000D+00 0.000000000000000D+00 0.170854608874918D+03
 0.154069277934359D+03 0.000000000000000D+00 0.000000000000000D+00 -.154069277934359D+03
 0.168438855970399D+03 0.269394595734337D+02 0.973321810686558D+02 -.504713804737542D+02
 0.124361515331720D+03 -.563286346428212D+01 -.801216646325915D+02 0.504713804737542D+02
 0.321235155071582D+02 -.213065961091516D+02 -.172105164360642D+02 0.167853309405589D+02
0.437394079170D-03 0.000000000000D+00 0.000000000000D+00 0.217890756093D-02 0.000000000000D+00  5 2 -1 25 24 21 0 0.30421536D+00 0.16529454D-02 0.18663987D+05 0.18663987D+05 0.18663987D+05 0.12371454D+01  1  2  2  1  5  1        2 0.339764343884D+00 0.100000000000D+01
-.241757107236D-04 0.000000000000D+00 -.167970843252D-05 0.217890756093D-02 0.000000000000D+00  5 2 -1 25 24 21 2 0.30421536D+00 0.16529454D-02 0.18663987D+05 0.18663987D+05 0.18663987D+05 0.12371454D+01  1  2  3  1  5  1        2 -.287425707884D-01 0.100000000000D+01
0.303005503441D-04 0.000000000000D+00 0.000000000000D+00 0.217890756093D-02 0.000000000000D+00  5 2 -1 25 24 21 2 0.30421536D+00 0.16529454D-02 0.18663987D+05 0.18663987D+05 0.18663987D+05 0.12371454D+01  1  2 15  1  5  1        2 0.360244099191D-01 0.100000000000D+01
0.615335133256D-03 0.000000000000D+00 0.000000000000D+00 0.217890756093D-02 0.000000000000D+00  5 2 -1 25 24 21 2 0.36417649D+00 0.16529454D-02 0.22762950D+05 0.22762950D+05 0.22762950D+05 0.12276866D+01  1  2 12  1  5  1        2 0.452990174309D+00 0.100000000000D+01
-.617379976760D-03 0.000000000000D+00 0.000000000000D+00 0.217890756093D-02 0.000000000000D+00  5 2 -1 25 24 21 2 0.30421536D+00 0.16529454D-02 0.18663987D+05 0.18663987D+05 0.18663987D+05 0.12371454D+01  1  2  4  1  5  1        2 -.734004798793D+00 0.100000000000D+01
-.131051616293D-02 0.000000000000D+00 -.289506084473D-03 0.217890756093D-02 0.000000000000D+00  5 2 -1 25 24 21 2 0.36418624D+00 0.16529454D-02 0.18663987D+05 0.18663987D+05 0.18663987D+05 0.12371454D+01  1  2  5  1  5  1        2 -.979181807807D+00 0.100000000000D+01
0.134539365565D-02 0.000000000000D+00 0.284882151831D-03 0.217890756093D-02 0.000000000000D+00  5 2 -1 25 24 21 2 0.30421536D+00 0.16529454D-02 0.18663987D+05 0.18663987D+05 0.18663987D+05 0.12371454D+01  1  2  6  1  5  1        2 0.159954231865D+01 0.100000000000D+01
0.162219137340D-04 0.000000000000D+00 0.000000000000D+00 0.217890756093D-02 0.000000000000D+00  5 21 -1 25 24 -2 2 0.36417649D+00 0.16529454D-02 0.22762950D+05 0.22762950D+05 0.22762950D+05 0.12276866D+01  1  2 12  3  5  1        2 0.290761168545D-02 0.100000000000D+01
-.317778421504D-04 0.000000000000D+00 -.763305962119D-05 0.217890756093D-02 0.000000000000D+00  5 21 -1 25 24 -2 2 0.36418624D+00 0.16529454D-02 0.18663987D+05 0.18663987D+05 0.18663987D+05 0.12371454D+01  1  2  5  3  5  1        2 -.588314369577D-02 0.100000000000D+01
  </mgrwgt>
  </event>
  <event>
  4     66 0.48098993E-03 0.13294074E+03 0.75467711E-02 0.11698247E+00
        2 -1    0    0  501    0 0.00000000E+00 0.00000000E+00 0.19135391E+03 0.19135418E+03 0.32000000E+00 0.0000E+00 0.9000E+01
       -1 -1    0    0    0  501 0.00000000E+00 0.00000000E+00 -.94441873E+02 0.94442416E+02 0.32000000E+00 0.0000E+00 0.9000E+01
       25  1    1    2    0    0 -.46637657E+02 -.68910399E+02 0.33544621E+02 0.15386343E+03 0.12500000E+03 0.0000E+00 0.9000E+01
       24  1    1    2    0    0 0.46637657E+02 0.68910399E+02 0.63367420E+02 0.13193316E+03 0.80419002E+02 0.0000E+00 0.9000E+01
#aMCatNLO 1  0  0  2  2 0.78574299D+02 0.00000000D+00  -5  5  0 0.00000000D+00 0.00000000D+00 0.00000000D+00 0.00000000D+00 0.00000000D+00
  <mgrwgt>
 0.3405601661D+00    7    2    0
 0.134431907769839D+03 0.000000000000000D+00 0.000000000000000D+00 0.134431907769839D+03
 0.134431907769839D+03 0.000000000000000D+00 0.000000000000000D+00 -.134431907769839D+03
 0.151462433107076D+03 -.466376569838936D+02 -.689103992288998D+02 -.198028904931015D+02
 0.117401382432602D+03 0.466376569838936D+02 0.689103992288998D+02 0.198028904931015D+02
 0.000000000000000D+00 -.000000000000000D+00 0.000000000000000D+00 -.000000000000000D+00
 0.178324274373281D+03 0.000000000000000D+00 0.000000000000000D+00 0.178324274373281D+03
 0.180387206673979D+03 0.000000000000000D+00 0.000000000000000D+00 -.180387206673979D+03
 0.150683710182535D+03 -.529867663941758D+01 -.816109678190579D+02 -.198028904931015D+02
 0.129426396225683D+03 0.804080985964653D+02 0.585351116323902D+02 0.198028904931015D+02
 0.786013746390409D+02 -.751094219570477D+02 0.230758561866677D+02 -.206293230069812D+01
0.471377688211D-03 0.000000000000D+00 0.000000000000D+00 0.251384742824D-02 0.000000000000D+00  5 2 -1 25 24 21 0 0.29439126D-01 0.14529581D-01 0.17673240D+05 0.17673240D+05 0.17673240D+05 0.12397837D+01  1  2  2  2  5  2       -1 0.309243456607D+00 0.100000000000D+01
-.261836877846D-04 0.000000000000D+00 -.181021443933D-05 0.251384742824D-02 0.000000000000D+00  5 2 -1 25 24 21 2 0.29439126D-01 0.14529581D-01 0.17673240D+05 0.17673240D+05 0.17673240D+05 0.12397837D+01  1  2  3  2  5  2       -1 -.264030517961D-01 0.100000000000D+01
0.325533302909D-04 0.000000000000D+00 0.000000000000D+00 0.251384742824D-02 0.000000000000D+00  5 2 -1 25 24 21 2 0.29439126D-01 0.14529581D-01 0.17673240D+05 0.17673240D+05 0.17673240D+05 0.12397837D+01  1  2 15  2  5  2       -1 0.328260584558D-01 0.100000000000D+01
-.133261586483D-03 0.000000000000D+00 0.000000000000D+00 0.251384742824D-02 0.000000000000D+00  5 2 -1 25 24 21 2 0.29439126D-01 0.14529581D-01 0.17673240D+05 0.17673240D+05 0.17673240D+05 0.12397837D+01  1  2  4  2  5  2       -1 -.134378037169D+00 0.100000000000D+01
-.192034729598D-03 0.000000000000D+00 -.150488405419D-03 0.251384742824D-02 0.000000000000D+00  5 2 -1 25 24 21 2 0.29439126D-01 0.25588539D-01 0.17673240D+05 0.17673240D+05 0.17673240D+05 0.12397837D+01  1  2  5  2  5  2       -1 -.782552851374D-01 0.100000000000D+01
0.256304691364D-03 0.000000000000D+00 0.129232839109D-03 0.251384742824D-02 0.000000000000D+00  5 2 -1 25 24 21 2 0.29439126D-01 0.14529581D-01 0.17673240D+05 0.17673240D+05 0.17673240D+05 0.12397837D+01  1  2  6  2  5  2       -1 0.258451983439D+00 0.100000000000D+01
-.425842850807D-05 0.000000000000D+00 -.939121856929D-05 0.251384742824D-02 0.000000000000D+00  5 2 21 25 24 1 2 0.29439126D-01 0.25588539D-01 0.17673240D+05 0.17673240D+05 0.17673240D+05 0.12397837D+01  1  2  5  4  5  2       -1 -.209249583350D-01 0.100000000000D+01
  </mgrwgt>
  </event>
  <event>
  4     66 0.48098993E-03 0.11471264E+03 0.75467711E-02 0.11431309E+00
        2 -1    0    0  501    0 0.00000000E+00 0.00000000E+00 0.13629124E+03 0.13629162E+03 0.32000000E+00 0.0000E+00 0.9000E+01
       -1 -1    0    0    0  501 0.00000000E+00 0.00000000E+00 -.10341634E+03 0.10341684E+03 0.32000000E+00 0.0000E+00 0.9000E+01
       25  1    1    2    0    0 -.23486771E+02 -.44267129E+02 -.11336669E+02 0.13514706E+03 0.12500000E+03 0.0000E+00 0.9000E+01
       24  1    1    2    0    0 0.23486771E+02 0.44267129E+02 0.44211572E+02 0.10456140E+03 0.80419002E+02 0.0000E+00 0.9000E+01
#aMCatNLO 1  0  0  1  2 0.14483693D+03 0.00000000D+00  -5  5  0 0.00000000D+00 0.00000000D+00 0.00000000D+00 0.00000000D+00 0.00000000D+00
  <mgrwgt>
 0.3224673212D+00    3    2    0
 0.118721717428959D+03 0.000000000000000D+00 0.000000000000000D+00 0.118721717428959D+03
 0.118721717428959D+03 0.000000000000000D+00 0.000000000000000D+00 -.118721717428959D+03
 0.138005855672472D+03 -.234867707446018D+02 -.442671286723471D+02 -.301564109102448D+02
 0.994375791854452D+02 0.234867707446018D+02 0.442671286723471D+02 0.301564109102448D+02
 0.000000000000000D+00 0.000000000000000D+00 -.000000000000000D+00 -.000000000000000D+00
 0.194526618197899D+03 0.000000000000000D+00 0.000000000000000D+00 0.194526618197899D+03
 0.233626714265330D+03 0.000000000000000D+00 0.000000000000000D+00 -.233626714265330D+03
 0.166159816179177D+03 -.104046167139227D+03 -.157819674738744D+02 -.301564109102448D+02
 0.111971667667753D+03 -.325057454885995D+02 0.640656366328318D+02 0.301564109102448D+02
 0.150021848616299D+03 0.136551912627827D+03 -.482836691589574D+02 -.391000960674316D+02
0.385897678253D-03 0.000000000000D+00 0.000000000000D+00 0.265197631283D-02 0.000000000000D+00  5 2 -1 25 24 21 0 0.20967951D-01 0.15910273D-01 0.13158989D+05 0.13158989D+05 0.13158989D+05 0.12543582D+01  1  2  2  1  5  1        2 0.315774759679D+00 0.100000000000D+01
-.214079999085D-04 0.000000000000D+00 -.148194869368D-05 0.265197631283D-02 0.000000000000D+00  5 2 -1 25 24 21 2 0.20967951D-01 0.15910273D-01 0.13158989D+05 0.13158989D+05 0.13158989D+05 0.12543582D+01  1  2  3  1  5  1        2 -.275628741932D-01 0.100000000000D+01
0.266060919483D-04 0.000000000000D+00 0.000000000000D+00 0.265197631283D-02 0.000000000000D+00  5 2 -1 25 24 21 2 0.20967951D-01 0.15910273D-01 0.13158989D+05 0.13158989D+05 0.13158989D+05 0.12543582D+01  1  2 15  1  5  1        2 0.342554357380D-01 0.100000000000D+01
  </mgrwgt>
  </event>
  <event>
  4     66 -.48098993E-03 0.71951197E+02 0.75467711E-02 0.12550446E+00
        4 -1    0    0  501    0 0.00000000E+00 0.00000000E+00 0.40540125E+03 0.40540421E+03 0.15500000E+01 0.0000E+00 0.9000E+01
       -3 -1    0    0    0  501 0.00000000E+00 0.00000000E+00 -.30432596E+02 0.30436704E+02 0.50000000E+00 0.0000E+00 0.9000E+01
       25  1    1    2    0    0 -.31201525E+02 -.26409863E+02 0.23566748E+03 0.26987993E+03 0.12500000E+03 0.0000E+00 0.9000E+01
       24  1    1    2    0    0 0.31201525E+02 0.26409863E+02 0.13930118E+03 0.16596099E+03 0.80419002E+02 0.0000E+00 0.9000E+01
#aMCatNLO 1  0  0  1  2 0.43077404D+01 0.00000000D+00  -5  5  0 0.00000000D+00 0.00000000D+00 0.00000000D+00 0.00000000D+00 0.00000000D+00
  <mgrwgt>
 -.1596790186D-01   11    2    0
 0.111080841721138D+03 0.000000000000000D+00 0.000000000000000D+00 0.111080841721138D+03
 0.111080841721138D+03 0.000000000000000D+00 0.000000000000000D+00 -.111080841721138D+03
 0.131691470664290D+03 -.312015246238028D+02 -.264098625290149D+02 0.682843086457534D+01
 0.904702127779860D+02 0.312015246238028D+02 0.264098625290149D+02 -.682843086457534D+01
 0.000000000000000D+00 0.000000000000000D+00 -.000000000000000D+00 0.000000000000000D+00
 0.114731605519584D+03 0.000000000000000D+00 0.000000000000000D+00 0.114731605519584D+03
 0.112379767206187D+03 0.000000000000000D+00 0.000000000000000D+00 -.112379767206187D+03
 0.131275863594205D+03 -.314899119659555D+02 -.238769834507714D+02 0.682843086457534D+01
 0.909275797131166D+02 0.310025918270873D+02 0.281570706936176D+02 -.682843086457534D+01
 0.490792941844938D+01 0.487320138868215D+00 -.428008724284622D+01 0.235183831339643D+01
0.121431284766D-03 0.000000000000D+00 0.000000000000D+00 0.297320010296D-02 0.000000000000D+00  5 4 -3 25 24 21 0 0.62369967D-01 0.46824818D-02 0.12290657D+05 0.12290657D+05 0.12290657D+05 0.12578078D+01  1  2  2  1  5  1        4 0.140232057044D-01 0.100000000000D+01
-.674615094704D-05 0.000000000000D+00 -.466328107093D-06 0.297320010296D-02 0.000000000000D+00  5 4 -3 25 24 21 2 0.62369967D-01 0.46824818D-02 0.12290657D+05 0.12290657D+05 0.12290657D+05 0.12578078D+01  1  2  3  1  5  1        4 -.123254085660D-02 0.100000000000D+01
0.840499498254D-05 0.000000000000D+00 0.000000000000D+00 0.297320010296D-02 0.000000000000D+00  5 4 -3 25 24 21 2 0.62369967D-01 0.46824818D-02 0.12290657D+05 0.12290657D+05 0.12290657D+05 0.12578078D+01  1  2 15  1  5  1        4 0.153561635321D-02 0.100000000000D+01
0.564725818463D-04 0.000000000000D+00 0.000000000000D+00 0.297320010296D-02 0.000000000000D+00  5 4 -3 25 24 21 2 0.64776185D-01 0.46824818D-02 0.12777670D+05 0.12777670D+05 0.12777670D+05 0.12558406D+01  1  2 12  1  5  1        4 0.953209612162D-02 0.100000000000D+01
-.813905305547D-03 0.000000000000D+00 0.000000000000D+00 0.297320010296D-02 0.000000000000D+00  5 4 -3 25 24 21 2 0.62369967D-01 0.46824818D-02 0.12290657D+05 0.12290657D+05 0.12290657D+05 0.12578078D+01  1  2  4  1  5  1        4 -.148702801104D+00 0.100000000000D+01
-.325460867676D-02 0.000000000000D+00 -.430980723252D-03 0.297320010296D-02 0.000000000000D+00  5 4 -3 25 24 21 2 0.65020065D-01 0.46824818D-02 0.12290657D+05 0.12290657D+05 0.12290657D+05 0.12578078D+01  1  2  5  1  5  1        4 -.544593063594D+00 0.100000000000D+01
0.327008395023D-02 0.000000000000D+00 0.430607857070D-03 0.297320010296D-02 0.000000000000D+00  5 4 -3 25 24 21 2 0.62369967D-01 0.46824818D-02 0.12290657D+05 0.12290657D+05 0.12290657D+05 0.12578078D+01  1  2  6  1  5  1        4 0.597453585728D+00 0.100000000000D+01
0.759203935658D-03 0.000000000000D+00 0.000000000000D+00 0.297320010296D-02 0.134846683786D-02  5 4 -3 25 24 21 2 0.64419808D-01 0.47372365D-02 0.12777670D+05 0.12777670D+05 0.12777670D+05 0.12558406D+01  1  2 11  1  5  1        4 0.127307723736D+00 0.100000000000D+01
0.104442430460D-05 0.000000000000D+00 0.000000000000D+00 0.297320010296D-02 0.000000000000D+00  5 21 -3 25 24 -4 2 0.64776185D-01 0.46824818D-02 0.12777670D+05 0.12777670D+05 0.12777670D+05 0.12558406D+01  1  2 12  3  5  1        4 0.435876182902D-02 0.100000000000D+01
-.236153580147D-04 0.000000000000D+00 -.316234523098D-05 0.297320010296D-02 0.000000000000D+00  5 21 -3 25 24 -4 2 0.65020065D-01 0.46824818D-02 0.12290657D+05 0.12290657D+05 0.12290657D+05 0.12578078D+01  1  2  5  3  5  1        4 -.979316603000D-01 0.100000000000D+01
0.537340882713D-05 0.000000000000D+00 0.000000000000D+00 0.297320010296D-02 0.785185393681D-05  5 21 -3 25 24 -4 2 0.64419808D-01 0.47372365D-02 0.12777670D+05 0.12777670D+05 0.12777670D+05 0.12558406D+01  1  2 11  3  5  1        4 0.222811745212D-01 0.100000000000D+01
  </mgrwgt>
  </event>
  <event>
  4     66 0.48098993E-03 0.11180473E+03 0.75467711E-02 0.11664477E+00
        2 -1    0    0  501    0 0.00000000E+00 0.00000000E+00 0.33513731E+02 0.33515259E+02 0.32000000E+00 0.0000E+00 0.9000E+01
       -1 -1    0    0    0  501 0.00000000E+00 0.00000000E+00 -.37966417E+03 0.37966431E+03 0.32000000E+00 0.0000E+00 0.9000E+01
       25  1    1    2    0    0 0.36027320E+02 -.23990360E+02 -.17726061E+03 0.22117828E+03 0.12500000E+03 0.0000E+00 0.9000E+01
       24  1    1    2    0    0 -.36027320E+02 0.23990360E+02 -.16888983E+03 0.19200129E+03 0.80419002E+02 0.0000E+00 0.9000E+01
#aMCatNLO 1  0  0  2  2 0.11246127D+03 0.00000000D+00  -5  5  0 0.00000000D+00 0.00000000D+00 0.00000000D+00 0.00000000D+00 0.00000000D+00
  <mgrwgt>
 0.2440140466D+00    5    2    0
 0.112802067823673D+03 0.000000000000000D+00 0.000000000000000D+00 0.112802067823673D+03
 0.112802067823673D+03 0.000000000000000D+00 0.000000000000000D+00 -.112802067823673D+03
 0.133098202952917D+03 0.360273195483125D+02 -.239903603934175D+02 0.147182364315001D+02
 0.925059326944297D+02 -.360273195483125D+02 0.239903603934175D+02 -.147182364315001D+02
 0.000000000000000D+00 0.000000000000000D+00 -.000000000000000D+00 -.000000000000000D+00
 0.142294976266918D+03 0.000000000000000D+00 0.000000000000000D+00 0.142294976266918D+03
 0.320563571830346D+03 0.000000000000000D+00 0.000000000000000D+00 -.320563571830346D+03
 0.130640666745808D+03 -.260615636456360D+02 -.233698999672705D+02 0.147182364315001D+02
 0.121440201548645D+03 -.863940954201790D+02 0.244936806274680D+02 -.147182364315001D+02
 0.210777679802811D+03 0.112455659065815D+03 -.112378066019756D+01 -.178268595563429D+03
0.532411159905D-03 0.000000000000D+00 0.000000000000D+00 0.289661598150D-02 0.000000000000D+00  5 2 -1 25 24 21 0 0.51560865D-02 0.58410001D-01 0.12500298D+05 0.12500298D+05 0.12500298D+05 0.12569504D+01  1  2  2  2  5  2       -1 0.264172760434D+00 0.100000000000D+01
-.295755614282D-04 0.000000000000D+00 -.204459904111D-05 0.289661598150D-02 0.000000000000D+00  5 2 -1 25 24 21 2 0.51560865D-02 0.58410001D-01 0.12500298D+05 0.12500298D+05 0.12500298D+05 0.12569504D+01  1  2  3  2  5  2       -1 -.231851635865D-01 0.100000000000D+01
0.367864605909D-04 0.000000000000D+00 0.000000000000D+00 0.289661598150D-02 0.000000000000D+00  5 2 -1 25 24 21 2 0.51560865D-02 0.58410001D-01 0.12500298D+05 0.12500298D+05 0.12500298D+05 0.12569504D+01  1  2 15  2  5  2       -1 0.288380022351D-01 0.100000000000D+01
-.243873315696D-03 0.000000000000D+00 -.154522085688D-03 0.289661598150D-02 0.000000000000D+00  5 2 -1 25 24 21 2 0.51560865D-02 0.18870012D+00 0.12500298D+05 0.12500298D+05 0.12500298D+05 0.12569504D+01  1  2  5  2  5  2       -1 -.132121206125D-01 0.100000000000D+01
-.264801759564D-04 0.000000000000D+00 -.209044304686D-04 0.289661598150D-02 0.000000000000D+00  5 2 21 25 24 1 2 0.51560865D-02 0.18870012D+00 0.12500298D+05 0.12500298D+05 0.12500298D+05 0.12569504D+01  1  2  5  4  5  2       -1 -.125994319105D-01 0.100000000000D+01
  </mgrwgt>
  </event>
  <event>
  4     66 0.48098993E-03 0.13279765E+03 0.75467711E-02 0.12208529E+00
        2 -1    0    0  501    0 0.00000000E+00 0.00000000E+00 0.37837379E+03 0.37837392E+03 0.32000000E+00 0.0000E+00 0.9000E+01
       -1 -1    0    0    0  501 0.00000000E+00 0.00000000E+00 -.73185936E+02 0.73186636E+02 0.32000000E+00 0.0000E+00 0.9000E+01
       25  1    1    2    0    0 0.64244342E+02 0.52526116E+02 0.30053936E+03 0.33590957E+03 0.12500000E+03 0.0000E+00 0.9000E+01
       24  1    1    2    0    0 -.64244342E+02 -.52526116E+02 0.46484919E+01 0.11565100E+03 0.80419002E+02 0.0000E+00 0.9000E+01
#aMCatNLO 1  0  0  1  2 0.34441628D+01 0.00000000D+00  -5  5  0 0.00000000D+00 0.00000000D+00 0.00000000D+00 0.00000000D+00 0.00000000D+00
  <mgrwgt>
 0.3524297651D+00    6    2    0
 0.166408619194118D+03 0.000000000000000D+00 0.000000000000000D+00 0.166408619194118D+03
 0.166408619194118D+03 0.000000000000000D+00 0.000000000000000D+00 -.166408619194118D+03
 0.180166596530236D+03 0.642443415634887D+02 0.525261162438707D+02 0.997430408334237D+02
 0.152650641858000D+03 -.642443415634887D+02 -.525261162438707D+02 -.997430408334237D+02
 0.000000000000000D+00 0.000000000000000D+00 -.000000000000000D+00 -.000000000000000D+00
 0.166890879006521D+03 0.000000000000000D+00 0.000000000000000D+00 0.166890879006521D+03
 0.172682591544578D+03 0.000000000000000D+00 0.000000000000000D+00 -.172682591544578D+03
 0.179812737535310D+03 0.625658489798738D+02 0.533334878539918D+02 0.997430408334237D+02
 0.153022321354179D+03 -.656696172757599D+02 -.518405444648136D+02 -.997430408334237D+02
 0.673841166161002D+01 0.310376829588610D+01 -.149294338917820D+01 -.579171253805671D+01
0.734056689871D-03 0.000000000000D+00 0.000000000000D+00 0.153116662425D-02 0.000000000000D+00  5 2 -1 25 24 21 0 0.58211416D-01 0.11259439D-01 0.17635215D+05 0.17635215D+05 0.17635215D+05 0.12398882D+01  1  2  2  1  5  1        2 0.345617136011D+00 0.100000000000D+01
-.382569056692D-04 0.000000000000D+00 -.281897097067D-05 0.153116662425D-02 0.000000000000D+00  5 2 -1 25 24 21 2 0.58211416D-01 0.11259439D-01 0.17635215D+05 0.17635215D+05 0.17635215D+05 0.12398882D+01  1  2  3  1  5  1        2 -.276911225519D-01 0.100000000000D+01
0.502273800551D-04 0.000000000000D+00 0.000000000000D+00 0.153116662425D-02 0.000000000000D+00  5 2 -1 25 24 21 2 0.58211416D-01 0.11259439D-01 0.17635215D+05 0.17635215D+05 0.17635215D+05 0.12398882D+01  1  2 15  1  5  1        2 0.363555941662D-01 0.100000000000D+01
-.446598644104D-03 0.000000000000D+00 0.000000000000D+00 0.153116662425D-02 0.000000000000D+00  5 2 -1 25 24 21 2 0.58211416D-01 0.11259439D-01 0.17635215D+05 0.17635215D+05 0.17635215D+05 0.12398882D+01  1  2  4  1  5  1        2 -.323257136694D+00 0.100000000000D+01
0.441733247214D-03 0.000000000000D+00 0.000000000000D+00 0.153116662425D-02 0.105706287209D-02  5 2 -1 25 24 21 2 0.58380116D-01 0.11683945D-01 0.18104361D+05 0.18104361D+05 0.18104361D+05 0.12386157D+01  1  2 11  1  5  1        2 0.300693833509D+00 0.100000000000D+01
0.114191939799D-04 0.000000000000D+00 0.000000000000D+00 0.153116662425D-02 0.584513436277D-06  5 21 -1 25 24 -2 2 0.58380116D-01 0.11683945D-01 0.18104361D+05 0.18104361D+05 0.18104361D+05 0.12386157D+01  1  2 11  3  5  1        2 0.207114606992D-01 0.100000000000D+01
  </mgrwgt>
  </event>
  <event>
  4     66 0.48098993E-03 0.18461548E+03 0.75467711E-02 0.10918840E+00
        2 -1    0    0  501    0 0.00000000E+00 0.00000000E+00 0.15672690E+04 0.15672690E+04 0.32000000E+00 0.0000E+00 0.9000E+01
       -1 -1    0    0    0  501 0.00000000E+00 0.00000000E+00 -.23599882E+02 0.23602051E+02 0.32000000E+00 0.0000E+00 0.9000E+01
       25  1    1    2    0    0 0.13670502E+03 0.67099124E+02 0.10421068E+04 0.10605669E+04 0.12500000E+03 0.0000E+00 0.9000E+01
       24  1    1    2    0    0 -.13670502E+03 -.67099124E+02 0.50156227E+03 0.53030415E+03 0.80419002E+02 0.0000E+00 0.9000E+01
#aMCatNLO 1  0  0  1  2 0.16956655D+03 0.00000000D+00  -5  5  0 0.00000000D+00 0.00000000D+00 0.00000000D+00 0.00000000D+00 0.00000000D+00
  <mgrwgt>
 0.5697223374D+00    6    2    0
 0.192325542114285D+03 0.000000000000000D+00 0.000000000000000D+00 0.192325542114285D+03
 0.192325542114285D+03 0.000000000000000D+00 0.000000000000000D+00 -.192325542114285D+03
 0.204229556454965D+03 0.136705023741437D+03 0.670991238087787D+02 0.537973586502059D+02
 0.180421527773606D+03 -.136705023741437D+03 -.670991238087787D+02 -.537973586502059D+02
 0.000000000000000D+00 -.000000000000000D+00 -.000000000000000D+00 0.000000000000000D+00
 0.332197203522825D+03 0.000000000000000D+00 0.000000000000000D+00 0.332197203522825D+03
 0.269097343674327D+03 0.000000000000000D+00 0.000000000000000D+00 -.269097343674327D+03
 0.277426096473497D+03 0.183933419299441D+03 0.156890345374084D+03 0.537973586502059D+02
 0.142941923767829D+03 -.104997855133435D+03 -.681705476849003D+01 -.537973586502059D+02
 0.180926526955825D+03 -.789355641660062D+02 -.150073290605594D+03 0.630998598484980D+02
0.857886124390D-03 0.000000000000D+00 0.000000000000D+00 0.202560728325D-02 0.000000000000D+00  5 2 -1 25 24 21 0 0.24111847D+00 0.36309205D-02 0.34082875D+05 0.34082875D+05 0.34082875D+05 0.12091251D+01  1  2  2  1  5  1        2 0.346924057806D+00 0.100000000000D+01
-.475633364264D-04 0.000000000000D+00 -.329450860426D-05 0.202560728325D-02 0.000000000000D+00  5 2 -1 25 24 21 2 0.24111847D+00 0.36309205D-02 0.34082875D+05 0.34082875D+05 0.34082875D+05 0.12091251D+01  1  2  3  1  5  1        2 -.281202728760D-01 0.100000000000D+01
0.593414829670D-04 0.000000000000D+00 0.000000000000D+00 0.202560728325D-02 0.000000000000D+00  5 2 -1 25 24 21 2 0.24111847D+00 0.36309205D-02 0.34082875D+05 0.34082875D+05 0.34082875D+05 0.12091251D+01  1  2 15  1  5  1        2 0.350837182435D-01 0.100000000000D+01
-.288067227880D-03 0.000000000000D+00 -.253351944611D-03 0.202560728325D-02 0.000000000000D+00  5 2 -1 25 24 21 2 0.47140988D+00 0.36309205D-02 0.34082875D+05 0.34082875D+05 0.34082875D+05 0.12091251D+01  1  2  5  1  5  1        2 -.265934767667D-01 0.100000000000D+01
0.410161924327D-03 0.000000000000D+00 0.205427694883D-03 0.202560728325D-02 0.000000000000D+00  5 2 -1 25 24 21 2 0.24111847D+00 0.36309205D-02 0.34082875D+05 0.34082875D+05 0.34082875D+05 0.12091251D+01  1  2  6  1  5  1        2 0.242494873195D+00 0.100000000000D+01
-.602243111532D-05 0.000000000000D+00 -.184037601343D-04 0.202560728325D-02 0.000000000000D+00  5 21 -1 25 24 -2 2 0.47140988D+00 0.36309205D-02 0.34082875D+05 0.34082875D+05 0.34082875D+05 0.12091251D+01  1  2  5  3  5  1        2 -.665622207643D-04 0.100000000000D+01
  </mgrwgt>
  </event>
  <event>
  4     66 0.48098993E-03 0.14196153E+03 0.75467711E-02 0.12102926E+00
        2 -1    0    0  501    0 0.00000000E+00 0.00000000E+00 0.10565382E+03 0.10565431E+03 0.32000000E+00 0.0000E+00 0.9000E+01
       -1 -1    0    0    0  501 0.00000000E+00 0.00000000E+00 -.20603111E+03 0.20603136E+03 0.32000000E+00 0.0000E+00 0.9000E+01
       25  1    1    2    0    0 -.96554059E+02 0.66609754E+01 -.13272817E+02 0.15864496E+03 0.12500000E+03 0.0000E+00 0.9000E+01
       24  1    1    2    0    0 0.96554059E+02 -.66609754E+01 -.87104475E+02 0.15304071E+03 0.80419002E+02 0.0000E+00 0.9000E+01
#aMCatNLO 1  0  0  1  2 0.63617364D+00 0.00000000D+00  -5  5  0 0.00000000D+00 0.00000000D+00 0.00000000D+00 0.00000000D+00 0.00000000D+00
  <mgrwgt>
 0.2534497880D+00    6    2    0
 0.147540127978646D+03 0.000000000000000D+00 0.000000000000000D+00 0.147540127978646D+03
 0.147540127978646D+03 0.000000000000000D+00 0.000000000000000D+00 -.147540127978646D+03
 0.163057574267826D+03 -.965540587000690D+02 0.666097537612482D+01 0.399464351562188D+02
 0.132022681689467D+03 0.965540587000690D+02 -.666097537612482D+01 -.399464351562188D+02
 0.000000000000000D+00 -.000000000000000D+00 0.000000000000000D+00 -.000000000000000D+00
 0.147640087685978D+03 0.000000000000000D+00 0.000000000000000D+00 0.147640087685978D+03
 0.148556154994479D+03 0.000000000000000D+00 0.000000000000000D+00 -.148556154994479D+03
 0.162974807051602D+03 -.964365294950668D+02 0.632975755964812D+01 0.399464351562188D+02
 0.132106134679165D+03 0.966492727082001D+02 -.692930507231067D+01 -.399464351562188D+02
 0.111530094968958D+01 -.212743213133340D+00 0.599547512662554D+00 -.916067308501036D+00
0.615441621092D-03 0.000000000000D+00 0.000000000000D+00 0.226750292564D-02 0.000000000000D+00  5 2 -1 25 24 21 0 0.16254491D-01 0.31697151D-01 0.20153075D+05 0.20153075D+05 0.20153075D+05 0.12334617D+01  1  2  2  1  5  1        2 0.222723741407D+00 0.100000000000D+01
-.341294405334D-04 0.000000000000D+00 -.236345787449D-05 0.226750292564D-02 0.000000000000D+00  5 2 -1 25 24 21 2 0.16254491D-01 0.31697151D-01 0.20153075D+05 0.20153075D+05 0.20153075D+05 0.12334617D+01  1  2  3  1  5  1        2 -.187914430078D-01 0.100000000000D+01
0.424510416650D-04 0.000000000000D+00 0.000000000000D+00 0.226750292564D-02 0.000000000000D+00  5 2 -1 25 24 21 2 0.16254491D-01 0.31697151D-01 0.20153075D+05 0.20153075D+05 0.20153075D+05 0.12334617D+01  1  2 15  1  5  1        2 0.233732612548D-01 0.100000000000D+01
-.230093866013D-02 0.000000000000D+00 0.000000000000D+00 0.226750292564D-02 0.000000000000D+00  5 2 -1 25 24 21 2 0.16254491D-01 0.31697151D-01 0.20153075D+05 0.20153075D+05 0.20153075D+05 0.12334617D+01  1  2  4  1  5  1        2 -.126688152576D+01 0.100000000000D+01
0.230099766504D-02 0.000000000000D+00 0.000000000000D+00 0.226750292564D-02 0.454471481941D-01  5 2 -1 25 24 21 2 0.16265503D-01 0.31915432D-01 0.20243799D+05 0.20243799D+05 0.20243799D+05 0.12332472D+01  1  2 11  1  5  1        2 0.125098607022D+01 0.100000000000D+01
0.974423083263D-05 0.000000000000D+00 0.000000000000D+00 0.226750292564D-02 0.578720728449D-05  5 21 -1 25 24 -2 2 0.16265503D-01 0.31915432D-01 0.20243799D+05 0.20243799D+05 0.20243799D+05 0.12332472D+01  1  2 11  3  5  1        2 0.420396839266D-01 0.100000000000D+01
  </mgrwgt>
  </event>
  <event>
  4     66 0.48098993E-03 0.45097809E+02 0.75467711E-02 0.11773170E+00
        2 -1    0    0  501    0 0.00000000E+00 0.00000000E+00 0.15620364E+02 0.15623641E+02 0.32000000E+00 0.0000E+00 0.9000E+01
       -1 -1    0    0    0  501 0.00000000E+00 0.00000000E+00 -.75102951E+03 0.75102957E+03 0.32000000E+00 0.0000E+00 0.9000E+01
       25  1    1    2    0    0 0.27498463E+02 -.16140205E+02 -.40124151E+03 0.42146936E+03 0.12500000E+03 0.0000E+00 0.9000E+01
       24  1    1    2    0    0 -.27498463E+02 0.16140205E+02 -.33416763E+03 0.34518385E+03 0.80419002E+02 0.0000E+00 0.9000E+01
#aMCatNLO 1  0  0  2  1 0.10240482D+03 0.00000000D+00  -5  5  0 0.00000000D+00 0.00000000D+00 0.00000000D+00 0.00000000D+00 0.00000000D+00
  <mgrwgt>
 0.3220850062D+00    7    2    0
 0.108317295071648D+03 0.000000000000000D+00 0.000000000000000D+00 0.108317295071648D+03
 0.108317295071648D+03 0.000000000000000D+00 0.000000000000000D+00 -.108317295071648D+03
 0.129453772029395D+03 0.274984633253477D+02 -.161402050764439D+02 0.107984900552561D+02
 0.871808181139014D+02 -.274984633253477D+02 0.161402050764439D+02 -.107984900552561D+02
 0.000000000000000D+00 -.000000000000000D+00 -.000000000000000D+00 -.000000000000000D+00
 0.136477618047165D+03 0.000000000000000D+00 0.000000000000000D+00 0.136477618047165D+03
 0.277097316032057D+03 0.000000000000000D+00 0.000000000000000D+00 -.277097316032057D+03
 0.139891258499371D+03 0.459531682818679D+02 0.414278063856004D+02 0.107984900552561D+02
 0.997277995621340D+02 -.146920514666597D+02 0.560888071486833D+02 -.107984900552561D+02
 0.173955876017716D+03 -.312611168152083D+02 -.975166135342837D+02 -.140619697984892D+03
0.996979050346D-03 0.000000000000D+00 0.000000000000D+00 0.303385470862D-02 0.000000000000D+00  5 2 -1 25 24 21 0 0.24033902D-02 0.11554326D+00 0.11611363D+05 0.11611363D+05 0.11611363D+05 0.12607033D+01  1  2  2  2  5  2       -1 0.331328606384D+00 0.100000000000D+01
-.553859074810D-04 0.000000000000D+00 -.382866206394D-05 0.303385470862D-02 0.000000000000D+00  5 2 -1 25 24 21 2 0.24033902D-02 0.11554326D+00 0.11611363D+05 0.11611363D+05 0.11611363D+05 0.12607033D+01  1  2  3  2  5  2       -1 -.292548545414D-01 0.100000000000D+01
0.689663653590D-04 0.000000000000D+00 0.000000000000D+00 0.303385470862D-02 0.000000000000D+00  5 2 -1 25 24 21 2 0.24033902D-02 0.11554326D+00 0.11611363D+05 0.11611363D+05 0.11611363D+05 0.12607033D+01  1  2 15  2  5  2       -1 0.364280568576D-01 0.100000000000D+01
0.227952489621D-05 0.000000000000D+00 0.000000000000D+00 0.303385470862D-02 0.000000000000D+00  5 2 -1 25 24 21 2 0.24033902D-02 0.28830986D+00 0.29073682D+05 0.29073682D+05 0.29073682D+05 0.12163306D+01  1  2 12  2  5  2       -1 0.750832194328D-04 0.100000000000D+01
-.418879696528D-03 0.000000000000D+00 -.260311908918D-03 0.303385470862D-02 0.000000000000D+00  5 2 -1 25 24 21 2 0.24033902D-02 0.32335935D+00 0.11611363D+05 0.11611363D+05 0.11611363D+05 0.12607033D+01  1  2  5  2  5  2       -1 -.908028819526D-02 0.100000000000D+01
0.229371804865D-06 0.000000000000D+00 0.000000000000D+00 0.303385470862D-02 0.000000000000D+00  5 2 21 25 24 1 2 0.24033902D-02 0.28830986D+00 0.29073682D+05 0.29073682D+05 0.29073682D+05 0.12163306D+01  1  2 12  4  5  2       -1 0.694920099095D-04 0.100000000000D+01
-.338722430015D-04 0.000000000000D+00 -.300816413990D-04 0.303385470862D-02 0.000000000000D+00  5 2 21 25 24 1 2 0.24033902D-02 0.32335935D+00 0.11611363D+05 0.11611363D+05 0.11611363D+05 0.12607033D+01  1  2  5  4  5  2       -1 -.748108954332D-02 0.100000000000D+01
  </mgrwgt>
  </event>
  <event>
  4     66 0.48098993E-03 0.81534603E+02 0.75467711E-02 0.11589090E+00
        2 -1    0    0  501    0 0.00000000E+00 0.00000000E+00 0.15258829E+04 0.15258829E+04 0.32000000E+00 0.0000E+00 0.9000E+01
       -1 -1    0    0    0  501 0.00000000E+00 0.00000000E+00 -.11943822E+02 0.11948108E+02 0.32000000E+00 0.0000E+00 0.9000E+01
       25  1    1    2    0    0 -.56893193E+02 -.64762138E+02 0.88745955E+03 0.90035572E+03 0.12500000E+03 0.0000E+00 0.9000E+01
       24  1    1    2    0    0 0.56893193E+02 0.64762138E+02 0.62647949E+03 0.63747529E+03 0.80419002E+02 0.0000E+00 0.9000E+01
#aMCatNLO 1  0  0  2  1 0.93545085D+02 0.00000000D+00  -5  5  0 0.00000000D+00 0.00000000D+00 0.00000000D+00 0.00000000D+00 0.00000000D+00
  <mgrwgt>
 0.2557443256D+00    7    2    0
 0.135011832104151D+03 0.000000000000000D+00 0.000000000000000D+00 0.135011832104151D+03
 0.135011832104151D+03 0.000000000000000D+00 0.000000000000000D+00 -.135011832104151D+03
 0.151969205215281D+03 -.568931925859084D+02 -.647621379845302D+02 0.621847688905324D+01
 0.118054458993021D+03 0.568931925859084D+02 0.647621379845302D+02 -.621847688905324D+01
 0.000000000000000D+00 0.000000000000000D+00 0.000000000000000D+00 -.000000000000000D+00
 0.165265280980107D+03 0.000000000000000D+00 0.000000000000000D+00 0.165265280980107D+03
 0.240630083324357D+03 0.000000000000000D+00 0.000000000000000D+00 -.240630083324357D+03
 0.190281183152469D+03 -.872168832351091D+02 -.113738623544673D+03 0.621847688905324D+01
 0.954870134878993D+02 0.379732270508265D+02 0.342040693923165D+02 -.621847688905324D+01
 0.120127167664096D+03 0.492436561842826D+02 0.795345541523568D+02 -.753648023442502D+02
0.276071128976D-03 0.000000000000D+00 0.000000000000D+00 0.255166132700D-02 0.000000000000D+00  5 2 -1 25 24 21 0 0.23475154D+00 0.18378434D-02 0.18188904D+05 0.18188904D+05 0.18188904D+05 0.12383904D+01  1  2  2  2  5  2       -1 0.313582047549D+00 0.100000000000D+01
-.153372632362D-04 0.000000000000D+00 -.106018582646D-05 0.255166132700D-02 0.000000000000D+00  5 2 -1 25 24 21 2 0.23475154D+00 0.18378434D-02 0.18188904D+05 0.18188904D+05 0.18188904D+05 0.12383904D+01  1  2  3  2  5  2       -1 -.267173390629D-01 0.100000000000D+01
0.190617535502D-04 0.000000000000D+00 0.000000000000D+00 0.255166132700D-02 0.000000000000D+00  5 2 -1 25 24 21 2 0.23475154D+00 0.18378434D-02 0.18188904D+05 0.18188904D+05 0.18188904D+05 0.12383904D+01  1  2 15  2  5  2       -1 0.332053590585D-01 0.100000000000D+01
0.309716173338D-04 0.000000000000D+00 0.000000000000D+00 0.255166132700D-02 0.000000000000D+00  5 2 -1 25 24 21 2 0.23475154D+00 0.33462224D-02 0.35911945D+05 0.35911945D+05 0.35911945D+05 0.12067842D+01  1  2 12  2  5  2       -1 0.216375504838D-01 0.100000000000D+01
-.115940531792D-03 0.000000000000D+00 -.804529597489D-04 0.255166132700D-02 0.000000000000D+00  5 2 -1 25 24 21 2 0.23475154D+00 0.40957971D-02 0.18188904D+05 0.18188904D+05 0.18188904D+05 0.12383904D+01  1  2  5  2  5  2       -1 -.630269149329D-01 0.100000000000D+01
0.203055844440D-05 0.000000000000D+00 0.000000000000D+00 0.255166132700D-02 0.000000000000D+00  5 2 21 25 24 1 2 0.23475154D+00 0.33462224D-02 0.35911945D+05 0.35911945D+05 0.35911945D+05 0.12067842D+01  1  2 12  4  5  2       -1 0.265562806935D-01 0.100000000000D+01
-.500083456565D-05 0.000000000000D+00 -.699515840918D-05 0.255166132700D-02 0.000000000000D+00  5 2 21 25 24 1 2 0.23475154D+00 0.40957971D-02 0.18188904D+05 0.18188904D+05 0.18188904D+05 0.12383904D+01  1  2  5  4  5  2       -1 -.494926581753D-01 0.100000000000D+01
  </mgrwgt>
  </event>
  <event>
  4     66 0.48098993E-03 0.85454791E+02 0.75467711E-02 0.11829787E+00
        2 -1    0    0  501    0 0.00000000E+00 0.00000000E+00 0.18857307E+03 0.18857334E+03 0.32000000E+00 0.0000E+00 0.9000E+01
       -1 -1    0    0    0  501 0.00000000E+00 0.00000000E+00 -.35709981E+03 0.35709995E+03 0.32000000E+00 0.0000E+00 0.9000E+01
       25  1    1    2    0    0 0.72364697E+02 -.83151162E+02 -.30822347E+03 0.35039616E+03 0.12500000E+03 0.0000E+00 0.9000E+01
       24  1    1    2    0    0 -.72364697E+02 0.83151162E+02 0.13969673E+03 0.19527713E+03 0.80419002E+02 0.0000E+00 0.9000E+01
#aMCatNLO 1  0  0  1  2 0.26371510D+02 0.00000000D+00  -5  5  0 0.00000000D+00 0.00000000D+00 0.00000000D+00 0.00000000D+00 0.00000000D+00
  <mgrwgt>
 0.2759484384D+00    6    2    0
 0.259498592078565D+03 0.000000000000000D+00 0.000000000000000D+00 0.259498592078565D+03
 0.259498592078565D+03 0.000000000000000D+00 0.000000000000000D+00 -.259498592078565D+03
 0.268321167927895D+03 0.723646971569431D+02 -.831511622176624D+02 -.210286670964722D+03
 0.250676016229236D+03 -.723646971569431D+02 0.831511622176624D+02 0.210286670964722D+03
 0.000000000000000D+00 0.000000000000000D+00 0.000000000000000D+00 -.000000000000000D+00
 0.271067524166421D+03 0.000000000000000D+00 0.000000000000000D+00 0.271067524166421D+03
 0.275309773388205D+03 0.000000000000000D+00 0.000000000000000D+00 -.275309773388205D+03
 0.269857634904270D+03 0.641989671081143D+02 -.941071291292637D+02 -.210286670964722D+03
 0.249809117639464D+03 -.799585051536847D+02 0.729625436069740D+02 0.210286670964722D+03
 0.267105450108928D+02 0.157595380455705D+02 0.211445855222897D+02 -.424224922178368D+01
0.210799762304D-02 0.000000000000D+00 0.000000000000D+00 0.741749752579D-03 0.000000000000D+00  5 2 -1 25 24 21 0 0.29011273D-01 0.54938464D-01 0.22968668D+05 0.22968668D+05 0.22968668D+05 0.12272633D+01  1  2  2  1  5  1        2 0.150391479442D+00 0.100000000000D+01
-.759264768148D-04 0.000000000000D+00 -.809526592100D-05 0.741749752579D-03 0.000000000000D+00  5 2 -1 25 24 21 2 0.29011273D-01 0.54938464D-01 0.22968668D+05 0.22968668D+05 0.22968668D+05 0.12272633D+01  1  2  3  1  5  1        2 -.815871667019D-02 0.100000000000D+01
0.142897520387D-03 0.000000000000D+00 0.000000000000D+00 0.741749752579D-03 0.000000000000D+00  5 2 -1 25 24 21 2 0.29011273D-01 0.54938464D-01 0.22968668D+05 0.22968668D+05 0.22968668D+05 0.12272633D+01  1  2 15  1  5  1        2 0.153551228849D-01 0.100000000000D+01
0.385662161776D-02 0.000000000000D+00 0.000000000000D+00 0.741749752579D-03 0.000000000000D+00  5 2 -1 25 24 21 2 0.31143800D-01 0.54938464D-01 0.27281656D+05 0.27281656D+05 0.27281656D+05 0.12192518D+01  1  2 12  1  5  1        2 0.378826185244D+00 0.100000000000D+01
-.262770046746D-02 0.000000000000D+00 0.000000000000D+00 0.741749752579D-03 0.000000000000D+00  5 2 -1 25 24 21 2 0.29011273D-01 0.54938464D-01 0.22968668D+05 0.22968668D+05 0.22968668D+05 0.12272633D+01  1  2  4  1  5  1        2 -.282360837846D+00 0.100000000000D+01
0.462833467829D-04 0.000000000000D+00 0.000000000000D+00 0.741749752579D-03 0.000000000000D+00  5 21 -1 25 24 -2 2 0.31143800D-01 0.54938464D-01 0.27281656D+05 0.27281656D+05 0.27281656D+05 0.12192518D+01  1  2 12  3  5  1        2 0.218952053647D-01 0.100000000000D+01
  </mgrwgt>
  </event>
  <event>
  4     66 0.48098993E-03 0.11562318E+03 0.75467711E-02 0.11404140E+00
        2 -1    0    0  501    0 0.00000000E+00 0.00000000E+00 0.14649748E+04 0.14649749E+04 0.32000000E+00 0.0000E+00 0.9000E+01
       -1 -1    0    0    0  501 0.00000000E+00 0.00000000E+00 -.10175184E+02 0.10180214E+02 0.32000000E+00 0.0000E+00 0.9000E+01
       25  1    1    2    0    0 -.50238379E+02 0.13812774E+02 0.60507943E+03 0.62004904E+03 0.12500000E+03 0.0000E+00 0.9000E+01
       24  1    1    2    0    0 0.50238379E+02 -.13812774E+02 0.84972023E+03 0.85510606E+03 0.80419002E+02 0.0000E+00 0.9000E+01
#aMCatNLO 1  0  0  2  2 0.14926997D+03 0.00000000D+00  -5  5  0 0.00000000D+00 0.00000000D+00 0.00000000D+00 0.00000000D+00 0.00000000D+00
  <mgrwgt>
 0.4001015756D+00    3    2    0
 0.122107020166611D+03 0.000000000000000D+00 0.000000000000000D+00 0.122107020166611D+03
 0.122107020166611D+03 0.000000000000000D+00 0.000000000000000D+00 -.122107020166611D+03
 0.140856523743748D+03 -.502383792560989D+02 0.138127737848223D+02 -.387410997683688D+02
 0.103357516589475D+03 0.502383792560989D+02 -.138127737848223D+02 0.387410997683688D+02
 0.000000000000000D+00 0.000000000000000D+00 0.000000000000000D+00 0.000000000000000D+00
 0.249250488640264D+03 0.000000000000000D+00 0.000000000000000D+00 0.249250488640264D+03
 0.195591377374066D+03 0.000000000000000D+00 0.000000000000000D+00 -.195591377374066D+03
 0.195532556877743D+03 -.144861714333024D+03 0.110540358413782D+02 -.387410997683688D+02
 0.906876738243138D+02 -.434485227646636D+01 -.154041447905290D+02 0.387410997683688D+02
 0.158621635312274D+03 0.149206566609490D+03 0.435010894915078D+01 0.536591112661984D+02
0.256745365916D-03 0.000000000000D+00 0.000000000000D+00 0.250438508076D-02 0.000000000000D+00  5 2 -1 25 24 21 0 0.22538114D+00 0.15658025D-02 0.13368719D+05 0.13368719D+05 0.13368719D+05 0.12535634D+01  1  2  2  2  5  2       -1 0.391608975439D+00 0.100000000000D+01
-.142120036508D-04 0.000000000000D+00 -.985969807723D-06 0.250438508076D-02 0.000000000000D+00  5 2 -1 25 24 21 2 0.22538114D+00 0.15658025D-02 0.13368719D+05 0.13368719D+05 0.13368719D+05 0.12535634D+01  1  2  3  2  5  2       -1 -.340641783520D-01 0.100000000000D+01
0.177552232618D-04 0.000000000000D+00 0.000000000000D+00 0.250438508076D-02 0.000000000000D+00  5 2 -1 25 24 21 2 0.22538114D+00 0.15658025D-02 0.13368719D+05 0.13368719D+05 0.13368719D+05 0.12535634D+01  1  2 15  2  5  2       -1 0.425567785323D-01 0.100000000000D+01
  </mgrwgt>
  </event>
  <event>
  4     66 0.48098993E-03 0.16962730E+03 0.75467711E-02 0.11281622E+00
        2 -1    0    0  501    0 0.00000000E+00 0.00000000E+00 0.21020939E+03 0.21020963E+03 0.32000000E+00 0.0000E+00 0.9000E+01
       -1 -1    0    0    0  501 0.00000000E+00 0.00000000E+00 -.24891032E+03 0.24891053E+03 0.32000000E+00 0.0000E+00 0.9000E+01
       25  1    1    2    0    0 0.58821476E+02 0.12020613E+03 0.13354263E+03 0.22664535E+03 0.12500000E+03 0.0000E+00 0.9000E+01
       24  1    1    2    0    0 -.58821476E+02 -.12020613E+03 -.17224357E+03 0.23247482E+03 0.80419002E+02 0.0000E+00 0.9000E+01
#aMCatNLO 1  0  0  1  2 0.10338123D+03 0.00000000D+00  -5  5  0 0.00000000D+00 0.00000000D+00 0.00000000D+00 0.00000000D+00 0.00000000D+00
  <mgrwgt>
 0.2224068822D+00    4    2    0
 0.228743066461160D+03 0.000000000000000D+00 0.000000000000000D+00 0.228743066461160D+03
 0.228743066461160D+03 0.000000000000000D+00 0.000000000000000D+00 -.228743066461160D+03
 0.238751876987428D+03 0.588214756370751D+02 0.120206125152391D+03 0.153192624642130D+03
 0.218734255934891D+03 -.588214756370751D+02 -.120206125152391D+03 -.153192624642130D+03
 0.000000000000000D+00 -.000000000000000D+00 -.000000000000000D+00 -.000000000000000D+00
 0.260180468117140D+03 0.000000000000000D+00 0.000000000000000D+00 0.260180468117140D+03
 0.338599331708721D+03 0.000000000000000D+00 0.000000000000000D+00 -.338599331708721D+03
 0.259833972410531D+03 0.114332363407676D+03 0.123890369486523D+03 0.153192624642130D+03
 0.209187604880545D+03 -.111780809859918D+02 -.117044044453422D+03 -.153192624642130D+03
 0.129758222534784D+03 -.103154282421685D+03 -.684632503310114D+01 -.784188635915813D+02
0.230110427609D-02 0.000000000000D+00 0.000000000000D+00 0.119052171514D-02 0.000000000000D+00  5 2 -1 25 24 21 0 0.32339941D-01 0.38293930D-01 0.28773420D+05 0.28773420D+05 0.28773420D+05 0.12168058D+01  1  2  2  1  5  1        2 0.280229328631D+00 0.100000000000D+01
-.113943590916D-03 0.000000000000D+00 -.883684631485D-05 0.119052171514D-02 0.000000000000D+00  5 2 -1 25 24 21 2 0.32339941D-01 0.38293930D-01 0.28773420D+05 0.28773420D+05 0.28773420D+05 0.12168058D+01  1  2  3  1  5  1        2 -.205451696333D-01 0.100000000000D+01
0.156929669092D-03 0.000000000000D+00 0.000000000000D+00 0.119052171514D-02 0.000000000000D+00  5 2 -1 25 24 21 2 0.32339941D-01 0.38293930D-01 0.28773420D+05 0.28773420D+05 0.28773420D+05 0.12168058D+01  1  2 15  1  5  1        2 0.282959896740D-01 0.100000000000D+01
-.363669591765D-03 0.000000000000D+00 0.000000000000D+00 0.119052171514D-02 0.000000000000D+00  5 2 -1 25 24 21 2 0.32339941D-01 0.38293930D-01 0.28773420D+05 0.28773420D+05 0.28773420D+05 0.12168058D+01  1  2  4  1  5  1        2 -.655732665014D-01 0.100000000000D+01
  </mgrwgt>
  </event>
  <event>
  4     66 0.48098993E-03 0.10398328E+03 0.75467711E-02 0.12531209E+00
        2 -1    0    0  501    0 0.00000000E+00 0.00000000E+00 0.24192382E+03 0.24192403E+03 0.32000000E+00 0.0000E+00 0.9000E+01
       -1 -1    0    0    0  501 0.00000000E+00 0.00000000E+00 -.55747737E+02 0.55748656E+02 0.32000000E+00 0.0000E+00 0.9000E+01
       25  1    1    2    0    0 0.13653199E+02 0.80480840E+01 0.17396502E+03 0.21480226E+03 0.12500000E+03 0.0000E+00 0.9000E+01
       24  1    1    2    0    0 -.13653199E+02 -.80480840E+01 0.12211057E+02 0.82870425E+02 0.80419002E+02 0.0000E+00 0.9000E+01
#aMCatNLO 1  0  0  2  2 0.19422486D+02 0.00000000D+00  -5  5  0 0.00000000D+00 0.00000000D+00 0.00000000D+00 0.00000000D+00 0.00000000D+00
  <mgrwgt>
 0.4316275143D+00    4    2    0
 0.116133000029322D+03 0.000000000000000D+00 0.000000000000000D+00 0.116133000029322D+03
 0.116133000029322D+03 0.000000000000000D+00 0.000000000000000D+00 -.116133000029322D+03
 0.135847000449782D+03 0.136531991573009D+02 0.804808401493509D+01 0.507762348708792D+02
 0.964189996088613D+02 -.136531991573009D+02 -.804808401493509D+01 -.507762348708792D+02
 0.000000000000000D+00 -.000000000000000D+00 0.000000000000000D+00 0.000000000000000D+00
 0.203496192297230D+03 0.000000000000000D+00 0.000000000000000D+00 0.203496192297230D+03
 0.117622856148946D+03 0.000000000000000D+00 0.000000000000000D+00 -.117622856148946D+03
 0.136837629146861D+03 0.227968247729818D+02 0.127102444549325D+01 0.507762348708792D+02
 0.962390271918137D+02 -.719301520220621D+01 -.128362340697828D+02 -.507762348708792D+02
 0.880423921075018D+02 -.156038095707756D+02 0.115652096242896D+02 0.858733361482847D+02
0.388267644038D-03 0.000000000000D+00 0.000000000000D+00 0.239387193688D-02 0.000000000000D+00  5 2 -1 25 24 21 0 0.37219136D-01 0.85766619D-02 0.10812522D+05 0.10812522D+05 0.10812522D+05 0.12643627D+01  1  2  2  2  5  2       -1 0.436055752449D+00 0.100000000000D+01
-.212501578087D-04 0.000000000000D+00 -.149104998633D-05 0.239387193688D-02 0.000000000000D+00  5 2 -1 25 24 21 2 0.37219136D-01 0.85766619D-02 0.10812522D+05 0.10812522D+05 0.10812522D+05 0.12643627D+01  1  2  3  2  5  2       -1 -.381519137601D-01 0.100000000000D+01
0.267260662268D-04 0.000000000000D+00 0.000000000000D+00 0.239387193688D-02 0.000000000000D+00  5 2 -1 25 24 21 2 0.37219136D-01 0.85766619D-02 0.10812522D+05 0.10812522D+05 0.10812522D+05 0.12643627D+01  1  2 15  2  5  2       -1 0.479832000784D-01 0.100000000000D+01
-.794238387072D-05 0.000000000000D+00 0.000000000000D+00 0.239387193688D-02 0.000000000000D+00  5 2 -1 25 24 21 2 0.37219136D-01 0.85766619D-02 0.10812522D+05 0.10812522D+05 0.10812522D+05 0.12643627D+01  1  2  4  2  5  2       -1 -.142595244333D-01 0.100000000000D+01
  </mgrwgt>
  </event>
  <event>
  4     66 0.48098993E-03 0.42770873E+02 0.75467711E-02 0.12195351E+00
        2 -1    0    0  501    0 0.00000000E+00 0.00000000E+00 0.20871874E+04 0.20871874E+04 0.32000000E+00 0.0000E+00 0.9000E+01
       -1 -1    0    0    0  501 0.00000000E+00 0.00000000E+00 -.63835390E+01 0.63915546E+01 0.32000000E+00 0.0000E+00 0.9000E+01
       25  1    1    2    0    0 0.35592737E+02 -.13362474E+02 0.90063284E+03 0.91006039E+03 0.12500000E+03 0.0000E+00 0.9000E+01
       24  1    1    2    0    0 -.35592737E+02 0.13362474E+02 0.11801710E+04 0.11835185E+04 0.80419002E+02 0.0000E+00 0.9000E+01
#aMCatNLO 1  0  0  1  2 0.46498737D+02 0.00000000D+00  -5  5  0 0.00000000D+00 0.00000000D+00 0.00000000D+00 0.00000000D+00 0.00000000D+00
  <mgrwgt>
 0.6090078247D+00    9    2    0
 0.115464532037093D+03 0.000000000000000D+00 0.000000000000000D+00 0.115464532037093D+03
 0.115464532037093D+03 0.000000000000000D+00 0.000000000000000D+00 -.115464532037093D+03
 0.135292664287020D+03 0.355927374126645D+02 -.133624744186258D+02 -.351241559438072D+02
 0.956363997871665D+02 -.355927374126645D+02 0.133624744186258D+02 0.351241559438072D+02
 0.000000000000000D+00 0.000000000000000D+00 0.000000000000000D+00 0.000000000000000D+00
 0.149651621648888D+03 0.000000000000000D+00 0.000000000000000D+00 0.149651621648888D+03
 0.134742710664047D+03 0.000000000000000D+00 0.000000000000000D+00 -.134742710664047D+03
 0.138100525895314D+03 0.263235592278420D+02 -.389887054334432D+02 -.351241559438072D+02
 0.974634042460805D+02 -.421396323438980D+02 -.473753818143815D+01 0.351241559438072D+02
 0.488304021715395D+02 0.158160731160560D+02 0.437262436148813D+02 0.149089109848410D+02
0.260435116228D-03 0.000000000000D+00 0.000000000000D+00 0.264937371224D-02 0.000000000000D+00  5 2 -1 25 24 21 0 0.32110637D+00 0.98270139D-03 0.12056766D+05 0.12056766D+05 0.12056766D+05 0.12587840D+01  1  2  2  1  5  1        2 0.370750263798D+00 0.100000000000D+01
-.144241571188D-04 0.000000000000D+00 -.100013942046D-05 0.264937371224D-02 0.000000000000D+00  5 2 -1 25 24 21 2 0.32110637D+00 0.98270139D-03 0.12056766D+05 0.12056766D+05 0.12056766D+05 0.12587840D+01  1  2  3  1  5  1        2 -.325367953693D-01 0.100000000000D+01
0.180067101215D-04 0.000000000000D+00 0.000000000000D+00 0.264937371224D-02 0.000000000000D+00  5 2 -1 25 24 21 2 0.32110637D+00 0.98270139D-03 0.12056766D+05 0.12056766D+05 0.12056766D+05 0.12587840D+01  1  2 15  1  5  1        2 0.406180158514D-01 0.100000000000D+01
0.121180914339D-03 0.000000000000D+00 0.000000000000D+00 0.264937371224D-02 0.000000000000D+00  5 2 -1 25 24 21 2 0.43655842D+00 0.98270139D-03 0.18356482D+05 0.18356482D+05 0.18356482D+05 0.12379471D+01  1  2 12  1  5  1        2 0.106067799829D+00 0.100000000000D+01
-.148051158647D-03 0.000000000000D+00 0.000000000000D+00 0.264937371224D-02 0.000000000000D+00  5 2 -1 25 24 21 2 0.32110637D+00 0.98270139D-03 0.12056766D+05 0.12056766D+05 0.12056766D+05 0.12587840D+01  1  2  4  1  5  1        2 -.333961299325D+00 0.100000000000D+01
-.295636322329D-03 0.000000000000D+00 -.105620091233D-03 0.264937371224D-02 0.000000000000D+00  5 2 -1 25 24 21 2 0.44050177D+00 0.98270139D-03 0.12056766D+05 0.12056766D+05 0.12056766D+05 0.12587840D+01  1  2  5  1  5  1        2 -.258735941054D+00 0.100000000000D+01
0.318066659963D-03 0.000000000000D+00 0.100553167032D-03 0.264937371224D-02 0.000000000000D+00  5 2 -1 25 24 21 2 0.32110637D+00 0.98270139D-03 0.12056766D+05 0.12056766D+05 0.12056766D+05 0.12587840D+01  1  2  6  1  5  1        2 0.717467907744D+00 0.100000000000D+01
0.476462105325D-05 0.000000000000D+00 0.000000000000D+00 0.264937371224D-02 0.000000000000D+00  5 21 -1 25 24 -2 2 0.43655842D+00 0.98270139D-03 0.18356482D+05 0.18356482D+05 0.18356482D+05 0.12379471D+01  1  2 12  3  5  1        2 0.669599951131D-03 0.100000000000D+01
-.930154144881D-05 0.000000000000D+00 -.424011253771D-05 0.264937371224D-02 0.000000000000D+00  5 21 -1 25 24 -2 2 0.44050177D+00 0.98270139D-03 0.12056766D+05 0.12056766D+05 0.12056766D+05 0.12587840D+01  1  2  5  3  5  1        2 -.133172673632D-02 0.100000000000D+01
  </mgrwgt>
  </event>
  <event>
  5     66 0.48098993E-03 0.11964436E+03 0.75467711E-02 0.12174745E+00
        4 -1    0    0  501    0 0.00000000E+00 0.00000000E+00 0.67093215E+02 0.67111117E+02 0.15500000E+01 0.0000E+00 0.9000E+01
       21 -1    0    0  502  501 0.00000000E+00 0.00000000E+00 -.59678115E+03 0.59678162E+03 0.75000000E+00 0.0000E+00 0.9000E+01
       25  1    1    2    0    0 0.28459648E+02 0.58970853E+02 -.50597045E+03 0.52527956E+03 0.12500000E+03 0.0000E+00 0.9000E+01
       24  1    1    2    0    0 0.41481561E+01 -.59629694E+02 -.31582859E+02 0.10505999E+03 0.80419002E+02 0.0000E+00 0.9000E+01
        3  1    1    2  502    0 -.32607804E+02 0.65884084E+00 0.78653752E+01 0.33553198E+02 0.50000000E+00 0.0000E+00 0.9000E+01
#aMCatNLO 2  0  0  2  1 0.32614459D+02 0.00000000D+00  -5  5  0 0.00000000D+00 0.00000000D+00 0.00000000D+00 0.00000000D+00 0.00000000D+00
  <mgrwgt>
 0.1903006050D-01    1    2    0
 0.163783906401492D+03 0.000000000000000D+00 0.000000000000000D+00 0.163783906401492D+03
 0.163783906401492D+03 0.000000000000000D+00 0.000000000000000D+00 -.163783906401492D+03
 0.177762361682655D+03 0.107172137518003D+02 0.593293393174453D+02 -.111083878472749D+03
 0.149805451120329D+03 -.107172137518003D+02 -.593293393174453D+02 0.111083878472749D+03
 0.000000000000000D+00 -.000000000000000D+00 0.000000000000000D+00 0.000000000000000D+00
 0.238065107336890D+03 0.000000000000000D+00 0.000000000000000D+00 0.238065107336890D+03
 0.168213169736426D+03 0.000000000000000D+00 0.000000000000000D+00 -.168213169736426D+03
 0.179588811379157D+03 0.284596481284643D+02 0.589708533466645D+02 -.111083878472749D+03
 0.149598635149500D+03 0.414815609498799D+01 -.596296941857464D+02 0.111083878472749D+03
 0.770908305446591D+02 -.326078042234523D+02 0.658840839081898D+00 0.698519376004640D+02
0.413803098137D-04 0.000000000000D+00 0.000000000000D+00 0.132664937750D-02 0.659206730653D-07  5 4 21 25 24 3 2 0.10323398D-01 0.91813464D-01 0.18758943D+05 0.18758943D+05 0.18758943D+05 0.12369008D+01  1  2  1  4  5  2       -3 0.190300604993D-01 0.100000000000D+01
  </mgrwgt>
  </event>
  <event>
  4     66 0.48098993E-03 0.14993521E+03 0.75467711E-02 0.87027018E-01
        2 -1    0    0  501    0 0.00000000E+00 0.00000000E+00 0.47029743E+03 0.47029754E+03 0.32000000E+00 0.0000E+00 0.9000E+01
       -1 -1    0    0    0  501 0.00000000E+00 0.00000000E+00 -.12459634E+03 0.12459675E+03 0.32000000E+00 0.0000E+00 0.9000E+01
       25  1    1    2    0    0 -.39253274E+01 0.10794541E+03 0.41265974E+03 0.44450049E+03 0.12500000E+03 0.0000E+00 0.9000E+01
       24  1    1    2    0    0 0.39253274E+01 -.10794541E+03 -.66958648E+02 0.15039380E+03 0.80419002E+02 0.0000E+00 0.9000E+01
#aMCatNLO 1  0  0  2  2 0.17950182D+04 0.00000000D+00  -5  5  0 0.00000000D+00 0.00000000D+00 0.00000000D+00 0.00000000D+00 0.00000000D+00
  <mgrwgt>
 0.3072540059D+00    5    2    0
 0.242069189877746D+03 0.000000000000000D+00 0.000000000000000D+00 0.242069189877746D+03
 0.242069189877746D+03 0.000000000000000D+00 0.000000000000000D+00 -.242069189877746D+03
 0.251527006515062D+03 -.392532735557144D+01 0.107945409311729D+03 0.189666062910852D+03
 0.232611373240430D+03 0.392532735557144D+01 -.107945409311729D+03 -.189666062910852D+03
 0.000000000000000D+00 0.000000000000000D+00 -.000000000000000D+00 -.000000000000000D+00
 0.111119525958287D+04 0.000000000000000D+00 0.000000000000000D+00 0.111119525958287D+04
 0.536491933443736D+04 0.000000000000000D+00 0.000000000000000D+00 -.536491933443736D+04
 0.110388423596283D+04 -.990983986146754D+03 0.430015034839285D+03 0.189666062910852D+03
 0.755276944019388D+03 -.715490069913319D+03 0.126794284761678D+03 -.189666062910852D+03
 0.461695341403801D+04 0.170647405606007D+04 -.556809319600962D+03 -.425372407485449D+04
0.181356158324D-02 0.000000000000D+00 0.000000000000D+00 0.842162286026D-03 0.000000000000D+00  5 2 -1 25 24 21 0 0.72353491D-01 0.19168707D-01 0.22480568D+05 0.22480568D+05 0.22480568D+05 0.12282748D+01  1  2  2  2  5  2       -1 0.294748822491D+00 0.100000000000D+01
-.726441775087D-04 0.000000000000D+00 -.696455400137D-05 0.842162286026D-03 0.000000000000D+00  5 2 -1 25 24 21 2 0.72353491D-01 0.19168707D-01 0.22480568D+05 0.22480568D+05 0.22480568D+05 0.12282748D+01  1  2  3  2  5  2       -1 -.178119572944D-01 0.100000000000D+01
0.123416680890D-03 0.000000000000D+00 0.000000000000D+00 0.842162286026D-03 0.000000000000D+00  5 2 -1 25 24 21 2 0.72353491D-01 0.19168707D-01 0.22480568D+05 0.22480568D+05 0.22480568D+05 0.12282748D+01  1  2 15  2  5  2       -1 0.302610990283D-01 0.100000000000D+01
0.127198818069D-01 0.000000000000D+00 -.407094657685D-02 0.842162286026D-03 0.000000000000D+00  5 2 -1 25 24 21 2 0.72353491D-01 0.70949748D+00 0.22480568D+05 0.22480568D+05 0.22480568D+05 0.12282748D+01  1  2  5  2  5  2       -1 0.382871784633D-04 0.100000000000D+01
0.314159772133D-02 0.000000000000D+00 -.140624133773D-02 0.842162286026D-03 0.000000000000D+00  5 2 21 25 24 1 2 0.72353491D-01 0.70949748D+00 0.22480568D+05 0.22480568D+05 0.22480568D+05 0.12282748D+01  1  2  5  4  5  2       -1 0.177544493950D-04 0.100000000000D+01
  </mgrwgt>
  </event>
  <event>
  4     66 0.48098993E-03 0.48505721E+02 0.75467711E-02 0.12461306E+00
        2 -1    0    0  501    0 0.00000000E+00 0.00000000E+00 0.42006040E+03 0.42006052E+03 0.32000000E+00 0.0000E+00 0.9000E+01
       -1 -1    0    0    0  501 0.00000000E+00 0.00000000E+00 -.29884947E+02 0.29886660E+02 0.32000000E+00 0.0000E+00 0.9000E+01
       25  1    1    2    0    0 0.37547181E+02 -.15725542E+02 0.19778096E+03 0.23748556E+03 0.12500000E+03 0.0000E+00 0.9000E+01
       24  1    1    2    0    0 -.37547181E+02 0.15725542E+02 0.19239449E+03 0.21246162E+03 0.80419002E+02 0.0000E+00 0.9000E+01
#aMCatNLO 1  0  0  1  2 0.14288369D+02 0.00000000D+00  -5  5  0 0.00000000D+00 0.00000000D+00 0.00000000D+00 0.00000000D+00 0.00000000D+00
  <mgrwgt>
 0.5024503411D+00    9    2    0
 0.112044167934171D+03 0.000000000000000D+00 0.000000000000000D+00 0.112044167934171D+03
 0.112044167934171D+03 0.000000000000000D+00 0.000000000000000D+00 -.112044167934171D+03
 0.132477592124107D+03 0.375471813957466D+02 -.157255420898471D+02 -.163776955099481D+02
 0.916107437442343D+02 -.375471813957466D+02 0.157255420898471D+02 0.163776955099481D+02
 0.000000000000000D+00 0.000000000000000D+00 0.000000000000000D+00 0.000000000000000D+00
 0.121384269905460D+03 0.000000000000000D+00 0.000000000000000D+00 0.121384269905460D+03
 0.117872687570690D+03 0.000000000000000D+00 0.000000000000000D+00 -.117872687570690D+03
 0.130967036423946D+03 0.298816289592470D+02 -.191369791293360D+02 -.163776955099481D+02
 0.935763664010342D+02 -.429356439019141D+02 0.133274891469295D+02 0.163776955099481D+02
 0.147135546511686D+02 0.130540149426671D+02 0.580948998240645D+01 0.351158233477011D+01
0.148153388384D-03 0.000000000000D+00 0.000000000000D+00 0.290449147960D-02 0.000000000000D+00  5 2 -1 25 24 21 0 0.64624818D-01 0.45978253D-02 0.12276223D+05 0.12276223D+05 0.12276223D+05 0.12578674D+01  1  2  2  1  5  1        2 0.235820750610D+00 0.100000000000D+01
-.822949219812D-05 0.000000000000D+00 -.568948021077D-06 0.290449147960D-02 0.000000000000D+00  5 2 -1 25 24 21 2 0.64624818D-01 0.45978253D-02 0.12276223D+05 0.12276223D+05 0.12276223D+05 0.12578674D+01  1  2  3  1  5  1        2 -.207258906465D-01 0.100000000000D+01
0.102666319892D-04 0.000000000000D+00 0.000000000000D+00 0.290449147960D-02 0.000000000000D+00  5 2 -1 25 24 21 2 0.64624818D-01 0.45978253D-02 0.12276223D+05 0.12276223D+05 0.12276223D+05 0.12578674D+01  1  2 15  1  5  1        2 0.258564060567D-01 0.100000000000D+01
0.288398318187D-03 0.000000000000D+00 0.000000000000D+00 0.290449147960D-02 0.000000000000D+00  5 2 -1 25 24 21 2 0.71578269D-01 0.45978253D-02 0.13966435D+05 0.13966435D+05 0.13966435D+05 0.12513728D+01  1  2 12  1  5  1        2 0.647688413422D+00 0.100000000000D+01
-.259273500615D-03 0.000000000000D+00 0.000000000000D+00 0.290449147960D-02 0.000000000000D+00  5 2 -1 25 24 21 2 0.64624818D-01 0.45978253D-02 0.12276223D+05 0.12276223D+05 0.12276223D+05 0.12578674D+01  1  2  4  1  5  1        2 -.652977619020D+00 0.100000000000D+01
-.888051541181D-03 0.000000000000D+00 -.186463684939D-03 0.290449147960D-02 0.000000000000D+00  5 2 -1 25 24 21 2 0.73057388D-01 0.45978253D-02 0.12276223D+05 0.12276223D+05 0.12276223D+05 0.12578674D+01  1  2  5  1  5  1        2 -.196081822779D+01 0.100000000000D+01
0.905495509685D-03 0.000000000000D+00 0.185070006794D-03 0.290449147960D-02 0.000000000000D+00  5 2 -1 25 24 21 2 0.64624818D-01 0.45978253D-02 0.12276223D+05 0.12276223D+05 0.12276223D+05 0.12578674D+01  1  2  6  1  5  1        2 0.228048103853D+01 0.100000000000D+01
0.477272682003D-05 0.000000000000D+00 0.000000000000D+00 0.290449147960D-02 0.000000000000D+00  5 21 -1 25 24 -2 2 0.71578269D-01 0.45978253D-02 0.13966435D+05 0.13966435D+05 0.13966435D+05 0.12513728D+01  1  2 12  3  5  1        2 0.231041787649D-01 0.100000000000D+01
-.162633939962D-04 0.000000000000D+00 -.360330083816D-05 0.290449147960D-02 0.000000000000D+00  5 21 -1 25 24 -2 2 0.73057388D-01 0.45978253D-02 0.12276223D+05 0.12276223D+05 0.12276223D+05 0.12578674D+01  1  2  5  3  5  1        2 -.759787087984D-01 0.100000000000D+01
  </mgrwgt>
  </event>
  <event>
  4     66 0.48098993E-03 0.11719374E+03 0.75467711E-02 0.11220024E+00
        2 -1    0    0  501    0 0.00000000E+00 0.00000000E+00 0.38472334E+03 0.38472348E+03 0.32000000E+00 0.0000E+00 0.9000E+01
       -1 -1    0    0    0  501 0.00000000E+00 0.00000000E+00 -.45373895E+02 0.45375024E+02 0.32000000E+00 0.0000E+00 0.9000E+01
       25  1    1    2    0    0 0.33460792E+02 -.44161957E+02 0.93716017E+02 0.16576367E+03 0.12500000E+03 0.0000E+00 0.9000E+01
       24  1    1    2    0    0 -.33460792E+02 0.44161957E+02 0.24563343E+03 0.26433483E+03 0.80419002E+02 0.0000E+00 0.9000E+01
#aMCatNLO 1  0  0  1  2 0.17883642D+03 0.00000000D+00  -5  5  0 0.00000000D+00 0.00000000D+00 0.00000000D+00 0.00000000D+00 0.00000000D+00
  <mgrwgt>
 0.3346771587D+00    5    2    0
 0.132123684435377D+03 0.000000000000000D+00 0.000000000000000D+00 0.132123684435377D+03
 0.132123684435377D+03 0.000000000000000D+00 0.000000000000000D+00 -.132123684435377D+03
 0.149451735959154D+03 0.334607917487466D+02 -.441619571605254D+02 -.603400226756958D+02
 0.114795632911601D+03 -.334607917487466D+02 0.441619571605254D+02 0.603400226756958D+02
 0.000000000000000D+00 -.000000000000000D+00 -.000000000000000D+00 0.000000000000000D+00
 0.302070220448596D+03 0.000000000000000D+00 0.000000000000000D+00 0.302070220448596D+03
 0.215634519099809D+03 0.000000000000000D+00 0.000000000000000D+00 -.215634519099809D+03
 0.185392577612795D+03 0.122726465213664D+03 0.653484763189986D+01 -.603400226756958D+02
 0.133682865975501D+03 0.327807409447538D+02 0.817826227731954D+02 0.603400226756958D+02
 0.198629295960108D+03 -.155507206158418D+03 -.883174704050953D+02 0.864357013487872D+02
0.324833268196D-03 0.000000000000D+00 0.000000000000D+00 0.211200139543D-02 0.000000000000D+00  5 2 -1 25 24 21 0 0.59188304D-01 0.69806963D-02 0.13734373D+05 0.13734373D+05 0.13734373D+05 0.12522105D+01  1  2  2  1  5  1        2 0.307383243732D+00 0.100000000000D+01
-.177308063951D-04 0.000000000000D+00 -.124744528043D-05 0.211200139543D-02 0.000000000000D+00  5 2 -1 25 24 21 2 0.59188304D-01 0.69806963D-02 0.13734373D+05 0.13734373D+05 0.13734373D+05 0.12522105D+01  1  2  3  1  5  1        2 -.263089114665D-01 0.100000000000D+01
0.224520707223D-04 0.000000000000D+00 0.000000000000D+00 0.211200139543D-02 0.000000000000D+00  5 2 -1 25 24 21 2 0.59188304D-01 0.69806963D-02 0.13734373D+05 0.13734373D+05 0.13734373D+05 0.12522105D+01  1  2 15  1  5  1        2 0.333143077484D-01 0.100000000000D+01
0.500054236702D-04 0.000000000000D+00 -.121153398611D-03 0.211200139543D-02 0.000000000000D+00  5 2 -1 25 24 21 2 0.19282279D+00 0.69806963D-02 0.13734373D+05 0.13734373D+05 0.13734373D+05 0.12522105D+01  1  2  5  1  5  1        2 0.175551396703D-01 0.100000000000D+01
0.118098054996D-04 0.000000000000D+00 -.165323653976D-04 0.211200139543D-02 0.000000000000D+00  5 21 -1 25 24 -2 2 0.19282279D+00 0.69806963D-02 0.13734373D+05 0.13734373D+05 0.13734373D+05 0.12522105D+01  1  2  5  3  5  1        2 0.273337905045D-02 0.100000000000D+01
  </mgrwgt>
  </event>
</LesHouchesEvents>
