<event>
 5    0  0.2349231E+000  0.1174254E+04  0.7546771E-02  0.9135695E-01
         21   -1    0    0  503  501  0.00000000000E+00  0.00000000000E+00  0.34352694386E+03  0.34352694386E+03  0.00000000000E+00 0.  1.
         21   -1    0    0  504  502 -0.00000000000E+00 -0.00000000000E+00 -0.16934936801E+04  0.16934936801E+04  0.00000000000E+00 0. -1.
         25    1    1    2    0    0 -0.24820844946E+03 -0.24637127980E+03 -0.34655444701E+02  0.37300434547E+03  0.12500000000E+03 0.  0.
         21    1    1    2  503  502 -0.20864391073E+03  0.32612340019E+02  0.42620877022E+02  0.21543533917E+03  0.00000000000E+00 0.  1.
         21    1    1    2  504  501  0.45685236019E+03  0.21375893978E+03 -0.13579321685E+04  0.14485809393E+04  0.00000000000E+00 0. -1.
<mgrwt>
<rscale>  4 0.11742541E+04</rscale>
<asrwt>0</asrwt>
<pdfrwt beam="1">  1       21 0.52850299E-01 0.11742541E+04</pdfrwt>
<pdfrwt beam="2">  1       21 0.26053749E+00 0.11742541E+04</pdfrwt>
<totfact> 0.12091485E+02</totfact>
</mgrwt>
</event>
<event>
 5    0  0.2349231E+000  0.1024354E+04  0.7546771E-02  0.9282230E-01
         21   -1    0    0  504  501  0.00000000000E+00  0.00000000000E+00  0.68817243766E+03  0.68817243766E+03  0.00000000000E+00 0. -1.
         21   -1    0    0  503  502 -0.00000000000E+00 -0.00000000000E+00 -0.14783014843E+04  0.14783014843E+04  0.00000000000E+00 0.  1.
         25    1    1    2    0    0  0.33587803660E+03 -0.59900712237E+03 -0.88233496434E+03  0.11250615883E+04  0.12500000000E+03 0.  0.
         21    1    1    2  503  501 -0.13977513474E+03  0.29273576588E+03 -0.34444279980E+03  0.47315130693E+03  0.00000000000E+00 0. -1.
         21    1    1    2  504  502 -0.19610290186E+03  0.30627135649E+03  0.43664871755E+03  0.56826102670E+03  0.00000000000E+00 0. -1.
<mgrwt>
<rscale>  4 0.10243538E+04</rscale>
<asrwt>0</asrwt>
<pdfrwt beam="1">  1       21 0.10587268E+00 0.10243538E+04</pdfrwt>
<pdfrwt beam="2">  1       21 0.22743100E+00 0.10243538E+04</pdfrwt>
<totfact> 0.40333083E+01</totfact>
</mgrwt>
</event>
<event>
 5    0  0.2349231E+000  0.3985335E+03  0.7546771E-02  0.1044289E+00
         21   -1    0    0  502  501  0.00000000000E+00  0.00000000000E+00  0.74418535162E+02  0.74418535162E+02  0.00000000000E+00 0.  1.
         21   -1    0    0  504  502 -0.00000000000E+00 -0.00000000000E+00 -0.11084965549E+04  0.11084965549E+04  0.00000000000E+00 0. -1.
         25    1    1    2    0    0  0.21650777133E+03 -0.17643250332E+02 -0.43862898632E+03  0.50518044991E+03  0.12500000000E+03 0.  0.
         21    1    1    2  503  501 -0.10891678961E+03 -0.46075341693E+01 -0.47557989293E+02  0.11893636440E+03  0.00000000000E+00 0.  1.
         21    1    1    2  504  503 -0.10759098172E+03  0.22250784501E+02 -0.54789104408E+03  0.55879827572E+03  0.00000000000E+00 0. -1.
<mgrwt>
<rscale>  4 0.39853351E+03</rscale>
<asrwt>0</asrwt>
<pdfrwt beam="1">  1       21 0.11449005E-01 0.39853351E+03</pdfrwt>
<pdfrwt beam="2">  1       21 0.17053793E+00 0.39853351E+03</pdfrwt>
<totfact> 0.12107920E+04</totfact>
</mgrwt>
</event>
