<event>
 5    0  0.1911311E+001  0.5237624E+03  0.7546771E-02  0.1007756E+00
         21   -1    0    0  504  501  0.00000000000E+00  0.00000000000E+00  0.10467574937E+04  0.10467574937E+04  0.00000000000E+00 0.  1.
         21   -1    0    0  501  502 -0.00000000000E+00 -0.00000000000E+00 -0.37437547622E+03  0.37437547622E+03  0.00000000000E+00 0.  1.
         25    1    1    2    0    0 -0.16585104285E+03 -0.52246704227E+03  0.20558416932E+03  0.59863864672E+03  0.12500000000E+03 0.  0.
         21    1    1    2  503  502  0.15589251952E+03  0.46416004625E+03  0.53963421843E+03  0.72866461138E+03  0.00000000000E+00 0.  1.
         21    1    1    2  504  503  0.99585233340E+01  0.58306996018E+02 -0.72836370309E+02  0.93829711774E+02  0.00000000000E+00 0.  1.
<mgrwt>
<rscale>  4 0.52376245E+03</rscale>
<asrwt>0</asrwt>
<pdfrwt beam="1">  1       21 0.16103961E+00 0.52376245E+03</pdfrwt>
<pdfrwt beam="2">  1       21 0.57596228E-01 0.52376245E+03</pdfrwt>
<totfact> 0.56519694E+02</totfact>
</mgrwt>
</event>
<event>
 5    0  0.1911311E+001  0.3473538E+03  0.7546771E-02  0.1063706E+00
         21   -1    0    0  503  501  0.00000000000E+00  0.00000000000E+00  0.75747776203E+03  0.75747776203E+03  0.00000000000E+00 0. -1.
         21   -1    0    0  504  502 -0.00000000000E+00 -0.00000000000E+00 -0.22564794909E+03  0.22564794909E+03  0.00000000000E+00 0. -1.
         25    1    1    2    0    0 -0.33263218039E+03  0.12312933418E+03  0.28262722905E+03  0.47043400277E+03  0.12500000000E+03 0.  0.
         21    1    1    2  503  502  0.29197509175E+03 -0.10134013078E+03  0.56044706705E+02  0.31410234870E+03  0.00000000000E+00 0. -1.
         21    1    1    2  504  501  0.40657088639E+02 -0.21789203399E+02  0.19315787720E+03  0.19858935965E+03  0.00000000000E+00 0.  1.
<mgrwt>
<rscale>  4 0.34735378E+03</rscale>
<asrwt>0</asrwt>
<pdfrwt beam="1">  1       21 0.11653504E+00 0.34735378E+03</pdfrwt>
<pdfrwt beam="2">  1       21 0.34715070E-01 0.34735378E+03</pdfrwt>
<totfact> 0.41264664E+03</totfact>
</mgrwt>
</event>
<event>
 5    0  0.1911311E+001  0.2313032E+03  0.7546771E-02  0.1125726E+00
         21   -1    0    0  504  501  0.00000000000E+00  0.00000000000E+00  0.27079548128E+03  0.27079548128E+03  0.00000000000E+00 0.  1.
         21   -1    0    0  503  502 -0.00000000000E+00 -0.00000000000E+00 -0.26191763344E+03  0.26191763344E+03  0.00000000000E+00 0.  1.
         25    1    1    2    0    0 -0.80946333147E+02 -0.18625489747E+03  0.12163180431E+03  0.26769850859E+03  0.12500000000E+03 0.  0.
         21    1    1    2  503  501  0.40244811676E+02  0.80208495430E+01 -0.63617275076E+02  0.75704270568E+02  0.00000000000E+00 0.  1.
         21    1    1    2  504  502  0.40701521471E+02  0.17823404793E+03 -0.49136681403E+02  0.18931033556E+03  0.00000000000E+00 0.  1.
<mgrwt>
<rscale>  4 0.23130324E+03</rscale>
<asrwt>0</asrwt>
<pdfrwt beam="1">  1       21 0.41660843E-01 0.23130324E+03</pdfrwt>
<pdfrwt beam="2">  1       21 0.40295021E-01 0.23130324E+03</pdfrwt>
<totfact> 0.32273648E+04</totfact>
</mgrwt>
</event>
<event>
 5    0  0.1911311E+001  0.2493421E+03  0.7546771E-02  0.1113721E+00
         21   -1    0    0  503  501  0.00000000000E+00  0.00000000000E+00  0.38302712533E+03  0.38302712533E+03  0.00000000000E+00 0.  1.
         21   -1    0    0  504  502 -0.00000000000E+00 -0.00000000000E+00 -0.42389948878E+03  0.42389948878E+03  0.00000000000E+00 0.  1.
         25    1    1    2    0    0  0.22615265878E+03 -0.50142290837E+02 -0.25293843988E+03  0.36505085779E+03  0.12500000000E+03 0.  0.
         21    1    1    2  503  502 -0.14857098161E+02  0.16364547929E+02 -0.78199989216E+02  0.81263584145E+02  0.00000000000E+00 0.  1.
         21    1    1    2  504  501 -0.21129556062E+03  0.33777742908E+02  0.29026606565E+03  0.36061217218E+03  0.00000000000E+00 0.  1.
<mgrwt>
<rscale>  4 0.24934209E+03</rscale>
<asrwt>0</asrwt>
<pdfrwt beam="1">  1       21 0.58927250E-01 0.24934209E+03</pdfrwt>
<pdfrwt beam="2">  1       21 0.65215306E-01 0.24934209E+03</pdfrwt>
<totfact> 0.56046291E+03</totfact>
</mgrwt>
</event>
