<event>
 5    0  0.4557707E+000  0.3337211E+03  0.7546771E-02  0.1069502E+00
         21   -1    0    0  502  501  0.00000000000E+00  0.00000000000E+00  0.27549380802E+04  0.27549380802E+04  0.00000000000E+00 0.  1.
         21   -1    0    0  503  502 -0.00000000000E+00 -0.00000000000E+00 -0.41211457703E+02  0.41211457703E+02  0.00000000000E+00 0.  1.
         25    1    1    2    0    0  0.15777926889E+03 -0.26617750718E+03  0.10130150596E+04  0.10665689260E+04  0.12500000000E+03 0.  0.
         21    1    1    2  503  504 -0.18091519565E+02  0.69646307226E+02  0.46938177793E+03  0.47486541740E+03  0.00000000000E+00 0. -1.
         21    1    1    2  504  501 -0.13968774932E+03  0.19653119995E+03  0.12313297850E+04  0.12547151945E+04  0.00000000000E+00 0.  1.
<mgrwt>
<rscale>  4 0.33372109E+03</rscale>
<asrwt>0</asrwt>
<pdfrwt beam="1">  1       21 0.42383648E+00 0.33372109E+03</pdfrwt>
<pdfrwt beam="2">  1       21 0.63402264E-02 0.33372109E+03</pdfrwt>
<totfact> 0.93841238E+02</totfact>
</mgrwt>
</event>
<event>
 5    0  0.1856407E+000  0.2435318E+03  0.7546771E-02  0.1117462E+00
         21   -1    0    0  502  501  0.00000000000E+00  0.00000000000E+00  0.96342734761E+03  0.96342734761E+03  0.00000000000E+00 0.  1.
         21   -1    0    0  503  502 -0.00000000000E+00 -0.00000000000E+00 -0.28093875290E+03  0.28093875290E+03  0.00000000000E+00 0.  1.
         25    1    1    2    0    0  0.15303502700E+03  0.14556302580E+03  0.87830078549E+03  0.91194604214E+03  0.12500000000E+03 0.  0.
         21    1    1    2  503  504 -0.53821264675E+02  0.69006269832E+01  0.12686171550E+02  0.55725094280E+02  0.00000000000E+00 0.  1.
         21    1    1    2  504  501 -0.99213762329E+02 -0.15246365279E+03 -0.20849836233E+03  0.27669496409E+03  0.00000000000E+00 0.  1.
<mgrwt>
<rscale>  4 0.24353180E+03</rscale>
<asrwt>0</asrwt>
<pdfrwt beam="1">  1       21 0.14821959E+00 0.24353180E+03</pdfrwt>
<pdfrwt beam="2">  1       21 0.43221347E-01 0.24353180E+03</pdfrwt>
<totfact> 0.15164418E+03</totfact>
</mgrwt>
</event>
<event>
 5    0  0.1856407E+000  0.2516631E+03  0.7546771E-02  0.1112258E+00
         21   -1    0    0  502  501  0.00000000000E+00  0.00000000000E+00  0.66062841432E+02  0.66062841432E+02  0.00000000000E+00 0.  1.
         21   -1    0    0  503  502 -0.00000000000E+00 -0.00000000000E+00 -0.97034658821E+03  0.97034658821E+03  0.00000000000E+00 0.  1.
         25    1    1    2    0    0 -0.20113373047E+03  0.85173519752E+02 -0.62851648221E+03  0.67702826707E+03  0.12500000000E+03 0.  0.
         21    1    1    2  503  504  0.15495789009E+03 -0.55601834487E+02 -0.24864247372E+03  0.29820561940E+03  0.00000000000E+00 0.  1.
         21    1    1    2  504  501  0.46175840382E+02 -0.29571685264E+02 -0.27124790840E+02  0.61175543173E+02  0.00000000000E+00 0.  1.
<mgrwt>
<rscale>  4 0.25166308E+03</rscale>
<asrwt>0</asrwt>
<pdfrwt beam="1">  1       21 0.10163515E-01 0.25166308E+03</pdfrwt>
<pdfrwt beam="2">  1       21 0.14928408E+00 0.25166308E+03</pdfrwt>
<totfact> 0.23045826E+04</totfact>
</mgrwt>
</event>
<event>
 5    0  0.1856407E+000  0.3598685E+03  0.7546771E-02  0.1058927E+00
         21   -1    0    0  502  501  0.00000000000E+00  0.00000000000E+00  0.11271331223E+04  0.11271331223E+04  0.00000000000E+00 0.  1.
         21   -1    0    0  503  502 -0.00000000000E+00 -0.00000000000E+00 -0.16816696951E+03  0.16816696951E+03  0.00000000000E+00 0.  1.
         25    1    1    2    0    0 -0.24263397944E+03 -0.23002221252E+03  0.84584001484E+03  0.91806960353E+03  0.12500000000E+03 0.  0.
         21    1    1    2  503  504  0.77450822063E+02  0.37057450131E+02  0.86420095918E+02  0.12182084151E+03  0.00000000000E+00 0. -1.
         21    1    1    2  504  501  0.16518315738E+03  0.19296476239E+03  0.26706042081E+02  0.25540964682E+03  0.00000000000E+00 0.  1.
<mgrwt>
<rscale>  4 0.35913422E+03</rscale>
<asrwt>0</asrwt>
<pdfrwt beam="1">  1       21 0.17340509E+00 0.35986847E+03</pdfrwt>
<pdfrwt beam="2">  1       21 0.25871842E-01 0.35986847E+03</pdfrwt>
<totfact> 0.25512310E+03</totfact>
</mgrwt>
</event>
<event>
 5    0  0.1856407E+000  0.2163186E+03  0.7546771E-02  0.1136658E+00
         21   -1    0    0  502  501  0.00000000000E+00  0.00000000000E+00  0.39772297532E+03  0.39772297532E+03  0.00000000000E+00 0.  1.
         21   -1    0    0  503  502 -0.00000000000E+00 -0.00000000000E+00 -0.16257013631E+03  0.16257013631E+03  0.00000000000E+00 0.  1.
         25    1    1    2    0    0  0.19585973947E+03 -0.51369446411E+02  0.19912552763E+03  0.31028347253E+03  0.12500000000E+03 0.  0.
         21    1    1    2  503  504 -0.17017622148E+03 -0.12276502849E+02 -0.37949282587E+01  0.17066065850E+03  0.00000000000E+00 0.  1.
         21    1    1    2  504  501 -0.25683517992E+02  0.63645949260E+02  0.39822239638E+02  0.79348980607E+02  0.00000000000E+00 0.  1.
<mgrwt>
<rscale>  4 0.21631861E+03</rscale>
<asrwt>0</asrwt>
<pdfrwt beam="1">  1       21 0.61188150E-01 0.21631861E+03</pdfrwt>
<pdfrwt beam="2">  1       21 0.25010790E-01 0.21631861E+03</pdfrwt>
<totfact> 0.37140503E+04</totfact>
</mgrwt>
</event>
<event>
 5    0  0.1936054E+000  0.2186995E+03  0.7546771E-02  0.1134856E+00
         21   -1    0    0  502  501  0.00000000000E+00  0.00000000000E+00  0.56733750436E+02  0.56733750436E+02  0.00000000000E+00 0.  1.
         21   -1    0    0  503  502 -0.00000000000E+00 -0.00000000000E+00 -0.12653553552E+04  0.12653553552E+04  0.00000000000E+00 0.  1.
         25    1    1    2    0    0  0.21614935202E+03  0.77274532419E+02 -0.44769053405E+03  0.51840496720E+03  0.12500000000E+03 0.  0.
         21    1    1    2  503  504 -0.14103335547E+03 -0.44132109084E+02 -0.28822249074E+03  0.32389852512E+03  0.00000000000E+00 0.  1.
         21    1    1    2  504  501 -0.75115996555E+02 -0.33142423335E+02 -0.47270857995E+03  0.47978561329E+03  0.00000000000E+00 0.  1.
<mgrwt>
<rscale>  4 0.21869950E+03</rscale>
<asrwt>0</asrwt>
<pdfrwt beam="1">  1       21 0.87282693E-02 0.21869950E+03</pdfrwt>
<pdfrwt beam="2">  1       21 0.19467005E+00 0.21869950E+03</pdfrwt>
<totfact> 0.14689265E+04</totfact>
</mgrwt>
</event>
<event>
 5    0  0.1856407E+000  0.3992490E+03  0.7546771E-02  0.1044040E+00
         21   -1    0    0  502  501  0.00000000000E+00  0.00000000000E+00  0.19271620487E+03  0.19271620487E+03  0.00000000000E+00 0. -1.
         21   -1    0    0  503  502 -0.00000000000E+00 -0.00000000000E+00 -0.21348856533E+04  0.21348856533E+04  0.00000000000E+00 0. -1.
         25    1    1    2    0    0  0.34340849837E+03  0.16076502221E+03 -0.58041049872E+02  0.40344584840E+03  0.12500000000E+03 0.  0.
         21    1    1    2  503  504 -0.28379002741E+03 -0.92673041208E+02 -0.15108654306E+04  0.15400777323E+04  0.00000000000E+00 0. -1.
         21    1    1    2  504  501 -0.59618470958E+02 -0.68091981004E+02 -0.37326296801E+03  0.38407827750E+03  0.00000000000E+00 0. -1.
<mgrwt>
<rscale>  4 0.39924903E+03</rscale>
<asrwt>0</asrwt>
<pdfrwt beam="1">  1       21 0.29648646E-01 0.39924903E+03</pdfrwt>
<pdfrwt beam="2">  1       21 0.32844395E+00 0.39924903E+03</pdfrwt>
<totfact> 0.20478960E+02</totfact>
</mgrwt>
</event>
<event>
 5    0  0.1856407E+000  0.2614700E+03  0.7546771E-02  0.1106263E+00
         21   -1    0    0  502  501  0.00000000000E+00  0.00000000000E+00  0.69278348551E+03  0.69278348551E+03  0.00000000000E+00 0.  1.
         21   -1    0    0  503  502 -0.00000000000E+00 -0.00000000000E+00 -0.57458774440E+03  0.57458774440E+03  0.00000000000E+00 0. -1.
         25    1    1    2    0    0  0.96171332182E+02  0.22212278265E+03  0.62485858921E+03  0.68166026158E+03  0.12500000000E+03 0.  0.
         21    1    1    2  503  504 -0.64653621625E+02 -0.71026481716E+02 -0.36072704338E+03  0.37329459107E+03  0.00000000000E+00 0. -1.
         21    1    1    2  504  501 -0.31517710557E+02 -0.15109630093E+03 -0.14593580471E+03  0.21241637727E+03  0.00000000000E+00 0. -1.
<mgrwt>
<rscale>  4 0.26146999E+03</rscale>
<asrwt>0</asrwt>
<pdfrwt beam="1">  1       21 0.10658207E+00 0.26146999E+03</pdfrwt>
<pdfrwt beam="2">  1       21 0.88398115E-01 0.26146999E+03</pdfrwt>
<totfact> 0.72464265E+02</totfact>
</mgrwt>
</event>
<event>
 5    0  0.1856407E+000  0.2559811E+03  0.7546771E-02  0.1109582E+00
         21   -1    0    0  502  501  0.00000000000E+00  0.00000000000E+00  0.12281207183E+03  0.12281207183E+03  0.00000000000E+00 0. -1.
         21   -1    0    0  503  502 -0.00000000000E+00 -0.00000000000E+00 -0.16780143558E+04  0.16780143558E+04  0.00000000000E+00 0. -1.
         25    1    1    2    0    0 -0.22295857752E+03 -0.66658682662E+01 -0.35113598333E+02  0.25809480017E+03  0.12500000000E+03 0.  0.
         21    1    1    2  503  504 -0.20140709420E+01 -0.34563264496E+02 -0.19664247463E+03  0.19966706930E+03  0.00000000000E+00 0. -1.
         21    1    1    2  504  501  0.22497264846E+03  0.41229132762E+02 -0.13234462110E+04  0.13430645581E+04  0.00000000000E+00 0. -1.
<mgrwt>
<rscale>  4 0.25598114E+03</rscale>
<asrwt>0</asrwt>
<pdfrwt beam="1">  1       21 0.18894166E-01 0.25598114E+03</pdfrwt>
<pdfrwt beam="2">  1       21 0.25815605E+00 0.25598114E+03</pdfrwt>
<totfact> 0.14299828E+03</totfact>
</mgrwt>
</event>
<event>
 5    0  0.1856407E+000  0.3362741E+03  0.7546771E-02  0.1068394E+00
         21   -1    0    0  502  501  0.00000000000E+00  0.00000000000E+00  0.20613251088E+03  0.20613251088E+03  0.00000000000E+00 0. -1.
         21   -1    0    0  503  502 -0.00000000000E+00 -0.00000000000E+00 -0.88830025782E+03  0.88830025782E+03  0.00000000000E+00 0. -1.
         25    1    1    2    0    0 -0.25154852952E+03  0.18487451386E+03  0.24495132301E+01  0.33628298901E+03  0.12500000000E+03 0.  0.
         21    1    1    2  503  504  0.35002977478E+01 -0.36312086570E+02 -0.70930529794E+02  0.79761894237E+02  0.00000000000E+00 0.  1.
         21    1    1    2  504  501  0.24804823177E+03 -0.14856242729E+03 -0.61368673038E+03  0.67838788545E+03  0.00000000000E+00 0. -1.
<mgrwt>
<rscale>  4 0.33627407E+03</rscale>
<asrwt>0</asrwt>
<pdfrwt beam="1">  1       21 0.31712694E-01 0.33627407E+03</pdfrwt>
<pdfrwt beam="2">  1       21 0.13666158E+00 0.33627407E+03</pdfrwt>
<totfact> 0.33092626E+03</totfact>
</mgrwt>
</event>
<event>
 5    0  0.3960737E+000  0.2738690E+03  0.7546771E-02  0.1099085E+00
         21   -1    0    0  502  501  0.00000000000E+00  0.00000000000E+00  0.63885895601E+02  0.63885895601E+02  0.00000000000E+00 0. -1.
         21   -1    0    0  503  502 -0.00000000000E+00 -0.00000000000E+00 -0.11508045163E+04  0.11508045163E+04  0.00000000000E+00 0. -1.
         25    1    1    2    0    0  0.22714156697E+03 -0.88238101183E+02 -0.40828570085E+03  0.49163143458E+03  0.12500000000E+03 0.  0.
         21    1    1    2  503  504 -0.20318814110E+03  0.64489084092E+02 -0.61715579377E+03  0.65293608909E+03  0.00000000000E+00 0. -1.
         21    1    1    2  504  501 -0.23953425875E+02  0.23749017091E+02 -0.61477126109E+02  0.70122888265E+02  0.00000000000E+00 0. -1.
<mgrwt>
<rscale>  4 0.27386905E+03</rscale>
<asrwt>0</asrwt>
<pdfrwt beam="1">  1       21 0.98285999E-02 0.27386905E+03</pdfrwt>
<pdfrwt beam="2">  1       21 0.17704684E+00 0.27386905E+03</pdfrwt>
<totfact> 0.15133894E+04</totfact>
</mgrwt>
</event>
