<event>
 5    0  0.1200001E+000  0.2827418E+03  0.7546771E-02  0.1094201E+00
         21   -1    0    0  503  501  0.00000000000E+00  0.00000000000E+00  0.13613223049E+03  0.13613223049E+03  0.00000000000E+00 0.  1.
         21   -1    0    0  501  502 -0.00000000000E+00 -0.00000000000E+00 -0.28682090725E+04  0.28682090725E+04  0.00000000000E+00 0. -1.
         25    1    1    2    0    0 -0.39875166120E+02  0.22986283108E+03 -0.73976822556E+03  0.78569012819E+03  0.12500000000E+03 0.  0.
         21    1    1    2  503  504 -0.18659692419E+02  0.24343731561E+02  0.10284465874E+03  0.10732113127E+03  0.00000000000E+00 0.  1.
         21    1    1    2  504  502  0.58534858539E+02 -0.25420656264E+03 -0.20951532751E+04  0.21113300435E+04  0.00000000000E+00 0. -1.
<mgrwt>
<rscale>  4 0.28274185E+03</rscale>
<asrwt>0</asrwt>
<pdfrwt beam="1">  1       21 0.20943420E-01 0.28274185E+03</pdfrwt>
<pdfrwt beam="2">  1       21 0.44126293E+00 0.28274185E+03</pdfrwt>
<totfact> 0.87681337E+01</totfact>
</mgrwt>
</event>
<event>
 5    0  0.1200001E+000  0.2673907E+03  0.7546771E-02  0.1102782E+00
         21   -1    0    0  503  501  0.00000000000E+00  0.00000000000E+00  0.69367755565E+03  0.69367755565E+03  0.00000000000E+00 0.  1.
         21   -1    0    0  501  502 -0.00000000000E+00 -0.00000000000E+00 -0.24714998073E+03  0.24714998073E+03  0.00000000000E+00 0.  1.
         25    1    1    2    0    0 -0.24580866174E+03 -0.34070093427E+02 -0.19480349419E+02  0.27854470640E+03  0.12500000000E+03 0.  0.
         21    1    1    2  503  504  0.25745514793E+02 -0.12244348354E+02  0.43422980305E+03  0.43516465556E+03  0.00000000000E+00 0.  1.
         21    1    1    2  504  502  0.22006314694E+03  0.46314441781E+02  0.31778121292E+02  0.22711817442E+03  0.00000000000E+00 0.  1.
<mgrwt>
<rscale>  4 0.26739067E+03</rscale>
<asrwt>0</asrwt>
<pdfrwt beam="1">  1       21 0.10671962E+00 0.26739067E+03</pdfrwt>
<pdfrwt beam="2">  1       21 0.38023074E-01 0.26739067E+03</pdfrwt>
<totfact> 0.44467459E+03</totfact>
</mgrwt>
</event>
<event>
 5    0  0.1200001E+000  0.2707261E+03  0.7546771E-02  0.1100865E+00
         21   -1    0    0  503  501  0.00000000000E+00  0.00000000000E+00  0.19378488638E+04  0.19378488638E+04  0.00000000000E+00 0. -1.
         21   -1    0    0  504  502 -0.00000000000E+00 -0.00000000000E+00 -0.12829793327E+03  0.12829793327E+03  0.00000000000E+00 0. -1.
         25    1    1    2    0    0 -0.18958894175E+03  0.20879119545E+03  0.47141269181E+03  0.56337612314E+03  0.12500000000E+03 0.  0.
         21    1    1    2  503  502  0.11872695367E+03 -0.19500705750E+03  0.79034968002E+02  0.24159960300E+03  0.00000000000E+00 0. -1.
         21    1    1    2  504  501  0.70861988073E+02 -0.13784137950E+02  0.12591032707E+04  0.12611710709E+04  0.00000000000E+00 0. -1.
<mgrwt>
<rscale>  4 0.27072608E+03</rscale>
<asrwt>0</asrwt>
<pdfrwt beam="1">  1       21 0.29813057E+00 0.27072608E+03</pdfrwt>
<pdfrwt beam="2">  1       21 0.19738145E-01 0.27072608E+03</pdfrwt>
<totfact> 0.75613719E+02</totfact>
</mgrwt>
</event>
<event>
 5    0  0.1200001E+000  0.3364231E+03  0.7546771E-02  0.1068330E+00
         21   -1    0    0  503  501  0.00000000000E+00  0.00000000000E+00  0.35486284603E+03  0.35486284603E+03  0.00000000000E+00 0. -1.
         21   -1    0    0  504  502 -0.00000000000E+00 -0.00000000000E+00 -0.79653356522E+03  0.79653356522E+03  0.00000000000E+00 0. -1.
         25    1    1    2    0    0  0.17603779635E+03 -0.23667890971E+03 -0.36054004612E+03  0.48230730546E+03  0.12500000000E+03 0.  0.
         21    1    1    2  503  502 -0.17880573341E+03  0.28234613124E+03 -0.29780531891E+03  0.44763694675E+03  0.00000000000E+00 0. -1.
         21    1    1    2  504  501  0.27679370537E+01 -0.45667221536E+02  0.21667464583E+03  0.22145215904E+03  0.00000000000E+00 0.  1.
<mgrwt>
<rscale>  4 0.33642307E+03</rscale>
<asrwt>0</asrwt>
<pdfrwt beam="1">  1       21 0.54594284E-01 0.33642307E+03</pdfrwt>
<pdfrwt beam="2">  1       21 0.12254363E+00 0.33642307E+03</pdfrwt>
<totfact> 0.14299037E+03</totfact>
</mgrwt>
</event>
<event>
 5    0  0.1200001E+000  0.3161246E+03  0.7546771E-02  0.1077447E+00
         21   -1    0    0  503  501  0.00000000000E+00  0.00000000000E+00  0.25223069629E+03  0.25223069629E+03  0.00000000000E+00 0.  1.
         21   -1    0    0  501  502 -0.00000000000E+00 -0.00000000000E+00 -0.83697732909E+03  0.83697732909E+03  0.00000000000E+00 0.  1.
         25    1    1    2    0    0 -0.32136914053E+03 -0.57783401707E+02 -0.29284494256E+03  0.45607039630E+03  0.12500000000E+03 0.  0.
         21    1    1    2  503  504  0.57122164753E+02 -0.90431848886E+01  0.12345755609E+03  0.13633227444E+03  0.00000000000E+00 0.  1.
         21    1    1    2  504  502  0.26424697578E+03  0.66826586596E+02 -0.41535924633E+03  0.49680535464E+03  0.00000000000E+00 0.  1.
<mgrwt>
<rscale>  4 0.31612457E+03</rscale>
<asrwt>0</asrwt>
<pdfrwt beam="1">  1       21 0.38804722E-01 0.31612457E+03</pdfrwt>
<pdfrwt beam="2">  1       21 0.12876574E+00 0.31612457E+03</pdfrwt>
<totfact> 0.25991655E+03</totfact>
</mgrwt>
</event>
<event>
 5    0  0.1200001E+000  0.2579255E+03  0.7546771E-02  0.1108396E+00
         21   -1    0    0  503  501  0.00000000000E+00  0.00000000000E+00  0.30036084713E+03  0.30036084713E+03  0.00000000000E+00 0.  1.
         21   -1    0    0  504  502 -0.00000000000E+00 -0.00000000000E+00 -0.39064946174E+03  0.39064946174E+03  0.00000000000E+00 0. -1.
         25    1    1    2    0    0 -0.64716294462E+02 -0.21613037830E+03 -0.28871357735E+03  0.38714476484E+03  0.12500000000E+03 0.  0.
         21    1    1    2  503  502  0.35331992425E+02  0.18050334647E+03  0.15682897128E+03  0.24171291651E+03  0.00000000000E+00 0.  1.
         21    1    1    2  504  501  0.29384302036E+02  0.35627031830E+02  0.41595991468E+02  0.62152627534E+02  0.00000000000E+00 0. -1.
<mgrwt>
<rscale>  4 0.25792545E+03</rscale>
<asrwt>0</asrwt>
<pdfrwt beam="1">  1       21 0.46209361E-01 0.25792545E+03</pdfrwt>
<pdfrwt beam="2">  1       21 0.60099917E-01 0.25792545E+03</pdfrwt>
<totfact> 0.11140111E+04</totfact>
</mgrwt>
</event>
<event>
 5    0  0.1200001E+000  0.2475909E+03  0.7546771E-02  0.1114837E+00
         21   -1    0    0  503  501  0.00000000000E+00  0.00000000000E+00  0.12459130422E+04  0.12459130422E+04  0.00000000000E+00 0.  1.
         21   -1    0    0  504  502 -0.00000000000E+00 -0.00000000000E+00 -0.94271609417E+02  0.94271609417E+02  0.00000000000E+00 0.  1.
         25    1    1    2    0    0 -0.34166657488E+02 -0.20212052665E+03  0.22376343670E+03  0.32819985280E+03  0.12500000000E+03 0.  0.
         21    1    1    2  503  502  0.48435350162E+02  0.21796405548E+03  0.25568677195E+03  0.33945550220E+03  0.00000000000E+00 0.  1.
         21    1    1    2  504  501 -0.14268692674E+02 -0.15843528827E+02  0.67219122415E+03  0.67252929663E+03  0.00000000000E+00 0.  1.
<mgrwt>
<rscale>  4 0.24759089E+03</rscale>
<asrwt>0</asrwt>
<pdfrwt beam="1">  1       21 0.19167892E+00 0.24759089E+03</pdfrwt>
<pdfrwt beam="2">  1       21 0.14503325E-01 0.24759089E+03</pdfrwt>
<totfact> 0.60692783E+03</totfact>
</mgrwt>
</event>
<event>
 5    0  0.1200001E+000  0.2477656E+03  0.7546771E-02  0.1114725E+00
         21   -1    0    0  503  501  0.00000000000E+00  0.00000000000E+00  0.15033100269E+03  0.15033100269E+03  0.00000000000E+00 0.  1.
         21   -1    0    0  501  502 -0.00000000000E+00 -0.00000000000E+00 -0.17179524146E+04  0.17179524146E+04  0.00000000000E+00 0.  1.
         25    1    1    2    0    0 -0.14053516419E+03  0.16128443338E+03 -0.16140333548E+04  0.16329395185E+04  0.12500000000E+03 0.  0.
         21    1    1    2  503  504  0.40568604634E+02 -0.62530671295E+02  0.57859910930E+02  0.94359238166E+02  0.00000000000E+00 0.  1.
         21    1    1    2  504  502  0.99966559560E+02 -0.98753762089E+02 -0.11447968085E+02  0.14098466062E+03  0.00000000000E+00 0.  1.
<mgrwt>
<rscale>  4 0.24776562E+03</rscale>
<asrwt>0</asrwt>
<pdfrwt beam="1">  1       21 0.23127846E-01 0.24776562E+03</pdfrwt>
<pdfrwt beam="2">  1       21 0.26430038E+00 0.24776562E+03</pdfrwt>
<totfact> 0.90502464E+02</totfact>
</mgrwt>
</event>
<event>
 5    0  0.1200001E+000  0.2591302E+03  0.7546771E-02  0.1107667E+00
         21   -1    0    0  503  501  0.00000000000E+00  0.00000000000E+00  0.45794567162E+03  0.45794567162E+03  0.00000000000E+00 0.  1.
         21   -1    0    0  504  502 -0.00000000000E+00 -0.00000000000E+00 -0.91064634218E+03  0.91064634218E+03  0.00000000000E+00 0.  1.
         25    1    1    2    0    0  0.17066599980E+03 -0.12797524199E+03 -0.78255561819E+03  0.82068437393E+03  0.12500000000E+03 0.  0.
         21    1    1    2  503  502 -0.22453283780E+03  0.41815440021E+02  0.37311614367E+03  0.43746906513E+03  0.00000000000E+00 0.  1.
         21    1    1    2  504  501  0.53866837998E+02  0.86159801966E+02 -0.43261196044E+02  0.11043857475E+03  0.00000000000E+00 0.  1.
<mgrwt>
<rscale>  4 0.25913024E+03</rscale>
<asrwt>0</asrwt>
<pdfrwt beam="1">  1       21 0.70453181E-01 0.25913024E+03</pdfrwt>
<pdfrwt beam="2">  1       21 0.14009944E+00 0.25913024E+03</pdfrwt>
<totfact> 0.61212373E+02</totfact>
</mgrwt>
</event>
<event>
 5    0  0.1200001E+000  0.2375965E+03  0.7546771E-02  0.1121404E+00
         21   -1    0    0  503  501  0.00000000000E+00  0.00000000000E+00  0.73754777366E+03  0.73754777366E+03  0.00000000000E+00 0. -1.
         21   -1    0    0  501  502 -0.00000000000E+00 -0.00000000000E+00 -0.47622107736E+03  0.47622107736E+03  0.00000000000E+00 0.  1.
         25    1    1    2    0    0  0.13958103507E+03  0.14909783814E+03 -0.42414160021E+03  0.48706686165E+03  0.12500000000E+03 0.  0.
         21    1    1    2  503  504 -0.32030285972E+02 -0.10208393426E+02  0.31398448247E+03  0.31577904577E+03  0.00000000000E+00 0. -1.
         21    1    1    2  504  502 -0.10755074910E+03 -0.13888944472E+03  0.37148381404E+03  0.41092294360E+03  0.00000000000E+00 0. -1.
<mgrwt>
<rscale>  4 0.23759649E+03</rscale>
<asrwt>0</asrwt>
<pdfrwt beam="1">  1       21 0.11346889E+00 0.23759649E+03</pdfrwt>
<pdfrwt beam="2">  1       21 0.73264781E-01 0.23759649E+03</pdfrwt>
<totfact> 0.97283884E+02</totfact>
</mgrwt>
</event>
<event>
 5    0  0.1200001E+000  0.4318265E+03  0.7546771E-02  0.1033285E+00
         21   -1    0    0  502  501  0.00000000000E+00  0.00000000000E+00  0.84031859534E+03  0.84031859534E+03  0.00000000000E+00 0. -1.
         21   -1    0    0  504  502 -0.00000000000E+00 -0.00000000000E+00 -0.69743750254E+03  0.69743750254E+03  0.00000000000E+00 0. -1.
         25    1    1    2    0    0 -0.14960810874E+03 -0.39085489595E+03 -0.55271774194E+03  0.70446578209E+03  0.12500000000E+03 0.  0.
         21    1    1    2  503  501  0.82438378564E+02  0.35993821794E+03  0.64652507594E+03  0.74454434442E+03  0.00000000000E+00 0. -1.
         21    1    1    2  504  503  0.67169730174E+02  0.30916678008E+02  0.49073758804E+02  0.88745971367E+02  0.00000000000E+00 0.  1.
<mgrwt>
<rscale>  4 0.43182648E+03</rscale>
<asrwt>0</asrwt>
<pdfrwt beam="1">  1       21 0.12927979E+00 0.43182648E+03</pdfrwt>
<pdfrwt beam="2">  1       21 0.10729808E+00 0.43182648E+03</pdfrwt>
<totfact> 0.25225981E+02</totfact>
</mgrwt>
</event>
<event>
 5    0  0.1200001E+000  0.2437078E+03  0.7546771E-02  0.1117347E+00
         21   -1    0    0  503  501  0.00000000000E+00  0.00000000000E+00  0.14585752909E+03  0.14585752909E+03  0.00000000000E+00 0.  1.
         21   -1    0    0  504  502 -0.00000000000E+00 -0.00000000000E+00 -0.64648332226E+03  0.64648332226E+03  0.00000000000E+00 0.  1.
         25    1    1    2    0    0  0.15706612865E+01 -0.20468380708E+03 -0.17324216785E+03  0.29586445643E+03  0.12500000000E+03 0.  0.
         21    1    1    2  503  502 -0.27882556241E+02  0.20988034092E+03 -0.38136727545E+03  0.43619742461E+03  0.00000000000E+00 0.  1.
         21    1    1    2  504  501  0.26311894955E+02 -0.51965338377E+01  0.53983650135E+02  0.60278970313E+02  0.00000000000E+00 0. -1.
<mgrwt>
<rscale>  4 0.24370784E+03</rscale>
<asrwt>0</asrwt>
<pdfrwt beam="1">  1       21 0.22439620E-01 0.24370784E+03</pdfrwt>
<pdfrwt beam="2">  1       21 0.99458973E-01 0.24370784E+03</pdfrwt>
<totfact> 0.14995417E+04</totfact>
</mgrwt>
</event>
<event>
 5    0  0.1200001E+000  0.3013139E+03  0.7546771E-02  0.1084586E+00
         21   -1    0    0  503  501  0.00000000000E+00  0.00000000000E+00  0.60963606877E+03  0.60963606877E+03  0.00000000000E+00 0.  1.
         21   -1    0    0  504  502 -0.00000000000E+00 -0.00000000000E+00 -0.27694827166E+03  0.27694827166E+03  0.00000000000E+00 0.  1.
         25    1    1    2    0    0 -0.67667971224E+02  0.26379427988E+03 -0.10997704997E+03  0.31919637834E+03  0.12500000000E+03 0.  0.
         21    1    1    2  503  502  0.10531961203E+03 -0.26132952589E+03  0.26856444505E+03  0.38924568453E+03  0.00000000000E+00 0.  1.
         21    1    1    2  504  501 -0.37651640805E+02 -0.24647539900E+01  0.17410040203E+03  0.17814227756E+03  0.00000000000E+00 0.  1.
<mgrwt>
<rscale>  4 0.30131394E+03</rscale>
<asrwt>0</asrwt>
<pdfrwt beam="1">  1       21 0.93790164E-01 0.30131394E+03</pdfrwt>
<pdfrwt beam="2">  1       21 0.42607427E-01 0.30131394E+03</pdfrwt>
<totfact> 0.47160472E+03</totfact>
</mgrwt>
</event>
<event>
 5    0  0.1200001E+000  0.3017238E+03  0.7546771E-02  0.1084382E+00
         21   -1    0    0  502  501  0.00000000000E+00  0.00000000000E+00  0.27007086482E+03  0.27007086482E+03  0.00000000000E+00 0.  1.
         21   -1    0    0  503  502 -0.00000000000E+00 -0.00000000000E+00 -0.59533323691E+03  0.59533323691E+03  0.00000000000E+00 0.  1.
         25    1    1    2    0    0 -0.15642880025E+03 -0.22570394159E+03 -0.45674867337E+03  0.54740897820E+03  0.12500000000E+03 0.  0.
         21    1    1    2  503  504  0.42305414108E+02  0.10333207081E+02  0.34933158381E+02  0.55828745158E+02  0.00000000000E+00 0.  1.
         21    1    1    2  504  501  0.11412338614E+03  0.21537073451E+03  0.96553142894E+02  0.26216637837E+03  0.00000000000E+00 0.  1.
<mgrwt>
<rscale>  4 0.30172378E+03</rscale>
<asrwt>0</asrwt>
<pdfrwt beam="1">  1       21 0.41549364E-01 0.30172378E+03</pdfrwt>
<pdfrwt beam="2">  1       21 0.91589728E-01 0.30172378E+03</pdfrwt>
<totfact> 0.52512919E+03</totfact>
</mgrwt>
</event>
<event>
 5    0  0.1200001E+000  0.2480749E+03  0.7546771E-02  0.1114528E+00
         21   -1    0    0  503  501  0.00000000000E+00  0.00000000000E+00  0.85419959877E+02  0.85419959877E+02  0.00000000000E+00 0. -1.
         21   -1    0    0  501  502 -0.00000000000E+00 -0.00000000000E+00 -0.20896672676E+04  0.20896672676E+04  0.00000000000E+00 0. -1.
         25    1    1    2    0    0 -0.14775256618E+03  0.14805743848E+03 -0.15440482671E+04  0.15631576622E+04  0.12500000000E+03 0.  0.
         21    1    1    2  503  504 -0.32411293133E+02 -0.72321088126E+01  0.45850106322E+02  0.56612962917E+02  0.00000000000E+00 0. -1.
         21    1    1    2  504  502  0.18016385932E+03 -0.14082532966E+03 -0.50604914690E+03  0.55531660227E+03  0.00000000000E+00 0. -1.
<mgrwt>
<rscale>  4 0.24807490E+03</rscale>
<asrwt>0</asrwt>
<pdfrwt beam="1">  1       21 0.13141534E-01 0.24807490E+03</pdfrwt>
<pdfrwt beam="2">  1       21 0.32148723E+00 0.24807490E+03</pdfrwt>
<totfact> 0.11957376E+03</totfact>
</mgrwt>
</event>
<event>
 5    0  0.1200001E+000  0.2477311E+03  0.7546771E-02  0.1114747E+00
         21   -1    0    0  503  501  0.00000000000E+00  0.00000000000E+00  0.93390997218E+03  0.93390997218E+03  0.00000000000E+00 0.  1.
         21   -1    0    0  501  502 -0.00000000000E+00 -0.00000000000E+00 -0.12739512166E+03  0.12739512166E+03  0.00000000000E+00 0.  1.
         25    1    1    2    0    0  0.10110686441E+03  0.19021366459E+03  0.33133787982E+02  0.25125024206E+03  0.12500000000E+03 0.  0.
         21    1    1    2  503  504  0.12839226308E+02 -0.16181206642E+02  0.18174610403E+03  0.18291616525E+03  0.00000000000E+00 0. -1.
         21    1    1    2  504  502 -0.11394609072E+03 -0.17403245795E+03  0.59163495851E+03  0.62713868653E+03  0.00000000000E+00 0.  1.
<mgrwt>
<rscale>  4 0.24773107E+03</rscale>
<asrwt>0</asrwt>
<pdfrwt beam="1">  1       21 0.14367845E+00 0.24773107E+03</pdfrwt>
<pdfrwt beam="2">  1       21 0.19599250E-01 0.24773107E+03</pdfrwt>
<totfact> 0.77134810E+03</totfact>
</mgrwt>
</event>
<event>
 5    0  0.1200001E+000  0.2694683E+03  0.7546771E-02  0.1101584E+00
         21   -1    0    0  503  501  0.00000000000E+00  0.00000000000E+00  0.12690066837E+04  0.12690066837E+04  0.00000000000E+00 0.  1.
         21   -1    0    0  504  502 -0.00000000000E+00 -0.00000000000E+00 -0.15293156450E+03  0.15293156450E+03  0.00000000000E+00 0.  1.
         25    1    1    2    0    0 -0.22163426612E+03 -0.70216067712E+02  0.12313001720E+02  0.26425111938E+03  0.12500000000E+03 0.  0.
         21    1    1    2  503  502  0.26381826106E+03  0.63406349721E+02  0.68545906401E+03  0.73720727648E+03  0.00000000000E+00 0.  1.
         21    1    1    2  504  501 -0.42183994938E+02  0.68097179912E+01  0.41830305346E+03  0.42047985234E+03  0.00000000000E+00 0.  1.
<mgrwt>
<rscale>  4 0.26946829E+03</rscale>
<asrwt>0</asrwt>
<pdfrwt beam="1">  1       21 0.19523179E+00 0.26946829E+03</pdfrwt>
<pdfrwt beam="2">  1       21 0.23527934E-01 0.26946829E+03</pdfrwt>
<totfact> 0.22927946E+03</totfact>
</mgrwt>
</event>
<event>
 5    0  0.1941972E+000  0.2438199E+03  0.7546771E-02  0.1117274E+00
         21   -1    0    0  502  501  0.00000000000E+00  0.00000000000E+00  0.10528781085E+03  0.10528781085E+03  0.00000000000E+00 0. -1.
         21   -1    0    0  504  502 -0.00000000000E+00 -0.00000000000E+00 -0.53843715637E+03  0.53843715637E+03  0.00000000000E+00 0. -1.
         25    1    1    2    0    0 -0.26872482601E+01  0.21168918706E+03 -0.25605040889E+03  0.35497372454E+03  0.12500000000E+03 0.  0.
         21    1    1    2  503  501  0.22527900340E+02 -0.20618949082E+03 -0.16295006456E+03  0.26376947503E+03  0.00000000000E+00 0. -1.
         21    1    1    2  504  503 -0.19840652080E+02 -0.54996962409E+01 -0.14148872075E+02  0.24981767645E+02  0.00000000000E+00 0.  1.
<mgrwt>
<rscale>  4 0.24381990E+03</rscale>
<asrwt>0</asrwt>
<pdfrwt beam="1">  1       21 0.16198125E-01 0.24381990E+03</pdfrwt>
<pdfrwt beam="2">  1       21 0.82836486E-01 0.24381990E+03</pdfrwt>
<totfact> 0.42272444E+04</totfact>
</mgrwt>
</event>
<event>
 5    0  0.1200001E+000  0.2651681E+03  0.7546771E-02  0.1104077E+00
         21   -1    0    0  502  501  0.00000000000E+00  0.00000000000E+00  0.88975798743E+03  0.88975798743E+03  0.00000000000E+00 0.  1.
         21   -1    0    0  503  502 -0.00000000000E+00 -0.00000000000E+00 -0.28618598209E+03  0.28618598209E+03  0.00000000000E+00 0. -1.
         25    1    1    2    0    0 -0.20053503302E+03  0.11100235770E+03 -0.17175391538E+03  0.31250636846E+03  0.12500000000E+03 0.  0.
         21    1    1    2  503  504 -0.71690108454E+02 -0.21132011623E+02  0.71350071886E+02  0.10332892298E+03  0.00000000000E+00 0.  1.
         21    1    1    2  504  501  0.27222514147E+03 -0.89870346076E+02  0.70397584884E+03  0.76010867808E+03  0.00000000000E+00 0.  1.
<mgrwt>
<rscale>  4 0.26516805E+03</rscale>
<asrwt>0</asrwt>
<pdfrwt beam="1">  1       21 0.13688584E+00 0.26516805E+03</pdfrwt>
<pdfrwt beam="2">  1       21 0.44028613E-01 0.26516805E+03</pdfrwt>
<totfact> 0.17695712E+03</totfact>
</mgrwt>
</event>
<event>
 5    0  0.1200001E+000  0.3111883E+03  0.7546771E-02  0.1079778E+00
         21   -1    0    0  503  501  0.00000000000E+00  0.00000000000E+00  0.93073966714E+03  0.93073966714E+03  0.00000000000E+00 0.  1.
         21   -1    0    0  501  502 -0.00000000000E+00 -0.00000000000E+00 -0.11890342984E+04  0.11890342984E+04  0.00000000000E+00 0.  1.
         25    1    1    2    0    0  0.37285069197E+02 -0.27492501597E+03 -0.99567566343E+03  0.10411383038E+04  0.12500000000E+03 0.  0.
         21    1    1    2  503  504 -0.71463075624E+02 -0.79804154308E+02  0.71346477075E+03  0.72146216348E+03  0.00000000000E+00 0.  1.
         21    1    1    2  504  502  0.34178006427E+02  0.35472917028E+03  0.23916261383E+02  0.35717349835E+03  0.00000000000E+00 0. -1.
<mgrwt>
<rscale>  4 0.31118830E+03</rscale>
<asrwt>0</asrwt>
<pdfrwt beam="1">  1       21 0.14319072E+00 0.31118830E+03</pdfrwt>
<pdfrwt beam="2">  1       21 0.18292835E+00 0.31118830E+03</pdfrwt>
<totfact> 0.50962739E+01</totfact>
</mgrwt>
</event>
<event>
 5    0  0.1200001E+000  0.2496198E+03  0.7546771E-02  0.1113545E+00
         21   -1    0    0  502  501  0.00000000000E+00  0.00000000000E+00  0.25427310848E+03  0.25427310848E+03  0.00000000000E+00 0. -1.
         21   -1    0    0  503  502 -0.00000000000E+00 -0.00000000000E+00 -0.37020525178E+03  0.37020525178E+03  0.00000000000E+00 0. -1.
         25    1    1    2    0    0 -0.17188050886E+02  0.20337552884E+03 -0.20067119241E+03  0.31233149423E+03  0.12500000000E+03 0.  0.
         21    1    1    2  503  504 -0.13074719669E+02  0.46713502090E+02  0.13216551149E+02  0.50277000668E+02  0.00000000000E+00 0. -1.
         21    1    1    2  504  501  0.30262770555E+02 -0.25008903093E+03  0.71522497959E+02  0.26186986536E+03  0.00000000000E+00 0. -1.
<mgrwt>
<rscale>  4 0.24961985E+03</rscale>
<asrwt>0</asrwt>
<pdfrwt beam="1">  1       21 0.39118940E-01 0.24961985E+03</pdfrwt>
<pdfrwt beam="2">  1       21 0.56954654E-01 0.24961985E+03</pdfrwt>
<totfact> 0.17675959E+04</totfact>
</mgrwt>
</event>
<event>
 5    0  0.1200001E+000  0.3184351E+03  0.7546771E-02  0.1076372E+00
         21   -1    0    0  502  501  0.00000000000E+00  0.00000000000E+00  0.35030874493E+03  0.35030874493E+03  0.00000000000E+00 0. -1.
         21   -1    0    0  503  502 -0.00000000000E+00 -0.00000000000E+00 -0.41873442268E+03  0.41873442268E+03  0.00000000000E+00 0. -1.
         25    1    1    2    0    0  0.27310769083E+03  0.10620019561E+03 -0.24323080332E+03  0.40081481513E+03  0.12500000000E+03 0.  0.
         21    1    1    2  503  504 -0.11817237124E+02  0.27595613320E+02  0.10388568728E+02  0.31766134923E+02  0.00000000000E+00 0. -1.
         21    1    1    2  504  501 -0.26129045370E+03 -0.13379580893E+03  0.16441655684E+03  0.33646221757E+03  0.00000000000E+00 0. -1.
<mgrwt>
<rscale>  4 0.31843505E+03</rscale>
<asrwt>0</asrwt>
<pdfrwt beam="1">  1       21 0.53893653E-01 0.31843505E+03</pdfrwt>
<pdfrwt beam="2">  1       21 0.64420680E-01 0.31843505E+03</pdfrwt>
<totfact> 0.67251725E+03</totfact>
</mgrwt>
</event>
<event>
 5    0  0.1200001E+000  0.2894615E+03  0.7546771E-02  0.1090631E+00
         21   -1    0    0  502  501  0.00000000000E+00  0.00000000000E+00  0.84724831461E+03  0.84724831461E+03  0.00000000000E+00 0. -1.
         21   -1    0    0  504  502 -0.00000000000E+00 -0.00000000000E+00 -0.15699724755E+04  0.15699724755E+04  0.00000000000E+00 0. -1.
         25    1    1    2    0    0 -0.11474171439E+02 -0.26282287477E+03 -0.15252861733E+04  0.15528459133E+04  0.12500000000E+03 0.  0.
         21    1    1    2  503  501 -0.18795388957E+02  0.20743511843E+03  0.34889285505E+03  0.40633584547E+03  0.00000000000E+00 0. -1.
         21    1    1    2  504  503  0.30269560396E+02  0.55387756331E+02  0.45366915737E+03  0.45803903129E+03  0.00000000000E+00 0. -1.
<mgrwt>
<rscale>  4 0.28946152E+03</rscale>
<asrwt>0</asrwt>
<pdfrwt beam="1">  1       21 0.13034590E+00 0.28946152E+03</pdfrwt>
<pdfrwt beam="2">  1       21 0.24153422E+00 0.28946152E+03</pdfrwt>
<totfact> 0.28021861E+01</totfact>
</mgrwt>
</event>
<event>
 5    0  0.1200001E+000  0.2328440E+03  0.7546771E-02  0.1124654E+00
         21   -1    0    0  503  501  0.00000000000E+00  0.00000000000E+00  0.21023918328E+02  0.21023918328E+02  0.00000000000E+00 0. -1.
         21   -1    0    0  504  502 -0.00000000000E+00 -0.00000000000E+00 -0.27273376128E+04  0.27273376128E+04  0.00000000000E+00 0. -1.
         25    1    1    2    0    0  0.20186552328E+03  0.27611473002E+02 -0.16694505086E+04  0.16864762328E+04  0.12500000000E+03 0.  0.
         21    1    1    2  503  502 -0.18893094571E+03 -0.10631727729E+02 -0.10100023613E+04  0.10275761313E+04  0.00000000000E+00 0. -1.
         21    1    1    2  504  501 -0.12934577562E+02 -0.16979745273E+02 -0.26860824564E+02  0.34309167033E+02  0.00000000000E+00 0.  1.
<mgrwt>
<rscale>  4 0.23284396E+03</rscale>
<asrwt>0</asrwt>
<pdfrwt beam="1">  1       21 0.32344483E-02 0.23284396E+03</pdfrwt>
<pdfrwt beam="2">  1       21 0.41959049E+00 0.23284396E+03</pdfrwt>
<totfact> 0.34748488E+03</totfact>
</mgrwt>
</event>
<event>
 5    0  0.1200001E+000  0.2130047E+03  0.7546771E-02  0.1139208E+00
         21   -1    0    0  503  501  0.00000000000E+00  0.00000000000E+00  0.17835656704E+04  0.17835656704E+04  0.00000000000E+00 0. -1.
         21   -1    0    0  504  502 -0.00000000000E+00 -0.00000000000E+00 -0.12064059497E+03  0.12064059497E+03  0.00000000000E+00 0. -1.
         25    1    1    2    0    0  0.76198159774E+02 -0.19007863708E+03  0.13303747189E+03  0.27433559148E+03  0.12500000000E+03 0.  0.
         21    1    1    2  503  502 -0.10339147408E+03  0.11764335547E+03  0.76284482128E+02  0.17420986830E+03  0.00000000000E+00 0. -1.
         21    1    1    2  504  501  0.27193314303E+02  0.72435281613E+02  0.14536031214E+04  0.14556608056E+04  0.00000000000E+00 0. -1.
<mgrwt>
<rscale>  4 0.21300474E+03</rscale>
<asrwt>0</asrwt>
<pdfrwt beam="1">  1       21 0.27439470E+00 0.21300474E+03</pdfrwt>
<pdfrwt beam="2">  1       21 0.18560093E-01 0.21300474E+03</pdfrwt>
<totfact> 0.12407858E+03</totfact>
</mgrwt>
</event>
<event>
 5    0  0.1200001E+000  0.2961550E+03  0.7546771E-02  0.1087179E+00
         21   -1    0    0  503  501  0.00000000000E+00  0.00000000000E+00  0.95633043303E+02  0.95633043303E+02  0.00000000000E+00 0.  1.
         21   -1    0    0  504  502 -0.00000000000E+00 -0.00000000000E+00 -0.10396697505E+04  0.10396697505E+04  0.00000000000E+00 0.  1.
         25    1    1    2    0    0  0.73172986905E+02 -0.26796424309E+03 -0.65813420019E+03  0.72520669264E+03  0.12500000000E+03 0.  0.
         21    1    1    2  503  502 -0.58396054014E+02  0.24842811280E+03 -0.28883628376E+03  0.38542577129E+03  0.00000000000E+00 0.  1.
         21    1    1    2  504  501 -0.14776932891E+02  0.19536130288E+02  0.29337767227E+01  0.24670329916E+02  0.00000000000E+00 0.  1.
<mgrwt>
<rscale>  4 0.29615503E+03</rscale>
<asrwt>0</asrwt>
<pdfrwt beam="1">  1       21 0.14712776E-01 0.29615503E+03</pdfrwt>
<pdfrwt beam="2">  1       21 0.15994919E+00 0.29615503E+03</pdfrwt>
<totfact> 0.95824374E+03</totfact>
</mgrwt>
</event>
<event>
 5    0  0.1200001E+000  0.3011232E+03  0.7546771E-02  0.1084680E+00
         21   -1    0    0  503  501  0.00000000000E+00  0.00000000000E+00  0.30769542886E+03  0.30769542886E+03  0.00000000000E+00 0.  1.
         21   -1    0    0  504  502 -0.00000000000E+00 -0.00000000000E+00 -0.98896010473E+03  0.98896010473E+03  0.00000000000E+00 0.  1.
         25    1    1    2    0    0 -0.25793018686E+02 -0.29644845993E+03 -0.52993915362E+03  0.62048970640E+03  0.12500000000E+03 0.  0.
         21    1    1    2  503  502 -0.25404856662E+03  0.20328489177E+03 -0.19298384774E+03  0.37829642731E+03  0.00000000000E+00 0.  1.
         21    1    1    2  504  501  0.27984158531E+03  0.93163568164E+02  0.41658325493E+02  0.29786939988E+03  0.00000000000E+00 0.  1.
<mgrwt>
<rscale>  4 0.30112321E+03</rscale>
<asrwt>0</asrwt>
<pdfrwt beam="1">  1       21 0.47337758E-01 0.30112321E+03</pdfrwt>
<pdfrwt beam="2">  1       21 0.15214771E+00 0.30112321E+03</pdfrwt>
<totfact> 0.11234344E+03</totfact>
</mgrwt>
</event>
<event>
 5    0  0.1200001E+000  0.2530311E+03  0.7546771E-02  0.1111404E+00
         21   -1    0    0  503  501  0.00000000000E+00  0.00000000000E+00  0.69476774736E+03  0.69476774736E+03  0.00000000000E+00 0. -1.
         21   -1    0    0  504  502 -0.00000000000E+00 -0.00000000000E+00 -0.23316453772E+03  0.23316453772E+03  0.00000000000E+00 0. -1.
         25    1    1    2    0    0  0.14626004296E+03  0.16419995799E+03 -0.13073467192E+03  0.28472825784E+03  0.12500000000E+03 0.  0.
         21    1    1    2  503  502 -0.12806070262E+03 -0.18124294654E+03  0.49064165723E+03  0.53849585424E+03  0.00000000000E+00 0. -1.
         21    1    1    2  504  501 -0.18199340342E+02  0.17042988556E+02  0.10169622434E+03  0.10470817300E+03  0.00000000000E+00 0. -1.
<mgrwt>
<rscale>  4 0.25303107E+03</rscale>
<asrwt>0</asrwt>
<pdfrwt beam="1">  1       21 0.10688735E+00 0.25303107E+03</pdfrwt>
<pdfrwt beam="2">  1       21 0.35871467E-01 0.25303107E+03</pdfrwt>
<totfact> 0.50247042E+03</totfact>
</mgrwt>
</event>
<event>
 5    0  0.1200001E+000  0.2359698E+03  0.7546771E-02  0.1122507E+00
         21   -1    0    0  503  501  0.00000000000E+00  0.00000000000E+00  0.42070138844E+02  0.42070138844E+02  0.00000000000E+00 0. -1.
         21   -1    0    0  504  502 -0.00000000000E+00 -0.00000000000E+00 -0.13853999680E+04  0.13853999680E+04  0.00000000000E+00 0. -1.
         25    1    1    2    0    0 -0.67030205005E+02  0.19512643463E+03 -0.90583073809E+03  0.93740156813E+03  0.12500000000E+03 0.  0.
         21    1    1    2  503  502  0.80471551519E+02 -0.17473092656E+03 -0.41231926193E+03  0.45498762737E+03  0.00000000000E+00 0. -1.
         21    1    1    2  504  501 -0.13441346514E+02 -0.20395508063E+02 -0.25179829153E+02  0.35080911354E+02  0.00000000000E+00 0. -1.
<mgrwt>
<rscale>  4 0.23596984E+03</rscale>
<asrwt>0</asrwt>
<pdfrwt beam="1">  1       21 0.64723286E-02 0.23596984E+03</pdfrwt>
<pdfrwt beam="2">  1       21 0.21313847E+00 0.23596984E+03</pdfrwt>
<totfact> 0.18596952E+04</totfact>
</mgrwt>
</event>
<event>
 5    0  0.1200001E+000  0.2876695E+03  0.7546771E-02  0.1091572E+00
         21   -1    0    0  503  501  0.00000000000E+00  0.00000000000E+00  0.32048190135E+03  0.32048190135E+03  0.00000000000E+00 0.  1.
         21   -1    0    0  504  502 -0.00000000000E+00 -0.00000000000E+00 -0.14951054290E+04  0.14951054290E+04  0.00000000000E+00 0. -1.
         25    1    1    2    0    0 -0.98717447742E+01 -0.25890403159E+03 -0.14162065188E+04  0.14451279018E+04  0.12500000000E+03 0.  0.
         21    1    1    2  503  502 -0.21043855140E+02  0.15931653933E+03  0.83544595299E+02  0.18111958190E+03  0.00000000000E+00 0.  1.
         21    1    1    2  504  501  0.30915599914E+02  0.99587492255E+02  0.15803839585E+03  0.18933984656E+03  0.00000000000E+00 0.  1.
<mgrwt>
<rscale>  4 0.28766951E+03</rscale>
<asrwt>0</asrwt>
<pdfrwt beam="1">  1       21 0.49304908E-01 0.28766951E+03</pdfrwt>
<pdfrwt beam="2">  1       21 0.23001622E+00 0.28766951E+03</pdfrwt>
<totfact> 0.30927132E+02</totfact>
</mgrwt>
</event>
<event>
 5    0  0.1200001E+000  0.2422507E+03  0.7546771E-02  0.1118303E+00
         21   -1    0    0  503  501  0.00000000000E+00  0.00000000000E+00  0.30917965488E+03  0.30917965488E+03  0.00000000000E+00 0.  1.
         21   -1    0    0  501  502 -0.00000000000E+00 -0.00000000000E+00 -0.28883824152E+03  0.28883824152E+03  0.00000000000E+00 0.  1.
         25    1    1    2    0    0  0.17747165029E+03 -0.94092462531E+02 -0.15380669860E+03  0.28218979198E+03  0.12500000000E+03 0.  0.
         21    1    1    2  503  504  0.16089993065E+02 -0.28797629907E+02  0.32591820958E+02  0.46372601377E+02  0.00000000000E+00 0.  1.
         21    1    1    2  504  502 -0.19356164336E+03  0.12289009244E+03  0.14155629100E+03  0.26945550304E+03  0.00000000000E+00 0.  1.
<mgrwt>
<rscale>  4 0.24225067E+03</rscale>
<asrwt>0</asrwt>
<pdfrwt beam="1">  1       21 0.47566101E-01 0.24225067E+03</pdfrwt>
<pdfrwt beam="2">  1       21 0.44436653E-01 0.24225067E+03</pdfrwt>
<totfact> 0.19995801E+04</totfact>
</mgrwt>
</event>
<event>
 5    0  0.1200001E+000  0.2393643E+03  0.7546771E-02  0.1120217E+00
         21   -1    0    0  503  501  0.00000000000E+00  0.00000000000E+00  0.35027077819E+03  0.35027077819E+03  0.00000000000E+00 0.  1.
         21   -1    0    0  504  502 -0.00000000000E+00 -0.00000000000E+00 -0.16550619787E+03  0.16550619787E+03  0.00000000000E+00 0.  1.
         25    1    1    2    0    0  0.88548761189E+02  0.19030600022E+03  0.15740356624E+03  0.29061682590E+03  0.12500000000E+03 0.  0.
         21    1    1    2  503  502 -0.10263735247E+03 -0.16835900770E+03  0.20831969324E+02  0.19827544614E+03  0.00000000000E+00 0.  1.
         21    1    1    2  504  501  0.14088591283E+02 -0.21946992518E+02  0.65290447566E+01  0.26884704022E+02  0.00000000000E+00 0. -1.
<mgrwt>
<rscale>  4 0.23936425E+03</rscale>
<asrwt>0</asrwt>
<pdfrwt beam="1">  1       21 0.53887812E-01 0.23936425E+03</pdfrwt>
<pdfrwt beam="2">  1       21 0.25462492E-01 0.23936425E+03</pdfrwt>
<totfact> 0.46609885E+04</totfact>
</mgrwt>
</event>
<event>
 5    0  0.1200001E+000  0.2479802E+03  0.7546771E-02  0.1114588E+00
         21   -1    0    0  503  501  0.00000000000E+00  0.00000000000E+00  0.46673735425E+03  0.46673735425E+03  0.00000000000E+00 0. -1.
         21   -1    0    0  504  502 -0.00000000000E+00 -0.00000000000E+00 -0.37119573978E+03  0.37119573978E+03  0.00000000000E+00 0. -1.
         25    1    1    2    0    0  0.22330185922E+03 -0.23630857061E+02 -0.28493594260E+03  0.38371295146E+03  0.12500000000E+03 0.  0.
         21    1    1    2  503  502 -0.16844823193E+03  0.11258602384E+02  0.18338167308E+03  0.24925970591E+03  0.00000000000E+00 0. -1.
         21    1    1    2  504  501 -0.54853627289E+02  0.12372254678E+02  0.19709588398E+03  0.20496043666E+03  0.00000000000E+00 0. -1.
<mgrwt>
<rscale>  4 0.24798020E+03</rscale>
<asrwt>0</asrwt>
<pdfrwt beam="1">  1       21 0.71805747E-01 0.24798020E+03</pdfrwt>
<pdfrwt beam="2">  1       21 0.57107037E-01 0.24798020E+03</pdfrwt>
<totfact> 0.48502635E+03</totfact>
</mgrwt>
</event>
<event>
 5    0  0.1200001E+000  0.3125987E+03  0.7546771E-02  0.1079107E+00
         21   -1    0    0  503  501  0.00000000000E+00  0.00000000000E+00  0.35091703972E+02  0.35091703972E+02  0.00000000000E+00 0.  1.
         21   -1    0    0  501  502 -0.00000000000E+00 -0.00000000000E+00 -0.35074550440E+04  0.35074550440E+04  0.00000000000E+00 0.  1.
         25    1    1    2    0    0  0.11323703838E+03  0.26319254050E+03 -0.26274264624E+04  0.26459568695E+04  0.12500000000E+03 0.  0.
         21    1    1    2  503  504 -0.34395717734E+02 -0.16531920507E+02 -0.72954516907E+02  0.82333051269E+02  0.00000000000E+00 0.  1.
         21    1    1    2  504  502 -0.78841320648E+02 -0.24666061999E+03 -0.77198236077E+03  0.81425682720E+03  0.00000000000E+00 0.  1.
<mgrwt>
<rscale>  4 0.31259869E+03</rscale>
<asrwt>0</asrwt>
<pdfrwt beam="1">  1       21 0.53987244E-02 0.31259869E+03</pdfrwt>
<pdfrwt beam="2">  1       21 0.53960839E+00 0.31259869E+03</pdfrwt>
<totfact> 0.19752928E+02</totfact>
</mgrwt>
</event>
<event>
 5    0  0.1200001E+000  0.5260456E+03  0.7546771E-02  0.1007196E+00
         21   -1    0    0  503  501  0.00000000000E+00  0.00000000000E+00  0.28897619916E+03  0.28897619916E+03  0.00000000000E+00 0.  1.
         21   -1    0    0  504  502 -0.00000000000E+00 -0.00000000000E+00 -0.16520726286E+04  0.16520726286E+04  0.00000000000E+00 0.  1.
         25    1    1    2    0    0  0.22075301832E+03 -0.45845460736E+03 -0.53586345686E+03  0.74945791510E+03  0.12500000000E+03 0.  0.
         21    1    1    2  503  502  0.13908709622E+03  0.80537168013E+02 -0.60225010092E+03  0.62332707291E+03  0.00000000000E+00 0.  1.
         21    1    1    2  504  501 -0.35984011455E+03  0.37791743935E+03 -0.22498287162E+03  0.56826383971E+03  0.00000000000E+00 0.  1.
<mgrwt>
<rscale>  4 0.52604563E+03</rscale>
<asrwt>0</asrwt>
<pdfrwt beam="1">  1       21 0.44457877E-01 0.52604563E+03</pdfrwt>
<pdfrwt beam="2">  1       21 0.25416502E+00 0.52604563E+03</pdfrwt>
<totfact> 0.23429767E+02</totfact>
</mgrwt>
</event>
<event>
 5    0  0.1200001E+000  0.3104635E+03  0.7546771E-02  0.1080124E+00
         21   -1    0    0  503  501  0.00000000000E+00  0.00000000000E+00  0.12137205412E+03  0.12137205412E+03  0.00000000000E+00 0.  1.
         21   -1    0    0  504  502 -0.00000000000E+00 -0.00000000000E+00 -0.17180120879E+04  0.17180120879E+04  0.00000000000E+00 0. -1.
         25    1    1    2    0    0 -0.18836034085E+03  0.21583098360E+03 -0.13250702550E+04  0.13614326323E+04  0.12500000000E+03 0.  0.
         21    1    1    2  503  502  0.15729023561E+03 -0.23049272867E+03 -0.31613989131E+03  0.42167706491E+03  0.00000000000E+00 0.  1.
         21    1    1    2  504  501  0.31070105242E+02  0.14661745076E+02  0.44570112550E+02  0.56274444832E+02  0.00000000000E+00 0.  1.
<mgrwt>
<rscale>  4 0.31046346E+03</rscale>
<asrwt>0</asrwt>
<pdfrwt beam="1">  1       21 0.18672626E-01 0.31046346E+03</pdfrwt>
<pdfrwt beam="2">  1       21 0.26430953E+00 0.31046346E+03</pdfrwt>
<totfact> 0.12847059E+03</totfact>
</mgrwt>
</event>
<event>
 5    0  0.1200001E+000  0.2564572E+03  0.7546771E-02  0.1109291E+00
         21   -1    0    0  503  501  0.00000000000E+00  0.00000000000E+00  0.12016848838E+03  0.12016848838E+03  0.00000000000E+00 0.  1.
         21   -1    0    0  504  502 -0.00000000000E+00 -0.00000000000E+00 -0.67774922580E+03  0.67774922580E+03  0.00000000000E+00 0.  1.
         25    1    1    2    0    0 -0.15671532918E+03 -0.13538080830E+03 -0.32104262197E+03  0.40197142035E+03  0.12500000000E+03 0.  0.
         21    1    1    2  503  502  0.12721955093E+03  0.19969627556E+03 -0.13615665001E+03  0.27313375836E+03  0.00000000000E+00 0.  1.
         21    1    1    2  504  501  0.29495778252E+02 -0.64315467258E+02 -0.10038146544E+03  0.12281253547E+03  0.00000000000E+00 0. -1.
<mgrwt>
<rscale>  4 0.25645717E+03</rscale>
<asrwt>0</asrwt>
<pdfrwt beam="1">  1       21 0.18487460E-01 0.25645717E+03</pdfrwt>
<pdfrwt beam="2">  1       21 0.10426911E+00 0.25645717E+03</pdfrwt>
<totfact> 0.19151393E+04</totfact>
</mgrwt>
</event>
<event>
 5    0  0.1200001E+000  0.4586764E+03  0.7546771E-02  0.1025166E+00
         21   -1    0    0  502  501  0.00000000000E+00  0.00000000000E+00  0.59228418653E+03  0.59228418653E+03  0.00000000000E+00 0. -1.
         21   -1    0    0  504  502 -0.00000000000E+00 -0.00000000000E+00 -0.53479693219E+03  0.53479693219E+03  0.00000000000E+00 0. -1.
         25    1    1    2    0    0  0.10737343572E+03  0.43683316025E+03 -0.28211562675E+03  0.54549655494E+03  0.12500000000E+03 0.  0.
         21    1    1    2  503  501 -0.11390964247E+03 -0.40165777529E+03  0.25371891852E+03  0.48854648163E+03  0.00000000000E+00 0. -1.
         21    1    1    2  504  503  0.65362067477E+01 -0.35175384961E+02  0.85883962554E+02  0.93038082148E+02  0.00000000000E+00 0.  1.
<mgrwt>
<rscale>  4 0.45867638E+03</rscale>
<asrwt>0</asrwt>
<pdfrwt beam="1">  1       21 0.91120644E-01 0.45867638E+03</pdfrwt>
<pdfrwt beam="2">  1       21 0.82276451E-01 0.45867638E+03</pdfrwt>
<totfact> 0.11194589E+03</totfact>
</mgrwt>
</event>
<event>
 5    0  0.1200001E+000  0.2501762E+03  0.7546771E-02  0.1113194E+00
         21   -1    0    0  503  501  0.00000000000E+00  0.00000000000E+00  0.63840497426E+02  0.63840497426E+02  0.00000000000E+00 0.  1.
         21   -1    0    0  504  502 -0.00000000000E+00 -0.00000000000E+00 -0.13839351486E+04  0.13839351486E+04  0.00000000000E+00 0.  1.
         25    1    1    2    0    0  0.19146967030E+03  0.88236492715E+02 -0.99308881212E+03  0.10228864561E+04  0.12500000000E+03 0.  0.
         21    1    1    2  503  502 -0.19887938803E+03 -0.12307975662E+03 -0.29880665706E+03  0.37945626332E+03  0.00000000000E+00 0.  1.
         21    1    1    2  504  501  0.74097177343E+01  0.34843263907E+02 -0.28199182034E+02  0.45432926650E+02  0.00000000000E+00 0. -1.
<mgrwt>
<rscale>  4 0.25017617E+03</rscale>
<asrwt>0</asrwt>
<pdfrwt beam="1">  1       21 0.98216149E-02 0.25017617E+03</pdfrwt>
<pdfrwt beam="2">  1       21 0.21291310E+00 0.25017617E+03</pdfrwt>
<totfact> 0.89066579E+03</totfact>
</mgrwt>
</event>
<event>
 5    0  0.1200001E+000  0.3290064E+03  0.7546771E-02  0.1071577E+00
         21   -1    0    0  503  501  0.00000000000E+00  0.00000000000E+00  0.32330880485E+03  0.32330880485E+03  0.00000000000E+00 0. -1.
         21   -1    0    0  504  502 -0.00000000000E+00 -0.00000000000E+00 -0.11943290335E+04  0.11943290335E+04  0.00000000000E+00 0. -1.
         25    1    1    2    0    0 -0.16122059376E+03 -0.26758435150E+03 -0.10708399252E+04  0.11224600708E+04  0.12500000000E+03 0.  0.
         21    1    1    2  503  502  0.10664594755E+03  0.22605398849E+03  0.89908782024E+02  0.26562634080E+03  0.00000000000E+00 0. -1.
         21    1    1    2  504  501  0.54574646209E+02  0.41530363012E+02  0.10991091452E+03  0.12955142682E+03  0.00000000000E+00 0. -1.
<mgrwt>
<rscale>  4 0.32900642E+03</rscale>
<asrwt>0</asrwt>
<pdfrwt beam="1">  1       21 0.49739816E-01 0.32900642E+03</pdfrwt>
<pdfrwt beam="2">  1       21 0.18374293E+00 0.32900642E+03</pdfrwt>
<totfact> 0.58634734E+02</totfact>
</mgrwt>
</event>
<event>
 5    0  0.1200001E+000  0.2380725E+03  0.7546771E-02  0.1121084E+00
         21   -1    0    0  503  501  0.00000000000E+00  0.00000000000E+00  0.55585185062E+03  0.55585185062E+03  0.00000000000E+00 0.  1.
         21   -1    0    0  504  502 -0.00000000000E+00 -0.00000000000E+00 -0.18091307223E+03  0.18091307223E+03  0.00000000000E+00 0.  1.
         25    1    1    2    0    0  0.24615320128E+03 -0.94674615269E+01  0.14986445544E+03  0.31426960771E+03  0.12500000000E+03 0.  0.
         21    1    1    2  503  502 -0.17359808354E+03 -0.82427817395E+02  0.23663690634E+03  0.30484039288E+03  0.00000000000E+00 0.  1.
         21    1    1    2  504  501 -0.72555117737E+02  0.91895278922E+02 -0.11562583380E+02  0.11765492226E+03  0.00000000000E+00 0.  1.
<mgrwt>
<rscale>  4 0.23807246E+03</rscale>
<asrwt>0</asrwt>
<pdfrwt beam="1">  1       21 0.85515668E-01 0.23807246E+03</pdfrwt>
<pdfrwt beam="2">  1       21 0.27832781E-01 0.23807246E+03</pdfrwt>
<totfact> 0.14168810E+04</totfact>
</mgrwt>
</event>
<event>
 5    0  0.1200001E+000  0.2550806E+03  0.7546771E-02  0.1110135E+00
         21   -1    0    0  503  501  0.00000000000E+00  0.00000000000E+00  0.19195141957E+03  0.19195141957E+03  0.00000000000E+00 0.  1.
         21   -1    0    0  504  502 -0.00000000000E+00 -0.00000000000E+00 -0.38528965749E+03  0.38528965749E+03  0.00000000000E+00 0.  1.
         25    1    1    2    0    0  0.19990580297E+03  0.94599955792E+02 -0.10807211757E+03  0.27607257070E+03  0.12500000000E+03 0.  0.
         21    1    1    2  503  502 -0.18888712159E+03 -0.12055968850E+03 -0.12177681785E+03  0.25503446151E+03  0.00000000000E+00 0.  1.
         21    1    1    2  504  501 -0.11018681385E+02  0.25959732706E+02  0.36510697504E+02  0.46134044846E+02  0.00000000000E+00 0. -1.
<mgrwt>
<rscale>  4 0.25508057E+03</rscale>
<asrwt>0</asrwt>
<pdfrwt beam="1">  1       21 0.29530988E-01 0.25508057E+03</pdfrwt>
<pdfrwt beam="2">  1       21 0.59275332E-01 0.25508057E+03</pdfrwt>
<totfact> 0.28321625E+04</totfact>
</mgrwt>
</event>
<event>
 5    0  0.1200001E+000  0.3520479E+03  0.7546771E-02  0.1061778E+00
         21   -1    0    0  503  501  0.00000000000E+00  0.00000000000E+00  0.66049538401E+03  0.66049538401E+03  0.00000000000E+00 0. -1.
         21   -1    0    0  501  502 -0.00000000000E+00 -0.00000000000E+00 -0.33318327192E+03  0.33318327192E+03  0.00000000000E+00 0. -1.
         25    1    1    2    0    0 -0.27565490615E+03  0.14955766401E+03  0.15948848268E+02  0.33798296985E+03  0.12500000000E+03 0.  0.
         21    1    1    2  503  504 -0.28303543557E+02  0.12051199410E+02  0.30991953141E+03  0.31144251144E+03  0.00000000000E+00 0. -1.
         21    1    1    2  504  502  0.30395844971E+03 -0.16160886342E+03  0.14437324187E+01  0.34425317464E+03  0.00000000000E+00 0. -1.
<mgrwt>
<rscale>  4 0.35204788E+03</rscale>
<asrwt>0</asrwt>
<pdfrwt beam="1">  1       21 0.10161467E+00 0.35204788E+03</pdfrwt>
<pdfrwt beam="2">  1       21 0.51258965E-01 0.35204788E+03</pdfrwt>
<totfact> 0.25790720E+03</totfact>
</mgrwt>
</event>
<event>
 5    0  0.1200001E+000  0.2569193E+03  0.7546771E-02  0.1109008E+00
         21   -1    0    0  502  501  0.00000000000E+00  0.00000000000E+00  0.11517715145E+03  0.11517715145E+03  0.00000000000E+00 0. -1.
         21   -1    0    0  504  502 -0.00000000000E+00 -0.00000000000E+00 -0.11334126232E+04  0.11334126232E+04  0.00000000000E+00 0.  1.
         25    1    1    2    0    0 -0.18306187563E+03 -0.12988802472E+03 -0.95790009732E+03  0.99175609184E+03  0.12500000000E+03 0.  0.
         21    1    1    2  503  501  0.10119890709E+03  0.54432798511E+02  0.23721738805E+02  0.11733230264E+03  0.00000000000E+00 0. -1.
         21    1    1    2  504  503  0.81862968535E+02  0.75455226208E+02 -0.84057113225E+02  0.13950138015E+03  0.00000000000E+00 0. -1.
<mgrwt>
<rscale>  4 0.25691934E+03</rscale>
<asrwt>0</asrwt>
<pdfrwt beam="1">  1       21 0.17719561E-01 0.25691934E+03</pdfrwt>
<pdfrwt beam="2">  1       21 0.17437118E+00 0.25691934E+03</pdfrwt>
<totfact> 0.54723041E+03</totfact>
</mgrwt>
</event>
<event>
 5    0  0.1200001E+000  0.2570555E+03  0.7546771E-02  0.1108925E+00
         21   -1    0    0  503  501  0.00000000000E+00  0.00000000000E+00  0.29424402520E+03  0.29424402520E+03  0.00000000000E+00 0. -1.
         21   -1    0    0  501  502 -0.00000000000E+00 -0.00000000000E+00 -0.78468902853E+03  0.78468902853E+03  0.00000000000E+00 0. -1.
         25    1    1    2    0    0 -0.82629036825E+02 -0.21263553314E+03 -0.64274095881E+03  0.69338471847E+03  0.12500000000E+03 0.  0.
         21    1    1    2  503  504 -0.16391578942E+02  0.24941190798E+02  0.16999852275E+03  0.17259850694E+03  0.00000000000E+00 0. -1.
         21    1    1    2  504  502  0.99020615767E+02  0.18769434234E+03 -0.17702567269E+02  0.21294982832E+03  0.00000000000E+00 0. -1.
<mgrwt>
<rscale>  4 0.25705555E+03</rscale>
<asrwt>0</asrwt>
<pdfrwt beam="1">  1       21 0.45268312E-01 0.25705555E+03</pdfrwt>
<pdfrwt beam="2">  1       21 0.12072139E+00 0.25705555E+03</pdfrwt>
<totfact> 0.23133705E+03</totfact>
</mgrwt>
</event>
<event>
 5    0  0.1200001E+000  0.2638841E+03  0.7546771E-02  0.1104832E+00
         21   -1    0    0  502  501  0.00000000000E+00  0.00000000000E+00  0.38763976909E+02  0.38763976909E+02  0.00000000000E+00 0.  1.
         21   -1    0    0  504  502 -0.00000000000E+00 -0.00000000000E+00 -0.28597004104E+04  0.28597004104E+04  0.00000000000E+00 0.  1.
         25    1    1    2    0    0  0.20791300854E+03 -0.52023463884E+01 -0.88911043845E+03  0.92162750354E+03  0.12500000000E+03 0.  0.
         21    1    1    2  503  501 -0.22216880591E+03  0.15147402473E+03 -0.13676864261E+04  0.13938685443E+04  0.00000000000E+00 0.  1.
         21    1    1    2  504  503  0.14255797370E+02 -0.14627167835E+03 -0.56413956897E+03  0.58296833955E+03  0.00000000000E+00 0.  1.
<mgrwt>
<rscale>  4 0.26388415E+03</rscale>
<asrwt>0</asrwt>
<pdfrwt beam="1">  1       21 0.59636903E-02 0.26388415E+03</pdfrwt>
<pdfrwt beam="2">  1       21 0.43995380E+00 0.26388415E+03</pdfrwt>
<totfact> 0.87663481E+02</totfact>
</mgrwt>
</event>
<event>
 5    0  0.1200001E+000  0.3051843E+03  0.7546771E-02  0.1082677E+00
         21   -1    0    0  503  501  0.00000000000E+00  0.00000000000E+00  0.10794537945E+03  0.10794537945E+03  0.00000000000E+00 0.  1.
         21   -1    0    0  501  502 -0.00000000000E+00 -0.00000000000E+00 -0.18091295737E+04  0.18091295737E+04  0.00000000000E+00 0. -1.
         25    1    1    2    0    0  0.15846680392E+03 -0.20157990665E+03 -0.10814957920E+04  0.11184830508E+04  0.12500000000E+03 0.  0.
         21    1    1    2  503  504  0.59550675646E+02 -0.39095751958E+02  0.26005265707E+02  0.75835576318E+02  0.00000000000E+00 0.  1.
         21    1    1    2  504  502 -0.21801747957E+03  0.24067565860E+03 -0.64569366797E+03  0.72275632608E+03  0.00000000000E+00 0.  1.
<mgrwt>
<rscale>  4 0.30518432E+03</rscale>
<asrwt>0</asrwt>
<pdfrwt beam="1">  1       21 0.16606981E-01 0.30518432E+03</pdfrwt>
<pdfrwt beam="2">  1       21 0.27832763E+00 0.30518432E+03</pdfrwt>
<totfact> 0.13251848E+03</totfact>
</mgrwt>
</event>
<event>
 5    0  0.1200001E+000  0.2571976E+03  0.7546771E-02  0.1108839E+00
         21   -1    0    0  503  501  0.00000000000E+00  0.00000000000E+00  0.27254699851E+03  0.27254699851E+03  0.00000000000E+00 0. -1.
         21   -1    0    0  504  502 -0.00000000000E+00 -0.00000000000E+00 -0.46348750948E+03  0.46348750948E+03  0.00000000000E+00 0.  1.
         25    1    1    2    0    0 -0.76760247487E+02 -0.22024039082E+03 -0.26963586143E+03  0.37779156040E+03  0.12500000000E+03 0.  0.
         21    1    1    2  503  502  0.16756334094E+03  0.14513233227E+03  0.91274112630E+02  0.23973283199E+03  0.00000000000E+00 0. -1.
         21    1    1    2  504  501 -0.90803093455E+02  0.75108058552E+02 -0.12578762169E+02  0.11851011559E+03  0.00000000000E+00 0. -1.
<mgrwt>
<rscale>  4 0.25719759E+03</rscale>
<asrwt>0</asrwt>
<pdfrwt beam="1">  1       21 0.41930308E-01 0.25719759E+03</pdfrwt>
<pdfrwt beam="2">  1       21 0.71305770E-01 0.25719759E+03</pdfrwt>
<totfact> 0.93549396E+03</totfact>
</mgrwt>
</event>
<event>
 5    0  0.1200001E+000  0.2743219E+03  0.7546771E-02  0.1098831E+00
         21   -1    0    0  503  501  0.00000000000E+00  0.00000000000E+00  0.13204386806E+04  0.13204386806E+04  0.00000000000E+00 0. -1.
         21   -1    0    0  501  502 -0.00000000000E+00 -0.00000000000E+00 -0.19790243744E+03  0.19790243744E+03  0.00000000000E+00 0. -1.
         25    1    1    2    0    0 -0.15413676528E+03  0.22261641920E+03 -0.85057597780E+01  0.29835140432E+03  0.12500000000E+03 0.  0.
         21    1    1    2  503  504  0.19511516501E+03 -0.16211898202E+01  0.77299859247E+03  0.79724486818E+03  0.00000000000E+00 0. -1.
         21    1    1    2  504  502 -0.40978399724E+02 -0.22099522938E+03  0.35804341045E+03  0.42274484553E+03  0.00000000000E+00 0. -1.
<mgrwt>
<rscale>  4 0.27432187E+03</rscale>
<asrwt>0</asrwt>
<pdfrwt beam="1">  1       21 0.20314441E+00 0.27432187E+03</pdfrwt>
<pdfrwt beam="2">  1       21 0.30446530E-01 0.27432187E+03</pdfrwt>
<totfact> 0.12298421E+03</totfact>
</mgrwt>
</event>
<event>
 5    0  0.1200001E+000  0.2700605E+03  0.7546771E-02  0.1101245E+00
         21   -1    0    0  502  501  0.00000000000E+00  0.00000000000E+00  0.56216182755E+03  0.56216182755E+03  0.00000000000E+00 0. -1.
         21   -1    0    0  504  502 -0.00000000000E+00 -0.00000000000E+00 -0.59116908634E+03  0.59116908634E+03  0.00000000000E+00 0. -1.
         25    1    1    2    0    0  0.47459984264E+02 -0.24699237493E+03 -0.40768016638E+03  0.49506141178E+03  0.12500000000E+03 0.  0.
         21    1    1    2  503  501  0.49529388925E+02  0.49237345920E+02  0.42708118398E+03  0.43275375713E+03  0.00000000000E+00 0. -1.
         21    1    1    2  504  503 -0.96989373189E+02  0.19775502901E+03 -0.48408276385E+02  0.22551574498E+03  0.00000000000E+00 0. -1.
<mgrwt>
<rscale>  4 0.27006047E+03</rscale>
<asrwt>0</asrwt>
<pdfrwt beam="1">  1       21 0.86486436E-01 0.27006047E+03</pdfrwt>
<pdfrwt beam="2">  1       21 0.90949090E-01 0.27006047E+03</pdfrwt>
<totfact> 0.11058888E+03</totfact>
</mgrwt>
</event>
<event>
 5    0  0.1200001E+000  0.2610911E+03  0.7546771E-02  0.1106489E+00
         21   -1    0    0  503  501  0.00000000000E+00  0.00000000000E+00  0.12359387269E+03  0.12359387269E+03  0.00000000000E+00 0. -1.
         21   -1    0    0  504  502 -0.00000000000E+00 -0.00000000000E+00 -0.68382103754E+03  0.68382103754E+03  0.00000000000E+00 0. -1.
         25    1    1    2    0    0  0.13473824243E+02  0.23264861703E+03 -0.48362924296E+03  0.55120700974E+03  0.12500000000E+03 0.  0.
         21    1    1    2  503  502  0.45340118791E+01 -0.22011595854E+03 -0.58593015795E+02  0.22782610467E+03  0.00000000000E+00 0. -1.
         21    1    1    2  504  501 -0.18007836122E+02 -0.12532658488E+02 -0.18004906094E+02  0.28381795821E+02  0.00000000000E+00 0. -1.
<mgrwt>
<rscale>  4 0.26109109E+03</rscale>
<asrwt>0</asrwt>
<pdfrwt beam="1">  1       21 0.19014442E-01 0.26109109E+03</pdfrwt>
<pdfrwt beam="2">  1       21 0.10520324E+00 0.26109109E+03</pdfrwt>
<totfact> 0.17742682E+04</totfact>
</mgrwt>
</event>
<event>
 5    0  0.1200001E+000  0.4909012E+03  0.7546771E-02  0.1016181E+00
         21   -1    0    0  503  501  0.00000000000E+00  0.00000000000E+00  0.16942638202E+04  0.16942638202E+04  0.00000000000E+00 0.  1.
         21   -1    0    0  501  502 -0.00000000000E+00 -0.00000000000E+00 -0.18360742882E+03  0.18360742882E+03  0.00000000000E+00 0.  1.
         25    1    1    2    0    0 -0.45152713883E+03  0.14704410587E+03  0.39506229743E+03  0.63023641995E+03  0.12500000000E+03 0.  0.
         21    1    1    2  503  504  0.26981991457E+02  0.74364984632E+02  0.13755336468E+03  0.15867925805E+03  0.00000000000E+00 0.  1.
         21    1    1    2  504  502  0.42454514738E+03 -0.22140909051E+03  0.97804072925E+03  0.10889555710E+04  0.00000000000E+00 0.  1.
<mgrwt>
<rscale>  4 0.49090124E+03</rscale>
<asrwt>0</asrwt>
<pdfrwt beam="1">  1       21 0.26065596E+00 0.49090124E+03</pdfrwt>
<pdfrwt beam="2">  1       21 0.28247298E-01 0.49090124E+03</pdfrwt>
<totfact> 0.54684494E+02</totfact>
</mgrwt>
</event>
<event>
 5    0  0.1200001E+000  0.2683346E+03  0.7546771E-02  0.1102237E+00
         21   -1    0    0  503  501  0.00000000000E+00  0.00000000000E+00  0.11198140694E+04  0.11198140694E+04  0.00000000000E+00 0. -1.
         21   -1    0    0  504  502 -0.00000000000E+00 -0.00000000000E+00 -0.21681694438E+03  0.21681694438E+03  0.00000000000E+00 0. -1.
         25    1    1    2    0    0  0.21266207553E+03 -0.12070679864E+03  0.13807913475E+03  0.30738597408E+03  0.12500000000E+03 0.  0.
         21    1    1    2  503  502 -0.25272022429E+03 -0.60912313194E+02  0.19178849002E+02  0.26066386385E+03  0.00000000000E+00 0. -1.
         21    1    1    2  504  501  0.40058148760E+02  0.18161911183E+03  0.74573914124E+03  0.76858117583E+03  0.00000000000E+00 0. -1.
<mgrwt>
<rscale>  4 0.26833465E+03</rscale>
<asrwt>0</asrwt>
<pdfrwt beam="1">  1       21 0.17227908E+00 0.26833465E+03</pdfrwt>
<pdfrwt beam="2">  1       21 0.33356454E-01 0.26833465E+03</pdfrwt>
<totfact> 0.16669843E+03</totfact>
</mgrwt>
</event>
<event>
 5    0  0.1200001E+000  0.2548702E+03  0.7546771E-02  0.1110265E+00
         21   -1    0    0  503  501  0.00000000000E+00  0.00000000000E+00  0.21946089045E+04  0.21946089045E+04  0.00000000000E+00 0. -1.
         21   -1    0    0  504  502 -0.00000000000E+00 -0.00000000000E+00 -0.35720020626E+03  0.35720020626E+03  0.00000000000E+00 0. -1.
         25    1    1    2    0    0  0.20628009990E+03 -0.51589308421E+02 -0.11623401380E+03  0.27266881436E+03  0.12500000000E+03 0.  0.
         21    1    1    2  503  502 -0.24303513326E+03 -0.93676523450E+02 -0.53925735876E+02  0.26598750353E+03  0.00000000000E+00 0. -1.
         21    1    1    2  504  501  0.36755033364E+02  0.14526583187E+03  0.20075684479E+04  0.20131527929E+04  0.00000000000E+00 0. -1.
<mgrwt>
<rscale>  4 0.25487024E+03</rscale>
<asrwt>0</asrwt>
<pdfrwt beam="1">  1       21 0.33763213E+00 0.25487024E+03</pdfrwt>
<pdfrwt beam="2">  1       21 0.54953879E-01 0.25487024E+03</pdfrwt>
<totfact> 0.58664643E+01</totfact>
</mgrwt>
</event>
<event>
 5    0  0.1200001E+000  0.2712903E+03  0.7546771E-02  0.1100543E+00
         21   -1    0    0  503  501  0.00000000000E+00  0.00000000000E+00  0.41528978685E+03  0.41528978685E+03  0.00000000000E+00 0.  1.
         21   -1    0    0  504  502 -0.00000000000E+00 -0.00000000000E+00 -0.60977840756E+03  0.60977840756E+03  0.00000000000E+00 0.  1.
         25    1    1    2    0    0 -0.25594166012E+03  0.11994645430E+03 -0.47058965054E+03  0.56300346755E+03  0.12500000000E+03 0.  0.
         21    1    1    2  503  502  0.10217872962E+03 -0.13165737202E+03  0.26615687307E+02  0.16876774338E+03  0.00000000000E+00 0.  1.
         21    1    1    2  504  501  0.15376293049E+03  0.11710917717E+02  0.24948534252E+03  0.29329698348E+03  0.00000000000E+00 0.  1.
<mgrwt>
<rscale>  4 0.27129031E+03</rscale>
<asrwt>0</asrwt>
<pdfrwt beam="1">  1       21 0.63890736E-01 0.27129031E+03</pdfrwt>
<pdfrwt beam="2">  1       21 0.93812063E-01 0.27129031E+03</pdfrwt>
<totfact> 0.20308213E+03</totfact>
</mgrwt>
</event>
<event>
 5    0  0.1200001E+000  0.2741967E+03  0.7546771E-02  0.1098901E+00
         21   -1    0    0  503  501  0.00000000000E+00  0.00000000000E+00  0.40700833642E+03  0.40700833642E+03  0.00000000000E+00 0.  1.
         21   -1    0    0  501  502 -0.00000000000E+00 -0.00000000000E+00 -0.78521652574E+03  0.78521652574E+03  0.00000000000E+00 0.  1.
         25    1    1    2    0    0  0.23961280862E+03  0.31600913038E+02 -0.68904822817E+03  0.74082749443E+03  0.12500000000E+03 0.  0.
         21    1    1    2  503  504  0.26179572908E+02  0.97031325751E+00  0.11935642250E+03  0.12219765602E+03  0.00000000000E+00 0.  1.
         21    1    1    2  504  502 -0.26579238153E+03 -0.32571226296E+02  0.19148361635E+03  0.32919971171E+03  0.00000000000E+00 0.  1.
<mgrwt>
<rscale>  4 0.27419675E+03</rscale>
<asrwt>0</asrwt>
<pdfrwt beam="1">  1       21 0.62616668E-01 0.27419675E+03</pdfrwt>
<pdfrwt beam="2">  1       21 0.12080254E+00 0.27419675E+03</pdfrwt>
<totfact> 0.11457741E+03</totfact>
</mgrwt>
</event>
<event>
 5    0  0.1200001E+000  0.3346667E+03  0.7546771E-02  0.1069090E+00
         21   -1    0    0  503  501  0.00000000000E+00  0.00000000000E+00  0.16248014159E+04  0.16248014159E+04  0.00000000000E+00 0. -1.
         21   -1    0    0  504  502 -0.00000000000E+00 -0.00000000000E+00 -0.10752605916E+04  0.10752605916E+04  0.00000000000E+00 0. -1.
         25    1    1    2    0    0 -0.25046825714E+03  0.18438638865E+03 -0.10237191087E+04  0.10771993788E+04  0.12500000000E+03 0.  0.
         21    1    1    2  503  502  0.25960419942E+03 -0.13832207989E+03  0.87692314092E+03  0.92494407032E+03  0.00000000000E+00 0. -1.
         21    1    1    2  504  501 -0.91359422849E+01 -0.46064308766E+02  0.69633679214E+03  0.69791855833E+03  0.00000000000E+00 0. -1.
<mgrwt>
<rscale>  4 0.33466667E+03</rscale>
<asrwt>0</asrwt>
<pdfrwt beam="1">  1       21 0.24996945E+00 0.33466667E+03</pdfrwt>
<pdfrwt beam="2">  1       21 0.16542471E+00 0.33466667E+03</pdfrwt>
<totfact> 0.12564997E+01</totfact>
</mgrwt>
</event>
<event>
 5    0  0.1200001E+000  0.2369682E+03  0.7546771E-02  0.1121829E+00
         21   -1    0    0  502  501  0.00000000000E+00  0.00000000000E+00  0.35814302528E+03  0.35814302528E+03  0.00000000000E+00 0.  1.
         21   -1    0    0  504  502 -0.00000000000E+00 -0.00000000000E+00 -0.33078752495E+03  0.33078752495E+03  0.00000000000E+00 0.  1.
         25    1    1    2    0    0 -0.80895260818E+02  0.20352198957E+03 -0.21031048950E+03  0.32836069414E+03  0.12500000000E+03 0.  0.
         21    1    1    2  503  501  0.39803635076E+02 -0.19538585326E+03  0.24721230459E+03  0.31760649326E+03  0.00000000000E+00 0.  1.
         21    1    1    2  504  503  0.41091625741E+02 -0.81361363117E+01 -0.95463147691E+01  0.42963362832E+02  0.00000000000E+00 0. -1.
<mgrwt>
<rscale>  4 0.23696823E+03</rscale>
<asrwt>0</asrwt>
<pdfrwt beam="1">  1       21 0.55098927E-01 0.23696823E+03</pdfrwt>
<pdfrwt beam="2">  1       21 0.50890388E-01 0.23696823E+03</pdfrwt>
<totfact> 0.11097913E+04</totfact>
</mgrwt>
</event>
<event>
 5    0  0.1200001E+000  0.3205731E+03  0.7546771E-02  0.1075386E+00
         21   -1    0    0  503  501  0.00000000000E+00  0.00000000000E+00  0.70890349571E+03  0.70890349571E+03  0.00000000000E+00 0.  1.
         21   -1    0    0  501  502 -0.00000000000E+00 -0.00000000000E+00 -0.44089140655E+03  0.44089140655E+03  0.00000000000E+00 0. -1.
         25    1    1    2    0    0  0.27755533419E+03  0.25135134083E+03 -0.77690791584E+02  0.40233732013E+03  0.12500000000E+03 0.  0.
         21    1    1    2  503  504 -0.13934876384E+03 -0.34961226528E+02  0.44845112741E+03  0.47090209069E+03  0.00000000000E+00 0.  1.
         21    1    1    2  504  502 -0.13820657035E+03 -0.21639011430E+03 -0.10274824667E+03  0.27655549144E+03  0.00000000000E+00 0. -1.
<mgrwt>
<rscale>  4 0.32057312E+03</rscale>
<asrwt>0</asrwt>
<pdfrwt beam="1">  1       21 0.10906208E+00 0.32057312E+03</pdfrwt>
<pdfrwt beam="2">  1       21 0.67829447E-01 0.32057312E+03</pdfrwt>
<totfact> 0.12012112E+03</totfact>
</mgrwt>
</event>
<event>
 5    0  0.1200001E+000  0.2595677E+03  0.7546771E-02  0.1107403E+00
         21   -1    0    0  502  501  0.00000000000E+00  0.00000000000E+00  0.25453142806E+03  0.25453142806E+03  0.00000000000E+00 0.  1.
         21   -1    0    0  504  502 -0.00000000000E+00 -0.00000000000E+00 -0.34267897153E+03  0.34267897153E+03  0.00000000000E+00 0.  1.
         25    1    1    2    0    0  0.16805669881E+03 -0.16696418866E+03 -0.17867968038E+03  0.32198062441E+03  0.12500000000E+03 0.  0.
         21    1    1    2  503  501 -0.16941860032E+03  0.12095168800E+03  0.95318646403E+02  0.22894894041E+03  0.00000000000E+00 0.  1.
         21    1    1    2  504  503  0.13619015102E+01  0.46012500667E+02 -0.47865094894E+01  0.46280834764E+02  0.00000000000E+00 0.  1.
<mgrwt>
<rscale>  4 0.25956768E+03</rscale>
<asrwt>0</asrwt>
<pdfrwt beam="1">  1       21 0.39158681E-01 0.25956768E+03</pdfrwt>
<pdfrwt beam="2">  1       21 0.52719841E-01 0.25956768E+03</pdfrwt>
<totfact> 0.20695581E+04</totfact>
</mgrwt>
</event>
<event>
 5    0  0.1200001E+000  0.3149285E+03  0.7546771E-02  0.1078007E+00
         21   -1    0    0  503  501  0.00000000000E+00  0.00000000000E+00  0.16955603984E+04  0.16955603984E+04  0.00000000000E+00 0. -1.
         21   -1    0    0  504  502 -0.00000000000E+00 -0.00000000000E+00 -0.18827125246E+03  0.18827125246E+03  0.00000000000E+00 0. -1.
         25    1    1    2    0    0  0.12169102119E+03 -0.26092122146E+03 -0.27954658169E+02  0.31511117302E+03  0.12500000000E+03 0.  0.
         21    1    1    2  503  502 -0.14187103836E+03  0.26536077369E+03  0.14063305686E+04  0.14381618128E+04  0.00000000000E+00 0. -1.
         21    1    1    2  504  501  0.20180017172E+02 -0.44395522249E+01  0.12891323549E+03  0.13055866498E+03  0.00000000000E+00 0. -1.
<mgrwt>
<rscale>  4 0.31492851E+03</rscale>
<asrwt>0</asrwt>
<pdfrwt beam="1">  1       21 0.26085544E+00 0.31492851E+03</pdfrwt>
<pdfrwt beam="2">  1       21 0.28964809E-01 0.31492851E+03</pdfrwt>
<totfact> 0.57847230E+02</totfact>
</mgrwt>
</event>
<event>
 5    0  0.1200001E+000  0.2896045E+03  0.7546771E-02  0.1090556E+00
         21   -1    0    0  503  501  0.00000000000E+00  0.00000000000E+00  0.14853590174E+04  0.14853590174E+04  0.00000000000E+00 0.  1.
         21   -1    0    0  504  502 -0.00000000000E+00 -0.00000000000E+00 -0.13258708155E+03  0.13258708155E+03  0.00000000000E+00 0.  1.
         25    1    1    2    0    0 -0.13641280316E+03 -0.27843016852E+03  0.20848525407E+03  0.39398339149E+03  0.12500000000E+03 0.  0.
         21    1    1    2  503  502  0.27998633197E+02  0.21309723047E+03  0.29333237187E+03  0.36364575273E+03  0.00000000000E+00 0.  1.
         21    1    1    2  504  501  0.10841416996E+03  0.65332938052E+02  0.85095430988E+03  0.86031695470E+03  0.00000000000E+00 0.  1.
<mgrwt>
<rscale>  4 0.28960445E+03</rscale>
<asrwt>0</asrwt>
<pdfrwt beam="1">  1       21 0.22851676E+00 0.28960445E+03</pdfrwt>
<pdfrwt beam="2">  1       21 0.20398014E-01 0.28960445E+03</pdfrwt>
<totfact> 0.18191188E+03</totfact>
</mgrwt>
</event>
<event>
 5    0  0.1200001E+000  0.3679638E+03  0.7546771E-02  0.1055474E+00
         21   -1    0    0  503  501  0.00000000000E+00  0.00000000000E+00  0.15633285633E+03  0.15633285633E+03  0.00000000000E+00 0.  1.
         21   -1    0    0  501  502 -0.00000000000E+00 -0.00000000000E+00 -0.13560470715E+04  0.13560470715E+04  0.00000000000E+00 0. -1.
         25    1    1    2    0    0 -0.10284167119E+03  0.33929058919E+03 -0.10408752063E+04  0.11066800388E+04  0.12500000000E+03 0.  0.
         21    1    1    2  503  504 -0.11837833860E+01 -0.34831952282E+02  0.17290883618E+02  0.38905538155E+02  0.00000000000E+00 0.  1.
         21    1    1    2  504  502  0.10402545458E+03 -0.30445863690E+03 -0.17612989250E+03  0.36679435085E+03  0.00000000000E+00 0.  1.
<mgrwt>
<rscale>  4 0.36796379E+03</rscale>
<asrwt>0</asrwt>
<pdfrwt beam="1">  1       21 0.24051209E-01 0.36796379E+03</pdfrwt>
<pdfrwt beam="2">  1       21 0.20862262E+00 0.36796379E+03</pdfrwt>
<totfact> 0.16883696E+03</totfact>
</mgrwt>
</event>
<event>
 5    0  0.1200001E+000  0.2346255E+03  0.7546771E-02  0.1123426E+00
         21   -1    0    0  503  501  0.00000000000E+00  0.00000000000E+00  0.10120004069E+04  0.10120004069E+04  0.00000000000E+00 0.  1.
         21   -1    0    0  504  502 -0.00000000000E+00 -0.00000000000E+00 -0.86506192370E+02  0.86506192370E+02  0.00000000000E+00 0.  1.
         25    1    1    2    0    0  0.20934080356E+03 -0.42454712942E+02  0.16358852130E+03  0.29666846645E+03  0.12500000000E+03 0.  0.
         21    1    1    2  503  502 -0.16060777134E+03  0.65112747600E+02  0.39952136954E+03  0.43549035677E+03  0.00000000000E+00 0.  1.
         21    1    1    2  504  501 -0.48733032221E+02 -0.22658034658E+02  0.36238432369E+03  0.36634777606E+03  0.00000000000E+00 0.  1.
<mgrwt>
<rscale>  4 0.23462550E+03</rscale>
<asrwt>0</asrwt>
<pdfrwt beam="1">  1       21 0.15569236E+00 0.23462550E+03</pdfrwt>
<pdfrwt beam="2">  1       21 0.13308646E-01 0.23462550E+03</pdfrwt>
<totfact> 0.12820332E+04</totfact>
</mgrwt>
</event>
<event>
 5    0  0.1200001E+000  0.5588791E+03  0.7546771E-02  0.9994594E-01
         21   -1    0    0  503  501  0.00000000000E+00  0.00000000000E+00  0.18996060831E+04  0.18996060831E+04  0.00000000000E+00 0.  1.
         21   -1    0    0  504  502 -0.00000000000E+00 -0.00000000000E+00 -0.30010010522E+03  0.30010010522E+03  0.00000000000E+00 0.  1.
         25    1    1    2    0    0  0.18745261909E+03  0.60276059209E+03  0.29580913484E+03  0.70822797180E+03  0.12500000000E+03 0.  0.
         21    1    1    2  503  502 -0.25968550144E+03 -0.30997890264E+03  0.90795032711E+03  0.99393021699E+03  0.00000000000E+00 0.  1.
         21    1    1    2  504  501  0.72232882351E+02 -0.29278168944E+03  0.39574651590E+03  0.49754799950E+03  0.00000000000E+00 0.  1.
<mgrwt>
<rscale>  4 0.55887911E+03</rscale>
<asrwt>0</asrwt>
<pdfrwt beam="1">  1       21 0.29224708E+00 0.55887911E+03</pdfrwt>
<pdfrwt beam="2">  1       21 0.46169248E-01 0.55887911E+03</pdfrwt>
<totfact> 0.12470670E+02</totfact>
</mgrwt>
</event>
<event>
 5    0  0.1200001E+000  0.2386689E+03  0.7546771E-02  0.1120683E+00
         21   -1    0    0  503  501  0.00000000000E+00  0.00000000000E+00  0.21073436901E+03  0.21073436901E+03  0.00000000000E+00 0.  1.
         21   -1    0    0  501  502 -0.00000000000E+00 -0.00000000000E+00 -0.36196854058E+03  0.36196854058E+03  0.00000000000E+00 0.  1.
         25    1    1    2    0    0  0.16297888392E+03  0.14399670579E+03 -0.13543145695E+03  0.28506814521E+03  0.12500000000E+03 0.  0.
         21    1    1    2  503  504 -0.37773613895E+02  0.19489792227E+01  0.68049336655E+02  0.77854714988E+02  0.00000000000E+00 0.  1.
         21    1    1    2  504  502 -0.12520527002E+03 -0.14594568502E+03 -0.83852051278E+02  0.20978004939E+03  0.00000000000E+00 0.  1.
<mgrwt>
<rscale>  4 0.23866890E+03</rscale>
<asrwt>0</asrwt>
<pdfrwt beam="1">  1       21 0.32420673E-01 0.23866890E+03</pdfrwt>
<pdfrwt beam="2">  1       21 0.55687467E-01 0.23866890E+03</pdfrwt>
<totfact> 0.27148489E+04</totfact>
</mgrwt>
</event>
<event>
 5    0  0.1200001E+000  0.3122411E+03  0.7546771E-02  0.1079277E+00
         21   -1    0    0  503  501  0.00000000000E+00  0.00000000000E+00  0.99500510163E+02  0.99500510163E+02  0.00000000000E+00 0. -1.
         21   -1    0    0  504  502 -0.00000000000E+00 -0.00000000000E+00 -0.17339983579E+04  0.17339983579E+04  0.00000000000E+00 0. -1.
         25    1    1    2    0    0  0.16868251350E+03 -0.24268415834E+03 -0.42630728564E+03  0.53358438213E+03  0.12500000000E+03 0.  0.
         21    1    1    2  503  502 -0.11933903030E+03  0.25802486524E+03 -0.12149810085E+04  0.12477970533E+04  0.00000000000E+00 0. -1.
         21    1    1    2  504  501 -0.49343483199E+02 -0.15340706903E+02  0.67904463857E+01  0.52117432636E+02  0.00000000000E+00 0. -1.
<mgrwt>
<rscale>  4 0.31224106E+03</rscale>
<asrwt>0</asrwt>
<pdfrwt beam="1">  1       21 0.15307772E-01 0.31224106E+03</pdfrwt>
<pdfrwt beam="2">  1       21 0.26676896E+00 0.31224106E+03</pdfrwt>
<totfact> 0.17948157E+03</totfact>
</mgrwt>
</event>
<event>
 5    0  0.1200001E+000  0.3235507E+03  0.7546771E-02  0.1074027E+00
         21   -1    0    0  503  501  0.00000000000E+00  0.00000000000E+00  0.31448196330E+03  0.31448196330E+03  0.00000000000E+00 0. -1.
         21   -1    0    0  501  502 -0.00000000000E+00 -0.00000000000E+00 -0.49371682266E+03  0.49371682266E+03  0.00000000000E+00 0. -1.
         25    1    1    2    0    0  0.28987370432E+03  0.13230172043E+03 -0.51607833153E+01  0.34231877449E+03  0.12500000000E+03 0.  0.
         21    1    1    2  503  504 -0.78230964326E+01 -0.58617912513E+02  0.65720331270E+02  0.88410533578E+02  0.00000000000E+00 0. -1.
         21    1    1    2  504  502 -0.28205060789E+03 -0.73683807917E+02 -0.23979440731E+03  0.37746947789E+03  0.00000000000E+00 0. -1.
<mgrwt>
<rscale>  4 0.32355066E+03</rscale>
<asrwt>0</asrwt>
<pdfrwt beam="1">  1       21 0.48381841E-01 0.32355066E+03</pdfrwt>
<pdfrwt beam="2">  1       21 0.75956434E-01 0.32355066E+03</pdfrwt>
<totfact> 0.58359126E+03</totfact>
</mgrwt>
</event>
<event>
 5    0  0.1200001E+000  0.3237587E+03  0.7546771E-02  0.1073932E+00
         21   -1    0    0  502  501  0.00000000000E+00  0.00000000000E+00  0.13040382701E+03  0.13040382701E+03  0.00000000000E+00 0. -1.
         21   -1    0    0  504  502 -0.00000000000E+00 -0.00000000000E+00 -0.10789775364E+04  0.10789775364E+04  0.00000000000E+00 0. -1.
         25    1    1    2    0    0 -0.29025892310E+03 -0.88861402256E+02 -0.77609090843E+03  0.84266760315E+03  0.12500000000E+03 0.  0.
         21    1    1    2  503  501  0.26479557909E+03  0.11199577288E+03 -0.16506114699E+03  0.33151913081E+03  0.00000000000E+00 0. -1.
         21    1    1    2  504  503  0.25463344013E+02 -0.23134370622E+02 -0.74216539251E+01  0.35194629411E+02  0.00000000000E+00 0. -1.
<mgrwt>
<rscale>  4 0.32375873E+03</rscale>
<asrwt>0</asrwt>
<pdfrwt beam="1">  1       21 0.20062128E-01 0.32375873E+03</pdfrwt>
<pdfrwt beam="2">  1       21 0.16599654E+00 0.32375873E+03</pdfrwt>
<totfact> 0.47850227E+03</totfact>
</mgrwt>
</event>
<event>
 5    0  0.1200001E+000  0.2409334E+03  0.7546771E-02  0.1119173E+00
         21   -1    0    0  503  501  0.00000000000E+00  0.00000000000E+00  0.13668602176E+04  0.13668602176E+04  0.00000000000E+00 0. -1.
         21   -1    0    0  501  502 -0.00000000000E+00 -0.00000000000E+00 -0.65166329721E+02  0.65166329721E+02  0.00000000000E+00 0. -1.
         25    1    1    2    0    0 -0.11930444519E+03 -0.16817083686E+03  0.76613878151E+03  0.80318653720E+03  0.12500000000E+03 0.  0.
         21    1    1    2  503  504 -0.18431787565E+02  0.14704469819E+02  0.35193788716E+03  0.35272684707E+03  0.00000000000E+00 0. -1.
         21    1    1    2  504  502  0.13773623276E+03  0.15346636704E+03  0.18361721926E+03  0.27611316310E+03  0.00000000000E+00 0. -1.
<mgrwt>
<rscale>  4 0.24093342E+03</rscale>
<asrwt>0</asrwt>
<pdfrwt beam="1">  1       21 0.21028617E+00 0.24093342E+03</pdfrwt>
<pdfrwt beam="2">  1       21 0.10025590E-01 0.24093342E+03</pdfrwt>
<totfact> 0.89802714E+03</totfact>
</mgrwt>
</event>
<event>
 5    0  0.1200001E+000  0.2608015E+03  0.7546771E-02  0.1106663E+00
         21   -1    0    0  503  501  0.00000000000E+00  0.00000000000E+00  0.35394863795E+03  0.35394863795E+03  0.00000000000E+00 0. -1.
         21   -1    0    0  504  502 -0.00000000000E+00 -0.00000000000E+00 -0.32468279517E+03  0.32468279517E+03  0.00000000000E+00 0. -1.
         25    1    1    2    0    0 -0.18814887288E+03  0.11635525297E+03 -0.17924305201E+03  0.31095275357E+03  0.12500000000E+03 0.  0.
         21    1    1    2  503  502  0.20341660971E+03 -0.15660244634E+03  0.15853527831E+03  0.30172185498E+03  0.00000000000E+00 0. -1.
         21    1    1    2  504  501 -0.15267736832E+02  0.40247193375E+02  0.49973616485E+02  0.65956824568E+02  0.00000000000E+00 0. -1.
<mgrwt>
<rscale>  4 0.26080151E+03</rscale>
<asrwt>0</asrwt>
<pdfrwt beam="1">  1       21 0.54453637E-01 0.26080151E+03</pdfrwt>
<pdfrwt beam="2">  1       21 0.49951199E-01 0.26080151E+03</pdfrwt>
<totfact> 0.11683438E+04</totfact>
</mgrwt>
</event>
<event>
 5    0  0.1200001E+000  0.2707794E+03  0.7546771E-02  0.1100834E+00
         21   -1    0    0  503  501  0.00000000000E+00  0.00000000000E+00  0.71777540993E+02  0.71777540993E+02  0.00000000000E+00 0. -1.
         21   -1    0    0  504  502 -0.00000000000E+00 -0.00000000000E+00 -0.12447552834E+04  0.12447552834E+04  0.00000000000E+00 0. -1.
         25    1    1    2    0    0 -0.23840916206E+03 -0.84768935991E+01 -0.72501074805E+03  0.77341862602E+03  0.12500000000E+03 0.  0.
         21    1    1    2  503  502  0.24239527503E+03 -0.19155975428E+02 -0.45357428010E+03  0.51463778361E+03  0.00000000000E+00 0. -1.
         21    1    1    2  504  501 -0.39861129683E+01  0.27632869027E+02  0.56072857054E+01  0.28476414806E+02  0.00000000000E+00 0.  1.
<mgrwt>
<rscale>  4 0.27077943E+03</rscale>
<asrwt>0</asrwt>
<pdfrwt beam="1">  1       21 0.11042698E-01 0.27077943E+03</pdfrwt>
<pdfrwt beam="2">  1       21 0.19150082E+00 0.27077943E+03</pdfrwt>
<totfact> 0.98153587E+03</totfact>
</mgrwt>
</event>
<event>
 5    0  0.1200001E+000  0.2545094E+03  0.7546771E-02  0.1110488E+00
         21   -1    0    0  503  501  0.00000000000E+00  0.00000000000E+00  0.12520115569E+03  0.12520115569E+03  0.00000000000E+00 0.  1.
         21   -1    0    0  501  502 -0.00000000000E+00 -0.00000000000E+00 -0.22471681981E+04  0.22471681981E+04  0.00000000000E+00 0.  1.
         25    1    1    2    0    0 -0.10472734846E+03  0.21693414659E+03 -0.17882211745E+04  0.18086979324E+04  0.12500000000E+03 0.  0.
         21    1    1    2  503  504  0.70709528214E+02 -0.20902560245E+03  0.73580202669E+01  0.22078423929E+03  0.00000000000E+00 0.  1.
         21    1    1    2  504  502  0.34017820249E+02 -0.79085441417E+01 -0.34110388817E+03  0.34288718216E+03  0.00000000000E+00 0.  1.
<mgrwt>
<rscale>  4 0.25450936E+03</rscale>
<asrwt>0</asrwt>
<pdfrwt beam="1">  1       21 0.19261718E-01 0.25450936E+03</pdfrwt>
<pdfrwt beam="2">  1       21 0.34571816E+00 0.25450936E+03</pdfrwt>
<totfact> 0.42216172E+02</totfact>
</mgrwt>
</event>
<event>
 5    0  0.1200001E+000  0.3301529E+03  0.7546771E-02  0.1071069E+00
         21   -1    0    0  502  501  0.00000000000E+00  0.00000000000E+00  0.22513699087E+04  0.22513699087E+04  0.00000000000E+00 0. -1.
         21   -1    0    0  503  502 -0.00000000000E+00 -0.00000000000E+00 -0.50096756193E+02  0.50096756193E+02  0.00000000000E+00 0.  1.
         25    1    1    2    0    0  0.43729599961E+02 -0.30242963477E+03  0.84157972860E+03  0.90402289876E+03  0.12500000000E+03 0.  0.
         21    1    1    2  503  504 -0.40621293825E+02  0.32776684018E+02  0.25785606447E+03  0.26308582347E+03  0.00000000000E+00 0. -1.
         21    1    1    2  504  501 -0.31083061358E+01  0.26965295075E+03  0.11018373595E+04  0.11343579427E+04  0.00000000000E+00 0. -1.
<mgrwt>
<rscale>  4 0.33015294E+03</rscale>
<asrwt>0</asrwt>
<pdfrwt beam="1">  1       21 0.34636452E+00 0.33015294E+03</pdfrwt>
<pdfrwt beam="2">  1       21 0.77071950E-02 0.33015294E+03</pdfrwt>
<totfact> 0.20449896E+03</totfact>
</mgrwt>
</event>
<event>
 5    0  0.1200001E+000  0.4285773E+03  0.7546771E-02  0.1034310E+00
         21   -1    0    0  503  501  0.00000000000E+00  0.00000000000E+00  0.49227531906E+03  0.49227531906E+03  0.00000000000E+00 0. -1.
         21   -1    0    0  504  502 -0.00000000000E+00 -0.00000000000E+00 -0.38562004168E+03  0.38562004168E+03  0.00000000000E+00 0. -1.
         25    1    1    2    0    0  0.42316780364E+01 -0.39369408438E+03  0.21510885153E+02  0.41364315219E+03  0.12500000000E+03 0.  0.
         21    1    1    2  503  502 -0.99181417017E+01  0.42414883781E+03  0.87456362253E+02  0.43318497371E+03  0.00000000000E+00 0. -1.
         21    1    1    2  504  501  0.56864636653E+01 -0.30454753430E+02 -0.23119700207E+01  0.31067234844E+02  0.00000000000E+00 0.  1.
<mgrwt>
<rscale>  4 0.42857729E+03</rscale>
<asrwt>0</asrwt>
<pdfrwt beam="1">  1       21 0.75734664E-01 0.42857729E+03</pdfrwt>
<pdfrwt beam="2">  1       21 0.59326160E-01 0.42857729E+03</pdfrwt>
<totfact> 0.36375151E+03</totfact>
</mgrwt>
</event>
<event>
 5    0  0.1200001E+000  0.2901133E+03  0.7546771E-02  0.1090290E+00
         21   -1    0    0  503  501  0.00000000000E+00  0.00000000000E+00  0.25525576023E+03  0.25525576023E+03  0.00000000000E+00 0. -1.
         21   -1    0    0  504  502 -0.00000000000E+00 -0.00000000000E+00 -0.79627457478E+03  0.79627457478E+03  0.00000000000E+00 0.  1.
         25    1    1    2    0    0 -0.84888766933E+02  0.24505218006E+03 -0.66600213992E+03  0.72556221241E+03  0.12500000000E+03 0.  0.
         21    1    1    2  503  502  0.96447352249E+02 -0.26233898483E+03  0.12195443842E+03  0.30495363544E+03  0.00000000000E+00 0. -1.
         21    1    1    2  504  501 -0.11558585316E+02  0.17286804775E+02  0.30288869513E+01  0.21014487146E+02  0.00000000000E+00 0.  1.
<mgrwt>
<rscale>  4 0.29011328E+03</rscale>
<asrwt>0</asrwt>
<pdfrwt beam="1">  1       21 0.39270118E-01 0.29011328E+03</pdfrwt>
<pdfrwt beam="2">  1       21 0.12250378E+00 0.29011328E+03</pdfrwt>
<totfact> 0.29225225E+03</totfact>
</mgrwt>
</event>
<event>
 5    0  0.1200001E+000  0.2956579E+03  0.7546771E-02  0.1087432E+00
         21   -1    0    0  503  501  0.00000000000E+00  0.00000000000E+00  0.81897294264E+03  0.81897294264E+03  0.00000000000E+00 0. -1.
         21   -1    0    0  501  502 -0.00000000000E+00 -0.00000000000E+00 -0.20021041321E+03  0.20021041321E+03  0.00000000000E+00 0. -1.
         25    1    1    2    0    0  0.96648410380E+02  0.24365183512E+03 -0.28021177459E+02  0.29174872472E+03  0.12500000000E+03 0.  0.
         21    1    1    2  503  504  0.30254926378E+02  0.22471626060E+02  0.85142631106E+02  0.93110698523E+02  0.00000000000E+00 0. -1.
         21    1    1    2  504  502 -0.12690333676E+03 -0.26612346118E+03  0.56164107579E+03  0.63432393261E+03  0.00000000000E+00 0. -1.
<mgrwt>
<rscale>  4 0.29565786E+03</rscale>
<asrwt>0</asrwt>
<pdfrwt beam="1">  1       21 0.12599584E+00 0.29565786E+03</pdfrwt>
<pdfrwt beam="2">  1       21 0.30801603E-01 0.29565786E+03</pdfrwt>
<totfact> 0.44138676E+03</totfact>
</mgrwt>
</event>
<event>
 5    0  0.1200001E+000  0.2433890E+03  0.7546771E-02  0.1117556E+00
         21   -1    0    0  503  501  0.00000000000E+00  0.00000000000E+00  0.74275202203E+03  0.74275202203E+03  0.00000000000E+00 0.  1.
         21   -1    0    0  504  502 -0.00000000000E+00 -0.00000000000E+00 -0.21757933624E+03  0.21757933624E+03  0.00000000000E+00 0.  1.
         25    1    1    2    0    0 -0.11505037095E+03  0.17079491821E+03 -0.10531178296E+03  0.26291265388E+03  0.12500000000E+03 0.  0.
         21    1    1    2  503  502  0.17252986883E+03 -0.15998988828E+03  0.54726122951E+03  0.59569973419E+03  0.00000000000E+00 0.  1.
         21    1    1    2  504  501 -0.57479497886E+02 -0.10805029936E+02  0.83223239234E+02  0.10171897020E+03  0.00000000000E+00 0.  1.
<mgrwt>
<rscale>  4 0.24338896E+03</rscale>
<asrwt>0</asrwt>
<pdfrwt beam="1">  1       21 0.11426954E+00 0.24338896E+03</pdfrwt>
<pdfrwt beam="2">  1       21 0.33473744E-01 0.24338896E+03</pdfrwt>
<totfact> 0.49305986E+03</totfact>
</mgrwt>
</event>
<event>
 5    0  0.1200001E+000  0.4118453E+03  0.7546771E-02  0.1039754E+00
         21   -1    0    0  503  501  0.00000000000E+00  0.00000000000E+00  0.49149135209E+03  0.49149135209E+03  0.00000000000E+00 0. -1.
         21   -1    0    0  504  502 -0.00000000000E+00 -0.00000000000E+00 -0.44333081597E+03  0.44333081597E+03  0.00000000000E+00 0. -1.
         25    1    1    2    0    0  0.15981029718E+03 -0.35840236968E+03 -0.20003056615E+03  0.45785239660E+03  0.12500000000E+03 0.  0.
         21    1    1    2  503  502 -0.17002482130E+03  0.32648794527E+03  0.20195404709E+03  0.41986694965E+03  0.00000000000E+00 0. -1.
         21    1    1    2  504  501  0.10214524117E+02  0.31914424406E+02  0.46237055170E+02  0.57102821812E+02  0.00000000000E+00 0.  1.
<mgrwt>
<rscale>  4 0.41184535E+03</rscale>
<asrwt>0</asrwt>
<pdfrwt beam="1">  1       21 0.75614054E-01 0.41184535E+03</pdfrwt>
<pdfrwt beam="2">  1       21 0.68204741E-01 0.41184535E+03</pdfrwt>
<totfact> 0.26990826E+03</totfact>
</mgrwt>
</event>
<event>
 5    0  0.1200001E+000  0.2404664E+03  0.7546771E-02  0.1119483E+00
         21   -1    0    0  502  501  0.00000000000E+00  0.00000000000E+00  0.90752908683E+03  0.90752908683E+03  0.00000000000E+00 0. -1.
         21   -1    0    0  503  502 -0.00000000000E+00 -0.00000000000E+00 -0.24091541385E+03  0.24091541385E+03  0.00000000000E+00 0.  1.
         25    1    1    2    0    0 -0.14832430212E+03  0.14049599755E+03 -0.15666588311E+03  0.28619647597E+03  0.12500000000E+03 0.  0.
         21    1    1    2  503  504  0.99254840265E+01  0.31266486464E+02  0.69438065269E+02  0.76796831427E+02  0.00000000000E+00 0.  1.
         21    1    1    2  504  501  0.13839881810E+03 -0.17176248401E+03  0.75384149082E+03  0.78545119329E+03  0.00000000000E+00 0. -1.
<mgrwt>
<rscale>  4 0.24046641E+03</rscale>
<asrwt>0</asrwt>
<pdfrwt beam="1">  1       21 0.13961986E+00 0.24046641E+03</pdfrwt>
<pdfrwt beam="2">  1       21 0.37063910E-01 0.24046641E+03</pdfrwt>
<totfact> 0.24300057E+03</totfact>
</mgrwt>
</event>
<event>
 5    0  0.1200001E+000  0.3016355E+03  0.7546771E-02  0.1084426E+00
         21   -1    0    0  503  501  0.00000000000E+00  0.00000000000E+00  0.18421849892E+04  0.18421849892E+04  0.00000000000E+00 0.  1.
         21   -1    0    0  501  502 -0.00000000000E+00 -0.00000000000E+00 -0.16636200681E+03  0.16636200681E+03  0.00000000000E+00 0.  1.
         25    1    1    2    0    0 -0.11986070772E+03 -0.23137483126E+03  0.61420955252E+02  0.29546308660E+03  0.12500000000E+03 0.  0.
         21    1    1    2  503  504  0.65699985163E+02 -0.97890933429E+02  0.10561042317E+04  0.10626642325E+04  0.00000000000E+00 0.  1.
         21    1    1    2  504  502  0.54160722558E+02  0.32926576469E+03  0.55829779545E+03  0.65041967688E+03  0.00000000000E+00 0.  1.
<mgrwt>
<rscale>  4 0.30163554E+03</rscale>
<asrwt>0</asrwt>
<pdfrwt beam="1">  1       21 0.28341306E+00 0.30163554E+03</pdfrwt>
<pdfrwt beam="2">  1       21 0.25594156E-01 0.30163554E+03</pdfrwt>
<totfact> 0.54678804E+02</totfact>
</mgrwt>
</event>
<event>
 5    0  0.1200001E+000  0.3602303E+03  0.7546771E-02  0.1058493E+00
         21   -1    0    0  503  501  0.00000000000E+00  0.00000000000E+00  0.68336190696E+03  0.68336190696E+03  0.00000000000E+00 0. -1.
         21   -1    0    0  504  502 -0.00000000000E+00 -0.00000000000E+00 -0.12041087583E+04  0.12041087583E+04  0.00000000000E+00 0.  1.
         25    1    1    2    0    0 -0.17938590048E+03 -0.29121651070E+03 -0.88453340119E+03  0.95656191395E+03  0.12500000000E+03 0.  0.
         21    1    1    2  503  502  0.24476896775E+03  0.22874286935E+03 -0.17955101242E+03  0.38009697962E+03  0.00000000000E+00 0.  1.
         21    1    1    2  504  501 -0.65383067270E+02  0.62473641354E+02  0.54333756223E+03  0.55081177173E+03  0.00000000000E+00 0. -1.
<mgrwt>
<rscale>  4 0.36023029E+03</rscale>
<asrwt>0</asrwt>
<pdfrwt beam="1">  1       21 0.10513260E+00 0.36023029E+03</pdfrwt>
<pdfrwt beam="2">  1       21 0.18524750E+00 0.36023029E+03</pdfrwt>
<totfact> 0.10326269E+02</totfact>
</mgrwt>
</event>
<event>
 5    0  0.1200001E+000  0.2211784E+03  0.7546771E-02  0.1133008E+00
         21   -1    0    0  503  501  0.00000000000E+00  0.00000000000E+00  0.18985424085E+04  0.18985424085E+04  0.00000000000E+00 0.  1.
         21   -1    0    0  504  502 -0.00000000000E+00 -0.00000000000E+00 -0.20565659710E+03  0.20565659710E+03  0.00000000000E+00 0.  1.
         25    1    1    2    0    0 -0.22478774753E+03  0.26198503367E+01 -0.49671130522E+02  0.26197064008E+03  0.12500000000E+03 0.  0.
         21    1    1    2  503  502  0.11637485119E+03 -0.10333534714E+03  0.83560563330E+02  0.17664559916E+03  0.00000000000E+00 0.  1.
         21    1    1    2  504  501  0.10841289634E+03  0.10071549681E+03  0.16589963786E+04  0.16655827663E+04  0.00000000000E+00 0.  1.
<mgrwt>
<rscale>  4 0.22117844E+03</rscale>
<asrwt>0</asrwt>
<pdfrwt beam="1">  1       21 0.29208344E+00 0.22117844E+03</pdfrwt>
<pdfrwt beam="2">  1       21 0.31639478E-01 0.22117844E+03</pdfrwt>
<totfact> 0.35005242E+02</totfact>
</mgrwt>
</event>
<event>
 5    0  0.1200001E+000  0.3492302E+03  0.7546771E-02  0.1062931E+00
         21   -1    0    0  503  501  0.00000000000E+00  0.00000000000E+00  0.10569915748E+04  0.10569915748E+04  0.00000000000E+00 0. -1.
         21   -1    0    0  504  502 -0.00000000000E+00 -0.00000000000E+00 -0.45299352472E+03  0.45299352472E+03  0.00000000000E+00 0.  1.
         25    1    1    2    0    0  0.10004293817E+03  0.34153677838E+03 -0.30612018775E+03  0.48578856493E+03  0.12500000000E+03 0.  0.
         21    1    1    2  503  502  0.27303323953E+02 -0.23845592471E+03  0.26040073862E+03  0.35414014769E+03  0.00000000000E+00 0. -1.
         21    1    1    2  504  501 -0.12734626212E+03 -0.10308085368E+03  0.64971749925E+03  0.67005638695E+03  0.00000000000E+00 0. -1.
<mgrwt>
<rscale>  4 0.34923017E+03</rscale>
<asrwt>0</asrwt>
<pdfrwt beam="1">  1       21 0.16261409E+00 0.34923017E+03</pdfrwt>
<pdfrwt beam="2">  1       21 0.69691312E-01 0.34923017E+03</pdfrwt>
<totfact> 0.39361674E+02</totfact>
</mgrwt>
</event>
<event>
 5    0  0.1200001E+000  0.5767513E+03  0.7546771E-02  0.9954849E-01
         21   -1    0    0  502  501  0.00000000000E+00  0.00000000000E+00  0.58946457879E+03  0.58946457879E+03  0.00000000000E+00 0.  1.
         21   -1    0    0  504  502 -0.00000000000E+00 -0.00000000000E+00 -0.61246594406E+03  0.61246594406E+03  0.00000000000E+00 0.  1.
         25    1    1    2    0    0 -0.52107650677E+03 -0.24452712783E+03 -0.13305336137E+03  0.60385630668E+03  0.12500000000E+03 0.  0.
         21    1    1    2  503  501  0.50360284162E+03  0.23450584853E+03  0.12912354636E+03  0.57033473093E+03  0.00000000000E+00 0.  1.
         21    1    1    2  504  503  0.17473665146E+02  0.10021279298E+02 -0.19071550254E+02  0.27739485242E+02  0.00000000000E+00 0. -1.
<mgrwt>
<rscale>  4 0.57675128E+03</rscale>
<asrwt>0</asrwt>
<pdfrwt beam="1">  1       21 0.90686858E-01 0.57675128E+03</pdfrwt>
<pdfrwt beam="2">  1       21 0.94225530E-01 0.57675128E+03</pdfrwt>
<totfact> 0.78743465E+02</totfact>
</mgrwt>
</event>
<event>
 5    0  0.1200001E+000  0.2446343E+03  0.7546771E-02  0.1116744E+00
         21   -1    0    0  502  501  0.00000000000E+00  0.00000000000E+00  0.18930327928E+04  0.18930327928E+04  0.00000000000E+00 0. -1.
         21   -1    0    0  503  502 -0.00000000000E+00 -0.00000000000E+00 -0.11590251997E+03  0.11590251997E+03  0.00000000000E+00 0. -1.
         25    1    1    2    0    0  0.19280017005E+03 -0.10583651031E+03  0.89897918498E+02  0.26847701621E+03  0.12500000000E+03 0.  0.
         21    1    1    2  503  504 -0.20593570898E+03 -0.15335485302E+01  0.41158234348E+03  0.46023026136E+03  0.00000000000E+00 0. -1.
         21    1    1    2  504  501  0.13135538934E+02  0.10737005884E+03  0.12756500108E+04  0.12802280352E+04  0.00000000000E+00 0. -1.
<mgrwt>
<rscale>  4 0.24463432E+03</rscale>
<asrwt>0</asrwt>
<pdfrwt beam="1">  1       21 0.29123579E+00 0.24463432E+03</pdfrwt>
<pdfrwt beam="2">  1       21 0.17831158E-01 0.24463432E+03</pdfrwt>
<totfact> 0.10299609E+03</totfact>
</mgrwt>
</event>
<event>
 5    0  0.1200001E+000  0.2529760E+03  0.7546771E-02  0.1111438E+00
         21   -1    0    0  503  501  0.00000000000E+00  0.00000000000E+00  0.11066834167E+03  0.11066834167E+03  0.00000000000E+00 0.  1.
         21   -1    0    0  504  502 -0.00000000000E+00 -0.00000000000E+00 -0.75575973356E+03  0.75575973356E+03  0.00000000000E+00 0.  1.
         25    1    1    2    0    0  0.21287900194E+03  0.31497083621E+02 -0.48159628785E+03  0.54209733463E+03  0.12500000000E+03 0.  0.
         21    1    1    2  503  502 -0.21975306224E+03 -0.77678334908E+02 -0.14202941617E+03  0.27294264441E+03  0.00000000000E+00 0.  1.
         21    1    1    2  504  501  0.68740603027E+01  0.46181251287E+02 -0.21465687867E+02  0.51388096200E+02  0.00000000000E+00 0. -1.
<mgrwt>
<rscale>  4 0.25297604E+03</rscale>
<asrwt>0</asrwt>
<pdfrwt beam="1">  1       21 0.17025899E-01 0.25297604E+03</pdfrwt>
<pdfrwt beam="2">  1       21 0.11627073E+00 0.25297604E+03</pdfrwt>
<totfact> 0.17136603E+04</totfact>
</mgrwt>
</event>
<event>
 5    0  0.1200001E+000  0.2305488E+03  0.7546771E-02  0.1126254E+00
         21   -1    0    0  502  501  0.00000000000E+00  0.00000000000E+00  0.50797842226E+03  0.50797842226E+03  0.00000000000E+00 0.  1.
         21   -1    0    0  503  502 -0.00000000000E+00 -0.00000000000E+00 -0.21937918521E+03  0.21937918521E+03  0.00000000000E+00 0.  1.
         25    1    1    2    0    0 -0.17688475891E+03  0.11806289824E+03 -0.70049303785E+02  0.25643512013E+03  0.12500000000E+03 0.  0.
         21    1    1    2  503  504  0.61391531408E+01 -0.13221864929E+03  0.13345328185E+03  0.18796073754E+03  0.00000000000E+00 0.  1.
         21    1    1    2  504  501  0.17074560576E+03  0.14155751048E+02  0.22519525899E+03  0.28296174980E+03  0.00000000000E+00 0.  1.
<mgrwt>
<rscale>  4 0.23054875E+03</rscale>
<asrwt>0</asrwt>
<pdfrwt beam="1">  1       21 0.78150526E-01 0.23054875E+03</pdfrwt>
<pdfrwt beam="2">  1       21 0.33750644E-01 0.23054875E+03</pdfrwt>
<totfact> 0.11969308E+04</totfact>
</mgrwt>
</event>
<event>
 5    0  0.1200001E+000  0.2582885E+03  0.7546771E-02  0.1108176E+00
         21   -1    0    0  503  501  0.00000000000E+00  0.00000000000E+00  0.27056203085E+03  0.27056203085E+03  0.00000000000E+00 0.  1.
         21   -1    0    0  501  502 -0.00000000000E+00 -0.00000000000E+00 -0.70969945796E+03  0.70969945796E+03  0.00000000000E+00 0.  1.
         25    1    1    2    0    0  0.15651838287E+03  0.12485320346E+03  0.80180349221E+02  0.24927939143E+03  0.12500000000E+03 0.  0.
         21    1    1    2  503  504  0.10015957512E+02  0.32953992459E+02  0.81160952786E+02  0.88166803736E+02  0.00000000000E+00 0.  1.
         21    1    1    2  504  502 -0.16653434038E+03 -0.15780719592E+03 -0.60047872912E+03  0.64281529364E+03  0.00000000000E+00 0.  1.
<mgrwt>
<rscale>  4 0.25828854E+03</rscale>
<asrwt>0</asrwt>
<pdfrwt beam="1">  1       21 0.41624929E-01 0.25828854E+03</pdfrwt>
<pdfrwt beam="2">  1       21 0.10918453E+00 0.25828854E+03</pdfrwt>
<totfact> 0.35188686E+03</totfact>
</mgrwt>
</event>
<event>
 5    0  0.1200001E+000  0.2740110E+03  0.7546771E-02  0.1099006E+00
         21   -1    0    0  503  501  0.00000000000E+00  0.00000000000E+00  0.77150988840E+03  0.77150988840E+03  0.00000000000E+00 0.  1.
         21   -1    0    0  501  502 -0.00000000000E+00 -0.00000000000E+00 -0.19037420977E+03  0.19037420977E+03  0.00000000000E+00 0.  1.
         25    1    1    2    0    0  0.25793238062E+03 -0.33094996222E+01  0.42920343890E+02  0.28983999324E+03  0.12500000000E+03 0.  0.
         21    1    1    2  503  504 -0.32029401860E+02  0.39485115340E+02  0.40320227934E+03  0.40639517097E+03  0.00000000000E+00 0.  1.
         21    1    1    2  504  502 -0.22590297876E+03 -0.36175615718E+02  0.13501305540E+03  0.26564893396E+03  0.00000000000E+00 0.  1.
<mgrwt>
<rscale>  4 0.27401103E+03</rscale>
<asrwt>0</asrwt>
<pdfrwt beam="1">  1       21 0.11869383E+00 0.27401103E+03</pdfrwt>
<pdfrwt beam="2">  1       21 0.29288340E-01 0.27401103E+03</pdfrwt>
<totfact> 0.57345655E+03</totfact>
</mgrwt>
</event>
<event>
 5    0  0.1200001E+000  0.3775534E+03  0.7546771E-02  0.1051842E+00
         21   -1    0    0  503  501  0.00000000000E+00  0.00000000000E+00  0.41074671789E+03  0.41074671789E+03  0.00000000000E+00 0. -1.
         21   -1    0    0  501  502 -0.00000000000E+00 -0.00000000000E+00 -0.88507188313E+03  0.88507188313E+03  0.00000000000E+00 0.  1.
         25    1    1    2    0    0 -0.35161729033E+03 -0.71590464954E+02 -0.73512812040E+03  0.82752538748E+03  0.12500000000E+03 0.  0.
         21    1    1    2  503  504  0.12248155398E+02  0.36240306738E+02  0.63546916248E+02  0.74172688423E+02  0.00000000000E+00 0. -1.
         21    1    1    2  504  502  0.33936913493E+03  0.35350158215E+02  0.19725603891E+03  0.39412052511E+03  0.00000000000E+00 0. -1.
<mgrwt>
<rscale>  4 0.37755339E+03</rscale>
<asrwt>0</asrwt>
<pdfrwt beam="1">  1       21 0.63191803E-01 0.37755339E+03</pdfrwt>
<pdfrwt beam="2">  1       21 0.13616490E+00 0.37755339E+03</pdfrwt>
<totfact> 0.77628371E+02</totfact>
</mgrwt>
</event>
<event>
 5    0  0.1200001E+000  0.2400033E+03  0.7546771E-02  0.1119791E+00
         21   -1    0    0  503  501  0.00000000000E+00  0.00000000000E+00  0.47005820636E+03  0.47005820636E+03  0.00000000000E+00 0. -1.
         21   -1    0    0  504  502 -0.00000000000E+00 -0.00000000000E+00 -0.27173987383E+03  0.27173987383E+03  0.00000000000E+00 0. -1.
         25    1    1    2    0    0 -0.87536353619E+01 -0.20212448693E+03 -0.31984220487E+02  0.23995608913E+03  0.12500000000E+03 0.  0.
         21    1    1    2  503  502  0.84262795135E+02  0.19587424534E+03 -0.43609842104E+02  0.21764364672E+03  0.00000000000E+00 0. -1.
         21    1    1    2  504  501 -0.75509159773E+02  0.62502415928E+01  0.27391239512E+03  0.28419834434E+03  0.00000000000E+00 0. -1.
<mgrwt>
<rscale>  4 0.24000330E+03</rscale>
<asrwt>0</asrwt>
<pdfrwt beam="1">  1       21 0.72316647E-01 0.24000330E+03</pdfrwt>
<pdfrwt beam="2">  1       21 0.41806134E-01 0.24000330E+03</pdfrwt>
<totfact> 0.92090998E+03</totfact>
</mgrwt>
</event>
<event>
 5    0  0.1200001E+000  0.3593027E+03  0.7546771E-02  0.1058860E+00
         21   -1    0    0  503  501  0.00000000000E+00  0.00000000000E+00  0.15555054441E+03  0.15555054441E+03  0.00000000000E+00 0. -1.
         21   -1    0    0  501  502 -0.00000000000E+00 -0.00000000000E+00 -0.97912782645E+03  0.97912782645E+03  0.00000000000E+00 0. -1.
         25    1    1    2    0    0  0.14058155457E+03  0.28443220197E+03 -0.35940772036E+03  0.49544299415E+03  0.12500000000E+03 0.  0.
         21    1    1    2  503  504 -0.10525607614E+02  0.45190347978E+02  0.98238776383E+01  0.47428520300E+02  0.00000000000E+00 0. -1.
         21    1    1    2  504  502 -0.13005594696E+03 -0.32962254995E+03 -0.47399343932E+03  0.59180685641E+03  0.00000000000E+00 0. -1.
<mgrwt>
<rscale>  4 0.35930275E+03</rscale>
<asrwt>0</asrwt>
<pdfrwt beam="1">  1       21 0.23930853E-01 0.35930275E+03</pdfrwt>
<pdfrwt beam="2">  1       21 0.15063505E+00 0.35930275E+03</pdfrwt>
<totfact> 0.43840099E+03</totfact>
</mgrwt>
</event>
<event>
 5    0  0.1200001E+000  0.2879128E+03  0.7546771E-02  0.1091444E+00
         21   -1    0    0  502  501  0.00000000000E+00  0.00000000000E+00  0.24680312213E+04  0.24680312213E+04  0.00000000000E+00 0.  1.
         21   -1    0    0  504  502 -0.00000000000E+00 -0.00000000000E+00 -0.59673215681E+03  0.59673215681E+03  0.00000000000E+00 0.  1.
         25    1    1    2    0    0  0.25928850708E+03  0.61869889071E+01 -0.55438450454E+03  0.62468871256E+03  0.12500000000E+03 0.  0.
         21    1    1    2  503  501 -0.23573327346E+03  0.72649552142E+01  0.22471037346E+04  0.22594464255E+04  0.00000000000E+00 0.  1.
         21    1    1    2  504  503 -0.23555233621E+02 -0.13451944121E+02  0.17857983440E+03  0.18062824001E+03  0.00000000000E+00 0. -1.
<mgrwt>
<rscale>  4 0.28791285E+03</rscale>
<asrwt>0</asrwt>
<pdfrwt beam="1">  1       21 0.37969711E+00 0.28791285E+03</pdfrwt>
<pdfrwt beam="2">  1       21 0.91804949E-01 0.28791285E+03</pdfrwt>
<totfact> 0.99213711E+00</totfact>
</mgrwt>
</event>
<event>
 5    0  0.1200001E+000  0.2359709E+03  0.7546771E-02  0.1122506E+00
         21   -1    0    0  502  501  0.00000000000E+00  0.00000000000E+00  0.20722403255E+03  0.20722403255E+03  0.00000000000E+00 0. -1.
         21   -1    0    0  504  502 -0.00000000000E+00 -0.00000000000E+00 -0.33044099827E+03  0.33044099827E+03  0.00000000000E+00 0.  1.
         25    1    1    2    0    0 -0.14249612630E+03 -0.14054217782E+03 -0.21090930855E+03  0.31648852458E+03  0.12500000000E+03 0.  0.
         21    1    1    2  503  501  0.12304126557E+03  0.13243890974E+03  0.85543482707E+02  0.19999226305E+03  0.00000000000E+00 0. -1.
         21    1    1    2  504  503  0.19454860737E+02  0.81032680766E+01  0.21488601225E+01  0.21184243193E+02  0.00000000000E+00 0.  1.
<mgrwt>
<rscale>  4 0.23597087E+03</rscale>
<asrwt>0</asrwt>
<pdfrwt beam="1">  1       21 0.31880620E-01 0.23597087E+03</pdfrwt>
<pdfrwt beam="2">  1       21 0.50837077E-01 0.23597087E+03</pdfrwt>
<totfact> 0.34074852E+04</totfact>
</mgrwt>
</event>
<event>
 5    0  0.1200001E+000  0.2636829E+03  0.7546771E-02  0.1104950E+00
         21   -1    0    0  502  501  0.00000000000E+00  0.00000000000E+00  0.14522964428E+03  0.14522964428E+03  0.00000000000E+00 0. -1.
         21   -1    0    0  503  502 -0.00000000000E+00 -0.00000000000E+00 -0.82531323365E+03  0.82531323365E+03  0.00000000000E+00 0.  1.
         25    1    1    2    0    0 -0.19660939143E+03  0.43409213679E+02 -0.62784603896E+03  0.67108513713E+03  0.12500000000E+03 0.  0.
         21    1    1    2  503  504 -0.38594830817E+02 -0.69964753741E+01 -0.47237032385E+02  0.61399094961E+02  0.00000000000E+00 0. -1.
         21    1    1    2  504  501  0.23520422225E+03 -0.36412738304E+02 -0.50005180195E+01  0.23805864583E+03  0.00000000000E+00 0. -1.
<mgrwt>
<rscale>  4 0.26368293E+03</rscale>
<asrwt>0</asrwt>
<pdfrwt beam="1">  1       21 0.22343023E-01 0.26368293E+03</pdfrwt>
<pdfrwt beam="2">  1       21 0.12697126E+00 0.26368293E+03</pdfrwt>
<totfact> 0.82053214E+03</totfact>
</mgrwt>
</event>
<event>
 5    0  0.1200001E+000  0.2832962E+03  0.7546771E-02  0.1093902E+00
         21   -1    0    0  503  501  0.00000000000E+00  0.00000000000E+00  0.38188622822E+03  0.38188622822E+03  0.00000000000E+00 0.  1.
         21   -1    0    0  501  502 -0.00000000000E+00 -0.00000000000E+00 -0.23447779389E+03  0.23447779389E+03  0.00000000000E+00 0. -1.
         25    1    1    2    0    0 -0.17058472373E+02 -0.25027077648E+03 -0.66603163519E+01  0.28034944775E+03  0.12500000000E+03 0.  0.
         21    1    1    2  503  504  0.35705535998E+02 -0.99516536755E+01  0.26782278675E+02  0.45729762331E+02  0.00000000000E+00 0.  1.
         21    1    1    2  504  502 -0.18647063625E+02  0.26022243016E+03  0.12728647200E+03  0.29028481203E+03  0.00000000000E+00 0.  1.
<mgrwt>
<rscale>  4 0.28329618E+03</rscale>
<asrwt>0</asrwt>
<pdfrwt beam="1">  1       21 0.58751727E-01 0.28329618E+03</pdfrwt>
<pdfrwt beam="2">  1       21 0.36073507E-01 0.28329618E+03</pdfrwt>
<totfact> 0.19172254E+04</totfact>
</mgrwt>
</event>
<event>
 5    0  0.1200001E+000  0.3029319E+03  0.7546771E-02  0.1083784E+00
         21   -1    0    0  503  501  0.00000000000E+00  0.00000000000E+00  0.32796289651E+03  0.32796289651E+03  0.00000000000E+00 0.  1.
         21   -1    0    0  501  502 -0.00000000000E+00 -0.00000000000E+00 -0.33753516800E+03  0.33753516800E+03  0.00000000000E+00 0.  1.
         25    1    1    2    0    0 -0.23841051136E+03  0.13499472903E+03  0.84235115928E+02  0.31270385918E+03  0.12500000000E+03 0.  0.
         21    1    1    2  503  504  0.26663481798E+02  0.45967409197E+02  0.12613469972E+02  0.54617246311E+02  0.00000000000E+00 0. -1.
         21    1    1    2  504  502  0.21174702956E+03 -0.18096213823E+03 -0.10642085739E+03  0.29817695902E+03  0.00000000000E+00 0.  1.
<mgrwt>
<rscale>  4 0.30293188E+03</rscale>
<asrwt>0</asrwt>
<pdfrwt beam="1">  1       21 0.50455830E-01 0.30293188E+03</pdfrwt>
<pdfrwt beam="2">  1       21 0.51928487E-01 0.30293188E+03</pdfrwt>
<totfact> 0.12405913E+04</totfact>
</mgrwt>
</event>
<event>
 5    0  0.1200001E+000  0.2588128E+03  0.7546771E-02  0.1107859E+00
         21   -1    0    0  502  501  0.00000000000E+00  0.00000000000E+00  0.30198606957E+03  0.30198606957E+03  0.00000000000E+00 0. -1.
         21   -1    0    0  504  502 -0.00000000000E+00 -0.00000000000E+00 -0.41844456137E+03  0.41844456137E+03  0.00000000000E+00 0.  1.
         25    1    1    2    0    0  0.10337119817E+03 -0.20167658702E+03 -0.32074820782E+03  0.41214495409E+03  0.12500000000E+03 0.  0.
         21    1    1    2  503  501 -0.99566004918E+02  0.15753582661E+03  0.15970954622E+03  0.24543444167E+03  0.00000000000E+00 0. -1.
         21    1    1    2  504  503 -0.38051932492E+01  0.44140760411E+02  0.44580169793E+02  0.62851235183E+02  0.00000000000E+00 0. -1.
<mgrwt>
<rscale>  4 0.25881277E+03</rscale>
<asrwt>0</asrwt>
<pdfrwt beam="1">  1       21 0.46459395E-01 0.25881277E+03</pdfrwt>
<pdfrwt beam="2">  1       21 0.64376086E-01 0.25881277E+03</pdfrwt>
<totfact> 0.94808979E+03</totfact>
</mgrwt>
</event>
<event>
 5    0  0.1200001E+000  0.2190186E+03  0.7546771E-02  0.1134617E+00
         21   -1    0    0  503  501  0.00000000000E+00  0.00000000000E+00  0.93019614927E+03  0.93019614927E+03  0.00000000000E+00 0. -1.
         21   -1    0    0  501  502 -0.00000000000E+00 -0.00000000000E+00 -0.30861152425E+03  0.30861152425E+03  0.00000000000E+00 0. -1.
         25    1    1    2    0    0  0.13107946617E+02 -0.20249666897E+03  0.44858612562E+03  0.50796774633E+03  0.12500000000E+03 0.  0.
         21    1    1    2  503  504  0.73454484886E+01  0.25192947352E+02  0.42291886022E+03  0.42373222976E+03  0.00000000000E+00 0. -1.
         21    1    1    2  504  502 -0.20453395106E+02  0.17730372162E+03 -0.24992036081E+03  0.30710769743E+03  0.00000000000E+00 0. -1.
<mgrwt>
<rscale>  4 0.21901862E+03</rscale>
<asrwt>0</asrwt>
<pdfrwt beam="1">  1       21 0.14310710E+00 0.21901862E+03</pdfrwt>
<pdfrwt beam="2">  1       21 0.47478696E-01 0.21901862E+03</pdfrwt>
<totfact> 0.13985860E+03</totfact>
</mgrwt>
</event>
<event>
 5    0  0.1200001E+000  0.2840557E+03  0.7546771E-02  0.1093494E+00
         21   -1    0    0  503  501  0.00000000000E+00  0.00000000000E+00  0.68248716100E+02  0.68248716100E+02  0.00000000000E+00 0.  1.
         21   -1    0    0  504  502 -0.00000000000E+00 -0.00000000000E+00 -0.13774851877E+04  0.13774851877E+04  0.00000000000E+00 0.  1.
         25    1    1    2    0    0  0.18981775993E+03 -0.13966900512E+03 -0.71662615085E+03  0.76466741336E+03  0.12500000000E+03 0.  0.
         21    1    1    2  503  502 -0.23561832065E+03  0.15880040969E+03 -0.52792601529E+03  0.59953268532E+03  0.00000000000E+00 0.  1.
         21    1    1    2  504  501  0.45800560721E+02 -0.19131404570E+02 -0.64684305420E+02  0.81533805080E+02  0.00000000000E+00 0.  1.
<mgrwt>
<rscale>  4 0.28405574E+03</rscale>
<asrwt>0</asrwt>
<pdfrwt beam="1">  1       21 0.10499802E-01 0.28405574E+03</pdfrwt>
<pdfrwt beam="2">  1       21 0.21192080E+00 0.28405574E+03</pdfrwt>
<totfact> 0.78465323E+03</totfact>
</mgrwt>
</event>
<event>
 5    0  0.1200001E+000  0.2793020E+03  0.7546771E-02  0.1096071E+00
         21   -1    0    0  503  501  0.00000000000E+00  0.00000000000E+00  0.16109887156E+03  0.16109887156E+03  0.00000000000E+00 0. -1.
         21   -1    0    0  501  502 -0.00000000000E+00 -0.00000000000E+00 -0.63556099553E+03  0.63556099553E+03  0.00000000000E+00 0. -1.
         25    1    1    2    0    0  0.65166187154E+02  0.22638637812E+03 -0.27783111448E+03  0.38511368753E+03  0.12500000000E+03 0.  0.
         21    1    1    2  503  504  0.22766803521E+02  0.24258901241E+02  0.42614962184E+02  0.54063450075E+02  0.00000000000E+00 0. -1.
         21    1    1    2  504  502 -0.87932990675E+02 -0.25064527936E+03 -0.23924597167E+03  0.35748272948E+03  0.00000000000E+00 0. -1.
<mgrwt>
<rscale>  4 0.27930197E+03</rscale>
<asrwt>0</asrwt>
<pdfrwt beam="1">  1       21 0.24784442E-01 0.27930197E+03</pdfrwt>
<pdfrwt beam="2">  1       21 0.97778615E-01 0.27930197E+03</pdfrwt>
<totfact> 0.12682854E+04</totfact>
</mgrwt>
</event>
<event>
 5    0  0.1200001E+000  0.3778345E+03  0.7546771E-02  0.1051737E+00
         21   -1    0    0  503  501  0.00000000000E+00  0.00000000000E+00  0.70816854277E+03  0.70816854277E+03  0.00000000000E+00 0. -1.
         21   -1    0    0  501  502 -0.00000000000E+00 -0.00000000000E+00 -0.73650869803E+03  0.73650869803E+03  0.00000000000E+00 0. -1.
         25    1    1    2    0    0 -0.11008494108E+02 -0.33824044475E+03  0.28974991637E+03  0.46271783999E+03  0.12500000000E+03 0.  0.
         21    1    1    2  503  504  0.12031290194E+02 -0.20732595622E+02  0.28182636944E+03  0.28284394103E+03  0.00000000000E+00 0. -1.
         21    1    1    2  504  502 -0.10227960866E+01  0.35897304037E+03 -0.59991644108E+03  0.69911545978E+03  0.00000000000E+00 0. -1.
<mgrwt>
<rscale>  4 0.37783446E+03</rscale>
<asrwt>0</asrwt>
<pdfrwt beam="1">  1       21 0.10894901E+00 0.37783446E+03</pdfrwt>
<pdfrwt beam="2">  1       21 0.11330903E+00 0.37783446E+03</pdfrwt>
<totfact> 0.34962741E+02</totfact>
</mgrwt>
</event>
<event>
 5    0  0.1200001E+000  0.3054462E+03  0.7546771E-02  0.1082549E+00
         21   -1    0    0  503  501  0.00000000000E+00  0.00000000000E+00  0.31649071676E+03  0.31649071676E+03  0.00000000000E+00 0. -1.
         21   -1    0    0  501  502 -0.00000000000E+00 -0.00000000000E+00 -0.33850841092E+03  0.33850841092E+03  0.00000000000E+00 0. -1.
         25    1    1    2    0    0 -0.24738721372E+03 -0.16177666403E+03  0.56225414930E+02  0.32581961240E+03  0.12500000000E+03 0.  0.
         21    1    1    2  503  504  0.72344278197E+01  0.36790468528E+02  0.18336060658E+02  0.41738311428E+02  0.00000000000E+00 0. -1.
         21    1    1    2  504  502  0.24015278590E+03  0.12498619550E+03 -0.96579169753E+02  0.28744120385E+03  0.00000000000E+00 0. -1.
<mgrwt>
<rscale>  4 0.30544616E+03</rscale>
<asrwt>0</asrwt>
<pdfrwt beam="1">  1       21 0.48690880E-01 0.30544616E+03</pdfrwt>
<pdfrwt beam="2">  1       21 0.52078217E-01 0.30544616E+03</pdfrwt>
<totfact> 0.13276244E+04</totfact>
</mgrwt>
</event>
<event>
 5    0  0.1200001E+000  0.2590590E+03  0.7546771E-02  0.1107710E+00
         21   -1    0    0  503  501  0.00000000000E+00  0.00000000000E+00  0.22531651166E+03  0.22531651166E+03  0.00000000000E+00 0.  1.
         21   -1    0    0  501  502 -0.00000000000E+00 -0.00000000000E+00 -0.44400179530E+03  0.44400179530E+03  0.00000000000E+00 0.  1.
         25    1    1    2    0    0 -0.20148986713E+02 -0.21488802782E+03 -0.23264525974E+03  0.34107427790E+03  0.12500000000E+03 0.  0.
         21    1    1    2  503  504  0.35761955161E+02 -0.35198792047E+02  0.54868003985E+02  0.74353011102E+02  0.00000000000E+00 0.  1.
         21    1    1    2  504  502 -0.15612968448E+02  0.25008681987E+03 -0.40908027892E+02  0.25389101796E+03  0.00000000000E+00 0.  1.
<mgrwt>
<rscale>  4 0.25905898E+03</rscale>
<asrwt>0</asrwt>
<pdfrwt beam="1">  1       21 0.34664079E-01 0.25905898E+03</pdfrwt>
<pdfrwt beam="2">  1       21 0.68307968E-01 0.25905898E+03</pdfrwt>
<totfact> 0.15104627E+04</totfact>
</mgrwt>
</event>
<event>
 5    0  0.1492321E+000  0.2449900E+03  0.7546771E-02  0.1116513E+00
         21   -1    0    0  502  501  0.00000000000E+00  0.00000000000E+00  0.89895306273E+03  0.89895306273E+03  0.00000000000E+00 0.  1.
         21   -1    0    0  503  502 -0.00000000000E+00 -0.00000000000E+00 -0.69904312103E+02  0.69904312103E+02  0.00000000000E+00 0.  1.
         25    1    1    2    0    0  0.16661242301E+02  0.20221201511E+03  0.28023819601E+03  0.36786647381E+03  0.12500000000E+03 0.  0.
         21    1    1    2  503  504 -0.46813952021E+01  0.20925484747E+02  0.45006978031E+02  0.49853981229E+02  0.00000000000E+00 0. -1.
         21    1    1    2  504  501 -0.11979847099E+02 -0.22313749986E+03  0.50380357658E+03  0.55113691979E+03  0.00000000000E+00 0.  1.
<mgrwt>
<rscale>  4 0.24498996E+03</rscale>
<asrwt>0</asrwt>
<pdfrwt beam="1">  1       21 0.13830046E+00 0.24498996E+03</pdfrwt>
<pdfrwt beam="2">  1       21 0.10754510E-01 0.24498996E+03</pdfrwt>
<totfact> 0.25558436E+04</totfact>
</mgrwt>
</event>
<event>
 5    0  0.1200001E+000  0.2575099E+03  0.7546771E-02  0.1108649E+00
         21   -1    0    0  503  501  0.00000000000E+00  0.00000000000E+00  0.20667987668E+03  0.20667987668E+03  0.00000000000E+00 0. -1.
         21   -1    0    0  504  502 -0.00000000000E+00 -0.00000000000E+00 -0.74356316447E+03  0.74356316447E+03  0.00000000000E+00 0.  1.
         25    1    1    2    0    0 -0.14894599545E+03 -0.17925578478E+03 -0.57729792427E+03  0.63499247185E+03  0.12500000000E+03 0.  0.
         21    1    1    2  503  502  0.12552967457E+03  0.16088049800E+03 -0.58236490085E+02  0.21220679209E+03  0.00000000000E+00 0. -1.
         21    1    1    2  504  501  0.23416320881E+02  0.18375286782E+02  0.98651126564E+02  0.10304377720E+03  0.00000000000E+00 0. -1.
<mgrwt>
<rscale>  4 0.25750992E+03</rscale>
<asrwt>0</asrwt>
<pdfrwt beam="1">  1       21 0.31796904E-01 0.25750992E+03</pdfrwt>
<pdfrwt beam="2">  1       21 0.11439433E+00 0.25750992E+03</pdfrwt>
<totfact> 0.53961252E+03</totfact>
</mgrwt>
</event>
<event>
 5    0  0.1200001E+000  0.3003096E+03  0.7546771E-02  0.1085086E+00
         21   -1    0    0  502  501  0.00000000000E+00  0.00000000000E+00  0.78800284256E+03  0.78800284256E+03  0.00000000000E+00 0. -1.
         21   -1    0    0  504  502 -0.00000000000E+00 -0.00000000000E+00 -0.19362952335E+03  0.19362952335E+03  0.00000000000E+00 0.  1.
         25    1    1    2    0    0 -0.30764123706E+03 -0.75661949476E+02  0.74198877804E+02  0.34856611253E+03  0.12500000000E+03 0.  0.
         21    1    1    2  503  501  0.26231167425E+03  0.22127503698E+02  0.49095515527E+03  0.55707630119E+03  0.00000000000E+00 0. -1.
         21    1    1    2  504  503  0.45329562816E+02  0.53534445778E+02  0.29219286136E+02  0.75989952179E+02  0.00000000000E+00 0. -1.
<mgrwt>
<rscale>  4 0.30030956E+03</rscale>
<asrwt>0</asrwt>
<pdfrwt beam="1">  1       21 0.12123120E+00 0.30030956E+03</pdfrwt>
<pdfrwt beam="2">  1       21 0.29789158E-01 0.30030956E+03</pdfrwt>
<totfact> 0.51851539E+03</totfact>
</mgrwt>
</event>
<event>
 5    0  0.1200001E+000  0.4711370E+03  0.7546771E-02  0.1035044E+00
         21   -1    0    0  503  501  0.00000000000E+00  0.00000000000E+00  0.81617003986E+03  0.81617003986E+03  0.00000000000E+00 0.  1.
         21   -1    0    0  501  502 -0.00000000000E+00 -0.00000000000E+00 -0.91542618182E+03  0.91542618182E+03  0.00000000000E+00 0.  1.
         25    1    1    2    0    0 -0.12050762619E+02  0.28967629289E+03 -0.22502797676E+03  0.38771144665E+03  0.12500000000E+03 0.  0.
         21    1    1    2  503  504  0.45012839072E+03 -0.18951217582E+03  0.54324461210E+03  0.73051019260E+03  0.00000000000E+00 0.  1.
         21    1    1    2  504  502 -0.43807762810E+03 -0.10016411707E+03 -0.41747277730E+03  0.61337458243E+03  0.00000000000E+00 0.  1.
<mgrwt>
<rscale>  4 0.42627300E+03</rscale>
<asrwt>0</asrwt>
<pdfrwt beam="1">  1       21 0.12556462E+00 0.47113702E+03</pdfrwt>
<pdfrwt beam="2">  1       21 0.14083480E+00 0.47113702E+03</pdfrwt>
<totfact> 0.13293358E+02</totfact>
</mgrwt>
</event>
<event>
 5    0  0.1200001E+000  0.2425070E+03  0.7546771E-02  0.1118134E+00
         21   -1    0    0  502  501  0.00000000000E+00  0.00000000000E+00  0.97956846729E+02  0.97956846729E+02  0.00000000000E+00 0. -1.
         21   -1    0    0  503  502 -0.00000000000E+00 -0.00000000000E+00 -0.11686934682E+04  0.11686934682E+04  0.00000000000E+00 0.  1.
         25    1    1    2    0    0  0.20407483290E+03 -0.33479369764E+02 -0.98464466064E+03  0.10138626699E+04  0.12500000000E+03 0.  0.
         21    1    1    2  503  504  0.96265803551E+01  0.21015833606E+02 -0.13392012802E+02  0.26714833302E+02  0.00000000000E+00 0. -1.
         21    1    1    2  504  501 -0.21370141325E+03  0.12463536158E+02 -0.72699947983E+02  0.22607281171E+03  0.00000000000E+00 0. -1.
<mgrwt>
<rscale>  4 0.24250699E+03</rscale>
<asrwt>0</asrwt>
<pdfrwt beam="1">  1       21 0.15070285E-01 0.24250699E+03</pdfrwt>
<pdfrwt beam="2">  1       21 0.17979899E+00 0.24250699E+03</pdfrwt>
<totfact> 0.68298744E+03</totfact>
</mgrwt>
</event>
<event>
 5    0  0.1200001E+000  0.2944920E+03  0.7546771E-02  0.1088027E+00
         21   -1    0    0  503  501  0.00000000000E+00  0.00000000000E+00  0.24861128191E+04  0.24861128191E+04  0.00000000000E+00 0. -1.
         21   -1    0    0  501  502 -0.00000000000E+00 -0.00000000000E+00 -0.94458814597E+02  0.94458814597E+02  0.00000000000E+00 0.  1.
         25    1    1    2    0    0 -0.21946063263E+03  0.14692974353E+03  0.17241648659E+03  0.33926945582E+03  0.12500000000E+03 0.  0.
         21    1    1    2  503  504 -0.16026918645E+02  0.18294377928E+02  0.11944085512E+03  0.12189201884E+03  0.00000000000E+00 0.  1.
         21    1    1    2  504  502  0.23548755127E+03 -0.16522412146E+03  0.20997966628E+04  0.21194101591E+04  0.00000000000E+00 0. -1.
<mgrwt>
<rscale>  4 0.29449201E+03</rscale>
<asrwt>0</asrwt>
<pdfrwt beam="1">  1       21 0.38247885E+00 0.29449201E+03</pdfrwt>
<pdfrwt beam="2">  1       21 0.14532127E-01 0.29449201E+03</pdfrwt>
<totfact> 0.40700356E+02</totfact>
</mgrwt>
</event>
<event>
 5    0  0.1200001E+000  0.2983007E+03  0.7546771E-02  0.1086093E+00
         21   -1    0    0  502  501  0.00000000000E+00  0.00000000000E+00  0.22903206867E+03  0.22903206867E+03  0.00000000000E+00 0. -1.
         21   -1    0    0  503  502 -0.00000000000E+00 -0.00000000000E+00 -0.20999205930E+04  0.20999205930E+04  0.00000000000E+00 0. -1.
         25    1    1    2    0    0  0.53529888600E+02 -0.26388031558E+03 -0.18458246031E+04  0.18695431890E+04  0.12500000000E+03 0.  0.
         21    1    1    2  503  504 -0.77825740436E+02 -0.44185079825E+02 -0.10721184715E+03  0.13965510131E+03  0.00000000000E+00 0. -1.
         21    1    1    2  504  501  0.24295851836E+02  0.30806539541E+03  0.82147925973E+02  0.31975437136E+03  0.00000000000E+00 0. -1.
<mgrwt>
<rscale>  4 0.29830074E+03</rscale>
<asrwt>0</asrwt>
<pdfrwt beam="1">  1       21 0.35235704E-01 0.29830074E+03</pdfrwt>
<pdfrwt beam="2">  1       21 0.32306470E+00 0.29830074E+03</pdfrwt>
<totfact> 0.17043316E+02</totfact>
</mgrwt>
</event>
<event>
 5    0  0.1200001E+000  0.2920057E+03  0.7546771E-02  0.1089307E+00
         21   -1    0    0  502  501  0.00000000000E+00  0.00000000000E+00  0.12077271078E+04  0.12077271078E+04  0.00000000000E+00 0.  1.
         21   -1    0    0  503  502 -0.00000000000E+00 -0.00000000000E+00 -0.65650033487E+02  0.65650033487E+02  0.00000000000E+00 0.  1.
         25    1    1    2    0    0  0.45729992908E+02 -0.25990589395E+03  0.54169765395E+03  0.61538902676E+03  0.12500000000E+03 0.  0.
         21    1    1    2  503  504 -0.20749853828E+02  0.10765927481E+03  0.31558998279E+03  0.33409297077E+03  0.00000000000E+00 0.  1.
         21    1    1    2  504  501 -0.24980139081E+02  0.15224661914E+03  0.28478943753E+03  0.32389514370E+03  0.00000000000E+00 0.  1.
<mgrwt>
<rscale>  4 0.29200566E+03</rscale>
<asrwt>0</asrwt>
<pdfrwt beam="1">  1       21 0.18580415E+00 0.29200566E+03</pdfrwt>
<pdfrwt beam="2">  1       21 0.10100006E-01 0.29200566E+03</pdfrwt>
<totfact> 0.12426061E+04</totfact>
</mgrwt>
</event>
<event>
 5    0  0.1200001E+000  0.3394906E+03  0.7546771E-02  0.1067013E+00
         21   -1    0    0  503  501  0.00000000000E+00  0.00000000000E+00  0.78913750639E+03  0.78913750639E+03  0.00000000000E+00 0.  1.
         21   -1    0    0  504  502 -0.00000000000E+00 -0.00000000000E+00 -0.16599386374E+03  0.16599386374E+03  0.00000000000E+00 0.  1.
         25    1    1    2    0    0  0.21136451467E+03 -0.22597661441E+03  0.20275739366E+03  0.39048168843E+03  0.12500000000E+03 0.  0.
         21    1    1    2  503  502 -0.20797434612E+03  0.24793860648E+03  0.29689091661E+03  0.43917092070E+03  0.00000000000E+00 0.  1.
         21    1    1    2  504  501 -0.33901685475E+01 -0.21961992070E+02  0.12349533238E+03  0.12547876099E+03  0.00000000000E+00 0. -1.
<mgrwt>
<rscale>  4 0.33949056E+03</rscale>
<asrwt>0</asrwt>
<pdfrwt beam="1">  1       21 0.12140577E+00 0.33949056E+03</pdfrwt>
<pdfrwt beam="2">  1       21 0.25537518E-01 0.33949056E+03</pdfrwt>
<totfact> 0.68486403E+03</totfact>
</mgrwt>
</event>
<event>
 5    0  0.1200001E+000  0.3074792E+03  0.7546771E-02  0.1081560E+00
         21   -1    0    0  502  501  0.00000000000E+00  0.00000000000E+00  0.45176334727E+03  0.45176334727E+03  0.00000000000E+00 0.  1.
         21   -1    0    0  503  502 -0.00000000000E+00 -0.00000000000E+00 -0.35662804517E+03  0.35662804517E+03  0.00000000000E+00 0.  1.
         25    1    1    2    0    0 -0.25706449606E+02 -0.28572409229E+03 -0.16081551981E+03  0.35183193414E+03  0.12500000000E+03 0.  0.
         21    1    1    2  503  504 -0.33214162294E+02  0.21415405038E+02  0.16687225191E+03  0.17148804217E+03  0.00000000000E+00 0. -1.
         21    1    1    2  504  501  0.58920611900E+02  0.26430868725E+03  0.89078569995E+02  0.28507141613E+03  0.00000000000E+00 0.  1.
<mgrwt>
<rscale>  4 0.30747923E+03</rscale>
<asrwt>0</asrwt>
<pdfrwt beam="1">  1       21 0.69502054E-01 0.30747923E+03</pdfrwt>
<pdfrwt beam="2">  1       21 0.54865853E-01 0.30747923E+03</pdfrwt>
<totfact> 0.54995630E+03</totfact>
</mgrwt>
</event>
<event>
 5    0  0.1200001E+000  0.3077493E+03  0.7546771E-02  0.1081430E+00
         21   -1    0    0  503  501  0.00000000000E+00  0.00000000000E+00  0.16749592041E+03  0.16749592041E+03  0.00000000000E+00 0.  1.
         21   -1    0    0  501  502 -0.00000000000E+00 -0.00000000000E+00 -0.13788168931E+04  0.13788168931E+04  0.00000000000E+00 0.  1.
         25    1    1    2    0    0  0.28242591550E+02  0.24469875294E+03 -0.35092648516E+03  0.44659771792E+03  0.12500000000E+03 0.  0.
         21    1    1    2  503  504 -0.22611660931E+03  0.29108112921E+02 -0.67361653970E+02  0.23772588347E+03  0.00000000000E+00 0.  1.
         21    1    1    2  504  502  0.19787401776E+03 -0.27380686586E+03 -0.79303283360E+03  0.86198921216E+03  0.00000000000E+00 0.  1.
<mgrwt>
<rscale>  4 0.30774927E+03</rscale>
<asrwt>0</asrwt>
<pdfrwt beam="1">  1       21 0.25768604E-01 0.30774927E+03</pdfrwt>
<pdfrwt beam="2">  1       21 0.21212567E+00 0.30774927E+03</pdfrwt>
<totfact> 0.14556653E+03</totfact>
</mgrwt>
</event>
<event>
 5    0  0.1200001E+000  0.2657192E+03  0.7546771E-02  0.1103755E+00
         21   -1    0    0  503  501  0.00000000000E+00  0.00000000000E+00  0.89097869248E+03  0.89097869248E+03  0.00000000000E+00 0.  1.
         21   -1    0    0  501  502 -0.00000000000E+00 -0.00000000000E+00 -0.88794728629E+02  0.88794728629E+02  0.00000000000E+00 0. -1.
         25    1    1    2    0    0  0.12313181601E+03  0.19944499682E+03  0.26013046661E+03  0.37179646385E+03  0.12500000000E+03 0.  0.
         21    1    1    2  503  504  0.30486995824E+02 -0.19902710498E+02  0.10505939498E+03  0.11118925880E+03  0.00000000000E+00 0.  1.
         21    1    1    2  504  502 -0.15361881184E+03 -0.17954228632E+03  0.43699410226E+03  0.49678769846E+03  0.00000000000E+00 0. -1.
<mgrwt>
<rscale>  4 0.26571915E+03</rscale>
<asrwt>0</asrwt>
<pdfrwt beam="1">  1       21 0.13707364E+00 0.26571915E+03</pdfrwt>
<pdfrwt beam="2">  1       21 0.13660728E-01 0.26571915E+03</pdfrwt>
<totfact> 0.16817267E+04</totfact>
</mgrwt>
</event>
<event>
 5    0  0.1200001E+000  0.2855364E+03  0.7546771E-02  0.1092703E+00
         21   -1    0    0  502  501  0.00000000000E+00  0.00000000000E+00  0.62994793191E+03  0.62994793191E+03  0.00000000000E+00 0.  1.
         21   -1    0    0  504  502 -0.00000000000E+00 -0.00000000000E+00 -0.12423070345E+03  0.12423070345E+03  0.00000000000E+00 0.  1.
         25    1    1    2    0    0  0.12042766111E+03  0.22672279627E+03  0.19050466579E+03  0.34325366072E+03  0.12500000000E+03 0.  0.
         21    1    1    2  503  501 -0.12523575995E+03 -0.19651143785E+03  0.27734153315E+03  0.36224172425E+03  0.00000000000E+00 0.  1.
         21    1    1    2  504  503  0.48080988387E+01 -0.30211358422E+02  0.37871029519E+02  0.48683250395E+02  0.00000000000E+00 0.  1.
<mgrwt>
<rscale>  4 0.28553642E+03</rscale>
<asrwt>0</asrwt>
<pdfrwt beam="1">  1       21 0.96915065E-01 0.28553642E+03</pdfrwt>
<pdfrwt beam="2">  1       21 0.19112416E-01 0.28553642E+03</pdfrwt>
<totfact> 0.21164907E+04</totfact>
</mgrwt>
</event>
<event>
 5    0  0.1200001E+000  0.2970846E+03  0.7546771E-02  0.1086707E+00
         21   -1    0    0  502  501  0.00000000000E+00  0.00000000000E+00  0.42328457499E+03  0.42328457499E+03  0.00000000000E+00 0.  1.
         21   -1    0    0  503  502 -0.00000000000E+00 -0.00000000000E+00 -0.73831039441E+03  0.73831039441E+03  0.00000000000E+00 0.  1.
         25    1    1    2    0    0 -0.95826165616E+02 -0.23753821600E+03 -0.52861973129E+03  0.60055880510E+03  0.12500000000E+03 0.  0.
         21    1    1    2  503  504 -0.99952900081E+02 -0.91334941824E+02  0.43585717655E+02  0.14224053085E+03  0.00000000000E+00 0.  1.
         21    1    1    2  504  501  0.19577906570E+03  0.32887315783E+03  0.17000819421E+03  0.41879563346E+03  0.00000000000E+00 0.  1.
<mgrwt>
<rscale>  4 0.29708462E+03</rscale>
<asrwt>0</asrwt>
<pdfrwt beam="1">  1       21 0.65120703E-01 0.29708462E+03</pdfrwt>
<pdfrwt beam="2">  1       21 0.11358622E+00 0.29708462E+03</pdfrwt>
<totfact> 0.12066580E+03</totfact>
</mgrwt>
</event>
<event>
 5    0  0.1200001E+000  0.2389915E+03  0.7546771E-02  0.1120466E+00
         21   -1    0    0  502  501  0.00000000000E+00  0.00000000000E+00  0.91046194578E+02  0.91046194578E+02  0.00000000000E+00 0. -1.
         21   -1    0    0  504  502 -0.00000000000E+00 -0.00000000000E+00 -0.65465131566E+03  0.65465131566E+03  0.00000000000E+00 0. -1.
         25    1    1    2    0    0  0.76864972405E+01 -0.20355061932E+03 -0.43490980988E+03  0.49624941269E+03  0.12500000000E+03 0.  0.
         21    1    1    2  503  501 -0.44758054319E+01  0.14202787311E+03 -0.12235325696E+03  0.18751605015E+03  0.00000000000E+00 0. -1.
         21    1    1    2  504  503 -0.32106918086E+01  0.61522746212E+02 -0.63420542421E+01  0.61932047402E+02  0.00000000000E+00 0. -1.
<mgrwt>
<rscale>  4 0.23899150E+03</rscale>
<asrwt>0</asrwt>
<pdfrwt beam="1">  1       21 0.14007106E-01 0.23899150E+03</pdfrwt>
<pdfrwt beam="2">  1       21 0.10071559E+00 0.23899150E+03</pdfrwt>
<totfact> 0.35006397E+04</totfact>
</mgrwt>
</event>
<event>
 5    0  0.1200001E+000  0.2484055E+03  0.7546771E-02  0.1114317E+00
         21   -1    0    0  503  501  0.00000000000E+00  0.00000000000E+00  0.10697388716E+03  0.10697388716E+03  0.00000000000E+00 0. -1.
         21   -1    0    0  504  502 -0.00000000000E+00 -0.00000000000E+00 -0.67691636850E+03  0.67691636850E+03  0.00000000000E+00 0. -1.
         25    1    1    2    0    0 -0.71336035343E+02 -0.20528019247E+03 -0.13099429859E+03  0.28286621153E+03  0.12500000000E+03 0.  0.
         21    1    1    2  503  502  0.42751641503E+02  0.20592235536E+03 -0.40715821299E+03  0.45826796713E+03  0.00000000000E+00 0. -1.
         21    1    1    2  504  501  0.28584393840E+02 -0.64216289008E+00 -0.31789969755E+02  0.42756077012E+02  0.00000000000E+00 0. -1.
<mgrwt>
<rscale>  4 0.24840552E+03</rscale>
<asrwt>0</asrwt>
<pdfrwt beam="1">  1       21 0.16457521E-01 0.24840552E+03</pdfrwt>
<pdfrwt beam="2">  1       21 0.10414098E+00 0.24840552E+03</pdfrwt>
<totfact> 0.23929048E+04</totfact>
</mgrwt>
</event>
<event>
 5    0  0.1200001E+000  0.3234351E+03  0.7546771E-02  0.1074079E+00
         21   -1    0    0  503  501  0.00000000000E+00  0.00000000000E+00  0.75737519927E+03  0.75737519927E+03  0.00000000000E+00 0. -1.
         21   -1    0    0  501  502 -0.00000000000E+00 -0.00000000000E+00 -0.24017331804E+04  0.24017331804E+04  0.00000000000E+00 0.  1.
         25    1    1    2    0    0  0.28429654421E+03 -0.92125298888E+02 -0.23558407622E+04  0.23780080514E+04  0.12500000000E+03 0.  0.
         21    1    1    2  503  504 -0.32038428614E+02 -0.86749332917E+01  0.19229777961E+03  0.19514136266E+03  0.00000000000E+00 0. -1.
         21    1    1    2  504  502 -0.25225811560E+03  0.10080023218E+03  0.51918500143E+03  0.58595896563E+03  0.00000000000E+00 0. -1.
<mgrwt>
<rscale>  4 0.32343506E+03</rscale>
<asrwt>0</asrwt>
<pdfrwt beam="1">  1       21 0.11651926E+00 0.32343506E+03</pdfrwt>
<pdfrwt beam="2">  1       21 0.36949741E+00 0.32343506E+03</pdfrwt>
<totfact> 0.61527993E+00</totfact>
</mgrwt>
</event>
<event>
 5    0  0.1200001E+000  0.2218137E+03  0.7546771E-02  0.1132538E+00
         21   -1    0    0  503  501  0.00000000000E+00  0.00000000000E+00  0.14081768075E+04  0.14081768075E+04  0.00000000000E+00 0. -1.
         21   -1    0    0  501  502 -0.00000000000E+00 -0.00000000000E+00 -0.10067574831E+04  0.10067574831E+04  0.00000000000E+00 0. -1.
         25    1    1    2    0    0 -0.57852260188E+02  0.20709819358E+03 -0.44924511077E+02  0.25274445095E+03  0.12500000000E+03 0.  0.
         21    1    1    2  503  504 -0.33698781287E+02 -0.51064026230E+02  0.12939989659E+04  0.12954445053E+04  0.00000000000E+00 0. -1.
         21    1    1    2  504  502  0.91551041474E+02 -0.15603416735E+03 -0.84765513039E+03  0.86674533437E+03  0.00000000000E+00 0. -1.
<mgrwt>
<rscale>  4 0.22181366E+03</rscale>
<asrwt>0</asrwt>
<pdfrwt beam="1">  1       21 0.21664259E+00 0.22181366E+03</pdfrwt>
<pdfrwt beam="2">  1       21 0.15488577E+00 0.22181366E+03</pdfrwt>
<totfact> 0.27658473E+01</totfact>
</mgrwt>
</event>
<event>
 5    0  0.1200001E+000  0.2579072E+03  0.7546771E-02  0.1108407E+00
         21   -1    0    0  502  501  0.00000000000E+00  0.00000000000E+00  0.99035969091E+02  0.99035969091E+02  0.00000000000E+00 0. -1.
         21   -1    0    0  503  502 -0.00000000000E+00 -0.00000000000E+00 -0.78962787537E+03  0.78962787537E+03  0.00000000000E+00 0. -1.
         25    1    1    2    0    0  0.21758505648E+03  0.89544345835E+02 -0.50844425585E+03  0.57402265459E+03  0.12500000000E+03 0.  0.
         21    1    1    2  503  504 -0.19961977490E+03 -0.71084697713E+02 -0.19306716236E+03  0.28666359720E+03  0.00000000000E+00 0. -1.
         21    1    1    2  504  501 -0.17965281578E+02 -0.18459648122E+02  0.10919511929E+02  0.27977592672E+02  0.00000000000E+00 0.  1.
<mgrwt>
<rscale>  4 0.25790725E+03</rscale>
<asrwt>0</asrwt>
<pdfrwt beam="1">  1       21 0.15236303E-01 0.25790725E+03</pdfrwt>
<pdfrwt beam="2">  1       21 0.12148121E+00 0.25790725E+03</pdfrwt>
<totfact> 0.18808726E+04</totfact>
</mgrwt>
</event>
<event>
 5    0  0.1200001E+000  0.3333173E+03  0.7546771E-02  0.1069678E+00
         21   -1    0    0  503  501  0.00000000000E+00  0.00000000000E+00  0.10497564243E+04  0.10497564243E+04  0.00000000000E+00 0. -1.
         21   -1    0    0  504  502 -0.00000000000E+00 -0.00000000000E+00 -0.27719393754E+03  0.27719393754E+03  0.00000000000E+00 0. -1.
         25    1    1    2    0    0  0.30824589177E+03  0.18730801823E+02 -0.12527472358E+03  0.35592854494E+03  0.12500000000E+03 0.  0.
         21    1    1    2  503  502 -0.30793522037E+03 -0.41585863080E+02  0.63253543565E+03  0.70473722855E+03  0.00000000000E+00 0. -1.
         21    1    1    2  504  501 -0.31067140406E+00  0.22855061257E+02  0.26530177473E+03  0.26628458840E+03  0.00000000000E+00 0. -1.
<mgrwt>
<rscale>  4 0.33331735E+03</rscale>
<asrwt>0</asrwt>
<pdfrwt beam="1">  1       21 0.16150099E+00 0.33331735E+03</pdfrwt>
<pdfrwt beam="2">  1       21 0.42645222E-01 0.33331735E+03</pdfrwt>
<totfact> 0.11622077E+03</totfact>
</mgrwt>
</event>
<event>
 5    0  0.1200001E+000  0.6142468E+03  0.7546771E-02  0.9876281E-01
         21   -1    0    0  502  501  0.00000000000E+00  0.00000000000E+00  0.60806247448E+03  0.60806247448E+03  0.00000000000E+00 0.  1.
         21   -1    0    0  503  502 -0.00000000000E+00 -0.00000000000E+00 -0.86135549902E+03  0.86135549902E+03  0.00000000000E+00 0. -1.
         25    1    1    2    0    0 -0.16947477948E+03  0.52761985510E+03 -0.26233098936E+03  0.62573713359E+03  0.12500000000E+03 0.  0.
         21    1    1    2  503  504 -0.62229093670E+02  0.11118698904E+03  0.94725070345E+02  0.15876978800E+03  0.00000000000E+00 0. -1.
         21    1    1    2  504  501  0.23170387315E+03 -0.63880684414E+03 -0.85687105525E+02  0.68491105190E+03  0.00000000000E+00 0.  1.
<mgrwt>
<rscale>  4 0.61424684E+03</rscale>
<asrwt>0</asrwt>
<pdfrwt beam="1">  1       21 0.93548073E-01 0.61424684E+03</pdfrwt>
<pdfrwt beam="2">  1       21 0.13251623E+00 0.61424684E+03</pdfrwt>
<totfact> 0.30607073E+02</totfact>
</mgrwt>
</event>
<event>
 5    0  0.1200001E+000  0.2557003E+03  0.7546771E-02  0.1109754E+00
         21   -1    0    0  503  501  0.00000000000E+00  0.00000000000E+00  0.23772366311E+03  0.23772366311E+03  0.00000000000E+00 0. -1.
         21   -1    0    0  504  502 -0.00000000000E+00 -0.00000000000E+00 -0.34076733233E+03  0.34076733233E+03  0.00000000000E+00 0. -1.
         25    1    1    2    0    0  0.13076909682E+03 -0.17883945928E+03 -0.17828034223E+03  0.31063320703E+03  0.12500000000E+03 0.  0.
         21    1    1    2  503  502 -0.15240276990E+03  0.16839234996E+03  0.49114251339E+02  0.23236780647E+03  0.00000000000E+00 0. -1.
         21    1    1    2  504  501  0.21633673078E+02  0.10447109326E+02  0.26122421678E+02  0.35489981945E+02  0.00000000000E+00 0. -1.
<mgrwt>
<rscale>  4 0.25570026E+03</rscale>
<asrwt>0</asrwt>
<pdfrwt beam="1">  1       21 0.36572871E-01 0.25570026E+03</pdfrwt>
<pdfrwt beam="2">  1       21 0.52425743E-01 0.25570026E+03</pdfrwt>
<totfact> 0.24080900E+04</totfact>
</mgrwt>
</event>
<event>
 5    0  0.1200001E+000  0.4081122E+03  0.7546771E-02  0.1041006E+00
         21   -1    0    0  503  501  0.00000000000E+00  0.00000000000E+00  0.20452349368E+03  0.20452349368E+03  0.00000000000E+00 0. -1.
         21   -1    0    0  501  502 -0.00000000000E+00 -0.00000000000E+00 -0.13031705280E+04  0.13031705280E+04  0.00000000000E+00 0. -1.
         25    1    1    2    0    0 -0.33282660724E+03 -0.18318603345E+03 -0.72169386799E+03  0.82510466756E+03  0.12500000000E+03 0.  0.
         21    1    1    2  503  504  0.30829441147E+02 -0.93584048762E+02  0.32157227530E+02  0.10364610898E+03  0.00000000000E+00 0.  1.
         21    1    1    2  504  502  0.30199716609E+03  0.27677008221E+03 -0.40911039387E+03  0.57894324515E+03  0.00000000000E+00 0. -1.
<mgrwt>
<rscale>  4 0.40811225E+03</rscale>
<asrwt>0</asrwt>
<pdfrwt beam="1">  1       21 0.31465152E-01 0.40811225E+03</pdfrwt>
<pdfrwt beam="2">  1       21 0.20048778E+00 0.40811225E+03</pdfrwt>
<totfact> 0.11032093E+03</totfact>
</mgrwt>
</event>
<event>
 5    0  0.1200001E+000  0.2832559E+03  0.7546771E-02  0.1093924E+00
         21   -1    0    0  503  501  0.00000000000E+00  0.00000000000E+00  0.31750676729E+03  0.31750676729E+03  0.00000000000E+00 0.  1.
         21   -1    0    0  504  502 -0.00000000000E+00 -0.00000000000E+00 -0.40973568226E+03  0.40973568226E+03  0.00000000000E+00 0.  1.
         25    1    1    2    0    0  0.83762343510E+01  0.25180828047E+03 -0.27087632149E+03  0.39048246179E+03  0.12500000000E+03 0.  0.
         21    1    1    2  503  502 -0.26686666177E+02 -0.26196377419E+03  0.15665873984E+03  0.30639705924E+03  0.00000000000E+00 0.  1.
         21    1    1    2  504  501  0.18310431826E+02  0.10155493717E+02  0.21988666679E+02  0.30362928525E+02  0.00000000000E+00 0. -1.
<mgrwt>
<rscale>  4 0.28325587E+03</rscale>
<asrwt>0</asrwt>
<pdfrwt beam="1">  1       21 0.48847195E-01 0.28325587E+03</pdfrwt>
<pdfrwt beam="2">  1       21 0.63036259E-01 0.28325587E+03</pdfrwt>
<totfact> 0.88294797E+03</totfact>
</mgrwt>
</event>
<event>
 5    0  0.1200001E+000  0.3903223E+03  0.7546771E-02  0.1047183E+00
         21   -1    0    0  503  501  0.00000000000E+00  0.00000000000E+00  0.21347146202E+04  0.21347146202E+04  0.00000000000E+00 0.  1.
         21   -1    0    0  504  502 -0.00000000000E+00 -0.00000000000E+00 -0.25407103132E+03  0.25407103132E+03  0.00000000000E+00 0. -1.
         25    1    1    2    0    0  0.22544201505E+03 -0.31541281466E+03  0.15488591682E+02  0.40764475009E+03  0.12500000000E+03 0.  0.
         21    1    1    2  503  502 -0.21062139981E+03  0.25415939122E+03  0.41801902599E+03  0.53263334133E+03  0.00000000000E+00 0. -1.
         21    1    1    2  504  501 -0.14820615235E+02  0.61253423442E+02  0.14471359712E+04  0.14485075601E+04  0.00000000000E+00 0.  1.
<mgrwt>
<rscale>  4 0.39032233E+03</rscale>
<asrwt>0</asrwt>
<pdfrwt beam="1">  1       21 0.32841762E+00 0.39032233E+03</pdfrwt>
<pdfrwt beam="2">  1       21 0.39087852E-01 0.39032233E+03</pdfrwt>
<totfact> 0.11828787E+02</totfact>
</mgrwt>
</event>
<event>
 5    0  0.1200001E+000  0.2256253E+03  0.7546771E-02  0.1129757E+00
         21   -1    0    0  502  501  0.00000000000E+00  0.00000000000E+00  0.38323307472E+03  0.38323307472E+03  0.00000000000E+00 0.  1.
         21   -1    0    0  503  502 -0.00000000000E+00 -0.00000000000E+00 -0.19406859782E+03  0.19406859782E+03  0.00000000000E+00 0.  1.
         25    1    1    2    0    0  0.16616642941E+03 -0.13727960864E+03 -0.34668073888E+02  0.25156281235E+03  0.12500000000E+03 0.  0.
         21    1    1    2  503  504 -0.15043335334E+02  0.36335898407E+02  0.25727917177E+01  0.39410895806E+02  0.00000000000E+00 0.  1.
         21    1    1    2  504  501 -0.15112309407E+03  0.10094371024E+03  0.22125975908E+03  0.28632796438E+03  0.00000000000E+00 0.  1.
<mgrwt>
<rscale>  4 0.22562533E+03</rscale>
<asrwt>0</asrwt>
<pdfrwt beam="1">  1       21 0.58958934E-01 0.22562533E+03</pdfrwt>
<pdfrwt beam="2">  1       21 0.29856707E-01 0.22562533E+03</pdfrwt>
<totfact> 0.28430268E+04</totfact>
</mgrwt>
</event>
<event>
 5    0  0.1200001E+000  0.4169972E+03  0.7546771E-02  0.1038048E+00
         21   -1    0    0  503  501  0.00000000000E+00  0.00000000000E+00  0.93356175745E+03  0.93356175745E+03  0.00000000000E+00 0.  1.
         21   -1    0    0  504  502 -0.00000000000E+00 -0.00000000000E+00 -0.55276719530E+03  0.55276719530E+03  0.00000000000E+00 0.  1.
         25    1    1    2    0    0  0.34303134723E+03  0.19629835376E+03 -0.29939821964E+03  0.51133926389E+03  0.12500000000E+03 0.  0.
         21    1    1    2  503  502 -0.39491945226E+03 -0.11983866658E+03  0.15361168323E+03  0.44036261082E+03  0.00000000000E+00 0.  1.
         21    1    1    2  504  501  0.51888105039E+02 -0.76459687175E+02  0.52658109857E+03  0.53462707804E+03  0.00000000000E+00 0.  1.
<mgrwt>
<rscale>  4 0.41699722E+03</rscale>
<asrwt>0</asrwt>
<pdfrwt beam="1">  1       21 0.14362489E+00 0.41699722E+03</pdfrwt>
<pdfrwt beam="2">  1       21 0.85041107E-01 0.41699722E+03</pdfrwt>
<totfact> 0.33677967E+02</totfact>
</mgrwt>
</event>
<event>
 5    0  0.1200001E+000  0.2172028E+03  0.7546771E-02  0.1135986E+00
         21   -1    0    0  503  501  0.00000000000E+00  0.00000000000E+00  0.19825648477E+03  0.19825648477E+03  0.00000000000E+00 0. -1.
         21   -1    0    0  504  502 -0.00000000000E+00 -0.00000000000E+00 -0.77520138358E+03  0.77520138358E+03  0.00000000000E+00 0. -1.
         25    1    1    2    0    0  0.61693530685E+02 -0.21697291165E+03 -0.47299154820E+03  0.53872937621E+03  0.12500000000E+03 0.  0.
         21    1    1    2  503  502  0.33482422952E+02  0.14897210701E+03 -0.22141514064E+03  0.26895803728E+03  0.00000000000E+00 0. -1.
         21    1    1    2  504  501 -0.95175953637E+02  0.68000804647E+02  0.11746179004E+03  0.16577045486E+03  0.00000000000E+00 0. -1.
<mgrwt>
<rscale>  4 0.21720282E+03</rscale>
<asrwt>0</asrwt>
<pdfrwt beam="1">  1       21 0.30500998E-01 0.21720282E+03</pdfrwt>
<pdfrwt beam="2">  1       21 0.11926175E+00 0.21720282E+03</pdfrwt>
<totfact> 0.54286467E+03</totfact>
</mgrwt>
</event>
<event>
 5    0  0.1200001E+000  0.3637459E+03  0.7546771E-02  0.1057110E+00
         21   -1    0    0  502  501  0.00000000000E+00  0.00000000000E+00  0.47389096672E+03  0.47389096672E+03  0.00000000000E+00 0. -1.
         21   -1    0    0  504  502 -0.00000000000E+00 -0.00000000000E+00 -0.33811229982E+03  0.33811229982E+03  0.00000000000E+00 0.  1.
         25    1    1    2    0    0  0.33015451650E+03  0.30609549059E+02 -0.98566847252E+02  0.36780344294E+03  0.12500000000E+03 0.  0.
         21    1    1    2  503  501 -0.34566179397E+03 -0.84107251579E+01  0.23328014150E+03  0.41710003659E+03  0.00000000000E+00 0. -1.
         21    1    1    2  504  503  0.15507277464E+02 -0.22198823901E+02  0.10653726443E+01  0.27099787007E+02  0.00000000000E+00 0.  1.
<mgrwt>
<rscale>  4 0.36374595E+03</rscale>
<asrwt>0</asrwt>
<pdfrwt beam="1">  1       21 0.72906303E-01 0.36374595E+03</pdfrwt>
<pdfrwt beam="2">  1       21 0.52017277E-01 0.36374595E+03</pdfrwt>
<totfact> 0.53988024E+03</totfact>
</mgrwt>
</event>
<event>
 5    0  0.1200001E+000  0.4349536E+03  0.7546771E-02  0.1032307E+00
         21   -1    0    0  503  501  0.00000000000E+00  0.00000000000E+00  0.34019645502E+03  0.34019645502E+03  0.00000000000E+00 0. -1.
         21   -1    0    0  501  502 -0.00000000000E+00 -0.00000000000E+00 -0.18538361367E+04  0.18538361367E+04  0.00000000000E+00 0. -1.
         25    1    1    2    0    0 -0.37406545305E+03 -0.22559260206E+03 -0.89241200909E+03  0.10014195820E+04  0.12500000000E+03 0.  0.
         21    1    1    2  503  504  0.52042778896E+02 -0.13318206386E+02  0.23823576056E+03  0.24421732753E+03  0.00000000000E+00 0. -1.
         21    1    1    2  504  502  0.32202267416E+03  0.23891080845E+03 -0.85946343309E+03  0.94839568213E+03  0.00000000000E+00 0. -1.
<mgrwt>
<rscale>  4 0.43495356E+03</rscale>
<asrwt>0</asrwt>
<pdfrwt beam="1">  1       21 0.52337916E-01 0.43495356E+03</pdfrwt>
<pdfrwt beam="2">  1       21 0.28520556E+00 0.43495356E+03</pdfrwt>
<totfact> 0.11301255E+02</totfact>
</mgrwt>
</event>
<event>
 5    0  0.1200001E+000  0.2523342E+03  0.7546771E-02  0.1111839E+00
         21   -1    0    0  503  501  0.00000000000E+00  0.00000000000E+00  0.18275084528E+04  0.18275084528E+04  0.00000000000E+00 0.  1.
         21   -1    0    0  504  502 -0.00000000000E+00 -0.00000000000E+00 -0.52730231055E+03  0.52730231055E+03  0.00000000000E+00 0. -1.
         25    1    1    2    0    0 -0.22196686152E+03  0.35157266736E+02 -0.40849051445E+03  0.48269537124E+03  0.12500000000E+03 0.  0.
         21    1    1    2  503  502  0.20526228678E+03  0.39770976336E+02  0.54403310588E+02  0.21604179488E+03  0.00000000000E+00 0. -1.
         21    1    1    2  504  501  0.16704574738E+02 -0.74928243072E+02  0.16542933461E+04  0.16560735972E+04  0.00000000000E+00 0.  1.
<mgrwt>
<rscale>  4 0.25233415E+03</rscale>
<asrwt>0</asrwt>
<pdfrwt beam="1">  1       21 0.28115514E+00 0.25233415E+03</pdfrwt>
<pdfrwt beam="2">  1       21 0.81123433E-01 0.25233415E+03</pdfrwt>
<totfact> 0.53496614E+01</totfact>
</mgrwt>
</event>
<event>
 5    0  0.1200001E+000  0.5730336E+03  0.7546771E-02  0.9962988E-01
         21   -1    0    0  503  501  0.00000000000E+00  0.00000000000E+00  0.91041749575E+03  0.91041749575E+03  0.00000000000E+00 0.  1.
         21   -1    0    0  501  502 -0.00000000000E+00 -0.00000000000E+00 -0.84663563761E+03  0.84663563761E+03  0.00000000000E+00 0. -1.
         25    1    1    2    0    0  0.27750532161E+03  0.37854502825E+03  0.13990256176E+03  0.50547331158E+03  0.12500000000E+03 0.  0.
         21    1    1    2  503  504  0.10414881891E+03  0.81178535780E+02  0.44164005851E+03  0.46095864504E+03  0.00000000000E+00 0.  1.
         21    1    1    2  504  502 -0.38165414051E+03 -0.45972356403E+03 -0.51776076214E+03  0.79062117674E+03  0.00000000000E+00 0. -1.
<mgrwt>
<rscale>  4 0.57303355E+03</rscale>
<asrwt>0</asrwt>
<pdfrwt beam="1">  1       21 0.14006423E+00 0.57303355E+03</pdfrwt>
<pdfrwt beam="2">  1       21 0.13025164E+00 0.57303355E+03</pdfrwt>
<totfact> 0.11702492E+02</totfact>
</mgrwt>
</event>
<event>
 5    0  0.1200001E+000  0.5145640E+03  0.7546771E-02  0.1010046E+00
         21   -1    0    0  503  501  0.00000000000E+00  0.00000000000E+00  0.20736774666E+03  0.20736774666E+03  0.00000000000E+00 0.  1.
         21   -1    0    0  504  502 -0.00000000000E+00 -0.00000000000E+00 -0.28423547014E+04  0.28423547014E+04  0.00000000000E+00 0. -1.
         25    1    1    2    0    0  0.41376107494E+03 -0.26168576384E+03 -0.21898429369E+04  0.22473795305E+04  0.12500000000E+03 0.  0.
         21    1    1    2  503  502 -0.50913695601E+03  0.21153403446E+03 -0.41613138294E+03  0.69074772209E+03  0.00000000000E+00 0.  1.
         21    1    1    2  504  501  0.95375881063E+02  0.50151729389E+02 -0.29012634874E+02  0.11159519538E+03  0.00000000000E+00 0.  1.
<mgrwt>
<rscale>  4 0.51456398E+03</rscale>
<asrwt>0</asrwt>
<pdfrwt beam="1">  1       21 0.31902732E-01 0.51456398E+03</pdfrwt>
<pdfrwt beam="2">  1       21 0.43728531E+00 0.51456398E+03</pdfrwt>
<totfact> 0.33460091E+01</totfact>
</mgrwt>
</event>
<event>
 5    0  0.1200001E+000  0.3153462E+03  0.7546771E-02  0.1077811E+00
         21   -1    0    0  502  501  0.00000000000E+00  0.00000000000E+00  0.43158338784E+03  0.43158338784E+03  0.00000000000E+00 0. -1.
         21   -1    0    0  503  502 -0.00000000000E+00 -0.00000000000E+00 -0.78189201575E+03  0.78189201575E+03  0.00000000000E+00 0. -1.
         25    1    1    2    0    0  0.93360247363E+02 -0.27404760613E+03 -0.69259693092E+03  0.76100836719E+03  0.12500000000E+03 0.  0.
         21    1    1    2  503  504 -0.29373706180E+01  0.19828621239E+02  0.52365474350E+01  0.20717716945E+02  0.00000000000E+00 0. -1.
         21    1    1    2  504  501 -0.90422876745E+02  0.25421898489E+03  0.33705175557E+03  0.43174931946E+03  0.00000000000E+00 0. -1.
<mgrwt>
<rscale>  4 0.31534620E+03</rscale>
<asrwt>0</asrwt>
<pdfrwt beam="1">  1       21 0.66397445E-01 0.31534620E+03</pdfrwt>
<pdfrwt beam="2">  1       21 0.12029108E+00 0.31534620E+03</pdfrwt>
<totfact> 0.99092752E+02</totfact>
</mgrwt>
</event>
