<LesHouchesEvents version="3.0">
  <!--
  <scalesfunctionalform>
    muR  H_T/2 := sum_i mT(i)/2, i=final state
    muF1 H_T/2 := sum_i mT(i)/2, i=final state
    muF2 H_T/2 := sum_i mT(i)/2, i=final state
    QES  H_T/2 := sum_i mT(i)/2, i=final state
  </scalesfunctionalform>
HERWIG6   
  -->
  <header>
       69
  </header>
  <init>
   2212   2212 0.65000000D+04 0.65000000D+04 -1 -1   247000   247000 -3   1
 0.17921323D-01 0.32723815D-03 0.59588745D-03     66
  </init>
  <event>
  6     66 0.59588745E-03 0.38663745E+02 0.75467711E-02 0.11865674E+00
        1 -1    0    0  502    0 0.00000000E+00 0.00000000E+00 0.24866431E+04 0.24866432E+04 0.32000000E+00 0.0000E+00 0.9000E+01
       21 -1    0    0  501  502 0.00000000E+00 0.00000000E+00 -.32334449E+02 0.32343146E+02 0.75000000E+00 0.0000E+00 0.9000E+01
       25  1    1    2    0    0 0.40705360E+02 0.18553817E+02 0.19713022E+04 0.19757678E+04 0.12500000E+03 0.0000E+00 0.9000E+01
      -24  1    1    2    0    0 0.47298850E+02 -.25555792E+02 0.38716756E+03 0.39906919E+03 0.80419002E+02 0.0000E+00 0.9000E+01
        2  1    1    2  503    0 -.56209465E+02 -.11746941E+02 0.90017724E+02 0.10677447E+03 0.32000000E+00 0.0000E+00 0.9000E+01
       21  1    1    2  501  503 -.31794745E+02 0.18748915E+02 0.58212021E+01 0.37374811E+02 0.75000000E+00 0.0000E+00 0.9000E+01
#aMCatNLO 2  0  0  5  2 0.29701920D+02 0.00000000D+00  -5  6  0 0.00000000D+00 0.00000000D+00 0.00000000D+00 0.00000000D+00 0.00000000D+00
  <mgrwgt>
 0.4384147472D-01    1    2    0
 0.283575767620918D+03 0.000000000000000D+00 0.000000000000000D+00 0.283575767620918D+03
 0.283575767620918D+03 -.000000000000000D+00 -.000000000000000D+00 -.283575767620918D+03
 0.247776001135383D+03 0.422297959065115D+02 0.184325267087615D+02 0.208913458243998D+03
 0.972273480295990D+02 0.479001855593235D+02 -.256036362577358D+02 -.599727306883438D+01
 0.222148186076853D+03 -.901299814658350D+02 0.717110954897429D+01 -.202916185175163D+03
 0.000000000000000D+00 0.000000000000000D+00 0.000000000000000D+00 -.000000000000000D+00
 0.283575767620918D+03 0.000000000000000D+00 0.000000000000000D+00 0.283575767620918D+03
 0.283575767620918D+03 -.000000000000000D+00 -.000000000000000D+00 -.283575767620918D+03
 0.244648858955575D+03 0.407096383489406D+02 0.185534766546036D+02 0.205491016927238D+03
 0.970136364390826D+02 0.473005470673198D+02 -.255559265695055D+02 -.734728283586966D+01
 0.842950538545571D+02 -.559947253714632D+02 -.117276397712016D+02 -.619088790103166D+02
 0.141193985992621D+03 -.320154600447971D+02 0.187300896861035D+02 -.136234855081051D+03
0.383264964797D-04 0.000000000000D+00 0.000000000000D+00 0.877429832197D-06 0.126397120803D-07  6 1 21 25 -24 2 21 4 0.38256115D+00 0.49752012D-02 0.26211837D+05 0.26211837D+05 0.26211837D+05 0.12210997D+01  1  2  1  3  6  5        2 0.438414747176D-01 0.100000000000D+01
  </mgrwgt>
  </event>
  <event>
  5     66 0.59588745E-03 0.32000017E+02 0.75467711E-02 0.10904066E+00
        1 -1    0    0  502    0 0.00000000E+00 0.00000000E+00 0.24965341E+03 0.24965361E+03 0.32000000E+00 0.0000E+00 0.9000E+01
       21 -1    0    0  501  502 0.00000000E+00 0.00000000E+00 -.11580467E+03 0.11580710E+03 0.75000000E+00 0.0000E+00 0.9000E+01
       25  1    1    2    0    0 -.45314895E+02 0.25972085E+02 0.17848700E+03 0.22407722E+03 0.12500000E+03 0.0000E+00 0.9000E+01
      -24  1    1    2    0    0 0.22521269E+02 -.48431526E+02 -.14872815E+02 0.97679255E+02 0.80419002E+02 0.0000E+00 0.9000E+01
        2  1    1    2  501    0 0.22793626E+02 0.22459442E+02 -.29765448E+02 0.43704235E+02 0.32000000E+00 0.0000E+00 0.9000E+01
#aMCatNLO 1  0  0  1  2 0.24008031D+03 0.00000000D+00  -5  6  0 0.00000000D+00 0.00000000D+00 0.00000000D+00 0.00000000D+00 0.00000000D+00
  <mgrwgt>
 0.3925816455D-01    3    2    0
 0.170033852513931D+03 0.000000000000000D+00 0.000000000000000D+00 0.170033852513931D+03
 0.170033852513931D+03 0.000000000000000D+00 0.000000000000000D+00 -.170033852513931D+03
 0.170557920182172D+03 -.453150650689883D+02 0.259719172450465D+02 0.103619537391739D+03
 0.110826772479136D+03 0.225211582550525D+02 -.484316351450507D+02 -.544291437724241D+02
 0.586830123665550D+02 0.227939068139359D+02 0.224597179000043D+02 -.491903936193144D+02
 0.000000000000000D+00 0.000000000000000D+00 0.000000000000000D+00 -.000000000000000D+00
 0.310900932348563D+03 0.000000000000000D+00 0.000000000000000D+00 0.310900932348563D+03
 0.348358566105554D+03 0.000000000000000D+00 0.000000000000000D+00 -.348358566105554D+03
 0.206510430309748D+03 -.983309085579152D+02 -.813362263669406D+02 0.103619537391739D+03
 0.159274328917552D+03 -.154550805333591D+02 -.125298462447367D+03 -.544291437724241D+02
 0.504899074746910D+02 0.744418461109967D+01 -.860930007931146D+01 -.491903936193144D+02
 0.242984831752126D+03 0.106341804480175D+03 0.215243988893619D+03 -.374576337569911D+02
0.604226020106D-05 0.000000000000D+00 0.000000000000D+00 0.810762280599D-06 0.000000000000D+00  6 1 21 25 -24 2 21 2 0.38408419D-01 0.17816305D-01 0.17425796D+05 0.17425796D+05 0.17425796D+05 0.12404685D+01  1  2  2  1  6  1        1 0.320487717274D-01 0.100000000000D+01
0.260895262578D-06 0.318858830962D-06 -.121975824936D-07 0.810762280599D-06 0.000000000000D+00  6 1 21 25 -24 2 21 4 0.38408419D-01 0.17816305D-01 0.17425796D+05 0.17425796D+05 0.17425796D+05 0.12404685D+01  1  2  3  1  6  1        1 0.212936273708D-02 0.100000000000D+01
0.622418979596D-06 0.000000000000D+00 0.000000000000D+00 0.810762280599D-06 0.000000000000D+00  6 1 21 25 -24 2 21 4 0.38408419D-01 0.17816305D-01 0.17425796D+05 0.17425796D+05 0.17425796D+05 0.12404685D+01  1  2 15  1  6  1        1 0.508003008146D-02 0.100000000000D+01
  </mgrwgt>
  </event>
  <event>
  6     66 0.59588745E-03 0.15248710E+03 0.75467711E-02 0.11256828E+00
        1 -1    0    0  502    0 0.00000000E+00 0.00000000E+00 0.41810753E+03 0.41810766E+03 0.32000000E+00 0.0000E+00 0.9000E+01
       21 -1    0    0  501  502 0.00000000E+00 0.00000000E+00 -.12882092E+03 0.12882310E+03 0.75000000E+00 0.0000E+00 0.9000E+01
       25  1    1    2    0    0 -.92665623E+02 0.45603578E+02 0.94928781E+02 0.18789113E+03 0.12500000E+03 0.0000E+00 0.9000E+01
      -24  1    1    2    0    0 -.66134256E+02 -.84900240E+02 0.94889397E+02 0.16447797E+03 0.80419002E+02 0.0000E+00 0.9000E+01
        2  1    1    2  503    0 0.11091051E+03 0.41174418E+02 0.80055112E+02 0.14284746E+03 0.32000000E+00 0.0000E+00 0.9000E+01
       21  1    1    2  501  503 0.47889371E+02 -.18777562E+01 0.19413327E+02 0.51714192E+02 0.75000000E+00 0.0000E+00 0.9000E+01
#aMCatNLO 2  0  0  5  2 0.15694599D+02 0.00000000D+00  -5  6  0 0.00000000D+00 0.00000000D+00 0.00000000D+00 0.00000000D+00 0.00000000D+00
  <mgrwgt>
 0.1702245430D-01    2    2    0
 0.232081078223076D+03 0.000000000000000D+00 0.000000000000000D+00 0.232081078223076D+03
 0.232081078223076D+03 -.000000000000000D+00 -.000000000000000D+00 -.232081078223076D+03
 0.162854389118679D+03 -.939014129756214D+02 0.452977690462149D+02 -.521428958109759D+01
 0.135336578367722D+03 -.671606586206960D+02 -.851542340617174D+02 0.932608411438963D+01
 0.165971188959751D+03 0.161062071596317D+03 0.398564650155025D+02 -.411179453329204D+01
 0.000000000000000D+00 0.000000000000000D+00 0.000000000000000D+00 -.000000000000000D+00
 0.232081078223076D+03 0.000000000000000D+00 0.000000000000000D+00 0.232081078223076D+03
 0.232081078223076D+03 -.000000000000000D+00 -.000000000000000D+00 -.232081078223076D+03
 0.162230985551843D+03 -.926642065745142D+02 0.456039284861995D+02 -.524587453754456D+01
 0.134667326911513D+03 -.661330806797504D+02 -.848999493387650D+02 0.929985081614483D+01
 0.118241710515751D+03 0.110717464476085D+03 0.411626124829157D+02 0.532771050816932D+01
 0.490221334670447D+02 0.480798227781801D+02 -.186659163035016D+01 -.938168678676960D+01
-.114631242234D-04 0.000000000000D+00 0.000000000000D+00 0.162931309141D-06 0.000000000000D+00  6 1 21 25 -24 2 21 4 0.64324413D-01 0.19818780D-01 0.53529680D+05 0.53529680D+05 0.53529680D+05 0.11893590D+01  1  2 13  3  6  5        2 -.336850956539D-01 0.100000000000D+01
0.172559089692D-04 0.000000000000D+00 0.000000000000D+00 0.162882022437D-06 0.407215223215D-08  6 1 21 25 -24 2 21 4 0.64324413D-01 0.19818780D-01 0.53529680D+05 0.53529680D+05 0.53529680D+05 0.11893590D+01  1  2  1  3  6  5        2 0.507075499569D-01 0.100000000000D+01
  </mgrwgt>
  </event>
  <event>
  5     66 0.59588745E-03 0.46694385E+02 0.75467711E-02 0.10866627E+00
        1 -1    0    0  502    0 0.00000000E+00 0.00000000E+00 0.16290445E+03 0.16290477E+03 0.32000000E+00 0.0000E+00 0.9000E+01
       21 -1    0    0  501  502 0.00000000E+00 0.00000000E+00 -.37424534E+03 0.37424609E+03 0.75000000E+00 0.0000E+00 0.9000E+01
       25  1    1    2    0    0 0.11146722E+03 0.10350698E+03 -.65591840E+02 0.20752331E+03 0.12500000E+03 0.0000E+00 0.9000E+01
      -24  1    1    2    0    0 -.72864371E+02 -.12977809E+03 0.75851483E+01 0.16934084E+03 0.80419002E+02 0.0000E+00 0.9000E+01
        2  1    1    2  501    0 -.38602844E+02 0.26271110E+02 -.15333420E+03 0.16028671E+03 0.32000000E+00 0.0000E+00 0.9000E+01
#aMCatNLO 1  0  0  2  5 0.45571908D+02 0.00000000D+00  -5  6  0 0.00000000D+00 0.00000000D+00 0.00000000D+00 0.00000000D+00 0.00000000D+00
  <mgrwgt>
 0.1379390529D-01   12    2    0
 0.246913990819397D+03 0.000000000000000D+00 0.000000000000000D+00 0.246913990819397D+03
 0.246913990819397D+03 0.000000000000000D+00 0.000000000000000D+00 -.246913990819397D+03
 0.197658101581322D+03 0.111467282059729D+03 0.103506934341999D+03 0.174666738124413D+02
 0.187443137525480D+03 -.728643072039445D+02 -.129778133493505D+03 0.807226278911725D+02
 0.108726742531990D+03 -.386029748557845D+02 0.262711991515067D+02 -.981893017036138D+02
 0.000000000000000D+00 0.000000000000000D+00 -.000000000000000D+00 -.000000000000000D+00
 0.281897934523751D+03 0.000000000000000D+00 0.000000000000000D+00 0.281897934523751D+03
 0.469259889111365D+03 0.000000000000000D+00 0.000000000000000D+00 -.469259889111365D+03
 0.191567425855860D+03 0.623405813395913D+02 0.129929388027544D+03 0.174666738124413D+02
 0.196094053145594D+03 -.121273045719126D+03 -.103741830777400D+03 0.807226278911725D+02
 0.126877293749378D+03 -.683401019529256D+02 0.422651057633400D+02 -.981893017036138D+02
 0.236619050884284D+03 0.127272566332461D+03 -.684526630134838D+02 -.187361954587614D+03
0.226323385589D-04 0.000000000000D+00 0.000000000000D+00 0.564801157009D-06 0.000000000000D+00  6 1 21 25 -24 2 21 2 0.25062305D-01 0.57576289D-01 0.42590663D+05 0.42590663D+05 0.42590663D+05 0.11992424D+01  1  2  2  2  6  2       21 0.189114582565D-01 0.100000000000D+01
0.203039475516D-05 0.119434131843D-05 -.456881708846D-07 0.564801157009D-06 0.000000000000D+00  6 1 21 25 -24 2 21 4 0.25062305D-01 0.57576289D-01 0.42590663D+05 0.42590663D+05 0.42590663D+05 0.11992424D+01  1  2  3  2  6  2       21 0.244000104452D-02 0.100000000000D+01
0.220755794256D-05 0.000000000000D+00 0.000000000000D+00 0.564801157009D-06 0.000000000000D+00  6 1 21 25 -24 2 21 4 0.25062305D-01 0.57576289D-01 0.42590663D+05 0.42590663D+05 0.42590663D+05 0.11992424D+01  1  2 15  2  6  2       21 0.265290464920D-02 0.100000000000D+01
-.429749432230D-04 0.000000000000D+00 -.336597481326D-04 0.564801157009D-06 0.000000000000D+00  6 1 21 25 -24 2 21 4 0.25062305D-01 0.11902919D+00 0.42590663D+05 0.42590663D+05 0.42590663D+05 0.11992424D+01  1  2  5  2  6  2       21 -.980093019439D-02 0.100000000000D+01
-.100603043745D-05 0.000000000000D+00 -.868920107130D-05 0.564801157009D-06 0.000000000000D+00  6 1 -1 25 -24 2 -1 4 0.25062305D-01 0.11902919D+00 0.42590663D+05 0.42590663D+05 0.42590663D+05 0.11992424D+01  1  2  5  5  6  2       21 -.271737202667D-04 0.100000000000D+01
-.100603043745D-05 0.000000000000D+00 -.868920107130D-05 0.564801157009D-06 0.000000000000D+00  6 1 1 25 -24 2 1 4 0.25062305D-01 0.11902919D+00 0.42590663D+05 0.42590663D+05 0.42590663D+05 0.11992424D+01  1  2  5  6  6  2       21 -.115930878599D-03 0.100000000000D+01
-.100603043745D-05 0.000000000000D+00 -.868920107130D-05 0.564801157009D-06 0.000000000000D+00  6 1 -2 25 -24 2 -2 4 0.25062305D-01 0.11902919D+00 0.42590663D+05 0.42590663D+05 0.42590663D+05 0.11992424D+01  1  2  5  7  6  2       21 -.199768838600D-04 0.100000000000D+01
-.100603043745D-05 0.000000000000D+00 -.868920107130D-05 0.564801157009D-06 0.000000000000D+00  6 1 2 25 -24 2 2 4 0.25062305D-01 0.11902919D+00 0.42590663D+05 0.42590663D+05 0.42590663D+05 0.11992424D+01  1  2  5  8  6  2       21 -.200399833089D-03 0.100000000000D+01
-.100603043745D-05 0.000000000000D+00 -.868920107130D-05 0.564801157009D-06 0.000000000000D+00  6 1 -3 25 -24 2 -3 4 0.25062305D-01 0.11902919D+00 0.42590663D+05 0.42590663D+05 0.42590663D+05 0.11992424D+01  1  2  5  9  6  2       21 -.127913169498D-04 0.100000000000D+01
-.100603043745D-05 0.000000000000D+00 -.868920107130D-05 0.564801157009D-06 0.000000000000D+00  6 1 -4 25 -24 2 -4 4 0.25062305D-01 0.11902919D+00 0.42590663D+05 0.42590663D+05 0.42590663D+05 0.11992424D+01  1  2  5  9  6  2       21 -.102151894343D-04 0.100000000000D+01
-.100603043745D-05 0.000000000000D+00 -.868920107130D-05 0.564801157009D-06 0.000000000000D+00  6 1 3 25 -24 2 3 4 0.25062305D-01 0.11902919D+00 0.42590663D+05 0.42590663D+05 0.42590663D+05 0.11992424D+01  1  2  5 10  6  2       21 -.128254583123D-04 0.100000000000D+01
-.100603043745D-05 0.000000000000D+00 -.868920107130D-05 0.564801157009D-06 0.000000000000D+00  6 1 4 25 -24 2 4 4 0.25062305D-01 0.11902919D+00 0.42590663D+05 0.42590663D+05 0.42590663D+05 0.11992424D+01  1  2  5 10  6  2       21 -.102151894343D-04 0.100000000000D+01
  </mgrwgt>
  </event>
  <event>
  5     66 0.59588745E-03 0.12213361E+03 0.75467711E-02 0.11033977E+00
        1 -1    0    0  502    0 0.00000000E+00 0.00000000E+00 0.31812523E+03 0.31812539E+03 0.32000000E+00 0.0000E+00 0.9000E+01
       21 -1    0    0  501  502 0.00000000E+00 0.00000000E+00 -.70906415E+03 0.70906455E+03 0.75000000E+00 0.0000E+00 0.9000E+01
       25  1    1    2    0    0 0.11838425E+03 -.12870684E+03 0.96287758E+02 0.23553474E+03 0.12500000E+03 0.0000E+00 0.9000E+01
      -24  1    1    2    0    0 0.48123479E+02 0.61787117E+02 0.11652500E+03 0.16179866E+03 0.80419002E+02 0.0000E+00 0.9000E+01
        2  1    1    2  501    0 -.16650773E+03 0.66919723E+02 -.60375168E+03 0.62985654E+03 0.32000000E+00 0.0000E+00 0.9000E+01
#aMCatNLO 1  0  0  2  1 0.24421127D+02 0.00000000D+00  -5  6  0 0.00000000D+00 0.00000000D+00 0.00000000D+00 0.00000000D+00 0.00000000D+00
  <mgrwgt>
 0.3323151108D-01   32    2    0
 0.474943664277497D+03 0.000000000000000D+00 0.000000000000000D+00 0.474943664277497D+03
 0.474943664277497D+03 0.000000000000000D+00 0.000000000000000D+00 -.474943664277497D+03
 0.294331304191746D+03 0.118384262271281D+03 -.128706845557695D+03 0.201061261759410D+03
 0.222923426788652D+03 0.481234895396605D+02 0.617871125138337D+02 0.192598340435617D+03
 0.432632597574597D+03 -.166507751810941D+03 0.669197330438616D+02 -.393659602195028D+03
 0.000000000000000D+00 0.000000000000000D+00 0.000000000000000D+00 -.000000000000000D+00
 0.476486344040141D+03 0.000000000000000D+00 0.000000000000000D+00 0.476486344040141D+03
 0.582694845949272D+03 0.000000000000000D+00 0.000000000000000D+00 -.582694845949272D+03
 0.294195217572845D+03 0.112558766373546D+03 -.133531715988798D+03 0.201061261759410D+03
 0.221030979635571D+03 0.437290324034701D+02 0.581474762203130D+02 0.192598340435617D+03
 0.434975006949614D+03 -.175095715741344D+03 0.598068942472048D+02 -.393659602195028D+03
 0.108979985831383D+03 0.188079169643280D+02 0.155773455212802D+02 -.106208501909132D+03
0.228112303398D-04 0.000000000000D+00 0.000000000000D+00 0.886993680260D-06 0.000000000000D+00  6 1 21 25 -24 2 21 2 0.48942386D-01 0.10908684D+00 0.64175914D+05 0.64175914D+05 0.64175914D+05 0.11816930D+01  1  2  2  2  6  2       21 0.182942465327D-02 0.100000000000D+01
0.139427100309D-06 0.120378169707D-05 -.460493018493D-07 0.886993680260D-06 0.000000000000D+00  6 1 21 25 -24 2 21 4 0.48942386D-01 0.10908684D+00 0.64175914D+05 0.64175914D+05 0.64175914D+05 0.11816930D+01  1  2  3  2  6  2       21 0.156142926890D-04 0.100000000000D+01
0.235275443788D-05 0.000000000000D+00 0.000000000000D+00 0.886993680260D-06 0.000000000000D+00  6 1 21 25 -24 2 21 4 0.48942386D-01 0.10908684D+00 0.64175914D+05 0.64175914D+05 0.64175914D+05 0.11816930D+01  1  2 15  2  6  2       21 0.263482467447D-03 0.100000000000D+01
0.655989699509D-03 0.000000000000D+00 0.000000000000D+00 0.880751009100D-06 0.000000000000D+00  6 1 21 25 -24 2 21 4 0.48942386D-01 0.13398628D+00 0.70932497D+05 0.70932497D+05 0.70932497D+05 0.11775272D+01  1  2 12  2  6  2       21 0.430361277140D-01 0.100000000000D+01
0.556370498319D-03 0.000000000000D+00 0.000000000000D+00 0.880751009100D-06 0.000000000000D+00  6 1 21 25 -24 2 21 4 0.48942386D-01 0.13839185D+00 0.70932497D+05 0.70932497D+05 0.70932497D+05 0.11775272D+01  1  2 12  2  6  2       21 0.335720536600D-01 0.100000000000D+01
-.837038931141D-03 0.000000000000D+00 0.000000000000D+00 0.886993680260D-06 0.000000000000D+00  6 1 21 25 -24 2 21 4 0.48942386D-01 0.10908684D+00 0.64175914D+05 0.64175914D+05 0.64175914D+05 0.11816930D+01  1  2  4  2  6  2       21 -.937390997440D-01 0.100000000000D+01
-.135395636010D-02 0.000000000000D+00 -.402176198045D-04 0.886993680260D-06 0.000000000000D+00  6 1 21 25 -24 2 21 4 0.48942386D-01 0.13401183D+00 0.64175914D+05 0.64175914D+05 0.64175914D+05 0.11816930D+01  1  2  5  2  6  2       21 -.906511344637D-01 0.100000000000D+01
0.124559741540D-02 0.000000000000D+00 0.370055632826D-04 0.886993680260D-06 0.000000000000D+00  6 1 21 25 -24 2 21 4 0.48942386D-01 0.10908684D+00 0.64175914D+05 0.64175914D+05 0.64175914D+05 0.11816930D+01  1  2  6  2  6  2       21 0.139493129912D+00 0.100000000000D+01
0.402795107840D-04 0.000000000000D+00 0.000000000000D+00 0.880751009100D-06 0.000000000000D+00  6 1 -1 25 -24 2 -1 4 0.48942386D-01 0.13398628D+00 0.70932497D+05 0.70932497D+05 0.70932497D+05 0.11775272D+01  1  2 12  5  6  2       21 0.322135598052D-03 0.100000000000D+01
0.409306776462D-04 0.000000000000D+00 0.000000000000D+00 0.880751009100D-06 0.000000000000D+00  6 1 -1 25 -24 2 -1 4 0.48942386D-01 0.13839185D+00 0.70932497D+05 0.70932497D+05 0.70932497D+05 0.11775272D+01  1  2 12  5  6  2       21 0.301774701886D-03 0.100000000000D+01
-.821486385907D-04 0.000000000000D+00 -.238812753109D-05 0.886993680260D-06 0.000000000000D+00  6 1 -1 25 -24 2 -1 4 0.48942386D-01 0.13401183D+00 0.64175914D+05 0.64175914D+05 0.64175914D+05 0.11816930D+01  1  2  5  5  6  2       21 -.668117446833D-03 0.100000000000D+01
0.402795107840D-04 0.000000000000D+00 0.000000000000D+00 0.880751009100D-06 0.000000000000D+00  6 1 1 25 -24 2 1 4 0.48942386D-01 0.13398628D+00 0.70932497D+05 0.70932497D+05 0.70932497D+05 0.11775272D+01  1  2 12  6  6  2       21 0.152639099550D-02 0.100000000000D+01
0.409306776462D-04 0.000000000000D+00 0.000000000000D+00 0.880751009100D-06 0.000000000000D+00  6 1 1 25 -24 2 1 4 0.48942386D-01 0.13839185D+00 0.70932497D+05 0.70932497D+05 0.70932497D+05 0.11775272D+01  1  2 12  6  6  2       21 0.147193586864D-02 0.100000000000D+01
-.821486385907D-04 0.000000000000D+00 -.238812753109D-05 0.886993680260D-06 0.000000000000D+00  6 1 1 25 -24 2 1 4 0.48942386D-01 0.13401183D+00 0.64175914D+05 0.64175914D+05 0.64175914D+05 0.11816930D+01  1  2  5  6  6  2       21 -.316546284722D-02 0.100000000000D+01
0.402795107840D-04 0.000000000000D+00 0.000000000000D+00 0.880751009100D-06 0.000000000000D+00  6 1 -2 25 -24 2 -2 4 0.48942386D-01 0.13398628D+00 0.70932497D+05 0.70932497D+05 0.70932497D+05 0.11775272D+01  1  2 12  7  6  2       21 0.236775062325D-03 0.100000000000D+01
0.409306776462D-04 0.000000000000D+00 0.000000000000D+00 0.880751009100D-06 0.000000000000D+00  6 1 -2 25 -24 2 -2 4 0.48942386D-01 0.13839185D+00 0.70932497D+05 0.70932497D+05 0.70932497D+05 0.11775272D+01  1  2 12  7  6  2       21 0.221800387496D-03 0.100000000000D+01
-.821486385907D-04 0.000000000000D+00 -.238812753109D-05 0.886993680260D-06 0.000000000000D+00  6 1 -2 25 -24 2 -2 4 0.48942386D-01 0.13401183D+00 0.64175914D+05 0.64175914D+05 0.64175914D+05 0.11816930D+01  1  2  5  7  6  2       21 -.490741866206D-03 0.100000000000D+01
0.402795107840D-04 0.000000000000D+00 0.000000000000D+00 0.880751009100D-06 0.000000000000D+00  6 1 2 25 -24 2 2 4 0.48942386D-01 0.13398628D+00 0.70932497D+05 0.70932497D+05 0.70932497D+05 0.11775272D+01  1  2 12  8  6  2       21 0.273172222644D-02 0.100000000000D+01
0.409306776462D-04 0.000000000000D+00 0.000000000000D+00 0.880751009100D-06 0.000000000000D+00  6 1 2 25 -24 2 2 4 0.48942386D-01 0.13839185D+00 0.70932497D+05 0.70932497D+05 0.70932497D+05 0.11775272D+01  1  2 12  8  6  2       21 0.265868120538D-02 0.100000000000D+01
-.821486385907D-04 0.000000000000D+00 -.238812753109D-05 0.886993680260D-06 0.000000000000D+00  6 1 2 25 -24 2 2 4 0.48942386D-01 0.13401183D+00 0.64175914D+05 0.64175914D+05 0.64175914D+05 0.11816930D+01  1  2  5  8  6  2       21 -.566237192022D-02 0.100000000000D+01
0.402795107840D-04 0.000000000000D+00 0.000000000000D+00 0.880751009100D-06 0.000000000000D+00  6 1 -3 25 -24 2 -3 4 0.48942386D-01 0.13398628D+00 0.70932497D+05 0.70932497D+05 0.70932497D+05 0.11775272D+01  1  2 12  9  6  2       21 0.153540826649D-03 0.100000000000D+01
0.402795107840D-04 0.000000000000D+00 0.000000000000D+00 0.880751009100D-06 0.000000000000D+00  6 1 -4 25 -24 2 -4 4 0.48942386D-01 0.13398628D+00 0.70932497D+05 0.70932497D+05 0.70932497D+05 0.11775272D+01  1  2 12  9  6  2       21 0.122412174827D-03 0.100000000000D+01
0.409306776462D-04 0.000000000000D+00 0.000000000000D+00 0.880751009100D-06 0.000000000000D+00  6 1 -3 25 -24 2 -3 4 0.48942386D-01 0.13839185D+00 0.70932497D+05 0.70932497D+05 0.70932497D+05 0.11775272D+01  1  2 12  9  6  2       21 0.144048718606D-03 0.100000000000D+01
0.409306776462D-04 0.000000000000D+00 0.000000000000D+00 0.880751009100D-06 0.000000000000D+00  6 1 -4 25 -24 2 -4 4 0.48942386D-01 0.13839185D+00 0.70932497D+05 0.70932497D+05 0.70932497D+05 0.11775272D+01  1  2 12  9  6  2       21 0.114643160362D-03 0.100000000000D+01
-.821486385907D-04 0.000000000000D+00 -.238812753109D-05 0.886993680260D-06 0.000000000000D+00  6 1 -3 25 -24 2 -3 4 0.48942386D-01 0.13401183D+00 0.64175914D+05 0.64175914D+05 0.64175914D+05 0.11816930D+01  1  2  5  9  6  2       21 -.317778084440D-03 0.100000000000D+01
-.821486385907D-04 0.000000000000D+00 -.238812753109D-05 0.886993680260D-06 0.000000000000D+00  6 1 -4 25 -24 2 -4 4 0.48942386D-01 0.13401183D+00 0.64175914D+05 0.64175914D+05 0.64175914D+05 0.11816930D+01  1  2  5  9  6  2       21 -.253151594415D-03 0.100000000000D+01
0.402795107840D-04 0.000000000000D+00 0.000000000000D+00 0.880751009100D-06 0.000000000000D+00  6 1 3 25 -24 2 3 4 0.48942386D-01 0.13398628D+00 0.70932497D+05 0.70932497D+05 0.70932497D+05 0.11775272D+01  1  2 12 10  6  2       21 0.154042184974D-03 0.100000000000D+01
0.402795107840D-04 0.000000000000D+00 0.000000000000D+00 0.880751009100D-06 0.000000000000D+00  6 1 4 25 -24 2 4 4 0.48942386D-01 0.13398628D+00 0.70932497D+05 0.70932497D+05 0.70932497D+05 0.11775272D+01  1  2 12 10  6  2       21 0.122412174827D-03 0.100000000000D+01
0.409306776462D-04 0.000000000000D+00 0.000000000000D+00 0.880751009100D-06 0.000000000000D+00  6 1 3 25 -24 2 3 4 0.48942386D-01 0.13839185D+00 0.70932497D+05 0.70932497D+05 0.70932497D+05 0.11775272D+01  1  2 12 10  6  2       21 0.144544924731D-03 0.100000000000D+01
0.409306776462D-04 0.000000000000D+00 0.000000000000D+00 0.880751009100D-06 0.000000000000D+00  6 1 4 25 -24 2 4 4 0.48942386D-01 0.13839185D+00 0.70932497D+05 0.70932497D+05 0.70932497D+05 0.11775272D+01  1  2 12 10  6  2       21 0.114643160362D-03 0.100000000000D+01
-.821486385907D-04 0.000000000000D+00 -.238812753109D-05 0.886993680260D-06 0.000000000000D+00  6 1 3 25 -24 2 3 4 0.48942386D-01 0.13401183D+00 0.64175914D+05 0.64175914D+05 0.64175914D+05 0.11816930D+01  1  2  5 10  6  2       21 -.318815433053D-03 0.100000000000D+01
-.821486385907D-04 0.000000000000D+00 -.238812753109D-05 0.886993680260D-06 0.000000000000D+00  6 1 4 25 -24 2 4 4 0.48942386D-01 0.13401183D+00 0.64175914D+05 0.64175914D+05 0.64175914D+05 0.11816930D+01  1  2  5 10  6  2       21 -.253151594415D-03 0.100000000000D+01
  </mgrwgt>
  </event>
  <event>
  5     66 0.59588745E-03 0.14575999E+03 0.75467711E-02 0.10906951E+00
        1 -1    0    0  502    0 0.00000000E+00 0.00000000E+00 0.10106674E+03 0.10106724E+03 0.32000000E+00 0.0000E+00 0.9000E+01
       21 -1    0    0  501  502 0.00000000E+00 0.00000000E+00 -.43873654E+03 0.43873718E+03 0.75000000E+00 0.0000E+00 0.9000E+01
       25  1    1    2    0    0 -.38130821E+02 -.92717042E+01 -.67447009E+02 0.14735679E+03 0.12500000E+03 0.0000E+00 0.9000E+01
      -24  1    1    2    0    0 -.74805930E+02 -.82875991E+02 -.14956742E+03 0.20322890E+03 0.80419002E+02 0.0000E+00 0.9000E+01
        2  1    1    2  501    0 0.11293675E+03 0.92147695E+02 -.12065538E+03 0.18921873E+03 0.32000000E+00 0.0000E+00 0.9000E+01
#aMCatNLO 1  0  0  2  2 0.14173974D+03 0.00000000D+00  -5  6  0 0.00000000D+00 0.00000000D+00 0.00000000D+00 0.00000000D+00 0.00000000D+00
  <mgrwgt>
 0.1967970295D-01    3    2    0
 0.210575353659006D+03 0.000000000000000D+00 0.000000000000000D+00 0.210575353659006D+03
 0.210575353659006D+03 0.000000000000000D+00 0.000000000000000D+00 -.210575353659006D+03
 0.134795072927246D+03 -.381309079933364D+02 -.927177524395109D+01 0.316982605972462D+02
 0.140566062152319D+03 -.748060207631226D+02 -.828760648597215D+02 -.287614152223705D+02
 0.145789572238447D+03 0.112936928756459D+03 0.921478401036725D+02 -.293684537487569D+01
 0.000000000000000D+00 -.000000000000000D+00 -.000000000000000D+00 0.000000000000000D+00
 0.493243816298084D+03 0.000000000000000D+00 0.000000000000000D+00 0.493243816298084D+03
 0.240710347207569D+03 0.000000000000000D+00 0.000000000000000D+00 -.240710347207569D+03
 0.129220935779613D+03 0.502038712996362D+01 -.656248671870200D+01 0.316982605972462D+02
 0.121438855391712D+03 -.319834223302699D+02 -.801874138186816D+02 -.287614152223705D+02
 0.193702753401823D+03 0.168424221392810D+03 0.956316540843943D+02 -.293684537487569D+01
 0.289591618932506D+03 -.141461186192503D+03 -.888175354701067D+01 0.252533469090515D+03
0.174079401909D-04 0.000000000000D+00 0.000000000000D+00 0.173576413451D-06 0.000000000000D+00  6 1 21 25 -24 2 21 2 0.15548817D-01 0.67498017D-01 0.42925032D+05 0.42925032D+05 0.42925032D+05 0.11989001D+01  1  2  2  2  6  2       21 0.190492778386D-01 0.100000000000D+01
-.164713346956D-05 0.918642242144D-06 -.351416157955D-07 0.173576413451D-06 0.000000000000D+00  6 1 21 25 -24 2 21 4 0.15548817D-01 0.67498017D-01 0.42925032D+05 0.42925032D+05 0.42925032D+05 0.11989001D+01  1  2  3  2  6  2       21 -.259075240286D-02 0.100000000000D+01
0.204794147383D-05 0.000000000000D+00 0.000000000000D+00 0.173576413451D-06 0.000000000000D+00  6 1 21 25 -24 2 21 4 0.15548817D-01 0.67498017D-01 0.42925032D+05 0.42925032D+05 0.42925032D+05 0.11989001D+01  1  2 15  2  6  2       21 0.322117751371D-02 0.100000000000D+01
  </mgrwgt>
  </event>
  <event>
  5     66 0.59588745E-03 0.28352722E+02 0.75467711E-02 0.12251688E+00
        1 -1    0    0  502    0 0.00000000E+00 0.00000000E+00 0.18368742E+04 0.18368742E+04 0.32000000E+00 0.0000E+00 0.9000E+01
       21 -1    0    0  501  502 0.00000000E+00 0.00000000E+00 -.14034138E+02 0.14054164E+02 0.75000000E+00 0.0000E+00 0.9000E+01
       25  1    1    2    0    0 -.27256505E+02 0.37772593E+02 0.14350912E+04 0.14412778E+04 0.12500000E+03 0.0000E+00 0.9000E+01
      -24  1    1    2    0    0 0.11213006E+02 -.61147746E+02 0.26900039E+03 0.28756426E+03 0.80419002E+02 0.0000E+00 0.9000E+01
        2  1    1    2  501    0 0.16043499E+02 0.23375153E+02 0.11874842E+03 0.12208637E+03 0.32000000E+00 0.0000E+00 0.9000E+01
#aMCatNLO 1  0  0  5  2 0.23523221D+01 0.00000000D+00  -5  6  0 0.00000000D+00 0.00000000D+00 0.00000000D+00 0.00000000D+00 0.00000000D+00
  <mgrwgt>
 0.6658632724D-01    8    2    0
 0.160616015365072D+03 0.000000000000000D+00 0.000000000000000D+00 0.160616015365072D+03
 0.160616015365072D+03 -.000000000000000D+00 -.000000000000000D+00 -.160616015365072D+03
 0.161130014182209D+03 -.272569750440990D+02 0.377719085638853D+02 0.903782147712923D+02
 0.130485740214478D+03 0.112126259932969D+02 -.611483007585321D+02 -.818197700902919D+02
 0.296162763334566D+02 0.160443490508021D+02 0.233763921946468D+02 -.855844468100049D+01
 0.000000000000000D+00 0.000000000000000D+00 0.000000000000000D+00 0.000000000000000D+00
 0.160616015365072D+03 0.000000000000000D+00 0.000000000000000D+00 0.160616015365072D+03
 0.160616015365072D+03 -.000000000000000D+00 -.000000000000000D+00 -.160616015365072D+03
 0.161115608381743D+03 -.271422868106719D+02 0.379390077161298D+02 0.903170372876662D+02
 0.130461484189581D+03 0.113054979334850D+02 -.610129876404468D+02 -.818693102343014D+02
 0.100038167593999D+02 0.392877041641735D+01 0.788980045747730D+01 -.473203566257950D+01
 0.196511213994210D+02 0.119080184607696D+02 0.151841794668397D+02 -.371569139078528D+01
0.186650052746D-05 0.000000000000D+00 0.000000000000D+00 0.375592034002D-06 0.000000000000D+00  6 1 21 25 -24 2 21 2 0.28259757D+00 0.21606407D-02 0.17344371D+05 0.17344371D+05 0.17344371D+05 0.12406963D+01  1  2  2  3  6  5        2 0.154856150199D-01 0.100000000000D+01
0.402306257727D-07 0.984979389123D-07 -.376792680231D-08 0.375592034002D-06 0.000000000000D+00  6 1 21 25 -24 2 21 4 0.28259757D+00 0.21606407D-02 0.17344371D+05 0.17344371D+05 0.17344371D+05 0.12406963D+01  1  2  3  3  6  5        2 0.513792875775D-03 0.100000000000D+01
0.214661078855D-06 0.000000000000D+00 0.000000000000D+00 0.375592034002D-06 0.000000000000D+00  6 1 21 25 -24 2 21 4 0.28259757D+00 0.21606407D-02 0.17344371D+05 0.17344371D+05 0.17344371D+05 0.12406963D+01  1  2 15  3  6  5        2 0.274147694458D-02 0.100000000000D+01
0.169277582458D-07 0.000000000000D+00 0.000000000000D+00 0.375656758431D-06 0.000000000000D+00  6 1 21 25 -24 2 21 4 0.28259757D+00 0.21606407D-02 0.17306300D+05 0.17306300D+05 0.17306300D+05 0.12408032D+01  1  2 12  3  6  5        2 0.216266907717D-03 0.100000000000D+01
-.111409769852D-04 0.000000000000D+00 0.000000000000D+00 0.375592034002D-06 0.000000000000D+00  6 1 21 25 -24 2 21 4 0.28259757D+00 0.21606407D-02 0.17344371D+05 0.17344371D+05 0.17344371D+05 0.12406963D+01  1  2  4  3  6  5        2 -.142283508999D+00 0.100000000000D+01
-.487988344297D-05 0.000000000000D+00 0.000000000000D+00 0.375592034002D-06 0.000000000000D+00  6 1 21 25 -24 2 21 4 0.28259757D+00 0.21606407D-02 0.17344371D+05 0.17344371D+05 0.17344371D+05 0.12406963D+01  1  2  5  3  6  5        2 -.623219077371D-01 0.100000000000D+01
0.145701426203D-04 0.000000000000D+00 -.000000000000D+00 0.375592034002D-06 0.000000000000D+00  6 1 21 25 -24 2 21 4 0.28259757D+00 0.21606407D-02 0.17344371D+05 0.17344371D+05 0.17344371D+05 0.12406963D+01  1  2  6  3  6  5        2 0.186078027214D+00 0.100000000000D+01
0.517824178849D-05 0.000000000000D+00 0.000000000000D+00 0.375592034002D-06 0.110749063423D-06  6 1 21 25 -24 2 21 4 0.28259757D+00 0.21606407D-02 0.17306300D+05 0.17306300D+05 0.17306300D+05 0.12408032D+01  1  2 11  3  6  5        2 0.661565650183D-01 0.100000000000D+01
  </mgrwgt>
  </event>
  <event>
  5     66 0.59588745E-03 0.17874652E+03 0.75467711E-02 0.10931905E+00
        1 -1    0    0  502    0 0.00000000E+00 0.00000000E+00 0.63970290E+03 0.63970298E+03 0.32000000E+00 0.0000E+00 0.9000E+01
       21 -1    0    0  501  502 0.00000000E+00 0.00000000E+00 -.18041365E+03 0.18041521E+03 0.75000000E+00 0.0000E+00 0.9000E+01
       25  1    1    2    0    0 0.26961696E+02 -.58517575E+02 0.38255504E+03 0.40758385E+03 0.12500000E+03 0.0000E+00 0.9000E+01
      -24  1    1    2    0    0 -.12085131E+03 -.12366124E+03 0.81855741E+02 0.20752041E+03 0.80419002E+02 0.0000E+00 0.9000E+01
        2  1    1    2  501    0 0.93889615E+02 0.18217881E+03 -.51215378E+01 0.20501393E+03 0.32000000E+00 0.0000E+00 0.9000E+01
#aMCatNLO 1  0  0  1  2 0.31584097D+02 0.00000000D+00  -5  6  0 0.00000000D+00 0.00000000D+00 0.00000000D+00 0.00000000D+00 0.00000000D+00
  <mgrwgt>
 0.5716941899D-01    6    2    0
 0.339723136305358D+03 0.000000000000000D+00 0.000000000000000D+00 0.339723136305358D+03
 0.339723136305358D+03 0.000000000000000D+00 0.000000000000000D+00 -.339723136305358D+03
 0.233371721459507D+03 0.269616699591280D+02 -.585176263461649D+02 0.186242090132170D+03
 0.195152768926243D+03 -.120851333330529D+03 -.123661278806539D+03 -.414756630010147D+02
 0.250921782224966D+03 0.938896633714013D+02 0.182178905152704D+03 -.144766427131155D+03
 0.000000000000000D+00 -.000000000000000D+00 0.000000000000000D+00 -.000000000000000D+00
 0.352882922471512D+03 0.000000000000000D+00 0.000000000000000D+00 0.352882922471512D+03
 0.359584242290522D+03 0.000000000000000D+00 0.000000000000000D+00 -.359584242290522D+03
 0.236597154045025D+03 0.303081896140022D+02 -.689094391772828D+02 0.186242090132170D+03
 0.199113152295310D+03 -.118043873680784D+03 -.132379170293766D+03 -.414756630010147D+02
 0.244469664385087D+03 0.974172101927889D+02 0.171224955945362D+03 -.144766427131155D+03
 0.322871940366114D+02 -.968152612600676D+01 0.300636535256875D+02 -.670131981901054D+01
0.194986249881D-04 0.000000000000D+00 0.000000000000D+00 0.104621526213D-06 0.000000000000D+00  6 1 21 25 -24 2 21 2 0.98415956D-01 0.27756073D-01 0.71896992D+05 0.71896992D+05 0.71896992D+05 0.11769687D+01  1  2  2  1  6  1        1 0.116727993137D-01 0.100000000000D+01
-.128755063901D-05 0.102897070999D-05 -.393621060480D-07 0.104621526213D-06 0.000000000000D+00  6 1 21 25 -24 2 21 4 0.98415956D-01 0.27756073D-01 0.71896992D+05 0.71896992D+05 0.71896992D+05 0.11769687D+01  1  2  3  1  6  1        1 -.106773910010D-02 0.100000000000D+01
0.191704878654D-05 0.000000000000D+00 0.000000000000D+00 0.104621526213D-06 0.000000000000D+00  6 1 21 25 -24 2 21 4 0.98415956D-01 0.27756073D-01 0.71896992D+05 0.71896992D+05 0.71896992D+05 0.11769687D+01  1  2 15  1  6  1        1 0.158976888690D-02 0.100000000000D+01
0.787915170907D-04 0.000000000000D+00 0.000000000000D+00 0.103752121487D-06 0.000000000000D+00  6 1 21 25 -24 2 21 4 0.10497135D+00 0.27756073D-01 0.81010094D+05 0.81010094D+05 0.81010094D+05 0.11720682D+01  1  2 12  1  6  1        1 0.583138741856D-01 0.100000000000D+01
-.177936467585D-04 0.000000000000D+00 0.000000000000D+00 0.104621526213D-06 0.000000000000D+00  6 1 21 25 -24 2 21 4 0.98415956D-01 0.27756073D-01 0.71896992D+05 0.71896992D+05 0.71896992D+05 0.11769687D+01  1  2  4  1  6  1        1 -.147559030316D-01 0.100000000000D+01
0.876638538405D-06 0.000000000000D+00 0.000000000000D+00 0.103752121487D-06 0.000000000000D+00  6 21 21 25 -24 2 -1 4 0.10497135D+00 0.27756073D-01 0.81010094D+05 0.81010094D+05 0.81010094D+05 0.11720682D+01  1  2 12  4  6  1        1 0.141661873721D-02 0.100000000000D+01
  </mgrwgt>
  </event>
  <event>
  6     66 -.59588745E-03 0.43482386E+02 0.75467711E-02 0.10962069E+00
        1 -1    0    0  502    0 0.00000000E+00 0.00000000E+00 0.20355080E+04 0.20355081E+04 0.32000000E+00 0.0000E+00 0.9000E+01
       21 -1    0    0  503  502 0.00000000E+00 0.00000000E+00 -.45842864E+02 0.45848999E+02 0.75000000E+00 0.0000E+00 0.9000E+01
       25  1    1    2    0    0 0.17302089E+03 -.62644958E+02 0.64990818E+03 0.68692523E+03 0.12500000E+03 0.0000E+00 0.9000E+01
      -24  1    1    2    0    0 -.21361951E+03 0.11463083E+03 0.11916005E+04 0.12186684E+04 0.80419002E+02 0.0000E+00 0.9000E+01
        2  1    1    2  501    0 0.16137160E+02 -.53344265E+02 0.50940806E+02 0.75505540E+02 0.32000000E+00 0.0000E+00 0.9000E+01
       21  1    1    2  503  501 0.24461459E+02 0.13583982E+01 0.97215644E+02 0.10025793E+03 0.75000000E+00 0.0000E+00 0.9000E+01
#aMCatNLO 2  0  0  2  1 0.24499147D+02 0.00000000D+00  -5  6  0 0.00000000D+00 0.00000000D+00 0.00000000D+00 0.00000000D+00 0.00000000D+00
  <mgrwgt>
 -.6321172417D-01    3    2    0
 0.292740647775429D+03 0.000000000000000D+00 0.000000000000000D+00 0.292740647775429D+03
 0.292740647775429D+03 0.000000000000000D+00 0.000000000000000D+00 -.292740647775429D+03
 0.230743035526722D+03 0.182505105178480D+03 -.621181483272661D+02 -.212266501424496D+02
 0.263354842990291D+03 -.202445557067097D+03 0.115251488958906D+03 0.928517532877977D+02
 0.913834170338463D+02 0.199404518886174D+02 -.531333406316398D+02 -.716251031453481D+02
 0.000000000000000D+00 0.000000000000000D+00 0.000000000000000D+00 0.000000000000000D+00
 0.307928124964495D+03 0.000000000000000D+00 0.000000000000000D+00 0.307928124964495D+03
 0.303046320577498D+03 0.000000000000000D+00 0.000000000000000D+00 -.303046320577498D+03
 0.223464001655144D+03 0.173020850393575D+03 -.626448297032090D+02 -.212266501424496D+02
 0.271776097195128D+03 -.213619576323808D+03 0.114630971272445D+03 0.928517532877977D+02
 0.907535492932082D+02 0.161372668804917D+02 -.533445397989411D+02 -.716251031453481D+02
 0.249807973985123D+02 0.244614590497408D+02 0.135839822970542D+01 0.488180438699710D+01
-.639677147854D-04 0.000000000000D+00 0.000000000000D+00 0.206622101380D-06 0.000000000000D+00  6 1 21 25 -24 2 21 4 0.29770476D+00 0.72224267D-02 0.77870984D+05 0.77870984D+05 0.77870984D+05 0.11736840D+01  1  2 13  2  6  2       21 -.715862970439D-01 0.100000000000D+01
-.526095631251D-06 0.000000000000D+00 0.000000000000D+00 0.207961198480D-06 0.000000000000D+00  6 1 21 25 -24 2 21 4 0.29770476D+00 0.68132381D-02 0.71011543D+05 0.71011543D+05 0.71011543D+05 0.11774811D+01  1  2  8  2  6  2       21 -.662822793396D-03 0.100000000000D+01
0.900542221938D-05 0.000000000000D+00 0.000000000000D+00 0.207961198480D-06 0.268668033434D-08  6 1 21 25 -24 2 21 4 0.31314978D+00 0.70530920D-02 0.77870984D+05 0.77870984D+05 0.77870984D+05 0.11736840D+01  1  2  1  2  6  2       21 0.903739566303D-02 0.100000000000D+01
  </mgrwgt>
  </event>
  <event>
  5     66 0.59588745E-03 0.92291545E+02 0.75467711E-02 0.11192360E+00
        3 -1    0    0  502    0 0.00000000E+00 0.00000000E+00 0.35211995E+03 0.35212030E+03 0.50000000E+00 0.0000E+00 0.9000E+01
       21 -1    0    0  501  502 0.00000000E+00 0.00000000E+00 -.14969553E+03 0.14969740E+03 0.75000000E+00 0.0000E+00 0.9000E+01
       25  1    1    2    0    0 -.95602182E+02 -.12206878E+03 0.17766749E+03 0.26689193E+03 0.12500000E+03 0.0000E+00 0.9000E+01
      -24  1    1    2    0    0 0.37796048E+01 0.11287839E+03 -.25695845E+01 0.13867096E+03 0.80419002E+02 0.0000E+00 0.9000E+01
        4  1    1    2  501    0 0.91822577E+02 0.91903946E+01 0.27326516E+02 0.96254818E+02 0.15500000E+01 0.0000E+00 0.9000E+01
#aMCatNLO 1  0  0  1  2 0.49432297D+02 0.00000000D+00  -5  6  0 0.00000000D+00 0.00000000D+00 0.00000000D+00 0.00000000D+00 0.00000000D+00
  <mgrwgt>
 0.5455861741D-02    9    2    0
 0.229589505804055D+03 0.000000000000000D+00 0.000000000000000D+00 0.229589505804055D+03
 0.229589505804055D+03 0.000000000000000D+00 0.000000000000000D+00 -.229589505804055D+03
 0.213355486941925D+03 -.956080905572384D+02 -.122069374705520D+03 0.765096372179882D+02
 0.152679857996828D+03 0.377537664468680D+01 0.112877965523065D+03 -.639393033597140D+02
 0.931436666693573D+02 0.918327139125516D+02 0.919140918245506D+01 -.125703338582743D+02
 0.000000000000000D+00 -.000000000000000D+00 0.000000000000000D+00 0.000000000000000D+00
 0.300844009182061D+03 0.000000000000000D+00 0.000000000000000D+00 0.300844009182061D+03
 0.239652028943837D+03 0.000000000000000D+00 0.000000000000000D+00 -.239652028943837D+03
 0.215614632269691D+03 -.783895802406982D+02 -.137353626713142D+03 0.765096372179882D+02
 0.145799046542495D+03 0.157560761547723D+02 0.102243129688060D+03 -.639393033597140D+02
 0.100418451555281D+03 0.996021392880710D+02 0.229476985589389D+01 -.125703338582743D+02
 0.786639077584311D+02 -.369686352021451D+02 0.328157271691877D+02 0.611919802382232D+02
0.559983980427D-05 0.000000000000D+00 0.000000000000D+00 0.100375171627D-06 0.000000000000D+00  6 3 21 25 -24 4 21 2 0.54172472D-01 0.23030253D-01 0.46247275D+05 0.46247275D+05 0.46247275D+05 0.11956521D+01  1  2  2  1  6  1        3 0.237898961537D-02 0.100000000000D+01
-.313490850008D-06 0.295511665196D-06 -.113044631795D-07 0.100375171627D-06 0.000000000000D+00  6 3 21 25 -24 4 21 4 0.54172472D-01 0.23030253D-01 0.46247275D+05 0.46247275D+05 0.46247275D+05 0.11956521D+01  1  2  3  1  6  1        3 -.190393225365D-03 0.100000000000D+01
0.566399009048D-06 0.000000000000D+00 0.000000000000D+00 0.100375171627D-06 0.000000000000D+00  6 3 21 25 -24 4 21 4 0.54172472D-01 0.23030253D-01 0.46247275D+05 0.46247275D+05 0.46247275D+05 0.11956521D+01  1  2 15  1  6  1        3 0.343992605123D-03 0.100000000000D+01
0.260476913342D-04 0.000000000000D+00 0.000000000000D+00 0.987525117262D-07 0.000000000000D+00  6 3 21 25 -24 4 21 4 0.71903044D-01 0.23030253D-01 0.58002816D+05 0.58002816D+05 0.58002816D+05 0.11859483D+01  1  2 12  1  6  1        3 0.845831359240D-02 0.100000000000D+01
-.238688405678D-04 0.000000000000D+00 0.000000000000D+00 0.100375171627D-06 0.000000000000D+00  6 3 21 25 -24 4 21 4 0.54172472D-01 0.23030253D-01 0.46247275D+05 0.46247275D+05 0.46247275D+05 0.11956521D+01  1  2  4  1  6  1        3 -.144963259416D-01 0.100000000000D+01
-.362818921566D-04 0.000000000000D+00 -.694280389207D-05 0.100375171627D-06 0.000000000000D+00  6 3 21 25 -24 4 21 4 0.73078283D-01 0.23030253D-01 0.46247275D+05 0.46247275D+05 0.46247275D+05 0.11956521D+01  1  2  5  1  6  1        3 -.117676755554D-01 0.100000000000D+01
0.369902967211D-04 0.000000000000D+00 0.664292031523D-05 0.100375171627D-06 0.000000000000D+00  6 3 21 25 -24 4 21 4 0.54172472D-01 0.23030253D-01 0.46247275D+05 0.46247275D+05 0.46247275D+05 0.11956521D+01  1  2  6  1  6  1        3 0.224654145401D-01 0.100000000000D+01
0.965589430033D-06 0.000000000000D+00 0.000000000000D+00 0.987525117262D-07 0.000000000000D+00  6 21 21 25 -24 4 -3 4 0.71903044D-01 0.23030253D-01 0.58002816D+05 0.58002816D+05 0.58002816D+05 0.11859483D+01  1  2 12  4  6  1        3 0.576038690856D-02 0.100000000000D+01
-.124516543594D-05 0.000000000000D+00 -.267960962759D-06 0.100375171627D-06 0.000000000000D+00  6 21 21 25 -24 4 -3 4 0.73078283D-01 0.23030253D-01 0.46247275D+05 0.46247275D+05 0.46247275D+05 0.11956521D+01  1  2  5  4  6  1        3 -.749684079824D-02 0.100000000000D+01
  </mgrwgt>
  </event>
  <event>
  5     66 0.59588745E-03 0.61049512E+02 0.75467711E-02 0.11784529E+00
        1 -1    0    0  502    0 0.00000000E+00 0.00000000E+00 0.19734903E+04 0.19734904E+04 0.32000000E+00 0.0000E+00 0.9000E+01
       21 -1    0    0  501  502 0.00000000E+00 0.00000000E+00 -.18863293E+02 0.18878198E+02 0.75000000E+00 0.0000E+00 0.9000E+01
       25  1    1    2    0    0 0.16291692E+01 -.76918263E+02 0.38010249E+03 0.40745794E+03 0.12500000E+03 0.0000E+00 0.9000E+01
      -24  1    1    2    0    0 -.54772129E+02 0.45769323E+02 0.12481988E+04 0.12528218E+04 0.80419002E+02 0.0000E+00 0.9000E+01
        2  1    1    2  501    0 0.53142960E+02 0.31148940E+02 0.32632571E+03 0.33208884E+03 0.32000000E+00 0.0000E+00 0.9000E+01
#aMCatNLO 1  0  0  2  1 0.22430699D+02 0.00000000D+00  -5  6  0 0.00000000D+00 0.00000000D+00 0.00000000D+00 0.00000000D+00 0.00000000D+00
  <mgrwgt>
 0.4818559835D-01   32    2    0
 0.192980310378423D+03 0.000000000000000D+00 0.000000000000000D+00 0.192980310378423D+03
 0.192980310378423D+03 0.000000000000000D+00 0.000000000000000D+00 -.192980310378423D+03
 0.178380441954180D+03 0.162883844774919D+01 -.769184572421151D+02 -.101368041771421D+03
 0.145920343325637D+03 -.547724000266964D+02 0.457691648367057D+02 0.986443023563304D+02
 0.616598354770297D+02 0.531435615789472D+02 0.311492924054094D+02 0.272373941509072D+01
 0.000000000000000D+00 -.000000000000000D+00 -.000000000000000D+00 -.000000000000000D+00
 0.197512121621379D+03 0.000000000000000D+00 0.000000000000000D+00 0.197512121621379D+03
 0.223210466135420D+03 0.000000000000000D+00 0.000000000000000D+00 -.223210466135420D+03
 0.174339128206184D+03 0.385927977385076D+01 -.669235212070219D+02 -.101368041771421D+03
 0.148069353783187D+03 -.529133402371263D+02 0.540998855172825D+02 0.986443023563304D+02
 0.642033867095757D+02 0.539394644886545D+02 0.347158505477713D+02 0.272373941509072D+01
 0.341107190578523D+02 -.488540402537893D+01 -.218922148580318D+02 -.256983445140404D+02
0.180469378985D-05 0.000000000000D+00 0.000000000000D+00 0.117047366552D-06 0.000000000000D+00  6 1 21 25 -24 2 21 2 0.30361505D+00 0.29031936D-02 0.24949104D+05 0.24949104D+05 0.24949104D+05 0.12233925D+01  1  2  2  2  6  2       21 0.731727338642D-02 0.100000000000D+01
-.100588419182D-06 0.952363077604D-07 -.364315680639D-08 0.117047366552D-06 0.000000000000D+00  6 1 21 25 -24 2 21 4 0.30361505D+00 0.29031936D-02 0.24949104D+05 0.24949104D+05 0.24949104D+05 0.12233925D+01  1  2  3  2  6  2       21 -.610415283578D-03 0.100000000000D+01
0.223012782684D-06 0.000000000000D+00 0.000000000000D+00 0.117047366552D-06 0.000000000000D+00  6 1 21 25 -24 2 21 4 0.30361505D+00 0.29031936D-02 0.24949104D+05 0.24949104D+05 0.24949104D+05 0.12233925D+01  1  2 15  2  6  2       21 0.135334079301D-02 0.100000000000D+01
0.783556789505D-05 0.000000000000D+00 0.000000000000D+00 0.115811602345D-06 0.000000000000D+00  6 1 21 25 -24 2 21 4 0.30361505D+00 0.33885233D-02 0.28703512D+05 0.28703512D+05 0.28703512D+05 0.12169172D+01  1  2 12  2  6  2       21 0.359338541775D-01 0.100000000000D+01
0.573231211222D-05 0.000000000000D+00 0.000000000000D+00 0.115811602345D-06 0.000000000000D+00  6 1 21 25 -24 2 21 4 0.30361505D+00 0.35589588D-02 0.28703512D+05 0.28703512D+05 0.28703512D+05 0.12169172D+01  1  2 12  2  6  2       21 0.242305443942D-01 0.100000000000D+01
-.869888260615D-05 0.000000000000D+00 0.000000000000D+00 0.117047366552D-06 0.000000000000D+00  6 1 21 25 -24 2 21 4 0.30361505D+00 0.29031936D-02 0.24949104D+05 0.24949104D+05 0.24949104D+05 0.12233925D+01  1  2  4  2  6  2       21 -.527886901494D-01 0.100000000000D+01
-.248255923011D-04 0.000000000000D+00 -.410390155823D-05 0.117047366552D-06 0.000000000000D+00  6 1 21 25 -24 2 21 4 0.30361505D+00 0.34453231D-02 0.24949104D+05 0.24949104D+05 0.24949104D+05 0.12233925D+01  1  2  5  2  6  2       21 -.113545581730D+00 0.100000000000D+01
0.242073911146D-04 0.000000000000D+00 0.387295746444D-05 0.117047366552D-06 0.000000000000D+00  6 1 21 25 -24 2 21 4 0.30361505D+00 0.29031936D-02 0.24949104D+05 0.24949104D+05 0.24949104D+05 0.12233925D+01  1  2  6  2  6  2       21 0.146901220161D+00 0.100000000000D+01
0.330689489538D-06 0.000000000000D+00 0.000000000000D+00 0.115811602345D-06 0.000000000000D+00  6 1 -1 25 -24 2 -1 4 0.30361505D+00 0.33885233D-02 0.28703512D+05 0.28703512D+05 0.28703512D+05 0.12169172D+01  1  2 12  5  6  2       21 0.808801587021D-04 0.100000000000D+01
0.336138493358D-06 0.000000000000D+00 0.000000000000D+00 0.115811602345D-06 0.000000000000D+00  6 1 -1 25 -24 2 -1 4 0.30361505D+00 0.35589588D-02 0.28703512D+05 0.28703512D+05 0.28703512D+05 0.12169172D+01  1  2 12  5  6  2       21 0.764898992749D-04 0.100000000000D+01
-.998218382140D-06 0.000000000000D+00 -.195448898149D-06 0.117047366552D-06 0.000000000000D+00  6 1 -1 25 -24 2 -1 4 0.30361505D+00 0.34453231D-02 0.24949104D+05 0.24949104D+05 0.24949104D+05 0.12233925D+01  1  2  5  5  6  2       21 -.243666691442D-03 0.100000000000D+01
0.330689489538D-06 0.000000000000D+00 0.000000000000D+00 0.115811602345D-06 0.000000000000D+00  6 1 1 25 -24 2 1 4 0.30361505D+00 0.33885233D-02 0.28703512D+05 0.28703512D+05 0.28703512D+05 0.12169172D+01  1  2 12  6  6  2       21 0.878079979076D-04 0.100000000000D+01
0.336138493358D-06 0.000000000000D+00 0.000000000000D+00 0.115811602345D-06 0.000000000000D+00  6 1 1 25 -24 2 1 4 0.30361505D+00 0.35589588D-02 0.28703512D+05 0.28703512D+05 0.28703512D+05 0.12169172D+01  1  2 12  6  6  2       21 0.833718999608D-04 0.100000000000D+01
-.998218382140D-06 0.000000000000D+00 -.195448898149D-06 0.117047366552D-06 0.000000000000D+00  6 1 1 25 -24 2 1 4 0.30361505D+00 0.34453231D-02 0.24949104D+05 0.24949104D+05 0.24949104D+05 0.12233925D+01  1  2  5  6  6  2       21 -.264938387181D-03 0.100000000000D+01
0.330689489538D-06 0.000000000000D+00 0.000000000000D+00 0.115811602345D-06 0.000000000000D+00  6 1 -2 25 -24 2 -2 4 0.30361505D+00 0.33885233D-02 0.28703512D+05 0.28703512D+05 0.28703512D+05 0.12169172D+01  1  2 12  7  6  2       21 0.796444336341D-04 0.100000000000D+01
0.336138493358D-06 0.000000000000D+00 0.000000000000D+00 0.115811602345D-06 0.000000000000D+00  6 1 -2 25 -24 2 -2 4 0.30361505D+00 0.35589588D-02 0.28703512D+05 0.28703512D+05 0.28703512D+05 0.12169172D+01  1  2 12  7  6  2       21 0.752640745398D-04 0.100000000000D+01
-.998218382140D-06 0.000000000000D+00 -.195448898149D-06 0.117047366552D-06 0.000000000000D+00  6 1 -2 25 -24 2 -2 4 0.30361505D+00 0.34453231D-02 0.24949104D+05 0.24949104D+05 0.24949104D+05 0.12233925D+01  1  2  5  7  6  2       21 -.239872682025D-03 0.100000000000D+01
0.330689489538D-06 0.000000000000D+00 0.000000000000D+00 0.115811602345D-06 0.000000000000D+00  6 1 2 25 -24 2 2 4 0.30361505D+00 0.33885233D-02 0.28703512D+05 0.28703512D+05 0.28703512D+05 0.12169172D+01  1  2 12  8  6  2       21 0.925060929668D-04 0.100000000000D+01
0.336138493358D-06 0.000000000000D+00 0.000000000000D+00 0.115811602345D-06 0.000000000000D+00  6 1 2 25 -24 2 2 4 0.30361505D+00 0.35589588D-02 0.28703512D+05 0.28703512D+05 0.28703512D+05 0.12169172D+01  1  2 12  8  6  2       21 0.880330630247D-04 0.100000000000D+01
-.998218382140D-06 0.000000000000D+00 -.195448898149D-06 0.117047366552D-06 0.000000000000D+00  6 1 2 25 -24 2 2 4 0.30361505D+00 0.34453231D-02 0.24949104D+05 0.24949104D+05 0.24949104D+05 0.12233925D+01  1  2  5  8  6  2       21 -.279351479696D-03 0.100000000000D+01
0.330689489538D-06 0.000000000000D+00 0.000000000000D+00 0.115811602345D-06 0.000000000000D+00  6 1 -3 25 -24 2 -3 4 0.30361505D+00 0.33885233D-02 0.28703512D+05 0.28703512D+05 0.28703512D+05 0.12169172D+01  1  2 12  9  6  2       21 0.602413999600D-04 0.100000000000D+01
0.330689489538D-06 0.000000000000D+00 0.000000000000D+00 0.115811602345D-06 0.000000000000D+00  6 1 -4 25 -24 2 -4 4 0.30361505D+00 0.33885233D-02 0.28703512D+05 0.28703512D+05 0.28703512D+05 0.12169172D+01  1  2 12  9  6  2       21 0.543769775242D-04 0.100000000000D+01
0.336138493358D-06 0.000000000000D+00 0.000000000000D+00 0.115811602345D-06 0.000000000000D+00  6 1 -3 25 -24 2 -3 4 0.30361505D+00 0.35589588D-02 0.28703512D+05 0.28703512D+05 0.28703512D+05 0.12169172D+01  1  2 12  9  6  2       21 0.567149953846D-04 0.100000000000D+01
0.336138493358D-06 0.000000000000D+00 0.000000000000D+00 0.115811602345D-06 0.000000000000D+00  6 1 -4 25 -24 2 -4 4 0.30361505D+00 0.35589588D-02 0.28703512D+05 0.28703512D+05 0.28703512D+05 0.12169172D+01  1  2 12  9  6  2       21 0.511383041324D-04 0.100000000000D+01
-.998218382140D-06 0.000000000000D+00 -.195448898149D-06 0.117047366552D-06 0.000000000000D+00  6 1 -3 25 -24 2 -3 4 0.30361505D+00 0.34453231D-02 0.24949104D+05 0.24949104D+05 0.24949104D+05 0.12233925D+01  1  2  5  9  6  2       21 -.180695335902D-03 0.100000000000D+01
-.998218382140D-06 0.000000000000D+00 -.195448898149D-06 0.117047366552D-06 0.000000000000D+00  6 1 -4 25 -24 2 -4 4 0.30361505D+00 0.34453231D-02 0.24949104D+05 0.24949104D+05 0.24949104D+05 0.12233925D+01  1  2  5  9  6  2       21 -.162836778671D-03 0.100000000000D+01
0.330689489538D-06 0.000000000000D+00 0.000000000000D+00 0.115811602345D-06 0.000000000000D+00  6 1 3 25 -24 2 3 4 0.30361505D+00 0.33885233D-02 0.28703512D+05 0.28703512D+05 0.28703512D+05 0.12169172D+01  1  2 12 10  6  2       21 0.602367381234D-04 0.100000000000D+01
0.330689489538D-06 0.000000000000D+00 0.000000000000D+00 0.115811602345D-06 0.000000000000D+00  6 1 4 25 -24 2 4 4 0.30361505D+00 0.33885233D-02 0.28703512D+05 0.28703512D+05 0.28703512D+05 0.12169172D+01  1  2 12 10  6  2       21 0.543769775242D-04 0.100000000000D+01
0.336138493358D-06 0.000000000000D+00 0.000000000000D+00 0.115811602345D-06 0.000000000000D+00  6 1 3 25 -24 2 3 4 0.30361505D+00 0.35589588D-02 0.28703512D+05 0.28703512D+05 0.28703512D+05 0.12169172D+01  1  2 12 10  6  2       21 0.567104781770D-04 0.100000000000D+01
0.336138493358D-06 0.000000000000D+00 0.000000000000D+00 0.115811602345D-06 0.000000000000D+00  6 1 4 25 -24 2 4 4 0.30361505D+00 0.35589588D-02 0.28703512D+05 0.28703512D+05 0.28703512D+05 0.12169172D+01  1  2 12 10  6  2       21 0.511383041324D-04 0.100000000000D+01
-.998218382140D-06 0.000000000000D+00 -.195448898149D-06 0.117047366552D-06 0.000000000000D+00  6 1 3 25 -24 2 3 4 0.30361505D+00 0.34453231D-02 0.24949104D+05 0.24949104D+05 0.24949104D+05 0.12233925D+01  1  2  5 10  6  2       21 -.180681056782D-03 0.100000000000D+01
-.998218382140D-06 0.000000000000D+00 -.195448898149D-06 0.117047366552D-06 0.000000000000D+00  6 1 4 25 -24 2 4 4 0.30361505D+00 0.34453231D-02 0.24949104D+05 0.24949104D+05 0.24949104D+05 0.12233925D+01  1  2  5 10  6  2       21 -.162836778671D-03 0.100000000000D+01
  </mgrwgt>
  </event>
  <event>
  5     66 0.59588745E-03 0.52225315E+02 0.75467711E-02 0.10621705E+00
        1 -1    0    0  502    0 0.00000000E+00 0.00000000E+00 0.76157362E+02 0.76158034E+02 0.32000000E+00 0.0000E+00 0.9000E+01
       21 -1    0    0  501  502 0.00000000E+00 0.00000000E+00 -.47612793E+03 0.47612852E+03 0.75000000E+00 0.0000E+00 0.9000E+01
       25  1    1    2    0    0 -.13285599E+02 0.35253557E+02 -.67972852E+02 0.14718909E+03 0.12500000E+03 0.0000E+00 0.9000E+01
      -24  1    1    2    0    0 -.60898492E+01 -.83751602E+02 -.65335856E+02 0.13336944E+03 0.80419002E+02 0.0000E+00 0.9000E+01
        2  1    1    2  501    0 0.19375449E+02 0.48498046E+02 -.26666186E+03 0.27172802E+03 0.32000000E+00 0.0000E+00 0.9000E+01
#aMCatNLO 1  0  0  2  1 0.15185460D+02 0.00000000D+00  -5  6  0 0.00000000D+00 0.00000000D+00 0.00000000D+00 0.00000000D+00 0.00000000D+00
  <mgrwgt>
 0.3129604414D-01   12    2    0
 0.190423201072670D+03 0.000000000000000D+00 0.000000000000000D+00 0.190423201072670D+03
 0.190423201072670D+03 0.000000000000000D+00 0.000000000000000D+00 -.190423201072670D+03
 0.142061032276277D+03 -.132856278283092D+02 0.352534856128832D+02 0.560091129795093D+02
 0.124789843138546D+03 -.608987418038132D+01 -.837516650921712D+02 0.453195434986753D+02
 0.113995526730517D+03 0.193755020086905D+02 0.484981794792881D+02 -.101328656478185D+03
 0.000000000000000D+00 0.000000000000000D+00 0.000000000000000D+00 -.000000000000000D+00
 0.342340676633198D+03 0.000000000000000D+00 0.000000000000000D+00 0.342340676633198D+03
 0.441675666093368D+03 0.000000000000000D+00 0.000000000000000D+00 -.441675666093368D+03
 0.187581212523651D+03 -.124204458333229D+03 0.315902371824123D+02 0.560091129795093D+02
 0.163415920935699D+03 -.103066056087206D+03 -.869544381880116D+02 0.453195434986753D+02
 0.127218770147049D+03 -.617888758366449D+02 0.458176131732912D+02 -.101328656478185D+03
 0.305800439120167D+03 0.289059390257080D+03 0.954658783230810D+01 -.993349894601703D+02
0.192266676784D-04 0.000000000000D+00 0.000000000000D+00 0.114583588820D-05 0.000000000000D+00  6 1 21 25 -24 2 21 2 0.11716614D-01 0.73250547D-01 0.22357561D+05 0.22357561D+05 0.22357561D+05 0.12285336D+01  1  2  2  2  6  2       21 0.270695213313D-01 0.100000000000D+01
0.856542457289D-06 0.101461912847D-05 -.388131025942D-07 0.114583588820D-05 0.000000000000D+00  6 1 21 25 -24 2 21 4 0.11716614D-01 0.73250547D-01 0.22357561D+05 0.22357561D+05 0.22357561D+05 0.12285336D+01  1  2  3  2  6  2       21 0.182011779661D-02 0.100000000000D+01
0.196117526229D-05 0.000000000000D+00 0.000000000000D+00 0.114583588820D-05 0.000000000000D+00  6 1 21 25 -24 2 21 4 0.11716614D-01 0.73250547D-01 0.22357561D+05 0.22357561D+05 0.22357561D+05 0.12285336D+01  1  2 15  2  6  2       21 0.416741746635D-02 0.100000000000D+01
-.704564182918D-05 0.000000000000D+00 -.638361773330D-04 0.114583588820D-05 0.000000000000D+00  6 1 21 25 -24 2 21 4 0.11716614D-01 0.25281168D+00 0.22357561D+05 0.22357561D+05 0.22357561D+05 0.12285336D+01  1  2  5  2  6  2       21 -.591651926340D-03 0.100000000000D+01
-.383351388299D-05 0.000000000000D+00 -.240316257771D-04 0.114583588820D-05 0.000000000000D+00  6 1 -1 25 -24 2 -1 4 0.11716614D-01 0.25281168D+00 0.22357561D+05 0.22357561D+05 0.22357561D+05 0.12285336D+01  1  2  5  5  6  2       21 -.357345544063D-04 0.100000000000D+01
-.383351388299D-05 0.000000000000D+00 -.240316257771D-04 0.114583588820D-05 0.000000000000D+00  6 1 1 25 -24 2 1 4 0.11716614D-01 0.25281168D+00 0.22357561D+05 0.22357561D+05 0.22357561D+05 0.12285336D+01  1  2  5  6  6  2       21 -.320176098656D-03 0.100000000000D+01
-.383351388299D-05 0.000000000000D+00 -.240316257771D-04 0.114583588820D-05 0.000000000000D+00  6 1 -2 25 -24 2 -2 4 0.11716614D-01 0.25281168D+00 0.22357561D+05 0.22357561D+05 0.22357561D+05 0.12285336D+01  1  2  5  7  6  2       21 -.281768990591D-04 0.100000000000D+01
-.383351388299D-05 0.000000000000D+00 -.240316257771D-04 0.114583588820D-05 0.000000000000D+00  6 1 2 25 -24 2 2 4 0.11716614D-01 0.25281168D+00 0.22357561D+05 0.22357561D+05 0.22357561D+05 0.12285336D+01  1  2  5  8  6  2       21 -.718419383477D-03 0.100000000000D+01
-.383351388299D-05 0.000000000000D+00 -.240316257771D-04 0.114583588820D-05 0.000000000000D+00  6 1 -3 25 -24 2 -3 4 0.11716614D-01 0.25281168D+00 0.22357561D+05 0.22357561D+05 0.22357561D+05 0.12285336D+01  1  2  5  9  6  2       21 -.191377966479D-04 0.100000000000D+01
-.383351388299D-05 0.000000000000D+00 -.240316257771D-04 0.114583588820D-05 0.000000000000D+00  6 1 -4 25 -24 2 -4 4 0.11716614D-01 0.25281168D+00 0.22357561D+05 0.22357561D+05 0.22357561D+05 0.12285336D+01  1  2  5  9  6  2       21 -.141913728344D-04 0.100000000000D+01
-.383351388299D-05 0.000000000000D+00 -.240316257771D-04 0.114583588820D-05 0.000000000000D+00  6 1 3 25 -24 2 3 4 0.11716614D-01 0.25281168D+00 0.22357561D+05 0.22357561D+05 0.22357561D+05 0.12285336D+01  1  2  5 10  6  2       21 -.193330472420D-04 0.100000000000D+01
-.383351388299D-05 0.000000000000D+00 -.240316257771D-04 0.114583588820D-05 0.000000000000D+00  6 1 4 25 -24 2 4 4 0.11716614D-01 0.25281168D+00 0.22357561D+05 0.22357561D+05 0.22357561D+05 0.12285336D+01  1  2  5 10  6  2       21 -.141913728344D-04 0.100000000000D+01
  </mgrwgt>
  </event>
  <event>
  5     66 -.59588745E-03 0.22420886E+02 0.75467711E-02 0.11417211E+00
        1 -1    0    0  502    0 0.00000000E+00 0.00000000E+00 0.81043240E+03 0.81043246E+03 0.32000000E+00 0.0000E+00 0.9000E+01
       21 -1    0    0  501  502 0.00000000E+00 0.00000000E+00 -.56392344E+02 0.56397331E+02 0.75000000E+00 0.0000E+00 0.9000E+01
       25  1    1    2    0    0 0.16746994E+03 0.24459725E+02 0.38703456E+03 0.44052833E+03 0.12500000E+03 0.0000E+00 0.9000E+01
      -24  1    1    2    0    0 -.16230105E+03 -.46275415E+02 0.35412485E+03 0.40044309E+03 0.80419002E+02 0.0000E+00 0.9000E+01
        2  1    1    2  501    0 -.51688967E+01 0.21815691E+02 0.12880642E+02 0.25858368E+02 0.32000000E+00 0.0000E+00 0.9000E+01
#aMCatNLO 1  0  0  5  2 0.23119877D+01 0.00000000D+00  -5  6  0 0.00000000D+00 0.00000000D+00 0.00000000D+00 0.00000000D+00 0.00000000D+00
  <mgrwgt>
 -.2830255695D+00    8    2    0
 0.213785806591858D+03 0.000000000000000D+00 0.000000000000000D+00 0.213785806591858D+03
 0.213785806591858D+03 -.000000000000000D+00 -.000000000000000D+00 -.213785806591858D+03
 0.210546131068024D+03 0.167470090334601D+03 0.244591015141843D+02 0.775851172281689D+01
 0.187317634054540D+03 -.162300914557724D+03 -.462759697870200D+02 0.117314887127379D+02
 0.297078480611511D+02 -.516917577687640D+01 0.218168682728357D+02 -.194900004355548D+02
 0.000000000000000D+00 0.000000000000000D+00 0.000000000000000D+00 -.000000000000000D+00
 0.213785806591858D+03 0.000000000000000D+00 0.000000000000000D+00 0.213785806591858D+03
 0.213785806591858D+03 -.000000000000000D+00 -.000000000000000D+00 -.213785806591858D+03
 0.210532078031568D+03 0.167438264591002D+03 0.245934242932400D+02 0.763851507666401D+01
 0.187306028481577D+03 -.162329229194702D+03 -.461564658792793D+02 0.116247304381410D+02
 0.172134861720163D+02 -.224649896727951D+01 0.140826797711998D+02 -.964030492495167D+01
 0.125200204985546D+02 -.286253642902054D+01 0.748036181483958D+01 -.962294058985337D+01
0.375229385629D-05 0.000000000000D+00 0.000000000000D+00 0.663553320280D-06 0.000000000000D+00  6 1 21 25 -24 2 21 2 0.12468230D+00 0.86761337D-02 0.44052538D+05 0.44052538D+05 0.44052538D+05 0.11977674D+01  1  2  2  3  6  5        2 0.141157799358D-01 0.100000000000D+01
0.542351234868D-06 0.198013986923D-06 -.757480021206D-08 0.663553320280D-06 0.000000000000D+00  6 1 21 25 -24 2 21 4 0.12468230D+00 0.86761337D-02 0.44052538D+05 0.44052538D+05 0.44052538D+05 0.11977674D+01  1  2  3  3  6  5        2 0.292707339207D-02 0.100000000000D+01
0.433850155421D-06 0.000000000000D+00 0.000000000000D+00 0.663553320280D-06 0.000000000000D+00  6 1 21 25 -24 2 21 4 0.12468230D+00 0.86761337D-02 0.44052538D+05 0.44052538D+05 0.44052538D+05 0.11977674D+01  1  2 15  3  6  5        2 0.234149231059D-02 0.100000000000D+01
0.476473621598D-07 0.000000000000D+00 0.000000000000D+00 0.663591423696D-06 0.000000000000D+00  6 1 21 25 -24 2 21 4 0.12468230D+00 0.86761337D-02 0.44017826D+05 0.44017826D+05 0.44017826D+05 0.11978017D+01  1  2 12  3  6  5        2 0.257186064838D-03 0.100000000000D+01
-.136133279989D-03 0.000000000000D+00 0.000000000000D+00 0.663553320280D-06 0.000000000000D+00  6 1 21 25 -24 2 21 4 0.12468230D+00 0.86761337D-02 0.44052538D+05 0.44052538D+05 0.44052538D+05 0.11977674D+01  1  2  4  3  6  5        2 -.734712260271D+00 0.100000000000D+01
-.229710944905D-04 0.000000000000D+00 0.000000000000D+00 0.663553320280D-06 0.000000000000D+00  6 1 21 25 -24 2 21 4 0.12468230D+00 0.86761337D-02 0.44052538D+05 0.44052538D+05 0.44052538D+05 0.11977674D+01  1  2  5  3  6  5        2 -.123975156960D+00 0.100000000000D+01
0.530035317247D-04 0.000000000000D+00 -.000000000000D+00 0.663553320280D-06 0.000000000000D+00  6 1 21 25 -24 2 21 4 0.12468230D+00 0.86761337D-02 0.44052538D+05 0.44052538D+05 0.44052538D+05 0.11977674D+01  1  2  6  3  6  5        2 0.286060429889D+00 0.100000000000D+01
0.500138935271D-04 0.000000000000D+00 0.000000000000D+00 0.663553320280D-06 0.801170881152D-06  6 1 21 25 -24 2 21 4 0.12468230D+00 0.86761337D-02 0.44017826D+05 0.44017826D+05 0.44017826D+05 0.11978017D+01  1  2 11  3  6  5        2 0.269959886138D+00 0.100000000000D+01
  </mgrwgt>
  </event>
  <event>
  5     66 -.59588745E-03 0.31530451E+02 0.75467711E-02 0.11996962E+00
        1 -1    0    0  502    0 0.00000000E+00 0.00000000E+00 0.40415293E+03 0.40415306E+03 0.32000000E+00 0.0000E+00 0.9000E+01
       21 -1    0    0  501  502 0.00000000E+00 0.00000000E+00 -.58116148E+02 0.58120987E+02 0.75000000E+00 0.0000E+00 0.9000E+01
       25  1    1    2    0    0 0.44779477E+02 0.39511692E+02 0.17860238E+03 0.22603138E+03 0.12500000E+03 0.0000E+00 0.9000E+01
      -24  1    1    2    0    0 -.51015841E+02 -.78643457E+02 0.14584534E+03 0.19111643E+03 0.80419002E+02 0.0000E+00 0.9000E+01
        2  1    1    2  501    0 0.62363640E+01 0.39131766E+02 0.21589066E+02 0.45126240E+02 0.32000000E+00 0.0000E+00 0.9000E+01
#aMCatNLO 1  0  0  5  2 0.54338581D+01 0.00000000D+00  -5  6  0 0.00000000D+00 0.00000000D+00 0.00000000D+00 0.00000000D+00 0.00000000D+00
  <mgrwgt>
 -.9632987860D-01    8    2    0
 0.153261082676762D+03 0.000000000000000D+00 0.000000000000000D+00 0.153261082676762D+03
 0.153261082676762D+03 -.000000000000000D+00 -.000000000000000D+00 -.153261082676762D+03
 0.139257159554309D+03 0.447794006896588D+02 0.395112146329920D+02 0.141854037388713D+02
 0.123581289995704D+03 -.510159081704703D+02 -.786438806533761D+02 0.419957521082425D+01
 0.436837158035107D+02 0.623650748081144D+01 0.391326660203841D+02 -.183849789496956D+02
 0.000000000000000D+00 0.000000000000000D+00 0.000000000000000D+00 -.000000000000000D+00
 0.153261082676762D+03 0.000000000000000D+00 0.000000000000000D+00 0.153261082676762D+03
 0.153261082676762D+03 -.000000000000000D+00 -.000000000000000D+00 -.153261082676762D+03
 0.139446193602603D+03 0.448833413470747D+02 0.401634186181726D+02 0.138789907658271D+02
 0.123167612595196D+03 -.509238847238148D+02 -.780664544552846D+02 0.392829370673802D+01
 0.139712922147552D+02 0.626038711667421D+01 0.122675798557715D+02 -.234756124131599D+01
 0.299370669409690D+02 -.219843739934110D+00 0.256354559813405D+02 -.154597232312491D+02
0.324976873471D-05 0.000000000000D+00 0.000000000000D+00 0.496118394409D-06 0.000000000000D+00  6 1 21 25 -24 2 21 2 0.62177756D-01 0.89413278D-02 0.22751076D+05 0.22751076D+05 0.22751076D+05 0.12277112D+01  1  2  2  3  6  5        2 0.317576774524D-01 0.100000000000D+01
0.315447949995D-07 0.171495007690D-06 -.656034677550D-08 0.496118394409D-06 0.000000000000D+00  6 1 21 25 -24 2 21 4 0.62177756D-01 0.89413278D-02 0.22751076D+05 0.22751076D+05 0.22751076D+05 0.12277112D+01  1  2  3  3  6  5        2 0.464639818998D-03 0.100000000000D+01
0.365790421678D-06 0.000000000000D+00 0.000000000000D+00 0.496118394409D-06 0.000000000000D+00  6 1 21 25 -24 2 21 4 0.62177756D-01 0.89413278D-02 0.22751076D+05 0.22751076D+05 0.22751076D+05 0.12277112D+01  1  2 15  3  6  5        2 0.538791884120D-02 0.100000000000D+01
0.185266235146D-05 0.000000000000D+00 0.000000000000D+00 0.496219747901D-06 0.000000000000D+00  6 1 21 25 -24 2 21 4 0.62177756D-01 0.89413278D-02 0.22690571D+05 0.22690571D+05 0.22690571D+05 0.12278366D+01  1  2 12  3  6  5        2 0.272993701232D-01 0.100000000000D+01
-.184464950040D-04 0.000000000000D+00 0.000000000000D+00 0.496118394409D-06 0.000000000000D+00  6 1 21 25 -24 2 21 4 0.62177756D-01 0.89413278D-02 0.22751076D+05 0.22751076D+05 0.22751076D+05 0.12277112D+01  1  2  4  3  6  5        2 -.271708093203D+00 0.100000000000D+01
-.311651027472D-05 0.000000000000D+00 0.000000000000D+00 0.496118394409D-06 0.000000000000D+00  6 1 21 25 -24 2 21 4 0.62177756D-01 0.89413278D-02 0.22751076D+05 0.22751076D+05 0.22751076D+05 0.12277112D+01  1  2  5  3  6  5        2 -.459047132807D-01 0.100000000000D+01
0.785579601842D-05 0.000000000000D+00 -.000000000000D+00 0.496118394409D-06 0.000000000000D+00  6 1 21 25 -24 2 21 4 0.62177756D-01 0.89413278D-02 0.22751076D+05 0.22751076D+05 0.22751076D+05 0.12277112D+01  1  2  6  3  6  5        2 0.115712136983D+00 0.100000000000D+01
0.275945729369D-05 0.000000000000D+00 0.000000000000D+00 0.496118394409D-06 0.484983216951D-07  6 1 21 25 -24 2 21 4 0.62177756D-01 0.89413278D-02 0.22690571D+05 0.22690571D+05 0.22690571D+05 0.12278366D+01  1  2 11  3  6  5        2 0.406611846677D-01 0.100000000000D+01
  </mgrwgt>
  </event>
  <event>
  5     66 -.59588745E-03 0.71070896E+02 0.75467711E-02 0.10513479E+00
        1 -1    0    0  502    0 0.00000000E+00 0.00000000E+00 0.55999217E+03 0.55999226E+03 0.32000000E+00 0.0000E+00 0.9000E+01
       21 -1    0    0  501  502 0.00000000E+00 0.00000000E+00 -.20639564E+03 0.20639700E+03 0.75000000E+00 0.0000E+00 0.9000E+01
       25  1    1    2    0    0 0.33451349E+02 -.28447352E+03 0.14816079E+03 0.34586239E+03 0.12500000E+03 0.0000E+00 0.9000E+01
      -24  1    1    2    0    0 0.11631736E+02 0.22953219E+03 0.23965546E+03 0.34164642E+03 0.80419002E+02 0.0000E+00 0.9000E+01
        2  1    1    2  501    0 -.45083085E+02 0.54941327E+02 -.34219715E+02 0.78880450E+02 0.32000000E+00 0.0000E+00 0.9000E+01
#aMCatNLO 1  0  0  2  1 0.12215733D+02 0.00000000D+00  -5  6  0 0.00000000D+00 0.00000000D+00 0.00000000D+00 0.00000000D+00 0.00000000D+00
  <mgrwgt>
 -.3386262608D+00   12    2    0
 0.339971321276492D+03 0.000000000000000D+00 0.000000000000000D+00 0.339971321276492D+03
 0.339971321276492D+03 0.000000000000000D+00 0.000000000000000D+00 -.339971321276492D+03
 0.312785435275841D+03 0.334514422187972D+02 -.284473630795560D+03 -.128640163312664D+02
 0.260452543643187D+03 0.116318141418225D+02 0.229532095545146D+03 0.924555544586696D+02
 0.106704663633956D+03 -.450832563606197D+02 0.549415352504142D+02 -.795915381274032D+02
 0.000000000000000D+00 -.000000000000000D+00 -.000000000000000D+00 -.000000000000000D+00
 0.350102531571845D+03 0.000000000000000D+00 0.000000000000000D+00 0.350102531571845D+03
 0.977875765518199D+03 0.000000000000000D+00 0.000000000000000D+00 -.977875765518199D+03
 0.275307652669027D+03 0.533660442612076D+02 -.239072972169313D+03 -.128640163312664D+02
 0.300667581660300D+03 0.306330304840455D+02 0.272850447315349D+03 0.924555544586696D+02
 0.113700615591752D+03 -.376196702144792D+02 0.719567749236394D+02 -.795915381274032D+02
 0.638302447168966D+03 -.463794045307739D+02 -.105734250069675D+03 -.627773233946355D+03
0.465538066337D-04 0.000000000000D+00 0.000000000000D+00 0.124000738410D-06 0.000000000000D+00  6 1 21 25 -24 2 21 2 0.86152753D-01 0.31753287D-01 0.98307937D+05 0.98307937D+05 0.98307937D+05 0.11642531D+01  1  2  2  2  6  2       21 0.249304338519D-01 0.100000000000D+01
0.227194651576D-05 0.245671187041D-05 -.939787228473D-07 0.124000738410D-06 0.000000000000D+00  6 1 21 25 -24 2 21 4 0.86152753D-01 0.31753287D-01 0.98307937D+05 0.98307937D+05 0.98307937D+05 0.11642531D+01  1  2  3  2  6  2       21 0.164917805059D-02 0.100000000000D+01
0.562221483850D-05 0.000000000000D+00 0.000000000000D+00 0.124000738410D-06 0.000000000000D+00  6 1 21 25 -24 2 21 4 0.86152753D-01 0.31753287D-01 0.98307937D+05 0.98307937D+05 0.98307937D+05 0.11642531D+01  1  2 15  2  6  2       21 0.408109664688D-02 0.100000000000D+01
-.324922951741D-02 0.000000000000D+00 -.117868056946D-03 0.124000738410D-06 0.000000000000D+00  6 1 21 25 -24 2 21 4 0.86152753D-01 0.92286884D-01 0.98307937D+05 0.98307937D+05 0.98307937D+05 0.11642531D+01  1  2  5  2  6  2       21 -.238439447336D+00 0.100000000000D+01
-.120188354262D-02 0.000000000000D+00 -.409841384598D-04 0.124000738410D-06 0.000000000000D+00  6 1 -1 25 -24 2 -1 4 0.86152753D-01 0.92286884D-01 0.98307937D+05 0.98307937D+05 0.98307937D+05 0.11642531D+01  1  2  5  5  6  2       21 -.103376743388D-01 0.100000000000D+01
-.120188354262D-02 0.000000000000D+00 -.409841384598D-04 0.124000738410D-06 0.000000000000D+00  6 1 1 25 -24 2 1 4 0.86152753D-01 0.92286884D-01 0.98307937D+05 0.98307937D+05 0.98307937D+05 0.11642531D+01  1  2  5  6  6  2       21 -.358962936166D-01 0.100000000000D+01
-.120188354262D-02 0.000000000000D+00 -.409841384598D-04 0.124000738410D-06 0.000000000000D+00  6 1 -2 25 -24 2 -2 4 0.86152753D-01 0.92286884D-01 0.98307937D+05 0.98307937D+05 0.98307937D+05 0.11642531D+01  1  2  5  7  6  2       21 -.780288451663D-02 0.100000000000D+01
-.120188354262D-02 0.000000000000D+00 -.409841384598D-04 0.124000738410D-06 0.000000000000D+00  6 1 2 25 -24 2 2 4 0.86152753D-01 0.92286884D-01 0.98307937D+05 0.98307937D+05 0.98307937D+05 0.11642531D+01  1  2  5  8  6  2       21 -.585804480892D-01 0.100000000000D+01
-.120188354262D-02 0.000000000000D+00 -.409841384598D-04 0.124000738410D-06 0.000000000000D+00  6 1 -3 25 -24 2 -3 4 0.86152753D-01 0.92286884D-01 0.98307937D+05 0.98307937D+05 0.98307937D+05 0.11642531D+01  1  2  5  9  6  2       21 -.502420614218D-02 0.100000000000D+01
-.120188354262D-02 0.000000000000D+00 -.409841384598D-04 0.124000738410D-06 0.000000000000D+00  6 1 -4 25 -24 2 -4 4 0.86152753D-01 0.92286884D-01 0.98307937D+05 0.98307937D+05 0.98307937D+05 0.11642531D+01  1  2  5  9  6  2       21 -.408661843793D-02 0.100000000000D+01
-.120188354262D-02 0.000000000000D+00 -.409841384598D-04 0.124000738410D-06 0.000000000000D+00  6 1 3 25 -24 2 3 4 0.86152753D-01 0.92286884D-01 0.98307937D+05 0.98307937D+05 0.98307937D+05 0.11642531D+01  1  2  5 10  6  2       21 -.503277842028D-02 0.100000000000D+01
-.120188354262D-02 0.000000000000D+00 -.409841384598D-04 0.124000738410D-06 0.000000000000D+00  6 1 4 25 -24 2 4 4 0.86152753D-01 0.92286884D-01 0.98307937D+05 0.98307937D+05 0.98307937D+05 0.11642531D+01  1  2  5 10  6  2       21 -.408661843793D-02 0.100000000000D+01
  </mgrwgt>
  </event>
  <event>
  5     66 0.59588745E-03 0.29581618E+02 0.75467711E-02 0.12027708E+00
        1 -1    0    0  502    0 0.00000000E+00 0.00000000E+00 0.18813634E+03 0.18813661E+03 0.32000000E+00 0.0000E+00 0.9000E+01
       21 -1    0    0  501  502 0.00000000E+00 0.00000000E+00 -.19388816E+03 0.19388961E+03 0.75000000E+00 0.0000E+00 0.9000E+01
       25  1    1    2    0    0 0.30619872E+02 -.40512092E+02 0.88854318E+02 0.16155153E+03 0.12500000E+03 0.0000E+00 0.9000E+01
      -24  1    1    2    0    0 -.58381472E+02 0.30296380E+02 0.16770126E+02 0.10523650E+03 0.80419002E+02 0.0000E+00 0.9000E+01
        2  1    1    2  501    0 0.27761600E+02 0.10215712E+02 -.11137626E+03 0.11523820E+03 0.32000000E+00 0.0000E+00 0.9000E+01
#aMCatNLO 1  0  0  2  2 0.23234411D+02 0.00000000D+00  -5  6  0 0.00000000D+00 0.00000000D+00 0.00000000D+00 0.00000000D+00 0.00000000D+00
  <mgrwgt>
 0.1304162793D-01    4    2    0
 0.190991458015885D+03 0.000000000000000D+00 0.000000000000000D+00 0.190991458015885D+03
 0.190991458015885D+03 0.000000000000000D+00 0.000000000000000D+00 -.190991458015885D+03
 0.162907890638204D+03 0.306198249411350D+02 -.405121095194811D+02 0.912971858002477D+02
 0.105500981043030D+03 -.583815026070931D+02 0.302963687159915D+02 0.183567764772029D+02
 0.113574044350535D+03 0.277616776659581D+02 0.102157408034896D+02 -.109653962277451D+03
 0.000000000000000D+00 -.000000000000000D+00 -.000000000000000D+00 0.000000000000000D+00
 0.212363553774861D+03 0.000000000000000D+00 0.000000000000000D+00 0.212363553774861D+03
 0.197765243074573D+03 0.000000000000000D+00 0.000000000000000D+00 -.197765243074573D+03
 0.162111529962871D+03 0.358686068979885D+02 -.321467735714702D+02 0.912971858002477D+02
 0.105369576479389D+03 -.549761258591178D+02 0.357237461076475D+02 0.183567764772029D+02
 0.115207782854675D+03 0.314563058960802D+02 0.161041176882677D+02 -.109653962277451D+03
 0.274399075524990D+02 -.123487869349508D+02 -.196810902244449D+02 0.145983107002878D+02
0.575856890488D-05 0.000000000000D+00 0.000000000000D+00 0.355667522491D-05 0.000000000000D+00  6 1 21 25 -24 2 21 2 0.28944185D-01 0.29829080D-01 0.18008942D+05 0.18008942D+05 0.18008942D+05 0.12388715D+01  1  2  2  2  6  2       21 0.164404492281D-01 0.100000000000D+01
0.885655284234D-06 0.303888029963D-06 -.116248915017D-07 0.355667522491D-05 0.000000000000D+00  6 1 21 25 -24 2 21 4 0.28944185D-01 0.29829080D-01 0.18008942D+05 0.18008942D+05 0.18008942D+05 0.12388715D+01  1  2  3  2  6  2       21 0.388075633567D-02 0.100000000000D+01
0.538534142709D-06 0.000000000000D+00 0.000000000000D+00 0.355667522491D-05 0.000000000000D+00  6 1 21 25 -24 2 21 4 0.28944185D-01 0.29829080D-01 0.18008942D+05 0.18008942D+05 0.18008942D+05 0.12388715D+01  1  2 15  2  6  2       21 0.235974404883D-02 0.100000000000D+01
-.219985885444D-05 0.000000000000D+00 0.000000000000D+00 0.355667522491D-05 0.000000000000D+00  6 1 21 25 -24 2 21 4 0.28944185D-01 0.29829080D-01 0.18008942D+05 0.18008942D+05 0.18008942D+05 0.12388715D+01  1  2  4  2  6  2       21 -.963932168522D-02 0.100000000000D+01
  </mgrwgt>
  </event>
  <event>
  5     66 0.59588745E-03 0.24574407E+02 0.75467711E-02 0.12030010E+00
        1 -1    0    0  502    0 0.00000000E+00 0.00000000E+00 0.79003180E+03 0.79003187E+03 0.32000000E+00 0.0000E+00 0.9000E+01
       21 -1    0    0  501  502 0.00000000E+00 0.00000000E+00 -.39310918E+02 0.39318072E+02 0.75000000E+00 0.0000E+00 0.9000E+01
       25  1    1    2    0    0 -.56920716E+02 -.29830639E+02 0.61921069E+03 0.63496197E+03 0.12500000E+03 0.0000E+00 0.9000E+01
      -24  1    1    2    0    0 0.71512527E+02 0.49602461E+02 0.11127271E+03 0.16255239E+03 0.80419002E+02 0.0000E+00 0.9000E+01
        2  1    1    2  501    0 -.14591811E+02 -.19771822E+02 0.20237487E+02 0.31835580E+02 0.32000000E+00 0.0000E+00 0.9000E+01
#aMCatNLO 1  0  0  2  1 0.12152548D+02 0.00000000D+00  -5  6  0 0.00000000D+00 0.00000000D+00 0.00000000D+00 0.00000000D+00 0.00000000D+00
  <mgrwgt>
 0.9484020709D-01   23    2    0
 0.176238102361444D+03 0.000000000000000D+00 0.000000000000000D+00 0.176238102361444D+03
 0.176238102361444D+03 0.000000000000000D+00 0.000000000000000D+00 -.176238102361444D+03
 0.175192863339513D+03 -.569203490301099D+02 -.298301418414157D+02 0.104583822215048D+03
 0.145479546303883D+03 0.715128319482650D+02 0.496028739529592D+02 -.843952143237945D+02
 0.318037950794918D+02 -.145924829181551D+02 -.197727321115435D+02 -.201886078912538D+02
 0.000000000000000D+00 -.000000000000000D+00 -.000000000000000D+00 -.000000000000000D+00
 0.180539592831576D+03 0.000000000000000D+00 0.000000000000000D+00 0.180539592831576D+03
 0.185140316792025D+03 0.000000000000000D+00 0.000000000000000D+00 -.185140316792025D+03
 0.173149634486885D+03 -.510803611897128D+02 -.284397038409606D+02 0.104583822215048D+03
 0.148360640825531D+03 0.764390845030451D+02 0.507757614553310D+02 -.843952143237945D+02
 0.311753627948530D+02 -.135366326602061D+02 -.195213455741799D+02 -.201886078912538D+02
 0.129942715163329D+02 -.118220906531263D+02 -.281471204019050D+01 -.460072396044908D+01
0.113218028033D-05 0.000000000000D+00 0.000000000000D+00 0.532024882097D-06 0.000000000000D+00  6 1 21 25 -24 2 21 2 0.12154391D+00 0.60483888D-02 0.20110632D+05 0.20110632D+05 0.20110632D+05 0.12335624D+01  1  2  2  2  6  2       21 0.881036592848D-02 0.100000000000D+01
0.657093593656D-07 0.597467948436D-07 -.228554579039D-08 0.532024882097D-06 0.000000000000D+00  6 1 21 25 -24 2 21 4 0.12154391D+00 0.60483888D-02 0.20110632D+05 0.20110632D+05 0.20110632D+05 0.12335624D+01  1  2  3  2  6  2       21 0.778086407730D-03 0.100000000000D+01
0.126411152452D-06 0.000000000000D+00 0.000000000000D+00 0.532024882097D-06 0.000000000000D+00  6 1 21 25 -24 2 21 4 0.12154391D+00 0.60483888D-02 0.20110632D+05 0.20110632D+05 0.20110632D+05 0.12335624D+01  1  2 15  2  6  2       21 0.149687655545D-02 0.100000000000D+01
0.415530493135D-05 0.000000000000D+00 0.000000000000D+00 0.528549354436D-06 0.000000000000D+00  6 1 21 25 -24 2 21 4 0.12154391D+00 0.64249071D-02 0.21892491D+05 0.21892491D+05 0.21892491D+05 0.12295266D+01  1  2 12  2  6  2       21 0.438120622165D-01 0.100000000000D+01
-.144807330934D-06 0.000000000000D+00 0.000000000000D+00 0.532024882097D-06 0.000000000000D+00  6 1 21 25 -24 2 21 4 0.12154391D+00 0.60483888D-02 0.20110632D+05 0.20110632D+05 0.20110632D+05 0.12335624D+01  1  2  4  2  6  2       21 -.171471183143D-02 0.100000000000D+01
-.305252648251D-04 0.000000000000D+00 -.543718897510D-05 0.532024882097D-06 0.000000000000D+00  6 1 21 25 -24 2 21 4 0.12154391D+00 0.65096185D-02 0.20110632D+05 0.20110632D+05 0.20110632D+05 0.12335624D+01  1  2  5  2  6  2       21 -.318913957818D+00 0.100000000000D+01
0.305981548001D-04 0.000000000000D+00 0.537890690082D-05 0.532024882097D-06 0.000000000000D+00  6 1 21 25 -24 2 21 4 0.12154391D+00 0.60483888D-02 0.20110632D+05 0.20110632D+05 0.20110632D+05 0.12335624D+01  1  2  6  2  6  2       21 0.362322941228D+00 0.100000000000D+01
0.712088584014D-07 0.000000000000D+00 0.000000000000D+00 0.528549354436D-06 0.000000000000D+00  6 1 -1 25 -24 2 -1 4 0.12154391D+00 0.64249071D-02 0.21892491D+05 0.21892491D+05 0.21892491D+05 0.12295266D+01  1  2 12  5  6  2       21 0.453171311812D-04 0.100000000000D+01
-.466759053327D-06 0.000000000000D+00 -.985938265644D-07 0.532024882097D-06 0.000000000000D+00  6 1 -1 25 -24 2 -1 4 0.12154391D+00 0.65096185D-02 0.20110632D+05 0.20110632D+05 0.20110632D+05 0.12335624D+01  1  2  5  5  6  2       21 -.294771211746D-03 0.100000000000D+01
0.712088584014D-07 0.000000000000D+00 0.000000000000D+00 0.528549354436D-06 0.000000000000D+00  6 1 1 25 -24 2 1 4 0.12154391D+00 0.64249071D-02 0.21892491D+05 0.21892491D+05 0.21892491D+05 0.12295266D+01  1  2 12  6  6  2       21 0.527033847571D-04 0.100000000000D+01
-.466759053327D-06 0.000000000000D+00 -.985938265644D-07 0.532024882097D-06 0.000000000000D+00  6 1 1 25 -24 2 1 4 0.12154391D+00 0.65096185D-02 0.20110632D+05 0.20110632D+05 0.20110632D+05 0.12335624D+01  1  2  5  6  6  2       21 -.343493979541D-03 0.100000000000D+01
0.712088584014D-07 0.000000000000D+00 0.000000000000D+00 0.528549354436D-06 0.000000000000D+00  6 1 -2 25 -24 2 -2 4 0.12154391D+00 0.64249071D-02 0.21892491D+05 0.21892491D+05 0.21892491D+05 0.12295266D+01  1  2 12  7  6  2       21 0.440238860018D-04 0.100000000000D+01
-.466759053327D-06 0.000000000000D+00 -.985938265644D-07 0.532024882097D-06 0.000000000000D+00  6 1 -2 25 -24 2 -2 4 0.12154391D+00 0.65096185D-02 0.20110632D+05 0.20110632D+05 0.20110632D+05 0.12335624D+01  1  2  5  7  6  2       21 -.286240617404D-03 0.100000000000D+01
0.712088584014D-07 0.000000000000D+00 0.000000000000D+00 0.528549354436D-06 0.000000000000D+00  6 1 2 25 -24 2 2 4 0.12154391D+00 0.64249071D-02 0.21892491D+05 0.21892491D+05 0.21892491D+05 0.12295266D+01  1  2 12  8  6  2       21 0.576617255785D-04 0.100000000000D+01
-.466759053327D-06 0.000000000000D+00 -.985938265644D-07 0.532024882097D-06 0.000000000000D+00  6 1 2 25 -24 2 2 4 0.12154391D+00 0.65096185D-02 0.20110632D+05 0.20110632D+05 0.20110632D+05 0.12335624D+01  1  2  5  8  6  2       21 -.376187780703D-03 0.100000000000D+01
0.712088584014D-07 0.000000000000D+00 0.000000000000D+00 0.528549354436D-06 0.000000000000D+00  6 1 -3 25 -24 2 -3 4 0.12154391D+00 0.64249071D-02 0.21892491D+05 0.21892491D+05 0.21892491D+05 0.12295266D+01  1  2 12  9  6  2       21 0.314735907465D-04 0.100000000000D+01
0.712088584014D-07 0.000000000000D+00 0.000000000000D+00 0.528549354436D-06 0.000000000000D+00  6 1 -4 25 -24 2 -4 4 0.12154391D+00 0.64249071D-02 0.21892491D+05 0.21892491D+05 0.21892491D+05 0.12295266D+01  1  2 12  9  6  2       21 0.278874099077D-04 0.100000000000D+01
-.466759053327D-06 0.000000000000D+00 -.985938265644D-07 0.532024882097D-06 0.000000000000D+00  6 1 -3 25 -24 2 -3 4 0.12154391D+00 0.65096185D-02 0.20110632D+05 0.20110632D+05 0.20110632D+05 0.12335624D+01  1  2  5  9  6  2       21 -.204037193019D-03 0.100000000000D+01
-.466759053327D-06 0.000000000000D+00 -.985938265644D-07 0.532024882097D-06 0.000000000000D+00  6 1 -4 25 -24 2 -4 4 0.12154391D+00 0.65096185D-02 0.20110632D+05 0.20110632D+05 0.20110632D+05 0.12335624D+01  1  2  5  9  6  2       21 -.180567503841D-03 0.100000000000D+01
0.712088584014D-07 0.000000000000D+00 0.000000000000D+00 0.528549354436D-06 0.000000000000D+00  6 1 3 25 -24 2 3 4 0.12154391D+00 0.64249071D-02 0.21892491D+05 0.21892491D+05 0.21892491D+05 0.12295266D+01  1  2 12 10  6  2       21 0.314701297892D-04 0.100000000000D+01
0.712088584014D-07 0.000000000000D+00 0.000000000000D+00 0.528549354436D-06 0.000000000000D+00  6 1 4 25 -24 2 4 4 0.12154391D+00 0.64249071D-02 0.21892491D+05 0.21892491D+05 0.21892491D+05 0.12295266D+01  1  2 12 10  6  2       21 0.278874099077D-04 0.100000000000D+01
-.466759053327D-06 0.000000000000D+00 -.985938265644D-07 0.532024882097D-06 0.000000000000D+00  6 1 3 25 -24 2 3 4 0.12154391D+00 0.65096185D-02 0.20110632D+05 0.20110632D+05 0.20110632D+05 0.12335624D+01  1  2  5 10  6  2       21 -.204014469684D-03 0.100000000000D+01
-.466759053327D-06 0.000000000000D+00 -.985938265644D-07 0.532024882097D-06 0.000000000000D+00  6 1 4 25 -24 2 4 4 0.12154391D+00 0.65096185D-02 0.20110632D+05 0.20110632D+05 0.20110632D+05 0.12335624D+01  1  2  5 10  6  2       21 -.180567503841D-03 0.100000000000D+01
  </mgrwgt>
  </event>
  <event>
  5     66 0.59588745E-03 0.46636546E+02 0.75467711E-02 0.11713149E+00
        1 -1    0    0  502    0 0.00000000E+00 0.00000000E+00 0.24820661E+04 0.24820661E+04 0.32000000E+00 0.0000E+00 0.9000E+01
       21 -1    0    0  501  502 0.00000000E+00 0.00000000E+00 -.20290446E+02 0.20304302E+02 0.75000000E+00 0.0000E+00 0.9000E+01
       25  1    1    2    0    0 0.75828384E+02 -.55237515E+02 0.12637954E+04 0.12734225E+04 0.12500000E+03 0.0000E+00 0.9000E+01
      -24  1    1    2    0    0 -.39053148E+02 0.26557498E+02 0.11717194E+04 0.11754251E+04 0.80419002E+02 0.0000E+00 0.9000E+01
        2  1    1    2  501    0 -.36775236E+02 0.28680017E+02 0.26260855E+02 0.53522857E+02 0.32000000E+00 0.0000E+00 0.9000E+01
#aMCatNLO 1  0  0  2  1 0.66639733D+02 0.00000000D+00  -5  6  0 0.00000000D+00 0.00000000D+00 0.00000000D+00 0.00000000D+00 0.00000000D+00
  <mgrwgt>
 0.5872717752D-01   14    2    0
 0.224453984905674D+03 0.000000000000000D+00 0.000000000000000D+00 0.224453984905674D+03
 0.224453984905674D+03 0.000000000000000D+00 0.000000000000000D+00 -.224453984905674D+03
 0.167950140518998D+03 0.758284133121657D+02 -.552375376205475D+02 0.614907787601458D+02
 0.126615212439698D+03 -.390531257283793D+02 0.265574802195176D+02 0.856373147758189D+02
 0.154342616852651D+03 -.367752875837864D+02 0.286800574010299D+02 -.147128093535965D+03
 0.000000000000000D+00 -.000000000000000D+00 0.000000000000000D+00 -.000000000000000D+00
 0.252003498938596D+03 0.000000000000000D+00 0.000000000000000D+00 0.252003498938596D+03
 0.271163161296460D+03 0.000000000000000D+00 0.000000000000000D+00 -.271163161296460D+03
 0.182196854972271D+03 0.875253206907028D+02 -.782872679766452D+02 0.614907787601458D+02
 0.121863578814426D+03 -.307525164292690D+02 0.102004381447142D+02 0.856373147758189D+02
 0.149766867504474D+03 -.266162957396063D+02 0.866091771562753D+01 -.147128093535965D+03
 0.693393589438857D+02 -.301565085218275D+02 0.594259121163035D+02 -.191596623578636D+02
0.133728986722D-04 0.000000000000D+00 0.000000000000D+00 0.229867462483D-05 0.000000000000D+00  6 1 21 25 -24 2 21 2 0.38185739D+00 0.31226745D-02 0.21931600D+05 0.21931600D+05 0.21931600D+05 0.12294422D+01  1  2  2  2  6  2       21 0.229267452932D-01 0.100000000000D+01
0.131388444001D-05 0.705707251142D-06 -.269960295162D-07 0.229867462483D-05 0.000000000000D+00  6 1 21 25 -24 2 21 4 0.38185739D+00 0.31226745D-02 0.21931600D+05 0.21931600D+05 0.21931600D+05 0.12294422D+01  1  2  3  2  6  2       21 0.340478917564D-02 0.100000000000D+01
0.121903357832D-05 0.000000000000D+00 0.000000000000D+00 0.229867462483D-05 0.000000000000D+00  6 1 21 25 -24 2 21 4 0.38185739D+00 0.31226745D-02 0.21931600D+05 0.21931600D+05 0.21931600D+05 0.12294422D+01  1  2 15  2  6  2       21 0.315899344404D-02 0.100000000000D+01
-.313691715821D-05 0.000000000000D+00 0.000000000000D+00 0.229867462483D-05 0.000000000000D+00  6 1 21 25 -24 2 21 4 0.38185739D+00 0.31226745D-02 0.21931600D+05 0.21931600D+05 0.21931600D+05 0.12294422D+01  1  2  4  2  6  2       21 -.812898095140D-02 0.100000000000D+01
-.359414779448D-04 0.000000000000D+00 -.194690216622D-04 0.229867462483D-05 0.000000000000D+00  6 1 21 25 -24 2 21 4 0.38185739D+00 0.43992643D-02 0.21931600D+05 0.21931600D+05 0.21931600D+05 0.12294422D+01  1  2  5  2  6  2       21 -.527105782380D-01 0.100000000000D+01
0.353055952664D-04 0.000000000000D+00 0.155586141596D-04 0.229867462483D-05 0.000000000000D+00  6 1 21 25 -24 2 21 4 0.38185739D+00 0.31226745D-02 0.21931600D+05 0.21931600D+05 0.21931600D+05 0.12294422D+01  1  2  6  2  6  2       21 0.914906250065D-01 0.100000000000D+01
-.246046711315D-05 0.000000000000D+00 -.215897749740D-05 0.229867462483D-05 0.000000000000D+00  6 1 -1 25 -24 2 -1 4 0.38185739D+00 0.43992643D-02 0.21931600D+05 0.21931600D+05 0.21931600D+05 0.12294422D+01  1  2  5  5  6  2       21 -.201570816418D-03 0.100000000000D+01
-.246046711315D-05 0.000000000000D+00 -.215897749740D-05 0.229867462483D-05 0.000000000000D+00  6 1 1 25 -24 2 1 4 0.38185739D+00 0.43992643D-02 0.21931600D+05 0.21931600D+05 0.21931600D+05 0.12294422D+01  1  2  5  6  6  2       21 -.224084871501D-03 0.100000000000D+01
-.246046711315D-05 0.000000000000D+00 -.215897749740D-05 0.229867462483D-05 0.000000000000D+00  6 1 -2 25 -24 2 -2 4 0.38185739D+00 0.43992643D-02 0.21931600D+05 0.21931600D+05 0.21931600D+05 0.12294422D+01  1  2  5  7  6  2       21 -.197584028760D-03 0.100000000000D+01
-.246046711315D-05 0.000000000000D+00 -.215897749740D-05 0.229867462483D-05 0.000000000000D+00  6 1 2 25 -24 2 2 4 0.38185739D+00 0.43992643D-02 0.21931600D+05 0.21931600D+05 0.21931600D+05 0.12294422D+01  1  2  5  8  6  2       21 -.239249243170D-03 0.100000000000D+01
-.246046711315D-05 0.000000000000D+00 -.215897749740D-05 0.229867462483D-05 0.000000000000D+00  6 1 -3 25 -24 2 -3 4 0.38185739D+00 0.43992643D-02 0.21931600D+05 0.21931600D+05 0.21931600D+05 0.12294422D+01  1  2  5  9  6  2       21 -.145635164843D-03 0.100000000000D+01
-.246046711315D-05 0.000000000000D+00 -.215897749740D-05 0.229867462483D-05 0.000000000000D+00  6 1 -4 25 -24 2 -4 4 0.38185739D+00 0.43992643D-02 0.21931600D+05 0.21931600D+05 0.21931600D+05 0.12294422D+01  1  2  5  9  6  2       21 -.130335133206D-03 0.100000000000D+01
-.246046711315D-05 0.000000000000D+00 -.215897749740D-05 0.229867462483D-05 0.000000000000D+00  6 1 3 25 -24 2 3 4 0.38185739D+00 0.43992643D-02 0.21931600D+05 0.21931600D+05 0.21931600D+05 0.12294422D+01  1  2  5 10  6  2       21 -.145621817249D-03 0.100000000000D+01
-.246046711315D-05 0.000000000000D+00 -.215897749740D-05 0.229867462483D-05 0.000000000000D+00  6 1 4 25 -24 2 4 4 0.38185739D+00 0.43992643D-02 0.21931600D+05 0.21931600D+05 0.21931600D+05 0.12294422D+01  1  2  5 10  6  2       21 -.130335133206D-03 0.100000000000D+01
  </mgrwgt>
  </event>
  <event>
  6     66 0.59588745E-03 0.24771117E+02 0.75467711E-02 0.11993014E+00
        1 -1    0    0  502    0 0.00000000E+00 0.00000000E+00 0.28258403E+03 0.28258422E+03 0.32000000E+00 0.0000E+00 0.9000E+01
       21 -1    0    0  501  502 0.00000000E+00 0.00000000E+00 -.91204695E+02 0.91207778E+02 0.75000000E+00 0.0000E+00 0.9000E+01
       25  1    1    2    0    0 0.10217942E+02 -.73802488E+02 0.13395770E+03 0.19778998E+03 0.12500000E+03 0.0000E+00 0.9000E+01
      -24  1    1    2    0    0 0.24470696E+02 0.60185872E+02 0.21675027E+02 0.10563227E+03 0.80419002E+02 0.0000E+00 0.9000E+01
        2  1    1    2  503    0 -.21794493E+02 0.26883807E+02 0.38365343E+02 0.51669536E+02 0.32000000E+00 0.0000E+00 0.9000E+01
       21  1    1    2  501  503 -.12894145E+02 -.13267190E+02 -.26187267E+01 0.18700202E+02 0.75000000E+00 0.0000E+00 0.9000E+01
#aMCatNLO 2  0  0  5  2 0.22387807D+02 0.00000000D+00  -5  6  0 0.00000000D+00 0.00000000D+00 0.00000000D+00 0.00000000D+00 0.00000000D+00
  <mgrwgt>
 0.1232198294D+00    2    2    0
 0.160541585882583D+03 0.000000000000000D+00 0.000000000000000D+00 0.160541585882583D+03
 0.160541585882583D+03 -.000000000000000D+00 -.000000000000000D+00 -.160541585882583D+03
 0.153625263634895D+03 0.208958044532224D+02 -.779939575369314D+02 0.381579555384076D+02
 0.110401669999570D+03 0.322130718226008D+02 0.571466930755240D+02 -.376548304817231D+02
 0.570562381307006D+02 -.531088762758232D+02 0.208472644614074D+02 -.503125056684462D+00
 0.000000000000000D+00 0.000000000000000D+00 -.000000000000000D+00 0.000000000000000D+00
 0.160541585882583D+03 0.000000000000000D+00 0.000000000000000D+00 0.160541585882583D+03
 0.160541585882583D+03 -.000000000000000D+00 -.000000000000000D+00 -.160541585882583D+03
 0.150393964911445D+03 0.101396086027449D+02 -.737717394216579D+02 0.380560570983262D+02
 0.110053320210228D+03 0.244133774998114D+02 0.602083713046179D+02 -.377287206093902D+02
 0.369542799807683D+02 -.211838728955355D+02 0.268380301974284D+02 0.140207871806376D+02
 0.236816066627249D+02 -.133691132070207D+02 -.132746620803884D+02 -.143481236695736D+02
-.552971459358D-05 0.000000000000D+00 0.000000000000D+00 0.257196783919D-06 0.000000000000D+00  6 1 21 25 -24 2 21 4 0.43474718D-01 0.14031743D-01 0.22788141D+05 0.22788141D+05 0.22788141D+05 0.12276346D+01  1  2 13  3  6  5        2 -.573536709710D-01 0.100000000000D+01
0.174098693868D-04 0.000000000000D+00 0.000000000000D+00 0.256203181524D-06 0.140027685414D-07  6 1 21 25 -24 2 21 4 0.43474718D-01 0.14031743D-01 0.22788141D+05 0.22788141D+05 0.22788141D+05 0.12276346D+01  1  2  1  3  6  5        2 0.180573500414D+00 0.100000000000D+01
  </mgrwgt>
  </event>
  <event>
  5     66 0.59588745E-03 0.34960421E+02 0.75467711E-02 0.11945093E+00
        1 -1    0    0  502    0 0.00000000E+00 0.00000000E+00 0.17382585E+03 0.17382615E+03 0.32000000E+00 0.0000E+00 0.9000E+01
       21 -1    0    0  501  502 0.00000000E+00 0.00000000E+00 -.14251356E+03 0.14251554E+03 0.75000000E+00 0.0000E+00 0.9000E+01
       25  1    1    2    0    0 0.64891385E+02 0.19147804E+02 0.36022857E+02 0.14662938E+03 0.12500000E+03 0.0000E+00 0.9000E+01
      -24  1    1    2    0    0 -.71537170E+02 0.15174719E+02 0.37426329E+02 0.11495993E+03 0.80419002E+02 0.0000E+00 0.9000E+01
        2  1    1    2  501    0 0.66457853E+01 -.34322523E+02 -.42136893E+02 0.54752372E+02 0.32000000E+00 0.0000E+00 0.9000E+01
#aMCatNLO 1  0  0  5  2 0.30725931D+02 0.00000000D+00  -5  6  0 0.00000000D+00 0.00000000D+00 0.00000000D+00 0.00000000D+00 0.00000000D+00
  <mgrwgt>
 0.7754986288D-01    4    2    0
 0.157394092379927D+03 0.000000000000000D+00 0.000000000000000D+00 0.157394092379927D+03
 0.157394092379927D+03 -.000000000000000D+00 -.000000000000000D+00 -.157394092379927D+03
 0.143769838882584D+03 0.648913406243357D+02 0.191480324381437D+02 0.216155809093457D+02
 0.111804531818882D+03 -.715372047549804D+02 0.151748973020134D+02 0.261760999498839D+02
 0.592138140583869D+02 0.664586413064472D+01 -.343229297401571D+02 -.477916808592297D+02
 0.000000000000000D+00 0.000000000000000D+00 0.000000000000000D+00 0.000000000000000D+00
 0.157394092379927D+03 0.000000000000000D+00 0.000000000000000D+00 0.157394092379927D+03
 0.157394092379927D+03 -.000000000000000D+00 -.000000000000000D+00 -.157394092379927D+03
 0.142205940703902D+03 0.675244547264256D+02 0.554917026653911D+01 0.268035347176498D+01
 0.107050514126513D+03 -.695221029564098D+02 0.476779356170677D+01 0.116851172630618D+02
 0.307639351537842D+02 -.221748839786472D+02 0.146471716123174D+02 -.154969219666067D+02
 0.347677947756543D+02 0.241725322086315D+02 -.249641354405633D+02 0.113145123177987D+01
0.145859660141D-04 0.000000000000D+00 0.000000000000D+00 0.105605269533D-05 0.000000000000D+00  6 1 21 25 -24 2 21 2 0.26742614D-01 0.21925338D-01 0.20419433D+05 0.20419433D+05 0.20419433D+05 0.12328350D+01  1  2  2  3  6  5        2 0.816644968991D-01 0.100000000000D+01
0.768083927534D-06 0.769722573500D-06 -.294448629795D-07 0.105605269533D-05 0.000000000000D+00  6 1 21 25 -24 2 21 4 0.26742614D-01 0.21925338D-01 0.20419433D+05 0.20419433D+05 0.20419433D+05 0.12328350D+01  1  2  3  3  6  5        2 0.653606928705D-02 0.100000000000D+01
0.133668673909D-05 0.000000000000D+00 0.000000000000D+00 0.105605269533D-05 0.000000000000D+00  6 1 21 25 -24 2 21 4 0.26742614D-01 0.21925338D-01 0.20419433D+05 0.20419433D+05 0.20419433D+05 0.12328350D+01  1  2 15  3  6  5        2 0.113746386672D-01 0.100000000000D+01
-.258830046419D-05 0.000000000000D+00 0.000000000000D+00 0.105605269533D-05 0.000000000000D+00  6 1 21 25 -24 2 21 4 0.26742614D-01 0.21925338D-01 0.20419433D+05 0.20419433D+05 0.20419433D+05 0.12328350D+01  1  2  4  3  6  5        2 -.220253419753D-01 0.100000000000D+01
  </mgrwgt>
  </event>
  <event>
  5     66 -.59588745E-03 0.75886334E+02 0.75467711E-02 0.11428249E+00
        1 -1    0    0  502    0 0.00000000E+00 0.00000000E+00 0.28887728E+04 0.28887728E+04 0.32000000E+00 0.0000E+00 0.9000E+01
       21 -1    0    0  501  502 0.00000000E+00 0.00000000E+00 -.18480390E+02 0.18495602E+02 0.75000000E+00 0.0000E+00 0.9000E+01
       25  1    1    2    0    0 0.15981559E+03 0.45098361E+02 0.13404108E+04 0.13564295E+04 0.12500000E+03 0.0000E+00 0.9000E+01
      -24  1    1    2    0    0 -.10627947E+03 0.86843081E+01 0.48048751E+03 0.49870453E+03 0.80419002E+02 0.0000E+00 0.9000E+01
        2  1    1    2  501    0 -.53536111E+02 -.53782669E+02 0.10493941E+04 0.10521344E+04 0.32000000E+00 0.0000E+00 0.9000E+01
#aMCatNLO 1  0  0  5  2 0.10356415D+02 0.00000000D+00  -5  6  0 0.00000000D+00 0.00000000D+00 0.00000000D+00 0.00000000D+00 0.00000000D+00
  <mgrwgt>
 -.9601620903D-02    7    2    0
 0.231101247741029D+03 0.000000000000000D+00 0.000000000000000D+00 0.231101247741029D+03
 0.231101247741029D+03 -.000000000000000D+00 -.000000000000000D+00 -.231101247741029D+03
 0.207990578748267D+03 0.159815706501874D+03 0.450984819296559D+02 0.775549682395196D+01
 0.153024430288255D+03 -.106279386156215D+03 0.868439713155707D+01 -.746895818397312D+02
 0.101187486445537D+03 -.535363203456596D+02 -.537828790612130D+02 0.669340850157792D+02
 0.000000000000000D+00 -.000000000000000D+00 0.000000000000000D+00 0.000000000000000D+00
 0.231101247741029D+03 0.000000000000000D+00 0.000000000000000D+00 0.231101247741029D+03
 0.231101247741029D+03 -.000000000000000D+00 -.000000000000000D+00 -.231101247741029D+03
 0.206738756800361D+03 0.158470876714301D+03 0.437474585990279D+02 0.943687781450171D+01
 0.153062997196421D+03 -.107271926241518D+03 0.768728595494672D+01 -.734486530268749D+02
 0.131798909570747D+02 0.237710170561947D+01 -.171071815096183D+01 0.128503835168251D+02
 0.892208505282020D+02 -.535760521784030D+02 -.497240264030128D+02 0.511613916955481D+02
0.211603142737D-04 0.000000000000D+00 0.000000000000D+00 0.759173568967D-07 0.000000000000D+00  6 1 21 25 -24 2 21 2 0.44442775D+00 0.28443085D-02 0.43532951D+05 0.43532951D+05 0.43532951D+05 0.11982853D+01  1  2  2  3  6  5        2 0.209045123857D-01 0.100000000000D+01
-.211620476398D-05 0.111666046273D-05 -.427165779617D-07 0.759173568967D-07 0.000000000000D+00  6 1 21 25 -24 2 21 4 0.44442775D+00 0.28443085D-02 0.43532951D+05 0.43532951D+05 0.43532951D+05 0.11982853D+01  1  2  3  3  6  5        2 -.300189899094D-02 0.100000000000D+01
0.226891710454D-05 0.000000000000D+00 0.000000000000D+00 0.759173568967D-07 0.000000000000D+00  6 1 21 25 -24 2 21 4 0.44442775D+00 0.28443085D-02 0.43532951D+05 0.43532951D+05 0.43532951D+05 0.11982853D+01  1  2 15  3  6  5        2 0.321852595862D-02 0.100000000000D+01
0.565937267615D-05 0.000000000000D+00 0.000000000000D+00 0.759294353854D-07 0.000000000000D+00  6 1 21 25 -24 2 21 4 0.44442775D+00 0.28443085D-02 0.43438073D+05 0.43438073D+05 0.43438073D+05 0.11983806D+01  1  2 12  3  6  5        2 0.803137393380D-02 0.100000000000D+01
-.333646239533D-04 0.000000000000D+00 0.000000000000D+00 0.759173568967D-07 0.000000000000D+00  6 1 21 25 -24 2 21 4 0.44442775D+00 0.28443085D-02 0.43532951D+05 0.43532951D+05 0.43532951D+05 0.11982853D+01  1  2  4  3  6  5        2 -.473287049927D-01 0.100000000000D+01
-.502360213274D-05 0.000000000000D+00 0.000000000000D+00 0.759173568967D-07 0.000000000000D+00  6 1 21 25 -24 2 21 4 0.44442775D+00 0.28443085D-02 0.43532951D+05 0.43532951D+05 0.43532951D+05 0.11982853D+01  1  2  5  3  6  5        2 -.712612807127D-02 0.100000000000D+01
0.110682917231D-04 0.000000000000D+00 -.000000000000D+00 0.759173568967D-07 0.000000000000D+00  6 1 21 25 -24 2 21 4 0.44442775D+00 0.28443085D-02 0.43532951D+05 0.43532951D+05 0.43532951D+05 0.11982853D+01  1  2  6  3  6  5        2 0.157006988740D-01 0.100000000000D+01
  </mgrwgt>
  </event>
  <event>
  5     66 -.59588745E-03 0.55637691E+02 0.75467711E-02 0.11605674E+00
        1 -1    0    0  502    0 0.00000000E+00 0.00000000E+00 0.21159121E+03 0.21159145E+03 0.32000000E+00 0.0000E+00 0.9000E+01
       21 -1    0    0  501  502 -.00000000E+00 -.00000000E+00 -.65443316E+03 0.65443359E+03 0.75000000E+00 0.0000E+00 0.9000E+01
       25  1    1    2    0    0 -.73558570E+02 0.81470870E+02 -.57423938E+03 0.59784967E+03 0.12500000E+03 0.0000E+00 0.9000E+01
      -24  1    1    2    0    0 0.26172527E+02 0.26168738E+02 -.42669378E+01 0.88629717E+02 0.80419002E+02 0.0000E+00 0.9000E+01
        2  1    1    2  501    0 0.47386043E+02 -.10763961E+03 0.13566436E+03 0.17954566E+03 0.32000000E+00 0.0000E+00 0.9000E+01
#aMCatNLO 1  0  0  5  2 0.28736506D+02 0.00000000D+00  -5  6  0 0.00000000D+00 0.00000000D+00 0.00000000D+00 0.00000000D+00 0.00000000D+00
  <mgrwgt>
 -.6410174964D-02    7    2    0
 0.372119059134496D+03 0.000000000000000D+00 0.000000000000000D+00 0.372119059134496D+03
 0.372119059134496D+03 -.000000000000000D+00 -.000000000000000D+00 -.372119059134496D+03
 0.353993632458254D+03 -.735585841982694D+02 0.814709011241257D+02 -.312470988704165D+03
 0.100594106549024D+03 0.261725232977821D+02 0.261687465548159D+02 0.477718959850110D+02
 0.289650379261714D+03 0.473860609004873D+02 -.107639647678942D+03 0.264699092719154D+03
 0.000000000000000D+00 0.000000000000000D+00 0.000000000000000D+00 0.000000000000000D+00
 0.372119059134496D+03 0.000000000000000D+00 0.000000000000000D+00 0.372119059134496D+03
 0.372119059134496D+03 -.000000000000000D+00 -.000000000000000D+00 -.372119059134496D+03
 0.351472696895857D+03 -.731130322802116D+02 0.804588091592936D+02 -.309982130457077D+03
 0.100892158275930D+03 0.262997761346925D+02 0.258796858000098D+02 0.484827318265227D+02
 0.151803008163163D+03 0.681676383739106D+00 -.422720989347046D+02 0.145796976156392D+03
 0.140070254934043D+03 0.461315797617799D+02 -.640663960245988D+02 0.115702422474162D+03
0.177030279416D-04 0.000000000000D+00 0.000000000000D+00 0.246125650773D-07 0.000000000000D+00  6 1 21 25 -24 2 21 2 0.32552545D-01 0.10068208D+00 0.34686919D+05 0.34686919D+05 0.34686919D+05 0.12083368D+01  1  2  2  3  6  5        2 0.310447219607D-02 0.100000000000D+01
-.146786803681D-05 0.934214450569D-06 -.357373129456D-07 0.246125650773D-07 0.000000000000D+00  6 1 21 25 -24 2 21 4 0.32552545D-01 0.10068208D+00 0.34686919D+05 0.34686919D+05 0.34686919D+05 0.12083368D+01  1  2  3  3  6  5        2 -.375840212804D-03 0.100000000000D+01
0.251409649416D-05 0.000000000000D+00 0.000000000000D+00 0.246125650773D-07 0.000000000000D+00  6 1 21 25 -24 2 21 4 0.32552545D-01 0.10068208D+00 0.34686919D+05 0.34686919D+05 0.34686919D+05 0.12083368D+01  1  2 15  3  6  5        2 0.643721736340D-03 0.100000000000D+01
0.602234650080D-04 0.000000000000D+00 0.000000000000D+00 0.245844840053D-07 0.000000000000D+00  6 1 21 25 -24 2 21 4 0.32552545D-01 0.10068208D+00 0.35225089D+05 0.35225089D+05 0.35225089D+05 0.12076473D+01  1  2 12  3  6  5        2 0.153738151519D-01 0.100000000000D+01
-.132217756700D-03 0.000000000000D+00 0.000000000000D+00 0.246125650773D-07 0.000000000000D+00  6 1 21 25 -24 2 21 4 0.32552545D-01 0.10068208D+00 0.34686919D+05 0.34686919D+05 0.34686919D+05 0.12083368D+01  1  2  4  3  6  5        2 -.338536902287D-01 0.100000000000D+01
-.586744681841D-04 0.000000000000D+00 0.000000000000D+00 0.246125650773D-07 0.000000000000D+00  6 1 21 25 -24 2 21 4 0.32552545D-01 0.10068208D+00 0.34686919D+05 0.34686919D+05 0.34686919D+05 0.12083368D+01  1  2  5  3  6  5        2 -.150233018606D-01 0.100000000000D+01
0.926425118923D-04 0.000000000000D+00 -.000000000000D+00 0.246125650773D-07 0.000000000000D+00  6 1 21 25 -24 2 21 4 0.32552545D-01 0.10068208D+00 0.34686919D+05 0.34686919D+05 0.34686919D+05 0.12083368D+01  1  2  6  3  6  5        2 0.237206482539D-01 0.100000000000D+01
  </mgrwgt>
  </event>
  <event>
  5     66 0.59588745E-03 0.22523624E+02 0.75467711E-02 0.11383386E+00
        1 -1    0    0  502    0 0.00000000E+00 0.00000000E+00 0.51715090E+02 0.51716080E+02 0.32000000E+00 0.0000E+00 0.9000E+01
       21 -1    0    0  501  502 0.00000000E+00 0.00000000E+00 -.68638431E+03 0.68638472E+03 0.75000000E+00 0.0000E+00 0.9000E+01
       25  1    1    2    0    0 -.98785334E+02 0.91886524E+02 -.24578277E+03 0.30697858E+03 0.12500000E+03 0.0000E+00 0.9000E+01
      -24  1    1    2    0    0 0.85146562E+02 -.73962239E+02 -.21484093E+03 0.25562510E+03 0.80419002E+02 0.0000E+00 0.9000E+01
        2  1    1    2  501    0 0.13638772E+02 -.17924284E+02 -.17404552E+03 0.17549713E+03 0.32000000E+00 0.0000E+00 0.9000E+01
#aMCatNLO 1  0  0  1  2 0.13015640D+02 0.00000000D+00  -5  6  0 0.00000000D+00 0.00000000D+00 0.00000000D+00 0.00000000D+00 0.00000000D+00
  <mgrwgt>
 0.5194129979D-01    4    2    0
 0.188406324970298D+03 0.000000000000000D+00 0.000000000000000D+00 0.188406324970298D+03
 0.188406324970298D+03 0.000000000000000D+00 0.000000000000000D+00 -.188406324970298D+03
 0.187335709731041D+03 -.987854699015372D+02 0.918867016268645D+02 0.356080488218759D+02
 0.138859785019893D+03 0.851464616232585D+02 -.739621070900648D+02 0.972166288436135D+01
 0.506171551896608D+02 0.136390082782786D+02 -.179245945367997D+02 -.453297117062372D+02
 0.000000000000000D+00 0.000000000000000D+00 0.000000000000000D+00 -.000000000000000D+00
 0.222071187922123D+03 0.000000000000000D+00 0.000000000000000D+00 0.222071187922123D+03
 0.239521818440734D+03 0.000000000000000D+00 0.000000000000000D+00 -.239521818440734D+03
 0.200039116511378D+03 -.132767731007012D+03 0.741312659881210D+02 0.356080488218759D+02
 0.133367940974862D+03 0.612654217667499D+02 -.864397425494134D+02 0.972166288436135D+01
 0.508614943362151D+02 0.473684496975950D+01 -.225758973791680D+02 -.453297117062372D+02
 0.773244545404018D+02 0.667654642705022D+02 0.348843739404603D+02 -.174506305186114D+02
0.441022888368D-04 0.000000000000D+00 0.000000000000D+00 0.145899458039D-05 0.000000000000D+00  6 1 21 25 -24 2 21 2 0.79562754D-02 0.10559769D+00 0.29749892D+05 0.29749892D+05 0.29749892D+05 0.12152802D+01  1  2  2  1  6  1        1 0.437791406569D-01 0.100000000000D+01
0.662293740697D-05 0.232734172202D-05 -.890298147288D-07 0.145899458039D-05 0.000000000000D+00  6 1 21 25 -24 2 21 4 0.79562754D-02 0.10559769D+00 0.29749892D+05 0.29749892D+05 0.29749892D+05 0.12152802D+01  1  2  3  1  6  1        1 0.970978434962D-02 0.100000000000D+01
0.460039555813D-05 0.000000000000D+00 0.000000000000D+00 0.145899458039D-05 0.000000000000D+00  6 1 21 25 -24 2 21 4 0.79562754D-02 0.10559769D+00 0.29749892D+05 0.29749892D+05 0.29749892D+05 0.12152802D+01  1  2 15  1  6  1        1 0.674456756082D-02 0.100000000000D+01
-.565601374586D-05 0.000000000000D+00 0.000000000000D+00 0.145899458039D-05 0.000000000000D+00  6 1 21 25 -24 2 21 4 0.79562754D-02 0.10559769D+00 0.29749892D+05 0.29749892D+05 0.29749892D+05 0.12152802D+01  1  2  4  1  6  1        1 -.829219278034D-02 0.100000000000D+01
  </mgrwgt>
  </event>
  <event>
  6     66 0.59588745E-03 0.41536373E+02 0.75467711E-02 0.11895181E+00
        1 -1    0    0  502    0 0.00000000E+00 0.00000000E+00 0.41246420E+03 0.41246432E+03 0.32000000E+00 0.0000E+00 0.9000E+01
       21 -1    0    0  501  502 0.00000000E+00 0.00000000E+00 -.77613079E+02 0.77616703E+02 0.75000000E+00 0.0000E+00 0.9000E+01
       25  1    1    2    0    0 0.33869861E+02 0.70490078E+02 0.26380293E+03 0.30221351E+03 0.12500000E+03 0.0000E+00 0.9000E+01
      -24  1    1    2    0    0 0.93173351E+01 -.89447435E+02 0.64003396E+02 0.13656979E+03 0.80419002E+02 0.0000E+00 0.9000E+01
        2  1    1    2  503    0 -.31066737E+02 0.21844629E+02 0.78778787E+01 0.38787799E+02 0.32000000E+00 0.0000E+00 0.9000E+01
       21  1    1    2  501  503 -.12120459E+02 -.28872716E+01 -.83308335E+00 0.12509931E+02 0.75000000E+00 0.0000E+00 0.9000E+01
#aMCatNLO 2  0  0  5  2 0.84553219D+01 0.00000000D+00  -5  6  0 0.00000000D+00 0.00000000D+00 0.00000000D+00 0.00000000D+00 0.00000000D+00
  <mgrwgt>
 0.4045819371D-01    2    2    0
 0.178923264666759D+03 0.000000000000000D+00 0.000000000000000D+00 0.178923264666759D+03
 0.178923264666759D+03 -.000000000000000D+00 -.000000000000000D+00 -.178923264666759D+03
 0.167460308090966D+03 0.348270098861722D+02 0.700699299990724D+02 0.793425426756330D+02
 0.127223864433352D+03 0.100451975101085D+02 -.897669360862370D+02 -.394928717575431D+02
 0.631623568092000D+02 -.448722073962808D+02 0.196970060871646D+02 -.398496709180899D+02
 0.000000000000000D+00 0.000000000000000D+00 0.000000000000000D+00 -.000000000000000D+00
 0.178923264666759D+03 0.000000000000000D+00 0.000000000000000D+00 0.178923264666759D+03
 0.178923264666759D+03 -.000000000000000D+00 -.000000000000000D+00 -.178923264666759D+03
 0.167037345800118D+03 0.338655892213786D+02 0.704919531128347D+02 0.784887336181127D+02
 0.127145384621381D+03 0.931408370502072D+01 -.894460079682586D+02 -.401421521524014D+02
 0.455295567022549D+02 -.308896764163433D+02 0.218448193839506D+02 -.253292773382903D+02
 0.181342422097630D+02 -.122899965100561D+02 -.289076452852665D+01 -.130173041274210D+02
-.340899701928D-05 0.000000000000D+00 0.000000000000D+00 0.374642251911D-06 0.000000000000D+00  6 1 21 25 -24 2 21 4 0.63456319D-01 0.11940762D-01 0.25368424D+05 0.25368424D+05 0.25368424D+05 0.12226171D+01  1  2 13  3  6  5        2 -.289279903243D-01 0.100000000000D+01
0.817676208734D-05 0.000000000000D+00 0.000000000000D+00 0.374845614500D-06 0.581445752848D-07  6 1 21 25 -24 2 21 4 0.63456319D-01 0.11940762D-01 0.25368424D+05 0.25368424D+05 0.25368424D+05 0.12226171D+01  1  2  1  3  6  5        2 0.693861840327D-01 0.100000000000D+01
  </mgrwgt>
  </event>
  <event>
  5     66 0.59588745E-03 0.19860971E+03 0.75467711E-02 0.99369673E-01
        1 -1    0    0  502    0 0.00000000E+00 0.00000000E+00 0.56177270E+03 0.56177279E+03 0.32000000E+00 0.0000E+00 0.9000E+01
       21 -1    0    0  501  502 0.00000000E+00 0.00000000E+00 -.37283704E+03 0.37283780E+03 0.75000000E+00 0.0000E+00 0.9000E+01
       25  1    1    2    0    0 0.16000061E+03 0.13933479E+03 0.37716390E+03 0.45043533E+03 0.12500000E+03 0.0000E+00 0.9000E+01
      -24  1    1    2    0    0 -.93185616E+02 0.47698789E+02 0.77002569E+02 0.15282456E+03 0.80419002E+02 0.0000E+00 0.9000E+01
        2  1    1    2  501    0 -.66814999E+02 -.18703358E+03 -.26523081E+03 0.33135070E+03 0.32000000E+00 0.0000E+00 0.9000E+01
#aMCatNLO 1  0  0  2  1 0.26724241D+02 0.00000000D+00  -5  6  0 0.00000000D+00 0.00000000D+00 0.00000000D+00 0.00000000D+00 0.00000000D+00
  <mgrwgt>
 0.3263277354D-01    3    2    0
 0.457657151971927D+03 0.000000000000000D+00 0.000000000000000D+00 0.457657151971927D+03
 0.457657151971927D+03 0.000000000000000D+00 0.000000000000000D+00 -.457657151971927D+03
 0.382078555294370D+03 0.160000623976186D+03 0.139334812169057D+03 0.292138037340018D+03
 0.140151774782585D+03 -.931856122878582D+02 0.476987984668874D+02 0.470804663070600D+02
 0.393083973866898D+03 -.668150116883275D+02 -.187033610635945D+03 -.339218503647078D+03
 0.000000000000000D+00 -.000000000000000D+00 0.000000000000000D+00 0.000000000000000D+00
 0.191718135862156D+04 0.000000000000000D+00 0.000000000000000D+00 0.191718135862156D+04
 0.541735192668137D+03 0.000000000000000D+00 0.000000000000000D+00 -.541735192668137D+03
 0.357963502553869D+03 0.162270196784903D+03 -.289243761409697D+02 0.292138037340018D+03
 0.131959420638855D+03 -.923510973254630D+02 -.141695891282835D+02 0.470804663070600D+02
 0.525202767664142D+03 -.639987952353809D+02 -.395819287243474D+03 -.339218503647078D+03
 0.144379086043283D+04 -.592030422405946D+01 0.438913252512727D+03 0.137544616595342D+04
0.180110623488D-03 0.000000000000D+00 0.000000000000D+00 0.266892127410D-06 0.000000000000D+00  6 1 21 25 -24 2 21 2 0.86426634D-01 0.57359610D-01 0.83194103D+05 0.83194103D+05 0.83194103D+05 0.11709843D+01  1  2  2  2  6  2       21 0.288952539388D-01 0.100000000000D+01
-.232137410480D-05 0.950469872831D-05 -.363591456651D-06 0.266892127410D-06 0.000000000000D+00  6 1 21 25 -24 2 21 4 0.86426634D-01 0.57359610D-01 0.83194103D+05 0.83194103D+05 0.83194103D+05 0.11709843D+01  1  2  3  2  6  2       21 -.510663086316D-03 0.100000000000D+01
0.193114042117D-04 0.000000000000D+00 0.000000000000D+00 0.266892127410D-06 0.000000000000D+00  6 1 21 25 -24 2 21 4 0.86426634D-01 0.57359610D-01 0.83194103D+05 0.83194103D+05 0.83194103D+05 0.11709843D+01  1  2 15  2  6  2       21 0.424818268431D-02 0.100000000000D+01
  </mgrwgt>
  </event>
  <event>
  5     66 0.59588745E-03 0.25250295E+02 0.75467711E-02 0.12120668E+00
        1 -1    0    0  502    0 0.00000000E+00 0.00000000E+00 0.13607803E+03 0.13607841E+03 0.32000000E+00 0.0000E+00 0.9000E+01
       21 -1    0    0  501  502 0.00000000E+00 0.00000000E+00 -.14810152E+03 0.14810342E+03 0.75000000E+00 0.0000E+00 0.9000E+01
       25  1    1    2    0    0 0.56689667E+02 -.55233551E+02 -.43521774E+02 0.15421935E+03 0.12500000E+03 0.0000E+00 0.9000E+01
      -24  1    1    2    0    0 -.31881939E+02 0.50536588E+02 0.30357650E+02 0.10468623E+03 0.80419002E+02 0.0000E+00 0.9000E+01
        2  1    1    2  501    0 -.24807728E+02 0.46969633E+01 0.11406413E+01 0.25276240E+02 0.32000000E+00 0.0000E+00 0.9000E+01
#aMCatNLO 1  0  0  2  1 0.83980209D+01 0.00000000D+00  -5  6  0 0.00000000D+00 0.00000000D+00 0.00000000D+00 0.00000000D+00 0.00000000D+00
  <mgrwgt>
 0.4755552945D-01   32    2    0
 0.141963679872454D+03 0.000000000000000D+00 0.000000000000000D+00 0.141963679872454D+03
 0.141963679872454D+03 0.000000000000000D+00 0.000000000000000D+00 -.141963679872454D+03
 0.152515040269599D+03 0.566907288428285D+02 -.552337519132221D+02 -.370301420642025D+02
 0.106065303632190D+03 -.318811999289943D+02 0.505364476569632D+02 0.348179440737193D+02
 0.253470158431193D+02 -.248095289138342D+02 0.469730425625881D+01 0.221219799048322D+01
 0.000000000000000D+00 0.000000000000000D+00 0.000000000000000D+00 -.000000000000000D+00
 0.145166216329124D+03 0.000000000000000D+00 0.000000000000000D+00 0.145166216329124D+03
 0.147640147101062D+03 0.000000000000000D+00 0.000000000000000D+00 -.147640147101062D+03
 0.153336795210382D+03 0.547482218089728D+02 -.593175652977361D+02 -.370301420642025D+02
 0.105166895309144D+03 -.332227646496259D+02 0.477160203087892D+02 0.348179440737193D+02
 0.255478406609467D+02 -.251327691408907D+02 0.401774287364343D+01 0.221219799048322D+01
 0.875483224971279D+01 0.360731198154377D+01 0.758380211530349D+01 -.247393077193767D+01
0.669982607287D-06 0.000000000000D+00 0.000000000000D+00 0.500615619147D-06 0.000000000000D+00  6 1 21 25 -24 2 21 2 0.20935257D-01 0.22785024D-01 0.18685425D+05 0.18685425D+05 0.18685425D+05 0.12370900D+01  1  2  2  2  6  2       21 0.478193749285D-02 0.100000000000D+01
0.182960663014D-07 0.353559535365D-07 -.135250185357D-08 0.500615619147D-06 0.000000000000D+00  6 1 21 25 -24 2 21 4 0.20935257D-01 0.22785024D-01 0.18685425D+05 0.18685425D+05 0.18685425D+05 0.12370900D+01  1  2  3  2  6  2       21 0.199848409243D-03 0.100000000000D+01
0.747709784026D-07 0.000000000000D+00 0.000000000000D+00 0.500615619147D-06 0.000000000000D+00  6 1 21 25 -24 2 21 4 0.20935257D-01 0.22785024D-01 0.18685425D+05 0.18685425D+05 0.18685425D+05 0.12370900D+01  1  2 15  2  6  2       21 0.816725346594D-03 0.100000000000D+01
0.217373794847D-05 0.000000000000D+00 0.000000000000D+00 0.498239583536D-06 0.000000000000D+00  6 1 21 25 -24 2 21 4 0.20935257D-01 0.23944991D-01 0.19864682D+05 0.19864682D+05 0.19864682D+05 0.12341508D+01  1  2 12  2  6  2       21 0.214323051372D-01 0.100000000000D+01
-.597816084192D-06 0.000000000000D+00 0.000000000000D+00 0.500615619147D-06 0.000000000000D+00  6 1 21 25 -24 2 21 4 0.20935257D-01 0.22785024D-01 0.18685425D+05 0.18685425D+05 0.18685425D+05 0.12370900D+01  1  2  4  2  6  2       21 -.652996067447D-02 0.100000000000D+01
-.238562291948D-04 0.000000000000D+00 -.382725684240D-05 0.500615619147D-06 0.000000000000D+00  6 1 21 25 -24 2 21 4 0.20935257D-01 0.24197036D-01 0.18685425D+05 0.18685425D+05 0.18685425D+05 0.12370900D+01  1  2  5  2  6  2       21 -.232721496510D+00 0.100000000000D+01
0.239099257842D-04 0.000000000000D+00 0.379972519445D-05 0.500615619147D-06 0.000000000000D+00  6 1 21 25 -24 2 21 4 0.20935257D-01 0.22785024D-01 0.18685425D+05 0.18685425D+05 0.18685425D+05 0.12370900D+01  1  2  6  2  6  2       21 0.261168742744D+00 0.100000000000D+01
0.136274158310D-08 0.000000000000D+00 0.000000000000D+00 0.500615619147D-06 0.921553332298D-07  6 1 21 25 -24 2 21 4 0.21407532D-01 0.23696091D-01 0.19864682D+05 0.19864682D+05 0.19864682D+05 0.12341508D+01  1  2 11  2  6  2       21 0.133211774847D-04 0.100000000000D+01
0.375614824746D-07 0.000000000000D+00 0.000000000000D+00 0.498239583536D-06 0.000000000000D+00  6 1 -1 25 -24 2 -1 4 0.20935257D-01 0.23944991D-01 0.19864682D+05 0.19864682D+05 0.19864682D+05 0.12341508D+01  1  2 12  5  6  2       21 0.302752402120D-04 0.100000000000D+01
-.299654849601D-06 0.000000000000D+00 -.557593654819D-07 0.500615619147D-06 0.000000000000D+00  6 1 -1 25 -24 2 -1 4 0.20935257D-01 0.24197036D-01 0.18685425D+05 0.18685425D+05 0.18685425D+05 0.12370900D+01  1  2  5  5  6  2       21 -.239316989104D-03 0.100000000000D+01
0.925497478939D-10 0.000000000000D+00 0.000000000000D+00 0.500615619147D-06 0.860356991599D-09  6 1 -1 25 -24 2 -1 4 0.21407532D-01 0.23696091D-01 0.19864682D+05 0.19864682D+05 0.19864682D+05 0.12341508D+01  1  2 11  5  6  2       21 0.737660210982D-07 0.100000000000D+01
0.375614824746D-07 0.000000000000D+00 0.000000000000D+00 0.498239583536D-06 0.000000000000D+00  6 1 1 25 -24 2 1 4 0.20935257D-01 0.23944991D-01 0.19864682D+05 0.19864682D+05 0.19864682D+05 0.12341508D+01  1  2 12  6  6  2       21 0.485482055941D-04 0.100000000000D+01
-.299654849601D-06 0.000000000000D+00 -.557593654819D-07 0.500615619147D-06 0.000000000000D+00  6 1 1 25 -24 2 1 4 0.20935257D-01 0.24197036D-01 0.18685425D+05 0.18685425D+05 0.18685425D+05 0.12370900D+01  1  2  5  6  6  2       21 -.385291164637D-03 0.100000000000D+01
0.955978274783D-10 0.000000000000D+00 0.000000000000D+00 0.500615619147D-06 0.127001712054D-08  6 1 1 25 -24 2 1 4 0.21407532D-01 0.23696091D-01 0.19864682D+05 0.19864682D+05 0.19864682D+05 0.12341508D+01  1  2 11  6  6  2       21 0.121705264432D-06 0.100000000000D+01
0.375614824746D-07 0.000000000000D+00 0.000000000000D+00 0.498239583536D-06 0.000000000000D+00  6 1 -2 25 -24 2 -2 4 0.20935257D-01 0.23944991D-01 0.19864682D+05 0.19864682D+05 0.19864682D+05 0.12341508D+01  1  2 12  7  6  2       21 0.272265121517D-04 0.100000000000D+01
-.299654849601D-06 0.000000000000D+00 -.557593654819D-07 0.500615619147D-06 0.000000000000D+00  6 1 -2 25 -24 2 -2 4 0.20935257D-01 0.24197036D-01 0.18685425D+05 0.18685425D+05 0.18685425D+05 0.12370900D+01  1  2  5  7  6  2       21 -.214974526105D-03 0.100000000000D+01
0.828493694927D-09 0.000000000000D+00 0.000000000000D+00 0.500615619147D-06 0.518932273265D-07  6 1 -2 25 -24 2 -2 4 0.21407532D-01 0.23696091D-01 0.19864682D+05 0.19864682D+05 0.19864682D+05 0.12341508D+01  1  2 11  7  6  2       21 0.594466075671D-06 0.100000000000D+01
0.375614824746D-07 0.000000000000D+00 0.000000000000D+00 0.498239583536D-06 0.000000000000D+00  6 1 2 25 -24 2 2 4 0.20935257D-01 0.23944991D-01 0.19864682D+05 0.19864682D+05 0.19864682D+05 0.12341508D+01  1  2 12  8  6  2       21 0.615617392879D-04 0.100000000000D+01
-.299654849601D-06 0.000000000000D+00 -.557593654819D-07 0.500615619147D-06 0.000000000000D+00  6 1 2 25 -24 2 2 4 0.20935257D-01 0.24197036D-01 0.18685425D+05 0.18685425D+05 0.18685425D+05 0.12370900D+01  1  2  5  8  6  2       21 -.489290005248D-03 0.100000000000D+01
0.887265059477D-10 0.000000000000D+00 0.000000000000D+00 0.500615619147D-06 0.456792101041D-09  6 1 2 25 -24 2 2 4 0.21407532D-01 0.23696091D-01 0.19864682D+05 0.19864682D+05 0.19864682D+05 0.12341508D+01  1  2 11  8  6  2       21 0.143012070885D-06 0.100000000000D+01
0.375614824746D-07 0.000000000000D+00 0.000000000000D+00 0.498239583536D-06 0.000000000000D+00  6 1 -3 25 -24 2 -3 4 0.20935257D-01 0.23944991D-01 0.19864682D+05 0.19864682D+05 0.19864682D+05 0.12341508D+01  1  2 12  9  6  2       21 0.175544274898D-04 0.100000000000D+01
0.375614824746D-07 0.000000000000D+00 0.000000000000D+00 0.498239583536D-06 0.000000000000D+00  6 1 -4 25 -24 2 -4 4 0.20935257D-01 0.23944991D-01 0.19864682D+05 0.19864682D+05 0.19864682D+05 0.12341508D+01  1  2 12  9  6  2       21 0.148587328287D-04 0.100000000000D+01
-.299654849601D-06 0.000000000000D+00 -.557593654819D-07 0.500615619147D-06 0.000000000000D+00  6 1 -3 25 -24 2 -3 4 0.20935257D-01 0.24197036D-01 0.18685425D+05 0.18685425D+05 0.18685425D+05 0.12370900D+01  1  2  5  9  6  2       21 -.138323491896D-03 0.100000000000D+01
-.299654849601D-06 0.000000000000D+00 -.557593654819D-07 0.500615619147D-06 0.000000000000D+00  6 1 -4 25 -24 2 -4 4 0.20935257D-01 0.24197036D-01 0.18685425D+05 0.18685425D+05 0.18685425D+05 0.12370900D+01  1  2  5  9  6  2       21 -.116954762388D-03 0.100000000000D+01
0.923476936129D-10 0.000000000000D+00 0.000000000000D+00 0.500615619147D-06 0.858478663270D-09  6 1 -3 25 -24 2 -3 4 0.21407532D-01 0.23696091D-01 0.19864682D+05 0.19864682D+05 0.19864682D+05 0.12341508D+01  1  2 11  9  6  2       21 0.427505458568D-07 0.100000000000D+01
0.923476936129D-10 0.000000000000D+00 0.000000000000D+00 0.500615619147D-06 0.858478663270D-09  6 1 -4 25 -24 2 -4 4 0.21407532D-01 0.23696091D-01 0.19864682D+05 0.19864682D+05 0.19864682D+05 0.12341508D+01  1  2 11  9  6  2       21 0.362005343633D-07 0.100000000000D+01
0.375614824746D-07 0.000000000000D+00 0.000000000000D+00 0.498239583536D-06 0.000000000000D+00  6 1 3 25 -24 2 3 4 0.20935257D-01 0.23944991D-01 0.19864682D+05 0.19864682D+05 0.19864682D+05 0.12341508D+01  1  2 12 10  6  2       21 0.175534286599D-04 0.100000000000D+01
0.375614824746D-07 0.000000000000D+00 0.000000000000D+00 0.498239583536D-06 0.000000000000D+00  6 1 4 25 -24 2 4 4 0.20935257D-01 0.23944991D-01 0.19864682D+05 0.19864682D+05 0.19864682D+05 0.12341508D+01  1  2 12 10  6  2       21 0.148587328287D-04 0.100000000000D+01
-.299654849601D-06 0.000000000000D+00 -.557593654819D-07 0.500615619147D-06 0.000000000000D+00  6 1 3 25 -24 2 3 4 0.20935257D-01 0.24197036D-01 0.18685425D+05 0.18685425D+05 0.18685425D+05 0.12370900D+01  1  2  5 10  6  2       21 -.138315840081D-03 0.100000000000D+01
-.299654849601D-06 0.000000000000D+00 -.557593654819D-07 0.500615619147D-06 0.000000000000D+00  6 1 4 25 -24 2 4 4 0.20935257D-01 0.24197036D-01 0.18685425D+05 0.18685425D+05 0.18685425D+05 0.12370900D+01  1  2  5 10  6  2       21 -.116954762388D-03 0.100000000000D+01
0.923476936129D-10 0.000000000000D+00 0.000000000000D+00 0.500615619147D-06 0.858478663270D-09  6 1 3 25 -24 2 3 4 0.21407532D-01 0.23696091D-01 0.19864682D+05 0.19864682D+05 0.19864682D+05 0.12341508D+01  1  2 11 10  6  2       21 0.427480007293D-07 0.100000000000D+01
0.923476936129D-10 0.000000000000D+00 0.000000000000D+00 0.500615619147D-06 0.858478663270D-09  6 1 4 25 -24 2 4 4 0.21407532D-01 0.23696091D-01 0.19864682D+05 0.19864682D+05 0.19864682D+05 0.12341508D+01  1  2 11 10  6  2       21 0.362005343633D-07 0.100000000000D+01
  </mgrwgt>
  </event>
  <event>
  5     66 0.59588745E-03 0.24970652E+02 0.75467711E-02 0.10043271E+00
        1 -1    0    0  502    0 0.00000000E+00 0.00000000E+00 0.58561872E+03 0.58561881E+03 0.32000000E+00 0.0000E+00 0.9000E+01
       21 -1    0    0  501  502 0.00000000E+00 0.00000000E+00 -.27620771E+03 0.27620873E+03 0.75000000E+00 0.0000E+00 0.9000E+01
       25  1    1    2    0    0 0.59346905E+02 0.93616204E+02 0.32860348E+03 0.36863437E+03 0.12500000E+03 0.0000E+00 0.9000E+01
      -24  1    1    2    0    0 -.61001316E+02 -.11853198E+03 0.21068325E+03 0.26196496E+03 0.80419002E+02 0.0000E+00 0.9000E+01
        2  1    1    2  501    0 0.16544112E+01 0.24915779E+02 -.22987572E+03 0.23122821E+03 0.32000000E+00 0.0000E+00 0.9000E+01
#aMCatNLO 1  0  0  2  2 0.11902100D+03 0.00000000D+00  -5  6  0 0.00000000D+00 0.00000000D+00 0.00000000D+00 0.00000000D+00 0.00000000D+00
  <mgrwgt>
 0.1611786981D+01    3    2    0
 0.402185132962030D+03 0.000000000000000D+00 0.000000000000000D+00 0.402185132962030D+03
 0.402185132962030D+03 0.000000000000000D+00 0.000000000000000D+00 -.402185132962030D+03
 0.268565053707120D+03 0.593469045671340D+02 0.936162004853577D+02 0.210276341982861D+03
 0.199635571199907D+03 -.610013162134609D+02 -.118531985835516D+03 0.124964607341667D+03
 0.336169641017034D+03 0.165441164632690D+01 0.249157853501587D+02 -.335240949324528D+03
 0.000000000000000D+00 -.000000000000000D+00 -.000000000000000D+00 0.000000000000000D+00
 0.110616428667610D+04 0.000000000000000D+00 0.000000000000000D+00 0.110616428667610D+04
 0.545412109873131D+03 0.000000000000000D+00 0.000000000000000D+00 -.545412109873131D+03
 0.370302479997770D+03 0.185686841778073D+03 0.206889302491189D+03 0.210276341982861D+03
 0.158759196655102D+03 0.987342710765913D+01 -.549875341990850D+02 0.124964607341667D+03
 0.397408670388322D+03 0.146723980708309D+03 0.154981388175842D+03 -.335240949324528D+03
 0.725106049508039D+03 -.342284249594041D+03 -.306883156467946D+03 0.560752176802970D+03
0.281831623360D-02 0.000000000000D+00 0.000000000000D+00 0.200979690912D-04 0.000000000000D+00  6 1 21 25 -24 2 21 2 0.90095273D-01 0.42493579D-01 0.30227804D+05 0.30227804D+05 0.30227804D+05 0.12145537D+01  1  2  2  2  6  2       21 0.901508543971D+00 0.100000000000D+01
0.119149734616D-02 0.148726633681D-03 -.568936848274D-05 0.200979690912D-04 0.000000000000D+00  6 1 21 25 -24 2 21 4 0.90095273D-01 0.42493579D-01 0.30227804D+05 0.30227804D+05 0.30227804D+05 0.12145537D+01  1  2  3  2  6  2       21 0.562220499620D+00 0.100000000000D+01
0.313774825804D-03 0.000000000000D+00 0.000000000000D+00 0.200979690912D-04 0.000000000000D+00  6 1 21 25 -24 2 21 4 0.90095273D-01 0.42493579D-01 0.30227804D+05 0.30227804D+05 0.30227804D+05 0.12145537D+01  1  2 15  2  6  2       21 0.148057937267D+00 0.100000000000D+01
  </mgrwgt>
  </event>
  <event>
  5     66 -.59588745E-03 0.12505611E+03 0.75467711E-02 0.10940222E+00
        1 -1    0    0  502    0 0.00000000E+00 0.00000000E+00 0.30613554E+04 0.30613554E+04 0.32000000E+00 0.0000E+00 0.9000E+01
       21 -1    0    0  501  502 0.00000000E+00 0.00000000E+00 -.11407889E+02 0.11432517E+02 0.75000000E+00 0.0000E+00 0.9000E+01
       25  1    1    2    0    0 -.86124600E+02 0.17706770E+02 0.14832622E+04 0.14911146E+04 0.12500000E+03 0.0000E+00 0.9000E+01
      -24  1    1    2    0    0 -.38830425E+02 -.22727390E+02 0.67566503E+03 0.68191993E+03 0.80419002E+02 0.0000E+00 0.9000E+01
        2  1    1    2  501    0 0.12495503E+03 0.50206198E+01 0.89102033E+03 0.89975346E+03 0.32000000E+00 0.0000E+00 0.9000E+01
#aMCatNLO 1  0  0  2  5 0.22712957D+03 0.00000000D+00  -5  6  0 0.00000000D+00 0.00000000D+00 0.00000000D+00 0.00000000D+00 0.00000000D+00
  <mgrwgt>
 -.5524384772D+00   12    2    0
 0.186979857604835D+03 0.000000000000000D+00 0.000000000000000D+00 0.186979857604835D+03
 0.186979857604835D+03 0.000000000000000D+00 0.000000000000000D+00 -.186979857604835D+03
 0.155115936264618D+03 -.861247671294110D+02 0.177067634640052D+02 0.265508700005036D+02
 0.926636129787335D+02 -.388305247129285D+02 -.227273939219704D+02 -.974603159938536D+01
 0.126180165966317D+03 0.124955291842339D+03 0.502063045796519D+01 -.168048384011182D+02
 0.000000000000000D+00 0.000000000000000D+00 0.000000000000000D+00 -.000000000000000D+00
 0.206389003456112D+03 0.000000000000000D+00 0.000000000000000D+00 0.206389003456112D+03
 0.275290829806456D+04 0.000000000000000D+00 0.000000000000000D+00 -.275290829806456D+04
 0.164246797566131D+03 -.911410952820095D+02 -.483772938860945D+02 0.265508700005036D+02
 0.112107563885297D+03 -.420469282269594D+02 -.650996207413386D+02 -.974603159938536D+01
 0.131263668060919D+03 0.120911542789802D+03 -.482508733528135D+02 -.168048384011182D+02
 0.255167927200832D+04 0.122764807191664D+02 0.161727787980247D+03 -.254651929460844D+04
0.592162907176D-05 0.000000000000D+00 0.000000000000D+00 0.283935826825D-06 0.000000000000D+00  6 1 21 25 -24 2 21 2 0.47097965D+00 0.17569556D-02 0.34231011D+05 0.34231011D+05 0.34231011D+05 0.12089303D+01  1  2  2  2  6  2       21 0.100508348974D-01 0.100000000000D+01
-.507392240735D-06 0.312492951376D-06 -.119540629989D-07 0.283935826825D-06 0.000000000000D+00  6 1 21 25 -24 2 21 4 0.47097965D+00 0.17569556D-02 0.34231011D+05 0.34231011D+05 0.34231011D+05 0.12089303D+01  1  2  3  2  6  2       21 -.125865671776D-02 0.100000000000D+01
0.607569244897D-06 0.000000000000D+00 0.000000000000D+00 0.283935826825D-06 0.000000000000D+00  6 1 21 25 -24 2 21 4 0.47097965D+00 0.17569556D-02 0.34231011D+05 0.34231011D+05 0.34231011D+05 0.12089303D+01  1  2 15  2  6  2       21 0.150715964929D-02 0.100000000000D+01
-.238009780420D-01 0.000000000000D+00 -.534677199129D-03 0.283935826825D-06 0.000000000000D+00  6 1 21 25 -24 2 21 4 0.47097965D+00 0.29497172D-01 0.34231011D+05 0.34231011D+05 0.34231011D+05 0.12089303D+01  1  2  5  2  6  2       21 -.430013778623D+00 0.100000000000D+01
-.105321091986D-01 0.000000000000D+00 -.236296323245D-03 0.283935826825D-06 0.000000000000D+00  6 1 -1 25 -24 2 -1 4 0.47097965D+00 0.29497172D-01 0.34231011D+05 0.34231011D+05 0.34231011D+05 0.12089303D+01  1  2  5  5  6  2       21 -.165809190606D-01 0.100000000000D+01
-.105321091986D-01 0.000000000000D+00 -.236296323245D-03 0.283935826825D-06 0.000000000000D+00  6 1 1 25 -24 2 1 4 0.47097965D+00 0.29497172D-01 0.34231011D+05 0.34231011D+05 0.34231011D+05 0.12089303D+01  1  2  5  6  6  2       21 -.289274677152D-01 0.100000000000D+01
-.105321091986D-01 0.000000000000D+00 -.236296323245D-03 0.283935826825D-06 0.000000000000D+00  6 1 -2 25 -24 2 -2 4 0.47097965D+00 0.29497172D-01 0.34231011D+05 0.34231011D+05 0.34231011D+05 0.12089303D+01  1  2  5  7  6  2       21 -.145905115931D-01 0.100000000000D+01
-.105321091986D-01 0.000000000000D+00 -.236296323245D-03 0.283935826825D-06 0.000000000000D+00  6 1 2 25 -24 2 2 4 0.47097965D+00 0.29497172D-01 0.34231011D+05 0.34231011D+05 0.34231011D+05 0.12089303D+01  1  2  5  8  6  2       21 -.379307028539D-01 0.100000000000D+01
-.105321091986D-01 0.000000000000D+00 -.236296323245D-03 0.283935826825D-06 0.000000000000D+00  6 1 -3 25 -24 2 -3 4 0.47097965D+00 0.29497172D-01 0.34231011D+05 0.34231011D+05 0.34231011D+05 0.12089303D+01  1  2  5  9  6  2       21 -.940580633426D-02 0.100000000000D+01
-.105321091986D-01 0.000000000000D+00 -.236296323245D-03 0.283935826825D-06 0.000000000000D+00  6 1 -4 25 -24 2 -4 4 0.47097965D+00 0.29497172D-01 0.34231011D+05 0.34231011D+05 0.34231011D+05 0.12089303D+01  1  2  5  9  6  2       21 -.794130363822D-02 0.100000000000D+01
-.105321091986D-01 0.000000000000D+00 -.236296323245D-03 0.283935826825D-06 0.000000000000D+00  6 1 3 25 -24 2 3 4 0.47097965D+00 0.29497172D-01 0.34231011D+05 0.34231011D+05 0.34231011D+05 0.12089303D+01  1  2  5 10  6  2       21 -.940602158519D-02 0.100000000000D+01
-.105321091986D-01 0.000000000000D+00 -.236296323245D-03 0.283935826825D-06 0.000000000000D+00  6 1 4 25 -24 2 4 4 0.47097965D+00 0.29497172D-01 0.34231011D+05 0.34231011D+05 0.34231011D+05 0.12089303D+01  1  2  5 10  6  2       21 -.794130363822D-02 0.100000000000D+01
  </mgrwgt>
  </event>
  <event>
  5     66 0.59588745E-03 0.29821577E+02 0.75467711E-02 0.11938575E+00
        1 -1    0    0  502    0 0.00000000E+00 0.00000000E+00 0.11552307E+04 0.11552307E+04 0.32000000E+00 0.0000E+00 0.9000E+01
       21 -1    0    0  501  502 0.00000000E+00 0.00000000E+00 -.17369808E+02 0.17385992E+02 0.75000000E+00 0.0000E+00 0.9000E+01
       25  1    1    2    0    0 -.46802859E+02 -.55288306E+02 0.44325287E+03 0.46620319E+03 0.12500000E+03 0.0000E+00 0.9000E+01
      -24  1    1    2    0    0 0.43838776E+02 0.25615329E+02 0.44629772E+03 0.45631881E+03 0.80419002E+02 0.0000E+00 0.9000E+01
        2  1    1    2  501    0 0.29640826E+01 0.29672977E+02 0.24831026E+03 0.25009470E+03 0.32000000E+00 0.0000E+00 0.9000E+01
#aMCatNLO 1  0  0  1  2 0.39600287D+02 0.00000000D+00  -5  6  0 0.00000000D+00 0.00000000D+00 0.00000000D+00 0.00000000D+00 0.00000000D+00
  <mgrwgt>
 0.6585697774D-01    7    2    0
 0.141688564727266D+03 0.000000000000000D+00 0.000000000000000D+00 0.141688564727266D+03
 0.141688564727266D+03 0.000000000000000D+00 0.000000000000000D+00 -.141688564727266D+03
 0.149333318339597D+03 -.468029148871599D+02 -.552888648558278D+02 -.377897942219164D+02
 0.962050284272162D+02 0.438387404761327D+02 0.256149684544008D+02 0.144993022196680D+02
 0.378387826877188D+02 0.296417441102719D+01 0.296738964014270D+02 0.232904920022484D+02
 0.000000000000000D+00 -.000000000000000D+00 0.000000000000000D+00 0.000000000000000D+00
 0.241366585783084D+03 0.000000000000000D+00 0.000000000000000D+00 0.241366585783084D+03
 0.147053559552185D+03 0.000000000000000D+00 0.000000000000000D+00 -.147053559552185D+03
 0.153884665500519D+03 -.356558934696600D+02 -.731852375124394D+02 -.377897942219164D+02
 0.973403905751500D+02 0.509539349759945D+02 0.141916323429359D+02 0.144993022196680D+02
 0.349056487201269D+02 0.563843444216927D+01 0.253804127607780D+02 0.232904920022484D+02
 0.102289440539473D+03 -.209364759485037D+02 0.336131924087255D+02 0.943130262308988D+02
0.828194329985D-06 0.000000000000D+00 0.000000000000D+00 0.305980312779D-06 0.000000000000D+00  6 1 21 25 -24 2 21 2 0.17772904D+00 0.26735265D-02 0.18144151D+05 0.18144151D+05 0.18144151D+05 0.12385095D+01  1  2  2  1  6  1        1 0.134956784150D-01 0.100000000000D+01
-.400434253827D-07 0.437050155208D-07 -.167188573888D-08 0.305980312779D-06 0.000000000000D+00  6 1 21 25 -24 2 21 4 0.17772904D+00 0.26735265D-02 0.18144151D+05 0.18144151D+05 0.18144151D+05 0.12385095D+01  1  2  3  1  6  1        1 -.100090391762D-02 0.100000000000D+01
0.814017494657D-07 0.000000000000D+00 0.000000000000D+00 0.305980312779D-06 0.000000000000D+00  6 1 21 25 -24 2 21 4 0.17772904D+00 0.26735265D-02 0.18144151D+05 0.18144151D+05 0.18144151D+05 0.12385095D+01  1  2 15  1  6  1        1 0.203467433573D-02 0.100000000000D+01
-.115688325871D-05 0.000000000000D+00 0.000000000000D+00 0.305980312779D-06 0.000000000000D+00  6 1 21 25 -24 2 21 4 0.17772904D+00 0.26735265D-02 0.18144151D+05 0.18144151D+05 0.18144151D+05 0.12385095D+01  1  2  4  1  6  1        1 -.289168315347D-01 0.100000000000D+01
-.502098179146D-05 0.000000000000D+00 -.606649190275D-06 0.305980312779D-06 0.000000000000D+00  6 1 21 25 -24 2 21 4 0.30612485D+00 0.26735265D-02 0.18144151D+05 0.18144151D+05 0.18144151D+05 0.12385095D+01  1  2  5  1  6  1        1 -.359867367988D-01 0.100000000000D+01
0.471615207948D-05 0.000000000000D+00 0.526833525706D-06 0.305980312779D-06 0.000000000000D+00  6 1 21 25 -24 2 21 4 0.17772904D+00 0.26735265D-02 0.18144151D+05 0.18144151D+05 0.18144151D+05 0.12385095D+01  1  2  6  1  6  1        1 0.117882400102D+00 0.100000000000D+01
-.273048407060D-06 0.000000000000D+00 -.366076670730D-07 0.305980312779D-06 0.000000000000D+00  6 21 21 25 -24 2 -1 4 0.30612485D+00 0.26735265D-02 0.18144151D+05 0.18144151D+05 0.18144151D+05 0.12385095D+01  1  2  5  4  6  1        1 -.165130286475D-02 0.100000000000D+01
  </mgrwgt>
  </event>
  <event>
  5     66 0.59588745E-03 0.31745153E+03 0.75467711E-02 0.96102826E-01
        1 -1    0    0  502    0 0.00000000E+00 0.00000000E+00 0.14585117E+04 0.14585117E+04 0.32000000E+00 0.0000E+00 0.9000E+01
       21 -1    0    0  501  502 0.00000000E+00 0.00000000E+00 -.26847468E+03 0.26847572E+03 0.75000000E+00 0.0000E+00 0.9000E+01
       25  1    1    2    0    0 -.46400799E+02 0.31059637E+03 -.24370675E+02 0.33888357E+03 0.12500000E+03 0.0000E+00 0.9000E+01
      -24  1    1    2    0    0 -.11996080E+03 -.40227603E+02 0.18829175E+02 0.15109801E+03 0.80419002E+02 0.0000E+00 0.9000E+01
        2  1    1    2  501    0 0.16636160E+03 -.27036877E+03 0.11955785E+04 0.12370059E+04 0.32000000E+00 0.0000E+00 0.9000E+01
#aMCatNLO 1  0  0  2  5 0.45445956D+03 0.00000000D+00  -5  6  0 0.00000000D+00 0.00000000D+00 0.00000000D+00 0.00000000D+00 0.00000000D+00
  <mgrwgt>
 0.3070930832D-01   12    2    0
 0.625759045016629D+03 0.000000000000000D+00 0.000000000000000D+00 0.625759045016629D+03
 0.625759045016629D+03 0.000000000000000D+00 0.000000000000000D+00 -.625759045016629D+03
 0.490803694705424D+03 -.464008094867858D+02 0.310596390243120D+03 -.355865303146303D+03
 0.190598085415055D+03 -.119960804554235D+03 -.402275967368402D+02 -.117692650751833D+03
 0.570116309912779D+03 0.166361614041021D+03 -.270368793506279D+03 0.473557953898136D+03
 0.000000000000000D+00 -.000000000000000D+00 0.000000000000000D+00 -.000000000000000D+00
 0.934569066498674D+03 0.000000000000000D+00 0.000000000000000D+00 0.934569066498674D+03
 0.102559327455753D+04 0.000000000000000D+00 0.000000000000000D+00 -.102559327455753D+04
 0.396473848683951D+03 0.732103386431568D+00 0.122171448102599D+03 -.355865303146303D+03
 0.214343721429563D+03 -.984499627179564D+02 -.126222263336320D+03 -.117692650751833D+03
 0.766682755602581D+03 0.237373479892204D+03 -.554255485387419D+03 0.473557953898136D+03
 0.582662015340106D+03 -.139655620560679D+03 0.558306300621141D+03 -.910242080588525D+02
0.439909304719D-03 0.000000000000D+00 0.000000000000D+00 0.347640771806D-07 0.000000000000D+00  6 1 21 25 -24 2 21 2 0.22438649D+00 0.41303880D-01 0.16215838D+06 0.16215838D+06 0.16215838D+06 0.11447651D+01  1  2  2  2  6  2       21 0.254340093484D-01 0.100000000000D+01
-.525979169765D-04 0.232146517966D-04 -.888050142738D-06 0.347640771806D-07 0.000000000000D+00  6 1 21 25 -24 2 21 4 0.22438649D+00 0.41303880D-01 0.16215838D+06 0.16215838D+06 0.16215838D+06 0.11447651D+01  1  2  3  2  6  2       21 -.398522629922D-02 0.100000000000D+01
0.488362562421D-04 0.000000000000D+00 0.000000000000D+00 0.347640771806D-07 0.000000000000D+00  6 1 21 25 -24 2 21 4 0.22438649D+00 0.41303880D-01 0.16215838D+06 0.16215838D+06 0.16215838D+06 0.11447651D+01  1  2 15  2  6  2       21 0.370021369512D-02 0.100000000000D+01
0.312651627567D-03 0.000000000000D+00 -.831630808532D-03 0.347640771806D-07 0.000000000000D+00  6 1 21 25 -24 2 21 4 0.22438649D+00 0.10106249D+00 0.16215838D+06 0.16215838D+06 0.16215838D+06 0.11447651D+01  1  2  5  2  6  2       21 0.323853350089D-02 0.100000000000D+01
0.137390696031D-03 0.000000000000D+00 -.256461817326D-03 0.347640771806D-07 0.000000000000D+00  6 1 -1 25 -24 2 -1 4 0.22438649D+00 0.10106249D+00 0.16215838D+06 0.16215838D+06 0.16215838D+06 0.11447651D+01  1  2  5  5  6  2       21 0.172011767069D-03 0.100000000000D+01
0.137390696031D-03 0.000000000000D+00 -.256461817326D-03 0.347640771806D-07 0.000000000000D+00  6 1 1 25 -24 2 1 4 0.22438649D+00 0.10106249D+00 0.16215838D+06 0.16215838D+06 0.16215838D+06 0.11447651D+01  1  2  5  6  6  2       21 0.642832889063D-03 0.100000000000D+01
0.137390696031D-03 0.000000000000D+00 -.256461817326D-03 0.347640771806D-07 0.000000000000D+00  6 1 -2 25 -24 2 -2 4 0.22438649D+00 0.10106249D+00 0.16215838D+06 0.16215838D+06 0.16215838D+06 0.11447651D+01  1  2  5  7  6  2       21 0.128971372905D-03 0.100000000000D+01
0.137390696031D-03 0.000000000000D+00 -.256461817326D-03 0.347640771806D-07 0.000000000000D+00  6 1 2 25 -24 2 2 4 0.22438649D+00 0.10106249D+00 0.16215838D+06 0.16215838D+06 0.16215838D+06 0.11447651D+01  1  2  5  8  6  2       21 0.107388041716D-02 0.100000000000D+01
0.137390696031D-03 0.000000000000D+00 -.256461817326D-03 0.347640771806D-07 0.000000000000D+00  6 1 -3 25 -24 2 -3 4 0.22438649D+00 0.10106249D+00 0.16215838D+06 0.16215838D+06 0.16215838D+06 0.11447651D+01  1  2  5  9  6  2       21 0.838031867330D-04 0.100000000000D+01
0.137390696031D-03 0.000000000000D+00 -.256461817326D-03 0.347640771806D-07 0.000000000000D+00  6 1 -4 25 -24 2 -4 4 0.22438649D+00 0.10106249D+00 0.16215838D+06 0.16215838D+06 0.16215838D+06 0.11447651D+01  1  2  5  9  6  2       21 0.681529244077D-04 0.100000000000D+01
0.137390696031D-03 0.000000000000D+00 -.256461817326D-03 0.347640771806D-07 0.000000000000D+00  6 1 3 25 -24 2 3 4 0.22438649D+00 0.10106249D+00 0.16215838D+06 0.16215838D+06 0.16215838D+06 0.11447651D+01  1  2  5 10  6  2       21 0.839725969840D-04 0.100000000000D+01
0.137390696031D-03 0.000000000000D+00 -.256461817326D-03 0.347640771806D-07 0.000000000000D+00  6 1 4 25 -24 2 4 4 0.22438649D+00 0.10106249D+00 0.16215838D+06 0.16215838D+06 0.16215838D+06 0.11447651D+01  1  2  5 10  6  2       21 0.681529244077D-04 0.100000000000D+01
  </mgrwgt>
  </event>
  <event>
  5     66 -.59588745E-03 0.64175997E+02 0.75467711E-02 0.11475587E+00
        1 -1    0    0  502    0 0.00000000E+00 0.00000000E+00 0.84848665E+02 0.84849269E+02 0.32000000E+00 0.0000E+00 0.9000E+01
       21 -1    0    0  501  502 -.00000000E+00 -.00000000E+00 -.57124538E+03 0.57124587E+03 0.75000000E+00 0.0000E+00 0.9000E+01
       25  1    1    2    0    0 -.13518312E+03 0.82484593E+02 -.23794030E+03 0.31195957E+03 0.12500000E+03 0.0000E+00 0.9000E+01
      -24  1    1    2    0    0 0.71664261E+02 -.91642628E+02 -.24112726E+03 0.27954196E+03 0.80419002E+02 0.0000E+00 0.9000E+01
        2  1    1    2  501    0 0.63518860E+02 0.91580359E+01 -.73291469E+01 0.64593606E+02 0.32000000E+00 0.0000E+00 0.9000E+01
#aMCatNLO 1  0  0  5  2 0.16570734D+02 0.00000000D+00  -5  6  0 0.00000000D+00 0.00000000D+00 0.00000000D+00 0.00000000D+00 0.00000000D+00
  <mgrwgt>
 -.1236796479D-01    7    2    0
 0.220158504799529D+03 0.000000000000000D+00 0.000000000000000D+00 0.220158504799529D+03
 0.220158504799529D+03 -.000000000000000D+00 -.000000000000000D+00 -.220158504799529D+03
 0.201994990459633D+03 -.135183312208379D+03 0.824845648961379D+02 -.993704307397915D+01
 0.150170469430474D+03 0.716641178127235D+02 -.916426490352007D+02 -.504958714206765D+02
 0.881515497089504D+02 0.635191943956552D+02 0.915808413906280D+01 0.604329144946557D+02
 0.000000000000000D+00 0.000000000000000D+00 0.000000000000000D+00 0.000000000000000D+00
 0.220158504799529D+03 0.000000000000000D+00 0.000000000000000D+00 0.220158504799529D+03
 0.220158504799529D+03 -.000000000000000D+00 -.000000000000000D+00 -.220158504799529D+03
 0.199814589839392D+03 -.131800332161361D+03 0.829723169245779D+02 -.671843575592888D+01
 0.150386774769844D+03 0.741946178554538D+02 -.912778060530798D+02 -.480883236838698D+02
 0.209089548713157D+02 -.170070664915390D+01 -.220925510207086D+01 0.207222388413563D+02
 0.692066901185064D+02 0.593064209550616D+02 0.105147442305728D+02 0.340845205984424D+02
0.228816818811D-04 0.000000000000D+00 0.000000000000D+00 0.857768293138D-07 0.000000000000D+00  6 1 21 25 -24 2 21 2 0.13053725D-01 0.87883988D-01 0.41484014D+05 0.41484014D+05 0.41484014D+05 0.12003970D+01  1  2  2  3  6  5        2 0.174625145977D-01 0.100000000000D+01
-.213073012863D-05 0.120749952704D-05 -.461915232131D-07 0.857768293138D-07 0.000000000000D+00  6 1 21 25 -24 2 21 4 0.13053725D-01 0.87883988D-01 0.41484014D+05 0.41484014D+05 0.41484014D+05 0.12003970D+01  1  2  3  3  6  5        2 -.234313370152D-02 0.100000000000D+01
0.267010104372D-05 0.000000000000D+00 0.000000000000D+00 0.857768293138D-07 0.000000000000D+00  6 1 21 25 -24 2 21 4 0.13053725D-01 0.87883988D-01 0.41484014D+05 0.41484014D+05 0.41484014D+05 0.12003970D+01  1  2 15  3  6  5        2 0.293627224675D-02 0.100000000000D+01
0.586109060451D-05 0.000000000000D+00 0.000000000000D+00 0.858430213504D-07 0.000000000000D+00  6 1 21 25 -24 2 21 4 0.13053725D-01 0.87883988D-01 0.41049193D+05 0.41049193D+05 0.41049193D+05 0.12008600D+01  1  2 12  3  6  5        2 0.645721423761D-02 0.100000000000D+01
-.397914324828D-04 0.000000000000D+00 0.000000000000D+00 0.857768293138D-07 0.000000000000D+00  6 1 21 25 -24 2 21 4 0.13053725D-01 0.87883988D-01 0.41484014D+05 0.41484014D+05 0.41484014D+05 0.12003970D+01  1  2  4  3  6  5        2 -.437580739246D-01 0.100000000000D+01
-.502271611345D-05 0.000000000000D+00 0.000000000000D+00 0.857768293138D-07 0.000000000000D+00  6 1 21 25 -24 2 21 4 0.13053725D-01 0.87883988D-01 0.41484014D+05 0.41484014D+05 0.41484014D+05 0.12003970D+01  1  2  5  3  6  5        2 -.552340967091D-02 0.100000000000D+01
0.112765402964D-04 0.000000000000D+00 -.000000000000D+00 0.857768293138D-07 0.000000000000D+00  6 1 21 25 -24 2 21 4 0.13053725D-01 0.87883988D-01 0.41484014D+05 0.41484014D+05 0.41484014D+05 0.12003970D+01  1  2  6  3  6  5        2 0.124006514246D-01 0.100000000000D+01
  </mgrwgt>
  </event>
  <event>
  6     66 0.59588745E-03 0.41725017E+02 0.75467711E-02 0.11339664E+00
        1 -1    0    0  502    0 0.00000000E+00 0.00000000E+00 0.29452557E+03 0.29452574E+03 0.32000000E+00 0.0000E+00 0.9000E+01
       21 -1    0    0  501  502 0.00000000E+00 0.00000000E+00 -.25825973E+03 0.25826082E+03 0.75000000E+00 0.0000E+00 0.9000E+01
       25  1    1    2    0    0 0.97524972E+02 -.22983998E+02 -.11862495E+03 0.19933957E+03 0.12500000E+03 0.0000E+00 0.9000E+01
      -24  1    1    2    0    0 -.10936529E+03 0.87611860E+01 0.15973337E+03 0.20980822E+03 0.80419002E+02 0.0000E+00 0.9000E+01
        2  1    1    2  503    0 0.38298821E+02 -.56356636E+02 -.39544896E+01 0.68254014E+02 0.32000000E+00 0.0000E+00 0.9000E+01
       21  1    1    2  501  503 -.26458502E+02 0.70579448E+02 -.88808646E+00 0.75384759E+02 0.75000000E+00 0.0000E+00 0.9000E+01
#aMCatNLO 2  0  0  5  2 0.67141565D+02 0.00000000D+00  -5  6  0 0.00000000D+00 0.00000000D+00 0.00000000D+00 0.00000000D+00 0.00000000D+00
  <mgrwgt>
 0.1326008522D-01    1    2    0
 0.275797831466243D+03 0.000000000000000D+00 0.000000000000000D+00 0.275797831466243D+03
 0.275797831466243D+03 -.000000000000000D+00 -.000000000000000D+00 -.275797831466243D+03
 0.184941301000158D+03 0.730692607112664D+02 -.523606539010931D+02 -.102457453988424D+03
 0.240757574821867D+03 -.136812073827253D+03 -.242084020984592D+02 0.179425203365252D+03
 0.125896787110460D+03 0.637428131159866D+02 0.765690559995523D+02 -.769677493768285D+02
 0.000000000000000D+00 0.000000000000000D+00 0.000000000000000D+00 0.000000000000000D+00
 0.275797831466243D+03 0.000000000000000D+00 0.000000000000000D+00 0.275797831466243D+03
 0.275797831466243D+03 -.000000000000000D+00 -.000000000000000D+00 -.275797831466243D+03
 0.207492179057172D+03 0.974552196010235D+02 -.230677852535326D+02 -.131902849953694D+03
 0.199851820542229D+03 -.109432446074239D+03 0.868051742338181D+01 0.146365031968513D+03
 0.682121134057927D+02 0.365980823964558D+02 -.571528725457326D+02 -.685725454961425D+01
 0.760395499272916D+02 -.246208559232405D+02 0.715401403758833D+02 -.760492746520412D+01
0.109912964635D-04 0.000000000000D+00 0.000000000000D+00 0.834124662671D-07 0.141686545196D-09  6 1 21 25 -24 2 21 4 0.45311723D-01 0.39732364D-01 0.48350840D+05 0.48350840D+05 0.48350840D+05 0.11937270D+01  1  2  1  3  6  5        2 0.132600852180D-01 0.100000000000D+01
  </mgrwgt>
  </event>
  <event>
  5     66 0.59588745E-03 0.15814882E+03 0.75467711E-02 0.10816204E+00
        1 -1    0    0  502    0 0.00000000E+00 0.00000000E+00 0.22152727E+03 0.22152750E+03 0.32000000E+00 0.0000E+00 0.9000E+01
       21 -1    0    0  501  502 0.00000000E+00 0.00000000E+00 -.42706053E+03 0.42706119E+03 0.75000000E+00 0.0000E+00 0.9000E+01
       25  1    1    2    0    0 0.36221941E+02 0.17651854E+03 0.67483847E+02 0.22945564E+03 0.12500000E+03 0.0000E+00 0.9000E+01
      -24  1    1    2    0    0 -.16168364E+02 0.29879765E+00 0.12224425E+02 0.82934660E+02 0.80419002E+02 0.0000E+00 0.9000E+01
        2  1    1    2  501    0 -.20053578E+02 -.17681733E+03 -.28524154E+03 0.33619838E+03 0.32000000E+00 0.0000E+00 0.9000E+01
#aMCatNLO 1  0  0  2  1 0.13287797D+03 0.00000000D+00  -5  6  0 0.00000000D+00 0.00000000D+00 0.00000000D+00 0.00000000D+00 0.00000000D+00
  <mgrwgt>
 0.2939936924D-01   23    2    0
 0.307580624392411D+03 0.000000000000000D+00 0.000000000000000D+00 0.307580624392411D+03
 0.307580624392411D+03 0.000000000000000D+00 0.000000000000000D+00 -.307580624392411D+03
 0.264471398781816D+03 0.362219480356149D+02 0.176518594763074D+03 0.147815009241231D+03
 0.915256184768528D+02 -.161683614622547D+02 0.298817702260280D+00 0.405982472381085D+02
 0.259164231526152D+03 -.200535865733601D+02 -.176817412465334D+03 -.188413256479340D+03
 0.000000000000000D+00 -.000000000000000D+00 -.000000000000000D+00 -.000000000000000D+00
 0.339613432638151D+03 0.000000000000000D+00 0.000000000000000D+00 0.339613432638151D+03
 0.491671622356952D+03 0.000000000000000D+00 0.000000000000000D+00 -.491671622356952D+03
 0.309411432996105D+03 0.445969250583583D+02 0.237217773758749D+03 0.147815009241231D+03
 0.932230791158836D+02 -.134722255758972D+02 0.198395560610946D+02 0.405982472381085D+02
 0.226714292679358D+03 -.129629031607566D+02 -.125426386496610D+03 -.188413256479340D+03
 0.201936250203757D+03 -.181617963217044D+02 -.131630943323234D+03 -.152058189718801D+03
0.201416285233D-04 0.000000000000D+00 0.000000000000D+00 0.367861067051D-06 0.000000000000D+00  6 1 21 25 -24 2 21 2 0.34081186D-01 0.65701689D-01 0.57429100D+05 0.57429100D+05 0.57429100D+05 0.11863691D+01  1  2  2  2  6  2       21 0.831469368106D-02 0.100000000000D+01
-.865025655054D-06 0.106290293878D-05 -.406601449281D-07 0.367861067051D-06 0.000000000000D+00  6 1 21 25 -24 2 21 4 0.34081186D-01 0.65701689D-01 0.57429100D+05 0.57429100D+05 0.57429100D+05 0.11863691D+01  1  2  3  2  6  2       21 -.502597508081D-03 0.100000000000D+01
0.229348949135D-05 0.000000000000D+00 0.000000000000D+00 0.367861067051D-06 0.000000000000D+00  6 1 21 25 -24 2 21 4 0.34081186D-01 0.65701689D-01 0.57429100D+05 0.57429100D+05 0.57429100D+05 0.11863691D+01  1  2 15  2  6  2       21 0.133256406492D-02 0.100000000000D+01
0.179187143913D-04 0.000000000000D+00 0.000000000000D+00 0.355245736535D-06 0.000000000000D+00  6 1 21 25 -24 2 21 4 0.34081186D-01 0.10675187D+00 0.94467431D+05 0.94467431D+05 0.94467431D+05 0.11658491D+01  1  2 12  2  6  2       21 0.310003702486D-02 0.100000000000D+01
-.140515727078D-05 0.000000000000D+00 0.000000000000D+00 0.367861067051D-06 0.000000000000D+00  6 1 21 25 -24 2 21 4 0.34081186D-01 0.65701689D-01 0.57429100D+05 0.57429100D+05 0.57429100D+05 0.11863691D+01  1  2  4  2  6  2       21 -.816424968012D-03 0.100000000000D+01
-.692948145975D-04 0.000000000000D+00 -.257018197596D-04 0.367861067051D-06 0.000000000000D+00  6 1 21 25 -24 2 21 4 0.34081186D-01 0.11192013D+00 0.57429100D+05 0.57429100D+05 0.57429100D+05 0.11863691D+01  1  2  5  2  6  2       21 -.117537609333D-01 0.100000000000D+01
0.544416113200D-04 0.000000000000D+00 0.154329164154D-04 0.367861067051D-06 0.000000000000D+00  6 1 21 25 -24 2 21 4 0.34081186D-01 0.65701689D-01 0.57429100D+05 0.57429100D+05 0.57429100D+05 0.11863691D+01  1  2  6  2  6  2       21 0.316316840148D-01 0.100000000000D+01
0.301647879803D-05 0.000000000000D+00 0.000000000000D+00 0.355245736535D-06 0.000000000000D+00  6 1 -1 25 -24 2 -1 4 0.34081186D-01 0.10675187D+00 0.94467431D+05 0.94467431D+05 0.94467431D+05 0.11658491D+01  1  2 12  5  6  2       21 0.625850085496D-04 0.100000000000D+01
-.957711898513D-05 0.000000000000D+00 -.481050180372D-05 0.367861067051D-06 0.000000000000D+00  6 1 -1 25 -24 2 -1 4 0.34081186D-01 0.11192013D+00 0.57429100D+05 0.57429100D+05 0.57429100D+05 0.11863691D+01  1  2  5  5  6  2       21 -.192981132757D-03 0.100000000000D+01
0.301647879803D-05 0.000000000000D+00 0.000000000000D+00 0.355245736535D-06 0.000000000000D+00  6 1 1 25 -24 2 1 4 0.34081186D-01 0.10675187D+00 0.94467431D+05 0.94467431D+05 0.94467431D+05 0.11658491D+01  1  2 12  6  6  2       21 0.244237222045D-03 0.100000000000D+01
-.957711898513D-05 0.000000000000D+00 -.481050180372D-05 0.367861067051D-06 0.000000000000D+00  6 1 1 25 -24 2 1 4 0.34081186D-01 0.11192013D+00 0.57429100D+05 0.57429100D+05 0.57429100D+05 0.11863691D+01  1  2  5  6  6  2       21 -.782208810499D-03 0.100000000000D+01
0.301647879803D-05 0.000000000000D+00 0.000000000000D+00 0.355245736535D-06 0.000000000000D+00  6 1 -2 25 -24 2 -2 4 0.34081186D-01 0.10675187D+00 0.94467431D+05 0.94467431D+05 0.94467431D+05 0.11658491D+01  1  2 12  7  6  2       21 0.465656835882D-04 0.100000000000D+01
-.957711898513D-05 0.000000000000D+00 -.481050180372D-05 0.367861067051D-06 0.000000000000D+00  6 1 -2 25 -24 2 -2 4 0.34081186D-01 0.11192013D+00 0.57429100D+05 0.57429100D+05 0.57429100D+05 0.11863691D+01  1  2  5  7  6  2       21 -.142659027249D-03 0.100000000000D+01
0.301647879803D-05 0.000000000000D+00 0.000000000000D+00 0.355245736535D-06 0.000000000000D+00  6 1 2 25 -24 2 2 4 0.34081186D-01 0.10675187D+00 0.94467431D+05 0.94467431D+05 0.94467431D+05 0.11658491D+01  1  2 12  8  6  2       21 0.412425542063D-03 0.100000000000D+01
-.957711898513D-05 0.000000000000D+00 -.481050180372D-05 0.367861067051D-06 0.000000000000D+00  6 1 2 25 -24 2 2 4 0.34081186D-01 0.11192013D+00 0.57429100D+05 0.57429100D+05 0.57429100D+05 0.11863691D+01  1  2  5  8  6  2       21 -.133317218775D-02 0.100000000000D+01
0.301647879803D-05 0.000000000000D+00 0.000000000000D+00 0.355245736535D-06 0.000000000000D+00  6 1 -3 25 -24 2 -3 4 0.34081186D-01 0.10675187D+00 0.94467431D+05 0.94467431D+05 0.94467431D+05 0.11658491D+01  1  2 12  9  6  2       21 0.300687587275D-04 0.100000000000D+01
0.301647879803D-05 0.000000000000D+00 0.000000000000D+00 0.355245736535D-06 0.000000000000D+00  6 1 -4 25 -24 2 -4 4 0.34081186D-01 0.10675187D+00 0.94467431D+05 0.94467431D+05 0.94467431D+05 0.11658491D+01  1  2 12  9  6  2       21 0.242932814171D-04 0.100000000000D+01
-.957711898513D-05 0.000000000000D+00 -.481050180372D-05 0.367861067051D-06 0.000000000000D+00  6 1 -3 25 -24 2 -3 4 0.34081186D-01 0.11192013D+00 0.57429100D+05 0.57429100D+05 0.57429100D+05 0.11863691D+01  1  2  5  9  6  2       21 -.915698819209D-04 0.100000000000D+01
-.957711898513D-05 0.000000000000D+00 -.481050180372D-05 0.367861067051D-06 0.000000000000D+00  6 1 -4 25 -24 2 -4 4 0.34081186D-01 0.11192013D+00 0.57429100D+05 0.57429100D+05 0.57429100D+05 0.11863691D+01  1  2  5  9  6  2       21 -.735246417827D-04 0.100000000000D+01
0.301647879803D-05 0.000000000000D+00 0.000000000000D+00 0.355245736535D-06 0.000000000000D+00  6 1 3 25 -24 2 3 4 0.34081186D-01 0.10675187D+00 0.94467431D+05 0.94467431D+05 0.94467431D+05 0.11658491D+01  1  2 12 10  6  2       21 0.301355292819D-04 0.100000000000D+01
0.301647879803D-05 0.000000000000D+00 0.000000000000D+00 0.355245736535D-06 0.000000000000D+00  6 1 4 25 -24 2 4 4 0.34081186D-01 0.10675187D+00 0.94467431D+05 0.94467431D+05 0.94467431D+05 0.11658491D+01  1  2 12 10  6  2       21 0.242932814171D-04 0.100000000000D+01
-.957711898513D-05 0.000000000000D+00 -.481050180372D-05 0.367861067051D-06 0.000000000000D+00  6 1 3 25 -24 2 3 4 0.34081186D-01 0.11192013D+00 0.57429100D+05 0.57429100D+05 0.57429100D+05 0.11863691D+01  1  2  5 10  6  2       21 -.917901172098D-04 0.100000000000D+01
-.957711898513D-05 0.000000000000D+00 -.481050180372D-05 0.367861067051D-06 0.000000000000D+00  6 1 4 25 -24 2 4 4 0.34081186D-01 0.11192013D+00 0.57429100D+05 0.57429100D+05 0.57429100D+05 0.11863691D+01  1  2  5 10  6  2       21 -.735246417827D-04 0.100000000000D+01
  </mgrwgt>
  </event>
  <event>
  5     66 0.59588745E-03 0.76632426E+02 0.75467711E-02 0.11354302E+00
        1 -1    0    0  502    0 0.00000000E+00 0.00000000E+00 0.13753306E+04 0.13753307E+04 0.32000000E+00 0.0000E+00 0.9000E+01
       21 -1    0    0  501  502 0.00000000E+00 0.00000000E+00 -.15600573E+03 0.15600753E+03 0.75000000E+00 0.0000E+00 0.9000E+01
       25  1    1    2    0    0 -.13769780E+02 0.10317359E+03 0.37550915E+03 0.40922673E+03 0.12500000E+03 0.0000E+00 0.9000E+01
      -24  1    1    2    0    0 0.62214967E+02 -.16529062E+03 0.96128317E+03 0.98067540E+03 0.80419002E+02 0.0000E+00 0.9000E+01
        2  1    1    2  501    0 -.48445187E+02 0.62117023E+02 -.11746743E+03 0.14143606E+03 0.32000000E+00 0.0000E+00 0.9000E+01
#aMCatNLO 1  0  0  2  1 0.47088673D+00 0.00000000D+00  -5  6  0 0.00000000D+00 0.00000000D+00 0.00000000D+00 0.00000000D+00 0.00000000D+00
  <mgrwgt>
 0.1280633948D+00   23    2    0
 0.463207154244617D+03 0.000000000000000D+00 0.000000000000000D+00 0.463207154244617D+03
 0.463207154244617D+03 0.000000000000000D+00 0.000000000000000D+00 -.463207154244617D+03
 0.182204525995179D+03 -.137697766063929D+02 0.103173588444985D+03 0.820919800755403D+02
 0.355811905054133D+03 0.622149729344566D+02 -.165290623572019D+03 0.298233470163592D+03
 0.388397877439922D+03 -.484451963280638D+02 0.621170351270346D+02 -.380325450239133D+03
 0.000000000000000D+00 -.000000000000000D+00 0.000000000000000D+00 -.000000000000000D+00
 0.463252366882807D+03 0.000000000000000D+00 0.000000000000000D+00 0.463252366882807D+03
 0.464434902673282D+03 0.000000000000000D+00 0.000000000000000D+00 -.464434902673282D+03
 0.182164829395583D+03 -.136999456001202D+02 0.103112770142950D+03 0.820919800755403D+02
 0.355890976489701D+03 0.623513700481272D+02 -.165409416659771D+03 0.298233470163592D+03
 0.388358622277351D+03 -.482963317564373D+02 0.619873836876131D+02 -.380325450239133D+03
 0.127284139345341D+01 -.355092691569676D+00 0.309262829208051D+00 -.118253579047421D+01
0.270281919901D-04 0.000000000000D+00 0.000000000000D+00 0.140557580908D-05 0.000000000000D+00  6 1 21 25 -24 2 21 2 0.21158947D+00 0.24001023D-01 0.47414462D+05 0.47414462D+05 0.47414462D+05 0.11945722D+01  1  2  2  2  6  2       21 0.612317034515D-02 0.100000000000D+01
0.360431937842D-05 0.142631687716D-05 -.545621324606D-07 0.140557580908D-05 0.000000000000D+00  6 1 21 25 -24 2 21 4 0.21158947D+00 0.24001023D-01 0.47414462D+05 0.47414462D+05 0.47414462D+05 0.11945722D+01  1  2  3  2  6  2       21 0.116521866492D-02 0.100000000000D+01
0.315130717002D-05 0.000000000000D+00 0.000000000000D+00 0.140557580908D-05 0.000000000000D+00  6 1 21 25 -24 2 21 4 0.21158947D+00 0.24001023D-01 0.47414462D+05 0.47414462D+05 0.47414462D+05 0.11945722D+01  1  2 15  2  6  2       21 0.101876708135D-02 0.100000000000D+01
-.334275063335D-02 0.000000000000D+00 0.000000000000D+00 0.140557580908D-05 0.000000000000D+00  6 1 21 25 -24 2 21 4 0.21158947D+00 0.24001023D-01 0.47414462D+05 0.47414462D+05 0.47414462D+05 0.11945722D+01  1  2  4  2  6  2       21 -.108065768352D+01 0.100000000000D+01
-.781433677823D-01 0.000000000000D+00 -.330019899730D-02 0.140557580908D-05 0.000000000000D+00  6 1 21 25 -24 2 21 4 0.21158947D+00 0.24066173D-01 0.47414462D+05 0.47414462D+05 0.47414462D+05 0.11945722D+01  1  2  5  2  6  2       21 -.251322403715D+02 0.100000000000D+01
0.781513041038D-01 0.000000000000D+00 0.330015049551D-02 0.140557580908D-05 0.000000000000D+00  6 1 21 25 -24 2 21 4 0.21158947D+00 0.24001023D-01 0.47414462D+05 0.47414462D+05 0.47414462D+05 0.11945722D+01  1  2  6  2  6  2       21 0.252650635721D+02 0.100000000000D+01
0.333229327475D-02 0.000000000000D+00 0.000000000000D+00 0.140557580908D-05 0.937289655712D-04  6 1 21 25 -24 2 21 4 0.21161012D+00 0.24064639D-01 0.47496716D+05 0.47496716D+05 0.47496716D+05 0.11944972D+01  1  2 11  2  6  2       21 0.107125863123D+01 0.100000000000D+01
-.452179811938D-04 0.000000000000D+00 -.199611942362D-05 0.140557580908D-05 0.000000000000D+00  6 1 -1 25 -24 2 -1 4 0.21158947D+00 0.24066173D-01 0.47414462D+05 0.47414462D+05 0.47414462D+05 0.11945722D+01  1  2  5  5  6  2       21 -.121302118844D-02 0.100000000000D+01
0.281910071000D-04 0.000000000000D+00 0.000000000000D+00 0.140557580908D-05 0.635884313314D-07  6 1 -1 25 -24 2 -1 4 0.21161012D+00 0.24064639D-01 0.47496716D+05 0.47496716D+05 0.47496716D+05 0.11944972D+01  1  2 11  5  6  2       21 0.755946813955D-03 0.100000000000D+01
-.452179811938D-04 0.000000000000D+00 -.199611942362D-05 0.140557580908D-05 0.000000000000D+00  6 1 1 25 -24 2 1 4 0.21158947D+00 0.24066173D-01 0.47414462D+05 0.47414462D+05 0.47414462D+05 0.11945722D+01  1  2  5  6  6  2       21 -.194844801142D-02 0.100000000000D+01
0.276754458570D-04 0.000000000000D+00 0.000000000000D+00 0.140557580908D-05 0.628675121612D-07  6 1 1 25 -24 2 1 4 0.21161012D+00 0.24064639D-01 0.47496716D+05 0.47496716D+05 0.47496716D+05 0.11944972D+01  1  2 11  6  6  2       21 0.119202426464D-02 0.100000000000D+01
-.452179811938D-04 0.000000000000D+00 -.199611942362D-05 0.140557580908D-05 0.000000000000D+00  6 1 -2 25 -24 2 -2 4 0.21158947D+00 0.24066173D-01 0.47414462D+05 0.47414462D+05 0.47414462D+05 0.11945722D+01  1  2  5  7  6  2       21 -.109145610174D-02 0.100000000000D+01
0.224413976770D-04 0.000000000000D+00 0.000000000000D+00 0.140557580908D-05 0.630800911066D-06  6 1 -2 25 -24 2 -2 4 0.21161012D+00 0.24064639D-01 0.47496716D+05 0.47496716D+05 0.47496716D+05 0.11944972D+01  1  2 11  7  6  2       21 0.541467052536D-03 0.100000000000D+01
-.452179811938D-04 0.000000000000D+00 -.199611942362D-05 0.140557580908D-05 0.000000000000D+00  6 1 2 25 -24 2 2 4 0.21158947D+00 0.24066173D-01 0.47414462D+05 0.47414462D+05 0.47414462D+05 0.11945722D+01  1  2  5  8  6  2       21 -.247611896635D-02 0.100000000000D+01
0.287337464382D-04 0.000000000000D+00 0.000000000000D+00 0.140557580908D-05 0.324449499939D-07  6 1 2 25 -24 2 2 4 0.21161012D+00 0.24064639D-01 0.47496716D+05 0.47496716D+05 0.47496716D+05 0.11944972D+01  1  2 11  8  6  2       21 0.157275987384D-02 0.100000000000D+01
-.452179811938D-04 0.000000000000D+00 -.199611942362D-05 0.140557580908D-05 0.000000000000D+00  6 1 -3 25 -24 2 -3 4 0.21158947D+00 0.24066173D-01 0.47414462D+05 0.47414462D+05 0.47414462D+05 0.11945722D+01  1  2  5  9  6  2       21 -.716642934013D-03 0.100000000000D+01
-.452179811938D-04 0.000000000000D+00 -.199611942362D-05 0.140557580908D-05 0.000000000000D+00  6 1 -4 25 -24 2 -4 4 0.21158947D+00 0.24066173D-01 0.47414462D+05 0.47414462D+05 0.47414462D+05 0.11945722D+01  1  2  5  9  6  2       21 -.611860566461D-03 0.100000000000D+01
0.281912069749D-04 0.000000000000D+00 0.000000000000D+00 0.140557580908D-05 0.635888821750D-07  6 1 -3 25 -24 2 -3 4 0.21161012D+00 0.24064639D-01 0.47496716D+05 0.47496716D+05 0.47496716D+05 0.11944972D+01  1  2 11  9  6  2       21 0.446631207166D-03 0.100000000000D+01
0.281912069749D-04 0.000000000000D+00 0.000000000000D+00 0.140557580908D-05 0.635888821750D-07  6 1 -4 25 -24 2 -4 4 0.21161012D+00 0.24064639D-01 0.47496716D+05 0.47496716D+05 0.47496716D+05 0.11944972D+01  1  2 11  9  6  2       21 0.381335123767D-03 0.100000000000D+01
-.452179811938D-04 0.000000000000D+00 -.199611942362D-05 0.140557580908D-05 0.000000000000D+00  6 1 3 25 -24 2 3 4 0.21158947D+00 0.24066173D-01 0.47414462D+05 0.47414462D+05 0.47414462D+05 0.11945722D+01  1  2  5 10  6  2       21 -.716613791769D-03 0.100000000000D+01
-.452179811938D-04 0.000000000000D+00 -.199611942362D-05 0.140557580908D-05 0.000000000000D+00  6 1 4 25 -24 2 4 4 0.21158947D+00 0.24066173D-01 0.47414462D+05 0.47414462D+05 0.47414462D+05 0.11945722D+01  1  2  5 10  6  2       21 -.611860566461D-03 0.100000000000D+01
0.281912069749D-04 0.000000000000D+00 0.000000000000D+00 0.140557580908D-05 0.635888821750D-07  6 1 3 25 -24 2 3 4 0.21161012D+00 0.24064639D-01 0.47496716D+05 0.47496716D+05 0.47496716D+05 0.11944972D+01  1  2 11 10  6  2       21 0.446613049926D-03 0.100000000000D+01
0.281912069749D-04 0.000000000000D+00 0.000000000000D+00 0.140557580908D-05 0.635888821750D-07  6 1 4 25 -24 2 4 4 0.21161012D+00 0.24064639D-01 0.47496716D+05 0.47496716D+05 0.47496716D+05 0.11944972D+01  1  2 11 10  6  2       21 0.381335123767D-03 0.100000000000D+01
  </mgrwgt>
  </event>
  <event>
  5     66 0.59588745E-03 0.24899974E+02 0.75467711E-02 0.11100305E+00
        1 -1    0    0  502    0 0.00000000E+00 0.00000000E+00 0.16334009E+02 0.16337144E+02 0.32000000E+00 0.0000E+00 0.9000E+01
       21 -1    0    0  501  502 0.00000000E+00 0.00000000E+00 -.23621636E+04 0.23621637E+04 0.75000000E+00 0.0000E+00 0.9000E+01
       25  1    1    2    0    0 0.90182591E+02 0.12239152E+03 -.10954723E+04 0.11130127E+04 0.12500000E+03 0.0000E+00 0.9000E+01
      -24  1    1    2    0    0 -.10750317E+03 -.10450547E+03 -.11019966E+04 0.11150525E+04 0.80419002E+02 0.0000E+00 0.9000E+01
        2  1    1    2  501    0 0.17320575E+02 -.17886042E+02 -.14836064E+03 0.15043568E+03 0.32000000E+00 0.0000E+00 0.9000E+01
#aMCatNLO 1  0  0  2  1 0.10484983D+03 0.00000000D+00  -5  6  0 0.00000000D+00 0.00000000D+00 0.00000000D+00 0.00000000D+00 0.00000000D+00
  <mgrwgt>
 0.5417761606D-01   14    2    0
 0.196436938072238D+03 0.000000000000000D+00 0.000000000000000D+00 0.196436938072238D+03
 0.196436938072238D+03 0.000000000000000D+00 0.000000000000000D+00 -.196436938072238D+03
 0.197290402077806D+03 0.901818726395981D+02 0.122392258194085D+03 0.136333317054287D+02
 0.170683444581699D+03 -.107503787406783D+03 -.104504832546229D+03 -.136856847685911D+02
 0.249000294849712D+02 0.173219147671853D+02 -.178874256478561D+02 0.523530631624191D-01
 0.000000000000000D+00 0.000000000000000D+00 -.000000000000000D+00 -.000000000000000D+00
 0.226886386638684D+03 0.000000000000000D+00 0.000000000000000D+00 0.226886386638684D+03
 0.319896033172168D+03 0.000000000000000D+00 0.000000000000000D+00 -.319896033172168D+03
 0.181568573998484D+03 0.405434263270581D+02 0.124549226862775D+03 0.136333317054287D+02
 0.204110003084066D+03 -.156609564503385D+03 -.102371010266978D+03 -.136856847685911D+02
 0.209457827281929D+02 0.113151549121946D+02 -.176264103709882D+02 0.523530631624191D-01
 0.140158060000109D+03 0.104750983264132D+03 -.455180622480860D+01 -.930096465334839D+02
0.165185805656D-03 0.000000000000D+00 0.000000000000D+00 0.334226176224D-06 0.000000000000D+00  6 1 21 25 -24 2 21 2 0.25131748D-02 0.36341003D+00 0.38387125D+05 0.38387125D+05 0.38387125D+05 0.12038196D+01  1  2  2  2  6  2       21 0.158611894486D-01 0.100000000000D+01
0.149610998650D-04 0.871709445314D-05 -.333462549480D-06 0.334226176224D-06 0.000000000000D+00  6 1 21 25 -24 2 21 4 0.25131748D-02 0.36341003D+00 0.38387125D+05 0.38387125D+05 0.38387125D+05 0.12038196D+01  1  2  3  2  6  2       21 0.208184982504D-02 0.100000000000D+01
0.207001704987D-04 0.000000000000D+00 0.000000000000D+00 0.334226176224D-06 0.000000000000D+00  6 1 21 25 -24 2 21 4 0.25131748D-02 0.36341003D+00 0.38387125D+05 0.38387125D+05 0.38387125D+05 0.12038196D+01  1  2 15  2  6  2       21 0.288044640567D-02 0.100000000000D+01
-.136076583348D-04 0.000000000000D+00 0.000000000000D+00 0.334226176224D-06 0.000000000000D+00  6 1 21 25 -24 2 21 4 0.25131748D-02 0.36341003D+00 0.38387125D+05 0.38387125D+05 0.38387125D+05 0.12038196D+01  1  2  4  2  6  2       21 -.189351728009D-02 0.100000000000D+01
-.404825408925D-03 0.000000000000D+00 -.142989351784D-03 0.334226176224D-06 0.000000000000D+00  6 1 21 25 -24 2 21 4 0.25131748D-02 0.60871703D+00 0.38387125D+05 0.38387125D+05 0.38387125D+05 0.12038196D+01  1  2  5  2  6  2       21 -.112538198230D-02 0.100000000000D+01
0.298086089832D-03 0.000000000000D+00 0.883716492753D-04 0.334226176224D-06 0.000000000000D+00  6 1 21 25 -24 2 21 4 0.25131748D-02 0.36341003D+00 0.38387125D+05 0.38387125D+05 0.38387125D+05 0.12038196D+01  1  2  6  2  6  2       21 0.414789340064D-01 0.100000000000D+01
-.641725330154D-04 0.000000000000D+00 -.258100015910D-04 0.334226176224D-06 0.000000000000D+00  6 1 -1 25 -24 2 -1 4 0.25131748D-02 0.60871703D+00 0.38387125D+05 0.38387125D+05 0.38387125D+05 0.12038196D+01  1  2  5  5  6  2       21 -.283942514056D-04 0.100000000000D+01
-.641725330154D-04 0.000000000000D+00 -.258100015910D-04 0.334226176224D-06 0.000000000000D+00  6 1 1 25 -24 2 1 4 0.25131748D-02 0.60871703D+00 0.38387125D+05 0.38387125D+05 0.38387125D+05 0.12038196D+01  1  2  5  6  6  2       21 -.987407576275D-03 0.100000000000D+01
-.641725330154D-04 0.000000000000D+00 -.258100015910D-04 0.334226176224D-06 0.000000000000D+00  6 1 -2 25 -24 2 -2 4 0.25131748D-02 0.60871703D+00 0.38387125D+05 0.38387125D+05 0.38387125D+05 0.12038196D+01  1  2  5  7  6  2       21 -.285177098882D-04 0.100000000000D+01
-.641725330154D-04 0.000000000000D+00 -.258100015910D-04 0.334226176224D-06 0.000000000000D+00  6 1 2 25 -24 2 2 4 0.25131748D-02 0.60871703D+00 0.38387125D+05 0.38387125D+05 0.38387125D+05 0.12038196D+01  1  2  5  8  6  2       21 -.397421342361D-02 0.100000000000D+01
-.641725330154D-04 0.000000000000D+00 -.258100015910D-04 0.334226176224D-06 0.000000000000D+00  6 1 -3 25 -24 2 -3 4 0.25131748D-02 0.60871703D+00 0.38387125D+05 0.38387125D+05 0.38387125D+05 0.12038196D+01  1  2  5  9  6  2       21 -.341461239499D-04 0.100000000000D+01
-.641725330154D-04 0.000000000000D+00 -.258100015910D-04 0.334226176224D-06 0.000000000000D+00  6 1 -4 25 -24 2 -4 4 0.25131748D-02 0.60871703D+00 0.38387125D+05 0.38387125D+05 0.38387125D+05 0.12038196D+01  1  2  5  9  6  2       21 -.537474949083D-05 0.100000000000D+01
-.641725330154D-04 0.000000000000D+00 -.258100015910D-04 0.334226176224D-06 0.000000000000D+00  6 1 3 25 -24 2 3 4 0.25131748D-02 0.60871703D+00 0.38387125D+05 0.38387125D+05 0.38387125D+05 0.12038196D+01  1  2  5 10  6  2       21 -.424757777767D-04 0.100000000000D+01
-.641725330154D-04 0.000000000000D+00 -.258100015910D-04 0.334226176224D-06 0.000000000000D+00  6 1 4 25 -24 2 4 4 0.25131748D-02 0.60871703D+00 0.38387125D+05 0.38387125D+05 0.38387125D+05 0.12038196D+01  1  2  5 10  6  2       21 -.537474949083D-05 0.100000000000D+01
  </mgrwgt>
  </event>
  <event>
  6     66 -.59588745E-03 0.18378161E+02 0.75467711E-02 0.12347447E+00
        1 -1    0    0  502    0 0.00000000E+00 0.00000000E+00 0.28755965E+04 0.28755965E+04 0.32000000E+00 0.0000E+00 0.9000E+01
       21 -1    0    0  501  503 0.00000000E+00 0.00000000E+00 -.55779839E+01 0.56281794E+01 0.75000000E+00 0.0000E+00 0.9000E+01
       25  1    1    2    0    0 0.28655474E+02 -.10290267E+02 0.13215473E+04 0.13277949E+04 0.12500000E+03 0.0000E+00 0.9000E+01
      -24  1    1    2    0    0 -.31968229E+02 -.24507261E+01 0.12204326E+04 0.12234994E+04 0.80419002E+02 0.0000E+00 0.9000E+01
        2  1    1    2  501    0 0.97718112E+01 0.21897468E+02 0.23278186E+03 0.23401385E+03 0.32000000E+00 0.0000E+00 0.9000E+01
       21  1    1    2  502  503 -.64590558E+01 -.91564757E+01 0.95256731E+02 0.95916462E+02 0.75000000E+00 0.0000E+00 0.9000E+01
#aMCatNLO 2  0  0  2  1 0.11205376D+02 0.00000000D+00  -5  6  0 0.00000000D+00 0.00000000D+00 0.00000000D+00 0.00000000D+00 0.00000000D+00
  <mgrwgt>
 -.5920344764D-01    3    2    0
 0.120947755073845D+03 0.000000000000000D+00 0.000000000000000D+00 0.120947755073845D+03
 0.120947755073845D+03 0.000000000000000D+00 0.000000000000000D+00 -.120947755073845D+03
 0.129180807065769D+03 0.252043338550176D+02 -.151830726190999D+02 -.140319911249798D+02
 0.894698091864857D+02 -.343423789442708D+02 -.581664646395641D+01 0.180110642066778D+02
 0.232448938954342D+02 0.913804508925325D+01 0.209997190830563D+02 -.397907308169792D+01
 0.000000000000000D+00 -.000000000000000D+00 -.000000000000000D+00 -.000000000000000D+00
 0.125228608400196D+03 0.000000000000000D+00 0.000000000000000D+00 0.125228608400196D+03
 0.128639229528158D+03 0.000000000000000D+00 0.000000000000000D+00 -.128639229528158D+03
 0.129417610423283D+03 0.286550107805317D+02 -.102913298416101D+02 -.140319911249798D+02
 0.884285692470149D+02 -.319685445043410D+02 -.245145530664375D+01 0.180110642066778D+02
 0.243087258720264D+02 0.977258949230705D+01 0.218992608447564D+02 -.397907308169792D+01
 0.117129323860296D+02 -.645905576849772D+01 -.915647569650251D+01 -.341062112796121D+01
-.623126828646D-05 0.000000000000D+00 0.000000000000D+00 0.101896352669D-05 0.000000000000D+00  6 1 21 25 -24 2 21 4 0.42723954D+00 0.87555471D-03 0.15677016D+05 0.15677016D+05 0.15677016D+05 0.12456428D+01  1  2 13  2  6  2       21 -.844210570252D-01 0.100000000000D+01
-.183791892583D-07 0.000000000000D+00 0.000000000000D+00 0.102656862784D-05 0.000000000000D+00  6 1 21 25 -24 2 21 4 0.42723954D+00 0.81039634D-03 0.14275041D+05 0.14275041D+05 0.14275041D+05 0.12502826D+01  1  2  8  2  6  2       21 -.285665966464D-03 0.100000000000D+01
0.213820793775D-05 0.000000000000D+00 0.000000000000D+00 0.102656862784D-05 0.896488042945D-07  6 1 21 25 -24 2 21 4 0.44236136D+00 0.86193217D-03 0.15677016D+05 0.15677016D+05 0.15677016D+05 0.12456428D+01  1  2  1  2  6  2       21 0.255032753526D-01 0.100000000000D+01
  </mgrwgt>
  </event>
  <event>
  5     66 -.59588745E-03 0.35087934E+02 0.75467711E-02 0.11013672E+00
        1 -1    0    0  502    0 0.00000000E+00 0.00000000E+00 0.15530624E+03 0.15530657E+03 0.32000000E+00 0.0000E+00 0.9000E+01
       21 -1    0    0  501  502 0.00000000E+00 0.00000000E+00 -.34499837E+03 0.34499918E+03 0.75000000E+00 0.0000E+00 0.9000E+01
       25  1    1    2    0    0 0.79331370E+02 -.13903793E+03 -.42736790E+02 0.20754866E+03 0.12500000E+03 0.0000E+00 0.9000E+01
      -24  1    1    2    0    0 -.10604900E+03 0.16178169E+03 -.94911297E+02 0.22998930E+03 0.80419002E+02 0.0000E+00 0.9000E+01
        2  1    1    2  501    0 0.26717634E+02 -.22743763E+02 -.52044044E+02 0.62767791E+02 0.32000000E+00 0.0000E+00 0.9000E+01
#aMCatNLO 1  0  0  2  1 0.49448584D+01 0.00000000D+00  -5  6  0 0.00000000D+00 0.00000000D+00 0.00000000D+00 0.00000000D+00 0.00000000D+00
  <mgrwgt>
 -.6771843420D-01   12    2    0
 0.231475018389156D+03 0.000000000000000D+00 0.000000000000000D+00 0.231475018389156D+03
 0.231475018389156D+03 0.000000000000000D+00 0.000000000000000D+00 -.231475018389156D+03
 0.206784423878693D+03 0.793310878813906D+02 -.139037688872101D+03 0.388573999066183D+02
 0.209658024086609D+03 -.106049290983440D+03 0.161781935815547D+03 -.833212069129877D+01
 0.465075888130102D+02 0.267182031020498D+02 -.227442469434454D+02 -.305252792153196D+02
 0.000000000000000D+00 0.000000000000000D+00 0.000000000000000D+00 -.000000000000000D+00
 0.240872293052501D+03 0.000000000000000D+00 0.000000000000000D+00 0.240872293052501D+03
 0.542619665042408D+03 0.000000000000000D+00 0.000000000000000D+00 -.542619665042408D+03
 0.227187618653646D+03 0.635265800644040D+02 -.174481202905448D+03 0.388573999066183D+02
 0.194185465803280D+03 -.120756569257774D+03 0.128799091304033D+03 -.833212069129877D+01
 0.490407473850636D+02 0.232384987009766D+02 -.305479035456954D+02 -.305252792153196D+02
 0.313078126252919D+03 0.339914904923931D+02 0.762300151471111D+02 -.301747371989908D+03
0.961141462192D-05 0.000000000000D+00 0.000000000000D+00 0.361792109608D-06 0.000000000000D+00  6 1 21 25 -24 2 21 2 0.23893355D-01 0.53076760D-01 0.50104579D+05 0.50104579D+05 0.50104579D+05 0.11921919D+01  1  2  2  2  6  2       21 0.998398622410D-02 0.100000000000D+01
0.834951221292D-06 0.507208284360D-06 -.194026769504D-07 0.361792109608D-06 0.000000000000D+00  6 1 21 25 -24 2 21 4 0.23893355D-01 0.53076760D-01 0.50104579D+05 0.50104579D+05 0.50104579D+05 0.11921919D+01  1  2  3  2  6  2       21 0.123273606045D-02 0.100000000000D+01
0.115583449223D-05 0.000000000000D+00 0.000000000000D+00 0.361792109608D-06 0.000000000000D+00  6 1 21 25 -24 2 21 4 0.23893355D-01 0.53076760D-01 0.50104579D+05 0.50104579D+05 0.50104579D+05 0.11921919D+01  1  2 15  2  6  2       21 0.170649353179D-02 0.100000000000D+01
-.247480119009D-03 0.000000000000D+00 -.172226743250D-04 0.361792109608D-06 0.000000000000D+00  6 1 21 25 -24 2 21 4 0.23893355D-01 0.12630258D+00 0.50104579D+05 0.50104579D+05 0.50104579D+05 0.11921919D+01  1  2  5  2  6  2       21 -.500836211223D-01 0.100000000000D+01
-.796239045115D-04 0.000000000000D+00 -.518236600018D-05 0.361792109608D-06 0.000000000000D+00  6 1 -1 25 -24 2 -1 4 0.23893355D-01 0.12630258D+00 0.50104579D+05 0.50104579D+05 0.50104579D+05 0.11921919D+01  1  2  5  5  6  2       21 -.193098854585D-02 0.100000000000D+01
-.796239045115D-04 0.000000000000D+00 -.518236600018D-05 0.361792109608D-06 0.000000000000D+00  6 1 1 25 -24 2 1 4 0.23893355D-01 0.12630258D+00 0.50104579D+05 0.50104579D+05 0.50104579D+05 0.11921919D+01  1  2  5  6  6  2       21 -.867730788780D-02 0.100000000000D+01
-.796239045115D-04 0.000000000000D+00 -.518236600018D-05 0.361792109608D-06 0.000000000000D+00  6 1 -2 25 -24 2 -2 4 0.23893355D-01 0.12630258D+00 0.50104579D+05 0.50104579D+05 0.50104579D+05 0.11921919D+01  1  2  5  7  6  2       21 -.141753909757D-02 0.100000000000D+01
-.796239045115D-04 0.000000000000D+00 -.518236600018D-05 0.361792109608D-06 0.000000000000D+00  6 1 2 25 -24 2 2 4 0.23893355D-01 0.12630258D+00 0.50104579D+05 0.50104579D+05 0.50104579D+05 0.11921919D+01  1  2  5  8  6  2       21 -.152503081637D-01 0.100000000000D+01
-.796239045115D-04 0.000000000000D+00 -.518236600018D-05 0.361792109608D-06 0.000000000000D+00  6 1 -3 25 -24 2 -3 4 0.23893355D-01 0.12630258D+00 0.50104579D+05 0.50104579D+05 0.50104579D+05 0.11921919D+01  1  2  5  9  6  2       21 -.912183635905D-03 0.100000000000D+01
-.796239045115D-04 0.000000000000D+00 -.518236600018D-05 0.361792109608D-06 0.000000000000D+00  6 1 -4 25 -24 2 -4 4 0.23893355D-01 0.12630258D+00 0.50104579D+05 0.50104579D+05 0.50104579D+05 0.11921919D+01  1  2  5  9  6  2       21 -.727411752100D-03 0.100000000000D+01
-.796239045115D-04 0.000000000000D+00 -.518236600018D-05 0.361792109608D-06 0.000000000000D+00  6 1 3 25 -24 2 3 4 0.23893355D-01 0.12630258D+00 0.50104579D+05 0.50104579D+05 0.50104579D+05 0.11921919D+01  1  2  5 10  6  2       21 -.914878063972D-03 0.100000000000D+01
-.796239045115D-04 0.000000000000D+00 -.518236600018D-05 0.361792109608D-06 0.000000000000D+00  6 1 4 25 -24 2 4 4 0.23893355D-01 0.12630258D+00 0.50104579D+05 0.50104579D+05 0.50104579D+05 0.11921919D+01  1  2  5 10  6  2       21 -.727411752100D-03 0.100000000000D+01
  </mgrwgt>
  </event>
  <event>
  5     66 0.59588745E-03 0.38878038E+02 0.75467711E-02 0.11255938E+00
        1 -1    0    0  502    0 0.00000000E+00 0.00000000E+00 0.63238131E+03 0.63238139E+03 0.32000000E+00 0.0000E+00 0.9000E+01
       21 -1    0    0  501  502 0.00000000E+00 0.00000000E+00 -.38116904E+02 0.38124281E+02 0.75000000E+00 0.0000E+00 0.9000E+01
       25  1    1    2    0    0 -.42491641E+02 -.67984988E+02 0.44600679E+03 0.47007930E+03 0.12500000E+03 0.0000E+00 0.9000E+01
      -24  1    1    2    0    0 0.76024973E+01 0.50833641E+02 0.96867361E+02 0.13598661E+03 0.80419002E+02 0.0000E+00 0.9000E+01
        2  1    1    2  501    0 0.34889144E+02 0.17151348E+02 0.51390256E+02 0.64439754E+02 0.32000000E+00 0.0000E+00 0.9000E+01
#aMCatNLO 1  0  0  2  2 0.38674394D+03 0.00000000D+00  -5  6  0 0.00000000D+00 0.00000000D+00 0.00000000D+00 0.00000000D+00 0.00000000D+00
  <mgrwgt>
 0.1096462238D+00    3    2    0
 0.155264026201405D+03 0.000000000000000D+00 0.000000000000000D+00 0.155264026201405D+03
 0.155264026201405D+03 0.000000000000000D+00 0.000000000000000D+00 -.155264026201405D+03
 0.161482952871187D+03 -.424921990655360D+02 -.679852628476699D+02 0.634362760737593D+02
 0.108250816521814D+03 0.760212311003359D+01 0.508334568741433D+02 -.510802379567038D+02
 0.407942830098086D+02 0.348900759555024D+02 0.171518059735266D+02 -.123560381170554D+02
 0.000000000000000D+00 -.000000000000000D+00 -.000000000000000D+00 0.000000000000000D+00
 0.321402945102762D+03 0.000000000000000D+00 0.000000000000000D+00 0.321402945102762D+03
 0.206852814944433D+03 0.000000000000000D+00 0.000000000000000D+00 -.206852814944433D+03
 0.142853803149498D+03 -.274702203074481D+02 -.185336138669020D+01 0.634362760737593D+02
 0.143598954088616D+03 0.200333586722673D+02 0.105560018432969D+03 -.510802379567038D+02
 0.565251281336022D+02 0.396937353821888D+02 0.382991619226686D+02 -.123560381170554D+02
 0.185277874675478D+03 -.322568737470081D+02 -.142005818968947D+03 0.114550130158329D+03
0.839582683710D-05 0.000000000000D+00 0.000000000000D+00 0.398342589677D-06 0.000000000000D+00  6 1 21 25 -24 2 21 2 0.97290005D-01 0.58647128D-02 0.19996858D+05 0.19996858D+05 0.19996858D+05 0.12338336D+01  1  2  2  2  6  2       21 0.948696977463D-01 0.100000000000D+01
-.426952138551D-07 0.443059954579D-06 -.169487554392D-07 0.398342589677D-06 0.000000000000D+00  6 1 21 25 -24 2 21 4 0.97290005D-01 0.58647128D-02 0.19996858D+05 0.19996858D+05 0.19996858D+05 0.12338336D+01  1  2  3  2  6  2       21 -.734440120266D-03 0.100000000000D+01
0.901699129072D-06 0.000000000000D+00 0.000000000000D+00 0.398342589677D-06 0.000000000000D+00  6 1 21 25 -24 2 21 4 0.97290005D-01 0.58647128D-02 0.19996858D+05 0.19996858D+05 0.19996858D+05 0.12338336D+01  1  2 15  2  6  2       21 0.155109661482D-01 0.100000000000D+01
  </mgrwgt>
  </event>
  <event>
  5     66 0.59588745E-03 0.58865761E+02 0.75467711E-02 0.11754467E+00
        1 -1    0    0  502    0 0.00000000E+00 0.00000000E+00 0.10062401E+03 0.10062451E+03 0.32000000E+00 0.0000E+00 0.9000E+01
       21 -1    0    0  501  502 0.00000000E+00 0.00000000E+00 -.40912503E+03 0.40912572E+03 0.75000000E+00 0.0000E+00 0.9000E+01
       25  1    1    2    0    0 0.88985836E+02 -.84248244E+02 -.91588026E+02 0.19755914E+03 0.12500000E+03 0.0000E+00 0.9000E+01
      -24  1    1    2    0    0 -.61156549E+02 0.32376420E+02 -.21691001E+02 0.10828699E+03 0.80419002E+02 0.0000E+00 0.9000E+01
        2  1    1    2  501    0 -.27829288E+02 0.51871823E+02 -.19522200E+03 0.20390411E+03 0.32000000E+00 0.0000E+00 0.9000E+01
#aMCatNLO 1  0  0  1  2 0.52047223D+01 0.00000000D+00  -5  6  0 0.00000000D+00 0.00000000D+00 0.00000000D+00 0.00000000D+00 0.00000000D+00
  <mgrwgt>
 0.5195086339D-02   11    2    0
 0.202899247888928D+03 0.000000000000000D+00 0.000000000000000D+00 0.202899247888928D+03
 0.202899247888928D+03 0.000000000000000D+00 0.000000000000000D+00 -.202899247888928D+03
 0.178539006363269D+03 0.889858903723870D+02 -.842483444312042D+02 0.351412089777518D+02
 0.119536244330846D+03 -.611565125004088D+02 0.323763530408365D+02 0.550758612907298D+02
 0.107723245083742D+03 -.278293778719783D+02 0.518719913903677D+02 -.902170702684817D+02
 0.000000000000000D+00 -.000000000000000D+00 0.000000000000000D+00 0.000000000000000D+00
 0.213944668220478D+03 0.000000000000000D+00 0.000000000000000D+00 0.213944668220478D+03
 0.203529994192307D+03 0.000000000000000D+00 0.000000000000000D+00 -.203529994192307D+03
 0.179673586853399D+03 0.890663986165091D+02 -.865440343514962D+02 0.351412089777518D+02
 0.119103584940795D+03 -.611028782228985D+02 0.308469733902787D+02 0.550758612907298D+02
 0.107054700179493D+03 -.277811065504873D+02 0.504955362534496D+02 -.902170702684817D+02
 0.116427904390979D+02 -.182413843123280D+00 0.520152470776794D+01 0.104146740281713D+02
0.146756125213D-05 0.000000000000D+00 0.000000000000D+00 0.575587913021D-06 0.000000000000D+00  6 1 21 25 -24 2 21 2 0.15480708D-01 0.62942405D-01 0.28900763D+05 0.28900763D+05 0.28900763D+05 0.12166036D+01  1  2  2  1  6  1        1 0.195156123741D-02 0.100000000000D+01
0.397198876588D-07 0.774453349653D-07 -.296258334491D-08 0.575587913021D-06 0.000000000000D+00  6 1 21 25 -24 2 21 4 0.15480708D-01 0.62942405D-01 0.28900763D+05 0.28900763D+05 0.28900763D+05 0.12166036D+01  1  2  3  1  6  1        1 0.781793664902D-04 0.100000000000D+01
0.149294410671D-06 0.000000000000D+00 0.000000000000D+00 0.575587913021D-06 0.000000000000D+00  6 1 21 25 -24 2 21 4 0.15480708D-01 0.62942405D-01 0.28900763D+05 0.28900763D+05 0.28900763D+05 0.12166036D+01  1  2 15  1  6  1        1 0.293851345881D-03 0.100000000000D+01
0.229616904044D-04 0.000000000000D+00 0.000000000000D+00 0.574415689297D-06 0.000000000000D+00  6 1 21 25 -24 2 21 4 0.16346768D-01 0.62942405D-01 0.29695220D+05 0.29695220D+05 0.29695220D+05 0.12153641D+01  1  2 12  1  6  1        1 0.419195896630D-01 0.100000000000D+01
-.620656619719D-04 0.000000000000D+00 0.000000000000D+00 0.575587913021D-06 0.000000000000D+00  6 1 21 25 -24 2 21 4 0.15480708D-01 0.62942405D-01 0.28900763D+05 0.28900763D+05 0.28900763D+05 0.12166036D+01  1  2  4  1  6  1        1 -.122161829244D+00 0.100000000000D+01
-.119969462426D-03 0.000000000000D+00 -.870649382178D-05 0.575587913021D-06 0.000000000000D+00  6 1 21 25 -24 2 21 4 0.16363158D-01 0.62942405D-01 0.28900763D+05 0.28900763D+05 0.28900763D+05 0.12166036D+01  1  2  5  1  6  1        1 -.219738794075D+00 0.100000000000D+01
0.120280613438D-03 0.000000000000D+00 0.869313193192D-05 0.575587913021D-06 0.000000000000D+00  6 1 21 25 -24 2 21 4 0.15480708D-01 0.62942405D-01 0.28900763D+05 0.28900763D+05 0.28900763D+05 0.12166036D+01  1  2  6  1  6  1        1 0.236744429904D+00 0.100000000000D+01
0.399431234149D-04 0.000000000000D+00 0.000000000000D+00 0.575587913021D-06 0.167779944230D-06  6 1 21 25 -24 2 21 4 0.16323446D-01 0.63138072D-01 0.29695220D+05 0.29695220D+05 0.29695220D+05 0.12153641D+01  1  2 11  1  6  1        1 0.725686683646D-01 0.100000000000D+01
0.366369265710D-06 0.000000000000D+00 0.000000000000D+00 0.574415689297D-06 0.000000000000D+00  6 21 21 25 -24 2 -1 4 0.16346768D-01 0.62942405D-01 0.29695220D+05 0.29695220D+05 0.29695220D+05 0.12153641D+01  1  2 12  4  6  1        1 0.631705763440D-02 0.100000000000D+01
-.114028273387D-05 0.000000000000D+00 -.834320300334D-07 0.575587913021D-06 0.000000000000D+00  6 21 21 25 -24 2 -1 4 0.16363158D-01 0.62942405D-01 0.28900763D+05 0.28900763D+05 0.28900763D+05 0.12166036D+01  1  2  5  4  6  1        1 -.197256396096D-01 0.100000000000D+01
0.404613807429D-06 0.000000000000D+00 0.000000000000D+00 0.575587913021D-06 0.162101030500D-08  6 21 21 25 -24 2 -1 4 0.16323446D-01 0.63138072D-01 0.29695220D+05 0.29695220D+05 0.29695220D+05 0.12153641D+01  1  2 11  4  6  1        1 0.694801175135D-02 0.100000000000D+01
  </mgrwgt>
  </event>
  <event>
  6     66 -.59588745E-03 0.23341990E+02 0.75467711E-02 0.12020096E+00
        1 -1    0    0  502    0 0.00000000E+00 0.00000000E+00 0.74010769E+03 0.74010776E+03 0.32000000E+00 0.0000E+00 0.9000E+01
       21 -1    0    0  501  503 0.00000000E+00 0.00000000E+00 -.57603729E+02 0.57608612E+02 0.75000000E+00 0.0000E+00 0.9000E+01
       25  1    1    2    0    0 0.15567363E+02 -.68527843E+02 0.42815344E+03 0.45152938E+03 0.12500000E+03 0.0000E+00 0.9000E+01
      -24  1    1    2    0    0 -.42845142E+02 0.81458711E+02 0.27950771E+03 0.30506229E+03 0.80419002E+02 0.0000E+00 0.9000E+01
        2  1    1    2  501    0 0.25036525E+02 -.76912833E+01 -.17304718E+02 0.31393296E+02 0.32000000E+00 0.0000E+00 0.9000E+01
       21  1    1    2  502  503 0.22412542E+01 -.52395851E+01 -.78524704E+01 0.97314061E+01 0.75000000E+00 0.0000E+00 0.9000E+01
#aMCatNLO 2  0  0  2  5 0.56988133D+01 0.00000000D+00  -5  6  0 0.00000000D+00 0.00000000D+00 0.00000000D+00 0.00000000D+00 0.00000000D+00
  <mgrwgt>
 -.1145994882D+00    3    2    0
 0.189931452566504D+03 0.000000000000000D+00 0.000000000000000D+00 0.189931452566504D+03
 0.189931452566504D+03 0.000000000000000D+00 0.000000000000000D+00 -.189931452566504D+03
 0.159567710774730D+03 0.165056146368589D+02 -.707213970083070D+02 0.675492635973240D+02
 0.123470183342077D+03 -.421127152057594D+02 0.797463605672910D+02 0.253910892721413D+02
 0.968250110162013D+02 0.256071005689005D+02 -.902496355898401D+01 -.929403528694653D+02
 0.000000000000000D+00 0.000000000000000D+00 -.000000000000000D+00 -.000000000000000D+00
 0.190190173540927D+03 0.000000000000000D+00 0.000000000000000D+00 0.190190173540927D+03
 0.224160425947232D+03 0.000000000000000D+00 0.000000000000000D+00 -.224160425947232D+03
 0.158512795186336D+03 0.155673035296206D+02 -.685278212557582D+02 0.675492635973240D+02
 0.124832519322405D+03 -.428451875814663D+02 0.814587282781365D+02 0.253910892721413D+02
 0.965603358422420D+02 0.250366298373285D+02 -.769132191852825D+01 -.929403528694653D+02
 0.344449491371757D+02 0.224125421451733D+01 -.523958510385004D+01 -.339702524063046D+02
-.221839761594D-04 0.000000000000D+00 0.000000000000D+00 0.271954916740D-05 0.000000000000D+00  6 1 21 25 -24 2 21 4 0.11370577D+00 0.88668399D-02 0.22128439D+05 0.22128439D+05 0.22128439D+05 0.12290199D+01  1  2 13  2  6  2       21 -.147910708213D+00 0.100000000000D+01
-.160112541123D-04 0.000000000000D+00 0.000000000000D+00 0.271954916740D-05 0.000000000000D+00  6 1 21 25 -24 2 21 4 0.11370577D+00 0.93732110D-02 0.22128439D+05 0.22128439D+05 0.22128439D+05 0.12290199D+01  1  2 13  2  6  2       21 -.968940867474D-01 0.100000000000D+01
0.195499915239D-04 0.000000000000D+00 0.000000000000D+00 0.272660546080D-05 0.199384026035D-05  6 1 21 25 -24 2 21 4 0.11386066D+00 0.88623031D-02 0.22128439D+05 0.22128439D+05 0.22128439D+05 0.12290199D+01  1  2  1  2  6  2       21 0.130205306746D+00 0.100000000000D+01
  </mgrwgt>
  </event>
  <event>
  5     66 0.59588745E-03 0.14754784E+03 0.75467711E-02 0.11068555E+00
        1 -1    0    0  502    0 0.00000000E+00 0.00000000E+00 0.14916654E+03 0.14916688E+03 0.32000000E+00 0.0000E+00 0.9000E+01
       21 -1    0    0  501  502 0.00000000E+00 0.00000000E+00 -.76979560E+03 0.76979597E+03 0.75000000E+00 0.0000E+00 0.9000E+01
       25  1    1    2    0    0 -.46533431E+02 0.12233342E+03 -.49844120E+03 0.53028243E+03 0.12500000E+03 0.0000E+00 0.9000E+01
      -24  1    1    2    0    0 -.12037173E+03 -.31213686E+02 -.13184416E+03 0.19827694E+03 0.80419002E+02 0.0000E+00 0.9000E+01
        2  1    1    2  501    0 0.16690516E+03 -.91119735E+02 0.96562877E+01 0.19040348E+03 0.32000000E+00 0.0000E+00 0.9000E+01
#aMCatNLO 1  0  0  2  2 0.18085011D+01 0.00000000D+00  -5  6  0 0.00000000D+00 0.00000000D+00 0.00000000D+00 0.00000000D+00 0.00000000D+00
  <mgrwgt>
 0.4434992343D-01   39    2    0
 0.338862906652471D+03 0.000000000000000D+00 0.000000000000000D+00 0.338862906652471D+03
 0.338862906652471D+03 0.000000000000000D+00 0.000000000000000D+00 -.338862906652471D+03
 0.262588189925203D+03 -.465334770354163D+02 0.122333447033214D+03 -.190254358005699D+03
 0.148117182874966D+03 -.120371756190691D+03 -.312136719112276D+02 0.279837557030044D+01
 0.267020440504773D+03 0.166905233226108D+03 -.911197751219868D+02 0.187455982435398D+03
 0.000000000000000D+00 0.000000000000000D+00 -.000000000000000D+00 -.000000000000000D+00
 0.339241012166332D+03 0.000000000000000D+00 0.000000000000000D+00 0.339241012166332D+03
 0.341033577596289D+03 0.000000000000000D+00 0.000000000000000D+00 -.341033577596289D+03
 0.262851696463011D+03 -.471529417039033D+02 0.122661704219330D+03 -.190254358005699D+03
 0.148362533869940D+03 -.120721289437413D+03 -.310284526310011D+02 0.279837557030044D+01
 0.266513995946590D+03 0.166276225529196D+03 -.907864610410758D+02 0.187455982435398D+03
 0.254636348308018D+01 0.159800561212112D+01 -.846790547253548D+00 -.179256542995665D+01
0.315772011815D-04 0.000000000000D+00 0.000000000000D+00 0.618308535203D-07 0.000000000000D+00  6 1 21 25 -24 2 21 2 0.22948753D-01 0.11843015D+00 0.67401184D+05 0.67401184D+05 0.67401184D+05 0.11796467D+01  1  2  2  2  6  2       21 0.536702758374D-02 0.100000000000D+01
-.407097086557D-05 0.166637468741D-05 -.637452713906D-07 0.618308535203D-07 0.000000000000D+00  6 1 21 25 -24 2 21 4 0.22948753D-01 0.11843015D+00 0.67401184D+05 0.67401184D+05 0.67401184D+05 0.11796467D+01  1  2  3  2  6  2       21 -.962857695282D-03 0.100000000000D+01
0.383828736751D-05 0.000000000000D+00 0.000000000000D+00 0.618308535203D-07 0.000000000000D+00  6 1 21 25 -24 2 21 4 0.22948753D-01 0.11843015D+00 0.67401184D+05 0.67401184D+05 0.67401184D+05 0.11796467D+01  1  2 15  2  6  2       21 0.907823870656D-03 0.100000000000D+01
-.499389955843D-02 0.000000000000D+00 0.000000000000D+00 0.618308535203D-07 0.000000000000D+00  6 1 21 25 -24 2 21 4 0.22948753D-01 0.11843015D+00 0.67401184D+05 0.67401184D+05 0.67401184D+05 0.11796467D+01  1  2  4  2  6  2       21 -.118114690035D+01 0.100000000000D+01
-.162076218963D-01 0.000000000000D+00 -.134495687329D-02 0.618308535203D-07 0.000000000000D+00  6 1 21 25 -24 2 21 4 0.22948753D-01 0.11926625D+00 0.67401184D+05 0.67401184D+05 0.67401184D+05 0.11796467D+01  1  2  5  2  6  2       21 -.376658669810D+01 0.100000000000D+01
0.162155225028D-01 0.000000000000D+00 0.134482375392D-02 0.618308535203D-07 0.000000000000D+00  6 1 21 25 -24 2 21 4 0.22948753D-01 0.11843015D+00 0.67401184D+05 0.67401184D+05 0.67401184D+05 0.11796467D+01  1  2  6  2  6  2       21 0.383526218692D+01 0.100000000000D+01
0.498819450163D-02 0.000000000000D+00 0.000000000000D+00 0.618308535203D-07 0.388085890865D-06  6 1 21 25 -24 2 21 4 0.22974359D-01 0.11918878D+00 0.67849557D+05 0.67849557D+05 0.67849557D+05 0.11793709D+01  1  2 11  2  6  2       21 0.115800013283D+01 0.100000000000D+01
0.247471939398D-08 0.000000000000D+00 0.000000000000D+00 0.618019396895D-07 0.000000000000D+00  6 1 -1 25 -24 2 -1 4 0.22948753D-01 0.11925460D+00 0.67849557D+05 0.67849557D+05 0.67849557D+05 0.11793709D+01  1  2 12  5  6  2       21 0.691448156850D-07 0.100000000000D+01
0.247472976999D-08 0.000000000000D+00 0.000000000000D+00 0.618019396895D-07 0.000000000000D+00  6 1 -1 25 -24 2 -1 4 0.22948753D-01 0.11928712D+00 0.67849557D+05 0.67849557D+05 0.67849557D+05 0.11793709D+01  1  2 12  5  6  2       21 0.691001787053D-07 0.100000000000D+01
-.234911567974D-04 0.000000000000D+00 -.212483241917D-05 0.618308535203D-07 0.000000000000D+00  6 1 -1 25 -24 2 -1 4 0.22948753D-01 0.11926625D+00 0.67401184D+05 0.67401184D+05 0.67401184D+05 0.11796467D+01  1  2  5  5  6  2       21 -.656882317827D-03 0.100000000000D+01
0.758200088440D-05 0.000000000000D+00 0.000000000000D+00 0.618308535203D-07 0.450426771733D-09  6 1 -1 25 -24 2 -1 4 0.22974359D-01 0.11918878D+00 0.67849557D+05 0.67849557D+05 0.67849557D+05 0.11793709D+01  1  2 11  5  6  2       21 0.211820157405D-03 0.100000000000D+01
0.247471939398D-08 0.000000000000D+00 0.000000000000D+00 0.618019396895D-07 0.000000000000D+00  6 1 1 25 -24 2 1 4 0.22948753D-01 0.11925460D+00 0.67849557D+05 0.67849557D+05 0.67849557D+05 0.11793709D+01  1  2 12  6  6  2       21 0.295840555338D-06 0.100000000000D+01
0.247472976999D-08 0.000000000000D+00 0.000000000000D+00 0.618019396895D-07 0.000000000000D+00  6 1 1 25 -24 2 1 4 0.22948753D-01 0.11928712D+00 0.67849557D+05 0.67849557D+05 0.67849557D+05 0.11793709D+01  1  2 12  6  6  2       21 0.295719000968D-06 0.100000000000D+01
-.234911567974D-04 0.000000000000D+00 -.212483241917D-05 0.618308535203D-07 0.000000000000D+00  6 1 1 25 -24 2 1 4 0.22948753D-01 0.11926625D+00 0.67401184D+05 0.67401184D+05 0.67401184D+05 0.11796467D+01  1  2  5  6  6  2       21 -.281069873139D-02 0.100000000000D+01
0.858496103973D-05 0.000000000000D+00 0.000000000000D+00 0.618308535203D-07 0.547233792454D-09  6 1 1 25 -24 2 1 4 0.22974359D-01 0.11918878D+00 0.67849557D+05 0.67849557D+05 0.67849557D+05 0.11793709D+01  1  2 11  6  6  2       21 0.102568352301D-02 0.100000000000D+01
0.247471939398D-08 0.000000000000D+00 0.000000000000D+00 0.618019396895D-07 0.000000000000D+00  6 1 -2 25 -24 2 -2 4 0.22948753D-01 0.11925460D+00 0.67849557D+05 0.67849557D+05 0.67849557D+05 0.11793709D+01  1  2 12  7  6  2       21 0.509829989585D-07 0.100000000000D+01
0.247472976999D-08 0.000000000000D+00 0.000000000000D+00 0.618019396895D-07 0.000000000000D+00  6 1 -2 25 -24 2 -2 4 0.22948753D-01 0.11928712D+00 0.67849557D+05 0.67849557D+05 0.67849557D+05 0.11793709D+01  1  2 12  7  6  2       21 0.509493732121D-07 0.100000000000D+01
-.234911567974D-04 0.000000000000D+00 -.212483241917D-05 0.618308535203D-07 0.000000000000D+00  6 1 -2 25 -24 2 -2 4 0.22948753D-01 0.11926625D+00 0.67401184D+05 0.67401184D+05 0.67401184D+05 0.11796467D+01  1  2  5  7  6  2       21 -.484320287707D-03 0.100000000000D+01
0.137700026180D-04 0.000000000000D+00 0.000000000000D+00 0.618308535203D-07 0.101155711805D-08  6 1 -2 25 -24 2 -2 4 0.22974359D-01 0.11918878D+00 0.67849557D+05 0.67849557D+05 0.67849557D+05 0.11793709D+01  1  2 11  7  6  2       21 0.283658354665D-03 0.100000000000D+01
0.247471939398D-08 0.000000000000D+00 0.000000000000D+00 0.618019396895D-07 0.000000000000D+00  6 1 2 25 -24 2 2 4 0.22948753D-01 0.11925460D+00 0.67849557D+05 0.67849557D+05 0.67849557D+05 0.11793709D+01  1  2 12  8  6  2       21 0.512877785643D-06 0.100000000000D+01
0.247472976999D-08 0.000000000000D+00 0.000000000000D+00 0.618019396895D-07 0.000000000000D+00  6 1 2 25 -24 2 2 4 0.22948753D-01 0.11928712D+00 0.67849557D+05 0.67849557D+05 0.67849557D+05 0.11793709D+01  1  2 12  8  6  2       21 0.512703546368D-06 0.100000000000D+01
-.234911567974D-04 0.000000000000D+00 -.212483241917D-05 0.618308535203D-07 0.000000000000D+00  6 1 2 25 -24 2 2 4 0.22948753D-01 0.11926625D+00 0.67401184D+05 0.67401184D+05 0.67401184D+05 0.11796467D+01  1  2  5  8  6  2       21 -.487266832058D-02 0.100000000000D+01
0.760215042054D-05 0.000000000000D+00 0.000000000000D+00 0.618308535203D-07 0.225827180173D-09  6 1 2 25 -24 2 2 4 0.22974359D-01 0.11918878D+00 0.67849557D+05 0.67849557D+05 0.67849557D+05 0.11793709D+01  1  2 11  8  6  2       21 0.157436382759D-02 0.100000000000D+01
0.247471939398D-08 0.000000000000D+00 0.000000000000D+00 0.618019396895D-07 0.000000000000D+00  6 1 -3 25 -24 2 -3 4 0.22948753D-01 0.11925460D+00 0.67849557D+05 0.67849557D+05 0.67849557D+05 0.11793709D+01  1  2 12  9  6  2       21 0.328808997531D-07 0.100000000000D+01
0.247471939398D-08 0.000000000000D+00 0.000000000000D+00 0.618019396895D-07 0.000000000000D+00  6 1 -4 25 -24 2 -4 4 0.22948753D-01 0.11925460D+00 0.67849557D+05 0.67849557D+05 0.67849557D+05 0.11793709D+01  1  2 12  9  6  2       21 0.263602343695D-07 0.100000000000D+01
0.247472976999D-08 0.000000000000D+00 0.000000000000D+00 0.618019396895D-07 0.000000000000D+00  6 1 -3 25 -24 2 -3 4 0.22948753D-01 0.11928712D+00 0.67849557D+05 0.67849557D+05 0.67849557D+05 0.11793709D+01  1  2 12  9  6  2       21 0.328595456123D-07 0.100000000000D+01
0.247472976999D-08 0.000000000000D+00 0.000000000000D+00 0.618019396895D-07 0.000000000000D+00  6 1 -4 25 -24 2 -4 4 0.22948753D-01 0.11928712D+00 0.67849557D+05 0.67849557D+05 0.67849557D+05 0.11793709D+01  1  2 12  9  6  2       21 0.263427663081D-07 0.100000000000D+01
-.234911567974D-04 0.000000000000D+00 -.212483241917D-05 0.618308535203D-07 0.000000000000D+00  6 1 -3 25 -24 2 -3 4 0.22948753D-01 0.11926625D+00 0.67401184D+05 0.67401184D+05 0.67401184D+05 0.11796467D+01  1  2  5  9  6  2       21 -.312327169088D-03 0.100000000000D+01
-.234911567974D-04 0.000000000000D+00 -.212483241917D-05 0.618308535203D-07 0.000000000000D+00  6 1 -4 25 -24 2 -4 4 0.22948753D-01 0.11926625D+00 0.67401184D+05 0.67401184D+05 0.67401184D+05 0.11796467D+01  1  2  5  9  6  2       21 -.250374353014D-03 0.100000000000D+01
0.756446776842D-05 0.000000000000D+00 0.000000000000D+00 0.618308535203D-07 0.449385175332D-09  6 1 -3 25 -24 2 -3 4 0.22974359D-01 0.11918878D+00 0.67849557D+05 0.67849557D+05 0.67849557D+05 0.11793709D+01  1  2 11  9  6  2       21 0.100496134675D-03 0.100000000000D+01
0.756446776842D-05 0.000000000000D+00 0.000000000000D+00 0.618308535203D-07 0.449385175332D-09  6 1 -4 25 -24 2 -4 4 0.22974359D-01 0.11918878D+00 0.67849557D+05 0.67849557D+05 0.67849557D+05 0.11793709D+01  1  2 11  9  6  2       21 0.805687398844D-04 0.100000000000D+01
0.247471939398D-08 0.000000000000D+00 0.000000000000D+00 0.618019396895D-07 0.000000000000D+00  6 1 3 25 -24 2 3 4 0.22948753D-01 0.11925460D+00 0.67849557D+05 0.67849557D+05 0.67849557D+05 0.11793709D+01  1  2 12 10  6  2       21 0.329691544593D-07 0.100000000000D+01
0.247471939398D-08 0.000000000000D+00 0.000000000000D+00 0.618019396895D-07 0.000000000000D+00  6 1 4 25 -24 2 4 4 0.22948753D-01 0.11925460D+00 0.67849557D+05 0.67849557D+05 0.67849557D+05 0.11793709D+01  1  2 12 10  6  2       21 0.263602343695D-07 0.100000000000D+01
0.247472976999D-08 0.000000000000D+00 0.000000000000D+00 0.618019396895D-07 0.000000000000D+00  6 1 3 25 -24 2 3 4 0.22948753D-01 0.11928712D+00 0.67849557D+05 0.67849557D+05 0.67849557D+05 0.11793709D+01  1  2 12 10  6  2       21 0.329477841741D-07 0.100000000000D+01
0.247472976999D-08 0.000000000000D+00 0.000000000000D+00 0.618019396895D-07 0.000000000000D+00  6 1 4 25 -24 2 4 4 0.22948753D-01 0.11928712D+00 0.67849557D+05 0.67849557D+05 0.67849557D+05 0.11793709D+01  1  2 12 10  6  2       21 0.263427663081D-07 0.100000000000D+01
-.234911567974D-04 0.000000000000D+00 -.212483241917D-05 0.618308535203D-07 0.000000000000D+00  6 1 3 25 -24 2 3 4 0.22948753D-01 0.11926625D+00 0.67401184D+05 0.67401184D+05 0.67401184D+05 0.11796467D+01  1  2  5 10  6  2       21 -.313165587493D-03 0.100000000000D+01
-.234911567974D-04 0.000000000000D+00 -.212483241917D-05 0.618308535203D-07 0.000000000000D+00  6 1 4 25 -24 2 4 4 0.22948753D-01 0.11926625D+00 0.67401184D+05 0.67401184D+05 0.67401184D+05 0.11796467D+01  1  2  5 10  6  2       21 -.250374353014D-03 0.100000000000D+01
0.756446776842D-05 0.000000000000D+00 0.000000000000D+00 0.618308535203D-07 0.449385175332D-09  6 1 3 25 -24 2 3 4 0.22974359D-01 0.11918878D+00 0.67849557D+05 0.67849557D+05 0.67849557D+05 0.11793709D+01  1  2 11 10  6  2       21 0.100765618686D-03 0.100000000000D+01
0.756446776842D-05 0.000000000000D+00 0.000000000000D+00 0.618308535203D-07 0.449385175332D-09  6 1 4 25 -24 2 4 4 0.22974359D-01 0.11918878D+00 0.67849557D+05 0.67849557D+05 0.67849557D+05 0.11793709D+01  1  2 11 10  6  2       21 0.805687398844D-04 0.100000000000D+01
  </mgrwgt>
  </event>
  <event>
  5     66 0.59588745E-03 0.12869394E+03 0.75467711E-02 0.11143819E+00
        1 -1    0    0  502    0 0.00000000E+00 0.00000000E+00 0.41738256E+03 0.41738268E+03 0.32000000E+00 0.0000E+00 0.9000E+01
       21 -1    0    0  501  502 0.00000000E+00 0.00000000E+00 -.18243922E+03 0.18244076E+03 0.75000000E+00 0.0000E+00 0.9000E+01
       25  1    1    2    0    0 0.74585010E+02 0.88365950E+02 -.28770165E+02 0.17269681E+03 0.12500000E+03 0.0000E+00 0.9000E+01
      -24  1    1    2    0    0 -.16684265E+03 0.16394014E+02 0.97097644E+02 0.20976272E+03 0.80419002E+02 0.0000E+00 0.9000E+01
        2  1    1    2  501    0 0.92257636E+02 -.10475996E+03 0.16661586E+03 0.21736391E+03 0.32000000E+00 0.0000E+00 0.9000E+01
#aMCatNLO 1  0  0  5  2 0.34131077D+01 0.00000000D+00  -5  6  0 0.00000000D+00 0.00000000D+00 0.00000000D+00 0.00000000D+00 0.00000000D+00
  <mgrwgt>
 0.1174344191D-01    8    2    0
 0.275948268047154D+03 0.000000000000000D+00 0.000000000000000D+00 0.275948268047154D+03
 0.275948268047154D+03 -.000000000000000D+00 -.000000000000000D+00 -.275948268047154D+03
 0.199941413178345D+03 0.745849477820421D+02 0.883660207762849D+02 -.104785975398758D+03
 0.186644012326401D+03 -.166842704812946D+03 0.163940800971800D+02 0.162332181465849D+02
 0.165311110589561D+03 0.922577570309035D+02 -.104760100873465D+03 0.885527572521730D+02
 0.000000000000000D+00 0.000000000000000D+00 0.000000000000000D+00 0.000000000000000D+00
 0.275948268047154D+03 0.000000000000000D+00 0.000000000000000D+00 0.275948268047154D+03
 0.275948268047154D+03 -.000000000000000D+00 -.000000000000000D+00 -.275948268047154D+03
 0.199576441967352D+03 0.751663348365940D+02 0.877058468414147D+02 -.104227936396205D+03
 0.186152129261405D+03 -.166300203775972D+03 0.157780618328481D+02 0.167539327637861D+02
 0.162695886168039D+03 0.903881812246667D+02 -.105462825616923D+03 0.847202483695304D+02
 0.347207869751011D+01 0.745687714711111D+00 0.197891694266006D+01 0.275375526288837D+01
0.947139396137D-05 0.000000000000D+00 0.000000000000D+00 0.600656188663D-07 0.000000000000D+00  6 1 21 25 -24 2 21 2 0.64212829D-01 0.28067700D-01 0.61457660D+05 0.61457660D+05 0.61457660D+05 0.11835082D+01  1  2  2  3  6  5        2 0.100190286150D-01 0.100000000000D+01
-.109381015893D-05 0.499819191098D-06 -.191200155784D-07 0.600656188663D-07 0.000000000000D+00  6 1 21 25 -24 2 21 4 0.64212829D-01 0.28067700D-01 0.61457660D+05 0.61457660D+05 0.61457660D+05 0.11835082D+01  1  2  3  3  6  5        2 -.162067602145D-02 0.100000000000D+01
0.953208308199D-06 0.000000000000D+00 0.000000000000D+00 0.600656188663D-07 0.000000000000D+00  6 1 21 25 -24 2 21 4 0.64212829D-01 0.28067700D-01 0.61457660D+05 0.61457660D+05 0.61457660D+05 0.11835082D+01  1  2 15  3  6  5        2 0.141234915029D-02 0.100000000000D+01
0.105080394739D-06 0.000000000000D+00 0.000000000000D+00 0.600519773546D-07 0.000000000000D+00  6 1 21 25 -24 2 21 4 0.64212829D-01 0.28067700D-01 0.61654481D+05 0.61654481D+05 0.61654481D+05 0.11833738D+01  1  2 12  3  6  5        2 0.155611456202D-03 0.100000000000D+01
-.121737979214D-03 0.000000000000D+00 0.000000000000D+00 0.600656188663D-07 0.000000000000D+00  6 1 21 25 -24 2 21 4 0.64212829D-01 0.28067700D-01 0.61457660D+05 0.61457660D+05 0.61457660D+05 0.11835082D+01  1  2  4  3  6  5        2 -.180376660613D+00 0.100000000000D+01
-.103858945787D-03 0.000000000000D+00 0.000000000000D+00 0.600656188663D-07 0.000000000000D+00  6 1 21 25 -24 2 21 4 0.64212829D-01 0.28067700D-01 0.61457660D+05 0.61457660D+05 0.61457660D+05 0.11835082D+01  1  2  5  3  6  5        2 -.153885664414D+00 0.100000000000D+01
0.106063229221D-03 0.000000000000D+00 -.000000000000D+00 0.600656188663D-07 0.000000000000D+00  6 1 21 25 -24 2 21 4 0.64212829D-01 0.28067700D-01 0.61457660D+05 0.61457660D+05 0.61457660D+05 0.11835082D+01  1  2  6  3  6  5        2 0.157151705854D+00 0.100000000000D+01
0.120798272955D-03 0.000000000000D+00 0.000000000000D+00 0.600656188663D-07 0.128272043189D-06  6 1 21 25 -24 2 21 4 0.64212829D-01 0.28067700D-01 0.61654481D+05 0.61654481D+05 0.61654481D+05 0.11833738D+01  1  2 11  3  6  5        2 0.178887747881D+00 0.100000000000D+01
  </mgrwgt>
  </event>
  <event>
  6     66 -.59588745E-03 0.42760954E+02 0.75467711E-02 0.11864750E+00
        1 -1    0    0  502    0 0.00000000E+00 0.00000000E+00 0.58671841E+03 0.58671849E+03 0.32000000E+00 0.0000E+00 0.9000E+01
       21 -1    0    0  501  503 0.00000000E+00 0.00000000E+00 -.49653333E+02 0.49658997E+02 0.75000000E+00 0.0000E+00 0.9000E+01
       25  1    1    2    0    0 0.87905008E+02 -.32567675E+02 0.23868309E+03 0.28527629E+03 0.12500000E+03 0.0000E+00 0.9000E+01
      -24  1    1    2    0    0 -.75561749E+02 -.71954064E+01 0.20717597E+03 0.23484133E+03 0.80419002E+02 0.0000E+00 0.9000E+01
        2  1    1    2  501    0 -.62270792E+01 0.47143028E+02 0.94749615E+02 0.10601336E+03 0.32000000E+00 0.0000E+00 0.9000E+01
       21  1    1    2  502  503 -.61161806E+01 -.73799459E+01 -.35436023E+01 0.10246506E+02 0.75000000E+00 0.0000E+00 0.9000E+01
#aMCatNLO 2  0  0  2  5 0.95849500D+01 0.00000000D+00  -5  6  0 0.00000000D+00 0.00000000D+00 0.00000000D+00 0.00000000D+00 0.00000000D+00
  <mgrwgt>
 -.1006191607D-01    3    2    0
 0.157868931922748D+03 0.000000000000000D+00 0.000000000000000D+00 0.157868931922748D+03
 0.157868931922748D+03 0.000000000000000D+00 0.000000000000000D+00 -.157868931922748D+03
 0.156107139044276D+03 0.848734101301830D+02 -.362263083491950D+02 -.151194476371205D+02
 0.112610990803145D+03 -.777262861086183D+02 -.980764609926841D+01 0.874378756879634D+01
 0.470197339980742D+02 -.714712402156472D+01 0.460339544484634D+02 0.637566006832412D+01
 0.000000000000000D+00 -.000000000000000D+00 -.000000000000000D+00 -.000000000000000D+00
 0.158843726370156D+03 0.000000000000000D+00 0.000000000000000D+00 0.158843726370156D+03
 0.183402953373275D+03 0.000000000000000D+00 0.000000000000000D+00 -.183402953373275D+03
 0.156976401844778D+03 0.879050935832536D+02 -.325681986207567D+02 -.151194476371205D+02
 0.110927986186871D+03 -.755616899892167D+02 -.719578696387521D+01 0.874378756879634D+01
 0.479789289259029D+02 -.622722298290709D+01 0.471439314598515D+02 0.637566006832412D+01
 0.263633627858789D+02 -.611618061112980D+01 -.737994587521959D+01 -.245592270031191D+02
-.394375124987D-05 0.000000000000D+00 0.000000000000D+00 0.272939176840D-06 0.000000000000D+00  6 1 21 25 -24 2 21 4 0.89707878D-01 0.76574072D-02 0.26238783D+05 0.26238783D+05 0.26238783D+05 0.12210522D+01  1  2 13  2  6  2       21 -.461132880611D-01 0.100000000000D+01
-.357680191766D-05 0.000000000000D+00 0.000000000000D+00 0.272939176840D-06 0.000000000000D+00  6 1 21 25 -24 2 21 4 0.89707878D-01 0.77625904D-02 0.26238783D+05 0.26238783D+05 0.26238783D+05 0.12210522D+01  1  2 13  2  6  2       21 -.408471758162D-01 0.100000000000D+01
0.660461993101D-05 0.000000000000D+00 0.000000000000D+00 0.274208572601D-06 0.499924376777D-07  6 1 21 25 -24 2 21 4 0.90261798D-01 0.76391616D-02 0.26238783D+05 0.26238783D+05 0.26238783D+05 0.12210522D+01  1  2  1  2  6  2       21 0.768985478038D-01 0.100000000000D+01
  </mgrwgt>
  </event>
  <event>
  6     66 0.59588745E-03 0.21056606E+02 0.75467711E-02 0.11612681E+00
        1 -1    0    0  502    0 0.00000000E+00 0.00000000E+00 0.56024679E+03 0.56024688E+03 0.32000000E+00 0.0000E+00 0.9000E+01
       21 -1    0    0  501  502 0.00000000E+00 0.00000000E+00 -.80516793E+02 0.80520286E+02 0.75000000E+00 0.0000E+00 0.9000E+01
       25  1    1    2    0    0 -.84285109E+02 0.58525483E+02 0.26511739E+03 0.31055022E+03 0.12500000E+03 0.0000E+00 0.9000E+01
      -24  1    1    2    0    0 0.12951211E+03 -.32891526E+02 0.20768028E+03 0.25971823E+03 0.80419002E+02 0.0000E+00 0.9000E+01
        2  1    1    2  503    0 -.22279465E+02 -.24664397E+02 0.24732624E+02 0.41430812E+02 0.32000000E+00 0.0000E+00 0.9000E+01
       21  1    1    2  501  503 -.22947538E+02 -.96955979E+00 -.17800305E+02 0.29067902E+02 0.75000000E+00 0.0000E+00 0.9000E+01
#aMCatNLO 2  0  0  5  2 0.21947357D+02 0.00000000D+00  -5  6  0 0.00000000D+00 0.00000000D+00 0.00000000D+00 0.00000000D+00 0.00000000D+00
  <mgrwgt>
 0.6376413671D-01    1    2    0
 0.212392144428912D+03 0.000000000000000D+00 0.000000000000000D+00 0.212392144428912D+03
 0.212392144428912D+03 -.000000000000000D+00 -.000000000000000D+00 -.212392144428912D+03
 0.169470720151336D+03 -.817510560408308D+02 0.599617447958691D+02 0.530723938206703D+02
 0.159410999404595D+03 0.131882444108411D+03 -.315480593974285D+02 0.235879558472020D+02
 0.959025693018928D+02 -.501313880675802D+02 -.284136853984406D+02 -.766603496678724D+02
 0.000000000000000D+00 0.000000000000000D+00 0.000000000000000D+00 -.000000000000000D+00
 0.212392144428912D+03 0.000000000000000D+00 0.000000000000000D+00 0.212392144428912D+03
 0.212392144428912D+03 -.000000000000000D+00 -.000000000000000D+00 -.212392144428912D+03
 0.169043720417963D+03 -.842605160243536D+02 0.585394221904054D+02 0.492349560949273D+02
 0.157249672047777D+03 0.129534989500481D+03 -.328785598939821D+02 0.199982549031393D+02
 0.340087295364561D+02 -.219129971162922D+02 -.243467373437029D+02 -.914607143980041D+01
 0.644821668556282D+02 -.233614763598353D+02 -.131412495272033D+01 -.600871395582663D+02
0.125919082420D-04 0.000000000000D+00 0.000000000000D+00 0.412594623099D-06 0.150642210853D-07  6 1 21 25 -24 2 21 4 0.86192089D-01 0.12387475D-01 0.34939448D+05 0.34939448D+05 0.34939448D+05 0.12080118D+01  1  2  1  3  6  5        2 0.637641367138D-01 0.100000000000D+01
  </mgrwgt>
  </event>
  <event>
  5     66 -.59588745E-03 0.13570619E+03 0.75467711E-02 0.11151159E+00
        1 -1    0    0  502    0 0.00000000E+00 0.00000000E+00 0.17433766E+03 0.17433795E+03 0.32000000E+00 0.0000E+00 0.9000E+01
       21 -1    0    0  501  502 -.00000000E+00 -.00000000E+00 -.38188661E+03 0.38188735E+03 0.75000000E+00 0.0000E+00 0.9000E+01
       25  1    1    2    0    0 -.63064504E+02 0.71853696E+02 -.51814227E+01 0.15745454E+03 0.12500000E+03 0.0000E+00 0.9000E+01
      -24  1    1    2    0    0 -.10231423E+02 -.18606321E+03 -.87654089E+02 0.22107613E+03 0.80419002E+02 0.0000E+00 0.9000E+01
        2  1    1    2  501    0 0.73295927E+02 0.11420951E+03 -.11471344E+03 0.17769463E+03 0.32000000E+00 0.0000E+00 0.9000E+01
#aMCatNLO 1  0  0  5  2 0.12292192D+02 0.00000000D+00  -5  6  0 0.00000000D+00 0.00000000D+00 0.00000000D+00 0.00000000D+00 0.00000000D+00
  <mgrwgt>
 -.2695261106D-01    7    2    0
 0.258026167344417D+03 0.000000000000000D+00 0.000000000000000D+00 0.258026167344417D+03
 0.258026167344417D+03 -.000000000000000D+00 -.000000000000000D+00 -.258026167344417D+03
 0.167627956577681D+03 -.630645614521707D+02 0.718536063474357D+02 0.577412518925777D+02
 0.203033036213349D+03 -.102314928411441D+02 -.186063314785815D+03 -.556392710205018D+01
 0.145391341897805D+03 0.732960542933149D+02 0.114209708438379D+03 -.521773247905276D+02
 0.000000000000000D+00 0.000000000000000D+00 0.000000000000000D+00 -.000000000000000D+00
 0.258026167344417D+03 0.000000000000000D+00 0.000000000000000D+00 0.258026167344417D+03
 0.258026167344417D+03 -.000000000000000D+00 -.000000000000000D+00 -.258026167344417D+03
 0.167666659343259D+03 -.623580130843009D+02 0.729545480539169D+02 0.572382807023001D+02
 0.201791801751713D+03 -.937842716410737D+01 -.184734070214705D+03 -.617119969438204D+01
 0.124258292824881D+03 0.706315556316831D+02 0.959118936337180D+02 -.353866548913120D+02
 0.223355807689817D+02 0.110488461672525D+01 0.158676285270700D+02 -.156804261166061D+02
0.298702231412D-05 0.000000000000D+00 0.000000000000D+00 0.890650120996D-07 0.000000000000D+00  6 1 21 25 -24 2 21 2 0.26821257D-01 0.58751865D-01 0.61511990D+05 0.61511990D+05 0.61511990D+05 0.11834710D+01  1  2  2  3  6  5        2 0.211344370491D-02 0.100000000000D+01
-.178346431174D-06 0.157629498142D-06 -.602993745293D-08 0.890650120996D-07 0.000000000000D+00  6 1 21 25 -24 2 21 4 0.26821257D-01 0.58751865D-01 0.61511990D+05 0.61511990D+05 0.61511990D+05 0.11834710D+01  1  2  3  3  6  5        2 -.176738805558D-03 0.100000000000D+01
0.345694070675D-06 0.000000000000D+00 0.000000000000D+00 0.890650120996D-07 0.000000000000D+00  6 1 21 25 -24 2 21 4 0.26821257D-01 0.58751865D-01 0.61511990D+05 0.61511990D+05 0.61511990D+05 0.11834710D+01  1  2 15  3  6  5        2 0.342577963223D-03 0.100000000000D+01
0.146787422836D-04 0.000000000000D+00 0.000000000000D+00 0.891090333895D-07 0.000000000000D+00  6 1 21 25 -24 2 21 4 0.26821257D-01 0.58751865D-01 0.61085725D+05 0.61085725D+05 0.61085725D+05 0.11837635D+01  1  2 12  3  6  5        2 0.145637490039D-01 0.100000000000D+01
-.466222859783D-04 0.000000000000D+00 0.000000000000D+00 0.890650120996D-07 0.000000000000D+00  6 1 21 25 -24 2 21 4 0.26821257D-01 0.58751865D-01 0.61511990D+05 0.61511990D+05 0.61511990D+05 0.11834710D+01  1  2  4  3  6  5        2 -.462020298469D-01 0.100000000000D+01
-.146935110810D-04 0.000000000000D+00 0.000000000000D+00 0.890650120996D-07 0.000000000000D+00  6 1 21 25 -24 2 21 4 0.26821257D-01 0.58751865D-01 0.61511990D+05 0.61511990D+05 0.61511990D+05 0.11834710D+01  1  2  5  3  6  5        2 -.145610628753D-01 0.100000000000D+01
0.171217866257D-04 0.000000000000D+00 -.000000000000D+00 0.890650120996D-07 0.000000000000D+00  6 1 21 25 -24 2 21 4 0.26821257D-01 0.58751865D-01 0.61511990D+05 0.61511990D+05 0.61511990D+05 0.11834710D+01  1  2  6  3  6  5        2 0.169674497960D-01 0.100000000000D+01
  </mgrwgt>
  </event>
  <event>
  5     66 0.59588745E-03 0.43314132E+02 0.75467711E-02 0.11335957E+00
        3 -1    0    0  502    0 0.00000000E+00 0.00000000E+00 0.33650007E+02 0.33653722E+02 0.50000000E+00 0.0000E+00 0.9000E+01
       21 -1    0    0  501  502 0.00000000E+00 0.00000000E+00 -.12668172E+04 0.12668174E+04 0.75000000E+00 0.0000E+00 0.9000E+01
       25  1    1    2    0    0 -.99319954E+01 0.14539644E+03 -.74140968E+03 0.76586689E+03 0.12500000E+03 0.0000E+00 0.9000E+01
      -24  1    1    2    0    0 -.32811566E+02 -.13854283E+03 -.34876683E+03 0.38519635E+03 0.80419002E+02 0.0000E+00 0.9000E+01
        4  1    1    2  501    0 0.42743562E+02 -.68536186E+01 -.14299068E+03 0.14940790E+03 0.15500000E+01 0.0000E+00 0.9000E+01
#aMCatNLO 1  0  0  1  2 0.39996567D+02 0.00000000D+00  -5  6  0 0.00000000D+00 0.00000000D+00 0.00000000D+00 0.00000000D+00 0.00000000D+00
  <mgrwgt>
 0.1590693503D-01    9    2    0
 0.206472679171163D+03 0.000000000000000D+00 0.000000000000000D+00 0.206472679171163D+03
 0.206472679171163D+03 0.000000000000000D+00 0.000000000000000D+00 -.206472679171163D+03
 0.197862656349246D+03 -.994500089908630D+01 0.145398529956682D+03 -.478016236244412D+02
 0.171570774037702D+03 -.328228438318641D+02 -.138541017744845D+03 0.519457589658387D+02
 0.435119279553778D+02 0.427678447309504D+02 -.685751221183663D+01 -.414413534139747D+01
 0.000000000000000D+00 -.000000000000000D+00 0.000000000000000D+00 0.000000000000000D+00
 0.377176308903945D+03 0.000000000000000D+00 0.000000000000000D+00 0.377176308903945D+03
 0.209795080116591D+03 0.000000000000000D+00 0.000000000000000D+00 -.209795080116591D+03
 0.191748336909948D+03 0.697340516303470D+01 0.137145182587761D+03 -.478016236244412D+02
 0.175399728309576D+03 -.177560516934192D+02 -.145891087769014D+03 0.519457589658387D+02
 0.477297413184744D+02 0.467299085260391D+02 -.879033547418316D+01 -.414413534139747D+01
 0.172093582482537D+03 -.359472619956546D+02 0.175362406554364D+02 0.167381228787353D+03
0.489519859032D-04 0.000000000000D+00 0.000000000000D+00 0.192655871178D-06 0.000000000000D+00  6 3 21 25 -24 4 21 2 0.51772270D-02 0.19489526D+00 0.39767117D+05 0.39767117D+05 0.39767117D+05 0.12022579D+01  1  2  2  1  6  1        3 0.108580145614D-01 0.100000000000D+01
0.759527491544D-06 0.258326726737D-05 -.988199558462D-07 0.192655871178D-06 0.000000000000D+00  6 3 21 25 -24 4 21 4 0.51772270D-02 0.19489526D+00 0.39767117D+05 0.39767117D+05 0.39767117D+05 0.12022579D+01  1  2  3  1  6  1        3 0.243511151988D-03 0.100000000000D+01
0.589240853185D-05 0.000000000000D+00 0.000000000000D+00 0.192655871178D-06 0.000000000000D+00  6 3 21 25 -24 4 21 4 0.51772270D-02 0.19489526D+00 0.39767117D+05 0.39767117D+05 0.39767117D+05 0.12022579D+01  1  2 15  1  6  1        3 0.188915767441D-02 0.100000000000D+01
0.831274786876D-03 0.000000000000D+00 0.000000000000D+00 0.189869429969D-06 0.000000000000D+00  6 3 21 25 -24 4 21 4 0.94671629D-02 0.19489526D+00 0.48569926D+05 0.48569926D+05 0.48569926D+05 0.11935319D+01  1  2 12  1  6  1        3 0.962364856115D-01 0.100000000000D+01
-.706657280733D-03 0.000000000000D+00 0.000000000000D+00 0.192655871178D-06 0.000000000000D+00  6 3 21 25 -24 4 21 4 0.51772270D-02 0.19489526D+00 0.39767117D+05 0.39767117D+05 0.39767117D+05 0.12022579D+01  1  2  4  1  6  1        3 -.226560500322D+00 0.100000000000D+01
-.844866927122D-03 0.000000000000D+00 -.411125865816D-04 0.192655871178D-06 0.000000000000D+00  6 3 21 25 -24 4 21 4 0.95757183D-02 0.19489526D+00 0.39767117D+05 0.39767117D+05 0.39767117D+05 0.12022579D+01  1  2  5  1  6  1        3 -.995682972797D-01 0.100000000000D+01
0.733699971234D-03 0.000000000000D+00 0.344002915771D-04 0.192655871178D-06 0.000000000000D+00  6 3 21 25 -24 4 21 4 0.51772270D-02 0.19489526D+00 0.39767117D+05 0.39767117D+05 0.39767117D+05 0.12022579D+01  1  2  6  1  6  1        3 0.235230623247D+00 0.100000000000D+01
0.548462132400D-04 0.000000000000D+00 0.000000000000D+00 0.189869429969D-06 0.000000000000D+00  6 21 21 25 -24 4 -3 4 0.94671629D-02 0.19489526D+00 0.48569926D+05 0.48569926D+05 0.48569926D+05 0.11935319D+01  1  2 12  4  6  1        3 0.141038814791D+00 0.100000000000D+01
-.544067083636D-04 0.000000000000D+00 -.275805372396D-05 0.192655871178D-06 0.000000000000D+00  6 21 21 25 -24 4 -3 4 0.95757183D-02 0.19489526D+00 0.39767117D+05 0.39767117D+05 0.39767117D+05 0.12022579D+01  1  2  5  4  6  1        3 -.143460874410D+00 0.100000000000D+01
  </mgrwgt>
  </event>
  <event>
  5     66 0.59588745E-03 0.15209552E+03 0.75467711E-02 0.10830911E+00
        1 -1    0    0  502    0 0.00000000E+00 0.00000000E+00 0.30669458E+03 0.30669475E+03 0.32000000E+00 0.0000E+00 0.9000E+01
       21 -1    0    0  501  502 0.00000000E+00 0.00000000E+00 -.29617292E+03 0.29617387E+03 0.75000000E+00 0.0000E+00 0.9000E+01
       25  1    1    2    0    0 -.93926361E+02 -.11973402E+03 0.68229805E+02 0.20841954E+03 0.12500000E+03 0.0000E+00 0.9000E+01
      -24  1    1    2    0    0 0.24926009E+02 -.95477492E+02 0.58756625E+02 0.14020276E+03 0.80419002E+02 0.0000E+00 0.9000E+01
        2  1    1    2  501    0 0.69000352E+02 0.21521152E+03 -.11646477E+03 0.25424632E+03 0.32000000E+00 0.0000E+00 0.9000E+01
#aMCatNLO 1  0  0  2  5 0.54946188D+02 0.00000000D+00  -5  6  0 0.00000000D+00 0.00000000D+00 0.00000000D+00 0.00000000D+00 0.00000000D+00
  <mgrwgt>
 0.2131105102D-01   32    2    0
 0.301388396910511D+03 0.000000000000000D+00 0.000000000000000D+00 0.301388396910511D+03
 0.301388396910511D+03 0.000000000000000D+00 0.000000000000000D+00 -.301388396910511D+03
 0.207260365950617D+03 -.939263796744015D+02 -.119734080621144D+03 0.646022014567093D+02
 0.139198536566028D+03 0.249259969540664D+02 -.954775308619004D+02 0.563183132214924D+02
 0.256317891304377D+03 0.690003827203350D+02 0.215211611483044D+03 -.120920514678202D+03
 0.000000000000000D+00 0.000000000000000D+00 -.000000000000000D+00 -.000000000000000D+00
 0.310829161492854D+03 0.000000000000000D+00 0.000000000000000D+00 0.310829161492854D+03
 0.394782098477443D+03 0.000000000000000D+00 0.000000000000000D+00 -.394782098477443D+03
 0.200089180846227D+03 -.991927735207310D+02 -.101970728838848D+03 0.646022014567093D+02
 0.130785546138872D+03 0.214355241575590D+02 -.837042951374001D+02 0.563183132214924D+02
 0.274401199148535D+03 0.621390132304980D+02 0.238354757155910D+03 -.120920514678202D+03
 0.100335333836664D+03 0.156182361326739D+02 -.526797331796619D+02 -.839529369845895D+02
0.808097005757D-05 0.000000000000D+00 0.000000000000D+00 0.277889490452D-06 0.000000000000D+00  6 1 21 25 -24 2 21 2 0.47183867D-01 0.45565150D-01 0.75689442D+05 0.75689442D+05 0.75689442D+05 0.11748501D+01  1  2  2  2  6  2       21 0.469139412150D-02 0.100000000000D+01
-.584514020729D-06 0.426444505839D-06 -.163131503156D-07 0.277889490452D-06 0.000000000000D+00  6 1 21 25 -24 2 21 4 0.47183867D-01 0.45565150D-01 0.75689442D+05 0.75689442D+05 0.75689442D+05 0.11748501D+01  1  2  3  2  6  2       21 -.468379904880D-03 0.100000000000D+01
0.881113981703D-06 0.000000000000D+00 0.000000000000D+00 0.277889490452D-06 0.000000000000D+00  6 1 21 25 -24 2 21 4 0.47183867D-01 0.45565150D-01 0.75689442D+05 0.75689442D+05 0.75689442D+05 0.11748501D+01  1  2 15  2  6  2       21 0.706049929176D-03 0.100000000000D+01
0.303786506405D-04 0.000000000000D+00 0.000000000000D+00 0.274019882646D-06 0.000000000000D+00  6 1 21 25 -24 2 21 4 0.47183867D-01 0.60238653D-01 0.92622675D+05 0.92622675D+05 0.92622675D+05 0.11666415D+01  1  2 12  2  6  2       21 0.129944068351D-01 0.100000000000D+01
0.259861599926D-04 0.000000000000D+00 0.000000000000D+00 0.274019882646D-06 0.000000000000D+00  6 1 21 25 -24 2 21 4 0.47183867D-01 0.62852981D-01 0.92622675D+05 0.92622675D+05 0.92622675D+05 0.11666415D+01  1  2 12  2  6  2       21 0.101317719976D-01 0.100000000000D+01
-.355453044253D-04 0.000000000000D+00 0.000000000000D+00 0.277889490452D-06 0.000000000000D+00  6 1 21 25 -24 2 21 4 0.47183867D-01 0.45565150D-01 0.75689442D+05 0.75689442D+05 0.75689442D+05 0.11748501D+01  1  2  4  2  6  2       21 -.284829887996D-01 0.100000000000D+01
-.790302314979D-04 0.000000000000D+00 -.122005614834D-04 0.277889490452D-06 0.000000000000D+00  6 1 21 25 -24 2 21 4 0.47183867D-01 0.60914672D-01 0.75689442D+05 0.75689442D+05 0.75689442D+05 0.11748501D+01  1  2  5  2  6  2       21 -.342062333265D-01 0.100000000000D+01
0.705894997310D-04 0.000000000000D+00 0.103660137024D-04 0.277889490452D-06 0.000000000000D+00  6 1 21 25 -24 2 21 4 0.47183867D-01 0.45565150D-01 0.75689442D+05 0.75689442D+05 0.75689442D+05 0.11748501D+01  1  2  6  2  6  2       21 0.565644313002D-01 0.100000000000D+01
0.261780858542D-05 0.000000000000D+00 0.000000000000D+00 0.274019882646D-06 0.000000000000D+00  6 1 -1 25 -24 2 -1 4 0.47183867D-01 0.60238653D-01 0.92622675D+05 0.92622675D+05 0.92622675D+05 0.11666415D+01  1  2 12  5  6  2       21 0.119718487698D-03 0.100000000000D+01
0.266553050692D-05 0.000000000000D+00 0.000000000000D+00 0.274019882646D-06 0.000000000000D+00  6 1 -1 25 -24 2 -1 4 0.47183867D-01 0.62852981D-01 0.92622675D+05 0.92622675D+05 0.92622675D+05 0.11666415D+01  1  2 12  5  6  2       21 0.112223453726D-03 0.100000000000D+01
-.638566683704D-05 0.000000000000D+00 -.110328125987D-05 0.277889490452D-06 0.000000000000D+00  6 1 -1 25 -24 2 -1 4 0.47183867D-01 0.60914672D-01 0.75689442D+05 0.75689442D+05 0.75689442D+05 0.11748501D+01  1  2  5  5  6  2       21 -.294650682724D-03 0.100000000000D+01
0.261780858542D-05 0.000000000000D+00 0.000000000000D+00 0.274019882646D-06 0.000000000000D+00  6 1 1 25 -24 2 1 4 0.47183867D-01 0.60238653D-01 0.92622675D+05 0.92622675D+05 0.92622675D+05 0.11666415D+01  1  2 12  6  6  2       21 0.306716156101D-03 0.100000000000D+01
0.266553050692D-05 0.000000000000D+00 0.000000000000D+00 0.274019882646D-06 0.000000000000D+00  6 1 1 25 -24 2 1 4 0.47183867D-01 0.62852981D-01 0.92622675D+05 0.92622675D+05 0.92622675D+05 0.11666415D+01  1  2 12  6  6  2       21 0.295606731069D-03 0.100000000000D+01
-.638566683704D-05 0.000000000000D+00 -.110328125987D-05 0.277889490452D-06 0.000000000000D+00  6 1 1 25 -24 2 1 4 0.47183867D-01 0.60914672D-01 0.75689442D+05 0.75689442D+05 0.75689442D+05 0.11748501D+01  1  2  5  6  6  2       21 -.760026691246D-03 0.100000000000D+01
0.261780858542D-05 0.000000000000D+00 0.000000000000D+00 0.274019882646D-06 0.000000000000D+00  6 1 -2 25 -24 2 -2 4 0.47183867D-01 0.60238653D-01 0.92622675D+05 0.92622675D+05 0.92622675D+05 0.11666415D+01  1  2 12  7  6  2       21 0.957239141181D-04 0.100000000000D+01
0.266553050692D-05 0.000000000000D+00 0.000000000000D+00 0.274019882646D-06 0.000000000000D+00  6 1 -2 25 -24 2 -2 4 0.47183867D-01 0.62852981D-01 0.92622675D+05 0.92622675D+05 0.92622675D+05 0.11666415D+01  1  2 12  7  6  2       21 0.891730252957D-04 0.100000000000D+01
-.638566683704D-05 0.000000000000D+00 -.110328125987D-05 0.277889490452D-06 0.000000000000D+00  6 1 -2 25 -24 2 -2 4 0.47183867D-01 0.60914672D-01 0.75689442D+05 0.75689442D+05 0.75689442D+05 0.11748501D+01  1  2  5  7  6  2       21 -.235053377400D-03 0.100000000000D+01
0.261780858542D-05 0.000000000000D+00 0.000000000000D+00 0.274019882646D-06 0.000000000000D+00  6 1 2 25 -24 2 2 4 0.47183867D-01 0.60238653D-01 0.92622675D+05 0.92622675D+05 0.92622675D+05 0.11666415D+01  1  2 12  8  6  2       21 0.457772476043D-03 0.100000000000D+01
0.266553050692D-05 0.000000000000D+00 0.000000000000D+00 0.274019882646D-06 0.000000000000D+00  6 1 2 25 -24 2 2 4 0.47183867D-01 0.62852981D-01 0.92622675D+05 0.92622675D+05 0.92622675D+05 0.11666415D+01  1  2 12  8  6  2       21 0.444875830512D-03 0.100000000000D+01
-.638566683704D-05 0.000000000000D+00 -.110328125987D-05 0.277889490452D-06 0.000000000000D+00  6 1 2 25 -24 2 2 4 0.47183867D-01 0.60914672D-01 0.75689442D+05 0.75689442D+05 0.75689442D+05 0.11748501D+01  1  2  5  8  6  2       21 -.113599949434D-02 0.100000000000D+01
0.261780858542D-05 0.000000000000D+00 0.000000000000D+00 0.274019882646D-06 0.000000000000D+00  6 1 -3 25 -24 2 -3 4 0.47183867D-01 0.60238653D-01 0.92622675D+05 0.92622675D+05 0.92622675D+05 0.11666415D+01  1  2 12  9  6  2       21 0.614440215885D-04 0.100000000000D+01
0.261780858542D-05 0.000000000000D+00 0.000000000000D+00 0.274019882646D-06 0.000000000000D+00  6 1 -4 25 -24 2 -4 4 0.47183867D-01 0.60238653D-01 0.92622675D+05 0.92622675D+05 0.92622675D+05 0.11666415D+01  1  2 12  9  6  2       21 0.508462192792D-04 0.100000000000D+01
0.266553050692D-05 0.000000000000D+00 0.000000000000D+00 0.274019882646D-06 0.000000000000D+00  6 1 -3 25 -24 2 -3 4 0.47183867D-01 0.62852981D-01 0.92622675D+05 0.92622675D+05 0.92622675D+05 0.11666415D+01  1  2 12  9  6  2       21 0.572184973945D-04 0.100000000000D+01
0.266553050692D-05 0.000000000000D+00 0.000000000000D+00 0.274019882646D-06 0.000000000000D+00  6 1 -4 25 -24 2 -4 4 0.47183867D-01 0.62852981D-01 0.92622675D+05 0.92622675D+05 0.92622675D+05 0.11666415D+01  1  2 12  9  6  2       21 0.472666746414D-04 0.100000000000D+01
-.638566683704D-05 0.000000000000D+00 -.110328125987D-05 0.277889490452D-06 0.000000000000D+00  6 1 -3 25 -24 2 -3 4 0.47183867D-01 0.60914672D-01 0.75689442D+05 0.75689442D+05 0.75689442D+05 0.11748501D+01  1  2  5  9  6  2       21 -.150354447825D-03 0.100000000000D+01
-.638566683704D-05 0.000000000000D+00 -.110328125987D-05 0.277889490452D-06 0.000000000000D+00  6 1 -4 25 -24 2 -4 4 0.47183867D-01 0.60914672D-01 0.75689442D+05 0.75689442D+05 0.75689442D+05 0.11748501D+01  1  2  5  9  6  2       21 -.124151210921D-03 0.100000000000D+01
0.261780858542D-05 0.000000000000D+00 0.000000000000D+00 0.274019882646D-06 0.000000000000D+00  6 1 3 25 -24 2 3 4 0.47183867D-01 0.60238653D-01 0.92622675D+05 0.92622675D+05 0.92622675D+05 0.11666415D+01  1  2 12 10  6  2       21 0.614873224703D-04 0.100000000000D+01
0.261780858542D-05 0.000000000000D+00 0.000000000000D+00 0.274019882646D-06 0.000000000000D+00  6 1 4 25 -24 2 4 4 0.47183867D-01 0.60238653D-01 0.92622675D+05 0.92622675D+05 0.92622675D+05 0.11666415D+01  1  2 12 10  6  2       21 0.508462192792D-04 0.100000000000D+01
0.266553050692D-05 0.000000000000D+00 0.000000000000D+00 0.274019882646D-06 0.000000000000D+00  6 1 3 25 -24 2 3 4 0.47183867D-01 0.62852981D-01 0.92622675D+05 0.92622675D+05 0.92622675D+05 0.11666415D+01  1  2 12 10  6  2       21 0.572629773759D-04 0.100000000000D+01
0.266553050692D-05 0.000000000000D+00 0.000000000000D+00 0.274019882646D-06 0.000000000000D+00  6 1 4 25 -24 2 4 4 0.47183867D-01 0.62852981D-01 0.92622675D+05 0.92622675D+05 0.92622675D+05 0.11666415D+01  1  2 12 10  6  2       21 0.472666746414D-04 0.100000000000D+01
-.638566683704D-05 0.000000000000D+00 -.110328125987D-05 0.277889490452D-06 0.000000000000D+00  6 1 3 25 -24 2 3 4 0.47183867D-01 0.60914672D-01 0.75689442D+05 0.75689442D+05 0.75689442D+05 0.11748501D+01  1  2  5 10  6  2       21 -.150462695029D-03 0.100000000000D+01
-.638566683704D-05 0.000000000000D+00 -.110328125987D-05 0.277889490452D-06 0.000000000000D+00  6 1 4 25 -24 2 4 4 0.47183867D-01 0.60914672D-01 0.75689442D+05 0.75689442D+05 0.75689442D+05 0.11748501D+01  1  2  5 10  6  2       21 -.124151210921D-03 0.100000000000D+01
  </mgrwgt>
  </event>
  <event>
  5     66 -.59588745E-03 0.71166815E+02 0.75467711E-02 0.11754043E+00
        1 -1    0    0  502    0 0.00000000E+00 0.00000000E+00 0.13196854E+04 0.13196854E+04 0.32000000E+00 0.0000E+00 0.9000E+01
       21 -1    0    0  501  502 0.00000000E+00 0.00000000E+00 -.25891436E+02 0.25902297E+02 0.75000000E+00 0.0000E+00 0.9000E+01
       25  1    1    2    0    0 -.64452126E+02 0.84711503E+02 0.43949021E+03 0.46915537E+03 0.12500000E+03 0.0000E+00 0.9000E+01
      -24  1    1    2    0    0 0.41036245E+02 0.31067817E+01 0.59144671E+03 0.59830599E+03 0.80419002E+02 0.0000E+00 0.9000E+01
        2  1    1    2  501    0 0.23415881E+02 -.87818285E+02 0.26285699E+03 0.27812633E+03 0.32000000E+00 0.0000E+00 0.9000E+01
#aMCatNLO 1  0  0  5  2 0.15027707D+02 0.00000000D+00  -5  6  0 0.00000000D+00 0.00000000D+00 0.00000000D+00 0.00000000D+00 0.00000000D+00
  <mgrwgt>
 -.3775284985D-01    7    2    0
 0.184867201333796D+03 0.000000000000000D+00 0.000000000000000D+00 0.184867201333796D+03
 0.184867201333796D+03 -.000000000000000D+00 -.000000000000000D+00 -.184867201333796D+03
 0.169527036287385D+03 -.644521905484007D+02 0.847117445794969D+02 -.422404012314647D+02
 0.107815269733775D+03 0.410362038011575D+02 0.310693532029280D+01 0.588497524540380D+02
 0.923920966464317D+02 0.234159867472431D+02 -.878186798997896D+02 -.166093512225733D+02
 0.000000000000000D+00 0.000000000000000D+00 0.000000000000000D+00 -.000000000000000D+00
 0.184867201333796D+03 0.000000000000000D+00 0.000000000000000D+00 0.184867201333796D+03
 0.184867201333796D+03 -.000000000000000D+00 -.000000000000000D+00 -.184867201333796D+03
 0.167730211759372D+03 -.635748608529758D+02 0.814214311487308D+02 -.428627058649015D+02
 0.107773681750752D+03 0.415970296699515D+02 0.100362923361088D+01 0.584519492809302D+02
 0.722304012995249D+02 0.314347180794101D+02 -.646916213074016D+02 -.663954093128144D+01
 0.220001078579432D+02 -.945688689638579D+01 -.177334390749400D+02 -.894970248474722D+01
0.326272279739D-05 0.000000000000D+00 0.000000000000D+00 0.172007916829D-06 0.000000000000D+00  6 1 21 25 -24 2 21 2 0.20302935D+00 0.39841363D-02 0.29826075D+05 0.29826075D+05 0.29826075D+05 0.12151635D+01  1  2  2  3  6  5        2 0.204174995289D-01 0.100000000000D+01
-.226071877856D-06 0.172178612359D-06 -.658649729583D-08 0.172007916829D-06 0.000000000000D+00  6 1 21 25 -24 2 21 4 0.20302935D+00 0.39841363D-02 0.29826075D+05 0.29826075D+05 0.29826075D+05 0.12151635D+01  1  2  3  3  6  5        2 -.208899961044D-02 0.100000000000D+01
0.312943579550D-06 0.000000000000D+00 0.000000000000D+00 0.172007916829D-06 0.000000000000D+00  6 1 21 25 -24 2 21 4 0.20302935D+00 0.39841363D-02 0.29826075D+05 0.29826075D+05 0.29826075D+05 0.12151635D+01  1  2 15  3  6  5        2 0.289173081574D-02 0.100000000000D+01
0.555595944938D-05 0.000000000000D+00 0.000000000000D+00 0.172058499812D-06 0.000000000000D+00  6 1 21 25 -24 2 21 4 0.20302935D+00 0.39841363D-02 0.29709501D+05 0.29709501D+05 0.29709501D+05 0.12153422D+01  1  2 12  3  6  5        2 0.513722563133D-01 0.100000000000D+01
-.132653148878D-04 0.000000000000D+00 0.000000000000D+00 0.172007916829D-06 0.000000000000D+00  6 1 21 25 -24 2 21 4 0.20302935D+00 0.39841363D-02 0.29826075D+05 0.29826075D+05 0.29826075D+05 0.12151635D+01  1  2  4  3  6  5        2 -.122577110854D+00 0.100000000000D+01
-.498418714090D-05 0.000000000000D+00 0.000000000000D+00 0.172007916829D-06 0.000000000000D+00  6 1 21 25 -24 2 21 4 0.20302935D+00 0.39841363D-02 0.29826075D+05 0.29826075D+05 0.29826075D+05 0.12151635D+01  1  2  5  3  6  5        2 -.460559937592D-01 0.100000000000D+01
0.630791170975D-05 0.000000000000D+00 -.000000000000D+00 0.172007916829D-06 0.000000000000D+00  6 1 21 25 -24 2 21 4 0.20302935D+00 0.39841363D-02 0.29826075D+05 0.29826075D+05 0.29826075D+05 0.12151635D+01  1  2  6  3  6  5        2 0.582877677193D-01 0.100000000000D+01
  </mgrwgt>
  </event>
  <event>
  6     66 0.59588745E-03 0.11212883E+03 0.75467711E-02 0.11415082E+00
        1 -1    0    0  502    0 0.00000000E+00 0.00000000E+00 0.16036788E+04 0.16036788E+04 0.32000000E+00 0.0000E+00 0.9000E+01
       -2 -1    0    0    0  502 0.00000000E+00 0.00000000E+00 -.49601017E+02 0.49602050E+02 0.32000000E+00 0.0000E+00 0.9000E+01
       25  1    1    2    0    0 -.40923236E+01 -.21735747E+02 0.33212472E+03 0.35555733E+03 0.12500000E+03 0.0000E+00 0.9000E+01
      -24  1    1    2    0    0 0.17385010E+02 0.12601752E+03 0.16503423E+03 0.22335212E+03 0.80419002E+02 0.0000E+00 0.9000E+01
        2  1    1    2  501    0 -.36945844E+01 -.12226514E+03 0.10418846E+04 0.10490405E+04 0.32000000E+00 0.0000E+00 0.9000E+01
       -2  1    1    2    0  501 -.95981022E+01 0.17983361E+02 0.15034282E+02 0.25330947E+02 0.32000000E+00 0.0000E+00 0.9000E+01
#aMCatNLO 2  0  0  2  1 0.20384426D+02 0.00000000D+00  -5  6  0 0.00000000D+00 0.00000000D+00 0.00000000D+00 0.00000000D+00 0.00000000D+00
  <mgrwgt>
 0.1346374334D-03    3    2    0
 0.265118166986156D+03 0.000000000000000D+00 0.000000000000000D+00 0.265118166986156D+03
 0.265118166986156D+03 0.000000000000000D+00 0.000000000000000D+00 -.265118166986156D+03
 0.126968944283645D+03 -.639495506593579D+01 -.174214080542320D+02 -.123171386131612D+02
 0.210680793233893D+03 0.136099759153771D+02 0.133090639733234D+03 -.141494985261928D+03
 0.192586596454775D+03 -.721502084944130D+01 -.115669231679002D+03 0.153812123875089D+03
 0.000000000000000D+00 -.000000000000000D+00 0.000000000000000D+00 -.000000000000000D+00
 0.268694852586357D+03 0.000000000000000D+00 0.000000000000000D+00 0.268694852586357D+03
 0.296040431401282D+03 0.000000000000000D+00 0.000000000000000D+00 -.296040431401282D+03
 0.127537837566078D+03 -.409232128091376D+01 -.217357082688670D+02 -.123171386131612D+02
 0.206568916352949D+03 0.173850159009622D+02 0.126017584553550D+03 -.141494985261928D+03
 0.196521265223294D+03 -.369459242782603D+01 -.122265237172267D+03 0.153812123875089D+03
 0.341072648453182D+02 -.959810219222242D+01 0.179833608875837D+02 -.273455788149246D+02
-.604095617286D-06 0.000000000000D+00 0.000000000000D+00 0.685542604005D-07 0.000000000000D+00  6 1 -2 25 -24 2 -2 4 0.24343505D+00 0.76737031D-02 0.44130652D+05 0.44130652D+05 0.44130652D+05 0.11976901D+01  1  2 13  7  6  2       21 -.702555063033D-04 0.100000000000D+01
-.604516376295D-06 0.000000000000D+00 0.000000000000D+00 0.685542604005D-07 0.000000000000D+00  6 1 -2 25 -24 2 -2 4 0.24343505D+00 0.76991183D-02 0.44130652D+05 0.44130652D+05 0.44130652D+05 0.11976901D+01  1  2 13  7  6  2       21 -.699436296648D-04 0.100000000000D+01
0.241912083490D-05 0.000000000000D+00 0.000000000000D+00 0.690902562707D-07 0.175153335189D-09  6 1 -2 25 -24 2 -2 4 0.24671922D+00 0.76309865D-02 0.44130652D+05 0.44130652D+05 0.44130652D+05 0.11976901D+01  1  2  1  7  6  2       21 0.274836569408D-03 0.100000000000D+01
  </mgrwgt>
  </event>
  <event>
  6     66 0.59588745E-03 0.54328798E+02 0.75467711E-02 0.11154991E+00
        1 -1    0    0  502    0 0.00000000E+00 0.00000000E+00 0.15443762E+04 0.15443762E+04 0.32000000E+00 0.0000E+00 0.9000E+01
       21 -1    0    0  501  503 0.00000000E+00 0.00000000E+00 -.19995264E+03 0.19995404E+03 0.75000000E+00 0.0000E+00 0.9000E+01
       25  1    1    2    0    0 0.13063962E+03 0.48884098E+01 0.71220121E+03 0.73481029E+03 0.12500000E+03 0.0000E+00 0.9000E+01
      -24  1    1    2    0    0 -.10740921E+03 0.45153983E+01 0.77123437E+03 0.78283255E+03 0.80419002E+02 0.0000E+00 0.9000E+01
        2  1    1    2  501    0 -.26587167E+02 -.91775009E+02 -.62230472E+02 0.11402747E+03 0.32000000E+00 0.0000E+00 0.9000E+01
       21  1    1    2  502  503 0.33567528E+01 0.82371201E+02 -.76781590E+02 0.11265992E+03 0.75000000E+00 0.0000E+00 0.9000E+01
#aMCatNLO 2  0  0  2  2 0.34130802D+03 0.00000000D+00  -5  6  0 0.00000000D+00 0.00000000D+00 0.00000000D+00 0.00000000D+00 0.00000000D+00
  <mgrwgt>
 0.4910655589D-01    1    2    0
 0.398662690915878D+03 0.000000000000000D+00 0.000000000000000D+00 0.398662690915878D+03
 0.398662690915878D+03 0.000000000000000D+00 0.000000000000000D+00 -.398662690915878D+03
 0.235318434366698D+03 0.131622864102434D+03 0.290160412538426D+02 0.146912411144264D+03
 0.227327291116269D+03 -.106457259211743D+03 0.278751778677678D+02 0.181934899763224D+03
 0.334679656348789D+03 -.251656048906908D+02 -.568912191216104D+02 -.328847310907488D+03
 0.000000000000000D+00 0.000000000000000D+00 0.000000000000000D+00 -.000000000000000D+00
 0.405497791630213D+03 0.000000000000000D+00 0.000000000000000D+00 0.405497791630213D+03
 0.761539932077299D+03 0.000000000000000D+00 0.000000000000000D+00 -.761539932077299D+03
 0.233021168776659D+03 0.130639626281107D+03 0.488841435964626D+01 0.146912411144264D+03
 0.226107607300246D+03 -.107409205915888D+03 0.451540223407513D+01 0.181934899763224D+03
 0.342447200983939D+03 -.265871731960352D+02 -.917750172546565D+02 -.328847310907488D+03
 0.365461746646669D+03 0.335675283081711D+01 0.823712006609351D+02 -.356042140447086D+03
0.334533437964D-03 0.000000000000D+00 0.000000000000D+00 0.330547604706D-05 0.632684167212D-08  6 1 21 25 -24 2 21 4 0.23759622D+00 0.30762026D-01 0.60791213D+05 0.60791213D+05 0.60791213D+05 0.11839669D+01  1  2  1  2  6  2       21 0.491065558894D-01 0.100000000000D+01
  </mgrwgt>
  </event>
  <event>
  5     66 -.59588745E-03 0.50739123E+02 0.75467711E-02 0.11205605E+00
        1 -1    0    0  502    0 0.00000000E+00 0.00000000E+00 0.23925614E+04 0.23925614E+04 0.32000000E+00 0.0000E+00 0.9000E+01
       21 -1    0    0  501  502 0.00000000E+00 0.00000000E+00 -.33744439E+02 0.33752773E+02 0.75000000E+00 0.0000E+00 0.9000E+01
       25  1    1    2    0    0 0.83371231E+00 -.20954819E+03 0.54317843E+03 0.59546531E+03 0.12500000E+03 0.0000E+00 0.9000E+01
      -24  1    1    2    0    0 -.23890120E+02 0.16435095E+03 0.14573413E+04 0.14689768E+04 0.80419002E+02 0.0000E+00 0.9000E+01
        2  1    1    2  501    0 0.23056408E+02 0.45197232E+02 0.35829724E+03 0.36187208E+03 0.32000000E+00 0.0000E+00 0.9000E+01
#aMCatNLO 1  0  0  5  2 0.13663437D+02 0.00000000D+00  -5  6  0 0.00000000D+00 0.00000000D+00 0.00000000D+00 0.00000000D+00 0.00000000D+00
  <mgrwgt>
 -.1124232041D+00    7    2    0
 0.284158014506829D+03 0.000000000000000D+00 0.000000000000000D+00 0.284158014506829D+03
 0.284158014506829D+03 -.000000000000000D+00 -.000000000000000D+00 -.284158014506829D+03
 0.287740724734091D+03 0.833533501920208D+00 -.209548536501752D+03 -.152507182592739D+03
 0.222759398235858D+03 -.238902587105351D+02 0.164350682689007D+03 0.124790393005359D+03
 0.578159060437084D+02 0.230567252086148D+02 0.451978538127447D+02 0.277167895873800D+02
 0.000000000000000D+00 0.000000000000000D+00 0.000000000000000D+00 0.000000000000000D+00
 0.284158014506829D+03 0.000000000000000D+00 0.000000000000000D+00 0.284158014506829D+03
 0.284158014506829D+03 -.000000000000000D+00 -.000000000000000D+00 -.284158014506829D+03
 0.282794742020607D+03 0.324249773500440D+01 -.204826269472851D+03 -.149611335321811D+03
 0.226595444746895D+03 -.219929537964937D+02 0.168069949383091D+03 0.127071167946717D+03
 0.144451677015221D+02 -.654538145299949D+01 0.149169050775934D+01 0.127904539008156D+02
 0.444806745446338D+02 0.252958375144887D+02 0.352646295820005D+02 0.974971347427765D+01
0.623571145208D-04 0.000000000000D+00 0.000000000000D+00 0.447351064172D-07 0.000000000000D+00  6 1 21 25 -24 2 21 2 0.36808701D+00 0.51920949D-02 0.57423425D+05 0.57423425D+05 0.57423425D+05 0.11863733D+01  1  2  2  3  6  5        2 0.466585554323D-01 0.100000000000D+01
-.126289085308D-05 0.329067533946D-05 -.125881048337D-06 0.447351064172D-07 0.000000000000D+00  6 1 21 25 -24 2 21 4 0.36808701D+00 0.51920949D-02 0.57423425D+05 0.57423425D+05 0.57423425D+05 0.11863733D+01  1  2  3  3  6  5        2 -.133000670689D-02 0.100000000000D+01
0.710208234997D-05 0.000000000000D+00 0.000000000000D+00 0.447351064172D-07 0.000000000000D+00  6 1 21 25 -24 2 21 4 0.36808701D+00 0.51920949D-02 0.57423425D+05 0.57423425D+05 0.57423425D+05 0.11863733D+01  1  2 15  3  6  5        2 0.747951981387D-02 0.100000000000D+01
0.103573821739D-04 0.000000000000D+00 0.000000000000D+00 0.447559631734D-07 0.000000000000D+00  6 1 21 25 -24 2 21 4 0.36808701D+00 0.51920949D-02 0.57049884D+05 0.57049884D+05 0.57049884D+05 0.11866498D+01  1  2 12  3  6  5        2 0.109213833175D-01 0.100000000000D+01
-.186203602816D-03 0.000000000000D+00 0.000000000000D+00 0.447351064172D-07 0.000000000000D+00  6 1 21 25 -24 2 21 4 0.36808701D+00 0.51920949D-02 0.57423425D+05 0.57423425D+05 0.57423425D+05 0.11863733D+01  1  2  4  3  6  5        2 -.196099322430D+00 0.100000000000D+01
-.856023270741D-05 0.000000000000D+00 0.000000000000D+00 0.447351064172D-07 0.000000000000D+00  6 1 21 25 -24 2 21 4 0.36808701D+00 0.51920949D-02 0.57423425D+05 0.57423425D+05 0.57423425D+05 0.11863733D+01  1  2  5  3  6  5        2 -.901516301717D-02 0.100000000000D+01
0.275003346413D-04 0.000000000000D+00 -.000000000000D+00 0.447351064172D-07 0.000000000000D+00  6 1 21 25 -24 2 21 4 0.36808701D+00 0.51920949D-02 0.57423425D+05 0.57423425D+05 0.57423425D+05 0.11863733D+01  1  2  6  3  6  5        2 0.289618294610D-01 0.100000000000D+01
  </mgrwgt>
  </event>
  <event>
  5     66 0.59588745E-03 0.73198461E+02 0.75467711E-02 0.11089324E+00
        1 -1    0    0  502    0 0.00000000E+00 0.00000000E+00 0.57061585E+02 0.57062482E+02 0.32000000E+00 0.0000E+00 0.9000E+01
       21 -1    0    0  501  502 0.00000000E+00 0.00000000E+00 -.63563460E+03 0.63563504E+03 0.75000000E+00 0.0000E+00 0.9000E+01
       25  1    1    2    0    0 -.52780923E+01 0.12395033E+03 -.34788068E+03 0.38991988E+03 0.12500000E+03 0.0000E+00 0.9000E+01
      -24  1    1    2    0    0 -.37386886E+02 -.64472076E+02 -.18910015E+03 0.21858753E+03 0.80419002E+02 0.0000E+00 0.9000E+01
        2  1    1    2  501    0 0.42664979E+02 -.59478251E+02 -.41592184E+02 0.84190112E+02 0.32000000E+00 0.0000E+00 0.9000E+01
#aMCatNLO 1  0  0  2  1 0.67125383D+01 0.00000000D+00  -5  6  0 0.00000000D+00 0.00000000D+00 0.00000000D+00 0.00000000D+00 0.00000000D+00
  <mgrwgt>
 0.2842884919D-01    4    2    0
 0.190448894139967D+03 0.000000000000000D+00 0.000000000000000D+00 0.190448894139967D+03
 0.190448894139967D+03 0.000000000000000D+00 0.000000000000000D+00 -.190448894139967D+03
 0.180684219933530D+03 -.527822039656373D+01 0.123950505713953D+03 -.403757335003181D+02
 0.110283627899250D+03 -.373869645810590D+02 -.644719665711516D+02 -.118677307903691D+02
 0.899299404471551D+02 0.426651849776227D+02 -.594785391428017D+02 0.522434642906872D+02
 0.000000000000000D+00 0.000000000000000D+00 0.000000000000000D+00 0.000000000000000D+00
 0.284180395446210D+03 0.000000000000000D+00 0.000000000000000D+00 0.284180395446210D+03
 0.254592877456244D+03 0.000000000000000D+00 0.000000000000000D+00 -.254592877456244D+03
 0.170976683333005D+03 -.563778838725369D+02 0.938049071100273D+02 -.403757335003181D+02
 0.139306691733715D+03 -.736548044848837D+02 -.858677189029887D+02 -.118677307903691D+02
 0.929329362669210D+02 0.160934751982863D+02 -.751541824394454D+02 0.522434642906872D+02
 0.135556961568813D+03 0.113939213159134D+03 0.672169942324068D+02 0.295875179899659D+02
0.345506232793D-04 0.000000000000D+00 0.000000000000D+00 0.127122932252D-06 0.000000000000D+00  6 1 21 25 -24 2 21 2 0.87788084D-02 0.97790041D-01 0.32212523D+05 0.32212523D+05 0.32212523D+05 0.12116683D+01  1  2  2  2  6  2       21 0.357762793493D-01 0.100000000000D+01
-.347730727572D-05 0.182328648242D-05 -.697477539251D-07 0.127122932252D-06 0.000000000000D+00  6 1 21 25 -24 2 21 4 0.87788084D-02 0.97790041D-01 0.32212523D+05 0.32212523D+05 0.32212523D+05 0.12116683D+01  1  2  3  2  6  2       21 -.528627602865D-02 0.100000000000D+01
0.408174821713D-05 0.000000000000D+00 0.000000000000D+00 0.127122932252D-06 0.000000000000D+00  6 1 21 25 -24 2 21 4 0.87788084D-02 0.97790041D-01 0.32212523D+05 0.32212523D+05 0.32212523D+05 0.12116683D+01  1  2 15  2  6  2       21 0.620515992529D-02 0.100000000000D+01
-.543757341993D-05 0.000000000000D+00 0.000000000000D+00 0.127122932252D-06 0.000000000000D+00  6 1 21 25 -24 2 21 4 0.87788084D-02 0.97790041D-01 0.32212523D+05 0.32212523D+05 0.32212523D+05 0.12116683D+01  1  2  4  2  6  2       21 -.826631405988D-02 0.100000000000D+01
  </mgrwgt>
  </event>
  <event>
  5     66 0.59588745E-03 0.50410620E+02 0.75467711E-02 0.10458274E+00
        1 -1    0    0  502    0 0.00000000E+00 0.00000000E+00 0.22813381E+03 0.22813403E+03 0.32000000E+00 0.0000E+00 0.9000E+01
       21 -1    0    0  501  502 0.00000000E+00 0.00000000E+00 -.21779290E+03 0.21779419E+03 0.75000000E+00 0.0000E+00 0.9000E+01
       25  1    1    2    0    0 0.12632103E+03 0.28565943E+02 0.90069153E+02 0.20127213E+03 0.12500000E+03 0.0000E+00 0.9000E+01
      -24  1    1    2    0    0 -.16172668E+03 0.73170363E+01 -.65627984E+02 0.19231044E+03 0.80419002E+02 0.0000E+00 0.9000E+01
        2  1    1    2  501    0 0.35405646E+02 -.35882979E+02 -.14100261E+02 0.52345656E+02 0.32000000E+00 0.0000E+00 0.9000E+01
#aMCatNLO 1  0  0  2  1 0.29151664D+03 0.00000000D+00  -5  6  0 0.00000000D+00 0.00000000D+00 0.00000000D+00 0.00000000D+00 0.00000000D+00
  <mgrwgt>
 0.4272320925D-01    3    2    0
 0.222904152662363D+03 0.000000000000000D+00 0.000000000000000D+00 0.222904152662363D+03
 0.222904152662363D+03 0.000000000000000D+00 0.000000000000000D+00 -.222904152662363D+03
 0.199236945438995D+03 0.126320740704824D+03 0.285662383552075D+02 0.854248261448580D+02
 0.193884671095273D+03 -.161726962100094D+03 0.731732416140759D+01 -.701063208872322D+02
 0.526866887904583D+02 0.354062213952699D+02 -.358835625166151D+02 -.153185052576258D+02
 0.000000000000000D+00 0.000000000000000D+00 -.000000000000000D+00 0.000000000000000D+00
 0.143956297498393D+04 0.000000000000000D+00 0.000000000000000D+00 0.143956297498393D+04
 0.284438651523987D+03 0.000000000000000D+00 0.000000000000000D+00 -.284438651523987D+03
 0.156537204429284D+03 0.204687391819845D+02 0.340958379418375D+02 0.854248261448580D+02
 0.337516930434169D+03 -.319832668080024D+03 0.155766034745326D+02 -.701063208872322D+02
 0.386061661508349D+02 0.824423836798161D+01 -.344646484860917D+02 -.153185052576258D+02
 0.119134132549363D+04 0.291119690530058D+03 -.152077929302783D+02 0.115512432345995D+04
0.218141791190D-04 0.000000000000D+00 0.000000000000D+00 0.154030707514D-06 0.000000000000D+00  6 1 21 25 -24 2 21 2 0.35097625D-01 0.33506717D-01 0.42265401D+05 0.42265401D+05 0.42265401D+05 0.11995782D+01  1  2  2  2  6  2       21 0.362343731498D-01 0.100000000000D+01
0.174229289963D-06 0.115116585861D-05 -.440365426976D-07 0.154030707514D-06 0.000000000000D+00  6 1 21 25 -24 2 21 4 0.35097625D-01 0.33506717D-01 0.42265401D+05 0.42265401D+05 0.42265401D+05 0.11995782D+01  1  2  3  2  6  2       21 0.416447448804D-03 0.100000000000D+01
0.254050773116D-05 0.000000000000D+00 0.000000000000D+00 0.154030707514D-06 0.000000000000D+00  6 1 21 25 -24 2 21 4 0.35097625D-01 0.33506717D-01 0.42265401D+05 0.42265401D+05 0.42265401D+05 0.11995782D+01  1  2 15  2  6  2       21 0.607238865252D-02 0.100000000000D+01
  </mgrwgt>
  </event>
  <event>
  5     66 0.59588745E-03 0.21371168E+02 0.75467711E-02 0.10712692E+00
        1 -1    0    0  502    0 0.00000000E+00 0.00000000E+00 0.54310423E+03 0.54310432E+03 0.32000000E+00 0.0000E+00 0.9000E+01
       21 -1    0    0  501  502 0.00000000E+00 0.00000000E+00 -.17117881E+03 0.17118045E+03 0.75000000E+00 0.0000E+00 0.9000E+01
       25  1    1    2    0    0 0.28605905E+02 0.86486344E+01 0.45127526E+03 0.46922005E+03 0.12500000E+03 0.0000E+00 0.9000E+01
      -24  1    1    2    0    0 -.80301294E+01 -.14424779E+02 0.61516059E+02 0.10258654E+03 0.80419002E+02 0.0000E+00 0.9000E+01
        2  1    1    2  501    0 -.20575775E+02 0.57761446E+01 -.14086590E+03 0.14247818E+03 0.32000000E+00 0.0000E+00 0.9000E+01
#aMCatNLO 1  0  0  2  1 0.29151664D+03 0.00000000D+00  -5  6  0 0.00000000D+00 0.00000000D+00 0.00000000D+00 0.00000000D+00 0.00000000D+00
  <mgrwgt>
 0.2433167317D+00    3    2    0
 0.304907452101930D+03 0.000000000000000D+00 0.000000000000000D+00 0.304907452101930D+03
 0.304907452101930D+03 0.000000000000000D+00 0.000000000000000D+00 -.304907452101930D+03
 0.274371855387188D+03 0.286059120974809D+02 0.864863235944335D+01 0.242408370276255D+03
 0.826424879951710D+02 -.803012715153557D+01 -.144247796472572D+02 0.948723656918604D+01
 0.252800560821501D+03 -.205757849459454D+02 0.577614728781384D+01 -.251895606845442D+03
 0.000000000000000D+00 0.000000000000000D+00 0.000000000000000D+00 0.000000000000000D+00
 0.524600667335969D+03 0.000000000000000D+00 0.000000000000000D+00 0.524600667335969D+03
 0.436704614401524D+03 0.000000000000000D+00 0.000000000000000D+00 -.436704614401524D+03
 0.293304355286969D+03 -.136871053787390D+02 -.107020044835843D+03 0.242408370276255D+03
 0.982306718634667D+02 -.215055407183573D+02 -.512791673203544D+02 0.948723656918604D+01
 0.278520765966436D+03 -.601602905792613D+02 -.102484924569012D+03 -.251895606845442D+03
 0.291249488620620D+03 0.953529366763576D+02 0.260784136725209D+03 0.878960529344446D+02
0.144896381280D-03 0.000000000000D+00 0.000000000000D+00 0.233743371614D-04 0.000000000000D+00  6 1 21 25 -24 2 21 2 0.83554630D-01 0.26335335D-01 0.13454844D+05 0.13454844D+05 0.13454844D+05 0.12532410D+01  1  2  2  2  6  2       21 0.142969356992D+00 0.100000000000D+01
0.499986140151D-04 0.764639211288D-05 -.292504047305D-06 0.233743371614D-04 0.000000000000D+00  6 1 21 25 -24 2 21 4 0.83554630D-01 0.26335335D-01 0.13454844D+05 0.13454844D+05 0.13454844D+05 0.12532410D+01  1  2  3  2  6  2       21 0.774840986718D-01 0.100000000000D+01
0.147531188243D-04 0.000000000000D+00 0.000000000000D+00 0.233743371614D-04 0.000000000000D+00  6 1 21 25 -24 2 21 4 0.83554630D-01 0.26335335D-01 0.13454844D+05 0.13454844D+05 0.13454844D+05 0.12532410D+01  1  2 15  2  6  2       21 0.228632760571D-01 0.100000000000D+01
  </mgrwgt>
  </event>
  <event>
  5     66 0.59588745E-03 0.56122838E+02 0.75467711E-02 0.11556559E+00
        3 -1    0    0  502    0 0.00000000E+00 0.00000000E+00 0.50251983E+03 0.50252008E+03 0.50000000E+00 0.0000E+00 0.9000E+01
       21 -1    0    0  501  502 0.00000000E+00 0.00000000E+00 -.11470657E+03 0.11470902E+03 0.75000000E+00 0.0000E+00 0.9000E+01
       25  1    1    2    0    0 0.79180108E+02 -.62106035E+02 0.73147859E+02 0.17635832E+03 0.12500000E+03 0.0000E+00 0.9000E+01
      -24  1    1    2    0    0 -.34115556E+02 0.10685359E+03 0.34418115E+03 0.37082265E+03 0.80419002E+02 0.0000E+00 0.9000E+01
        4  1    1    2  501    0 -.45064552E+02 -.44747558E+02 -.29515751E+02 0.70048125E+02 0.15500000E+01 0.0000E+00 0.9000E+01
#aMCatNLO 1  0  0  2  5 0.22201412D+02 0.00000000D+00  -5  6  0 0.00000000D+00 0.00000000D+00 0.00000000D+00 0.00000000D+00 0.00000000D+00
  <mgrwgt>
 0.5691482151D-02   32    2    0
 0.240089900596730D+03 0.000000000000000D+00 0.000000000000000D+00 0.240089900596730D+03
 0.240089900596730D+03 0.000000000000000D+00 0.000000000000000D+00 -.240089900596730D+03
 0.167615191617173D+03 0.791815648460720D+02 -.621045882071195D+02 -.484061191690981D+02
 0.198688226200763D+03 -.341138281354415D+02 0.106855308311084D+03 0.142926502413387D+03
 0.113876383375524D+03 -.450677367106305D+02 -.447507201039646D+02 -.945203832442885D+02
 0.000000000000000D+00 0.000000000000000D+00 -.000000000000000D+00 -.000000000000000D+00
 0.242268429788476D+03 0.000000000000000D+00 0.000000000000000D+00 0.242268429788476D+03
 0.304458233517458D+03 0.000000000000000D+00 0.000000000000000D+00 -.304458233517458D+03
 0.163432914611511D+03 0.751843222463208D+02 -.555831169849449D+02 -.484061191690981D+02
 0.203936973304462D+03 -.389753288325150D+02 0.114786810115483D+03 0.142926502413387D+03
 0.113322887316264D+03 -.478110558426670D+02 -.402750155835707D+02 -.945203832442885D+02
 0.660338880736968D+02 0.116020624288612D+02 -.189286775469673D+02 -.621898037289817D+02
0.151350372247D-05 0.000000000000D+00 0.000000000000D+00 0.278127553590D-06 0.000000000000D+00  6 3 21 25 -24 4 21 2 0.77310951D-01 0.17647373D-01 0.32761581D+05 0.32761581D+05 0.32761581D+05 0.12109050D+01  1  2  2  2  6  2       21 0.513143442899D-03 0.100000000000D+01
0.174618263911D-07 0.798697857332D-07 -.305532795592D-08 0.278127553590D-06 0.000000000000D+00  6 3 21 25 -24 4 21 4 0.77310951D-01 0.17647373D-01 0.32761581D+05 0.32761581D+05 0.32761581D+05 0.12109050D+01  1  2  3  2  6  2       21 0.868090649726D-05 0.100000000000D+01
0.155562809588D-06 0.000000000000D+00 0.000000000000D+00 0.278127553590D-06 0.000000000000D+00  6 3 21 25 -24 4 21 4 0.77310951D-01 0.17647373D-01 0.32761581D+05 0.32761581D+05 0.32761581D+05 0.12109050D+01  1  2 15  2  6  2       21 0.773359082974D-04 0.100000000000D+01
0.183286414685D-04 0.000000000000D+00 0.000000000000D+00 0.275462387456D-06 0.000000000000D+00  6 3 21 25 -24 4 21 4 0.77310951D-01 0.22443989D-01 0.37304556D+05 0.37304556D+05 0.37304556D+05 0.12050892D+01  1  2 12  2  6  2       21 0.570930445733D-02 0.100000000000D+01
0.132634817996D-04 0.000000000000D+00 0.000000000000D+00 0.275462387456D-06 0.000000000000D+00  6 3 21 25 -24 4 21 4 0.77310951D-01 0.24391410D-01 0.37304556D+05 0.37304556D+05 0.37304556D+05 0.12050892D+01  1  2 12  2  6  2       21 0.352839911484D-02 0.100000000000D+01
-.174031959553D-04 0.000000000000D+00 0.000000000000D+00 0.278127553590D-06 0.000000000000D+00  6 3 21 25 -24 4 21 4 0.77310951D-01 0.17647373D-01 0.32761581D+05 0.32761581D+05 0.32761581D+05 0.12109050D+01  1  2  4  2  6  2       21 -.865175918359D-02 0.100000000000D+01
-.421602207518D-04 0.000000000000D+00 -.261540943969D-05 0.278127553590D-06 0.000000000000D+00  6 3 21 25 -24 4 21 4 0.77310951D-01 0.22514064D-01 0.32761581D+05 0.32761581D+05 0.32761581D+05 0.12109050D+01  1  2  5  2  6  2       21 -.133099876315D-01 0.100000000000D+01
0.362843378130D-04 0.000000000000D+00 0.232941015569D-05 0.278127553590D-06 0.000000000000D+00  6 3 21 25 -24 4 21 4 0.77310951D-01 0.17647373D-01 0.32761581D+05 0.32761581D+05 0.32761581D+05 0.12109050D+01  1  2  6  2  6  2       21 0.180382588175D-01 0.100000000000D+01
0.136207998386D-05 0.000000000000D+00 0.000000000000D+00 0.275462387456D-06 0.000000000000D+00  6 3 -3 25 -24 4 -3 4 0.77310951D-01 0.22443989D-01 0.37304556D+05 0.37304556D+05 0.37304556D+05 0.12050892D+01  1  2 12  5  6  2       21 0.205502612865D-04 0.100000000000D+01
0.142691268942D-05 0.000000000000D+00 0.000000000000D+00 0.275462387456D-06 0.000000000000D+00  6 3 -3 25 -24 4 -3 4 0.77310951D-01 0.24391410D-01 0.37304556D+05 0.37304556D+05 0.37304556D+05 0.12050892D+01  1  2 12  5  6  2       21 0.185246159040D-04 0.100000000000D+01
-.372572000018D-05 0.000000000000D+00 -.190631227160D-06 0.278127553590D-06 0.000000000000D+00  6 3 -3 25 -24 4 -3 4 0.77310951D-01 0.22514064D-01 0.32761581D+05 0.32761581D+05 0.32761581D+05 0.12109050D+01  1  2  5  5  6  2       21 -.566625719780D-04 0.100000000000D+01
0.136207998386D-05 0.000000000000D+00 0.000000000000D+00 0.275462387456D-06 0.000000000000D+00  6 3 3 25 -24 4 3 4 0.77310951D-01 0.22443989D-01 0.37304556D+05 0.37304556D+05 0.37304556D+05 0.12050892D+01  1  2 12  6  6  2       21 0.205489996231D-04 0.100000000000D+01
0.142691268942D-05 0.000000000000D+00 0.000000000000D+00 0.275462387456D-06 0.000000000000D+00  6 3 3 25 -24 4 3 4 0.77310951D-01 0.24391410D-01 0.37304556D+05 0.37304556D+05 0.37304556D+05 0.12050892D+01  1  2 12  6  6  2       21 0.185238566394D-04 0.100000000000D+01
-.372572000018D-05 0.000000000000D+00 -.190631227160D-06 0.278127553590D-06 0.000000000000D+00  6 3 3 25 -24 4 3 4 0.77310951D-01 0.22514064D-01 0.32761581D+05 0.32761581D+05 0.32761581D+05 0.12109050D+01  1  2  5  6  6  2       21 -.566590110208D-04 0.100000000000D+01
0.136207998386D-05 0.000000000000D+00 0.000000000000D+00 0.275462387456D-06 0.000000000000D+00  6 3 -4 25 -24 4 -4 4 0.77310951D-01 0.22443989D-01 0.37304556D+05 0.37304556D+05 0.37304556D+05 0.12050892D+01  1  2 12  7  6  2       21 0.175533220956D-04 0.100000000000D+01
0.142691268942D-05 0.000000000000D+00 0.000000000000D+00 0.275462387456D-06 0.000000000000D+00  6 3 -4 25 -24 4 -4 4 0.77310951D-01 0.24391410D-01 0.37304556D+05 0.37304556D+05 0.37304556D+05 0.12050892D+01  1  2 12  7  6  2       21 0.157721458048D-04 0.100000000000D+01
-.372572000018D-05 0.000000000000D+00 -.190631227160D-06 0.278127553590D-06 0.000000000000D+00  6 3 -4 25 -24 4 -4 4 0.77310951D-01 0.22514064D-01 0.32761581D+05 0.32761581D+05 0.32761581D+05 0.12109050D+01  1  2  5  7  6  2       21 -.483306675681D-04 0.100000000000D+01
0.136207998386D-05 0.000000000000D+00 0.000000000000D+00 0.275462387456D-06 0.000000000000D+00  6 3 4 25 -24 4 4 4 0.77310951D-01 0.22443989D-01 0.37304556D+05 0.37304556D+05 0.37304556D+05 0.12050892D+01  1  2 12  8  6  2       21 0.175533220956D-04 0.100000000000D+01
0.142691268942D-05 0.000000000000D+00 0.000000000000D+00 0.275462387456D-06 0.000000000000D+00  6 3 4 25 -24 4 4 4 0.77310951D-01 0.24391410D-01 0.37304556D+05 0.37304556D+05 0.37304556D+05 0.12050892D+01  1  2 12  8  6  2       21 0.157721458048D-04 0.100000000000D+01
-.372572000018D-05 0.000000000000D+00 -.190631227160D-06 0.278127553590D-06 0.000000000000D+00  6 3 4 25 -24 4 4 4 0.77310951D-01 0.22514064D-01 0.32761581D+05 0.32761581D+05 0.32761581D+05 0.12109050D+01  1  2  5  8  6  2       21 -.483306675681D-04 0.100000000000D+01
0.136207998386D-05 0.000000000000D+00 0.000000000000D+00 0.275462387456D-06 0.000000000000D+00  6 3 -1 25 -24 4 -1 4 0.77310951D-01 0.22443989D-01 0.37304556D+05 0.37304556D+05 0.37304556D+05 0.12050892D+01  1  2 12  9  6  2       21 0.345714794981D-04 0.100000000000D+01
0.136207998386D-05 0.000000000000D+00 0.000000000000D+00 0.275462387456D-06 0.000000000000D+00  6 3 -2 25 -24 4 -2 4 0.77310951D-01 0.22443989D-01 0.37304556D+05 0.37304556D+05 0.37304556D+05 0.12050892D+01  1  2 12  9  6  2       21 0.313094462392D-04 0.100000000000D+01
0.142691268942D-05 0.000000000000D+00 0.000000000000D+00 0.275462387456D-06 0.000000000000D+00  6 3 -1 25 -24 4 -1 4 0.77310951D-01 0.24391410D-01 0.37304556D+05 0.37304556D+05 0.37304556D+05 0.12050892D+01  1  2 12  9  6  2       21 0.315835672473D-04 0.100000000000D+01
0.142691268942D-05 0.000000000000D+00 0.000000000000D+00 0.275462387456D-06 0.000000000000D+00  6 3 -2 25 -24 4 -2 4 0.77310951D-01 0.24391410D-01 0.37304556D+05 0.37304556D+05 0.37304556D+05 0.12050892D+01  1  2 12  9  6  2       21 0.283725121996D-04 0.100000000000D+01
-.372572000018D-05 0.000000000000D+00 -.190631227160D-06 0.278127553590D-06 0.000000000000D+00  6 3 -1 25 -24 4 -1 4 0.77310951D-01 0.22514064D-01 0.32761581D+05 0.32761581D+05 0.32761581D+05 0.12109050D+01  1  2  5  9  6  2       21 -.956458445569D-04 0.100000000000D+01
-.372572000018D-05 0.000000000000D+00 -.190631227160D-06 0.278127553590D-06 0.000000000000D+00  6 3 -2 25 -24 4 -2 4 0.77310951D-01 0.22514064D-01 0.32761581D+05 0.32761581D+05 0.32761581D+05 0.12109050D+01  1  2  5  9  6  2       21 -.865831538610D-04 0.100000000000D+01
0.136207998386D-05 0.000000000000D+00 0.000000000000D+00 0.275462387456D-06 0.000000000000D+00  6 3 1 25 -24 4 1 4 0.77310951D-01 0.22443989D-01 0.37304556D+05 0.37304556D+05 0.37304556D+05 0.12050892D+01  1  2 12 10  6  2       21 0.541129425855D-04 0.100000000000D+01
0.136207998386D-05 0.000000000000D+00 0.000000000000D+00 0.275462387456D-06 0.000000000000D+00  6 3 2 25 -24 4 2 4 0.77310951D-01 0.22443989D-01 0.37304556D+05 0.37304556D+05 0.37304556D+05 0.12050892D+01  1  2 12 10  6  2       21 0.680256515016D-04 0.100000000000D+01
0.142691268942D-05 0.000000000000D+00 0.000000000000D+00 0.275462387456D-06 0.000000000000D+00  6 3 1 25 -24 4 1 4 0.77310951D-01 0.24391410D-01 0.37304556D+05 0.37304556D+05 0.37304556D+05 0.12050892D+01  1  2 12 10  6  2       21 0.509937444118D-04 0.100000000000D+01
0.142691268942D-05 0.000000000000D+00 0.000000000000D+00 0.275462387456D-06 0.000000000000D+00  6 3 2 25 -24 4 2 4 0.77310951D-01 0.24391410D-01 0.37304556D+05 0.37304556D+05 0.37304556D+05 0.12050892D+01  1  2 12 10  6  2       21 0.649106283650D-04 0.100000000000D+01
-.372572000018D-05 0.000000000000D+00 -.190631227160D-06 0.278127553590D-06 0.000000000000D+00  6 3 1 25 -24 4 1 4 0.77310951D-01 0.22514064D-01 0.32761581D+05 0.32761581D+05 0.32761581D+05 0.12109050D+01  1  2  5 10  6  2       21 -.149886572190D-03 0.100000000000D+01
-.372572000018D-05 0.000000000000D+00 -.190631227160D-06 0.278127553590D-06 0.000000000000D+00  6 3 2 25 -24 4 2 4 0.77310951D-01 0.22514064D-01 0.32761581D+05 0.32761581D+05 0.32761581D+05 0.12109050D+01  1  2  5 10  6  2       21 -.188473833400D-03 0.100000000000D+01
  </mgrwgt>
  </event>
  <event>
  5     66 0.59588745E-03 0.43082046E+02 0.75467711E-02 0.10030076E+00
        3 -1    0    0  502    0 0.00000000E+00 0.00000000E+00 0.15925688E+03 0.15925767E+03 0.50000000E+00 0.0000E+00 0.9000E+01
       21 -1    0    0  501  502 0.00000000E+00 0.00000000E+00 -.15155834E+03 0.15156020E+03 0.75000000E+00 0.0000E+00 0.9000E+01
       25  1    1    2    0    0 -.58497187E+02 0.50960260E+02 0.30124590E+02 0.15017110E+03 0.12500000E+03 0.0000E+00 0.9000E+01
      -24  1    1    2    0    0 0.20040844E+02 -.70333320E+02 -.37517252E+02 0.11499205E+03 0.80419002E+02 0.0000E+00 0.9000E+01
        4  1    1    2  501    0 0.38456342E+02 0.19373059E+02 0.15091202E+02 0.45654710E+02 0.15500000E+01 0.0000E+00 0.9000E+01
#aMCatNLO 1  0  0  2  5 0.22201412D+02 0.00000000D+00  -5  6  0 0.00000000D+00 0.00000000D+00 0.00000000D+00 0.00000000D+00 0.00000000D+00
  <mgrwgt>
 0.1270426048D-01   12    2    0
 0.155361253019671D+03 0.000000000000000D+00 0.000000000000000D+00 0.155361253019671D+03
 0.155361253019671D+03 0.000000000000000D+00 0.000000000000000D+00 -.155361253019671D+03
 0.149472498490070D+03 -.585080281446906D+02 0.509547986988928D+02 0.264092206821680D+02
 0.115959056096525D+03 0.200324336542210D+02 -.703375567959553D+02 -.403808920442759D+02
 0.452909514527465D+02 0.384755944904696D+02 0.193827580970625D+02 0.139716713621078D+02
 0.000000000000000D+00 -.000000000000000D+00 0.000000000000000D+00 -.000000000000000D+00
 0.457460862949048D+03 0.000000000000000D+00 0.000000000000000D+00 0.457460862949048D+03
 0.683899371244778D+03 0.000000000000000D+00 0.000000000000000D+00 -.683899371244778D+03
 0.158869311354266D+03 0.770491204383642D+02 -.545934445956074D+02 0.264092206821680D+02
 0.315753536360031D+03 0.209827414978205D+03 -.218116756006429D+03 -.403808920442759D+02
 0.115890656057486D+03 0.109336303030614D+03 -.357911916591423D+02 0.139716713621078D+02
 0.550846730422042D+03 -.396212838447183D+03 0.308501392261178D+03 -.226438508295729D+03
0.352751025482D-05 0.000000000000D+00 0.000000000000D+00 0.255973658751D-06 0.000000000000D+00  6 3 21 25 -24 4 21 2 0.24501262D-01 0.23316871D-01 0.22335889D+05 0.22335889D+05 0.22335889D+05 0.12285793D+01  1  2  2  2  6  2       21 0.698820422618D-02 0.100000000000D+01
-.155279349288D-06 0.186151830379D-06 -.712102688372D-08 0.255973658751D-06 0.000000000000D+00  6 3 21 25 -24 4 21 4 0.24501262D-01 0.23316871D-01 0.22335889D+05 0.22335889D+05 0.22335889D+05 0.12285793D+01  1  2  3  2  6  2       21 -.464320012862D-03 0.100000000000D+01
0.388480492542D-06 0.000000000000D+00 0.000000000000D+00 0.255973658751D-06 0.000000000000D+00  6 3 21 25 -24 4 21 4 0.24501262D-01 0.23316871D-01 0.22335889D+05 0.22335889D+05 0.22335889D+05 0.12285793D+01  1  2 15  2  6  2       21 0.116164363208D-02 0.100000000000D+01
0.142591195581D-03 0.000000000000D+00 -.112207021015D-03 0.255973658751D-06 0.000000000000D+00  6 3 21 25 -24 4 21 4 0.24501262D-01 0.23821124D+00 0.22335889D+05 0.22335889D+05 0.22335889D+05 0.12285793D+01  1  2  5  2  6  2       21 0.201655682506D-02 0.100000000000D+01
0.623896906451D-04 0.000000000000D+00 -.490864119223D-04 0.255973658751D-06 0.000000000000D+00  6 3 -3 25 -24 4 -3 4 0.24501262D-01 0.23821124D+00 0.22335889D+05 0.22335889D+05 0.22335889D+05 0.12285793D+01  1  2  5  5  6  2       21 0.518520657052D-04 0.100000000000D+01
0.623896906451D-04 0.000000000000D+00 -.490864119223D-04 0.255973658751D-06 0.000000000000D+00  6 3 3 25 -24 4 3 4 0.24501262D-01 0.23821124D+00 0.22335889D+05 0.22335889D+05 0.22335889D+05 0.12285793D+01  1  2  5  6  6  2       21 0.523147972149D-04 0.100000000000D+01
0.623896906451D-04 0.000000000000D+00 -.490864119223D-04 0.255973658751D-06 0.000000000000D+00  6 3 -4 25 -24 4 -4 4 0.24501262D-01 0.23821124D+00 0.22335889D+05 0.22335889D+05 0.22335889D+05 0.12285793D+01  1  2  5  7  6  2       21 0.388848347498D-04 0.100000000000D+01
0.623896906451D-04 0.000000000000D+00 -.490864119223D-04 0.255973658751D-06 0.000000000000D+00  6 3 4 25 -24 4 4 4 0.24501262D-01 0.23821124D+00 0.22335889D+05 0.22335889D+05 0.22335889D+05 0.12285793D+01  1  2  5  8  6  2       21 0.388848347498D-04 0.100000000000D+01
0.623896906451D-04 0.000000000000D+00 -.490864119223D-04 0.255973658751D-06 0.000000000000D+00  6 3 -1 25 -24 4 -1 4 0.24501262D-01 0.23821124D+00 0.22335889D+05 0.22335889D+05 0.22335889D+05 0.12285793D+01  1  2  5  9  6  2       21 0.992956441788D-04 0.100000000000D+01
0.623896906451D-04 0.000000000000D+00 -.490864119223D-04 0.255973658751D-06 0.000000000000D+00  6 3 -2 25 -24 4 -2 4 0.24501262D-01 0.23821124D+00 0.22335889D+05 0.22335889D+05 0.22335889D+05 0.12285793D+01  1  2  5  9  6  2       21 0.771812882041D-04 0.100000000000D+01
0.623896906451D-04 0.000000000000D+00 -.490864119223D-04 0.255973658751D-06 0.000000000000D+00  6 3 1 25 -24 4 1 4 0.24501262D-01 0.23821124D+00 0.22335889D+05 0.22335889D+05 0.22335889D+05 0.12285793D+01  1  2  5 10  6  2       21 0.830710473112D-03 0.100000000000D+01
0.623896906451D-04 0.000000000000D+00 -.490864119223D-04 0.255973658751D-06 0.000000000000D+00  6 3 2 25 -24 4 2 4 0.24501262D-01 0.23821124D+00 0.22335889D+05 0.22335889D+05 0.22335889D+05 0.12285793D+01  1  2  5 10  6  2       21 0.181305187109D-02 0.100000000000D+01
  </mgrwgt>
  </event>
  <event>
  5     66 0.59588745E-03 0.18026560E+03 0.75467711E-02 0.11103193E+00
        1 -1    0    0  502    0 0.00000000E+00 0.00000000E+00 0.13771804E+03 0.13771841E+03 0.32000000E+00 0.0000E+00 0.9000E+01
       21 -1    0    0  501  502 -.00000000E+00 -.00000000E+00 -.57808625E+03 0.57808674E+03 0.75000000E+00 0.0000E+00 0.9000E+01
       25  1    1    2    0    0 -.34954582E+02 0.55241746E+02 -.18103187E+03 0.22950165E+03 0.12500000E+03 0.0000E+00 0.9000E+01
      -24  1    1    2    0    0 -.14396344E+03 -.33242003E+02 -.25561267E+03 0.30599927E+03 0.80419002E+02 0.0000E+00 0.9000E+01
        2  1    1    2  501    0 0.17891802E+03 -.21999743E+02 -.37236789E+01 0.18030423E+03 0.32000000E+00 0.0000E+00 0.9000E+01
#aMCatNLO 1  0  0  5  2 0.67801185D+02 0.00000000D+00  -5  6  0 0.00000000D+00 0.00000000D+00 0.00000000D+00 0.00000000D+00 0.00000000D+00
  <mgrwgt>
 0.1620432606D-01    3    2    0
 0.282158137310308D+03 0.000000000000000D+00 0.000000000000000D+00 0.282158137310308D+03
 0.282158137310308D+03 -.000000000000000D+00 -.000000000000000D+00 -.282158137310308D+03
 0.149841156293012D+03 -.349546294701982D+02 0.552417513860924D+02 -.505360752495188D+02
 0.188674692105644D+03 -.143963498920034D+03 -.332419951222264D+02 -.854424029729040D+02
 0.225800426221961D+03 0.178918128390233D+03 -.219997562638660D+02 0.135978478222423D+03
 0.000000000000000D+00 -.000000000000000D+00 0.000000000000000D+00 0.000000000000000D+00
 0.282158137310308D+03 0.000000000000000D+00 0.000000000000000D+00 0.282158137310308D+03
 0.282158137310308D+03 -.000000000000000D+00 -.000000000000000D+00 -.282158137310308D+03
 0.141543323834309D+03 -.164818084872624D+02 0.529703350528954D+02 -.364966589626672D+02
 0.164969609440305D+03 -.121543609325231D+03 -.359987426412519D+02 -.684031990842582D+02
 0.678775509810798D+02 0.791288782121307D+01 0.672380006394924D+02 -.487846323360239D+01
 0.189925790364923D+03 0.130112529991281D+03 -.842095930511359D+02 0.109778321280528D+03
0.439998872651D-04 0.000000000000D+00 0.000000000000D+00 0.111260700709D-06 0.000000000000D+00  6 1 21 25 -24 2 21 2 0.21187457D-01 0.88936413D-01 0.59914034D+05 0.59914034D+05 0.59914034D+05 0.11845791D+01  1  2  2  3  6  5        2 0.167146912993D-01 0.100000000000D+01
-.574642834528D-05 0.232193784262D-05 -.888230954587D-07 0.111260700709D-06 0.000000000000D+00  6 1 21 25 -24 2 21 4 0.21187457D-01 0.88936413D-01 0.59914034D+05 0.59914034D+05 0.59914034D+05 0.11845791D+01  1  2  3  3  6  5        2 -.306318299160D-02 0.100000000000D+01
0.478900031275D-05 0.000000000000D+00 0.000000000000D+00 0.111260700709D-06 0.000000000000D+00  6 1 21 25 -24 2 21 4 0.21187457D-01 0.88936413D-01 0.59914034D+05 0.59914034D+05 0.59914034D+05 0.11845791D+01  1  2 15  3  6  5        2 0.255281775450D-02 0.100000000000D+01
  </mgrwgt>
  </event>
  <event>
  6     66 0.59588745E-03 0.26696983E+02 0.75467711E-02 0.11950820E+00
        1 -1    0    0  502    0 0.00000000E+00 0.00000000E+00 0.26262401E+03 0.26262420E+03 0.32000000E+00 0.0000E+00 0.9000E+01
       21 -1    0    0  501  502 0.00000000E+00 0.00000000E+00 -.21977933E+03 0.21978061E+03 0.75000000E+00 0.0000E+00 0.9000E+01
       25  1    1    2    0    0 0.52657747E+02 -.55381096E+02 0.16785626E+03 0.22280177E+03 0.12500000E+03 0.0000E+00 0.9000E+01
      -24  1    1    2    0    0 -.34253124E+02 0.77522866E+02 0.81577915E+01 0.11711890E+03 0.80419002E+02 0.0000E+00 0.9000E+01
        2  1    1    2  503    0 -.99659683E+01 -.31426965E+02 -.11927453E+03 0.12374769E+03 0.32000000E+00 0.0000E+00 0.9000E+01
       21  1    1    2  501  503 -.84386541E+01 0.92851959E+01 -.13894849E+02 0.18736464E+02 0.75000000E+00 0.0000E+00 0.9000E+01
#aMCatNLO 2  0  0  5  5 0.13353421D+02 0.00000000D+00  -5  6  0 0.00000000D+00 0.00000000D+00 0.00000000D+00 0.00000000D+00 0.00000000D+00
  <mgrwgt>
 0.1420973258D-01    2    2    0
 0.240249214951759D+03 0.000000000000000D+00 0.000000000000000D+00 0.240249214951759D+03
 0.240249214951759D+03 -.000000000000000D+00 -.000000000000000D+00 -.240249214951759D+03
 0.210458666774365D+03 0.529671745309348D+02 -.550088375272120D+02 0.151117029604732D+03
 0.116925199476344D+03 -.340805514753463D+02 0.777304798747683D+02 -.880243027089932D+00
 0.153114563652809D+03 -.188866230555885D+02 -.227216423475564D+02 -.150236786577642D+03
 0.000000000000000D+00 0.000000000000000D+00 0.000000000000000D+00 -.000000000000000D+00
 0.240249214951759D+03 0.000000000000000D+00 0.000000000000000D+00 0.240249214951759D+03
 0.240249214951759D+03 -.000000000000000D+00 -.000000000000000D+00 -.240249214951759D+03
 0.208712546589045D+03 0.526566878055687D+02 -.553823700696188D+02 0.148647211270522D+03
 0.116855956079408D+03 -.342537168624882D+02 0.775221524261803D+02 -.225771592068755D+01
 0.134819865874878D+03 -.992907463216006D+01 -.314695911675989D+02 -.130719067251925D+03
 0.201100613601871D+02 -.847389631092051D+01 0.932980881103732D+01 -.156704280979094D+02
-.499882705970D-06 0.000000000000D+00 0.000000000000D+00 0.345321177927D-05 0.000000000000D+00  6 1 21 25 -24 2 21 4 0.40403807D-01 0.33812319D-01 0.21454696D+05 0.21454696D+05 0.21454696D+05 0.12304832D+01  1  2  8  3  6  5        2 -.110241587122D-02 0.100000000000D+01
0.706793207343D-05 0.000000000000D+00 0.000000000000D+00 0.345321177927D-05 0.135874631096D-06  6 1 21 25 -24 2 21 4 0.40403807D-01 0.33812319D-01 0.23861873D+05 0.23861873D+05 0.23861873D+05 0.12254731D+01  1  2  1  3  6  5        2 0.153121484500D-01 0.100000000000D+01
  </mgrwgt>
  </event>
  <event>
  5     66 -.59588745E-03 0.35926651E+02 0.75467711E-02 0.11180946E+00
        1 -1    0    0  502    0 0.00000000E+00 0.00000000E+00 0.26175251E+03 0.26175270E+03 0.32000000E+00 0.0000E+00 0.9000E+01
       21 -1    0    0  501  502 0.00000000E+00 0.00000000E+00 -.26578397E+03 0.26578503E+03 0.75000000E+00 0.0000E+00 0.9000E+01
       25  1    1    2    0    0 -.63677804E+02 0.17649301E+03 -.63998433E+02 0.23436178E+03 0.12500000E+03 0.0000E+00 0.9000E+01
      -24  1    1    2    0    0 0.98824782E+02 -.18393384E+03 0.94917841E+02 0.24305269E+03 0.80419002E+02 0.0000E+00 0.9000E+01
        2  1    1    2  501    0 -.35146978E+02 0.74408376E+01 -.34950873E+02 0.50123269E+02 0.32000000E+00 0.0000E+00 0.9000E+01
#aMCatNLO 1  0  0  2  1 0.24424254D+00 0.00000000D+00  -5  6  0 0.00000000D+00 0.00000000D+00 0.00000000D+00 0.00000000D+00 0.00000000D+00
  <mgrwgt>
 -.1081774248D-01    1    2    0
 0.263761166274931D+03 0.000000000000000D+00 0.000000000000000D+00 0.263761166274931D+03
 0.263761166274931D+03 0.000000000000000D+00 0.000000000000000D+00 -.263761166274931D+03
 0.233879307863579D+03 -.636774832935735D+02 0.176492939264971D+03 -.622089314950410D+02
 0.243785493001793D+03 0.988251169253774D+02 -.183933915595705D+03 0.967784149595058D+02
 0.498575316844904D+02 -.351476336318039D+02 0.744097633073463D+01 -.345694834644648D+02
 0.000000000000000D+00 -.000000000000000D+00 0.000000000000000D+00 0.000000000000000D+00
 0.841962031371535D+03 0.000000000000000D+00 0.000000000000000D+00 0.841962031371535D+03
 0.388443921863370D+03 0.000000000000000D+00 0.000000000000000D+00 -.388443921863370D+03
 0.154272138255836D+03 -.294146973484418D+02 0.586491011369550D+02 -.622089314950410D+02
 0.441415213930848D+03 0.159308944528749D+03 -.391962719816959D+03 0.967784149595058D+02
 0.490185439737484D+02 -.264196748692063D+02 -.225780700262850D+02 -.345694834644648D+02
 0.585700057074471D+03 -.103474572311101D+03 0.355891688706289D+03 0.453518109508165D+03
-.847635845233D-05 0.000000000000D+00 0.000000000000D+00 0.299362269311D-06 0.000000000000D+00  6 1 21 25 -24 2 21 4 0.40269713D-01 0.40889939D-01 0.58838650D+05 0.58838650D+05 0.58838650D+05 0.11853435D+01  1  2 14  2  6  2       21 -.108177424817D-01 0.100000000000D+01
  </mgrwgt>
  </event>
  <event>
  5     66 -.59588745E-03 0.22667315E+02 0.75467711E-02 0.12315475E+00
        1 -1    0    0  502    0 0.00000000E+00 0.00000000E+00 0.17010965E+03 0.17010995E+03 0.32000000E+00 0.0000E+00 0.9000E+01
       21 -1    0    0  501  502 0.00000000E+00 0.00000000E+00 -.13489028E+03 0.13489237E+03 0.75000000E+00 0.0000E+00 0.9000E+01
       25  1    1    2    0    0 0.97435452E+01 0.40090955E+02 0.10004652E+03 0.16533761E+03 0.12500000E+03 0.0000E+00 0.9000E+01
      -24  1    1    2    0    0 -.28667937E+02 -.52566007E+02 -.46523788E+02 0.11052925E+03 0.80419002E+02 0.0000E+00 0.9000E+01
        2  1    1    2  501    0 0.18924391E+02 0.12475052E+02 -.18303362E+02 0.29135459E+02 0.32000000E+00 0.0000E+00 0.9000E+01
#aMCatNLO 1  0  0  5  2 0.55585393D+01 0.00000000D+00  -5  6  0 0.00000000D+00 0.00000000D+00 0.00000000D+00 0.00000000D+00 0.00000000D+00
  <mgrwgt>
 -.5095757707D-01    7    2    0
 0.151481031312917D+03 0.000000000000000D+00 0.000000000000000D+00 0.151481031312917D+03
 0.151481031312917D+03 -.000000000000000D+00 -.000000000000000D+00 -.151481031312917D+03
 0.154820828475368D+03 0.974304490383090D+01 0.400906247417942D+02 0.815003301442024D+02
 0.116681968086155D+03 -.286683136441895D+02 -.525662554260092D+02 -.596856959863417D+02
 0.314592660643095D+02 0.189252687403586D+02 0.124756306842150D+02 -.218146341578606D+02
 0.000000000000000D+00 0.000000000000000D+00 0.000000000000000D+00 -.000000000000000D+00
 0.151481031312917D+03 0.000000000000000D+00 0.000000000000000D+00 0.151481031312917D+03
 0.151481031312917D+03 -.000000000000000D+00 -.000000000000000D+00 -.151481031312917D+03
 0.154588343777709D+03 0.103751567611960D+02 0.405073160021292D+02 0.807717122786151D+02
 0.116707041624271D+03 -.281915082562225D+02 -.522519429578415D+02 -.602352963775274D+02
 0.139255673017072D+02 0.116750055757315D+02 0.146190236878598D+01 -.744838982231412D+01
 0.177411099221463D+02 0.614134591929510D+01 0.102827245869263D+02 -.130880260787736D+02
0.378734667250D-05 0.000000000000D+00 0.000000000000D+00 0.933457611466D-06 0.000000000000D+00  6 1 21 25 -24 2 21 2 0.26170899D-01 0.20752535D-01 0.16200356D+05 0.16200356D+05 0.16200356D+05 0.12440290D+01  1  2  2  3  6  5        2 0.245403304856D-01 0.100000000000D+01
0.229560097704D-06 0.199863774855D-06 -.764556174883D-08 0.933457611466D-06 0.000000000000D+00  6 1 21 25 -24 2 21 4 0.26170899D-01 0.20752535D-01 0.16200356D+05 0.16200356D+05 0.16200356D+05 0.12440290D+01  1  2  3  3  6  5        2 0.230198650926D-02 0.100000000000D+01
0.391003134565D-06 0.000000000000D+00 0.000000000000D+00 0.933457611466D-06 0.000000000000D+00  6 1 21 25 -24 2 21 4 0.26170899D-01 0.20752535D-01 0.16200356D+05 0.16200356D+05 0.16200356D+05 0.12440290D+01  1  2 15  3  6  5        2 0.392090763964D-02 0.100000000000D+01
0.201229748760D-05 0.000000000000D+00 0.000000000000D+00 0.932908595941D-06 0.000000000000D+00  6 1 21 25 -24 2 21 4 0.26170899D-01 0.20752535D-01 0.16321722D+05 0.16321722D+05 0.16321722D+05 0.12436631D+01  1  2 12  3  6  5        2 0.201564502385D-01 0.100000000000D+01
-.148406426094D-04 0.000000000000D+00 0.000000000000D+00 0.933457611466D-06 0.000000000000D+00  6 1 21 25 -24 2 21 4 0.26170899D-01 0.20752535D-01 0.16200356D+05 0.16200356D+05 0.16200356D+05 0.12440290D+01  1  2  4  3  6  5        2 -.148819239133D+00 0.100000000000D+01
-.309374505895D-05 0.000000000000D+00 0.000000000000D+00 0.933457611466D-06 0.000000000000D+00  6 1 21 25 -24 2 21 4 0.26170899D-01 0.20752535D-01 0.16200356D+05 0.16200356D+05 0.16200356D+05 0.12440290D+01  1  2  5  3  6  5        2 -.310235073952D-01 0.100000000000D+01
0.777492243430D-05 0.000000000000D+00 -.000000000000D+00 0.933457611466D-06 0.000000000000D+00  6 1 21 25 -24 2 21 4 0.26170899D-01 0.20752535D-01 0.16200356D+05 0.16200356D+05 0.16200356D+05 0.12440290D+01  1  2  6  3  6  5        2 0.779654945841D-01 0.100000000000D+01
  </mgrwgt>
  </event>
  <event>
  6     66 0.59588745E-03 0.10072305E+03 0.75467711E-02 0.11309107E+00
        1 -1    0    0  502    0 0.00000000E+00 0.00000000E+00 0.23445342E+04 0.23445343E+04 0.32000000E+00 0.0000E+00 0.9000E+01
       21 -1    0    0  501  503 0.00000000E+00 0.00000000E+00 -.14254313E+03 0.14254510E+03 0.75000000E+00 0.0000E+00 0.9000E+01
       25  1    1    2    0    0 -.37442863E+02 -.14455614E+02 0.10296375E+04 0.10379736E+04 0.12500000E+03 0.0000E+00 0.9000E+01
      -24  1    1    2    0    0 -.76503041E+01 0.65975608E+02 0.63287633E+03 0.64141326E+03 0.80419002E+02 0.0000E+00 0.9000E+01
        2  1    1    2  501    0 0.59029196E+02 -.12471128E+03 0.65546753E+03 0.66983216E+03 0.32000000E+00 0.0000E+00 0.9000E+01
       21  1    1    2  502  503 -.13936029E+02 0.73191282E+02 -.11599021E+03 0.13786032E+03 0.75000000E+00 0.0000E+00 0.9000E+01
#aMCatNLO 2  0  0  2  5 0.74506219D+02 0.00000000D+00  -5  6  0 0.00000000D+00 0.00000000D+00 0.00000000D+00 0.00000000D+00 0.00000000D+00
  <mgrwgt>
 0.2159472824D+00    3    2    0
 0.187244200385780D+03 0.000000000000000D+00 0.000000000000000D+00 0.187244200385780D+03
 0.187244200385780D+03 0.000000000000000D+00 0.000000000000000D+00 -.187244200385780D+03
 0.136748678250567D+03 -.424598873361096D+02 0.118932823041802D+02 0.336289875957496D+02
 0.119523679510949D+03 -.117745854971835D+02 0.876358985665844D+02 -.492774028103291D-01
 0.118216043010043D+03 0.542344728332930D+02 -.995291808707647D+02 -.335797101929392D+02
 0.000000000000000D+00 -.000000000000000D+00 0.000000000000000D+00 -.000000000000000D+00
 0.191808594124423D+03 0.000000000000000D+00 0.000000000000000D+00 0.191808594124423D+03
 0.174235892268205D+04 0.000000000000000D+00 0.000000000000000D+00 -.174235892268205D+04
 0.135524327207792D+03 -.374429346472613D+02 -.144554869655309D+02 0.336289875957496D+02
 0.104300242814145D+03 -.765036456295213D+01 0.659757090944129D+02 -.492774028103291D-01
 0.142003583733418D+03 0.590293277396174D+02 -.124711504373498D+03 -.335797101929392D+02
 0.155233936305112D+04 -.139360285294040D+02 0.731912822446158D+02 -.155055032855763D+04
-.114259774384D-02 0.000000000000D+00 0.000000000000D+00 0.253388929995D-06 0.000000000000D+00  6 1 21 25 -24 2 21 4 0.35211418D+00 0.21560561D-01 0.50191302D+05 0.50191302D+05 0.50191302D+05 0.11921175D+01  1  2 13  2  6  2       21 -.113739628878D+00 0.100000000000D+01
-.114304466209D-02 0.000000000000D+00 0.000000000000D+00 0.253388929995D-06 0.000000000000D+00  6 1 21 25 -24 2 21 4 0.35211418D+00 0.21737636D-01 0.50191302D+05 0.50191302D+05 0.50191302D+05 0.11921175D+01  1  2 13  2  6  2       21 -.112039817591D+00 0.100000000000D+01
0.498356678361D-02 0.000000000000D+00 0.000000000000D+00 0.261073064038D-06 0.581844320367D-07  6 1 21 25 -24 2 21 4 0.36069756D+00 0.21929855D-01 0.50191302D+05 0.50191302D+05 0.50191302D+05 0.11921175D+01  1  2  1  2  6  2       21 0.441726728841D+00 0.100000000000D+01
  </mgrwgt>
  </event>
  <event>
  5     66 0.59588745E-03 0.53530628E+02 0.75467711E-02 0.11751657E+00
        1 -1    0    0  502    0 0.00000000E+00 0.00000000E+00 0.47942715E+03 0.47942726E+03 0.32000000E+00 0.0000E+00 0.9000E+01
       21 -1    0    0  501  502 0.00000000E+00 0.00000000E+00 -.74452911E+02 0.74456688E+02 0.75000000E+00 0.0000E+00 0.9000E+01
       25  1    1    2    0    0 0.31325840E+02 -.80889505E+00 0.15689095E+03 0.20303136E+03 0.12500000E+03 0.0000E+00 0.9000E+01
      -24  1    1    2    0    0 -.69928562E+02 0.37894476E+02 0.27021056E+03 0.29292825E+03 0.80419002E+02 0.0000E+00 0.9000E+01
        2  1    1    2  501    0 0.38602721E+02 -.37085581E+02 -.22127271E+02 0.57924338E+02 0.32000000E+00 0.0000E+00 0.9000E+01
#aMCatNLO 1  0  0  2  2 0.43205306D+02 0.00000000D+00  -5  6  0 0.00000000D+00 0.00000000D+00 0.00000000D+00 0.00000000D+00 0.00000000D+00
  <mgrwgt>
 0.7123786162D-01    3    2    0
 0.188933381182133D+03 0.000000000000000D+00 0.000000000000000D+00 0.188933381182133D+03
 0.188933381182133D+03 0.000000000000000D+00 0.000000000000000D+00 -.188933381182133D+03
 0.129461020444175D+03 0.313257831062248D+02 -.808839915961187D+00 0.123772737393694D+02
 0.139784691783441D+03 -.699286239425234D+02 0.378945359194161D+02 0.821372984920877D+02
 0.108621050136650D+03 0.386028408362986D+02 -.370856960034549D+02 -.945145722314571D+02
 0.000000000000000D+00 -.000000000000000D+00 0.000000000000000D+00 0.000000000000000D+00
 0.103612564962824D+04 0.000000000000000D+00 0.000000000000000D+00 0.103612564962824D+04
 0.190716045165149D+03 0.000000000000000D+00 0.000000000000000D+00 -.190716045165149D+03
 0.132535604988719D+03 0.403176503815038D+02 -.127270087695939D+02 0.123772737393694D+02
 0.132420998200953D+03 -.605863759961187D+02 0.255119589652540D+02 0.821372984920877D+02
 0.115372186916328D+03 0.462904110666883D+02 -.472750990801482D+02 -.945145722314571D+02
 0.846512904687384D+03 -.260216854520734D+02 0.344901488844881D+02 0.845409604463086D+03
0.116825164351D-04 0.000000000000D+00 0.000000000000D+00 0.862759513200D-06 0.000000000000D+00  6 1 21 25 -24 2 21 2 0.73758322D-01 0.11454593D-01 0.21830913D+05 0.21830913D+05 0.21830913D+05 0.12296598D+01  1  2  2  2  6  2       21 0.595350495983D-01 0.100000000000D+01
0.360248519023D-06 0.616503329754D-06 -.235836348003D-07 0.862759513200D-06 0.000000000000D+00  6 1 21 25 -24 2 21 4 0.73758322D-01 0.11454593D-01 0.21830913D+05 0.21830913D+05 0.21830913D+05 0.12296598D+01  1  2  3  2  6  2       21 0.277592985842D-02 0.100000000000D+01
0.115849327711D-05 0.000000000000D+00 0.000000000000D+00 0.862759513200D-06 0.000000000000D+00  6 1 21 25 -24 2 21 4 0.73758322D-01 0.11454593D-01 0.21830913D+05 0.21830913D+05 0.21830913D+05 0.12296598D+01  1  2 15  2  6  2       21 0.892688216295D-02 0.100000000000D+01
  </mgrwgt>
  </event>
  <event>
  5     66 0.59588745E-03 0.34702269E+03 0.75467711E-02 0.97261551E-01
        1 -1    0    0  502    0 0.00000000E+00 0.00000000E+00 0.29670066E+04 0.29670066E+04 0.32000000E+00 0.0000E+00 0.9000E+01
       21 -1    0    0  501  502 0.00000000E+00 0.00000000E+00 -.10130317E+03 0.10130595E+03 0.75000000E+00 0.0000E+00 0.9000E+01
       25  1    1    2    0    0 -.50334809E+01 0.83463652E+02 0.54529652E+02 0.15996875E+03 0.12500000E+03 0.0000E+00 0.9000E+01
      -24  1    1    2    0    0 -.31706602E+03 -.21260154E+03 0.17026067E+04 0.17467304E+04 0.80419002E+02 0.0000E+00 0.9000E+01
        2  1    1    2  501    0 0.32209950E+03 0.12913789E+03 0.11085671E+04 0.11616135E+04 0.32000000E+00 0.0000E+00 0.9000E+01
#aMCatNLO 1  0  0  1  2 0.40705219D+03 0.00000000D+00  -5  6  0 0.00000000D+00 0.00000000D+00 0.00000000D+00 0.00000000D+00 0.00000000D+00
  <mgrwgt>
 0.8036472799D-01    6    2    0
 0.548243981952012D+03 0.000000000000000D+00 0.000000000000000D+00 0.548243981952012D+03
 0.548243981952012D+03 0.000000000000000D+00 0.000000000000000D+00 -.548243981952012D+03
 0.305127209677416D+03 -.503351769656831D+01 0.834636375889447D+02 -.265492182531888D+03
 0.438079590935397D+03 -.317066071126393D+03 -.212601561620289D+03 0.199289223433788D+03
 0.353281163291210D+03 0.322099588822962D+03 0.129137924031344D+03 0.662029590980998D+02
 0.000000000000000D+00 -.000000000000000D+00 -.000000000000000D+00 0.000000000000000D+00
 0.795846774250197D+03 0.000000000000000D+00 0.000000000000000D+00 0.795846774250197D+03
 0.776713023997955D+03 0.000000000000000D+00 0.000000000000000D+00 -.776713023997955D+03
 0.355124954061438D+03 0.147735775426413D+02 0.199460210112655D+03 -.265492182531888D+03
 0.370023776574158D+03 -.292823544948594D+03 -.706297120391151D+02 0.199289223433788D+03
 0.443285079559661D+03 0.345996009467979D+03 0.269082870876436D+03 0.662029590980998D+02
 0.404125988052896D+03 -.679460420620263D+02 -.397913368949976D+03 0.191337502522417D+02
0.964771209792D-03 0.000000000000D+00 0.000000000000D+00 0.127073626848D-07 0.000000000000D+00  6 1 21 25 -24 2 21 2 0.45646277D+00 0.15585318D-01 0.19692986D+06 0.19692986D+06 0.19692986D+06 0.11374664D+01  1  2  2  1  6  1        1 0.353736799726D-01 0.100000000000D+01
-.104295865440D-03 0.509123754792D-04 -.194759510966D-05 0.127073626848D-07 0.000000000000D+00  6 1 21 25 -24 2 21 4 0.45646277D+00 0.15585318D-01 0.19692986D+06 0.19692986D+06 0.19692986D+06 0.11374664D+01  1  2  3  1  6  1        1 -.494766319011D-02 0.100000000000D+01
0.141762844350D-03 0.000000000000D+00 0.000000000000D+00 0.127073626848D-07 0.000000000000D+00  6 1 21 25 -24 2 21 4 0.45646277D+00 0.15585318D-01 0.19692986D+06 0.19692986D+06 0.19692986D+06 0.11374664D+01  1  2 15  1  6  1        1 0.672504901087D-02 0.100000000000D+01
-.758436506493D-03 0.000000000000D+00 -.523748424299D-03 0.127073626848D-07 0.000000000000D+00  6 1 21 25 -24 2 21 4 0.70999020D+00 0.15585318D-01 0.19692986D+06 0.19692986D+06 0.19692986D+06 0.11374664D+01  1  2  5  1  6  1        1 -.154099338428D-02 0.100000000000D+01
0.943489460123D-03 0.000000000000D+00 0.476496261285D-03 0.127073626848D-07 0.000000000000D+00  6 1 21 25 -24 2 21 4 0.45646277D+00 0.15585318D-01 0.19692986D+06 0.19692986D+06 0.19692986D+06 0.11374664D+01  1  2  6  1  6  1        1 0.447579398514D-01 0.100000000000D+01
-.185015005833D-04 0.000000000000D+00 -.268383823026D-04 0.127073626848D-07 0.000000000000D+00  6 21 21 25 -24 2 -1 4 0.70999020D+00 0.15585318D-01 0.19692986D+06 0.19692986D+06 0.19692986D+06 0.11374664D+01  1  2  5  4  6  1        1 -.328427171338D-05 0.100000000000D+01
  </mgrwgt>
  </event>
  <event>
  5     66 0.59588745E-03 0.63764354E+02 0.75467711E-02 0.11742474E+00
        1 -1    0    0  502    0 0.00000000E+00 0.00000000E+00 0.43691673E+03 0.43691685E+03 0.32000000E+00 0.0000E+00 0.9000E+01
       21 -1    0    0  501  502 0.00000000E+00 0.00000000E+00 -.52304199E+02 0.52309576E+02 0.75000000E+00 0.0000E+00 0.9000E+01
       25  1    1    2    0    0 -.40165278E+02 0.10395054E+02 0.11961125E+03 0.17791335E+03 0.12500000E+03 0.0000E+00 0.9000E+01
      -24  1    1    2    0    0 -.16335671E+02 -.39949376E+02 0.20206001E+03 0.22171665E+03 0.80419002E+02 0.0000E+00 0.9000E+01
        2  1    1    2  501    0 0.56500949E+02 0.29554322E+02 0.62941270E+02 0.89596435E+02 0.32000000E+00 0.0000E+00 0.9000E+01
#aMCatNLO 1  0  0  2  2 0.54544740D+02 0.00000000D+00  -5  6  0 0.00000000D+00 0.00000000D+00 0.00000000D+00 0.00000000D+00 0.00000000D+00
  <mgrwgt>
 0.3617895587D-01    4    2    0
 0.151175142342948D+03 0.000000000000000D+00 0.000000000000000D+00 0.151175142342948D+03
 0.151175142342948D+03 0.000000000000000D+00 0.000000000000000D+00 -.151175142342948D+03
 0.135723180408300D+03 -.401655865017634D+02 0.103948929907779D+02 -.327788584429605D+02
 0.101719306945296D+03 -.163359022153609D+02 -.399494971687177D+02 0.449085451316077D+02
 0.649077973322987D+02 0.565014887171243D+02 0.295546041779398D+02 -.121296866886471D+02
 0.000000000000000D+00 0.000000000000000D+00 0.000000000000000D+00 0.000000000000000D+00
 0.183580797184908D+03 0.000000000000000D+00 0.000000000000000D+00 0.183580797184908D+03
 0.178436856051584D+03 0.000000000000000D+00 0.000000000000000D+00 -.178436856051584D+03
 0.142872477779306D+03 -.608319117802343D+02 -.354539915051786D+01 -.327788584429605D+02
 0.109834683531948D+03 -.320290526743574D+02 -.505351769675167D+02 0.449085451316077D+02
 0.545237344550365D+02 0.476420150968965D+02 0.235785223723980D+02 -.121296866886471D+02
 0.547867574702008D+02 0.452189493576952D+02 0.305020537456366D+02 0.514394113332363D+01
0.310871015308D-05 0.000000000000D+00 0.000000000000D+00 0.333994714192D-06 0.000000000000D+00  6 1 21 25 -24 2 21 2 0.67218382D-01 0.80472224D-02 0.20554794D+05 0.20554794D+05 0.20554794D+05 0.12325200D+01  1  2  2  2  6  2       21 0.332630007570D-01 0.100000000000D+01
-.173623804606D-06 0.164051141829D-06 -.627559013998D-08 0.333994714192D-06 0.000000000000D+00  6 1 21 25 -24 2 21 4 0.67218382D-01 0.80472224D-02 0.20554794D+05 0.20554794D+05 0.20554794D+05 0.12325200D+01  1  2  3  2  6  2       21 -.282213888711D-02 0.100000000000D+01
0.414271614889D-06 0.000000000000D+00 0.000000000000D+00 0.333994714192D-06 0.000000000000D+00  6 1 21 25 -24 2 21 4 0.67218382D-01 0.80472224D-02 0.20554794D+05 0.20554794D+05 0.20554794D+05 0.12325200D+01  1  2 15  2  6  2       21 0.673370818511D-02 0.100000000000D+01
-.612522377830D-07 0.000000000000D+00 0.000000000000D+00 0.333994714192D-06 0.000000000000D+00  6 1 21 25 -24 2 21 4 0.67218382D-01 0.80472224D-02 0.20554794D+05 0.20554794D+05 0.20554794D+05 0.12325200D+01  1  2  4  2  6  2       21 -.995614181836D-03 0.100000000000D+01
  </mgrwgt>
  </event>
  <event>
  5     66 0.59588745E-03 0.15708682E+03 0.75467711E-02 0.10857861E+00
        1 -1    0    0  502    0 0.00000000E+00 0.00000000E+00 0.56439556E+03 0.56439565E+03 0.32000000E+00 0.0000E+00 0.9000E+01
       21 -1    0    0  501  502 0.00000000E+00 0.00000000E+00 -.16680845E+03 0.16681014E+03 0.75000000E+00 0.0000E+00 0.9000E+01
       25  1    1    2    0    0 -.93803803E+02 0.24877526E+02 0.90436759E+02 0.18226863E+03 0.12500000E+03 0.0000E+00 0.9000E+01
      -24  1    1    2    0    0 -.12246476E+03 -.13277732E+03 0.21004710E+03 0.28846912E+03 0.80419002E+02 0.0000E+00 0.9000E+01
        2  1    1    2  501    0 0.21626856E+03 0.10789980E+03 0.97103249E+02 0.26046804E+03 0.32000000E+00 0.0000E+00 0.9000E+01
#aMCatNLO 1  0  0  2  5 0.15777116D+00 0.00000000D+00  -5  6  0 0.00000000D+00 0.00000000D+00 0.00000000D+00 0.00000000D+00 0.00000000D+00
  <mgrwgt>
 0.7434612553D-02   23    2    0
 0.306833175588314D+03 0.000000000000000D+00 0.000000000000000D+00 0.306833175588314D+03
 0.306833175588314D+03 0.000000000000000D+00 0.000000000000000D+00 -.306833175588314D+03
 0.158586825371304D+03 -.938038492832238D+02 0.248775028886225D+02 -.103309675744968D+02
 0.207634502861780D+03 -.122464816193187D+03 -.132777353672231D+03 0.633830732203506D+02
 0.247445022943544D+03 0.216268665476410D+03 0.107899850783608D+03 -.530521056458538D+02
 0.000000000000000D+00 -.000000000000000D+00 0.000000000000000D+00 -.000000000000000D+00
 0.306833290708106D+03 0.000000000000000D+00 0.000000000000000D+00 0.306833290708106D+03
 0.366110964621232D+03 0.000000000000000D+00 0.000000000000000D+00 -.366110964621232D+03
 0.158562065505180D+03 -.937660062040335D+02 0.248623371143777D+02 -.103309675744968D+02
 0.207617982632172D+03 -.122415267122877D+03 -.132797210671989D+03 0.633830732203506D+02
 0.247486323320441D+03 0.216327722047848D+03 0.107876183612510D+03 -.530521056458538D+02
 0.592778838715453D+02 -.146448720937392D+00 0.586899451019179D-01 -.592776739131260D+02
0.386323836968D-07 0.000000000000D+00 0.000000000000D+00 0.124583577472D-06 0.000000000000D+00  6 1 21 25 -24 2 21 2 0.86830222D-01 0.25662975D-01 0.89300756D+05 0.89300756D+05 0.89300756D+05 0.11681134D+01  1  2  2  2  6  2       21 0.313689745047D-04 0.100000000000D+01
-.345431734958D-08 0.203868689744D-08 -.779876522008D-10 0.124583577472D-06 0.000000000000D+00  6 1 21 25 -24 2 21 4 0.86830222D-01 0.25662975D-01 0.89300756D+05 0.89300756D+05 0.89300756D+05 0.11681134D+01  1  2  3  2  6  2       21 -.382719909158D-05 0.100000000000D+01
0.404592092775D-08 0.000000000000D+00 0.000000000000D+00 0.124583577472D-06 0.000000000000D+00  6 1 21 25 -24 2 21 4 0.86830222D-01 0.25662975D-01 0.89300756D+05 0.89300756D+05 0.89300756D+05 0.11681134D+01  1  2 15  2  6  2       21 0.448266425236D-05 0.100000000000D+01
-.186073599193D-01 0.000000000000D+00 0.000000000000D+00 0.124583577472D-06 0.000000000000D+00  6 1 21 25 -24 2 21 4 0.86830222D-01 0.25662975D-01 0.89300756D+05 0.89300756D+05 0.89300756D+05 0.11681134D+01  1  2  4  2  6  2       21 -.206159607740D+02 0.100000000000D+01
-.196555003980D-01 0.000000000000D+00 -.837354546540D-07 0.124583577472D-06 0.000000000000D+00  6 1 21 25 -24 2 21 4 0.86830222D-01 0.30620868D-01 0.89300756D+05 0.89300756D+05 0.89300756D+05 0.11681134D+01  1  2  5  2  6  2       21 -.154212665921D+02 0.100000000000D+01
0.186299037381D-01 0.000000000000D+00 0.787328566154D-07 0.124583577472D-06 0.000000000000D+00  6 1 21 25 -24 2 21 4 0.86830222D-01 0.25662975D-01 0.89300756D+05 0.89300756D+05 0.89300756D+05 0.11681134D+01  1  2  6  2  6  2       21 0.206409381210D+02 0.100000000000D+01
0.196348496957D-01 0.000000000000D+00 0.000000000000D+00 0.124583577472D-06 0.863667326472D-04  6 1 21 25 -24 2 21 4 0.86830255D-01 0.30620863D-01 0.89347946D+05 0.89347946D+05 0.89347946D+05 0.11680921D+01  1  2 11  2  6  2       21 0.154036498770D+02 0.100000000000D+01
-.909073104955D-03 0.000000000000D+00 -.413887884253D-08 0.124583577472D-06 0.000000000000D+00  6 1 -1 25 -24 2 -1 4 0.86830222D-01 0.30620868D-01 0.89300756D+05 0.89300756D+05 0.89300756D+05 0.11681134D+01  1  2  5  5  6  2       21 -.642495705374D-01 0.100000000000D+01
0.909229451037D-03 0.000000000000D+00 0.000000000000D+00 0.124583577472D-06 0.399937745653D-05  6 1 -1 25 -24 2 -1 4 0.86830255D-01 0.30620863D-01 0.89347946D+05 0.89347946D+05 0.89347946D+05 0.11680921D+01  1  2 11  5  6  2       21 0.642555400281D-01 0.100000000000D+01
-.909073104955D-03 0.000000000000D+00 -.413887884253D-08 0.124583577472D-06 0.000000000000D+00  6 1 1 25 -24 2 1 4 0.86830222D-01 0.30620868D-01 0.89300756D+05 0.89300756D+05 0.89300756D+05 0.11681134D+01  1  2  5  6  6  2       21 -.113996513976D+00 0.100000000000D+01
0.909520726015D-03 0.000000000000D+00 0.000000000000D+00 0.124583577472D-06 0.400065868401D-05  6 1 1 25 -24 2 1 4 0.86830255D-01 0.30620863D-01 0.89347946D+05 0.89347946D+05 0.89347946D+05 0.11680921D+01  1  2 11  6  6  2       21 0.114043659642D+00 0.100000000000D+01
-.909073104955D-03 0.000000000000D+00 -.413887884253D-08 0.124583577472D-06 0.000000000000D+00  6 1 -2 25 -24 2 -2 4 0.86830222D-01 0.30620868D-01 0.89300756D+05 0.89300756D+05 0.89300756D+05 0.11681134D+01  1  2  5  7  6  2       21 -.563694880297D-01 0.100000000000D+01
0.909531407973D-03 0.000000000000D+00 0.000000000000D+00 0.124583577472D-06 0.400070572653D-05  6 1 -2 25 -24 2 -2 4 0.86830255D-01 0.30620863D-01 0.89347946D+05 0.89347946D+05 0.89347946D+05 0.11680921D+01  1  2 11  7  6  2       21 0.563934891849D-01 0.100000000000D+01
-.909073104955D-03 0.000000000000D+00 -.413887884253D-08 0.124583577472D-06 0.000000000000D+00  6 1 2 25 -24 2 2 4 0.86830222D-01 0.30620868D-01 0.89300756D+05 0.89300756D+05 0.89300756D+05 0.11681134D+01  1  2  5  8  6  2       21 -.150690717204D+00 0.100000000000D+01
0.908836736268D-03 0.000000000000D+00 0.000000000000D+00 0.124583577472D-06 0.199882502411D-05  6 1 2 25 -24 2 2 4 0.86830255D-01 0.30620863D-01 0.89347946D+05 0.89347946D+05 0.89347946D+05 0.11680921D+01  1  2 11  8  6  2       21 0.150639830029D+00 0.100000000000D+01
-.909073104955D-03 0.000000000000D+00 -.413887884253D-08 0.124583577472D-06 0.000000000000D+00  6 1 -3 25 -24 2 -3 4 0.86830222D-01 0.30620868D-01 0.89300756D+05 0.89300756D+05 0.89300756D+05 0.11681134D+01  1  2  5  9  6  2       21 -.369410641378D-01 0.100000000000D+01
-.909073104955D-03 0.000000000000D+00 -.413887884253D-08 0.124583577472D-06 0.000000000000D+00  6 1 -4 25 -24 2 -4 4 0.86830222D-01 0.30620868D-01 0.89300756D+05 0.89300756D+05 0.89300756D+05 0.11681134D+01  1  2  5  9  6  2       21 -.314166915235D-01 0.100000000000D+01
0.909238591284D-03 0.000000000000D+00 0.000000000000D+00 0.124583577472D-06 0.399941766123D-05  6 1 -3 25 -24 2 -3 4 0.86830255D-01 0.30620863D-01 0.89347946D+05 0.89347946D+05 0.89347946D+05 0.11680921D+01  1  2 11  9  6  2       21 0.369452392456D-01 0.100000000000D+01
0.909238591284D-03 0.000000000000D+00 0.000000000000D+00 0.124583577472D-06 0.399941766123D-05  6 1 -4 25 -24 2 -4 4 0.86830255D-01 0.30620863D-01 0.89347946D+05 0.89347946D+05 0.89347946D+05 0.11680921D+01  1  2 11  9  6  2       21 0.314203797037D-01 0.100000000000D+01
-.909073104955D-03 0.000000000000D+00 -.413887884253D-08 0.124583577472D-06 0.000000000000D+00  6 1 3 25 -24 2 3 4 0.86830222D-01 0.30620868D-01 0.89300756D+05 0.89300756D+05 0.89300756D+05 0.11681134D+01  1  2  5 10  6  2       21 -.369431253812D-01 0.100000000000D+01
-.909073104955D-03 0.000000000000D+00 -.413887884253D-08 0.124583577472D-06 0.000000000000D+00  6 1 4 25 -24 2 4 4 0.86830222D-01 0.30620868D-01 0.89300756D+05 0.89300756D+05 0.89300756D+05 0.11681134D+01  1  2  5 10  6  2       21 -.314166915235D-01 0.100000000000D+01
0.909238591284D-03 0.000000000000D+00 0.000000000000D+00 0.124583577472D-06 0.399941766123D-05  6 1 3 25 -24 2 3 4 0.86830255D-01 0.30620863D-01 0.89347946D+05 0.89347946D+05 0.89347946D+05 0.11680921D+01  1  2 11 10  6  2       21 0.369473010318D-01 0.100000000000D+01
0.909238591284D-03 0.000000000000D+00 0.000000000000D+00 0.124583577472D-06 0.399941766123D-05  6 1 4 25 -24 2 4 4 0.86830255D-01 0.30620863D-01 0.89347946D+05 0.89347946D+05 0.89347946D+05 0.11680921D+01  1  2 11 10  6  2       21 0.314203797037D-01 0.100000000000D+01
  </mgrwgt>
  </event>
  <event>
  5     66 0.59588745E-03 0.31675752E+02 0.75467711E-02 0.11328353E+00
        1 -1    0    0  502    0 0.00000000E+00 0.00000000E+00 0.28189256E+03 0.28189275E+03 0.32000000E+00 0.0000E+00 0.9000E+01
       21 -1    0    0  501  502 0.00000000E+00 0.00000000E+00 -.17325140E+03 0.17325302E+03 0.75000000E+00 0.0000E+00 0.9000E+01
       25  1    1    2    0    0 -.94470485E+02 -.46298661E+02 0.17339995E+03 0.23824521E+03 0.12500000E+03 0.0000E+00 0.9000E+01
      -24  1    1    2    0    0 0.12548966E+03 0.39883850E+02 -.11227022E+02 0.15469854E+03 0.80419002E+02 0.0000E+00 0.9000E+01
        2  1    1    2  501    0 -.31019176E+02 0.64148114E+01 -.53531762E+02 0.62202018E+02 0.32000000E+00 0.0000E+00 0.9000E+01
#aMCatNLO 1  0  0  2  1 0.15512286D+02 0.00000000D+00  -5  6  0 0.00000000D+00 0.00000000D+00 0.00000000D+00 0.00000000D+00 0.00000000D+00
  <mgrwgt>
 0.3043967500D-01   14    2    0
 0.220994778143135D+03 0.000000000000000D+00 0.000000000000000D+00 0.220994778143135D+03
 0.220994778143135D+03 0.000000000000000D+00 0.000000000000000D+00 -.220994778143135D+03
 0.202715145528930D+03 -.944703626171902D+02 -.462986864061600D+02 0.120000885208635D+03
 0.162062887627412D+03 0.125489757984440D+03 0.398838294990313D+02 -.495859292265809D+02
 0.772115231299278D+02 -.310193953672502D+02 0.641485690712866D+01 -.704149559820544D+02
 0.000000000000000D+00 0.000000000000000D+00 -.000000000000000D+00 -.000000000000000D+00
 0.233894210935362D+03 0.000000000000000D+00 0.000000000000000D+00 0.233894210935362D+03
 0.383844158970741D+03 0.000000000000000D+00 0.000000000000000D+00 -.383844158970741D+03
 0.214221111462186D+03 -.123575041603992D+03 -.243860869720786D+02 0.120000885208635D+03
 0.151126498072385D+03 0.103627239721701D+03 0.563438841015551D+02 -.495859292265809D+02
 0.834430934687504D+02 -.422340617951496D+02 0.148582585104528D+02 -.704149559820544D+02
 0.168947666902783D+03 0.621818636774407D+02 -.468160556399292D+02 -.149949948035379D+03
0.498538107368D-05 0.000000000000D+00 0.000000000000D+00 0.766299473733D-06 0.000000000000D+00  6 1 21 25 -24 2 21 2 0.43368226D-01 0.26654200D-01 0.30510836D+05 0.30510836D+05 0.30510836D+05 0.12141295D+01  1  2  2  2  6  2       21 0.102221630431D-01 0.100000000000D+01
0.519640616224D-06 0.263085787132D-06 -.100640480358D-07 0.766299473733D-06 0.000000000000D+00  6 1 21 25 -24 2 21 4 0.43368226D-01 0.26654200D-01 0.30510836D+05 0.30510836D+05 0.30510836D+05 0.12141295D+01  1  2  3  2  6  2       21 0.157064336660D-02 0.100000000000D+01
0.463912272612D-06 0.000000000000D+00 0.000000000000D+00 0.766299473733D-06 0.000000000000D+00  6 1 21 25 -24 2 21 4 0.43368226D-01 0.26654200D-01 0.30510836D+05 0.30510836D+05 0.30510836D+05 0.12141295D+01  1  2 15  2  6  2       21 0.140220127317D-02 0.100000000000D+01
-.585929926063D-05 0.000000000000D+00 0.000000000000D+00 0.766299473733D-06 0.000000000000D+00  6 1 21 25 -24 2 21 4 0.43368226D-01 0.26654200D-01 0.30510836D+05 0.30510836D+05 0.30510836D+05 0.12141295D+01  1  2  4  2  6  2       21 -.177100658210D-01 0.100000000000D+01
-.307254642254D-04 0.000000000000D+00 -.681243589564D-05 0.766299473733D-06 0.000000000000D+00  6 1 21 25 -24 2 21 4 0.43368226D-01 0.48190161D-01 0.30510836D+05 0.30510836D+05 0.30510836D+05 0.12141295D+01  1  2  5  2  6  2       21 -.286022284070D-01 0.100000000000D+01
0.222904271714D-04 0.000000000000D+00 0.367734673507D-05 0.766299473733D-06 0.000000000000D+00  6 1 21 25 -24 2 21 4 0.43368226D-01 0.26654200D-01 0.30510836D+05 0.30510836D+05 0.30510836D+05 0.12141295D+01  1  2  6  2  6  2       21 0.673740860168D-01 0.100000000000D+01
-.456374005285D-05 0.000000000000D+00 -.143216031839D-05 0.766299473733D-06 0.000000000000D+00  6 1 -1 25 -24 2 -1 4 0.43368226D-01 0.48190161D-01 0.30510836D+05 0.30510836D+05 0.30510836D+05 0.12141295D+01  1  2  5  5  6  2       21 -.417729785299D-03 0.100000000000D+01
-.456374005285D-05 0.000000000000D+00 -.143216031839D-05 0.766299473733D-06 0.000000000000D+00  6 1 1 25 -24 2 1 4 0.43368226D-01 0.48190161D-01 0.30510836D+05 0.30510836D+05 0.30510836D+05 0.12141295D+01  1  2  5  6  6  2       21 -.932232989210D-03 0.100000000000D+01
-.456374005285D-05 0.000000000000D+00 -.143216031839D-05 0.766299473733D-06 0.000000000000D+00  6 1 -2 25 -24 2 -2 4 0.43368226D-01 0.48190161D-01 0.30510836D+05 0.30510836D+05 0.30510836D+05 0.12141295D+01  1  2  5  7  6  2       21 -.344189648847D-03 0.100000000000D+01
-.456374005285D-05 0.000000000000D+00 -.143216031839D-05 0.766299473733D-06 0.000000000000D+00  6 1 2 25 -24 2 2 4 0.43368226D-01 0.48190161D-01 0.30510836D+05 0.30510836D+05 0.30510836D+05 0.12141295D+01  1  2  5  8  6  2       21 -.132936379595D-02 0.100000000000D+01
-.456374005285D-05 0.000000000000D+00 -.143216031839D-05 0.766299473733D-06 0.000000000000D+00  6 1 -3 25 -24 2 -3 4 0.43368226D-01 0.48190161D-01 0.30510836D+05 0.30510836D+05 0.30510836D+05 0.12141295D+01  1  2  5  9  6  2       21 -.217223394113D-03 0.100000000000D+01
-.456374005285D-05 0.000000000000D+00 -.143216031839D-05 0.766299473733D-06 0.000000000000D+00  6 1 -4 25 -24 2 -4 4 0.43368226D-01 0.48190161D-01 0.30510836D+05 0.30510836D+05 0.30510836D+05 0.12141295D+01  1  2  5  9  6  2       21 -.179539569661D-03 0.100000000000D+01
-.456374005285D-05 0.000000000000D+00 -.143216031839D-05 0.766299473733D-06 0.000000000000D+00  6 1 3 25 -24 2 3 4 0.43368226D-01 0.48190161D-01 0.30510836D+05 0.30510836D+05 0.30510836D+05 0.12141295D+01  1  2  5 10  6  2       21 -.217305716512D-03 0.100000000000D+01
-.456374005285D-05 0.000000000000D+00 -.143216031839D-05 0.766299473733D-06 0.000000000000D+00  6 1 4 25 -24 2 4 4 0.43368226D-01 0.48190161D-01 0.30510836D+05 0.30510836D+05 0.30510836D+05 0.12141295D+01  1  2  5 10  6  2       21 -.179539569661D-03 0.100000000000D+01
  </mgrwgt>
  </event>
  <event>
  5     66 0.59588745E-03 0.76427386E+02 0.75467711E-02 0.10980409E+00
        1 -1    0    0  502    0 0.00000000E+00 0.00000000E+00 0.15662920E+04 0.15662920E+04 0.32000000E+00 0.0000E+00 0.9000E+01
       21 -1    0    0  501  502 0.00000000E+00 0.00000000E+00 -.16084116E+03 0.16084291E+03 0.75000000E+00 0.0000E+00 0.9000E+01
       25  1    1    2    0    0 0.17214584E+03 -.31656428E+02 0.60293715E+03 0.64015196E+03 0.12500000E+03 0.0000E+00 0.9000E+01
      -24  1    1    2    0    0 -.17234292E+03 0.10808355E+03 0.92064922E+03 0.94628026E+03 0.80419002E+02 0.0000E+00 0.9000E+01
        2  1    1    2  501    0 0.19708677E+00 -.76427118E+02 -.11813555E+03 0.14070271E+03 0.32000000E+00 0.0000E+00 0.9000E+01
#aMCatNLO 1  0  0  2  1 0.31738219D+02 0.00000000D+00  -5  6  0 0.00000000D+00 0.00000000D+00 0.00000000D+00 0.00000000D+00 0.00000000D+00
  <mgrwgt>
 0.1124609389D+00   23    2    0
 0.501922068528562D+03 0.000000000000000D+00 0.000000000000000D+00 0.501922068528562D+03
 0.501922068528562D+03 0.000000000000000D+00 0.000000000000000D+00 -.501922068528562D+03
 0.257241433657827D+03 0.172145835735705D+03 -.316564214877506D+02 0.141109310138558D+03
 0.339122892863691D+03 -.172342922538888D+03 0.108083553354557D+03 0.259138926166787D+03
 0.407479810535606D+03 0.197086803183292D+00 -.764271318668068D+02 -.400248236305345D+03
 0.000000000000000D+00 0.000000000000000D+00 0.000000000000000D+00 -.000000000000000D+00
 0.504462218117768D+03 0.000000000000000D+00 0.000000000000000D+00 0.504462218117768D+03
 0.612173027153070D+03 0.000000000000000D+00 0.000000000000000D+00 -.612173027153070D+03
 0.257154334405544D+03 0.170365047137643D+03 -.395886980029334D+02 0.141109310138558D+03
 0.337151660857497D+03 -.174684119899356D+03 0.976550135154864D+02 0.259138926166787D+03
 0.410039745031928D+03 -.263308714775772D+01 -.890337502994301D+02 -.400248236305345D+03
 0.112289504975869D+03 0.695215990947119D+01 0.309674347868771D+02 -.107710809035303D+03
0.551162612893D-04 0.000000000000D+00 0.000000000000D+00 0.140630412990D-05 0.000000000000D+00  6 1 21 25 -24 2 21 2 0.24096814D+00 0.24744931D-01 0.65091662D+05 0.65091662D+05 0.65091662D+05 0.11811006D+01  1  2  2  2  6  2       21 0.844368164472D-02 0.100000000000D+01
0.912136571108D-05 0.290856501655D-05 -.111263851844D-06 0.140630412990D-05 0.000000000000D+00  6 1 21 25 -24 2 21 4 0.24096814D+00 0.24744931D-01 0.65091662D+05 0.65091662D+05 0.65091662D+05 0.11811006D+01  1  2  3  2  6  2       21 0.194933164771D-02 0.100000000000D+01
0.579531844247D-05 0.000000000000D+00 0.000000000000D+00 0.140630412990D-05 0.000000000000D+00  6 1 21 25 -24 2 21 4 0.24096814D+00 0.24744931D-01 0.65091662D+05 0.65091662D+05 0.65091662D+05 0.11811006D+01  1  2 15  2  6  2       21 0.123852041529D-02 0.100000000000D+01
0.109507346766D-02 0.000000000000D+00 0.000000000000D+00 0.139102152894D-05 0.000000000000D+00  6 1 21 25 -24 2 21 4 0.24096814D+00 0.30233941D-01 0.76030364D+05 0.76030364D+05 0.76030364D+05 0.11746654D+01  1  2 12  2  6  2       21 0.153626007519D+00 0.100000000000D+01
-.842717525239D-03 0.000000000000D+00 0.000000000000D+00 0.140630412990D-05 0.000000000000D+00  6 1 21 25 -24 2 21 4 0.24096814D+00 0.24744931D-01 0.65091662D+05 0.65091662D+05 0.65091662D+05 0.11811006D+01  1  2  4  2  6  2       21 -.180097585610D+00 0.100000000000D+01
-.227529356594D-02 0.000000000000D+00 -.108075725526D-03 0.140630412990D-05 0.000000000000D+00  6 1 21 25 -24 2 21 4 0.24096814D+00 0.30266537D-01 0.65091662D+05 0.65091662D+05 0.65091662D+05 0.11811006D+01  1  2  5  2  6  2       21 -.328872395411D+00 0.100000000000D+01
0.216072533180D-02 0.000000000000D+00 0.997861368467D-04 0.140630412990D-05 0.000000000000D+00  6 1 21 25 -24 2 21 4 0.24096814D+00 0.24744931D-01 0.65091662D+05 0.65091662D+05 0.65091662D+05 0.11811006D+01  1  2  6  2  6  2       21 0.461769695977D+00 0.100000000000D+01
0.586690966281D-04 0.000000000000D+00 0.000000000000D+00 0.139102152894D-05 0.000000000000D+00  6 1 -1 25 -24 2 -1 4 0.24096814D+00 0.30233941D-01 0.76030364D+05 0.76030364D+05 0.76030364D+05 0.11746654D+01  1  2 12  5  6  2       21 0.736108605166D-03 0.100000000000D+01
-.110925194340D-03 0.000000000000D+00 -.625362871101D-05 0.140630412990D-05 0.000000000000D+00  6 1 -1 25 -24 2 -1 4 0.24096814D+00 0.30266537D-01 0.65091662D+05 0.65091662D+05 0.65091662D+05 0.11811006D+01  1  2  5  5  6  2       21 -.142883125100D-02 0.100000000000D+01
0.586690966281D-04 0.000000000000D+00 0.000000000000D+00 0.139102152894D-05 0.000000000000D+00  6 1 1 25 -24 2 1 4 0.24096814D+00 0.30233941D-01 0.76030364D+05 0.76030364D+05 0.76030364D+05 0.11746654D+01  1  2 12  6  6  2       21 0.129858639466D-02 0.100000000000D+01
-.110925194340D-03 0.000000000000D+00 -.625362871101D-05 0.140630412990D-05 0.000000000000D+00  6 1 1 25 -24 2 1 4 0.24096814D+00 0.30266537D-01 0.65091662D+05 0.65091662D+05 0.65091662D+05 0.11811006D+01  1  2  5  6  6  2       21 -.252162939960D-02 0.100000000000D+01
0.586690966281D-04 0.000000000000D+00 0.000000000000D+00 0.139102152894D-05 0.000000000000D+00  6 1 -2 25 -24 2 -2 4 0.24096814D+00 0.30233941D-01 0.76030364D+05 0.76030364D+05 0.76030364D+05 0.11746654D+01  1  2 12  7  6  2       21 0.646641659023D-03 0.100000000000D+01
-.110925194340D-03 0.000000000000D+00 -.625362871101D-05 0.140630412990D-05 0.000000000000D+00  6 1 -2 25 -24 2 -2 4 0.24096814D+00 0.30266537D-01 0.65091662D+05 0.65091662D+05 0.65091662D+05 0.11811006D+01  1  2  5  7  6  2       21 -.125473717592D-02 0.100000000000D+01
0.586690966281D-04 0.000000000000D+00 0.000000000000D+00 0.139102152894D-05 0.000000000000D+00  6 1 2 25 -24 2 2 4 0.24096814D+00 0.30233941D-01 0.76030364D+05 0.76030364D+05 0.76030364D+05 0.11746654D+01  1  2 12  8  6  2       21 0.171242328078D-02 0.100000000000D+01
-.110925194340D-03 0.000000000000D+00 -.625362871101D-05 0.140630412990D-05 0.000000000000D+00  6 1 2 25 -24 2 2 4 0.24096814D+00 0.30266537D-01 0.65091662D+05 0.65091662D+05 0.65091662D+05 0.11811006D+01  1  2  5  8  6  2       21 -.332474057114D-02 0.100000000000D+01
0.586690966281D-04 0.000000000000D+00 0.000000000000D+00 0.139102152894D-05 0.000000000000D+00  6 1 -3 25 -24 2 -3 4 0.24096814D+00 0.30233941D-01 0.76030364D+05 0.76030364D+05 0.76030364D+05 0.11746654D+01  1  2 12  9  6  2       21 0.422831399166D-03 0.100000000000D+01
0.586690966281D-04 0.000000000000D+00 0.000000000000D+00 0.139102152894D-05 0.000000000000D+00  6 1 -4 25 -24 2 -4 4 0.24096814D+00 0.30233941D-01 0.76030364D+05 0.76030364D+05 0.76030364D+05 0.11746654D+01  1  2 12  9  6  2       21 0.359295184530D-03 0.100000000000D+01
-.110925194340D-03 0.000000000000D+00 -.625362871101D-05 0.140630412990D-05 0.000000000000D+00  6 1 -3 25 -24 2 -3 4 0.24096814D+00 0.30266537D-01 0.65091662D+05 0.65091662D+05 0.65091662D+05 0.11811006D+01  1  2  5  9  6  2       21 -.818044255377D-03 0.100000000000D+01
-.110925194340D-03 0.000000000000D+00 -.625362871101D-05 0.140630412990D-05 0.000000000000D+00  6 1 -4 25 -24 2 -4 4 0.24096814D+00 0.30266537D-01 0.65091662D+05 0.65091662D+05 0.65091662D+05 0.11811006D+01  1  2  5  9  6  2       21 -.694143224171D-03 0.100000000000D+01
0.586690966281D-04 0.000000000000D+00 0.000000000000D+00 0.139102152894D-05 0.000000000000D+00  6 1 3 25 -24 2 3 4 0.24096814D+00 0.30233941D-01 0.76030364D+05 0.76030364D+05 0.76030364D+05 0.11746654D+01  1  2 12 10  6  2       21 0.422851425587D-03 0.100000000000D+01
0.586690966281D-04 0.000000000000D+00 0.000000000000D+00 0.139102152894D-05 0.000000000000D+00  6 1 4 25 -24 2 4 4 0.24096814D+00 0.30233941D-01 0.76030364D+05 0.76030364D+05 0.76030364D+05 0.11746654D+01  1  2 12 10  6  2       21 0.359295184530D-03 0.100000000000D+01
-.110925194340D-03 0.000000000000D+00 -.625362871101D-05 0.140630412990D-05 0.000000000000D+00  6 1 3 25 -24 2 3 4 0.24096814D+00 0.30266537D-01 0.65091662D+05 0.65091662D+05 0.65091662D+05 0.11811006D+01  1  2  5 10  6  2       21 -.818081298258D-03 0.100000000000D+01
-.110925194340D-03 0.000000000000D+00 -.625362871101D-05 0.140630412990D-05 0.000000000000D+00  6 1 4 25 -24 2 4 4 0.24096814D+00 0.30266537D-01 0.65091662D+05 0.65091662D+05 0.65091662D+05 0.11811006D+01  1  2  5 10  6  2       21 -.694143224171D-03 0.100000000000D+01
  </mgrwgt>
  </event>
  <event>
  6     66 0.59588745E-03 0.30091634E+02 0.75467711E-02 0.11003940E+00
        1 -1    0    0  502    0 0.00000000E+00 0.00000000E+00 0.23429302E+03 0.23429324E+03 0.32000000E+00 0.0000E+00 0.9000E+01
       21 -1    0    0  501  502 -.00000000E+00 -.00000000E+00 -.33700434E+03 0.33700518E+03 0.75000000E+00 0.0000E+00 0.9000E+01
       25  1    1    2    0    0 0.11072439E+03 -.19009190E+03 0.69311478E+01 0.25311630E+03 0.12500000E+03 0.0000E+00 0.9000E+01
      -24  1    1    2    0    0 -.12786827E+03 0.17758911E+03 -.56896852E+02 0.23998469E+03 0.80419002E+02 0.0000E+00 0.9000E+01
        2  1    1    2  503    0 -.11257464E+02 -.14471928E+02 -.13742483E+02 0.22915615E+02 0.32000000E+00 0.0000E+00 0.9000E+01
       21  1    1    2  501  503 0.28401341E+02 0.26974720E+02 -.39003134E+02 0.55281811E+02 0.75000000E+00 0.0000E+00 0.9000E+01
#aMCatNLO 2  0  0  5  2 0.20050561D+02 0.00000000D+00  -5  6  0 0.00000000D+00 0.00000000D+00 0.00000000D+00 0.00000000D+00 0.00000000D+00
  <mgrwgt>
 0.1801820872D-01    1    2    0
 0.280994781276386D+03 0.000000000000000D+00 0.000000000000000D+00 0.280994781276386D+03
 0.280994781276386D+03 -.000000000000000D+00 -.000000000000000D+00 -.280994781276386D+03
 0.261487849185823D+03 0.106154777195527D+03 -.193424453805835D+03 0.637890211581127D+02
 0.233213556898063D+03 -.131969647769856D+03 0.174598027987239D+03 -.457032352713623D+01
 0.672881564688869D+02 0.258148705743286D+02 0.188264258185951D+02 -.592186976309763D+02
 0.000000000000000D+00 0.000000000000000D+00 0.000000000000000D+00 0.000000000000000D+00
 0.280994781276386D+03 0.000000000000000D+00 0.000000000000000D+00 0.280994781276386D+03
 0.280994781276386D+03 -.000000000000000D+00 -.000000000000000D+00 -.280994781276386D+03
 0.258649794130672D+03 0.110597187776336D+03 -.190184665598703D+03 0.535982371996935D+02
 0.233544753591417D+03 -.127983141344408D+03 0.177505331639139D+03 -.137152742226210D+02
 0.200516170090878D+02 -.110305779850683D+02 -.140867347311813D+02 -.905304361017888D+01
 0.497433978215954D+02 0.284165315531404D+02 0.267660686907459D+02 -.308299193668934D+02
0.208836108737D-04 0.000000000000D+00 0.000000000000D+00 0.540075483731D-06 0.310924738087D-08  6 1 21 25 -24 2 21 4 0.36045161D-01 0.51846903D-01 0.73741084D+05 0.73741084D+05 0.73741084D+05 0.11759234D+01  1  2  1  3  6  5        2 0.180182087248D-01 0.100000000000D+01
  </mgrwgt>
  </event>
  <event>
  6     66 -.59588745E-03 0.24376626E+02 0.75467711E-02 0.11901660E+00
        1 -1    0    0  502    0 0.00000000E+00 0.00000000E+00 0.11194520E+04 0.11194520E+04 0.32000000E+00 0.0000E+00 0.9000E+01
       21 -1    0    0  503  502 0.00000000E+00 0.00000000E+00 -.60081792E+02 0.60086473E+02 0.75000000E+00 0.0000E+00 0.9000E+01
       25  1    1    2    0    0 0.54799494E+02 -.62732682E+02 0.18910911E+03 0.24150700E+03 0.12500000E+03 0.0000E+00 0.9000E+01
      -24  1    1    2    0    0 -.64353786E+02 0.89968585E+02 0.89010249E+03 0.90054729E+03 0.80419002E+02 0.0000E+00 0.9000E+01
        2  1    1    2  501    0 0.25685248E+01 -.20750437E+02 -.18322278E+02 0.27802630E+02 0.32000000E+00 0.0000E+00 0.9000E+01
       21  1    1    2  503  501 0.69857670E+01 -.64854655E+01 -.15191621E+01 0.96815576E+01 0.75000000E+00 0.0000E+00 0.9000E+01
#aMCatNLO 2  0  0  2  1 0.95321668D+01 0.00000000D+00  -5  6  0 0.00000000D+00 0.00000000D+00 0.00000000D+00 0.00000000D+00 0.00000000D+00
  <mgrwgt>
 -.1963905143D+00    5    2    0
 0.246469156382769D+03 0.000000000000000D+00 0.000000000000000D+00 0.246469156382769D+03
 0.246469156382769D+03 0.000000000000000D+00 0.000000000000000D+00 -.246469156382769D+03
 0.167758149841621D+03 0.571651120161733D+02 -.649288529087778D+02 -.709520321513940D+02
 0.219456027869733D+03 -.612294703256948D+02 0.870680621599764D+02 0.174252221590808D+03
 0.105724135054184D+03 0.406435830952153D+01 -.221392092511986D+02 -.103300189439414D+03
 0.000000000000000D+00 0.000000000000000D+00 -.000000000000000D+00 -.000000000000000D+00
 0.247411901751615D+03 0.000000000000000D+00 0.000000000000000D+00 0.247411901751615D+03
 0.271848531948572D+03 0.000000000000000D+00 0.000000000000000D+00 -.271848531948572D+03
 0.166125133749451D+03 0.547994885948795D+02 -.627326489684623D+02 -.709520321513940D+02
 0.221510312819025D+03 -.643537965642411D+02 0.899686326963358D+02 0.174252221590808D+03
 0.105395021451828D+03 0.256854092105321D+01 -.207505182139963D+02 -.103300189439414D+03
 0.262299656798814D+02 0.698576704830845D+01 -.648546551387731D+01 -.244366301969570D+02
-.689515413223D-04 0.000000000000D+00 0.000000000000D+00 0.147330220340D-05 0.000000000000D+00  6 1 21 25 -24 2 21 4 0.17156379D+00 0.92585725D-02 0.25187432D+05 0.25187432D+05 0.25187432D+05 0.12229500D+01  1  2 13  2  6  2       21 -.214552254877D+00 0.100000000000D+01
-.761159972950D-08 0.000000000000D+00 0.000000000000D+00 0.148013247130D-05 0.000000000000D+00  6 1 21 25 -24 2 21 4 0.17156379D+00 0.83805556D-02 0.23705245D+05 0.23705245D+05 0.23705245D+05 0.12257815D+01  1  2  8  2  6  2       21 -.284705362957D-04 0.100000000000D+01
-.148552850361D-07 0.000000000000D+00 0.000000000000D+00 0.148013247130D-05 0.000000000000D+00  6 1 21 25 -24 2 21 4 0.17156379D+00 0.92722508D-02 0.23705245D+05 0.23705245D+05 0.23705245D+05 0.12257815D+01  1  2  9  2  6  2       21 -.465898549279D-04 0.100000000000D+01
0.145857388624D-07 0.000000000000D+00 0.000000000000D+00 0.148013247130D-05 0.000000000000D+00  6 1 21 25 -24 2 21 4 0.17156379D+00 0.83805556D-02 0.23705245D+05 0.23705245D+05 0.23705245D+05 0.12257815D+01  1  2 10  2  6  2       21 0.545567058753D-04 0.100000000000D+01
0.586716257984D-05 0.000000000000D+00 0.000000000000D+00 0.148013247130D-05 0.184129407535D-06  6 1 21 25 -24 2 21 4 0.17222002D+00 0.92435166D-02 0.25187432D+05 0.25187432D+05 0.25187432D+05 0.12229500D+01  1  2  1  2  6  2       21 0.181822442447D-01 0.100000000000D+01
  </mgrwgt>
  </event>
</LesHouchesEvents>
