<event>
 5    0  0.3188794E-002  0.8665592E+03  0.7546771E-02  0.9468377E-01
         21   -1    0    0  501  502  0.00000000000E+00  0.00000000000E+00  0.64823287511E+03  0.64823287511E+03  0.00000000000E+00 0. -1.
          2   -1    0    0  503    0 -0.00000000000E+00 -0.00000000000E+00 -0.10661672125E+04  0.10661672125E+04  0.00000000000E+00 0. -1.
         25    1    1    2    0    0  0.31637536833E+03  0.12027636538E+03 -0.19598816574E+03  0.41060460161E+03  0.12500000000E+03 0.  0.
         21    1    1    2  503  502 -0.21831050323E+03  0.44417526610E+03 -0.46719337669E+03  0.68060325746E+03  0.00000000000E+00 0. -1.
          2    1    1    2  501    0 -0.98064865103E+02 -0.56445163149E+03  0.24524720509E+03  0.62319222850E+03  0.00000000000E+00 0. -1.
<mgrwt>
<rscale>  4 0.86655919E+03</rscale>
<asrwt>0</asrwt>
<pdfrwt beam="1">  1       21 0.99728136E-01 0.86655919E+03</pdfrwt>
<pdfrwt beam="2">  1        2 0.16402572E+00 0.86655919E+03</pdfrwt>
<totfact> 0.20072128E+02</totfact>
</mgrwt>
</event>
<event>
 5    0  0.3188794E-002  0.4886678E+03  0.7546771E-02  0.1016780E+00
         21   -1    0    0  501  502  0.00000000000E+00  0.00000000000E+00  0.15445146158E+03  0.15445146158E+03  0.00000000000E+00 0.  1.
          2   -1    0    0  503    0 -0.00000000000E+00 -0.00000000000E+00 -0.20090597526E+04  0.20090597526E+04  0.00000000000E+00 0.  1.
         25    1    1    2    0    0  0.20924919436E+03 -0.49107290639E+02 -0.70863313400E+03  0.75098779613E+03  0.12500000000E+03 0.  0.
         21    1    1    2  503  502 -0.11179298826E+03  0.18279938291E+03 -0.12146416019E+04  0.12333967357E+04  0.00000000000E+00 0.  1.
          2    1    1    2  501    0 -0.97456206099E+02 -0.13369209227E+03  0.68666444946E+02  0.17912668228E+03  0.00000000000E+00 0.  1.
<mgrwt>
<rscale>  4 0.48866784E+03</rscale>
<asrwt>0</asrwt>
<pdfrwt beam="1">  1       21 0.23761765E-01 0.48866784E+03</pdfrwt>
<pdfrwt beam="2">  1        2 0.30908610E+00 0.48866784E+03</pdfrwt>
<totfact> 0.14130390E+03</totfact>
</mgrwt>
</event>
<event>
 5    0  0.3188794E-002  0.4465496E+03  0.7546771E-02  0.1028756E+00
         21   -1    0    0  501  502  0.00000000000E+00  0.00000000000E+00  0.58982894172E+03  0.58982894172E+03  0.00000000000E+00 0. -1.
          2   -1    0    0  503    0 -0.00000000000E+00 -0.00000000000E+00 -0.13388886821E+03  0.13388886821E+03  0.00000000000E+00 0.  1.
         25    1    1    2    0    0 -0.22829884404E+03 -0.72945184830E+02  0.21175351659E+03  0.34337430592E+03  0.12500000000E+03 0.  0.
         21    1    1    2  503  502  0.17161817436E+03 -0.19578313778E+02  0.19705760372E+03  0.26204542989E+03  0.00000000000E+00 0. -1.
          2    1    1    2  501    0  0.56680669675E+02  0.92523498609E+02  0.47128953203E+02  0.11829807412E+03  0.00000000000E+00 0.  1.
<mgrwt>
<rscale>  4 0.44654958E+03</rscale>
<asrwt>0</asrwt>
<pdfrwt beam="1">  1       21 0.90742913E-01 0.44654958E+03</pdfrwt>
<pdfrwt beam="2">  1        2 0.20598288E-01 0.44654958E+03</pdfrwt>
<totfact> 0.31862904E+03</totfact>
</mgrwt>
</event>
<event>
 5    0  0.3188794E-002  0.6521919E+03  0.7546771E-02  0.9802675E-01
          1   -1    0    0  503    0 -0.00000000000E+00  0.00000000000E+00  0.11248395473E+04  0.11248395473E+04  0.00000000000E+00 0.  1.
         21   -1    0    0  501  502  0.00000000000E+00 -0.00000000000E+00 -0.24040317634E+03  0.24040317634E+03  0.00000000000E+00 0.  1.
         25    1    1    2    0    0 -0.15477769962E+03  0.20068635344E+03  0.20600658024E+03  0.34970681986E+03  0.12500000000E+03 0.  0.
         21    1    1    2  503  502  0.26144964321E+03 -0.12027561695E+03  0.79044346389E+03  0.84120331049E+03  0.00000000000E+00 0.  1.
          1    1    1    2  501    0 -0.10667194359E+03 -0.80410736488E+02 -0.11201367319E+03  0.17433259327E+03  0.00000000000E+00 0.  1.
<mgrwt>
<rscale>  4 0.65219188E+03</rscale>
<asrwt>0</asrwt>
<pdfrwt beam="1">  1       21 0.36985105E-01 0.65219188E+03</pdfrwt>
<pdfrwt beam="2">  1        1 0.17305223E+00 0.65219188E+03</pdfrwt>
<totfact> 0.89525476E+02</totfact>
</mgrwt>
</event>
<event>
 5    0  0.3188794E-002  0.3872356E+03  0.7546771E-02  0.1048291E+00
          2   -1    0    0  503    0 -0.00000000000E+00  0.00000000000E+00  0.64519300982E+03  0.64519300982E+03  0.00000000000E+00 0.  1.
         21   -1    0    0  501  502  0.00000000000E+00 -0.00000000000E+00 -0.28072977876E+03  0.28072977876E+03  0.00000000000E+00 0.  1.
         25    1    1    2    0    0  0.81632329034E+02  0.19016705049E+03  0.47274195315E+03  0.53097768173E+03  0.12500000000E+03 0.  0.
         21    1    1    2  503  502 -0.86837632334E+02 -0.91275410242E+02  0.10227125816E+03  0.16226948312E+03  0.00000000000E+00 0. -1.
          2    1    1    2  501    0  0.52053033002E+01 -0.98891640245E+02 -0.21054998026E+03  0.23267562373E+03  0.00000000000E+00 0.  1.
<mgrwt>
<rscale>  4 0.38723564E+03</rscale>
<asrwt>0</asrwt>
<pdfrwt beam="1">  1       21 0.43189197E-01 0.38723564E+03</pdfrwt>
<pdfrwt beam="2">  1        2 0.99260463E-01 0.38723564E+03</pdfrwt>
<totfact> 0.28347331E+03</totfact>
</mgrwt>
</event>
<event>
 5    0  0.3188794E-002  0.3778005E+03  0.7546771E-02  0.1051750E+00
          2   -1    0    0  503    0 -0.00000000000E+00  0.00000000000E+00  0.36730777976E+03  0.36730777976E+03  0.00000000000E+00 0.  1.
         21   -1    0    0  501  502  0.00000000000E+00 -0.00000000000E+00 -0.20873157488E+03  0.20873157488E+03  0.00000000000E+00 0.  1.
         25    1    1    2    0    0 -0.18583040726E+03 -0.81135354321E+02  0.12584206929E+03  0.26940139641E+03  0.12500000000E+03 0.  0.
         21    1    1    2  503  502  0.12637226730E+03  0.45207715270E+02  0.13017143900E+03  0.18697136410E+03  0.00000000000E+00 0. -1.
          2    1    1    2  501    0  0.59458139961E+02  0.35927639051E+02 -0.97437303413E+02  0.11966659413E+03  0.00000000000E+00 0.  1.
<mgrwt>
<rscale>  4 0.37780045E+03</rscale>
<asrwt>0</asrwt>
<pdfrwt beam="1">  1       21 0.32112550E-01 0.37780045E+03</pdfrwt>
<pdfrwt beam="2">  1        2 0.56508889E-01 0.37780045E+03</pdfrwt>
<totfact> 0.98555504E+03</totfact>
</mgrwt>
</event>
<event>
 5    0  0.3188794E-002  0.5397226E+03  0.7546771E-02  0.1003901E+00
         21   -1    0    0  501  502  0.00000000000E+00  0.00000000000E+00  0.35874063266E+03  0.35874063266E+03  0.00000000000E+00 0.  1.
          3   -1    0    0  503    0 -0.00000000000E+00 -0.00000000000E+00 -0.56212135302E+03  0.56212135302E+03  0.00000000000E+00 0.  1.
         25    1    1    2    0    0 -0.52471784257E+02  0.19919732914E+03 -0.50412374271E+02  0.24616919295E+03  0.12500000000E+03 0.  0.
         21    1    1    2  503  502  0.83688644779E+02 -0.21391773361E+03 -0.38055325388E+03  0.44450575368E+03  0.00000000000E+00 0.  1.
          3    1    1    2  501    0 -0.31216860522E+02  0.14720404475E+02  0.22758490779E+03  0.23018703904E+03  0.00000000000E+00 0.  1.
<mgrwt>
<rscale>  4 0.53972262E+03</rscale>
<asrwt>0</asrwt>
<pdfrwt beam="1">  1       21 0.55190867E-01 0.53972262E+03</pdfrwt>
<pdfrwt beam="2">  1        3 0.86480208E-01 0.53972262E+03</pdfrwt>
<totfact> 0.18021381E+02</totfact>
</mgrwt>
</event>
<event>
 5    0  0.3188794E-002  0.3828059E+03  0.7546771E-02  0.1049902E+00
          2   -1    0    0  503    0 -0.00000000000E+00  0.00000000000E+00  0.13387779222E+04  0.13387779222E+04  0.00000000000E+00 0. -1.
         21   -1    0    0  501  502  0.00000000000E+00 -0.00000000000E+00 -0.61461734622E+02  0.61461734622E+02  0.00000000000E+00 0.  1.
         25    1    1    2    0    0  0.20931573693E+03 -0.39993198709E+02  0.81798830052E+03  0.85448369994E+03  0.12500000000E+03 0.  0.
         21    1    1    2  503  502 -0.13258368103E+03  0.29135129187E+02  0.44715907873E+03  0.46730988639E+03  0.00000000000E+00 0. -1.
          2    1    1    2  501    0 -0.76732055908E+02  0.10858069522E+02  0.12168808310E+02  0.78446070477E+02  0.00000000000E+00 0. -1.
<mgrwt>
<rscale>  4 0.38280595E+03</rscale>
<asrwt>0</asrwt>
<pdfrwt beam="1">  1       21 0.94556525E-02 0.38280595E+03</pdfrwt>
<pdfrwt beam="2">  1        2 0.20596581E+00 0.38280595E+03</pdfrwt>
<totfact> 0.18431852E+04</totfact>
</mgrwt>
</event>
<event>
 5    0  0.3188794E-002  0.4229784E+03  0.7546771E-02  0.1036101E+00
         21   -1    0    0  501  502  0.00000000000E+00  0.00000000000E+00  0.14137142489E+03  0.14137142489E+03  0.00000000000E+00 0.  1.
          2   -1    0    0  503    0 -0.00000000000E+00 -0.00000000000E+00 -0.57263609684E+03  0.57263609684E+03  0.00000000000E+00 0. -1.
         25    1    1    2    0    0  0.20015666778E+03 -0.61337539535E-01 -0.40034073563E+03  0.46471539680E+03  0.12500000000E+03 0.  0.
         21    1    1    2  503  502 -0.15727810143E+03 -0.11204094486E+02 -0.85190151329E+02  0.17921856714E+03  0.00000000000E+00 0.  1.
          2    1    1    2  501    0 -0.42878566346E+02  0.11265432025E+02  0.54266215012E+02  0.70073557797E+02  0.00000000000E+00 0. -1.
<mgrwt>
<rscale>  4 0.42297838E+03</rscale>
<asrwt>0</asrwt>
<pdfrwt beam="1">  1       21 0.21749450E-01 0.42297838E+03</pdfrwt>
<pdfrwt beam="2">  1        2 0.88097861E-01 0.42297838E+03</pdfrwt>
<totfact> 0.12717304E+04</totfact>
</mgrwt>
</event>
<event>
 5    0  0.3188794E-002  0.4308279E+03  0.7546771E-02  0.1033599E+00
         21   -1    0    0  503  502  0.00000000000E+00  0.00000000000E+00  0.41029187224E+02  0.41029187224E+02  0.00000000000E+00 0.  1.
          2   -1    0    0  502    0 -0.00000000000E+00 -0.00000000000E+00 -0.29897336048E+04  0.29897336048E+04  0.00000000000E+00 0.  1.
         25    1    1    2    0    0  0.44353242012E+01 -0.23133145413E+03 -0.14274600651E+04  0.14514823978E+04  0.12500000000E+03 0.  0.
         21    1    1    2  503  501 -0.16079790881E+03  0.22106052858E+02 -0.62728992520E+03  0.64794852829E+03  0.00000000000E+00 0. -1.
          2    1    1    2  501    0  0.15636258461E+03  0.20922540127E+03 -0.89395442734E+03  0.93133186597E+03  0.00000000000E+00 0.  1.
<mgrwt>
<rscale>  4 0.43082791E+03</rscale>
<asrwt>0</asrwt>
<pdfrwt beam="1">  1       21 0.63121828E-02 0.43082791E+03</pdfrwt>
<pdfrwt beam="2">  1        2 0.45995901E+00 0.43082791E+03</pdfrwt>
<totfact> 0.45737605E+03</totfact>
</mgrwt>
</event>
<event>
 5    0  0.3188794E-002  0.4304843E+03  0.7546771E-02  0.1033707E+00
         21   -1    0    0  501  502  0.00000000000E+00  0.00000000000E+00  0.18520480319E+02  0.18520480319E+02  0.00000000000E+00 0. -1.
          2   -1    0    0  503    0 -0.00000000000E+00 -0.00000000000E+00 -0.28750971191E+04  0.28750971191E+04  0.00000000000E+00 0.  1.
         25    1    1    2    0    0  0.58583975993E+02 -0.19738912409E+03 -0.14160150277E+04  0.14363558429E+04  0.12500000000E+03 0.  0.
         21    1    1    2  503  502 -0.44947065719E+02  0.18126279408E+03 -0.13896658186E+04  0.14021581675E+04  0.00000000000E+00 0.  1.
          2    1    1    2  501    0 -0.13636910273E+02  0.16126330002E+02 -0.50895792473E+02  0.55103589108E+02  0.00000000000E+00 0.  1.
<mgrwt>
<rscale>  4 0.43048435E+03</rscale>
<asrwt>0</asrwt>
<pdfrwt beam="1">  1       21 0.28493059E-02 0.43048435E+03</pdfrwt>
<pdfrwt beam="2">  1        2 0.44232244E+00 0.43048435E+03</pdfrwt>
<totfact> 0.20857681E+04</totfact>
</mgrwt>
</event>
<event>
 5    0  0.3188794E-002  0.7910959E+03  0.7546771E-02  0.9572996E-01
         21   -1    0    0  503  502  0.00000000000E+00  0.00000000000E+00  0.53833846507E+03  0.53833846507E+03  0.00000000000E+00 0.  1.
         -4   -1    0    0    0  501 -0.00000000000E+00 -0.00000000000E+00 -0.10773516996E+04  0.10773516996E+04  0.00000000000E+00 0.  1.
         25    1    1    2    0    0 -0.54555892589E+03  0.12636797806E+03 -0.17511866987E+03  0.59991245698E+03  0.12500000000E+03 0.  0.
         21    1    1    2  503  501 -0.18193143623E+03 -0.91170030493E+02 -0.16162264777E+03  0.25987093378E+03  0.00000000000E+00 0.  1.
         -4    1    1    2    0  502  0.72749036213E+03 -0.35197947563E+02 -0.20227191690E+03  0.75590677393E+03  0.00000000000E+00 0.  1.
<mgrwt>
<rscale>  4 0.79109593E+03</rscale>
<asrwt>0</asrwt>
<pdfrwt beam="1">  1       21 0.82821303E-01 0.79109593E+03</pdfrwt>
<pdfrwt beam="2">  1       -4 0.16574641E+00 0.79109593E+03</pdfrwt>
<totfact> 0.11213076E+01</totfact>
</mgrwt>
</event>
<event>
 5    0  0.3188794E-002  0.4228936E+03  0.7546771E-02  0.1036129E+00
         21   -1    0    0  501  502  0.00000000000E+00  0.00000000000E+00  0.13279639376E+04  0.13279639376E+04  0.00000000000E+00 0.  1.
          2   -1    0    0  503    0 -0.00000000000E+00 -0.00000000000E+00 -0.10509566564E+03  0.10509566564E+03  0.00000000000E+00 0.  1.
         25    1    1    2    0    0 -0.25579324810E+03  0.86087149122E+02  0.39522944421E+03  0.49464380779E+03  0.12500000000E+03 0.  0.
         21    1    1    2  503  502  0.71796219069E+02  0.71111075666E+02  0.30804733010E+02  0.10564285935E+03  0.00000000000E+00 0.  1.
          2    1    1    2  501    0  0.18399702903E+03 -0.15719822479E+03  0.79683409470E+03  0.83277293606E+03  0.00000000000E+00 0.  1.
<mgrwt>
<rscale>  4 0.42289356E+03</rscale>
<asrwt>0</asrwt>
<pdfrwt beam="1">  1       21 0.20430213E+00 0.42289356E+03</pdfrwt>
<pdfrwt beam="2">  1        2 0.16168565E-01 0.42289356E+03</pdfrwt>
<totfact> 0.49016168E+02</totfact>
</mgrwt>
</event>
<event>
 5    0  0.3188794E-002  0.5058912E+03  0.7546771E-02  0.1012253E+00
          3   -1    0    0  503    0 -0.00000000000E+00  0.00000000000E+00  0.45282372489E+02  0.45282372489E+02  0.00000000000E+00 0.  1.
         21   -1    0    0  501  502  0.00000000000E+00 -0.00000000000E+00 -0.19743524466E+04  0.19743524466E+04  0.00000000000E+00 0. -1.
         25    1    1    2    0    0 -0.12436272051E+03  0.16290272831E+03 -0.11043862164E+04  0.11301757828E+04  0.12500000000E+03 0.  0.
         21    1    1    2  503  502  0.20500816938E+03 -0.11839738527E+03 -0.52432797200E+03  0.57529654316E+03  0.00000000000E+00 0.  1.
          3    1    1    2  501    0 -0.80645448871E+02 -0.44505343046E+02 -0.30035588568E+03  0.31416249306E+03  0.00000000000E+00 0.  1.
<mgrwt>
<rscale>  4 0.50589124E+03</rscale>
<asrwt>0</asrwt>
<pdfrwt beam="1">  1       21 0.30374651E+00 0.50589124E+03</pdfrwt>
<pdfrwt beam="2">  1        3 0.69665194E-02 0.50589124E+03</pdfrwt>
<totfact> 0.18558249E+02</totfact>
</mgrwt>
</event>
<event>
 5    0  0.3188794E-002  0.3589493E+03  0.7546771E-02  0.1059001E+00
          2   -1    0    0  503    0 -0.00000000000E+00  0.00000000000E+00  0.13325845204E+04  0.13325845204E+04  0.00000000000E+00 0. -1.
         21   -1    0    0  501  502  0.00000000000E+00 -0.00000000000E+00 -0.14028865252E+03  0.14028865252E+03  0.00000000000E+00 0. -1.
         25    1    1    2    0    0 -0.23916476269E+03  0.97864471213E+02  0.70035419558E+02  0.29547791530E+03  0.12500000000E+03 0.  0.
         21    1    1    2  503  502 -0.12029339160E+02 -0.59932552900E+02  0.61777276061E+02  0.86908271961E+02  0.00000000000E+00 0.  1.
          2    1    1    2  501    0  0.25119410185E+03 -0.37931918313E+02  0.10604831723E+04  0.10904869856E+04  0.00000000000E+00 0. -1.
<mgrwt>
<rscale>  4 0.35894931E+03</rscale>
<asrwt>0</asrwt>
<pdfrwt beam="1">  1       21 0.21582870E-01 0.35894931E+03</pdfrwt>
<pdfrwt beam="2">  1        2 0.20501299E+00 0.35894931E+03</pdfrwt>
<totfact> 0.40805056E+03</totfact>
</mgrwt>
</event>
<event>
 5    0  0.3188794E-002  0.5237897E+03  0.7546771E-02  0.1007749E+00
          2   -1    0    0  503    0 -0.00000000000E+00  0.00000000000E+00  0.11371642844E+04  0.11371642844E+04  0.00000000000E+00 0. -1.
         21   -1    0    0  501  502  0.00000000000E+00 -0.00000000000E+00 -0.17385891815E+03  0.17385891815E+03  0.00000000000E+00 0. -1.
         25    1    1    2    0    0  0.73654596280E+02  0.32989450193E+03  0.27927798775E+03  0.45593483789E+03  0.12500000000E+03 0.  0.
         21    1    1    2  503  502  0.14726204312E+03 -0.47866439604E+02  0.20927441136E+03  0.26033264227E+03  0.00000000000E+00 0. -1.
          2    1    1    2  501    0 -0.22091663940E+03 -0.28202806233E+03  0.47475296712E+03  0.59475572237E+03  0.00000000000E+00 0. -1.
<mgrwt>
<rscale>  4 0.52378971E+03</rscale>
<asrwt>0</asrwt>
<pdfrwt beam="1">  1       21 0.26747527E-01 0.52378971E+03</pdfrwt>
<pdfrwt beam="2">  1        2 0.17494835E+00 0.52378971E+03</pdfrwt>
<totfact> 0.33725139E+03</totfact>
</mgrwt>
</event>
<event>
 5    0  0.3188794E-002  0.4721705E+03  0.7546771E-02  0.1021309E+00
         21   -1    0    0  501  502  0.00000000000E+00  0.00000000000E+00  0.23603716481E+03  0.23603716481E+03  0.00000000000E+00 0.  1.
          2   -1    0    0  503    0 -0.00000000000E+00 -0.00000000000E+00 -0.51527702861E+03  0.51527702861E+03  0.00000000000E+00 0. -1.
         25    1    1    2    0    0  0.66077077663E+02 -0.20900568392E+03 -0.18600696066E+03  0.31348547896E+03  0.12500000000E+03 0.  0.
         21    1    1    2  503  502 -0.11399387275E+02  0.21752456348E+03 -0.21377016208E+03  0.30519594352E+03  0.00000000000E+00 0. -1.
          2    1    1    2  501    0 -0.54677690388E+02 -0.85188795591E+01  0.12053725894E+03  0.13263277094E+03  0.00000000000E+00 0. -1.
<mgrwt>
<rscale>  4 0.47217047E+03</rscale>
<asrwt>0</asrwt>
<pdfrwt beam="1">  1       21 0.36313410E-01 0.47217047E+03</pdfrwt>
<pdfrwt beam="2">  1        2 0.79273389E-01 0.47217047E+03</pdfrwt>
<totfact> 0.51964377E+03</totfact>
</mgrwt>
</event>
<event>
 5    0  0.3188794E-002  0.6486072E+03  0.7546771E-02  0.9809396E-01
         -3   -1    0    0    0  501 -0.00000000000E+00  0.00000000000E+00  0.36347315364E+03  0.36347315364E+03  0.00000000000E+00 0. -1.
         21   -1    0    0  503  502  0.00000000000E+00 -0.00000000000E+00 -0.10817491441E+04  0.10817491441E+04  0.00000000000E+00 0. -1.
         25    1    1    2    0    0  0.39701539647E+03  0.54776326055E+02 -0.30665896151E+02  0.42093594301E+03  0.12500000000E+03 0.  0.
         21    1    1    2  503  501  0.43942569376E+02 -0.22270978413E+03 -0.52356708628E+02  0.23296313504E+03  0.00000000000E+00 0.  1.
         -3    1    1    2    0  502 -0.44095796585E+03  0.16793345808E+03 -0.63525338569E+03  0.79132321969E+03  0.00000000000E+00 0. -1.
<mgrwt>
<rscale>  4 0.64860716E+03</rscale>
<asrwt>0</asrwt>
<pdfrwt beam="1">  1       21 0.16642294E+00 0.64860716E+03</pdfrwt>
<pdfrwt beam="2">  1       -3 0.55918947E-01 0.64860716E+03</pdfrwt>
<totfact> 0.30623627E+01</totfact>
</mgrwt>
</event>
<event>
 5    0  0.3188794E-002  0.3978225E+03  0.7546771E-02  0.1044536E+00
         21   -1    0    0  501  502  0.00000000000E+00  0.00000000000E+00  0.80267360594E+02  0.80267360594E+02  0.00000000000E+00 0.  1.
          2   -1    0    0  503    0 -0.00000000000E+00 -0.00000000000E+00 -0.23479946535E+04  0.23479946535E+04  0.00000000000E+00 0.  1.
         25    1    1    2    0    0 -0.15098561198E+03  0.17019343645E+03 -0.92477732735E+03  0.96052098677E+03  0.12500000000E+03 0.  0.
         21    1    1    2  503  502  0.29428484185E+02 -0.12557267917E+02 -0.12458491862E+04  0.12462599711E+04  0.00000000000E+00 0. -1.
          2    1    1    2  501    0  0.12155712780E+03 -0.15763616853E+03 -0.97100779370E+02  0.22148105630E+03  0.00000000000E+00 0.  1.
<mgrwt>
<rscale>  4 0.39782249E+03</rscale>
<asrwt>0</asrwt>
<pdfrwt beam="1">  1       21 0.12348825E-01 0.39782249E+03</pdfrwt>
<pdfrwt beam="2">  1        2 0.36122994E+00 0.39782249E+03</pdfrwt>
<totfact> 0.32433051E+03</totfact>
</mgrwt>
</event>
<event>
 5    0  0.3188794E-002  0.4858874E+03  0.7546771E-02  0.1017530E+00
         21   -1    0    0  501  502  0.00000000000E+00  0.00000000000E+00  0.36338164643E+03  0.36338164643E+03  0.00000000000E+00 0.  1.
         -4   -1    0    0    0  501 -0.00000000000E+00 -0.00000000000E+00 -0.37768740631E+03  0.37768740631E+03  0.00000000000E+00 0. -1.
         25    1    1    2    0    0 -0.25234490815E+03  0.76708176490E+02 -0.24281587630E+03  0.37966649417E+03  0.12500000000E+03 0.  0.
         21    1    1    2  503  502  0.66152354753E+02 -0.64409044618E+02  0.90749477267E+02  0.12946090797E+03  0.00000000000E+00 0.  1.
         -4    1    1    2    0  503  0.18619255340E+03 -0.12299131873E+02  0.13776063916E+03  0.23194165061E+03  0.00000000000E+00 0. -1.
<mgrwt>
<rscale>  4 0.48588736E+03</rscale>
<asrwt>0</asrwt>
<pdfrwt beam="1">  1       21 0.55904869E-01 0.48588736E+03</pdfrwt>
<pdfrwt beam="2">  1       -4 0.58105755E-01 0.48588736E+03</pdfrwt>
<totfact> 0.34967869E+02</totfact>
</mgrwt>
</event>
<event>
 5    0  0.3188794E-002  0.4476790E+03  0.7546771E-02  0.1028416E+00
         21   -1    0    0  501  502  0.00000000000E+00  0.00000000000E+00  0.30227569248E+03  0.30227569248E+03  0.00000000000E+00 0. -1.
          2   -1    0    0  503    0 -0.00000000000E+00 -0.00000000000E+00 -0.44677642174E+03  0.44677642174E+03  0.00000000000E+00 0. -1.
         25    1    1    2    0    0 -0.20068270299E+03 -0.22814105536E+03 -0.17220795344E+03  0.37094806598E+03  0.12500000000E+03 0.  0.
         21    1    1    2  503  502 -0.38414647096E+02  0.79187353903E+02  0.38799770550E+02  0.96185988191E+02  0.00000000000E+00 0.  1.
          2    1    1    2  501    0  0.23909735009E+03  0.14895370146E+03 -0.11092546363E+02  0.28191806005E+03  0.00000000000E+00 0. -1.
<mgrwt>
<rscale>  4 0.44767899E+03</rscale>
<asrwt>0</asrwt>
<pdfrwt beam="1">  1       21 0.46503953E-01 0.44767899E+03</pdfrwt>
<pdfrwt beam="2">  1        2 0.68734834E-01 0.44767899E+03</pdfrwt>
<totfact> 0.36770287E+03</totfact>
</mgrwt>
</event>
<event>
 5    0  0.3188794E-002  0.4440741E+03  0.7546771E-02  0.1029504E+00
          2   -1    0    0  503    0 -0.00000000000E+00  0.00000000000E+00  0.25305425054E+04  0.25305425054E+04  0.00000000000E+00 0. -1.
         21   -1    0    0  501  502  0.00000000000E+00 -0.00000000000E+00 -0.97119651881E+02  0.97119651881E+02  0.00000000000E+00 0. -1.
         25    1    1    2    0    0  0.51431802012E+02 -0.22662380499E+03  0.11848539839E+04  0.12138811896E+04  0.12500000000E+03 0.  0.
         21    1    1    2  503  502 -0.28433377335E+02  0.16115847204E+03  0.13105584301E+04  0.13207361238E+04  0.00000000000E+00 0. -1.
          2    1    1    2  501    0 -0.22998424677E+02  0.65465332948E+02 -0.61989560510E+02  0.93044843854E+02  0.00000000000E+00 0. -1.
<mgrwt>
<rscale>  4 0.44407410E+03</rscale>
<asrwt>0</asrwt>
<pdfrwt beam="1">  1       21 0.14941487E-01 0.44407410E+03</pdfrwt>
<pdfrwt beam="2">  1        2 0.38931418E+00 0.44407410E+03</pdfrwt>
<totfact> 0.17870541E+03</totfact>
</mgrwt>
</event>
<event>
 5    0  0.3188794E-002  0.3719338E+03  0.7546771E-02  0.1053956E+00
         21   -1    0    0  501  502  0.00000000000E+00  0.00000000000E+00  0.19309452195E+03  0.19309452195E+03  0.00000000000E+00 0.  1.
          2   -1    0    0  503    0 -0.00000000000E+00 -0.00000000000E+00 -0.36373761534E+03  0.36373761534E+03  0.00000000000E+00 0. -1.
         25    1    1    2    0    0  0.93455544456E+02 -0.18316988045E+03 -0.12034199797E+03  0.26905824717E+03  0.12500000000E+03 0.  0.
         21    1    1    2  503  502 -0.45746774401E+02  0.11591512655E+03 -0.12500477999E+03  0.17650858039E+03  0.00000000000E+00 0. -1.
          2    1    1    2  501    0 -0.47708770055E+02  0.67254753904E+02  0.74703684568E+02  0.11126530974E+03  0.00000000000E+00 0. -1.
<mgrwt>
<rscale>  4 0.37193381E+03</rscale>
<asrwt>0</asrwt>
<pdfrwt beam="1">  1       21 0.29706850E-01 0.37193381E+03</pdfrwt>
<pdfrwt beam="2">  1        2 0.55959633E-01 0.37193381E+03</pdfrwt>
<totfact> 0.11636638E+04</totfact>
</mgrwt>
</event>
<event>
 5    0  0.3188794E-002  0.4318475E+03  0.7546771E-02  0.1033278E+00
         21   -1    0    0  503  502  0.00000000000E+00  0.00000000000E+00  0.16718112260E+03  0.16718112260E+03  0.00000000000E+00 0.  1.
         -4   -1    0    0    0  501 -0.00000000000E+00 -0.00000000000E+00 -0.11707125297E+04  0.11707125297E+04  0.00000000000E+00 0. -1.
         25    1    1    2    0    0  0.34999348012E+01 -0.24975805755E+03 -0.56240655804E+03  0.62794703071E+03  0.12500000000E+03 0.  0.
         21    1    1    2  503  501 -0.13997453603E+03  0.41688680394E+02 -0.43734179171E+03  0.46108422180E+03  0.00000000000E+00 0. -1.
         -4    1    1    2    0  502  0.13647460123E+03  0.20806937715E+03 -0.37830573110E+01  0.24886239975E+03  0.00000000000E+00 0. -1.
<mgrwt>
<rscale>  4 0.43184755E+03</rscale>
<asrwt>0</asrwt>
<pdfrwt beam="1">  1       21 0.25720173E-01 0.43184755E+03</pdfrwt>
<pdfrwt beam="2">  1       -4 0.18010962E+00 0.43184755E+03</pdfrwt>
<totfact> 0.11259170E+02</totfact>
</mgrwt>
</event>
<event>
 5    0  0.3188794E-002  0.3977827E+03  0.7546771E-02  0.1044550E+00
          2   -1    0    0  503    0 -0.00000000000E+00  0.00000000000E+00  0.36693994444E+03  0.36693994444E+03  0.00000000000E+00 0. -1.
         21   -1    0    0  501  502  0.00000000000E+00 -0.00000000000E+00 -0.22806831722E+03  0.22806831722E+03  0.00000000000E+00 0. -1.
         25    1    1    2    0    0 -0.21919992456E+03 -0.58633338376E+02  0.97457945635E+02  0.27678425979E+03  0.12500000000E+03 0.  0.
         21    1    1    2  503  502  0.12837730201E+03 -0.23699413947E+02  0.11607770784E+03  0.17468951929E+03  0.00000000000E+00 0. -1.
          2    1    1    2  501    0  0.90822622552E+02  0.82332752323E+02 -0.74664026250E+02  0.14353448258E+03  0.00000000000E+00 0. -1.
<mgrwt>
<rscale>  4 0.39778273E+03</rscale>
<asrwt>0</asrwt>
<pdfrwt beam="1">  1       21 0.35087433E-01 0.39778273E+03</pdfrwt>
<pdfrwt beam="2">  1        2 0.56452299E-01 0.39778273E+03</pdfrwt>
<totfact> 0.82372547E+03</totfact>
</mgrwt>
</event>
<event>
 5    0  0.3188794E-002  0.6794026E+03  0.7546771E-02  0.9753120E-01
          2   -1    0    0  503    0 -0.00000000000E+00  0.00000000000E+00  0.89959818633E+03  0.89959818633E+03  0.00000000000E+00 0.  1.
         21   -1    0    0  501  502  0.00000000000E+00 -0.00000000000E+00 -0.18241325082E+03  0.18241325082E+03  0.00000000000E+00 0. -1.
         25    1    1    2    0    0  0.27354367678E+03 -0.21981118429E+02  0.62247411517E+03  0.69167068518E+03  0.12500000000E+03 0.  0.
         21    1    1    2  503  502 -0.29928334176E+03  0.23865100777E+02  0.14530286889E+03  0.33354607687E+03  0.00000000000E+00 0. -1.
          2    1    1    2  501    0  0.25739664978E+02 -0.18839823478E+01 -0.50592048548E+02  0.56794675093E+02  0.00000000000E+00 0.  1.
<mgrwt>
<rscale>  4 0.67940261E+03</rscale>
<asrwt>0</asrwt>
<pdfrwt beam="1">  1       21 0.28063578E-01 0.67940261E+03</pdfrwt>
<pdfrwt beam="2">  1        2 0.13839972E+00 0.67940261E+03</pdfrwt>
<totfact> 0.42346057E+03</totfact>
</mgrwt>
</event>
<event>
 5    0  0.3188794E-002  0.5689779E+03  0.7546771E-02  0.9971943E-01
         21   -1    0    0  501  502  0.00000000000E+00  0.00000000000E+00  0.20266060762E+03  0.20266060762E+03  0.00000000000E+00 0.  1.
          2   -1    0    0  503    0 -0.00000000000E+00 -0.00000000000E+00 -0.18272803729E+04  0.18272803729E+04  0.00000000000E+00 0.  1.
         25    1    1    2    0    0  0.28366596048E+02 -0.35182605805E+03 -0.36232761537E+03  0.52104945999E+03  0.12500000000E+03 0.  0.
         21    1    1    2  503  502 -0.33505277622E+01 -0.16452999167E+03 -0.23083639883E+02  0.16617520460E+03  0.00000000000E+00 0.  1.
          2    1    1    2  501    0 -0.25016068285E+02  0.51635604971E+03 -0.12392085101E+04  0.13427163160E+04  0.00000000000E+00 0.  1.
<mgrwt>
<rscale>  4 0.56897795E+03</rscale>
<asrwt>0</asrwt>
<pdfrwt beam="1">  1       21 0.31178556E-01 0.56897795E+03</pdfrwt>
<pdfrwt beam="2">  1        2 0.28112005E+00 0.56897795E+03</pdfrwt>
<totfact> 0.10167682E+03</totfact>
</mgrwt>
</event>
<event>
 5    0  0.3188794E-002  0.4386823E+03  0.7546771E-02  0.1031152E+00
         21   -1    0    0  501  502  0.00000000000E+00  0.00000000000E+00  0.81594515879E+03  0.81594515879E+03  0.00000000000E+00 0. -1.
          2   -1    0    0  503    0 -0.00000000000E+00 -0.00000000000E+00 -0.25665204168E+03  0.25665204168E+03  0.00000000000E+00 0. -1.
         25    1    1    2    0    0  0.20554573856E+03  0.80103924441E+01 -0.44429108926E+02  0.24476961157E+03  0.12500000000E+03 0.  0.
         21    1    1    2  503  502 -0.15601040382E+03  0.12049196084E+03 -0.11423560962E+02  0.19745393506E+03  0.00000000000E+00 0.  1.
          2    1    1    2  501    0 -0.49535334742E+02 -0.12850235328E+03  0.61514578700E+03  0.63037365383E+03  0.00000000000E+00 0. -1.
<mgrwt>
<rscale>  4 0.43868228E+03</rscale>
<asrwt>0</asrwt>
<pdfrwt beam="1">  1       21 0.12553002E+00 0.43868228E+03</pdfrwt>
<pdfrwt beam="2">  1        2 0.39484930E-01 0.43868228E+03</pdfrwt>
<totfact> 0.68876225E+02</totfact>
</mgrwt>
</event>
<event>
 5    0  0.3188794E-002  0.5350289E+03  0.7546771E-02  0.1005020E+00
         21   -1    0    0  501  502  0.00000000000E+00  0.00000000000E+00  0.16414550959E+03  0.16414550959E+03  0.00000000000E+00 0. -1.
          2   -1    0    0  503    0 -0.00000000000E+00 -0.00000000000E+00 -0.13234355499E+04  0.13234355499E+04  0.00000000000E+00 0. -1.
         25    1    1    2    0    0 -0.97492367158E+02 -0.17799776526E+03 -0.31702552773E+03  0.39663352269E+03  0.12500000000E+03 0.  0.
         21    1    1    2  503  502  0.12228536370E+03  0.20121129944E+03 -0.94960566924E+03  0.97836119315E+03  0.00000000000E+00 0. -1.
          2    1    1    2  501    0 -0.24792996537E+02 -0.23213534182E+02  0.10734115670E+03  0.11258634361E+03  0.00000000000E+00 0. -1.
<mgrwt>
<rscale>  4 0.53502886E+03</rscale>
<asrwt>0</asrwt>
<pdfrwt beam="1">  1       21 0.25253155E-01 0.53502886E+03</pdfrwt>
<pdfrwt beam="2">  1        2 0.20360547E+00 0.53502886E+03</pdfrwt>
<totfact> 0.29372968E+03</totfact>
</mgrwt>
</event>
<event>
 5    0  0.3188794E-002  0.4193309E+03  0.7546771E-02  0.1037284E+00
         21   -1    0    0  503  502  0.00000000000E+00  0.00000000000E+00  0.57722291855E+03  0.57722291855E+03  0.00000000000E+00 0. -1.
         -4   -1    0    0    0  501 -0.00000000000E+00 -0.00000000000E+00 -0.26108313697E+03  0.26108313697E+03  0.00000000000E+00 0. -1.
         25    1    1    2    0    0  0.23219067347E+03  0.63111366042E+02  0.66679332961E+02  0.27922515434E+03  0.12500000000E+03 0.  0.
         21    1    1    2  503  501 -0.70810871760E+01 -0.99382401710E+02 -0.10042018696E+03  0.14146101058E+03  0.00000000000E+00 0.  1.
         -4    1    1    2    0  502 -0.22510958630E+03  0.36271035668E+02  0.34988063558E+03  0.41761989060E+03  0.00000000000E+00 0. -1.
<mgrwt>
<rscale>  4 0.41933090E+03</rscale>
<asrwt>0</asrwt>
<pdfrwt beam="1">  1       21 0.88803525E-01 0.41933090E+03</pdfrwt>
<pdfrwt beam="2">  1       -4 0.40166637E-01 0.41933090E+03</pdfrwt>
<totfact> 0.26616453E+02</totfact>
</mgrwt>
</event>
<event>
 5    0  0.3188794E-002  0.6630115E+03  0.7546771E-02  0.9782666E-01
         -1   -1    0    0    0  501 -0.00000000000E+00  0.00000000000E+00  0.39126009828E+03  0.39126009828E+03  0.00000000000E+00 0.  1.
         21   -1    0    0  503  502  0.00000000000E+00 -0.00000000000E+00 -0.30639944021E+03  0.30639944021E+03  0.00000000000E+00 0. -1.
         25    1    1    2    0    0 -0.21165894705E+03  0.21920963638E+03 -0.30168251915E+01  0.32937285223E+03  0.12500000000E+03 0.  0.
         21    1    1    2  503  501  0.23292310474E+03 -0.22698486014E+03  0.10289281093E+03  0.34111908477E+03  0.00000000000E+00 0.  1.
         -1    1    1    2    0  502 -0.21264157682E+02  0.77752237583E+01 -0.15015327665E+02  0.27167601501E+02  0.00000000000E+00 0.  1.
<mgrwt>
<rscale>  4 0.66301148E+03</rscale>
<asrwt>0</asrwt>
<pdfrwt beam="1">  1       21 0.47138375E-01 0.66301148E+03</pdfrwt>
<pdfrwt beam="2">  1       -1 0.60193862E-01 0.66301148E+03</pdfrwt>
<totfact> 0.10460141E+03</totfact>
</mgrwt>
</event>
<event>
 5    0  0.3188794E-002  0.4247974E+03  0.7546771E-02  0.1035516E+00
         21   -1    0    0  503  502  0.00000000000E+00  0.00000000000E+00  0.53116396761E+03  0.53116396761E+03  0.00000000000E+00 0. -1.
         -2   -1    0    0    0  501 -0.00000000000E+00 -0.00000000000E+00 -0.53196460881E+03  0.53196460881E+03  0.00000000000E+00 0. -1.
         25    1    1    2    0    0 -0.20526514626E+03  0.10278176131E+03 -0.25788078088E+03  0.36718574029E+03  0.12500000000E+03 0.  0.
         21    1    1    2  503  501  0.14440249509E+03 -0.75229288305E+02 -0.18637600717E+03  0.24748240838E+03  0.00000000000E+00 0. -1.
         -2    1    1    2    0  502  0.60862651168E+02 -0.27552473004E+02  0.44345614685E+03  0.44846042775E+03  0.00000000000E+00 0. -1.
<mgrwt>
<rscale>  4 0.42479741E+03</rscale>
<asrwt>0</asrwt>
<pdfrwt beam="1">  1       21 0.81717533E-01 0.42479741E+03</pdfrwt>
<pdfrwt beam="2">  1       -2 0.81840709E-01 0.42479741E+03</pdfrwt>
<totfact> 0.13276521E+02</totfact>
</mgrwt>
</event>
<event>
 5    0  0.3188794E-002  0.7977404E+03  0.7546771E-02  0.9563294E-01
         -1   -1    0    0    0  501 -0.00000000000E+00  0.00000000000E+00  0.51917648107E+03  0.51917648107E+03  0.00000000000E+00 0.  1.
         21   -1    0    0  503  502  0.00000000000E+00 -0.00000000000E+00 -0.11596112133E+04  0.11596112133E+04  0.00000000000E+00 0.  1.
         25    1    1    2    0    0  0.18791544261E+03 -0.35650955477E+03 -0.51641272257E+02  0.42509186915E+03  0.12500000000E+03 0.  0.
         21    1    1    2  503  501 -0.28467765394E+03 -0.23329812952E+03  0.58475222612E+02  0.37267779053E+03  0.00000000000E+00 0.  1.
         -1    1    1    2    0  502  0.96762211332E+02  0.58980768430E+03 -0.64726868256E+03  0.88101803468E+03  0.00000000000E+00 0.  1.
<mgrwt>
<rscale>  4 0.79774039E+03</rscale>
<asrwt>0</asrwt>
<pdfrwt beam="1">  1       21 0.17840172E+00 0.79774039E+03</pdfrwt>
<pdfrwt beam="2">  1       -1 0.79873305E-01 0.79774039E+03</pdfrwt>
<totfact> 0.22021377E+01</totfact>
</mgrwt>
</event>
<event>
 5    0  0.3188794E-002  0.4327911E+03  0.7546771E-02  0.1032982E+00
         -2   -1    0    0    0  501 -0.00000000000E+00  0.00000000000E+00  0.44848938564E+03  0.44848938564E+03  0.00000000000E+00 0. -1.
         21   -1    0    0  503  502  0.00000000000E+00 -0.00000000000E+00 -0.26219856673E+03  0.26219856673E+03  0.00000000000E+00 0. -1.
         25    1    1    2    0    0  0.39886281245E+02 -0.27245590073E+03  0.11508424221E+03  0.32356222907E+03  0.12500000000E+03 0.  0.
         21    1    1    2  503  501 -0.11911656185E+03  0.48769360863E+02  0.76559209677E+02  0.14976153863E+03  0.00000000000E+00 0.  1.
         -2    1    1    2    0  502  0.79230280607E+02  0.22368653987E+03 -0.53526329736E+01  0.23736418467E+03  0.00000000000E+00 0. -1.
<mgrwt>
<rscale>  4 0.43279115E+03</rscale>
<asrwt>0</asrwt>
<pdfrwt beam="1">  1       21 0.40338241E-01 0.43279115E+03</pdfrwt>
<pdfrwt beam="2">  1       -2 0.68998367E-01 0.43279115E+03</pdfrwt>
<totfact> 0.89781772E+02</totfact>
</mgrwt>
</event>
<event>
 5    0  0.3188794E-002  0.5267023E+03  0.7546771E-02  0.1007035E+00
          2   -1    0    0  503    0 -0.00000000000E+00  0.00000000000E+00  0.59568981249E+03  0.59568981249E+03  0.00000000000E+00 0.  1.
         21   -1    0    0  501  502  0.00000000000E+00 -0.00000000000E+00 -0.26683039932E+03  0.26683039932E+03  0.00000000000E+00 0.  1.
         25    1    1    2    0    0  0.14863986446E+03 -0.21359810591E+03  0.13263015097E+03  0.31770067218E+03  0.12500000000E+03 0.  0.
         21    1    1    2  503  502 -0.23107964344E+03 -0.14834796841E+02  0.19379929827E+03  0.30195370642E+03  0.00000000000E+00 0.  1.
          2    1    1    2  501    0  0.82439778979E+02  0.22843290275E+03  0.24299639275E+01  0.24286583321E+03  0.00000000000E+00 0.  1.
<mgrwt>
<rscale>  4 0.52670235E+03</rscale>
<asrwt>0</asrwt>
<pdfrwt beam="1">  1       21 0.41050831E-01 0.52670235E+03</pdfrwt>
<pdfrwt beam="2">  1        2 0.91644586E-01 0.52670235E+03</pdfrwt>
<totfact> 0.33817693E+03</totfact>
</mgrwt>
</event>
<event>
 5    0  0.3188794E-002  0.3963953E+03  0.7546771E-02  0.1045035E+00
          2   -1    0    0  503    0 -0.00000000000E+00  0.00000000000E+00  0.10455874969E+04  0.10455874969E+04  0.00000000000E+00 0. -1.
         21   -1    0    0  501  502  0.00000000000E+00 -0.00000000000E+00 -0.71966835613E+02  0.71966835613E+02  0.00000000000E+00 0.  1.
         25    1    1    2    0    0  0.20976624411E+03  0.53540199919E+02  0.41808224510E+03  0.48712030736E+03  0.12500000000E+03 0.  0.
         21    1    1    2  503  502 -0.11512096717E+03 -0.64358450498E+01  0.49574552279E+03  0.50897728883E+03  0.00000000000E+00 0. -1.
          2    1    1    2  501    0 -0.94645276935E+02 -0.47104354869E+02  0.59792893374E+02  0.12145673630E+03  0.00000000000E+00 0. -1.
<mgrwt>
<rscale>  4 0.39639530E+03</rscale>
<asrwt>0</asrwt>
<pdfrwt beam="1">  1       21 0.11071822E-01 0.39639530E+03</pdfrwt>
<pdfrwt beam="2">  1        2 0.16085960E+00 0.39639530E+03</pdfrwt>
<totfact> 0.20512182E+04</totfact>
</mgrwt>
</event>
<event>
 5    0  0.3188794E-002  0.4915296E+03  0.7546771E-02  0.1016014E+00
         -2   -1    0    0    0  501 -0.00000000000E+00  0.00000000000E+00  0.11974903624E+04  0.11974903624E+04  0.00000000000E+00 0.  1.
         21   -1    0    0  501  502  0.00000000000E+00 -0.00000000000E+00 -0.69791754962E+02  0.69791754962E+02  0.00000000000E+00 0. -1.
         25    1    1    2    0    0  0.21525145139E+03 -0.45655644015E+02  0.37465757356E+03  0.45211826172E+03  0.12500000000E+03 0.  0.
         21    1    1    2  503  502 -0.21892552721E+03 -0.40900946859E+02  0.58802658252E+03  0.62878973884E+03  0.00000000000E+00 0.  1.
         -2    1    1    2    0  503  0.36740758248E+01  0.86556590874E+02  0.16501445134E+03  0.18637411679E+03  0.00000000000E+00 0.  1.
<mgrwt>
<rscale>  4 0.49152957E+03</rscale>
<asrwt>0</asrwt>
<pdfrwt beam="1">  1       21 0.10737194E-01 0.49152957E+03</pdfrwt>
<pdfrwt beam="2">  1       -2 0.18422927E+00 0.49152957E+03</pdfrwt>
<totfact> 0.10250258E+03</totfact>
</mgrwt>
</event>
<event>
 5    0  0.3188794E-002  0.4918714E+03  0.7546771E-02  0.1015923E+00
         21   -1    0    0  501  502  0.00000000000E+00  0.00000000000E+00  0.29644150630E+03  0.29644150630E+03  0.00000000000E+00 0.  1.
          2   -1    0    0  503    0 -0.00000000000E+00 -0.00000000000E+00 -0.87146421986E+03  0.87146421986E+03  0.00000000000E+00 0.  1.
         25    1    1    2    0    0  0.34594771719E+02  0.21573056099E+03 -0.43661199575E+03  0.50397570181E+03  0.12500000000E+03 0.  0.
         21    1    1    2  503  502 -0.12136634207E+03 -0.20604807100E+03 -0.35635050676E+03  0.42915181489E+03  0.00000000000E+00 0. -1.
          2    1    1    2  501    0  0.86771570349E+02 -0.96824899968E+01  0.21793978896E+03  0.23477820947E+03  0.00000000000E+00 0.  1.
<mgrwt>
<rscale>  4 0.49187136E+03</rscale>
<asrwt>0</asrwt>
<pdfrwt beam="1">  1       21 0.45606386E-01 0.49187136E+03</pdfrwt>
<pdfrwt beam="2">  1        2 0.13407142E+00 0.49187136E+03</pdfrwt>
<totfact> 0.16883134E+03</totfact>
</mgrwt>
</event>
<event>
 5    0  0.3188794E-002  0.5102279E+03  0.7546771E-02  0.1011143E+00
         21   -1    0    0  501  502  0.00000000000E+00  0.00000000000E+00  0.26267017432E+03  0.26267017432E+03  0.00000000000E+00 0. -1.
          2   -1    0    0  503    0 -0.00000000000E+00 -0.00000000000E+00 -0.42723096195E+03  0.42723096195E+03  0.00000000000E+00 0.  1.
         25    1    1    2    0    0 -0.20695691874E+03  0.10306060720E+03 -0.27534626307E+03  0.38064841988E+03  0.12500000000E+03 0.  0.
         21    1    1    2  503  502  0.18372846266E+03 -0.15627869587E+02  0.27772636683E+02  0.18647170736E+03  0.00000000000E+00 0. -1.
          2    1    1    2  501    0  0.23228456083E+02 -0.87432737611E+02  0.83012838756E+02  0.12278100902E+03  0.00000000000E+00 0.  1.
<mgrwt>
<rscale>  4 0.51022793E+03</rscale>
<asrwt>0</asrwt>
<pdfrwt beam="1">  1       21 0.40410797E-01 0.51022793E+03</pdfrwt>
<pdfrwt beam="2">  1        2 0.65727839E-01 0.51022793E+03</pdfrwt>
<totfact> 0.51366674E+03</totfact>
</mgrwt>
</event>
<event>
 5    0  0.3188794E-002  0.3589902E+03  0.7546771E-02  0.1058984E+00
          2   -1    0    0  503    0 -0.00000000000E+00  0.00000000000E+00  0.10273747422E+04  0.10273747422E+04  0.00000000000E+00 0.  1.
         21   -1    0    0  501  502  0.00000000000E+00 -0.00000000000E+00 -0.10204548485E+03  0.10204548485E+03  0.00000000000E+00 0. -1.
         25    1    1    2    0    0 -0.20428162327E+03  0.24209521181E+02  0.59012159046E+03  0.63732689732E+03  0.12500000000E+03 0.  0.
         21    1    1    2  503  502  0.16706813486E+02 -0.11558003381E+03  0.23106902423E+03  0.25890298529E+03  0.00000000000E+00 0. -1.
          2    1    1    2  501    0  0.18757480979E+03  0.91370512633E+02  0.10413864267E+03  0.23319034445E+03  0.00000000000E+00 0.  1.
<mgrwt>
<rscale>  4 0.35899022E+03</rscale>
<asrwt>0</asrwt>
<pdfrwt beam="1">  1       21 0.15699306E-01 0.35899022E+03</pdfrwt>
<pdfrwt beam="2">  1        2 0.15805765E+00 0.35899022E+03</pdfrwt>
<totfact> 0.11171591E+04</totfact>
</mgrwt>
</event>
<event>
 5    0  0.3188794E-002  0.4400199E+03  0.7546771E-02  0.1030741E+00
          1   -1    0    0  503    0 -0.00000000000E+00  0.00000000000E+00  0.26046878177E+03  0.26046878177E+03  0.00000000000E+00 0. -1.
         21   -1    0    0  501  502  0.00000000000E+00 -0.00000000000E+00 -0.48134451274E+03  0.48134451274E+03  0.00000000000E+00 0.  1.
         25    1    1    2    0    0  0.94181914053E+02  0.30920387485E+03 -0.19346261901E+03  0.39690055948E+03  0.12500000000E+03 0.  0.
         21    1    1    2  503  502 -0.30854454209E+02 -0.49552627538E+02  0.38139522872E+02  0.69728641499E+02  0.00000000000E+00 0. -1.
          1    1    1    2  501    0 -0.63327459844E+02 -0.25965124731E+03 -0.65552634834E+02  0.27518409354E+03  0.00000000000E+00 0. -1.
<mgrwt>
<rscale>  4 0.44001994E+03</rscale>
<asrwt>0</asrwt>
<pdfrwt beam="1">  1       21 0.74053001E-01 0.44001994E+03</pdfrwt>
<pdfrwt beam="2">  1        1 0.40072121E-01 0.44001994E+03</pdfrwt>
<totfact> 0.17432034E+03</totfact>
</mgrwt>
</event>
<event>
 5    0  0.3188794E-002  0.1399090E+04  0.7546771E-02  0.8954478E-01
          1   -1    0    0  503    0 -0.00000000000E+00  0.00000000000E+00  0.19569542136E+04  0.19569542136E+04  0.00000000000E+00 0.  1.
         21   -1    0    0  501  502  0.00000000000E+00 -0.00000000000E+00 -0.28275936958E+03  0.28275936958E+03  0.00000000000E+00 0. -1.
         25    1    1    2    0    0 -0.38359085782E+03 -0.46085482027E+03  0.27175889789E+03  0.67007985356E+03  0.12500000000E+03 0.  0.
         21    1    1    2  503  502  0.31108391846E+03  0.48982033972E+03  0.13646524145E+04  0.14828935842E+04  0.00000000000E+00 0.  1.
          1    1    1    2  501    0  0.72506939359E+02 -0.28965519450E+02  0.37783531616E+02  0.86740145455E+02  0.00000000000E+00 0.  1.
<mgrwt>
<rscale>  4 0.13990899E+04</rscale>
<asrwt>0</asrwt>
<pdfrwt beam="1">  1       21 0.43501443E-01 0.13990899E+04</pdfrwt>
<pdfrwt beam="2">  1        1 0.30106987E+00 0.13990899E+04</pdfrwt>
<totfact> 0.15289292E+02</totfact>
</mgrwt>
</event>
<event>
 5    0  0.3188794E-002  0.5817567E+03  0.7546771E-02  0.9943995E-01
         21   -1    0    0  503  502  0.00000000000E+00  0.00000000000E+00  0.44367395968E+03  0.44367395968E+03  0.00000000000E+00 0. -1.
         -3   -1    0    0    0  501 -0.00000000000E+00 -0.00000000000E+00 -0.71758648346E+03  0.71758648346E+03  0.00000000000E+00 0. -1.
         25    1    1    2    0    0 -0.28895508170E+03  0.30007854007E+02 -0.40319696746E+03  0.51243370801E+03  0.12500000000E+03 0.  0.
         21    1    1    2  503  501 -0.15585931405E+03 -0.98464330457E+02  0.18086456070E+02  0.18524165309E+03  0.00000000000E+00 0.  1.
         -3    1    1    2    0  502  0.44481439575E+03  0.68456476450E+02  0.11119798761E+03  0.46358508203E+03  0.00000000000E+00 0. -1.
<mgrwt>
<rscale>  4 0.58175665E+03</rscale>
<asrwt>0</asrwt>
<pdfrwt beam="1">  1       21 0.68257533E-01 0.58175665E+03</pdfrwt>
<pdfrwt beam="2">  1       -3 0.11039792E+00 0.58175665E+03</pdfrwt>
<totfact> 0.63347687E+01</totfact>
</mgrwt>
</event>
<event>
 5    0  0.3188794E-002  0.4579456E+03  0.7546771E-02  0.1025379E+00
          1   -1    0    0  503    0 -0.00000000000E+00  0.00000000000E+00  0.64964785667E+03  0.64964785667E+03  0.00000000000E+00 0.  1.
         21   -1    0    0  501  502  0.00000000000E+00 -0.00000000000E+00 -0.30071239021E+03  0.30071239021E+03  0.00000000000E+00 0.  1.
         25    1    1    2    0    0 -0.90451488028E+02 -0.18109551307E+03  0.24494670640E+03  0.34146880606E+03  0.12500000000E+03 0.  0.
         21    1    1    2  503  502  0.72835262728E+02  0.20246141502E+03  0.32301787999E+03  0.38811873295E+03  0.00000000000E+00 0. -1.
          1    1    1    2  501    0  0.17616225301E+02 -0.21365901945E+02 -0.21902911993E+03  0.22077270787E+03  0.00000000000E+00 0.  1.
<mgrwt>
<rscale>  4 0.45794564E+03</rscale>
<asrwt>0</asrwt>
<pdfrwt beam="1">  1       21 0.46263445E-01 0.45794564E+03</pdfrwt>
<pdfrwt beam="2">  1        1 0.99945824E-01 0.45794564E+03</pdfrwt>
<totfact> 0.14392382E+03</totfact>
</mgrwt>
</event>
<event>
 5    0  0.3188794E-002  0.4821247E+03  0.7546771E-02  0.1018553E+00
         -3   -1    0    0    0  501 -0.00000000000E+00  0.00000000000E+00  0.18505171089E+04  0.18505171089E+04  0.00000000000E+00 0.  1.
         21   -1    0    0  503  502  0.00000000000E+00 -0.00000000000E+00 -0.36304582782E+02  0.36304582782E+02  0.00000000000E+00 0. -1.
         25    1    1    2    0    0  0.20227478055E+03 -0.25775163854E+02  0.64321878508E+03  0.68624693179E+03  0.12500000000E+03 0.  0.
         21    1    1    2  503  501 -0.21848294897E+03  0.12492083358E+02  0.11509717432E+04  0.11715915691E+04  0.00000000000E+00 0.  1.
         -3    1    1    2    0  502  0.16208168423E+02  0.13283080496E+02  0.20021997849E+02  0.28983190801E+02  0.00000000000E+00 0.  1.
<mgrwt>
<rscale>  4 0.48212472E+03</rscale>
<asrwt>0</asrwt>
<pdfrwt beam="1">  1       21 0.55853219E-02 0.48212472E+03</pdfrwt>
<pdfrwt beam="2">  1       -3 0.28469487E+00 0.48212472E+03</pdfrwt>
<totfact> 0.56437429E+02</totfact>
</mgrwt>
</event>
<event>
 5    0  0.3188794E-002  0.5145982E+03  0.7546771E-02  0.1010037E+00
          1   -1    0    0  502    0 -0.00000000000E+00  0.00000000000E+00  0.17240485266E+04  0.17240485266E+04  0.00000000000E+00 0.  1.
         21   -1    0    0  503  502  0.00000000000E+00 -0.00000000000E+00 -0.97463604082E+02  0.97463604082E+02  0.00000000000E+00 0. -1.
         25    1    1    2    0    0  0.13969469506E+03  0.30902222928E+03  0.12716401950E+04  0.13220072359E+04  0.12500000000E+03 0.  0.
         21    1    1    2  503  501 -0.40031970312E+02 -0.59019897495E+02  0.29458934272E+02  0.77160454611E+02  0.00000000000E+00 0.  1.
          1    1    1    2  501    0 -0.99662724750E+02 -0.25000233179E+03  0.32548579323E+03  0.42234444024E+03  0.00000000000E+00 0.  1.
<mgrwt>
<rscale>  4 0.51459818E+03</rscale>
<asrwt>0</asrwt>
<pdfrwt beam="1">  1       21 0.14994402E-01 0.51459818E+03</pdfrwt>
<pdfrwt beam="2">  1        1 0.26523821E+00 0.51459818E+03</pdfrwt>
<totfact> 0.20547989E+03</totfact>
</mgrwt>
</event>
<event>
 5    0  0.3188794E-002  0.3525691E+03  0.7546771E-02  0.1061565E+00
         21   -1    0    0  501  502  0.00000000000E+00  0.00000000000E+00  0.83061174677E+02  0.83061174677E+02  0.00000000000E+00 0. -1.
          2   -1    0    0  503    0 -0.00000000000E+00 -0.00000000000E+00 -0.15253254891E+04  0.15253254891E+04  0.00000000000E+00 0. -1.
         25    1    1    2    0    0  0.95265721349E+02  0.17973148303E+03 -0.10119818088E+04  0.10397649470E+04  0.12500000000E+03 0.  0.
         21    1    1    2  503  502 -0.39211497008E+02 -0.10674896956E+03 -0.45848034023E+03  0.47237390527E+03  0.00000000000E+00 0.  1.
          2    1    1    2  501    0 -0.56054224340E+02 -0.72982513465E+02  0.28197834636E+02  0.96247811488E+02  0.00000000000E+00 0. -1.
<mgrwt>
<rscale>  4 0.35256911E+03</rscale>
<asrwt>0</asrwt>
<pdfrwt beam="1">  1       21 0.12778643E-01 0.35256911E+03</pdfrwt>
<pdfrwt beam="2">  1        2 0.23466545E+00 0.35256911E+03</pdfrwt>
<totfact> 0.85080884E+03</totfact>
</mgrwt>
</event>
<event>
 5    0  0.3188794E-002  0.5476475E+03  0.7546771E-02  0.1002040E+00
         -4   -1    0    0    0  501 -0.00000000000E+00  0.00000000000E+00  0.11596551778E+04  0.11596551778E+04  0.00000000000E+00 0.  1.
         21   -1    0    0  503  502  0.00000000000E+00 -0.00000000000E+00 -0.78683688040E+02  0.78683688040E+02  0.00000000000E+00 0. -1.
         25    1    1    2    0    0 -0.34569968777E+02  0.25237027734E+03  0.35830870710E+03  0.45705138574E+03  0.12500000000E+03 0.  0.
         21    1    1    2  503  501  0.54095156313E+02 -0.21613125870E+03  0.69934615500E+03  0.73397823635E+03  0.00000000000E+00 0. -1.
         -4    1    1    2    0  502 -0.19525187537E+02 -0.36239018640E+02  0.23316627705E+02  0.47309243789E+02  0.00000000000E+00 0.  1.
<mgrwt>
<rscale>  4 0.54764747E+03</rscale>
<asrwt>0</asrwt>
<pdfrwt beam="1">  1       21 0.12105184E-01 0.54764747E+03</pdfrwt>
<pdfrwt beam="2">  1       -4 0.17840848E+00 0.54764747E+03</pdfrwt>
<totfact> 0.47382609E+02</totfact>
</mgrwt>
</event>
<event>
 5    0  0.3188794E-002  0.7404624E+03  0.7546771E-02  0.9650433E-01
          1   -1    0    0  503    0 -0.00000000000E+00  0.00000000000E+00  0.13600556265E+04  0.13600556265E+04  0.00000000000E+00 0.  1.
         21   -1    0    0  501  502  0.00000000000E+00 -0.00000000000E+00 -0.60354142019E+03  0.60354142019E+03  0.00000000000E+00 0.  1.
         25    1    1    2    0    0 -0.16196487419E+03 -0.38599692395E+03  0.10136046493E+04  0.11037416504E+04  0.12500000000E+03 0.  0.
         21    1    1    2  503  502  0.19916056285E+03  0.15372723957E+03  0.21594819775E+03  0.33155786537E+03  0.00000000000E+00 0. -1.
          1    1    1    2  501    0 -0.37195688657E+02  0.23226968438E+03 -0.47303864074E+03  0.52829753091E+03  0.00000000000E+00 0.  1.
<mgrwt>
<rscale>  4 0.74046235E+03</rscale>
<asrwt>0</asrwt>
<pdfrwt beam="1">  1       21 0.92852526E-01 0.74046235E+03</pdfrwt>
<pdfrwt beam="2">  1        1 0.20923933E+00 0.74046235E+03</pdfrwt>
<totfact> 0.77843441E+01</totfact>
</mgrwt>
</event>
<event>
 5    0  0.3188794E-002  0.4865012E+03  0.7546771E-02  0.1017364E+00
         21   -1    0    0  501  502  0.00000000000E+00  0.00000000000E+00  0.54971812191E+02  0.54971812191E+02  0.00000000000E+00 0. -1.
          2   -1    0    0  503    0 -0.00000000000E+00 -0.00000000000E+00 -0.20584376486E+04  0.20584376486E+04  0.00000000000E+00 0. -1.
         25    1    1    2    0    0  0.38707346260E+02 -0.20485010744E+03 -0.16453979197E+04  0.16632561858E+04  0.12500000000E+03 0.  0.
         21    1    1    2  503  502 -0.24440260768E+02  0.17566025026E+03 -0.37403507136E+03  0.41395179003E+03  0.00000000000E+00 0.  1.
          2    1    1    2  501    0 -0.14267085493E+02  0.29189857187E+02  0.15967154653E+02  0.36201485035E+02  0.00000000000E+00 0. -1.
<mgrwt>
<rscale>  4 0.48650115E+03</rscale>
<asrwt>0</asrwt>
<pdfrwt beam="1">  1       21 0.84572040E-02 0.48650115E+03</pdfrwt>
<pdfrwt beam="2">  1        2 0.31668264E+00 0.48650115E+03</pdfrwt>
<totfact> 0.90189363E+03</totfact>
</mgrwt>
</event>
<event>
 5    0  0.3188794E-002  0.3886093E+03  0.7546771E-02  0.1047797E+00
          1   -1    0    0  503    0 -0.00000000000E+00  0.00000000000E+00  0.31190875765E+03  0.31190875765E+03  0.00000000000E+00 0. -1.
         21   -1    0    0  501  502  0.00000000000E+00 -0.00000000000E+00 -0.25119755716E+03  0.25119755716E+03  0.00000000000E+00 0. -1.
         25    1    1    2    0    0 -0.17765188890E+03  0.12313197776E+03  0.72255587794E+02  0.25993758394E+03  0.12500000000E+03 0.  0.
         21    1    1    2  503  502  0.31631534579E+02 -0.13521189087E+03  0.45217153230E+02  0.14603903711E+03  0.00000000000E+00 0. -1.
          1    1    1    2  501    0  0.14602035432E+03  0.12079913117E+02 -0.56761540527E+02  0.15712969376E+03  0.00000000000E+00 0. -1.
<mgrwt>
<rscale>  4 0.38860928E+03</rscale>
<asrwt>0</asrwt>
<pdfrwt beam="1">  1       21 0.38645778E-01 0.38860928E+03</pdfrwt>
<pdfrwt beam="2">  1        1 0.47985963E-01 0.38860928E+03</pdfrwt>
<totfact> 0.56576391E+03</totfact>
</mgrwt>
</event>
<event>
 5    0  0.3188794E-002  0.5704564E+03  0.7546771E-02  0.9968669E-01
         21   -1    0    0  503  502  0.00000000000E+00  0.00000000000E+00  0.97882399391E+02  0.97882399391E+02  0.00000000000E+00 0.  1.
          2   -1    0    0  502    0 -0.00000000000E+00 -0.00000000000E+00 -0.11421301808E+04  0.11421301808E+04  0.00000000000E+00 0. -1.
         25    1    1    2    0    0 -0.27031832506E+03  0.10158112387E+03 -0.62191642315E+03  0.69699050135E+03  0.12500000000E+03 0.  0.
         21    1    1    2  503  501  0.19058399599E+03 -0.11579882076E+03 -0.17713473979E+03  0.28479526411E+03  0.00000000000E+00 0.  1.
          2    1    1    2  501    0  0.79734329065E+02  0.14217696891E+02 -0.24519661844E+03  0.25822681470E+03  0.00000000000E+00 0. -1.
<mgrwt>
<rscale>  4 0.57045642E+03</rscale>
<asrwt>0</asrwt>
<pdfrwt beam="1">  1       21 0.15058830E-01 0.57045642E+03</pdfrwt>
<pdfrwt beam="2">  1        2 0.17571234E+00 0.57045642E+03</pdfrwt>
<totfact> 0.99826463E+03</totfact>
</mgrwt>
</event>
<event>
 5    0  0.3188794E-002  0.6072623E+03  0.7546771E-02  0.9890453E-01
         21   -1    0    0  503  502  0.00000000000E+00  0.00000000000E+00  0.83184242500E+03  0.83184242500E+03  0.00000000000E+00 0.  1.
         -3   -1    0    0    0  501 -0.00000000000E+00 -0.00000000000E+00 -0.10486499760E+04  0.10486499760E+04  0.00000000000E+00 0.  1.
         25    1    1    2    0    0  0.12424352845E+03 -0.26746009959E+03 -0.71124412900E+03  0.78004139010E+03  0.12500000000E+03 0.  0.
         21    1    1    2  503  501 -0.96811139257E+02  0.23542189167E+03 -0.24884298714E+03  0.35597569581E+03  0.00000000000E+00 0. -1.
         -3    1    1    2    0  502 -0.27432389188E+02  0.32038207923E+02  0.74327956517E+03  0.74447531507E+03  0.00000000000E+00 0.  1.
<mgrwt>
<rscale>  4 0.60726234E+03</rscale>
<asrwt>0</asrwt>
<pdfrwt beam="1">  1       21 0.12797576E+00 0.60726234E+03</pdfrwt>
<pdfrwt beam="2">  1       -3 0.16133077E+00 0.60726234E+03</pdfrwt>
<totfact> 0.53378877E+00</totfact>
</mgrwt>
</event>
<event>
 5    0  0.3188794E-002  0.3812851E+03  0.7546771E-02  0.1050460E+00
         -4   -1    0    0    0  501 -0.00000000000E+00  0.00000000000E+00  0.12291692143E+04  0.12291692143E+04  0.00000000000E+00 0. -1.
         21   -1    0    0  503  502  0.00000000000E+00 -0.00000000000E+00 -0.51490112048E+02  0.51490112048E+02  0.00000000000E+00 0.  1.
         25    1    1    2    0    0  0.19862344602E+03  0.30146898384E+02  0.62523744030E+03  0.66851100629E+03  0.12500000000E+03 0.  0.
         21    1    1    2  503  501 -0.12080382242E+03  0.59380754913E+02  0.20710269263E+03  0.24700437822E+03  0.00000000000E+00 0. -1.
         -4    1    1    2    0  502 -0.77819623598E+02 -0.89527653297E+02  0.34533896929E+03  0.36514394180E+03  0.00000000000E+00 0. -1.
<mgrwt>
<rscale>  4 0.38128509E+03</rscale>
<asrwt>0</asrwt>
<pdfrwt beam="1">  1       21 0.79215566E-02 0.38128509E+03</pdfrwt>
<pdfrwt beam="2">  1       -4 0.18910293E+00 0.38128509E+03</pdfrwt>
<totfact> 0.86825062E+02</totfact>
</mgrwt>
</event>
<event>
 5    0  0.3188794E-002  0.7061658E+03  0.7546771E-02  0.9706746E-01
          2   -1    0    0  503    0 -0.00000000000E+00  0.00000000000E+00  0.17812709413E+04  0.17812709413E+04  0.00000000000E+00 0.  1.
         21   -1    0    0  501  502  0.00000000000E+00 -0.00000000000E+00 -0.15096825280E+03  0.15096825280E+03  0.00000000000E+00 0.  1.
         25    1    1    2    0    0  0.20780903051E+03  0.25518518223E+03  0.72659181785E+03  0.80738140935E+03  0.12500000000E+03 0.  0.
         21    1    1    2  503  502 -0.34273614248E+03  0.39583865997E+02  0.48945090540E+03  0.59882980437E+03  0.00000000000E+00 0. -1.
          2    1    1    2  501    0  0.13492711197E+03 -0.29476904823E+03  0.41425996528E+03  0.52602798041E+03  0.00000000000E+00 0.  1.
<mgrwt>
<rscale>  4 0.70616575E+03</rscale>
<asrwt>0</asrwt>
<pdfrwt beam="1">  1       21 0.23225886E-01 0.70616575E+03</pdfrwt>
<pdfrwt beam="2">  1        2 0.27404167E+00 0.70616575E+03</pdfrwt>
<totfact> 0.18779511E+03</totfact>
</mgrwt>
</event>
<event>
 5    0  0.3188794E-002  0.5106929E+03  0.7546771E-02  0.1011025E+00
         21   -1    0    0  501  502  0.00000000000E+00  0.00000000000E+00  0.18633795020E+03  0.18633795020E+03  0.00000000000E+00 0.  1.
          2   -1    0    0  503    0 -0.00000000000E+00 -0.00000000000E+00 -0.11119520052E+04  0.11119520052E+04  0.00000000000E+00 0.  1.
         25    1    1    2    0    0 -0.12132342712E+03 -0.28618800611E+03 -0.82474152785E+03  0.89019466218E+03  0.12500000000E+03 0.  0.
         21    1    1    2  503  502  0.75652335038E+01  0.14983305908E+03 -0.16152255223E+03  0.22044662218E+03  0.00000000000E+00 0. -1.
          2    1    1    2  501    0  0.11375819362E+03  0.13635494703E+03  0.60650025094E+02  0.18764867103E+03  0.00000000000E+00 0.  1.
<mgrwt>
<rscale>  4 0.51069289E+03</rscale>
<asrwt>0</asrwt>
<pdfrwt beam="1">  1       21 0.28667376E-01 0.51069289E+03</pdfrwt>
<pdfrwt beam="2">  1        2 0.17106954E+00 0.51069289E+03</pdfrwt>
<totfact> 0.30520919E+03</totfact>
</mgrwt>
</event>
<event>
 5    0  0.3188794E-002  0.4377832E+03  0.7546771E-02  0.1031429E+00
         21   -1    0    0  501  502  0.00000000000E+00  0.00000000000E+00  0.20016565766E+03  0.20016565766E+03  0.00000000000E+00 0.  1.
          1   -1    0    0  503    0 -0.00000000000E+00 -0.00000000000E+00 -0.29141924277E+03  0.29141924277E+03  0.00000000000E+00 0. -1.
         25    1    1    2    0    0  0.29512544701E+01 -0.21430710681E+03 -0.33769059392E+02  0.25040286600E+03  0.12500000000E+03 0.  0.
         21    1    1    2  503  502 -0.15298884170E+02  0.18474588891E+03 -0.80124698127E+02  0.20195312965E+03  0.00000000000E+00 0.  1.
          1    1    1    2  501    0  0.12347629700E+02  0.29561217898E+02  0.22640172407E+02  0.39228904770E+02  0.00000000000E+00 0. -1.
<mgrwt>
<rscale>  4 0.43778323E+03</rscale>
<asrwt>0</asrwt>
<pdfrwt beam="1">  1       21 0.30794717E-01 0.43778323E+03</pdfrwt>
<pdfrwt beam="2">  1        1 0.44833729E-01 0.43778323E+03</pdfrwt>
<totfact> 0.96950305E+03</totfact>
</mgrwt>
</event>
<event>
 5    0  0.3188794E-002  0.4354341E+03  0.7546771E-02  0.1032157E+00
          2   -1    0    0  502    0 -0.00000000000E+00  0.00000000000E+00  0.21055057713E+04  0.21055057713E+04  0.00000000000E+00 0.  1.
         21   -1    0    0  503  502  0.00000000000E+00 -0.00000000000E+00 -0.56617474859E+02  0.56617474859E+02  0.00000000000E+00 0. -1.
         25    1    1    2    0    0  0.25638690219E+03  0.18646140185E+03  0.12495617447E+04  0.12951956037E+04  0.12500000000E+03 0.  0.
         21    1    1    2  503  501 -0.90049451676E+02 -0.64038146094E+01  0.22906067005E+03  0.24620865775E+03  0.00000000000E+00 0.  1.
          2    1    1    2  501    0 -0.16633745051E+03 -0.18005758724E+03  0.57026588166E+03  0.62071898469E+03  0.00000000000E+00 0.  1.
<mgrwt>
<rscale>  4 0.43543410E+03</rscale>
<asrwt>0</asrwt>
<pdfrwt beam="1">  1       21 0.87103824E-02 0.43543410E+03</pdfrwt>
<pdfrwt beam="2">  1        2 0.32392390E+00 0.43543410E+03</pdfrwt>
<totfact> 0.81533922E+03</totfact>
</mgrwt>
</event>
<event>
 5    0  0.3188794E-002  0.4314313E+03  0.7546771E-02  0.1033409E+00
          1   -1    0    0  503    0 -0.00000000000E+00  0.00000000000E+00  0.21213241767E+04  0.21213241767E+04  0.00000000000E+00 0.  1.
         21   -1    0    0  501  502  0.00000000000E+00 -0.00000000000E+00 -0.11749289363E+03  0.11749289363E+03  0.00000000000E+00 0.  1.
         25    1    1    2    0    0  0.20819274539E+03  0.22264871142E+02  0.15008542237E+04  0.15205355453E+04  0.12500000000E+03 0.  0.
         21    1    1    2  503  502 -0.17155949076E+03 -0.95122514231E+00  0.59378341402E+03  0.61807144123E+03  0.00000000000E+00 0. -1.
          1    1    1    2  501    0 -0.36633254630E+02 -0.21313646000E+02 -0.90806354647E+02  0.10021008380E+03  0.00000000000E+00 0.  1.
<mgrwt>
<rscale>  4 0.43143135E+03</rscale>
<asrwt>0</asrwt>
<pdfrwt beam="1">  1       21 0.18075831E-01 0.43143135E+03</pdfrwt>
<pdfrwt beam="2">  1        1 0.32635754E+00 0.43143135E+03</pdfrwt>
<totfact> 0.80781005E+02</totfact>
</mgrwt>
</event>
<event>
 5    0  0.3188794E-002  0.4045614E+03  0.7546771E-02  0.1042212E+00
         21   -1    0    0  501  502  0.00000000000E+00  0.00000000000E+00  0.34587482473E+03  0.34587482473E+03  0.00000000000E+00 0.  1.
          1   -1    0    0  503    0 -0.00000000000E+00 -0.00000000000E+00 -0.70781869231E+03  0.70781869231E+03  0.00000000000E+00 0.  1.
         25    1    1    2    0    0  0.11908245565E+03  0.25079259817E+03 -0.36112576754E+03  0.47234984760E+03  0.12500000000E+03 0.  0.
         21    1    1    2  503  502  0.26358246896E+02 -0.73580979019E+02 -0.23858179429E+03  0.25105814111E+03  0.00000000000E+00 0.  1.
          1    1    1    2  501    0 -0.14544070255E+03 -0.17721161915E+03  0.23776369426E+03  0.33028552833E+03  0.00000000000E+00 0.  1.
<mgrwt>
<rscale>  4 0.40456144E+03</rscale>
<asrwt>0</asrwt>
<pdfrwt beam="1">  1       21 0.53211512E-01 0.40456144E+03</pdfrwt>
<pdfrwt beam="2">  1        1 0.10889518E+00 0.40456144E+03</pdfrwt>
<totfact> 0.95437327E+02</totfact>
</mgrwt>
</event>
<event>
 5    0  0.3188794E-002  0.5222468E+03  0.7546771E-02  0.1008130E+00
         21   -1    0    0  501  502  0.00000000000E+00  0.00000000000E+00  0.88272709083E+03  0.88272709083E+03  0.00000000000E+00 0.  1.
          2   -1    0    0  503    0 -0.00000000000E+00 -0.00000000000E+00 -0.11296830374E+03  0.11296830374E+03  0.00000000000E+00 0. -1.
         25    1    1    2    0    0 -0.10917707937E+03 -0.22611951687E+03  0.16340094937E+03  0.32461444950E+03  0.12500000000E+03 0.  0.
         21    1    1    2  503  502  0.79014354039E+02  0.19767955547E+03  0.33740534189E+03  0.39895217700E+03  0.00000000000E+00 0. -1.
          2    1    1    2  501    0  0.30162725335E+02  0.28439961396E+02  0.26895249582E+03  0.27212876807E+03  0.00000000000E+00 0. -1.
<mgrwt>
<rscale>  4 0.52224680E+03</rscale>
<asrwt>0</asrwt>
<pdfrwt beam="1">  1       21 0.13580416E+00 0.52224680E+03</pdfrwt>
<pdfrwt beam="2">  1        2 0.17379740E-01 0.52224680E+03</pdfrwt>
<totfact> 0.14026674E+03</totfact>
</mgrwt>
</event>
<event>
 5    0  0.3188794E-002  0.4529354E+03  0.7546771E-02  0.1026850E+00
          1   -1    0    0  503    0 -0.00000000000E+00  0.00000000000E+00  0.30702096621E+03  0.30702096621E+03  0.00000000000E+00 0. -1.
         21   -1    0    0  501  502  0.00000000000E+00 -0.00000000000E+00 -0.20328519487E+03  0.20328519487E+03  0.00000000000E+00 0.  1.
         25    1    1    2    0    0  0.18834705453E+03 -0.97318859868E+02  0.71881345289E+02  0.25639325505E+03  0.12500000000E+03 0.  0.
         21    1    1    2  503  502 -0.16250510626E+03  0.12753690139E+03  0.46135576145E+02  0.21166497624E+03  0.00000000000E+00 0. -1.
          1    1    1    2  501    0 -0.25841948262E+02 -0.30218041527E+02 -0.14281150100E+02  0.42247929794E+02  0.00000000000E+00 0. -1.
<mgrwt>
<rscale>  4 0.45293544E+03</rscale>
<asrwt>0</asrwt>
<pdfrwt beam="1">  1       21 0.31274645E-01 0.45293544E+03</pdfrwt>
<pdfrwt beam="2">  1        1 0.47233995E-01 0.45293544E+03</pdfrwt>
<totfact> 0.87786819E+03</totfact>
</mgrwt>
</event>
<event>
 5    0  0.3188794E-002  0.4824748E+03  0.7546771E-02  0.1018457E+00
         21   -1    0    0  501  502  0.00000000000E+00  0.00000000000E+00  0.38714751962E+03  0.38714751962E+03  0.00000000000E+00 0.  1.
          1   -1    0    0  503    0 -0.00000000000E+00 -0.00000000000E+00 -0.50500782998E+03  0.50500782998E+03  0.00000000000E+00 0. -1.
         25    1    1    2    0    0  0.16742848230E+03 -0.29244819173E+03 -0.13717593036E+03  0.38470830171E+03  0.12500000000E+03 0.  0.
         21    1    1    2  503  502 -0.66209896955E+02  0.48568332536E+02 -0.16576734675E+03  0.18499039605E+03  0.00000000000E+00 0. -1.
          1    1    1    2  501    0 -0.10121858535E+03  0.24387985919E+03  0.18508296676E+03  0.32245665185E+03  0.00000000000E+00 0. -1.
<mgrwt>
<rscale>  4 0.48247485E+03</rscale>
<asrwt>0</asrwt>
<pdfrwt beam="1">  1       21 0.59561157E-01 0.48247485E+03</pdfrwt>
<pdfrwt beam="2">  1        1 0.77693512E-01 0.48247485E+03</pdfrwt>
<totfact> 0.11856193E+03</totfact>
</mgrwt>
</event>
<event>
 5    0  0.3188794E-002  0.5934549E+03  0.7546771E-02  0.9919079E-01
          1   -1    0    0  503    0 -0.00000000000E+00  0.00000000000E+00  0.22509026565E+04  0.22509026565E+04  0.00000000000E+00 0.  1.
         21   -1    0    0  501  502  0.00000000000E+00 -0.00000000000E+00 -0.11056021983E+03  0.11056021983E+03  0.00000000000E+00 0.  1.
         25    1    1    2    0    0 -0.30782972663E+03  0.16703491645E+03  0.65204878333E+03  0.75063467796E+03  0.12500000000E+03 0.  0.
         21    1    1    2  503  502  0.10826338701E+03  0.18280610695E+03  0.55875996836E+03  0.59778903967E+03  0.00000000000E+00 0.  1.
          1    1    1    2  501    0  0.19956633962E+03 -0.34984102340E+03  0.92953368495E+03  0.10130391587E+04  0.00000000000E+00 0.  1.
<mgrwt>
<rscale>  4 0.59345488E+03</rscale>
<asrwt>0</asrwt>
<pdfrwt beam="1">  1       21 0.17009266E-01 0.59345488E+03</pdfrwt>
<pdfrwt beam="2">  1        1 0.34629268E+00 0.59345488E+03</pdfrwt>
<totfact> 0.71264602E+02</totfact>
</mgrwt>
</event>
<event>
 5    0  0.3188794E-002  0.8144462E+03  0.7546771E-02  0.9539339E-01
          2   -1    0    0  502    0 -0.00000000000E+00  0.00000000000E+00  0.79573166114E+03  0.79573166114E+03  0.00000000000E+00 0. -1.
         21   -1    0    0  503  502  0.00000000000E+00 -0.00000000000E+00 -0.62151325355E+03  0.62151325355E+03  0.00000000000E+00 0. -1.
         25    1    1    2    0    0  0.56943489452E+03  0.11858057962E+03  0.78482522030E+02  0.60008496000E+03  0.12500000000E+03 0.  0.
         21    1    1    2  503  501  0.67313577316E+01 -0.21122347287E+03  0.99495820188E+02  0.23358100287E+03  0.00000000000E+00 0. -1.
          2    1    1    2  501    0 -0.57616625225E+03  0.92642893248E+02 -0.37599346277E+01  0.58357895182E+03  0.00000000000E+00 0. -1.
<mgrwt>
<rscale>  4 0.81444622E+03</rscale>
<asrwt>0</asrwt>
<pdfrwt beam="1">  1       21 0.95617423E-01 0.81444622E+03</pdfrwt>
<pdfrwt beam="2">  1        2 0.12242026E+00 0.81444622E+03</pdfrwt>
<totfact> 0.33993213E+02</totfact>
</mgrwt>
</event>
<event>
 5    0  0.3188794E-002  0.5061062E+03  0.7546771E-02  0.1012197E+00
          2   -1    0    0  503    0 -0.00000000000E+00  0.00000000000E+00  0.13159355978E+04  0.13159355978E+04  0.00000000000E+00 0.  1.
         21   -1    0    0  501  502  0.00000000000E+00 -0.00000000000E+00 -0.15229459558E+03  0.15229459558E+03  0.00000000000E+00 0.  1.
         25    1    1    2    0    0  0.19475130852E+03  0.11529736242E+03  0.22519362826E+03  0.34286837731E+03  0.12500000000E+03 0.  0.
         21    1    1    2  503  502 -0.19742202168E+02  0.23075079726E+03  0.39197111669E+03  0.45527688422E+03  0.00000000000E+00 0.  1.
          2    1    1    2  501    0 -0.17500910636E+03 -0.34604815968E+03  0.54647625726E+03  0.67008493183E+03  0.00000000000E+00 0.  1.
<mgrwt>
<rscale>  4 0.50610625E+03</rscale>
<asrwt>0</asrwt>
<pdfrwt beam="1">  1       21 0.23429939E-01 0.50610625E+03</pdfrwt>
<pdfrwt beam="2">  1        2 0.20245162E+00 0.50610625E+03</pdfrwt>
<totfact> 0.34498791E+03</totfact>
</mgrwt>
</event>
