<event>
 5    0  0.1911311E+001  0.3194920E+03  0.7546771E-02  0.1075883E+00
         21   -1    0    0  502  501  0.00000000000E+00  0.00000000000E+00  0.73083638118E+03  0.73083638118E+03  0.00000000000E+00 0. -1.
         21   -1    0    0  504  502 -0.00000000000E+00 -0.00000000000E+00 -0.35998855609E+03  0.35998855609E+03  0.00000000000E+00 0.  1.
         25    1    1    2    0    0  0.30922819131E+03  0.10709042287E+03 -0.37743613519E+02  0.35233508672E+03  0.12500000000E+03 0.  0.
         21    1    1    2  503  501 -0.18893952864E+03 -0.22672754064E+03  0.47258214834E+03  0.55716910368E+03  0.00000000000E+00 0. -1.
         21    1    1    2  504  503 -0.12028866267E+03  0.11963711777E+03 -0.63990709726E+02  0.18132074687E+03  0.00000000000E+00 0.  1.
<mgrwt>
<rscale>  4 0.31949204E+03</rscale>
<asrwt>0</asrwt>
<pdfrwt beam="1">  1       21 0.11243637E+00 0.31949204E+03</pdfrwt>
<pdfrwt beam="2">  1       21 0.55382855E-01 0.31949204E+03</pdfrwt>
<totfact> 0.17357473E+03</totfact>
</mgrwt>
</event>
<event>
 5    0  0.1911311E+001  0.3350295E+03  0.7546771E-02  0.1068933E+00
         21   -1    0    0  504  501  0.00000000000E+00  0.00000000000E+00  0.73944587365E+03  0.73944587365E+03  0.00000000000E+00 0. -1.
         21   -1    0    0  503  502 -0.00000000000E+00 -0.00000000000E+00 -0.71536579962E+03  0.71536579962E+03  0.00000000000E+00 0. -1.
         25    1    1    2    0    0 -0.46522040363E+02  0.32361742046E+03  0.50131242037E+03  0.61141776052E+03  0.12500000000E+03 0.  0.
         21    1    1    2  503  501 -0.54860873438E+02 -0.30591871501E+03 -0.60450199713E+03  0.67971953051E+03  0.00000000000E+00 0. -1.
         21    1    1    2  504  502  0.10138291380E+03 -0.17698705452E+02  0.12726965080E+03  0.16367438223E+03  0.00000000000E+00 0. -1.
<mgrwt>
<rscale>  4 0.33502947E+03</rscale>
<asrwt>0</asrwt>
<pdfrwt beam="1">  1       21 0.11376090E+00 0.33502947E+03</pdfrwt>
<pdfrwt beam="2">  1       21 0.11005628E+00 0.33502947E+03</pdfrwt>
<totfact> 0.34664413E+02</totfact>
</mgrwt>
</event>
<event>
 5    0  0.1911311E+001  0.2402041E+03  0.7546771E-02  0.1119657E+00
         21   -1    0    0  504  501  0.00000000000E+00  0.00000000000E+00  0.12559287343E+04  0.12559287343E+04  0.00000000000E+00 0. -1.
         21   -1    0    0  503  502 -0.00000000000E+00 -0.00000000000E+00 -0.51501120554E+03  0.51501120554E+03  0.00000000000E+00 0.  1.
         25    1    1    2    0    0 -0.16851897367E+03 -0.15020431519E+03  0.11221007141E+04  0.11513882896E+04  0.12500000000E+03 0.  0.
         21    1    1    2  503  501  0.70991977836E+02  0.45499697264E+02 -0.45206950762E+03  0.45986620129E+03  0.00000000000E+00 0.  1.
         21    1    1    2  504  502  0.97526995831E+02  0.10470461792E+03  0.70886322264E+02  0.15968544898E+03  0.00000000000E+00 0. -1.
<mgrwt>
<rscale>  4 0.24020408E+03</rscale>
<asrwt>0</asrwt>
<pdfrwt beam="1">  1       21 0.19321980E+00 0.24020408E+03</pdfrwt>
<pdfrwt beam="2">  1       21 0.79232493E-01 0.24020408E+03</pdfrwt>
<totfact> 0.19719864E+02</totfact>
</mgrwt>
</event>
