<event>
 5    0  0.2349231E+000  0.2859254E+03  0.7546771E-02  0.1092496E+00
         21   -1    0    0  502  501  0.00000000000E+00  0.00000000000E+00  0.54703713185E+03  0.54703713185E+03  0.00000000000E+00 0. -1.
         21   -1    0    0  504  502 -0.00000000000E+00 -0.00000000000E+00 -0.28927919790E+03  0.28927919790E+03  0.00000000000E+00 0. -1.
         25    1    1    2    0    0  0.52675771452E+02  0.22785879076E+03 -0.17196666523E+03  0.31605679770E+03  0.12500000000E+03 0.  0.
         21    1    1    2  503  501 -0.32054088102E+02 -0.22646376766E+03  0.44094967066E+03  0.49673928240E+03  0.00000000000E+00 0. -1.
         21    1    1    2  504  503 -0.20621683350E+02 -0.13950230968E+01 -0.11225071480E+02  0.23520249645E+02  0.00000000000E+00 0.  1.
<mgrwt>
<rscale>  4 0.28592544E+03</rscale>
<asrwt>0</asrwt>
<pdfrwt beam="1">  1       21 0.84159559E-01 0.28592544E+03</pdfrwt>
<pdfrwt beam="2">  1       21 0.44504492E-01 0.28592544E+03</pdfrwt>
<totfact> 0.55960325E+03</totfact>
</mgrwt>
</event>
<event>
 5    0  0.2349231E+000  0.5948385E+03  0.7546771E-02  0.9916173E-01
         21   -1    0    0  502  501  0.00000000000E+00  0.00000000000E+00  0.42264414362E+03  0.42264414362E+03  0.00000000000E+00 0.  1.
         21   -1    0    0  503  502 -0.00000000000E+00 -0.00000000000E+00 -0.31064912076E+03  0.31064912076E+03  0.00000000000E+00 0. -1.
         25    1    1    2    0    0  0.18726760636E+03  0.11044366768E+03 -0.20406192281E+03  0.32331598857E+03  0.12500000000E+03 0.  0.
         21    1    1    2  503  504 -0.10402476984E+03 -0.13856334181E+03  0.20908142786E+03  0.27154372744E+03  0.00000000000E+00 0.  1.
         21    1    1    2  504  501 -0.83242836523E+02  0.28119674126E+02  0.10697551781E+03  0.13843354838E+03  0.00000000000E+00 0.  1.
<mgrwt>
<rscale>  4 0.59483854E+03</rscale>
<asrwt>0</asrwt>
<pdfrwt beam="1">  1       21 0.65022176E-01 0.59483854E+03</pdfrwt>
<pdfrwt beam="2">  1       21 0.47792173E-01 0.59483854E+03</pdfrwt>
<totfact> 0.77982603E+03</totfact>
</mgrwt>
</event>
<event>
 5    0  0.2349231E+000  0.1081855E+04  0.7546771E-02  0.9223060E-01
         21   -1    0    0  502  501  0.00000000000E+00  0.00000000000E+00  0.16855709095E+04  0.16855709095E+04  0.00000000000E+00 0.  1.
         21   -1    0    0  504  502 -0.00000000000E+00 -0.00000000000E+00 -0.33500716864E+03  0.33500716864E+03  0.00000000000E+00 0.  1.
         25    1    1    2    0    0 -0.36712522130E+03 -0.51530740099E+02  0.71015271309E+03  0.81078864150E+03  0.12500000000E+03 0.  0.
         21    1    1    2  503  501  0.89195663387E+01  0.23326547409E+02  0.81145638397E+03  0.81184059369E+03  0.00000000000E+00 0.  1.
         21    1    1    2  504  503  0.35820565496E+03  0.28204192691E+02 -0.17104535619E+03  0.39794884295E+03  0.00000000000E+00 0.  1.
<mgrwt>
<rscale>  4 0.10818547E+04</rscale>
<asrwt>0</asrwt>
<pdfrwt beam="1">  1       21 0.25931860E+00 0.10818547E+04</pdfrwt>
<pdfrwt beam="2">  1       21 0.51539566E-01 0.10818547E+04</pdfrwt>
<totfact> 0.13263128E+02</totfact>
</mgrwt>
</event>
<event>
 5    0  0.4214489E+000  0.3848937E+03  0.7546771E-02  0.1049140E+00
         21   -1    0    0  502  501  0.00000000000E+00  0.00000000000E+00  0.13846537581E+03  0.13846537581E+03  0.00000000000E+00 0.  1.
         21   -1    0    0  504  502 -0.00000000000E+00 -0.00000000000E+00 -0.86730303993E+03  0.86730303993E+03  0.00000000000E+00 0.  1.
         25    1    1    2    0    0 -0.11557633387E+03 -0.20255930724E+03 -0.70578819226E+03  0.75375734440E+03  0.12500000000E+03 0.  0.
         21    1    1    2  503  501  0.66107612041E+02  0.13886627179E+03  0.28332232425E+02  0.15638661453E+03  0.00000000000E+00 0.  1.
         21    1    1    2  504  503  0.49468721826E+02  0.63693035457E+02 -0.51381704297E+02  0.95624456816E+02  0.00000000000E+00 0. -1.
<mgrwt>
<rscale>  4 0.38489374E+03</rscale>
<asrwt>0</asrwt>
<pdfrwt beam="1">  1       21 0.21302366E-01 0.38489374E+03</pdfrwt>
<pdfrwt beam="2">  1       21 0.13343124E+00 0.38489374E+03</pdfrwt>
<totfact> 0.74776857E+03</totfact>
</mgrwt>
</event>
