<event>
 5    0  0.1943430E+001  0.2502236E+03  0.7546771E-02  0.1113164E+00
         21   -1    0    0  503  501  0.00000000000E+00  0.00000000000E+00  0.80700689102E+03  0.80700689102E+03  0.00000000000E+00 0. -1.
         21   -1    0    0  504  502 -0.00000000000E+00 -0.00000000000E+00 -0.88272272434E+02  0.88272272434E+02  0.00000000000E+00 0.  1.
         25    1    1    2    0    0 -0.21982962778E+03  0.74442242430E+02  0.30428880601E+03  0.40259581490E+03  0.12500000000E+03 0.  0.
         21    1    1    2  503  502  0.23867067601E+02 -0.14510031069E+01 -0.46079534707E+01  0.24351089526E+02  0.00000000000E+00 0.  1.
         21    1    1    2  504  501  0.19596256018E+03 -0.72991239323E+02  0.41905376605E+03  0.46833225904E+03  0.00000000000E+00 0. -1.
<mgrwt>
<rscale>  4 0.25022356E+03</rscale>
<asrwt>0</asrwt>
<pdfrwt beam="1">  1       21 0.12415490E+00 0.25022356E+03</pdfrwt>
<pdfrwt beam="2">  1       21 0.13580350E-01 0.25022356E+03</pdfrwt>
<totfact> 0.22055339E+04</totfact>
</mgrwt>
</event>
<event>
 5    0  0.1943430E+001  0.3128835E+03  0.7546771E-02  0.1089203E+00
         21   -1    0    0  504  501  0.00000000000E+00  0.00000000000E+00  0.73394031963E+03  0.73394031963E+03  0.00000000000E+00 0. -1.
         21   -1    0    0  501  502 -0.00000000000E+00 -0.00000000000E+00 -0.44118245460E+03  0.44118245460E+03  0.00000000000E+00 0. -1.
         25    1    1    2    0    0 -0.15090910439E+03 -0.13510851369E+03  0.17536669917E+03  0.29564564505E+03  0.12500000000E+03 0.  0.
         21    1    1    2  503  502  0.21857159344E+03  0.41211483183E+03  0.28699218032E+03  0.54770127591E+03  0.00000000000E+00 0. -1.
         21    1    1    2  504  503 -0.67662489055E+02 -0.27700631813E+03 -0.16960101445E+03  0.33177585327E+03  0.00000000000E+00 0. -1.
<mgrwt>
<rscale>  4 0.29220641E+03</rscale>
<asrwt>0</asrwt>
<pdfrwt beam="1">  1       21 0.11291389E+00 0.31288350E+03</pdfrwt>
<pdfrwt beam="2">  1       21 0.67874224E-01 0.31288350E+03</pdfrwt>
<totfact> 0.11063774E+03</totfact>
</mgrwt>
</event>
<event>
 5    0  0.1943430E+001  0.2975164E+03  0.7546771E-02  0.1086489E+00
         21   -1    0    0  504  501  0.00000000000E+00  0.00000000000E+00  0.71993848083E+03  0.71993848083E+03  0.00000000000E+00 0. -1.
         21   -1    0    0  501  502 -0.00000000000E+00 -0.00000000000E+00 -0.23801199831E+03  0.23801199831E+03  0.00000000000E+00 0. -1.
         25    1    1    2    0    0  0.16683473798E+03 -0.16765033842E+03  0.38268744664E+02  0.27024056429E+03  0.12500000000E+03 0.  0.
         21    1    1    2  503  502  0.20419529919E+02 -0.40755997403E+02 -0.80990744402E+02  0.92938201001E+02  0.00000000000E+00 0. -1.
         21    1    1    2  504  503 -0.18725426790E+03  0.20840633582E+03  0.52464848226E+03  0.59477171385E+03  0.00000000000E+00 0. -1.
<mgrwt>
<rscale>  4 0.29751638E+03</rscale>
<asrwt>0</asrwt>
<pdfrwt beam="1">  1       21 0.11075977E+00 0.29751638E+03</pdfrwt>
<pdfrwt beam="2">  1       21 0.36617231E-01 0.29751638E+03</pdfrwt>
<totfact> 0.43076920E+03</totfact>
</mgrwt>
</event>
<event>
 5    0  0.1943430E+001  0.2404066E+03  0.7546771E-02  0.1119522E+00
         21   -1    0    0  504  501  0.00000000000E+00  0.00000000000E+00  0.66144883040E+03  0.66144883040E+03  0.00000000000E+00 0. -1.
         21   -1    0    0  503  502 -0.00000000000E+00 -0.00000000000E+00 -0.95404107136E+03  0.95404107136E+03  0.00000000000E+00 0. -1.
         25    1    1    2    0    0 -0.99876114719E+02 -0.18027818337E+03  0.48625956610E+03  0.54272352751E+03  0.12500000000E+03 0.  0.
         21    1    1    2  503  501  0.11652150976E+03  0.16773842299E+03  0.75807022842E+02  0.21785349548E+03  0.00000000000E+00 0. -1.
         21    1    1    2  504  502 -0.16645395039E+02  0.12539760383E+02 -0.85465882990E+03  0.85491287877E+03  0.00000000000E+00 0. -1.
<mgrwt>
<rscale>  4 0.24040656E+03</rscale>
<asrwt>0</asrwt>
<pdfrwt beam="1">  1       21 0.10176136E+00 0.24040656E+03</pdfrwt>
<pdfrwt beam="2">  1       21 0.14677555E+00 0.24040656E+03</pdfrwt>
<totfact> 0.23609505E+02</totfact>
</mgrwt>
</event>
<event>
 5    0  0.1943430E+001  0.2724850E+03  0.7546771E-02  0.1099866E+00
         21   -1    0    0  503  501  0.00000000000E+00  0.00000000000E+00  0.82283265099E+02  0.82283265099E+02  0.00000000000E+00 0.  1.
         21   -1    0    0  504  502 -0.00000000000E+00 -0.00000000000E+00 -0.40439242035E+04  0.40439242035E+04  0.00000000000E+00 0.  1.
         25    1    1    2    0    0 -0.12759780035E+03 -0.20906598206E+03 -0.18154215318E+03  0.32950316674E+03  0.12500000000E+03 0.  0.
         21    1    1    2  503  502  0.70794941093E+02  0.21815348167E+03 -0.16538419805E+04  0.16696694768E+04  0.00000000000E+00 0.  1.
         21    1    1    2  504  501  0.56802859262E+02 -0.90874996101E+01 -0.21262568047E+04  0.21270348251E+04  0.00000000000E+00 0.  1.
<mgrwt>
<rscale>  4 0.27248497E+03</rscale>
<asrwt>0</asrwt>
<pdfrwt beam="1">  1       21 0.12658965E-01 0.27248497E+03</pdfrwt>
<pdfrwt beam="2">  1       21 0.62214213E+00 0.27248497E+03</pdfrwt>
<totfact> 0.10661173E+01</totfact>
</mgrwt>
</event>
<event>
 5    0  0.1943430E+001  0.3941200E+03  0.7546771E-02  0.1045835E+00
         21   -1    0    0  504  501  0.00000000000E+00  0.00000000000E+00  0.22007694526E+03  0.22007694526E+03  0.00000000000E+00 0.  1.
         21   -1    0    0  503  502 -0.00000000000E+00 -0.00000000000E+00 -0.17679256647E+04  0.17679256647E+04  0.00000000000E+00 0.  1.
         25    1    1    2    0    0 -0.27670456148E+03 -0.20390087103E+03 -0.95624779585E+03  0.10238045842E+04  0.12500000000E+03 0.  0.
         21    1    1    2  503  501  0.30208713508E+03  0.22998322250E+03 -0.82973356916E+01  0.37976014218E+03  0.00000000000E+00 0.  1.
         21    1    1    2  504  502 -0.25382573600E+02 -0.26082351470E+02 -0.58330358794E+03  0.58443788362E+03  0.00000000000E+00 0.  1.
<mgrwt>
<rscale>  4 0.39411999E+03</rscale>
<asrwt>0</asrwt>
<pdfrwt beam="1">  1       21 0.33857991E-01 0.39411999E+03</pdfrwt>
<pdfrwt beam="2">  1       21 0.27198857E+00 0.39411999E+03</pdfrwt>
<totfact> 0.34363850E+02</totfact>
</mgrwt>
</event>
<event>
 5    0  0.1943430E+001  0.2203594E+03  0.7546771E-02  0.1133615E+00
         21   -1    0    0  504  501  0.00000000000E+00  0.00000000000E+00  0.11665144700E+04  0.11665144700E+04  0.00000000000E+00 0. -1.
         21   -1    0    0  503  502 -0.00000000000E+00 -0.00000000000E+00 -0.10530066846E+03  0.10530066846E+03  0.00000000000E+00 0. -1.
         25    1    1    2    0    0 -0.10592491845E+03  0.17292250099E+03  0.94259276677E+03  0.97222857583E+03  0.12500000000E+03 0.  0.
         21    1    1    2  503  501  0.13656462046E+03 -0.55090516584E+02  0.95906522436E+02  0.17573537386E+03  0.00000000000E+00 0. -1.
         21    1    1    2  504  502 -0.30639702008E+02 -0.11783198440E+03  0.22714512323E+02  0.12385118876E+03  0.00000000000E+00 0. -1.
<mgrwt>
<rscale>  4 0.22035940E+03</rscale>
<asrwt>0</asrwt>
<pdfrwt beam="1">  1       21 0.17946376E+00 0.22035940E+03</pdfrwt>
<pdfrwt beam="2">  1       21 0.16200104E-01 0.22035940E+03</pdfrwt>
<totfact> 0.61121681E+03</totfact>
</mgrwt>
</event>
<event>
 5    0  0.1943430E+001  0.2280129E+03  0.7546771E-02  0.1128046E+00
         21   -1    0    0  503  501  0.00000000000E+00  0.00000000000E+00  0.70017648912E+02  0.70017648912E+02  0.00000000000E+00 0. -1.
         21   -1    0    0  504  502 -0.00000000000E+00 -0.00000000000E+00 -0.16830170312E+04  0.16830170312E+04  0.00000000000E+00 0. -1.
         25    1    1    2    0    0  0.21256223960E+03  0.29267728777E+02 -0.32524503091E+03  0.40920488241E+03  0.12500000000E+03 0.  0.
         21    1    1    2  503  502 -0.13857775521E+03  0.13751250640E+03 -0.78760532475E+03  0.81144046685E+03  0.00000000000E+00 0. -1.
         21    1    1    2  504  501 -0.73984484389E+02 -0.16678023518E+03 -0.50014902659E+03  0.53238933083E+03  0.00000000000E+00 0. -1.
<mgrwt>
<rscale>  4 0.22801289E+03</rscale>
<asrwt>0</asrwt>
<pdfrwt beam="1">  1       21 0.10771946E-01 0.22801289E+03</pdfrwt>
<pdfrwt beam="2">  1       21 0.25892570E+00 0.22801289E+03</pdfrwt>
<totfact> 0.40456703E+03</totfact>
</mgrwt>
</event>
<event>
 5    0  0.1943430E+001  0.3194008E+03  0.7546771E-02  0.1075925E+00
         21   -1    0    0  504  501  0.00000000000E+00  0.00000000000E+00  0.16374181835E+03  0.16374181835E+03  0.00000000000E+00 0.  1.
         21   -1    0    0  503  502 -0.00000000000E+00 -0.00000000000E+00 -0.10447579608E+04  0.10447579608E+04  0.00000000000E+00 0.  1.
         25    1    1    2    0    0 -0.10782491785E+03 -0.28038507348E+03 -0.44954079304E+03  0.55493596653E+03  0.12500000000E+03 0.  0.
         21    1    1    2  503  501  0.12528489533E+03  0.26341159623E+03 -0.81661647710E+02  0.30290361294E+03  0.00000000000E+00 0.  1.
         21    1    1    2  504  502 -0.17459977484E+02  0.16973477251E+02 -0.34981370169E+03  0.35066019967E+03  0.00000000000E+00 0.  1.
<mgrwt>
<rscale>  4 0.31940076E+03</rscale>
<asrwt>0</asrwt>
<pdfrwt beam="1">  1       21 0.25191049E-01 0.31940076E+03</pdfrwt>
<pdfrwt beam="2">  1       21 0.16073199E+00 0.31940076E+03</pdfrwt>
<totfact> 0.33939386E+03</totfact>
</mgrwt>
</event>
<event>
 5    0  0.1943430E+001  0.2543085E+03  0.7546771E-02  0.1110612E+00
         21   -1    0    0  503  501  0.00000000000E+00  0.00000000000E+00  0.85010803643E+03  0.85010803643E+03  0.00000000000E+00 0.  1.
         21   -1    0    0  504  502 -0.00000000000E+00 -0.00000000000E+00 -0.76728977274E+03  0.76728977274E+03  0.00000000000E+00 0.  1.
         25    1    1    2    0    0 -0.14272037695E+02 -0.21340593667E+03  0.51110101554E+03  0.56797450027E+03  0.12500000000E+03 0.  0.
         21    1    1    2  503  502  0.16344824403E+03 -0.15760509693E+02 -0.66670821377E+03  0.68663204444E+03  0.00000000000E+00 0.  1.
         21    1    1    2  504  501 -0.14917620634E+03  0.22916644637E+03  0.23842546192E+03  0.36279126446E+03  0.00000000000E+00 0.  1.
<mgrwt>
<rscale>  4 0.25430850E+03</rscale>
<asrwt>0</asrwt>
<pdfrwt beam="1">  1       21 0.13078585E+00 0.25430850E+03</pdfrwt>
<pdfrwt beam="2">  1       21 0.11804458E+00 0.25430850E+03</pdfrwt>
<totfact> 0.21882831E+02</totfact>
</mgrwt>
</event>
<event>
 5    0  0.1943430E+001  0.2471385E+03  0.7546771E-02  0.1115127E+00
         21   -1    0    0  504  501  0.00000000000E+00  0.00000000000E+00  0.54282919372E+03  0.54282919372E+03  0.00000000000E+00 0. -1.
         21   -1    0    0  501  502 -0.00000000000E+00 -0.00000000000E+00 -0.10693806280E+03  0.10693806280E+03  0.00000000000E+00 0. -1.
         25    1    1    2    0    0 -0.11161574746E+03  0.18164354438E+03  0.30587378608E+03  0.39323812799E+03  0.12500000000E+03 0.  0.
         21    1    1    2  503  502  0.44496102432E+02 -0.33553968637E+02  0.51871152760E+02  0.76134016258E+02  0.00000000000E+00 0.  1.
         21    1    1    2  504  503  0.67119645029E+02 -0.14808957575E+03  0.78146192085E+02  0.18039511227E+03  0.00000000000E+00 0. -1.
<mgrwt>
<rscale>  4 0.24713853E+03</rscale>
<asrwt>0</asrwt>
<pdfrwt beam="1">  1       21 0.83512182E-01 0.24713853E+03</pdfrwt>
<pdfrwt beam="2">  1       21 0.16452010E-01 0.24713853E+03</pdfrwt>
<totfact> 0.40261985E+04</totfact>
</mgrwt>
</event>
<event>
 5    0  0.1943430E+001  0.2636715E+03  0.7546771E-02  0.1104957E+00
         21   -1    0    0  504  501  0.00000000000E+00  0.00000000000E+00  0.20148669552E+03  0.20148669552E+03  0.00000000000E+00 0.  1.
         21   -1    0    0  503  502 -0.00000000000E+00 -0.00000000000E+00 -0.12967321358E+04  0.12967321358E+04  0.00000000000E+00 0.  1.
         25    1    1    2    0    0  0.24769819780E+03 -0.39497405975E+02 -0.15092734238E+03  0.31830567848E+03  0.12500000000E+03 0.  0.
         21    1    1    2  503  501 -0.22464423970E+03 -0.19900342864E+01  0.95586602574E+01  0.22485631557E+03  0.00000000000E+00 0.  1.
         21    1    1    2  504  502 -0.23053958103E+02  0.41487440262E+02 -0.95387675811E+03  0.95505683723E+03  0.00000000000E+00 0.  1.
<mgrwt>
<rscale>  4 0.26367148E+03</rscale>
<asrwt>0</asrwt>
<pdfrwt beam="1">  1       21 0.30997954E-01 0.26367148E+03</pdfrwt>
<pdfrwt beam="2">  1       21 0.19949725E+00 0.26367148E+03</pdfrwt>
<totfact> 0.12644413E+03</totfact>
</mgrwt>
</event>
<event>
 5    0  0.1943430E+001  0.3390803E+03  0.7546771E-02  0.1067188E+00
         21   -1    0    0  503  501  0.00000000000E+00  0.00000000000E+00  0.19261983172E+04  0.19261983172E+04  0.00000000000E+00 0.  1.
         21   -1    0    0  504  502 -0.00000000000E+00 -0.00000000000E+00 -0.32889916040E+03  0.32889916040E+03  0.00000000000E+00 0. -1.
         25    1    1    2    0    0  0.85390624354E+02 -0.19822487304E+03 -0.36647079967E+02  0.25209654398E+03  0.12500000000E+03 0.  0.
         21    1    1    2  503  502 -0.95254981898E+02  0.31119836613E+03  0.17848259235E+04  0.18142550846E+04  0.00000000000E+00 0.  1.
         21    1    1    2  504  501  0.98643575434E+01 -0.11297349309E+03 -0.15087968670E+03  0.18874584909E+03  0.00000000000E+00 0. -1.
<mgrwt>
<rscale>  4 0.33908032E+03</rscale>
<asrwt>0</asrwt>
<pdfrwt beam="1">  1       21 0.29633820E+00 0.33908032E+03</pdfrwt>
<pdfrwt beam="2">  1       21 0.50599872E-01 0.33908032E+03</pdfrwt>
<totfact> 0.11199147E+02</totfact>
</mgrwt>
</event>
