<LesHouchesEvents version="3.0">
  <!--
  <scalesfunctionalform>
    muR  H_T/2 := sum_i mT(i)/2, i=final state
    muF1 H_T/2 := sum_i mT(i)/2, i=final state
    muF2 H_T/2 := sum_i mT(i)/2, i=final state
    QES  H_T/2 := sum_i mT(i)/2, i=final state
  </scalesfunctionalform>
HERWIG6   
  -->
  <header>
      105
  </header>
  <init>
   2212   2212 0.65000000D+04 0.65000000D+04 -1 -1   247000   247000 -3   1
 0.22635358D-01 0.64899580D-03 0.47055975D-03     66
  </init>
  <event>
  6     66 -.47055975E-03 0.18786403E+02 0.75467711E-02 0.11666047E+00
        1 -1    0    0  503    0 0.00000000E+00 0.00000000E+00 0.12237043E+04 0.12237043E+04 0.32000000E+00 0.0000E+00 0.9000E+01
       -1 -1    0    0    0  501 0.00000000E+00 0.00000000E+00 -.39764905E+02 0.39766193E+02 0.32000000E+00 0.0000E+00 0.9000E+01
       25  1    1    2    0    0 0.79095525E+02 0.84811333E+02 0.21455908E+03 0.27406142E+03 0.12500000E+03 0.0000E+00 0.9000E+01
       23  1    1    2    0    0 -.84441218E+02 -.99069046E+02 0.76624801E+03 0.78255751E+03 0.91188000E+02 0.0000E+00 0.9000E+01
       21  1    1    2  502  501 0.26675512E+01 0.23375720E+02 0.81088238E+02 0.84435803E+02 0.75000000E+00 0.0000E+00 0.9000E+01
       21  1    1    2  503  502 0.26781413E+01 -.91180062E+01 0.12204404E+03 0.12241577E+03 0.75000000E+00 0.0000E+00 0.9000E+01
#aMCatNLO 2  0  0  1  5 0.95031825D+01 0.00000000D+00  -5  6  0 0.00000000D+00 0.00000000D+00 0.00000000D+00 0.00000000D+00 0.00000000D+00
  <mgrwgt>
 -.1587627961D+00    2    2    0
 0.208742615209849D+03 0.000000000000000D+00 0.000000000000000D+00 0.208742615209849D+03
 0.208742615209849D+03 0.000000000000000D+00 0.000000000000000D+00 -.208742615209849D+03
 0.201965667120792D+03 0.803944426662371D+02 0.803813818915640D+02 -.110637686748839D+03
 0.191489070892715D+03 -.832189911442916D+02 -.103237496908992D+03 0.103775872302994D+03
 0.240304924061909D+02 0.282454847805445D+01 0.228561150174284D+02 0.686181444584452D+01
 0.000000000000000D+00 0.000000000000000D+00 -.000000000000000D+00 0.000000000000000D+00
 0.231960295244062D+03 0.000000000000000D+00 0.000000000000000D+00 0.231960295244062D+03
 0.209771390485162D+03 0.000000000000000D+00 0.000000000000000D+00 -.209771390485162D+03
 0.203257813567207D+03 0.790948695104444D+02 0.848059117285652D+02 -.110637686748839D+03
 0.189817780324616D+03 -.844418624031844D+02 -.990741065314169D+02 0.103775872302994D+03
 0.245177826081353D+02 0.266885158985454D+01 0.233862010108934D+02 0.686181444584452D+01
 0.241383092292650D+02 0.267814130288544D+01 -.911800620804175D+01 0.221889047588994D+02
-.218351726896D-02 0.000000000000D+00 0.000000000000D+00 0.160225258533D-04 0.000000000000D+00  6 1 -1 25 23 21 21 4 0.19834964D+00 0.60876085D-02 0.32849312D+05 0.32849312D+05 0.32849312D+05 0.12107843D+01  1  2 13  1  6  1        1 -.610786650308D+00 0.100000000000D+01
0.146856922534D-02 0.000000000000D+00 0.000000000000D+00 0.160866087239D-04 0.481785835785D-06  6 1 -1 25 23 21 21 4 0.18825709D+00 0.61176109D-02 0.32849312D+05 0.32849312D+05 0.32849312D+05 0.12107843D+01  1  2  1  1  6  1        1 0.452023854239D+00 0.100000000000D+01
  </mgrwgt>
  </event>
  <event>
  5     66 0.47055975E-03 0.22318774E+02 0.75467711E-02 0.10968298E+00
        1 -1    0    0  502    0 0.00000000E+00 0.00000000E+00 0.42670376E+03 0.42670388E+03 0.32000000E+00 0.0000E+00 0.9000E+01
       -1 -1    0    0    0  501 0.00000000E+00 0.00000000E+00 -.27020178E+03 0.27020197E+03 0.32000000E+00 0.0000E+00 0.9000E+01
       25  1    1    2    0    0 -.16170763E+03 -.11566954E+03 0.22966220E+03 0.32847911E+03 0.12500000E+03 0.0000E+00 0.9000E+01
       23  1    1    2    0    0 0.16785937E+03 0.13712357E+03 0.52383259E+02 0.24091264E+03 0.91188000E+02 0.0000E+00 0.9000E+01
       21  1    1    2  502  501 -.61517365E+01 -.21454030E+02 -.12554348E+03 0.12751410E+03 0.75000000E+00 0.0000E+00 0.9000E+01
#aMCatNLO 1  0  0  5  2 0.25226709D+02 0.00000000D+00  -5  6  0 0.00000000D+00 0.00000000D+00 0.00000000D+00 0.00000000D+00 0.00000000D+00
  <mgrwgt>
 0.5108723003D+00    4    2    0
 0.339552976664829D+03 0.000000000000000D+00 0.000000000000000D+00 0.339552976664829D+03
 0.339552976664829D+03 -.000000000000000D+00 -.000000000000000D+00 -.339552976664829D+03
 0.284162825568042D+03 -.161707604670041D+03 -.115669444073385D+03 0.159983567076264D+03
 0.235155329600350D+03 0.167859392993028D+03 0.137123654640417D+03 -.176216273854649D+01
 0.159787798161264D+03 -.615178832298717D+01 -.214542105670324D+02 -.158221404337718D+03
 0.000000000000000D+00 0.000000000000000D+00 0.000000000000000D+00 0.000000000000000D+00
 0.339552976664829D+03 0.000000000000000D+00 0.000000000000000D+00 0.339552976664829D+03
 0.339552976664829D+03 -.000000000000000D+00 -.000000000000000D+00 -.339552976664829D+03
 0.267949748807532D+03 -.163172421669789D+03 -.120777957355176D+03 0.122309090870415D+03
 0.234196520071719D+03 0.166614149540567D+03 0.132780898707725D+03 -.337892997995709D+02
 0.121390836947551D+03 0.257212515008842D+02 0.268023870791003D+02 -.115567229623788D+03
 0.555688475028545D+02 -.291629793716630D+02 -.388053284316495D+02 0.270474385529438D+02
0.993553838048D-02 0.000000000000D+00 0.000000000000D+00 0.225304843039D-04 0.000000000000D+00  6 1 -1 25 23 21 21 2 0.65646756D-01 0.41569529D-01 0.60593736D+05 0.60593736D+05 0.60593736D+05 0.11841038D+01  1  2  2  3  6  5       21 0.451284911334D+00 0.100000000000D+01
0.340959146394D-02 0.524312765018D-03 -.381550834684D-04 0.225304843039D-04 0.000000000000D+00  6 1 -1 25 23 21 21 4 0.65646756D-01 0.41569529D-01 0.60593736D+05 0.60593736D+05 0.60593736D+05 0.11841038D+01  1  2  3  3  6  5       21 0.217140747381D+00 0.100000000000D+01
0.895460905577D-04 0.000000000000D+00 0.000000000000D+00 0.225304843039D-04 0.000000000000D+00  6 1 -1 25 23 21 21 4 0.65646756D-01 0.41569529D-01 0.60593736D+05 0.60593736D+05 0.60593736D+05 0.11841038D+01  1  2 15  3  6  5       21 0.570276680782D-02 0.100000000000D+01
-.256348335205D-02 0.000000000000D+00 0.000000000000D+00 0.225304843039D-04 0.000000000000D+00  6 1 -1 25 23 21 21 4 0.65646756D-01 0.41569529D-01 0.60593736D+05 0.60593736D+05 0.60593736D+05 0.11841038D+01  1  2  4  3  6  5       21 -.163256125214D+00 0.100000000000D+01
  </mgrwgt>
  </event>
  <event>
  5     66 0.47055975E-03 0.98722161E+02 0.75467711E-02 0.11304730E+00
        1 -1    0    0  502    0 0.00000000E+00 0.00000000E+00 0.30282477E+04 0.30282477E+04 0.32000000E+00 0.0000E+00 0.9000E+01
       -1 -1    0    0    0  501 0.00000000E+00 0.00000000E+00 -.15618865E+02 0.15622143E+02 0.32000000E+00 0.0000E+00 0.9000E+01
       25  1    1    2    0    0 0.52044986E+02 -.24699759E+02 0.17917342E+04 0.17970128E+04 0.12500000E+03 0.0000E+00 0.9000E+01
       23  1    1    2    0    0 0.54535284E+01 -.87532372E+02 0.57252441E+03 0.58633702E+03 0.91188000E+02 0.0000E+00 0.9000E+01
       21  1    1    2  502  501 -.57498514E+02 0.11223213E+03 0.64837025E+03 0.66052000E+03 0.75000000E+00 0.0000E+00 0.9000E+01
#aMCatNLO 1  0  0  1  5 0.56295048D+02 0.00000000D+00  -5  6  0 0.00000000D+00 0.00000000D+00 0.00000000D+00 0.00000000D+00 0.00000000D+00
  <mgrwgt>
 0.5248271995D-01    9    4    0
 0.217492082616167D+03 0.000000000000000D+00 0.000000000000000D+00 0.217492082616167D+03
 0.217492082616167D+03 0.000000000000000D+00 0.000000000000000D+00 -.217492082616167D+03
 0.165622813410272D+03 0.520453414050606D+02 -.247004527753216D+02 0.921253840841846D+02
 0.137775560925101D+03 0.545382425488150D+01 -.875329493037031D+02 -.545444078840211D+02
 0.131585790896961D+03 -.574991656599421D+02 0.112233402079025D+03 -.375809762001634D+02
 0.000000000000000D+00 0.000000000000000D+00 -.000000000000000D+00 0.000000000000000D+00
 0.274722616869789D+03 0.000000000000000D+00 0.000000000000000D+00 0.274722616869789D+03
 0.233602757773046D+03 0.000000000000000D+00 0.000000000000000D+00 -.233602757773046D+03
 0.162957774157225D+03 0.492890476867853D+02 -.370668905472827D+01 0.921253840841846D+02
 0.127600701354179D+03 0.322771914588898D+01 -.705774541888221D+02 -.545444078840211D+02
 0.148053376208399D+03 -.598449149489743D+02 0.130100186738138D+03 -.375809762001634D+02
 0.697135229230322D+02 0.732814811630010D+01 -.558160434945877D+02 0.411198590967430D+02
 0.217492082616167D+03 0.000000000000000D+00 0.000000000000000D+00 0.217492082616167D+03
 0.217492082616167D+03 0.000000000000000D+00 0.000000000000000D+00 -.217492082616167D+03
 0.165622813410272D+03 0.520453414050606D+02 -.247004527753216D+02 0.921253840841846D+02
 0.137775560925101D+03 0.545382425488150D+01 -.875329493037031D+02 -.545444078840211D+02
 0.000000000000000D+00 0.000000000000000D+00 -.000000000000000D+00 0.000000000000000D+00
 0.131585790896961D+03 -.574991656599421D+02 0.112233402079025D+03 -.375809762001634D+02
 0.274722616869789D+03 0.000000000000000D+00 0.000000000000000D+00 0.274722616869789D+03
 0.233602757773046D+03 0.000000000000000D+00 0.000000000000000D+00 -.233602757773046D+03
 0.162957774157225D+03 0.492890476867853D+02 -.370668905472827D+01 0.921253840841846D+02
 0.127600701354179D+03 0.322771914588898D+01 -.705774541888221D+02 -.545444078840211D+02
 0.697135229230322D+02 0.732814811630010D+01 -.558160434945877D+02 0.411198590967430D+02
 0.148053376208399D+03 -.598449149489743D+02 0.130100186738138D+03 -.375809762001634D+02
0.302586027672D-03 0.000000000000D+00 0.000000000000D+00 0.938707236128D-06 0.000000000000D+00  6 1 -1 25 23 21 21 2 0.46588452D+00 0.24031557D-02 0.38075812D+05 0.38075812D+05 0.38075812D+05 0.12041806D+01  1  2  2  1  6  1        1 0.161579484591D-01 0.100000000000D+01
-.273679388291D-04 0.159679033736D-04 -.116201001899D-05 0.938707236128D-06 0.000000000000D+00  6 1 -1 25 23 21 21 4 0.46588452D+00 0.24031557D-02 0.38075812D+05 0.38075812D+05 0.38075812D+05 0.12041806D+01  1  2  3  1  6  1        1 -.211915488291D-02 0.100000000000D+01
0.137511852771D-04 0.000000000000D+00 0.000000000000D+00 0.938707236128D-06 0.000000000000D+00  6 1 -1 25 23 21 21 4 0.46588452D+00 0.24031557D-02 0.38075812D+05 0.38075812D+05 0.38075812D+05 0.12041806D+01  1  2 15  1  6  1        1 0.106478210170D-02 0.100000000000D+01
0.354259813081D-03 0.000000000000D+00 0.000000000000D+00 0.919638104725D-06 0.000000000000D+00  6 1 -1 25 23 21 21 4 0.62970305D+00 0.24031557D-02 0.50461439D+05 0.50461439D+05 0.50461439D+05 0.11918868D+01  1  2 12  1  6  1        1 0.398282988855D-02 0.100000000000D+01
-.210198565218D-03 0.000000000000D+00 0.000000000000D+00 0.938707236128D-06 0.000000000000D+00  6 1 -1 25 23 21 21 4 0.46588452D+00 0.24031557D-02 0.38075812D+05 0.38075812D+05 0.38075812D+05 0.12041806D+01  1  2  4  1  6  1        1 -.162761002443D-01 0.100000000000D+01
-.794847268624D-03 0.000000000000D+00 -.199392725199D-03 0.938707236128D-06 0.000000000000D+00  6 1 -1 25 23 21 21 4 0.59737490D+00 0.24031557D-02 0.38075812D+05 0.38075812D+05 0.38075812D+05 0.12041806D+01  1  2  5  1  6  1        1 -.141373266982D-01 0.100000000000D+01
0.824804438488D-03 0.000000000000D+00 0.193385731873D-03 0.938707236128D-06 0.000000000000D+00  6 1 -1 25 23 21 21 4 0.46588452D+00 0.24031557D-02 0.38075812D+05 0.38075812D+05 0.38075812D+05 0.12041806D+01  1  2  6  1  6  1        1 0.638662766743D-01 0.100000000000D+01
0.137371970864D-04 0.000000000000D+00 0.000000000000D+00 0.919638104725D-06 0.000000000000D+00  6 21 -1 25 23 -1 21 4 0.62970305D+00 0.24031557D-02 0.50461439D+05 0.50461439D+05 0.50461439D+05 0.11918868D+01  3  4 12  4  5  1        1 0.241127994759D-04 0.100000000000D+01
-.234783895581D-04 0.000000000000D+00 -.672032655990D-05 0.938707236128D-06 0.000000000000D+00  6 21 -1 25 23 -1 21 4 0.59737490D+00 0.24031557D-02 0.38075812D+05 0.38075812D+05 0.38075812D+05 0.12041806D+01  3  4  5  4  5  1        1 -.806481484659D-04 0.100000000000D+01
  </mgrwgt>
  </event>
  <event>
  5     66 0.47055975E-03 0.20667019E+02 0.75467711E-02 0.11323097E+00
        1 -1    0    0  502    0 0.00000000E+00 0.00000000E+00 0.62736652E+03 0.62736660E+03 0.32000000E+00 0.0000E+00 0.9000E+01
       -1 -1    0    0    0  501 0.00000000E+00 0.00000000E+00 -.79974555E+02 0.79975195E+02 0.32000000E+00 0.0000E+00 0.9000E+01
       25  1    1    2    0    0 -.37516684E+02 -.48733351E+02 0.15166701E+03 0.20593767E+03 0.12500000E+03 0.0000E+00 0.9000E+01
       23  1    1    2    0    0 0.48508093E+02 0.66234936E+02 0.19059904E+02 0.12417179E+03 0.91188000E+02 0.0000E+00 0.9000E+01
       21  1    1    2  502  501 -.10991409E+02 -.17501585E+02 0.37666504E+03 0.37723233E+03 0.75000000E+00 0.0000E+00 0.9000E+01
#aMCatNLO 1  0  0  2  5 0.73135061D+02 0.00000000D+00  -5  6  0 0.00000000D+00 0.00000000D+00 0.00000000D+00 0.00000000D+00 0.00000000D+00
  <mgrwgt>
 0.1637950206D+00    7    4    0
 0.223994672345899D+03 0.000000000000000D+00 0.000000000000000D+00 0.223994672345899D+03
 0.223994672345899D+03 0.000000000000000D+00 0.000000000000000D+00 -.223994672345899D+03
 0.139840429849056D+03 -.375166311429715D+02 -.487332672083104D+02 -.121621081747519D+02
 0.172769584440602D+03 0.485081575899901D+02 0.662350392717889D+02 -.121630408137388D+03
 0.135379330402139D+03 -.109915264470185D+02 -.175017720634785D+02 0.133792516312140D+03
 0.000000000000000D+00 0.000000000000000D+00 -.000000000000000D+00 -.000000000000000D+00
 0.261124222934987D+03 0.000000000000000D+00 0.000000000000000D+00 0.261124222934987D+03
 0.370381216659254D+03 0.000000000000000D+00 0.000000000000000D+00 -.370381216659254D+03
 0.145864477604192D+03 -.694814437902885D+02 -.259972675546185D+02 -.121621081747519D+02
 0.179089682865981D+03 0.914196098548275D+01 0.942355109855617D+02 -.121630408137388D+03
 0.140248865250681D+03 -.418289513722524D+02 0.443233686300429D+01 0.133792516312140D+03
 0.166302413873388D+03 0.102168434177058D+03 -.726705802939475D+02 -.109256993724268D+03
 0.223994672345899D+03 0.000000000000000D+00 0.000000000000000D+00 0.223994672345899D+03
 0.223994672345899D+03 0.000000000000000D+00 0.000000000000000D+00 -.223994672345899D+03
 0.139840429849056D+03 -.375166311429715D+02 -.487332672083104D+02 -.121621081747519D+02
 0.172769584440602D+03 0.485081575899901D+02 0.662350392717889D+02 -.121630408137388D+03
 0.000000000000000D+00 0.000000000000000D+00 -.000000000000000D+00 -.000000000000000D+00
 0.135379330402139D+03 -.109915264470185D+02 -.175017720634785D+02 0.133792516312140D+03
 0.261124222934987D+03 0.000000000000000D+00 0.000000000000000D+00 0.261124222934987D+03
 0.370381216659254D+03 0.000000000000000D+00 0.000000000000000D+00 -.370381216659254D+03
 0.145864477604192D+03 -.694814437902885D+02 -.259972675546185D+02 -.121621081747519D+02
 0.179089682865981D+03 0.914196098548275D+01 0.942355109855617D+02 -.121630408137388D+03
 0.166302413873388D+03 0.102168434177058D+03 -.726705802939475D+02 -.109256993724268D+03
 0.140248865250681D+03 -.418289513722524D+02 0.443233686300429D+01 0.133792516312140D+03
0.735881294380D-03 0.000000000000D+00 0.000000000000D+00 0.438042138810D-04 0.000000000000D+00  6 1 -1 25 23 21 21 2 0.96517981D-01 0.12303833D-01 0.19976700D+05 0.19976700D+05 0.19976700D+05 0.12338818D+01  1  2  2  2  6  2       -1 0.161713403486D+00 0.100000000000D+01
0.174851580829D-03 0.388335227952D-04 -.282597793241D-05 0.438042138810D-04 0.000000000000D+00  6 1 -1 25 23 21 21 4 0.96517981D-01 0.12303833D-01 0.19976700D+05 0.19976700D+05 0.19976700D+05 0.12338818D+01  1  2  3  2  6  2       -1 0.584998728611D-01 0.100000000000D+01
0.272686112222D-04 0.000000000000D+00 0.000000000000D+00 0.438042138810D-04 0.000000000000D+00  6 1 -1 25 23 21 21 4 0.96517981D-01 0.12303833D-01 0.19976700D+05 0.19976700D+05 0.19976700D+05 0.12338818D+01  1  2 15  2  6  2       -1 0.912322486327D-02 0.100000000000D+01
-.692056159294D-03 0.000000000000D+00 0.000000000000D+00 0.438042138810D-04 0.000000000000D+00  6 1 -1 25 23 21 21 4 0.96517981D-01 0.12303833D-01 0.19976700D+05 0.19976700D+05 0.19976700D+05 0.12338818D+01  1  2  4  2  6  2       -1 -.231540356339D+00 0.100000000000D+01
-.549872172170D-03 0.000000000000D+00 -.441650561065D-03 0.438042138810D-04 0.000000000000D+00  6 1 -1 25 23 21 21 4 0.96517981D-01 0.23508357D-01 0.19976700D+05 0.19976700D+05 0.19976700D+05 0.12338818D+01  1  2  5  2  6  2       -1 -.658751685056D-01 0.100000000000D+01
0.751485961189D-03 0.000000000000D+00 0.362895913246D-03 0.438042138810D-04 0.000000000000D+00  6 1 -1 25 23 21 21 4 0.96517981D-01 0.12303833D-01 0.19976700D+05 0.19976700D+05 0.19976700D+05 0.12338818D+01  1  2  6  2  6  2       -1 0.251423710201D+00 0.100000000000D+01
-.132805602139D-04 0.000000000000D+00 -.310495264898D-04 0.438042138810D-04 0.000000000000D+00  6 1 21 25 23 1 21 4 0.96517981D-01 0.23508357D-01 0.19976700D+05 0.19976700D+05 0.19976700D+05 0.12338818D+01  3  4  5  5  5  2       -1 -.195496659526D-01 0.100000000000D+01
  </mgrwgt>
  </event>
  <event>
  6     66 0.47055975E-03 0.19595055E+02 0.75467711E-02 0.11846014E+00
        1 -1    0    0  503    0 0.00000000E+00 0.00000000E+00 0.20134028E+03 0.20134053E+03 0.32000000E+00 0.0000E+00 0.9000E+01
       -1 -1    0    0    0  501 0.00000000E+00 0.00000000E+00 -.17925125E+03 0.17925153E+03 0.32000000E+00 0.0000E+00 0.9000E+01
       25  1    1    2    0    0 -.23610430E+02 -.89842120E+02 -.68490887E+02 0.17013248E+03 0.12500000E+03 0.0000E+00 0.9000E+01
       23  1    1    2    0    0 0.22455278E+02 0.10595378E+03 0.43278050E+02 0.14804960E+03 0.91188000E+02 0.0000E+00 0.9000E+01
       21  1    1    2  502  501 -.71928875E+00 0.68908345E+01 -.25893915E+01 0.74342736E+01 0.75000000E+00 0.0000E+00 0.9000E+01
       21  1    1    2  503  502 0.18744407E+01 -.23002495E+02 0.49891262E+02 0.54975712E+02 0.75000000E+00 0.0000E+00 0.9000E+01
#aMCatNLO 2  0  0  1  5 0.59456970D+01 0.00000000D+00  -5  6  0 0.00000000D+00 0.00000000D+00 0.00000000D+00 0.00000000D+00 0.00000000D+00
  <mgrwgt>
 0.1148046546D+00    1    2    0
 0.161802671048117D+03 0.000000000000000D+00 0.000000000000000D+00 0.161802671048117D+03
 0.161802671048117D+03 0.000000000000000D+00 0.000000000000000D+00 -.161802671048117D+03
 0.171564963699026D+03 -.226350368114690D+02 -.101805442268894D+03 -.541557365569568D+02
 0.145277219611297D+03 0.233179436477816D+02 0.953728361221594D+02 0.561294470669685D+02
 0.676315878590961D+01 -.682906836312541D+00 0.643260614673504D+01 -.197371051001168D+01
 0.000000000000000D+00 0.000000000000000D+00 -.000000000000000D+00 0.000000000000000D+00
 0.219329541732935D+03 0.000000000000000D+00 0.000000000000000D+00 0.219329541732935D+03
 0.164544977180240D+03 0.000000000000000D+00 0.000000000000000D+00 -.164544977180240D+03
 0.164895298806042D+03 -.236082514391207D+02 -.898624851108320D+02 -.541557365569568D+02
 0.152290425111803D+03 0.224572263006446D+02 0.105935265117768D+03 0.561294470669685D+02
 0.724153410387091D+01 -.723415548618198D+00 0.692971521378854D+01 -.197371051001168D+01
 0.594472608914593D+02 0.187444068709430D+01 -.230024952207242D+02 0.547845645526945D+02
0.306408822096D-03 0.000000000000D+00 0.000000000000D+00 0.286001117677D-03 0.159234516490D-05  6 1 -1 25 23 21 21 4 0.30975030D-01 0.27576765D-01 0.26791789D+05 0.26791789D+05 0.26791789D+05 0.12200877D+01  1  2  1  1  6  1        1 0.114804654584D+00 0.100000000000D+01
  </mgrwgt>
  </event>
  <event>
  5     66 0.47055975E-03 0.26808810E+02 0.75467711E-02 0.11088723E+00
        1 -1    0    0  502    0 0.00000000E+00 0.00000000E+00 0.10799679E+03 0.10799726E+03 0.32000000E+00 0.0000E+00 0.9000E+01
       -1 -1    0    0    0  501 -.00000000E+00 -.00000000E+00 -.11139701E+04 0.11139702E+04 0.32000000E+00 0.0000E+00 0.9000E+01
       25  1    1    2    0    0 0.20634096E+03 0.59100144E+02 -.17117735E+03 0.30165561E+03 0.12500000E+03 0.0000E+00 0.9000E+01
       23  1    1    2    0    0 -.21837470E+03 -.35144887E+02 -.85428936E+03 0.88715739E+03 0.91188000E+02 0.0000E+00 0.9000E+01
       21  1    1    2  502  501 0.12033738E+02 -.23955258E+02 0.19493351E+02 0.33154463E+02 0.75000000E+00 0.0000E+00 0.9000E+01
#aMCatNLO 1  0  0  5  1 0.81253269D+00 0.00000000D+00  -5  6  0 0.00000000D+00 0.00000000D+00 0.00000000D+00 0.00000000D+00 0.00000000D+00
  <mgrwgt>
 0.1595593614D+00   19    2    0
 0.346850859200717D+03 0.000000000000000D+00 0.000000000000000D+00 0.346850859200717D+03
 0.346850859200717D+03 -.000000000000000D+00 -.000000000000000D+00 -.346850859200717D+03
 0.283137574906158D+03 0.206340779091238D+03 0.591005103562913D+02 0.135913571373087D+03
 0.323894059938368D+03 -.218374911027301D+03 -.351444677495016D+02 -.218333175078324D+03
 0.866700835569069D+02 0.120341319360631D+02 -.239560426067897D+02 0.824196037052371D+02
 0.000000000000000D+00 0.000000000000000D+00 -.000000000000000D+00 0.000000000000000D+00
 0.346850859200717D+03 0.000000000000000D+00 0.000000000000000D+00 0.346850859200717D+03
 0.346850859200717D+03 -.000000000000000D+00 -.000000000000000D+00 -.346850859200717D+03
 0.283264339488418D+03 0.206375959473157D+03 0.590304776582397D+02 0.136154515477026D+03
 0.323689997621944D+03 -.218334688256348D+03 -.352245382040914D+02 -.218057696559434D+03
 0.859036853955222D+02 0.117830614204396D+02 -.229811590690401D+02 0.819296585855115D+02
 0.843695895548773D+00 0.175667362750794D+00 -.824780385108321D+00 -.264775031035131D-01
0.476458164613D-02 0.000000000000D+00 0.000000000000D+00 0.933256635693D-05 0.000000000000D+00  6 1 -1 25 23 21 21 2 0.16614931D-01 0.17138006D+00 0.66161351D+05 0.66161351D+05 0.66161351D+05 0.11804202D+01  1  2  2  3  6  5       21 0.572341306026D-01 0.100000000000D+01
0.103938742438D-02 0.251433881222D-03 -.182972480643D-04 0.933256635693D-05 0.000000000000D+00  6 1 -1 25 23 21 21 4 0.16614931D-01 0.17138006D+00 0.66161351D+05 0.66161351D+05 0.66161351D+05 0.11804202D+01  1  2  3  3  6  5       21 0.173972674991D-01 0.100000000000D+01
0.321887077806D-04 0.000000000000D+00 0.000000000000D+00 0.933256635693D-05 0.000000000000D+00  6 1 -1 25 23 21 21 4 0.16614931D-01 0.17138006D+00 0.66161351D+05 0.66161351D+05 0.66161351D+05 0.11804202D+01  1  2 15  3  6  5       21 0.538774615294D-03 0.100000000000D+01
-.181972930594D+00 0.000000000000D+00 0.000000000000D+00 0.933256635693D-05 0.000000000000D+00  6 1 -1 25 23 21 21 4 0.16614931D-01 0.17138006D+00 0.66161351D+05 0.66161351D+05 0.66161351D+05 0.11804202D+01  1  2  4  3  6  5       21 -.304586305058D+01 0.100000000000D+01
-.216651938062D+00 0.000000000000D+00 0.000000000000D+00 0.933256635693D-05 0.000000000000D+00  6 1 -1 25 23 21 21 4 0.16614931D-01 0.17138006D+00 0.66161351D+05 0.66161351D+05 0.66161351D+05 0.11804202D+01  1  2  5  3  6  5       21 -.362632030394D+01 0.100000000000D+01
0.220198925679D+00 0.000000000000D+00 -.000000000000D+00 0.933256635693D-05 0.000000000000D+00  6 1 -1 25 23 21 21 4 0.16614931D-01 0.17138006D+00 0.66161351D+05 0.66161351D+05 0.66161351D+05 0.11804202D+01  1  2  6  3  6  5       21 0.368568978536D+01 0.100000000000D+01
0.183626447625D+00 0.000000000000D+00 0.000000000000D+00 0.933256635693D-05 0.730302475777D-04  6 1 -1 25 23 21 21 4 0.16614931D-01 0.17138006D+00 0.66122247D+05 0.66122247D+05 0.66122247D+05 0.11804449D+01  1  2 11  3  6  5       21 0.307383327541D+01 0.100000000000D+01
0.117963227283D-09 0.000000000000D+00 0.000000000000D+00 0.933295623930D-05 0.000000000000D+00  6 1 -1 25 23 1 -1 4 0.16614931D-01 0.17138006D+00 0.66122247D+05 0.66122247D+05 0.66122247D+05 0.11804449D+01  1  2 12  6  6  5       21 0.197465723477D-08 0.100000000000D+01
-.171077290119D-03 0.000000000000D+00 0.000000000000D+00 0.933256635693D-05 0.000000000000D+00  6 1 -1 25 23 1 -1 4 0.16614931D-01 0.17138006D+00 0.66161351D+05 0.66161351D+05 0.66161351D+05 0.11804202D+01  1  2  5  6  6  5       21 -.286349181203D-02 0.100000000000D+01
0.119272755420D-03 0.000000000000D+00 0.000000000000D+00 0.933256635693D-05 0.887709992015D-07  6 1 -1 25 23 1 -1 4 0.16614931D-01 0.17138006D+00 0.66122247D+05 0.66122247D+05 0.66122247D+05 0.11804449D+01  1  2 11  6  6  5       21 0.199657821192D-02 0.100000000000D+01
0.117963227283D-09 0.000000000000D+00 0.000000000000D+00 0.933295623930D-05 0.000000000000D+00  6 1 -1 25 23 2 -2 4 0.16614931D-01 0.17138006D+00 0.66122247D+05 0.66122247D+05 0.66122247D+05 0.11804449D+01  1  2 12  7  6  5       21 0.197465723477D-08 0.100000000000D+01
0.117963227283D-09 0.000000000000D+00 0.000000000000D+00 0.933295623930D-05 0.000000000000D+00  6 1 -1 25 23 4 -4 4 0.16614931D-01 0.17138006D+00 0.66122247D+05 0.66122247D+05 0.66122247D+05 0.11804449D+01  1  2 12  7  6  5       21 0.197465723477D-08 0.100000000000D+01
-.171077290119D-03 0.000000000000D+00 0.000000000000D+00 0.933256635693D-05 0.000000000000D+00  6 1 -1 25 23 2 -2 4 0.16614931D-01 0.17138006D+00 0.66161351D+05 0.66161351D+05 0.66161351D+05 0.11804202D+01  1  2  5  7  6  5       21 -.286349181203D-02 0.100000000000D+01
-.171077290119D-03 0.000000000000D+00 0.000000000000D+00 0.933256635693D-05 0.000000000000D+00  6 1 -1 25 23 4 -4 4 0.16614931D-01 0.17138006D+00 0.66161351D+05 0.66161351D+05 0.66161351D+05 0.11804202D+01  1  2  5  7  6  5       21 -.286349181203D-02 0.100000000000D+01
0.129571490050D-03 0.000000000000D+00 0.000000000000D+00 0.933256635693D-05 0.884773550155D-07  6 1 -1 25 23 2 -2 4 0.16614931D-01 0.17138006D+00 0.66122247D+05 0.66122247D+05 0.66122247D+05 0.11804449D+01  1  2 11  7  6  5       21 0.216897490972D-02 0.100000000000D+01
0.129571490050D-03 0.000000000000D+00 0.000000000000D+00 0.933256635693D-05 0.884773550155D-07  6 1 -1 25 23 4 -4 4 0.16614931D-01 0.17138006D+00 0.66122247D+05 0.66122247D+05 0.66122247D+05 0.11804449D+01  1  2 11  7  6  5       21 0.216897490972D-02 0.100000000000D+01
0.117963227283D-09 0.000000000000D+00 0.000000000000D+00 0.933295623930D-05 0.000000000000D+00  6 1 -1 25 23 3 -3 4 0.16614931D-01 0.17138006D+00 0.66122247D+05 0.66122247D+05 0.66122247D+05 0.11804449D+01  1  2 12  8  6  5       21 0.197465723477D-08 0.100000000000D+01
-.171077290119D-03 0.000000000000D+00 0.000000000000D+00 0.933256635693D-05 0.000000000000D+00  6 1 -1 25 23 3 -3 4 0.16614931D-01 0.17138006D+00 0.66161351D+05 0.66161351D+05 0.66161351D+05 0.11804202D+01  1  2  5  8  6  5       21 -.286349181203D-02 0.100000000000D+01
0.129567836556D-03 0.000000000000D+00 0.000000000000D+00 0.933256635693D-05 0.884748602425D-07  6 1 -1 25 23 3 -3 4 0.16614931D-01 0.17138006D+00 0.66122247D+05 0.66122247D+05 0.66122247D+05 0.11804449D+01  1  2 11  8  6  5       21 0.216891375170D-02 0.100000000000D+01
  </mgrwgt>
  </event>
  <event>
  5     66 -.47055975E-03 0.21490953E+02 0.75467711E-02 0.12314984E+00
        1 -1    0    0  502    0 0.00000000E+00 0.00000000E+00 0.44312953E+03 0.44312964E+03 0.32000000E+00 0.0000E+00 0.9000E+01
       -1 -1    0    0    0  501 0.00000000E+00 0.00000000E+00 -.49906445E+02 0.49907471E+02 0.32000000E+00 0.0000E+00 0.9000E+01
       25  1    1    2    0    0 -.10161506E+02 -.36964787E+02 0.88716081E+02 0.15800378E+03 0.12500000E+03 0.0000E+00 0.9000E+01
       23  1    1    2    0    0 -.95189247E+01 0.45577401E+02 0.29357607E+03 0.31091810E+03 0.91188000E+02 0.0000E+00 0.9000E+01
       21  1    1    2  502  501 0.19680431E+02 -.86126143E+01 0.10930936E+02 0.24115230E+02 0.75000000E+00 0.0000E+00 0.9000E+01
#aMCatNLO 1  0  0  5  1 0.17261047D+01 0.00000000D+00  -5  6  0 0.00000000D+00 0.00000000D+00 0.00000000D+00 0.00000000D+00 0.00000000D+00
  <mgrwgt>
 -.4473696470D+00   20    2    0
 0.148712140992369D+03 0.000000000000000D+00 0.000000000000000D+00 0.148712140992369D+03
 0.148712140992369D+03 -.000000000000000D+00 -.000000000000000D+00 -.148712140992369D+03
 0.144628737805404D+03 -.101656402882047D+02 -.369629774756736D+02 -.618293607669373D+02
 0.127272658389316D+03 -.952256279820103D+01 0.455789932055954D+02 0.755973174497752D+02
 0.255228857900183D+02 0.196882030864058D+02 -.861601572992180D+01 -.137679566828379D+02
 0.000000000000000D+00 0.000000000000000D+00 0.000000000000000D+00 0.000000000000000D+00
 0.148712140992369D+03 0.000000000000000D+00 0.000000000000000D+00 0.148712140992369D+03
 0.148712140992369D+03 -.000000000000000D+00 -.000000000000000D+00 -.148712140992369D+03
 0.144785669161274D+03 -.970809024679708D+01 -.371632120190036D+02 -.621493254240817D+02
 0.127013393841379D+03 -.912054896983988D+01 0.454030626011819D+02 0.753161892558772D+02
 0.237572047498267D+02 0.171878053015151D+02 -.851804095716551D+01 -.140152454382522D+02
 0.186801423225945D+01 0.164083391512194D+01 0.278190374987140D+00 0.848381606456652D+00
0.474253045252D-04 0.000000000000D+00 0.000000000000D+00 0.270395546733D-04 0.000000000000D+00  6 1 -1 25 23 21 21 2 0.68173861D-01 0.76780024D-02 0.16208553D+05 0.16208553D+05 0.16208553D+05 0.12440042D+01  1  2  2  3  6  5       21 0.342788828791D-01 0.100000000000D+01
0.826456567971D-05 0.250270207765D-05 -.182125656746D-06 0.270395546733D-04 0.000000000000D+00  6 1 -1 25 23 21 21 4 0.68173861D-01 0.76780024D-02 0.16208553D+05 0.16208553D+05 0.16208553D+05 0.12440042D+01  1  2  3  3  6  5       21 0.924443280499D-02 0.100000000000D+01
0.646017996155D-06 0.000000000000D+00 0.000000000000D+00 0.270395546733D-04 0.000000000000D+00  6 1 -1 25 23 21 21 4 0.68173861D-01 0.76780024D-02 0.16208553D+05 0.16208553D+05 0.16208553D+05 0.12440042D+01  1  2 15  3  6  5       21 0.722611470187D-03 0.100000000000D+01
0.204396622388D-08 0.000000000000D+00 0.000000000000D+00 0.270519168340D-04 0.000000000000D+00  6 1 -1 25 23 21 21 4 0.68173861D-01 0.76780024D-02 0.16114884D+05 0.16114884D+05 0.16114884D+05 0.12442886D+01  1  2 12  3  6  5       21 0.228803633092D-05 0.100000000000D+01
0.182257700603D-08 0.000000000000D+00 0.000000000000D+00 0.270519168340D-04 0.000000000000D+00  6 1 -1 25 23 21 21 4 0.68173861D-01 0.76780024D-02 0.16114884D+05 0.16114884D+05 0.16114884D+05 0.12442886D+01  1  2 12  3  6  5       21 0.204021101570D-05 0.100000000000D+01
-.478032011733D-03 0.000000000000D+00 0.000000000000D+00 0.270395546733D-04 0.000000000000D+00  6 1 -1 25 23 21 21 4 0.68173861D-01 0.76780024D-02 0.16208553D+05 0.16208553D+05 0.16208553D+05 0.12440042D+01  1  2  4  3  6  5       21 -.534708656494D+00 0.100000000000D+01
-.292181612290D-03 0.000000000000D+00 0.000000000000D+00 0.270395546733D-04 0.000000000000D+00  6 1 -1 25 23 21 21 4 0.68173861D-01 0.76780024D-02 0.16208553D+05 0.16208553D+05 0.16208553D+05 0.12440042D+01  1  2  5  3  6  5       21 -.326823379032D+00 0.100000000000D+01
0.336815877655D-03 0.000000000000D+00 -.000000000000D+00 0.270395546733D-04 0.000000000000D+00  6 1 -1 25 23 21 21 4 0.68173861D-01 0.76780024D-02 0.16208553D+05 0.16208553D+05 0.16208553D+05 0.12440042D+01  1  2  6  3  6  5       21 0.376749592091D+00 0.100000000000D+01
0.430718982619D-09 0.000000000000D+00 0.000000000000D+00 0.270519168340D-04 0.000000000000D+00  6 1 -1 25 23 1 -1 4 0.68173861D-01 0.76780024D-02 0.16114884D+05 0.16114884D+05 0.16114884D+05 0.12442886D+01  1  2 12  6  6  5       21 0.482151157457D-06 0.100000000000D+01
0.420726000251D-09 0.000000000000D+00 0.000000000000D+00 0.270519168340D-04 0.000000000000D+00  6 1 -1 25 23 1 -1 4 0.68173861D-01 0.76780024D-02 0.16114884D+05 0.16114884D+05 0.16114884D+05 0.12442886D+01  1  2 12  6  6  5       21 0.470964912574D-06 0.100000000000D+01
-.152903206832D-05 0.000000000000D+00 0.000000000000D+00 0.270395546733D-04 0.000000000000D+00  6 1 -1 25 23 1 -1 4 0.68173861D-01 0.76780024D-02 0.16208553D+05 0.16208553D+05 0.16208553D+05 0.12440042D+01  1  2  5  6  6  5       21 -.171031785094D-02 0.100000000000D+01
0.430718982619D-09 0.000000000000D+00 0.000000000000D+00 0.270519168340D-04 0.000000000000D+00  6 1 -1 25 23 2 -2 4 0.68173861D-01 0.76780024D-02 0.16114884D+05 0.16114884D+05 0.16114884D+05 0.12442886D+01  1  2 12  7  6  5       21 0.482151157457D-06 0.100000000000D+01
0.430718982619D-09 0.000000000000D+00 0.000000000000D+00 0.270519168340D-04 0.000000000000D+00  6 1 -1 25 23 4 -4 4 0.68173861D-01 0.76780024D-02 0.16114884D+05 0.16114884D+05 0.16114884D+05 0.12442886D+01  1  2 12  7  6  5       21 0.482151157457D-06 0.100000000000D+01
0.420726000251D-09 0.000000000000D+00 0.000000000000D+00 0.270519168340D-04 0.000000000000D+00  6 1 -1 25 23 2 -2 4 0.68173861D-01 0.76780024D-02 0.16114884D+05 0.16114884D+05 0.16114884D+05 0.12442886D+01  1  2 12  7  6  5       21 0.470964912574D-06 0.100000000000D+01
0.420726000251D-09 0.000000000000D+00 0.000000000000D+00 0.270519168340D-04 0.000000000000D+00  6 1 -1 25 23 4 -4 4 0.68173861D-01 0.76780024D-02 0.16114884D+05 0.16114884D+05 0.16114884D+05 0.12442886D+01  1  2 12  7  6  5       21 0.470964912574D-06 0.100000000000D+01
-.152903206832D-05 0.000000000000D+00 0.000000000000D+00 0.270395546733D-04 0.000000000000D+00  6 1 -1 25 23 2 -2 4 0.68173861D-01 0.76780024D-02 0.16208553D+05 0.16208553D+05 0.16208553D+05 0.12440042D+01  1  2  5  7  6  5       21 -.171031785094D-02 0.100000000000D+01
-.152903206832D-05 0.000000000000D+00 0.000000000000D+00 0.270395546733D-04 0.000000000000D+00  6 1 -1 25 23 4 -4 4 0.68173861D-01 0.76780024D-02 0.16208553D+05 0.16208553D+05 0.16208553D+05 0.12440042D+01  1  2  5  7  6  5       21 -.171031785094D-02 0.100000000000D+01
0.430718982619D-09 0.000000000000D+00 0.000000000000D+00 0.270519168340D-04 0.000000000000D+00  6 1 -1 25 23 3 -3 4 0.68173861D-01 0.76780024D-02 0.16114884D+05 0.16114884D+05 0.16114884D+05 0.12442886D+01  1  2 12  8  6  5       21 0.482151157457D-06 0.100000000000D+01
0.420726000251D-09 0.000000000000D+00 0.000000000000D+00 0.270519168340D-04 0.000000000000D+00  6 1 -1 25 23 3 -3 4 0.68173861D-01 0.76780024D-02 0.16114884D+05 0.16114884D+05 0.16114884D+05 0.12442886D+01  1  2 12  8  6  5       21 0.470964912574D-06 0.100000000000D+01
-.152903206832D-05 0.000000000000D+00 0.000000000000D+00 0.270395546733D-04 0.000000000000D+00  6 1 -1 25 23 3 -3 4 0.68173861D-01 0.76780024D-02 0.16208553D+05 0.16208553D+05 0.16208553D+05 0.12440042D+01  1  2  5  8  6  5       21 -.171031785094D-02 0.100000000000D+01
  </mgrwgt>
  </event>
  <event>
  5     66 0.47055975E-03 0.62514134E+02 0.75467711E-02 0.12109499E+00
        1 -1    0    0  502    0 0.00000000E+00 0.00000000E+00 0.29826437E+02 0.29828153E+02 0.32000000E+00 0.0000E+00 0.9000E+01
       -1 -1    0    0    0  501 -.00000000E+00 -.00000000E+00 -.73814130E+03 0.73814137E+03 0.32000000E+00 0.0000E+00 0.9000E+01
       25  1    1    2    0    0 0.21271849E+02 0.23374186E+02 -.29227268E+03 0.31944822E+03 0.12500000E+03 0.0000E+00 0.9000E+01
       23  1    1    2    0    0 -.35488718E+02 0.37498257E+02 -.27266545E+03 0.29210831E+03 0.91188000E+02 0.0000E+00 0.9000E+01
       21  1    1    2  502  501 0.14216868E+02 -.60872443E+02 -.14337673E+03 0.15641299E+03 0.75000000E+00 0.0000E+00 0.9000E+01
#aMCatNLO 1  0  0  5  1 0.24135006D+02 0.00000000D+00  -5  6  0 0.00000000D+00 0.00000000D+00 0.00000000D+00 0.00000000D+00 0.00000000D+00
  <mgrwgt>
 0.3565418884D-01   14    2    0
 0.148380627307284D+03 0.000000000000000D+00 0.000000000000000D+00 0.148380627307284D+03
 0.148380627307284D+03 -.000000000000000D+00 -.000000000000000D+00 -.148380627307284D+03
 0.129078478453733D+03 0.212714050326220D+02 0.233760889791374D+02 0.611059669004658D+01
 0.105126572284296D+03 -.354890796323471D+02 0.374998065919374D+02 -.840443862858106D+01
 0.625562038765385D+02 0.142176745997251D+02 -.608758955710748D+02 0.229384193853449D+01
 0.000000000000000D+00 -.000000000000000D+00 0.000000000000000D+00 0.000000000000000D+00
 0.148380627307284D+03 0.000000000000000D+00 0.000000000000000D+00 0.148380627307284D+03
 0.148380627307284D+03 -.000000000000000D+00 -.000000000000000D+00 -.148380627307284D+03
 0.128006789835648D+03 0.239018169825305D+02 0.121134396585068D+02 0.653498038261183D+01
 0.101505710959887D+03 -.333748860393070D+02 0.284474522505721D+02 -.806334023756922D+01
 0.251997258320406D+02 0.169041527238238D+02 -.418596921147066D+01 -.182141007041323D+02
 0.420490279869921D+02 -.743108366704726D+01 -.363749226976082D+02 0.197424605590897D+02
0.134790295106D-03 0.000000000000D+00 0.000000000000D+00 0.513457200597D-05 0.000000000000D+00  6 1 -1 25 23 21 21 2 0.45888200D-02 0.11356034D+00 0.21939235D+05 0.21939235D+05 0.21939235D+05 0.12294257D+01  1  2  2  3  6  5       21 0.282371584042D-01 0.100000000000D+01
-.296176979509D-05 0.711307929357D-05 -.517630224308D-06 0.513457200597D-05 0.000000000000D+00  6 1 -1 25 23 21 21 4 0.45888200D-02 0.11356034D+00 0.21939235D+05 0.21939235D+05 0.21939235D+05 0.12294257D+01  1  2  3  3  6  5       21 -.937817304291D-03 0.100000000000D+01
0.358891047785D-05 0.000000000000D+00 0.000000000000D+00 0.513457200597D-05 0.000000000000D+00  6 1 -1 25 23 21 21 4 0.45888200D-02 0.11356034D+00 0.21939235D+05 0.21939235D+05 0.21939235D+05 0.12294257D+01  1  2 15  3  6  5       21 0.113639566291D-02 0.100000000000D+01
0.183080269517D-04 0.000000000000D+00 0.000000000000D+00 0.516934728089D-05 0.000000000000D+00  6 1 -1 25 23 21 21 4 0.45888200D-02 0.11356034D+00 0.20102384D+05 0.20102384D+05 0.20102384D+05 0.12335820D+01  1  2 12  3  6  5       21 0.586641603464D-02 0.100000000000D+01
0.187176754340D-04 0.000000000000D+00 0.000000000000D+00 0.516934728089D-05 0.000000000000D+00  6 1 -1 25 23 21 21 4 0.45888200D-02 0.11356034D+00 0.20102384D+05 0.20102384D+05 0.20102384D+05 0.12335820D+01  1  2 12  3  6  5       21 0.599767913751D-02 0.100000000000D+01
-.244467417315D-04 0.000000000000D+00 0.000000000000D+00 0.513457200597D-05 0.000000000000D+00  6 1 -1 25 23 21 21 4 0.45888200D-02 0.11356034D+00 0.21939235D+05 0.21939235D+05 0.21939235D+05 0.12294257D+01  1  2  4  3  6  5       21 -.774083707226D-02 0.100000000000D+01
0.119598327462D-05 0.000000000000D+00 0.000000000000D+00 0.516934728089D-05 0.000000000000D+00  6 1 -1 25 23 1 -1 4 0.45888200D-02 0.11356034D+00 0.20102384D+05 0.20102384D+05 0.20102384D+05 0.12335820D+01  1  2 12  6  6  5       21 0.383227284836D-03 0.100000000000D+01
0.121890233915D-05 0.000000000000D+00 0.000000000000D+00 0.516934728089D-05 0.000000000000D+00  6 1 -1 25 23 1 -1 4 0.45888200D-02 0.11356034D+00 0.20102384D+05 0.20102384D+05 0.20102384D+05 0.12335820D+01  1  2 12  6  6  5       21 0.390571209335D-03 0.100000000000D+01
0.119598327462D-05 0.000000000000D+00 0.000000000000D+00 0.516934728089D-05 0.000000000000D+00  6 1 -1 25 23 2 -2 4 0.45888200D-02 0.11356034D+00 0.20102384D+05 0.20102384D+05 0.20102384D+05 0.12335820D+01  1  2 12  7  6  5       21 0.383227284836D-03 0.100000000000D+01
0.119598327462D-05 0.000000000000D+00 0.000000000000D+00 0.516934728089D-05 0.000000000000D+00  6 1 -1 25 23 4 -4 4 0.45888200D-02 0.11356034D+00 0.20102384D+05 0.20102384D+05 0.20102384D+05 0.12335820D+01  1  2 12  7  6  5       21 0.383227284836D-03 0.100000000000D+01
0.121890233915D-05 0.000000000000D+00 0.000000000000D+00 0.516934728089D-05 0.000000000000D+00  6 1 -1 25 23 2 -2 4 0.45888200D-02 0.11356034D+00 0.20102384D+05 0.20102384D+05 0.20102384D+05 0.12335820D+01  1  2 12  7  6  5       21 0.390571209335D-03 0.100000000000D+01
0.121890233915D-05 0.000000000000D+00 0.000000000000D+00 0.516934728089D-05 0.000000000000D+00  6 1 -1 25 23 4 -4 4 0.45888200D-02 0.11356034D+00 0.20102384D+05 0.20102384D+05 0.20102384D+05 0.12335820D+01  1  2 12  7  6  5       21 0.390571209335D-03 0.100000000000D+01
0.119598327462D-05 0.000000000000D+00 0.000000000000D+00 0.516934728089D-05 0.000000000000D+00  6 1 -1 25 23 3 -3 4 0.45888200D-02 0.11356034D+00 0.20102384D+05 0.20102384D+05 0.20102384D+05 0.12335820D+01  1  2 12  8  6  5       21 0.383227284836D-03 0.100000000000D+01
0.121890233915D-05 0.000000000000D+00 0.000000000000D+00 0.516934728089D-05 0.000000000000D+00  6 1 -1 25 23 3 -3 4 0.45888200D-02 0.11356034D+00 0.20102384D+05 0.20102384D+05 0.20102384D+05 0.12335820D+01  1  2 12  8  6  5       21 0.390571209335D-03 0.100000000000D+01
  </mgrwgt>
  </event>
  <event>
  5     66 0.47055975E-03 0.31913064E+02 0.75467711E-02 0.11868311E+00
        1 -1    0    0  502    0 0.00000000E+00 0.00000000E+00 0.61643528E+02 0.61644359E+02 0.32000000E+00 0.0000E+00 0.9000E+01
       -1 -1    0    0    0  501 -.00000000E+00 -.00000000E+00 -.69894121E+03 0.69894129E+03 0.32000000E+00 0.0000E+00 0.9000E+01
       25  1    1    2    0    0 -.82643161E+01 0.10926595E+03 -.10084524E+03 0.19442765E+03 0.12500000E+03 0.0000E+00 0.9000E+01
       23  1    1    2    0    0 0.23921145E+02 -.81465236E+02 -.50910187E+03 0.52412668E+03 0.91188000E+02 0.0000E+00 0.9000E+01
       21  1    1    2  502  501 -.15656829E+02 -.27800713E+02 -.27350572E+02 0.42031324E+02 0.75000000E+00 0.0000E+00 0.9000E+01
#aMCatNLO 1  0  0  5  2 0.79221549D+01 0.00000000D+00  -5  6  0 0.00000000D+00 0.00000000D+00 0.00000000D+00 0.00000000D+00 0.00000000D+00
  <mgrwgt>
 0.6249109860D-01   25    2    0
 0.207570580816062D+03 0.000000000000000D+00 0.000000000000000D+00 0.207570580816062D+03
 0.207570580816062D+03 -.000000000000000D+00 -.000000000000000D+00 -.207570580816062D+03
 0.201403126483553D+03 -.826257345047188D+01 0.109269042694480D+03 0.113711149611449D+03
 0.178719382142062D+03 0.239226909841325D+02 -.814624897538634D+02 -.128128583182753D+03
 0.350186530065099D+02 -.156601175336606D+02 -.278065529406167D+02 0.144174335713041D+02
 0.000000000000000D+00 -.000000000000000D+00 0.000000000000000D+00 0.000000000000000D+00
 0.207570580816062D+03 0.000000000000000D+00 0.000000000000000D+00 0.207570580816062D+03
 0.207570580816062D+03 -.000000000000000D+00 -.000000000000000D+00 -.207570580816062D+03
 0.200991909942876D+03 -.931742534246680D+01 0.107396017481469D+03 0.114682295392936D+03
 0.178746153199104D+03 0.229856187984855D+02 -.831263819490123D+02 -.127265870884519D+03
 0.106398739100674D+02 0.380093060479036D+01 -.810031940586757D+01 0.575714068636740D+01
 0.247632245800778D+02 -.174691240608091D+02 -.161693161265889D+02 0.682643480521570D+01
0.517780416351D-03 0.000000000000D+00 0.000000000000D+00 0.756688356456D-05 0.000000000000D+00  6 1 -1 25 23 21 21 2 0.94836892D-02 0.10752949D+00 0.26040097D+05 0.26040097D+05 0.26040097D+05 0.12214042D+01  1  2  2  3  6  5       21 0.453810127548D-01 0.100000000000D+01
0.705040650903D-04 0.273240232560D-04 -.198841313350D-05 0.756688356456D-05 0.000000000000D+00  6 1 -1 25 23 21 21 4 0.94836892D-02 0.10752949D+00 0.26040097D+05 0.26040097D+05 0.26040097D+05 0.12214042D+01  1  2  3  3  6  5       21 0.921852783097D-02 0.100000000000D+01
0.896272115294D-05 0.000000000000D+00 0.000000000000D+00 0.756688356456D-05 0.000000000000D+00  6 1 -1 25 23 21 21 4 0.94836892D-02 0.10752949D+00 0.26040097D+05 0.26040097D+05 0.26040097D+05 0.12214042D+01  1  2 15  3  6  5       21 0.117189121342D-02 0.100000000000D+01
0.771412622503D-04 0.000000000000D+00 0.000000000000D+00 0.756479161897D-05 0.000000000000D+00  6 1 -1 25 23 21 21 4 0.94836892D-02 0.10752949D+00 0.26135173D+05 0.26135173D+05 0.26135173D+05 0.12212354D+01  1  2 12  3  6  5       21 0.100809544442D-01 0.100000000000D+01
0.803254599845D-04 0.000000000000D+00 0.000000000000D+00 0.756479161897D-05 0.000000000000D+00  6 1 -1 25 23 21 21 4 0.94836892D-02 0.10752949D+00 0.26135173D+05 0.26135173D+05 0.26135173D+05 0.12212354D+01  1  2 12  3  6  5       21 0.104970709474D-01 0.100000000000D+01
-.680765692274D-03 0.000000000000D+00 0.000000000000D+00 0.756688356456D-05 0.000000000000D+00  6 1 -1 25 23 21 21 4 0.94836892D-02 0.10752949D+00 0.26040097D+05 0.26040097D+05 0.26040097D+05 0.12214042D+01  1  2  4  3  6  5       21 -.890112856976D-01 0.100000000000D+01
-.115378581270D-03 0.000000000000D+00 0.000000000000D+00 0.756688356456D-05 0.000000000000D+00  6 1 -1 25 23 21 21 4 0.94836892D-02 0.10752949D+00 0.26040097D+05 0.26040097D+05 0.26040097D+05 0.12214042D+01  1  2  5  3  6  5       21 -.150859480396D-01 0.100000000000D+01
0.706685712281D-03 0.000000000000D+00 -.000000000000D+00 0.756688356456D-05 0.000000000000D+00  6 1 -1 25 23 21 21 4 0.94836892D-02 0.10752949D+00 0.26040097D+05 0.26040097D+05 0.26040097D+05 0.12214042D+01  1  2  6  3  6  5       21 0.924003729156D-01 0.100000000000D+01
0.848609187122D-06 0.000000000000D+00 0.000000000000D+00 0.756688356456D-05 0.723641790014D-06  6 1 -1 25 23 21 21 4 0.94836892D-02 0.10752949D+00 0.26135173D+05 0.26135173D+05 0.26135173D+05 0.12212354D+01  1  2 11  3  6  5       21 0.110897725896D-03 0.100000000000D+01
0.801329743097D-05 0.000000000000D+00 0.000000000000D+00 0.756479161897D-05 0.000000000000D+00  6 1 -1 25 23 1 -1 4 0.94836892D-02 0.10752949D+00 0.26135173D+05 0.26135173D+05 0.26135173D+05 0.12212354D+01  1  2 12  6  6  5       21 0.104719165843D-02 0.100000000000D+01
0.826329842094D-05 0.000000000000D+00 0.000000000000D+00 0.756479161897D-05 0.000000000000D+00  6 1 -1 25 23 1 -1 4 0.94836892D-02 0.10752949D+00 0.26135173D+05 0.26135173D+05 0.26135173D+05 0.12212354D+01  1  2 12  6  6  5       21 0.107986222302D-02 0.100000000000D+01
-.207486779169D-04 0.000000000000D+00 0.000000000000D+00 0.756688356456D-05 0.000000000000D+00  6 1 -1 25 23 1 -1 4 0.94836892D-02 0.10752949D+00 0.26040097D+05 0.26040097D+05 0.26040097D+05 0.12214042D+01  1  2  5  6  6  5       21 -.271292534108D-02 0.100000000000D+01
0.132936837415D-06 0.000000000000D+00 0.000000000000D+00 0.756688356456D-05 0.335888097870D-07  6 1 -1 25 23 1 -1 4 0.94836892D-02 0.10752949D+00 0.26135173D+05 0.26135173D+05 0.26135173D+05 0.12212354D+01  1  2 11  6  6  5       21 0.173724173398D-04 0.100000000000D+01
0.801329743097D-05 0.000000000000D+00 0.000000000000D+00 0.756479161897D-05 0.000000000000D+00  6 1 -1 25 23 2 -2 4 0.94836892D-02 0.10752949D+00 0.26135173D+05 0.26135173D+05 0.26135173D+05 0.12212354D+01  1  2 12  7  6  5       21 0.104719165843D-02 0.100000000000D+01
0.801329743097D-05 0.000000000000D+00 0.000000000000D+00 0.756479161897D-05 0.000000000000D+00  6 1 -1 25 23 4 -4 4 0.94836892D-02 0.10752949D+00 0.26135173D+05 0.26135173D+05 0.26135173D+05 0.12212354D+01  1  2 12  7  6  5       21 0.104719165843D-02 0.100000000000D+01
0.826329842094D-05 0.000000000000D+00 0.000000000000D+00 0.756479161897D-05 0.000000000000D+00  6 1 -1 25 23 2 -2 4 0.94836892D-02 0.10752949D+00 0.26135173D+05 0.26135173D+05 0.26135173D+05 0.12212354D+01  1  2 12  7  6  5       21 0.107986222302D-02 0.100000000000D+01
0.826329842094D-05 0.000000000000D+00 0.000000000000D+00 0.756479161897D-05 0.000000000000D+00  6 1 -1 25 23 4 -4 4 0.94836892D-02 0.10752949D+00 0.26135173D+05 0.26135173D+05 0.26135173D+05 0.12212354D+01  1  2 12  7  6  5       21 0.107986222302D-02 0.100000000000D+01
-.207486779169D-04 0.000000000000D+00 0.000000000000D+00 0.756688356456D-05 0.000000000000D+00  6 1 -1 25 23 2 -2 4 0.94836892D-02 0.10752949D+00 0.26040097D+05 0.26040097D+05 0.26040097D+05 0.12214042D+01  1  2  5  7  6  5       21 -.271292534108D-02 0.100000000000D+01
-.207486779169D-04 0.000000000000D+00 0.000000000000D+00 0.756688356456D-05 0.000000000000D+00  6 1 -1 25 23 4 -4 4 0.94836892D-02 0.10752949D+00 0.26040097D+05 0.26040097D+05 0.26040097D+05 0.12214042D+01  1  2  5  7  6  5       21 -.271292534108D-02 0.100000000000D+01
0.137001327459D-06 0.000000000000D+00 0.000000000000D+00 0.756688356456D-05 0.324638673926D-07  6 1 -1 25 23 2 -2 4 0.94836892D-02 0.10752949D+00 0.26135173D+05 0.26135173D+05 0.26135173D+05 0.12212354D+01  1  2 11  7  6  5       21 0.179035719746D-04 0.100000000000D+01
0.137001327459D-06 0.000000000000D+00 0.000000000000D+00 0.756688356456D-05 0.324638673926D-07  6 1 -1 25 23 4 -4 4 0.94836892D-02 0.10752949D+00 0.26135173D+05 0.26135173D+05 0.26135173D+05 0.12212354D+01  1  2 11  7  6  5       21 0.179035719746D-04 0.100000000000D+01
0.801329743097D-05 0.000000000000D+00 0.000000000000D+00 0.756479161897D-05 0.000000000000D+00  6 1 -1 25 23 3 -3 4 0.94836892D-02 0.10752949D+00 0.26135173D+05 0.26135173D+05 0.26135173D+05 0.12212354D+01  1  2 12  8  6  5       21 0.104719165843D-02 0.100000000000D+01
0.826329842094D-05 0.000000000000D+00 0.000000000000D+00 0.756479161897D-05 0.000000000000D+00  6 1 -1 25 23 3 -3 4 0.94836892D-02 0.10752949D+00 0.26135173D+05 0.26135173D+05 0.26135173D+05 0.12212354D+01  1  2 12  8  6  5       21 0.107986222302D-02 0.100000000000D+01
-.207486779169D-04 0.000000000000D+00 0.000000000000D+00 0.756688356456D-05 0.000000000000D+00  6 1 -1 25 23 3 -3 4 0.94836892D-02 0.10752949D+00 0.26040097D+05 0.26040097D+05 0.26040097D+05 0.12214042D+01  1  2  5  8  6  5       21 -.271292534108D-02 0.100000000000D+01
0.137056488318D-06 0.000000000000D+00 0.000000000000D+00 0.756688356456D-05 0.324769383230D-07  6 1 -1 25 23 3 -3 4 0.94836892D-02 0.10752949D+00 0.26135173D+05 0.26135173D+05 0.26135173D+05 0.12212354D+01  1  2 11  8  6  5       21 0.179107804917D-04 0.100000000000D+01
  </mgrwgt>
  </event>
  <event>
  5     66 0.47055975E-03 0.26415960E+02 0.75467711E-02 0.11218068E+00
        1 -1    0    0  502    0 0.00000000E+00 0.00000000E+00 0.74037937E+02 0.74038629E+02 0.32000000E+00 0.0000E+00 0.9000E+01
       -1 -1    0    0    0  501 0.00000000E+00 0.00000000E+00 -.30575931E+03 0.30575948E+03 0.32000000E+00 0.0000E+00 0.9000E+01
       25  1    1    2    0    0 -.19771249E+02 -.84005006E+02 -.90552355E+02 0.17684025E+03 0.12500000E+03 0.0000E+00 0.9000E+01
       23  1    1    2    0    0 -.56460177E+01 0.76845434E+02 -.11683609E+03 0.16704198E+03 0.91188000E+02 0.0000E+00 0.9000E+01
       21  1    1    2  502  501 0.25417267E+02 0.71595721E+01 -.24332922E+02 0.35915881E+02 0.75000000E+00 0.0000E+00 0.9000E+01
#aMCatNLO 1  0  0  1  2 0.14351443D+03 0.00000000D+00  -5  6  0 0.00000000D+00 0.00000000D+00 0.00000000D+00 0.00000000D+00 0.00000000D+00
  <mgrwgt>
 0.4553107550D-01    5    4    0
 0.150459135586703D+03 0.000000000000000D+00 0.000000000000000D+00 0.150459135586703D+03
 0.150459135586703D+03 0.000000000000000D+00 0.000000000000000D+00 -.150459135586703D+03
 0.153467383861538D+03 -.197764074465889D+02 -.840064587279963D+02 0.218871311457784D+02
 0.120858802356281D+03 -.565008008890041D+01 0.768442892791011D+02 -.188316372940162D+02
 0.265920849555885D+02 0.254264875354893D+02 0.716216944889526D+01 -.305549385176218D+01
 0.000000000000000D+00 0.000000000000000D+00 -.000000000000000D+00 0.000000000000000D+00
 0.341535951033545D+03 0.000000000000000D+00 0.000000000000000D+00 0.341535951033545D+03
 0.196144574710030D+03 0.000000000000000D+00 0.000000000000000D+00 -.196144574710030D+03
 0.157613658360259D+03 -.802323841679010D+02 -.479664812410336D+02 0.218871311457784D+02
 0.154980772534431D+03 -.592571748810016D+02 0.108801402441872D+03 -.188316372940162D+02
 0.207945279901732D+02 0.162172989951338D+02 0.126520972553317D+02 -.305549385176218D+01
 0.204291566858711D+03 0.123272260053769D+03 -.734870184561700D+02 0.145391376323514D+03
 0.150459135586703D+03 0.000000000000000D+00 0.000000000000000D+00 0.150459135586703D+03
 0.150459135586703D+03 0.000000000000000D+00 0.000000000000000D+00 -.150459135586703D+03
 0.153467383861538D+03 -.197764074465889D+02 -.840064587279963D+02 0.218871311457784D+02
 0.120858802356281D+03 -.565008008890041D+01 0.768442892791011D+02 -.188316372940162D+02
 0.000000000000000D+00 0.000000000000000D+00 -.000000000000000D+00 0.000000000000000D+00
 0.265920849555885D+02 0.254264875354893D+02 0.716216944889526D+01 -.305549385176218D+01
 0.341535951033545D+03 0.000000000000000D+00 0.000000000000000D+00 0.341535951033545D+03
 0.196144574710030D+03 0.000000000000000D+00 0.000000000000000D+00 -.196144574710030D+03
 0.157613658360259D+03 -.802323841679010D+02 -.479664812410336D+02 0.218871311457784D+02
 0.154980772534431D+03 -.592571748810016D+02 0.108801402441872D+03 -.188316372940162D+02
 0.204291566858711D+03 0.123272260053769D+03 -.734870184561700D+02 0.145391376323514D+03
 0.207945279901732D+02 0.162172989951338D+02 0.126520972553317D+02 -.305549385176218D+01
0.125602327640D-03 0.000000000000D+00 0.000000000000D+00 0.214150564018D-04 0.000000000000D+00  6 1 -1 25 23 21 21 2 0.11390518D-01 0.47039960D-01 0.22155912D+05 0.22155912D+05 0.22155912D+05 0.12289612D+01  1  2  2  1  6  1        1 0.456959503733D-01 0.100000000000D+01
0.242295169643D-04 0.662821692953D-05 -.482346009989D-06 0.214150564018D-04 0.000000000000D+00  6 1 -1 25 23 21 21 4 0.11390518D-01 0.47039960D-01 0.22155912D+05 0.22155912D+05 0.22155912D+05 0.12289612D+01  1  2  3  1  6  1        1 0.133137734103D-01 0.100000000000D+01
0.807579342640D-06 0.000000000000D+00 0.000000000000D+00 0.214150564018D-04 0.000000000000D+00  6 1 -1 25 23 21 21 4 0.11390518D-01 0.47039960D-01 0.22155912D+05 0.22155912D+05 0.22155912D+05 0.12289612D+01  1  2 15  1  6  1        1 0.443753311079D-03 0.100000000000D+01
-.719910336922D-04 0.000000000000D+00 -.809738833635D-04 0.214150564018D-04 0.000000000000D+00  6 1 -1 25 23 21 21 4 0.33011823D-01 0.47039960D-01 0.22155912D+05 0.22155912D+05 0.22155912D+05 0.12289612D+01  1  2  5  1  6  1        1 -.101496106422D-01 0.100000000000D+01
-.435992170019D-05 0.000000000000D+00 -.973948365776D-05 0.214150564018D-04 0.000000000000D+00  6 21 -1 25 23 -1 21 4 0.33011823D-01 0.47039960D-01 0.22155912D+05 0.22155912D+05 0.22155912D+05 0.12289612D+01  3  4  5  4  5  1        1 -.377279095244D-02 0.100000000000D+01
  </mgrwgt>
  </event>
  <event>
  6     66 -.47055975E-03 0.17880616E+02 0.75467711E-02 0.11903653E+00
        1 -1    0    0  502    0 0.00000000E+00 0.00000000E+00 0.16475044E+03 0.16475075E+03 0.32000000E+00 0.0000E+00 0.9000E+01
       -1 -1    0    0    0  501 -.00000000E+00 -.00000000E+00 -.21130692E+03 0.21130716E+03 0.32000000E+00 0.0000E+00 0.9000E+01
       25  1    1    2    0    0 0.91291393E+01 -.78512964E+02 -.11993481E+03 0.19041267E+03 0.12500000E+03 0.0000E+00 0.9000E+01
       23  1    1    2    0    0 0.83905363E+01 0.96154242E+02 0.66190204E+02 0.14836588E+03 0.91188000E+02 0.0000E+00 0.9000E+01
       21  1    1    2  502  503 -.70450588E+01 -.23382220E+02 0.30784884E+01 0.24625204E+02 0.75000000E+00 0.0000E+00 0.9000E+01
       21  1    1    2  503  501 -.10474617E+02 0.57409419E+01 0.41096379E+01 0.12654155E+02 0.75000000E+00 0.0000E+00 0.9000E+01
#aMCatNLO 2  0  0  5  1 0.12374707D+02 0.00000000D+00  -5  6  0 0.00000000D+00 0.00000000D+00 0.00000000D+00 0.00000000D+00 0.00000000D+00
  <mgrwgt>
 -.1741219205D-01    4    2    0
 0.186582451591126D+03 0.000000000000000D+00 0.000000000000000D+00 0.186582451591126D+03
 0.186582451591126D+03 -.000000000000000D+00 -.000000000000000D+00 -.186582451591126D+03
 0.176928098068822D+03 0.124639810293905D+02 -.751549755649732D+02 -.993726859402428D+02
 0.158736258988017D+03 0.113734404462740D+02 0.991578505080175D+02 0.831884253280204D+02
 0.375005461254130D+02 -.238374214756645D+02 -.240028749430444D+02 0.161842606122224D+02
 0.000000000000000D+00 0.000000000000000D+00 0.000000000000000D+00 0.000000000000000D+00
 0.186582451591126D+03 0.000000000000000D+00 0.000000000000000D+00 0.186582451591126D+03
 0.186582451591126D+03 -.000000000000000D+00 -.000000000000000D+00 -.186582451591126D+03
 0.176926985281021D+03 0.907171111022440D+01 -.785707909343461D+02 -.970695265781937D+02
 0.157758717420089D+03 0.833932722152501D+01 0.961026777674996D+02 0.852484165567889D+02
 0.247411636580214D+02 -.643221665905280D+01 -.231772368927608D+02 0.579374300611001D+01
 0.137380368231216D+02 -.109788216726967D+02 0.564535005960723D+01 0.602736701529477D+01
-.602801848671D-04 0.000000000000D+00 0.000000000000D+00 0.852505012111D-05 0.000000000000D+00  6 1 -1 25 23 21 21 4 0.25346264D-01 0.32508799D-01 0.25132062D+05 0.25132062D+05 0.25132062D+05 0.12230524D+01  1  2 13  3  6  5       21 -.221992636049D-01 0.100000000000D+01
-.663385602071D-04 0.000000000000D+00 0.000000000000D+00 0.852505012111D-05 0.000000000000D+00  6 1 -1 25 23 21 21 4 0.25346264D-01 0.32508799D-01 0.25132062D+05 0.25132062D+05 0.25132062D+05 0.12230524D+01  1  2 13  3  6  5       21 -.244303694232D-01 0.100000000000D+01
-.101535419076D-04 0.000000000000D+00 0.000000000000D+00 0.853185083778D-05 0.000000000000D+00  6 1 -1 25 23 21 21 4 0.25346264D-01 0.32508799D-01 0.24870175D+05 0.24870175D+05 0.24870175D+05 0.12235401D+01  1  2  8  3  6  5       21 -.374457411845D-02 0.100000000000D+01
0.895055078940D-04 0.000000000000D+00 0.000000000000D+00 0.853185083778D-05 0.290995624510D-06  6 1 -1 25 23 21 21 4 0.25346264D-01 0.32508799D-01 0.25132062D+05 0.25132062D+05 0.25132062D+05 0.12230524D+01  1  2  1  3  6  5       21 0.329620151001D-01 0.100000000000D+01
  </mgrwgt>
  </event>
  <event>
  5     66 0.47055975E-03 0.21276775E+02 0.75467711E-02 0.12442777E+00
        1 -1    0    0  502    0 0.00000000E+00 0.00000000E+00 0.34721198E+02 0.34722673E+02 0.32000000E+00 0.0000E+00 0.9000E+01
       -1 -1    0    0    0  501 -.00000000E+00 -.00000000E+00 -.53360376E+03 0.53360386E+03 0.32000000E+00 0.0000E+00 0.9000E+01
       25  1    1    2    0    0 -.77277320E+01 0.71822162E+01 -.23097765E+03 0.26284402E+03 0.12500000E+03 0.0000E+00 0.9000E+01
       23  1    1    2    0    0 -.66458034E+01 0.85023092E+01 -.26892581E+03 0.28417037E+03 0.91188000E+02 0.0000E+00 0.9000E+01
       21  1    1    2  502  501 0.14373535E+02 -.15684525E+02 0.10208958E+01 0.21312147E+02 0.75000000E+00 0.0000E+00 0.9000E+01
#aMCatNLO 1  0  0  5  2 0.34283462D+00 0.00000000D+00  -5  6  0 0.00000000D+00 0.00000000D+00 0.00000000D+00 0.00000000D+00 0.00000000D+00
  <mgrwgt>
 0.9670944162D-01   15    2    0
 0.136116892529197D+03 0.000000000000000D+00 0.000000000000000D+00 0.136116892529197D+03
 0.136116892529197D+03 -.000000000000000D+00 -.000000000000000D+00 -.136116892529197D+03
 0.125445627229779D+03 -.772859883797068D+01 0.718316210388645D+01 -.525674104126452D+00
 0.100426225952899D+03 -.664649732884915D+01 0.850306643748021D+01 -.406656790126530D+02
 0.463619318757158D+02 0.143750961668198D+02 -.156862285413666D+02 0.411913531167794D+02
 0.000000000000000D+00 0.000000000000000D+00 -.000000000000000D+00 0.000000000000000D+00
 0.136116892529197D+03 0.000000000000000D+00 0.000000000000000D+00 0.136116892529197D+03
 0.136116892529197D+03 -.000000000000000D+00 -.000000000000000D+00 -.136116892529197D+03
 0.125445309377544D+03 -.772626175631898D+01 0.718061186029274D+01 -.518977275495813D+00
 0.100423758533035D+03 -.664462638516408D+01 0.850102484764377D+01 -.406603178866404D+02
 0.424319995931998D+02 0.134050840644395D+02 -.141203939378725D+02 0.377013631814807D+02
 0.393271755461499D+01 0.965804077043529D+00 -.156124277006395D+01 0.347793198065547D+01
0.352672798107D-04 0.000000000000D+00 0.000000000000D+00 0.460516412738D-04 0.000000000000D+00  6 1 -1 25 23 21 21 2 0.53418436D-02 0.82093008D-01 0.14226019D+05 0.14226019D+05 0.14226019D+05 0.12504540D+01  1  2  2  3  6  5       21 0.124542128531D-01 0.100000000000D+01
0.438917007117D-05 0.186110548660D-05 -.135435640561D-06 0.460516412738D-04 0.000000000000D+00  6 1 -1 25 23 21 21 4 0.53418436D-02 0.82093008D-01 0.14226019D+05 0.14226019D+05 0.14226019D+05 0.12504540D+01  1  2  3  3  6  5       21 0.242360690806D-02 0.100000000000D+01
0.964353837147D-06 0.000000000000D+00 0.000000000000D+00 0.460516412738D-04 0.000000000000D+00  6 1 -1 25 23 21 21 4 0.53418436D-02 0.82093008D-01 0.14226019D+05 0.14226019D+05 0.14226019D+05 0.12504540D+01  1  2 15  3  6  5       21 0.532495798436D-03 0.100000000000D+01
-.305077405938D-01 0.000000000000D+00 0.000000000000D+00 0.460516412738D-04 0.000000000000D+00  6 1 -1 25 23 21 21 4 0.53418436D-02 0.82093008D-01 0.14226019D+05 0.14226019D+05 0.14226019D+05 0.12504540D+01  1  2  4  3  6  5       21 -.168457292958D+02 0.100000000000D+01
-.277481305387D-01 0.000000000000D+00 0.000000000000D+00 0.460516412738D-04 0.000000000000D+00  6 1 -1 25 23 21 21 4 0.53418436D-02 0.82093008D-01 0.14226019D+05 0.14226019D+05 0.14226019D+05 0.12504540D+01  1  2  5  3  6  5       21 -.153219309730D+02 0.100000000000D+01
0.312363717829D-01 0.000000000000D+00 -.000000000000D+00 0.460516412738D-04 0.000000000000D+00  6 1 -1 25 23 21 21 4 0.53418436D-02 0.82093008D-01 0.14226019D+05 0.14226019D+05 0.14226019D+05 0.12504540D+01  1  2  6  3  6  5       21 0.172480640322D+02 0.100000000000D+01
0.271704548926D-01 0.000000000000D+00 0.000000000000D+00 0.460516412738D-04 0.304117530880D-02  6 1 -1 25 23 21 21 4 0.53418436D-02 0.82093008D-01 0.14229413D+05 0.14229413D+05 0.14229413D+05 0.12504421D+01  1  2 11  3  6  5       21 0.150024730842D+02 0.100000000000D+01
-.211386742320D-03 0.000000000000D+00 0.000000000000D+00 0.460516412738D-04 0.000000000000D+00  6 1 -1 25 23 1 -1 4 0.53418436D-02 0.82093008D-01 0.14226019D+05 0.14226019D+05 0.14226019D+05 0.12504540D+01  1  2  5  6  6  5       21 -.116723289517D+00 0.100000000000D+01
0.210752500210D-03 0.000000000000D+00 0.000000000000D+00 0.460516412738D-04 0.467952185532D-04  6 1 -1 25 23 1 -1 4 0.53418436D-02 0.82093008D-01 0.14229413D+05 0.14229413D+05 0.14229413D+05 0.12504421D+01  1  2 11  6  6  5       21 0.116369369756D+00 0.100000000000D+01
-.211386742320D-03 0.000000000000D+00 0.000000000000D+00 0.460516412738D-04 0.000000000000D+00  6 1 -1 25 23 2 -2 4 0.53418436D-02 0.82093008D-01 0.14226019D+05 0.14226019D+05 0.14226019D+05 0.12504540D+01  1  2  5  7  6  5       21 -.116723289517D+00 0.100000000000D+01
-.211386742320D-03 0.000000000000D+00 0.000000000000D+00 0.460516412738D-04 0.000000000000D+00  6 1 -1 25 23 4 -4 4 0.53418436D-02 0.82093008D-01 0.14226019D+05 0.14226019D+05 0.14226019D+05 0.12504540D+01  1  2  5  7  6  5       21 -.116723289517D+00 0.100000000000D+01
0.210654461621D-03 0.000000000000D+00 0.000000000000D+00 0.460516412738D-04 0.467705963772D-04  6 1 -1 25 23 2 -2 4 0.53418436D-02 0.82093008D-01 0.14229413D+05 0.14229413D+05 0.14229413D+05 0.12504421D+01  1  2 11  7  6  5       21 0.116315236643D+00 0.100000000000D+01
0.210654461621D-03 0.000000000000D+00 0.000000000000D+00 0.460516412738D-04 0.467705963772D-04  6 1 -1 25 23 4 -4 4 0.53418436D-02 0.82093008D-01 0.14229413D+05 0.14229413D+05 0.14229413D+05 0.12504421D+01  1  2 11  7  6  5       21 0.116315236643D+00 0.100000000000D+01
-.211386742320D-03 0.000000000000D+00 0.000000000000D+00 0.460516412738D-04 0.000000000000D+00  6 1 -1 25 23 3 -3 4 0.53418436D-02 0.82093008D-01 0.14226019D+05 0.14226019D+05 0.14226019D+05 0.12504540D+01  1  2  5  8  6  5       21 -.116723289517D+00 0.100000000000D+01
0.210655108053D-03 0.000000000000D+00 0.000000000000D+00 0.460516412738D-04 0.467707399013D-04  6 1 -1 25 23 3 -3 4 0.53418436D-02 0.82093008D-01 0.14229413D+05 0.14229413D+05 0.14229413D+05 0.12504421D+01  1  2 11  8  6  5       21 0.116315593578D+00 0.100000000000D+01
  </mgrwgt>
  </event>
  <event>
  5     66 0.47055975E-03 0.24564487E+02 0.75467711E-02 0.12201959E+00
        1 -1    0    0  502    0 0.00000000E+00 0.00000000E+00 0.80529280E+02 0.80529915E+02 0.32000000E+00 0.0000E+00 0.9000E+01
       -1 -1    0    0    0  501 -.00000000E+00 -.00000000E+00 -.32791033E+03 0.32791049E+03 0.32000000E+00 0.0000E+00 0.9000E+01
       25  1    1    2    0    0 -.40864837E+02 -.11152643E+01 -.24634650E+03 0.27925397E+03 0.12500000E+03 0.0000E+00 0.9000E+01
       23  1    1    2    0    0 0.16388003E+02 0.69406893E+01 -.23072741E+02 0.95730573E+02 0.91188000E+02 0.0000E+00 0.9000E+01
       21  1    1    2  502  501 0.24476833E+02 -.58254250E+01 0.22038187E+02 0.33455868E+02 0.75000000E+00 0.0000E+00 0.9000E+01
#aMCatNLO 1  0  0  5  2 0.17807576D+02 0.00000000D+00  -5  6  0 0.00000000D+00 0.00000000D+00 0.00000000D+00 0.00000000D+00 0.00000000D+00
  <mgrwgt>
 0.9071893857D-01    9    2    0
 0.162500907047854D+03 0.000000000000000D+00 0.000000000000000D+00 0.162500907047854D+03
 0.162500907047854D+03 -.000000000000000D+00 -.000000000000000D+00 -.162500907047854D+03
 0.163437998522669D+03 -.408658373839128D+02 -.111502613138197D+01 -.970346299664912D+02
 0.102744829821773D+03 0.163873742015695D+02 0.694083901564372D+01 0.438694361901503D+02
 0.588189857512661D+02 0.244784631823434D+02 -.582581288426175D+01 0.531651937763409D+02
 0.000000000000000D+00 0.000000000000000D+00 0.000000000000000D+00 -.000000000000000D+00
 0.162500907047854D+03 0.000000000000000D+00 0.000000000000000D+00 0.162500907047854D+03
 0.162500907047854D+03 -.000000000000000D+00 -.000000000000000D+00 -.162500907047854D+03
 0.158148660697763D+03 -.373393323201123D+02 -.195432549768870D+01 -.893753531698400D+02
 0.105302147723890D+03 0.186688081441394D+02 0.639786345552753D+01 0.488245216765686D+02
 0.187852488875308D+02 -.127429728514679D+02 -.735643565098861D+01 0.116784019962533D+02
 0.427657567865233D+02 0.314134970274407D+02 0.291289769314978D+01 0.288724294970180D+02
0.436372809200D-03 0.000000000000D+00 0.000000000000D+00 0.223891152292D-04 0.000000000000D+00  6 1 -1 25 23 21 21 2 0.12389181D-01 0.50447805D-01 0.15573272D+05 0.15573272D+05 0.15573272D+05 0.12459699D+01  1  2  2  3  6  5       21 0.127722994148D+00 0.100000000000D+01
0.370353602151D-04 0.230280258008D-04 -.167578648693D-05 0.223891152292D-04 0.000000000000D+00  6 1 -1 25 23 21 21 4 0.12389181D-01 0.50447805D-01 0.15573272D+05 0.15573272D+05 0.15573272D+05 0.12459699D+01  1  2  3  3  6  5       21 0.168284094553D-01 0.100000000000D+01
0.113350865955D-04 0.000000000000D+00 0.000000000000D+00 0.223891152292D-04 0.000000000000D+00  6 1 -1 25 23 21 21 4 0.12389181D-01 0.50447805D-01 0.15573272D+05 0.15573272D+05 0.15573272D+05 0.12459699D+01  1  2 15  3  6  5       21 0.515052310365D-02 0.100000000000D+01
0.531596992000D-04 0.000000000000D+00 0.000000000000D+00 0.221136933510D-04 0.000000000000D+00  6 1 -1 25 23 21 21 4 0.12389181D-01 0.50447805D-01 0.18229541D+05 0.18229541D+05 0.18229541D+05 0.12382825D+01  1  2 12  3  6  5       21 0.236416701932D-01 0.100000000000D+01
-.201306601792D-03 0.000000000000D+00 0.000000000000D+00 0.223891152292D-04 0.000000000000D+00  6 1 -1 25 23 21 21 4 0.12389181D-01 0.50447805D-01 0.15573272D+05 0.15573272D+05 0.15573272D+05 0.12459699D+01  1  2  4  3  6  5       21 -.914712291530D-01 0.100000000000D+01
0.497300994274D-05 0.000000000000D+00 0.000000000000D+00 0.221136933510D-04 0.000000000000D+00  6 1 -1 25 23 1 -1 4 0.12389181D-01 0.50447805D-01 0.18229541D+05 0.18229541D+05 0.18229541D+05 0.12382825D+01  1  2 12  6  6  5       21 0.221164270496D-02 0.100000000000D+01
0.497300994274D-05 0.000000000000D+00 0.000000000000D+00 0.221136933510D-04 0.000000000000D+00  6 1 -1 25 23 2 -2 4 0.12389181D-01 0.50447805D-01 0.18229541D+05 0.18229541D+05 0.18229541D+05 0.12382825D+01  1  2 12  7  6  5       21 0.221164270496D-02 0.100000000000D+01
0.497300994274D-05 0.000000000000D+00 0.000000000000D+00 0.221136933510D-04 0.000000000000D+00  6 1 -1 25 23 4 -4 4 0.12389181D-01 0.50447805D-01 0.18229541D+05 0.18229541D+05 0.18229541D+05 0.12382825D+01  1  2 12  7  6  5       21 0.221164270496D-02 0.100000000000D+01
0.497300994274D-05 0.000000000000D+00 0.000000000000D+00 0.221136933510D-04 0.000000000000D+00  6 1 -1 25 23 3 -3 4 0.12389181D-01 0.50447805D-01 0.18229541D+05 0.18229541D+05 0.18229541D+05 0.12382825D+01  1  2 12  8  6  5       21 0.221164270496D-02 0.100000000000D+01
  </mgrwgt>
  </event>
  <event>
  5     66 0.47055975E-03 0.37526804E+02 0.75467711E-02 0.12237026E+00
        1 -1    0    0  502    0 0.00000000E+00 0.00000000E+00 0.34694313E+03 0.34694328E+03 0.32000000E+00 0.0000E+00 0.9000E+01
       -1 -1    0    0    0  501 0.00000000E+00 0.00000000E+00 -.10133412E+03 0.10133462E+03 0.32000000E+00 0.0000E+00 0.9000E+01
       25  1    1    2    0    0 -.18245774E+02 0.18567353E+02 0.41737858E+02 0.13433058E+03 0.12500000E+03 0.0000E+00 0.9000E+01
       23  1    1    2    0    0 0.38764843E+02 0.12852222E+02 -.66211269E+01 0.10013483E+03 0.91188000E+02 0.0000E+00 0.9000E+01
       21  1    1    2  502  501 -.20519069E+02 -.31419574E+02 0.21049228E+03 0.21381250E+03 0.75000000E+00 0.0000E+00 0.9000E+01
#aMCatNLO 1  0  0  2  1 0.14571030D+03 0.00000000D+00  -5  6  0 0.00000000D+00 0.00000000D+00 0.00000000D+00 0.00000000D+00 0.00000000D+00
  <mgrwgt>
 0.9548077782D-02    1    2    0
 0.187502859264449D+03 0.000000000000000D+00 0.000000000000000D+00 0.187502859264449D+03
 0.187502859264449D+03 0.000000000000000D+00 0.000000000000000D+00 -.187502859264449D+03
 0.133241501218842D+03 -.182456262253097D+02 0.185675790445151D+02 -.380872653143088D+02
 0.124037117949564D+03 0.387649805746952D+02 0.128524325058366D+02 -.734986159390798D+02
 0.117727099360492D+03 -.205193543493855D+02 -.314200115503517D+02 0.111585881253389D+03
 0.000000000000000D+00 -.000000000000000D+00 0.000000000000000D+00 0.000000000000000D+00
 0.316358324070981D+03 0.000000000000000D+00 0.000000000000000D+00 0.316358324070981D+03
 0.266051784848045D+03 0.000000000000000D+00 0.000000000000000D+00 -.266051784848045D+03
 0.136176210107832D+03 -.868906240340729D+01 -.373205119841562D+02 -.380872653143088D+02
 0.132831606480410D+03 0.478764170380881D+02 -.404324929085668D+02 -.734986159390798D+02
 0.140755053855184D+03 -.113506876649847D+02 -.850396271170826D+02 0.111585881253389D+03
 0.172647238475600D+03 -.278366669696961D+02 0.162792632009806D+03 0.503065392229359D+02
0.187991467631D-04 0.000000000000D+00 0.000000000000D+00 0.193346233120D-04 0.000000000000D+00  6 1 -1 25 23 21 21 4 0.53375916D-01 0.15589914D-01 0.17572741D+05 0.17572741D+05 0.17572741D+05 0.12400605D+01  1  2 14  2  6  2       -1 0.954807778246D-02 0.100000000000D+01
  </mgrwgt>
  </event>
  <event>
  5     66 0.47055975E-03 0.22674614E+02 0.75467711E-02 0.12016106E+00
        1 -1    0    0  502    0 0.00000000E+00 0.00000000E+00 0.14782861E+04 0.14782862E+04 0.32000000E+00 0.0000E+00 0.9000E+01
       -1 -1    0    0    0  501 0.00000000E+00 0.00000000E+00 -.28628817E+02 0.28630605E+02 0.32000000E+00 0.0000E+00 0.9000E+01
       25  1    1    2    0    0 0.16271828E+02 -.91878664E+02 0.22349188E+03 0.27254372E+03 0.12500000E+03 0.0000E+00 0.9000E+01
       23  1    1    2    0    0 0.85331463E+00 0.77026670E+02 0.10431119E+04 0.10499198E+04 0.91188000E+02 0.0000E+00 0.9000E+01
       21  1    1    2  502  501 -.17125143E+02 0.14851995E+02 0.18305352E+03 0.18445326E+03 0.75000000E+00 0.0000E+00 0.9000E+01
#aMCatNLO 1  0  0  5  2 0.25279593D+01 0.00000000D+00  -5  6  0 0.00000000D+00 0.00000000D+00 0.00000000D+00 0.00000000D+00 0.00000000D+00
  <mgrwgt>
 0.1638303392D+00   25    2    0
 0.205725439375805D+03 0.000000000000000D+00 0.000000000000000D+00 0.205725439375805D+03
 0.205725439375805D+03 -.000000000000000D+00 -.000000000000000D+00 -.205725439375805D+03
 0.210755266178763D+03 0.162744637689903D+02 -.918809504099595D+02 -.141724433330586D+03
 0.170095219264085D+03 0.855441940674233D+00 0.770248248776695D+02 0.121175809649236D+03
 0.306003933087615D+02 -.171299057096646D+02 0.148561255322899D+02 0.205486236813501D+02
 0.000000000000000D+00 0.000000000000000D+00 0.000000000000000D+00 0.000000000000000D+00
 0.205725439375805D+03 0.000000000000000D+00 0.000000000000000D+00 0.205725439375805D+03
 0.205725439375805D+03 -.000000000000000D+00 -.000000000000000D+00 -.205725439375805D+03
 0.210298420807846D+03 0.159120609547832D+02 -.915666520248797D+02 -.141289703614239D+03
 0.170459766505254D+03 0.562324722966548D+00 0.772790344603577D+02 0.121527426027241D+03
 0.273317563040113D+02 -.171275023944123D+02 0.133404435327154D+02 0.166044009449812D+02
 0.336093513449929D+01 0.653116716662568D+00 0.947174031806662D+00 0.315787664201735D+01
0.133931629809D-03 0.000000000000D+00 0.000000000000D+00 0.137217209266D-04 0.000000000000D+00  6 1 -1 25 23 21 21 2 0.22742877D+00 0.44045736D-02 0.22205478D+05 0.22205478D+05 0.22205478D+05 0.12288557D+01  1  2  2  3  6  5       21 0.319425392362D-01 0.100000000000D+01
0.235386170948D-04 0.706776628091D-05 -.514332723473D-06 0.137217209266D-04 0.000000000000D+00  6 1 -1 25 23 21 21 4 0.22742877D+00 0.44045736D-02 0.22205478D+05 0.22205478D+05 0.22205478D+05 0.12288557D+01  1  2  3  3  6  5       21 0.847752377300D-02 0.100000000000D+01
0.140097339439D-05 0.000000000000D+00 0.000000000000D+00 0.137217209266D-04 0.000000000000D+00  6 1 -1 25 23 21 21 4 0.22742877D+00 0.44045736D-02 0.22205478D+05 0.22205478D+05 0.22205478D+05 0.12288557D+01  1  2 15  3  6  5       21 0.504565973797D-03 0.100000000000D+01
0.984541789774D-07 0.000000000000D+00 0.000000000000D+00 0.137208304036D-04 0.000000000000D+00  6 1 -1 25 23 21 21 4 0.22742877D+00 0.44045736D-02 0.22224240D+05 0.22224240D+05 0.22224240D+05 0.12288158D+01  1  2 12  3  6  5       21 0.354540366991D-04 0.100000000000D+01
0.106824187256D-06 0.000000000000D+00 0.000000000000D+00 0.137208304036D-04 0.000000000000D+00  6 1 -1 25 23 21 21 4 0.22742877D+00 0.44045736D-02 0.22224240D+05 0.22224240D+05 0.22224240D+05 0.12288158D+01  1  2 12  3  6  5       21 0.384681350721D-04 0.100000000000D+01
-.146430227071D-02 0.000000000000D+00 0.000000000000D+00 0.137217209266D-04 0.000000000000D+00  6 1 -1 25 23 21 21 4 0.22742877D+00 0.44045736D-02 0.22205478D+05 0.22205478D+05 0.22205478D+05 0.12288557D+01  1  2  4  3  6  5       21 -.527374112966D+00 0.100000000000D+01
-.886822808667D-03 0.000000000000D+00 0.000000000000D+00 0.137217209266D-04 0.000000000000D+00  6 1 -1 25 23 21 21 4 0.22742877D+00 0.44045736D-02 0.22205478D+05 0.22205478D+05 0.22205478D+05 0.12288557D+01  1  2  5  3  6  5       21 -.319392656444D+00 0.100000000000D+01
0.110505589553D-02 0.000000000000D+00 -.000000000000D+00 0.137217209266D-04 0.000000000000D+00  6 1 -1 25 23 21 21 4 0.22742877D+00 0.44045736D-02 0.22205478D+05 0.22205478D+05 0.22205478D+05 0.12288557D+01  1  2  6  3  6  5       21 0.397990144754D+00 0.100000000000D+01
0.158097860370D-02 0.000000000000D+00 0.000000000000D+00 0.137217209266D-04 0.459452159103D-04  6 1 -1 25 23 21 21 4 0.22742877D+00 0.44045736D-02 0.22224240D+05 0.22224240D+05 0.22224240D+05 0.12288158D+01  1  2 11  3  6  5       21 0.569321424630D+00 0.100000000000D+01
0.202116969149D-07 0.000000000000D+00 0.000000000000D+00 0.137208304036D-04 0.000000000000D+00  6 1 -1 25 23 1 -1 4 0.22742877D+00 0.44045736D-02 0.22224240D+05 0.22224240D+05 0.22224240D+05 0.12288158D+01  1  2 12  6  6  5       21 0.727837306264D-05 0.100000000000D+01
0.207640692294D-07 0.000000000000D+00 0.000000000000D+00 0.137208304036D-04 0.000000000000D+00  6 1 -1 25 23 1 -1 4 0.22742877D+00 0.44045736D-02 0.22224240D+05 0.22224240D+05 0.22224240D+05 0.12288158D+01  1  2 12  6  6  5       21 0.747728618661D-05 0.100000000000D+01
-.610463611894D-05 0.000000000000D+00 0.000000000000D+00 0.137217209266D-04 0.000000000000D+00  6 1 -1 25 23 1 -1 4 0.22742877D+00 0.44045736D-02 0.22205478D+05 0.22205478D+05 0.22205478D+05 0.12288557D+01  1  2  5  6  6  5       21 -.219860825364D-02 0.100000000000D+01
0.767361678138D-05 0.000000000000D+00 0.000000000000D+00 0.137217209266D-04 0.236640151998D-06  6 1 -1 25 23 1 -1 4 0.22742877D+00 0.44045736D-02 0.22224240D+05 0.22224240D+05 0.22224240D+05 0.12288158D+01  1  2 11  6  6  5       21 0.276332293670D-02 0.100000000000D+01
0.202116969149D-07 0.000000000000D+00 0.000000000000D+00 0.137208304036D-04 0.000000000000D+00  6 1 -1 25 23 2 -2 4 0.22742877D+00 0.44045736D-02 0.22224240D+05 0.22224240D+05 0.22224240D+05 0.12288158D+01  1  2 12  7  6  5       21 0.727837306264D-05 0.100000000000D+01
0.202116969149D-07 0.000000000000D+00 0.000000000000D+00 0.137208304036D-04 0.000000000000D+00  6 1 -1 25 23 4 -4 4 0.22742877D+00 0.44045736D-02 0.22224240D+05 0.22224240D+05 0.22224240D+05 0.12288158D+01  1  2 12  7  6  5       21 0.727837306264D-05 0.100000000000D+01
0.207640692294D-07 0.000000000000D+00 0.000000000000D+00 0.137208304036D-04 0.000000000000D+00  6 1 -1 25 23 2 -2 4 0.22742877D+00 0.44045736D-02 0.22224240D+05 0.22224240D+05 0.22224240D+05 0.12288158D+01  1  2 12  7  6  5       21 0.747728618661D-05 0.100000000000D+01
0.207640692294D-07 0.000000000000D+00 0.000000000000D+00 0.137208304036D-04 0.000000000000D+00  6 1 -1 25 23 4 -4 4 0.22742877D+00 0.44045736D-02 0.22224240D+05 0.22224240D+05 0.22224240D+05 0.12288158D+01  1  2 12  7  6  5       21 0.747728618661D-05 0.100000000000D+01
-.610463611894D-05 0.000000000000D+00 0.000000000000D+00 0.137217209266D-04 0.000000000000D+00  6 1 -1 25 23 2 -2 4 0.22742877D+00 0.44045736D-02 0.22205478D+05 0.22205478D+05 0.22205478D+05 0.12288557D+01  1  2  5  7  6  5       21 -.219860825364D-02 0.100000000000D+01
-.610463611894D-05 0.000000000000D+00 0.000000000000D+00 0.137217209266D-04 0.000000000000D+00  6 1 -1 25 23 4 -4 4 0.22742877D+00 0.44045736D-02 0.22205478D+05 0.22205478D+05 0.22205478D+05 0.12288557D+01  1  2  5  7  6  5       21 -.219860825364D-02 0.100000000000D+01
0.764467641823D-05 0.000000000000D+00 0.000000000000D+00 0.137217209266D-04 0.234103682812D-06  6 1 -1 25 23 2 -2 4 0.22742877D+00 0.44045736D-02 0.22224240D+05 0.22224240D+05 0.22224240D+05 0.12288158D+01  1  2 11  7  6  5       21 0.275290131003D-02 0.100000000000D+01
0.764467641823D-05 0.000000000000D+00 0.000000000000D+00 0.137217209266D-04 0.234103682812D-06  6 1 -1 25 23 4 -4 4 0.22742877D+00 0.44045736D-02 0.22224240D+05 0.22224240D+05 0.22224240D+05 0.12288158D+01  1  2 11  7  6  5       21 0.275290131003D-02 0.100000000000D+01
0.202116969149D-07 0.000000000000D+00 0.000000000000D+00 0.137208304036D-04 0.000000000000D+00  6 1 -1 25 23 3 -3 4 0.22742877D+00 0.44045736D-02 0.22224240D+05 0.22224240D+05 0.22224240D+05 0.12288158D+01  1  2 12  8  6  5       21 0.727837306264D-05 0.100000000000D+01
0.207640692294D-07 0.000000000000D+00 0.000000000000D+00 0.137208304036D-04 0.000000000000D+00  6 1 -1 25 23 3 -3 4 0.22742877D+00 0.44045736D-02 0.22224240D+05 0.22224240D+05 0.22224240D+05 0.12288158D+01  1  2 12  8  6  5       21 0.747728618661D-05 0.100000000000D+01
-.610463611894D-05 0.000000000000D+00 0.000000000000D+00 0.137217209266D-04 0.000000000000D+00  6 1 -1 25 23 3 -3 4 0.22742877D+00 0.44045736D-02 0.22205478D+05 0.22205478D+05 0.22205478D+05 0.12288557D+01  1  2  5  8  6  5       21 -.219860825364D-02 0.100000000000D+01
0.764570825680D-05 0.000000000000D+00 0.000000000000D+00 0.137217209266D-04 0.234135280906D-06  6 1 -1 25 23 3 -3 4 0.22742877D+00 0.44045736D-02 0.22224240D+05 0.22224240D+05 0.22224240D+05 0.12288158D+01  1  2 11  8  6  5       21 0.275327288230D-02 0.100000000000D+01
  </mgrwgt>
  </event>
  <event>
  5     66 -.47055975E-03 0.28143236E+02 0.75467711E-02 0.12049264E+00
        3 -1    0    0  502    0 0.00000000E+00 0.00000000E+00 0.98384033E+03 0.98384046E+03 0.50000000E+00 0.0000E+00 0.9000E+01
       -3 -1    0    0    0  501 0.00000000E+00 0.00000000E+00 -.22275820E+02 0.22281430E+02 0.50000000E+00 0.0000E+00 0.9000E+01
       25  1    1    2    0    0 0.48360322E+02 -.54651523E+02 0.49896433E+03 0.51953432E+03 0.12500000E+03 0.0000E+00 0.9000E+01
       23  1    1    2    0    0 -.27120151E+02 0.73102685E+02 0.33267159E+03 0.35364550E+03 0.91188000E+02 0.0000E+00 0.9000E+01
       21  1    1    2  502  501 -.21240170E+02 -.18451162E+02 0.12992859E+03 0.13294206E+03 0.75000000E+00 0.0000E+00 0.9000E+01
#aMCatNLO 1  0  0  5  2 0.25279593D+01 0.00000000D+00  -5  6  0 0.00000000D+00 0.00000000D+00 0.00000000D+00 0.00000000D+00 0.00000000D+00
  <mgrwgt>
 -.4033210475D-03    1    2    0
 0.148049776699270D+03 0.000000000000000D+00 0.000000000000000D+00 0.148049776699270D+03
 0.148049776699270D+03 -.000000000000000D+00 -.000000000000000D+00 -.148049776699270D+03
 0.144979759368186D+03 0.483636189588217D+02 -.546486584356467D+02 0.828342434305254D+01
 0.121329428748824D+03 -.271173918803734D+02 0.731050822284370D+02 -.180519513209997D+02
 0.297903652815294D+02 -.212462270784483D+02 -.184564237927903D+02 0.976852697794720D+01
 0.000000000000000D+00 0.000000000000000D+00 0.000000000000000D+00 -.000000000000000D+00
 0.148049776699270D+03 0.000000000000000D+00 0.000000000000000D+00 0.148049776699270D+03
 0.148049776699270D+03 -.000000000000000D+00 -.000000000000000D+00 -.148049776699270D+03
 0.145123261218709D+03 0.450126869350620D+02 -.575595856936009D+02 0.982410588403861D+01
 0.120360452821643D+03 -.299091117402174D+02 0.706799380061814D+02 -.167683826824333D+02
 0.165955946261512D+02 -.125683484050897D+02 0.107922456489543D+00 0.108369152486860D+02
 0.140202447320362D+02 -.253522678975492D+01 -.132282747690700D+02 -.389263845029128D+01
-.536672894319D-05 0.000000000000D+00 0.000000000000D+00 0.197574805108D-04 0.000000000000D+00  6 3 -3 25 23 21 21 4 0.15136049D+00 0.34274906D-02 0.21442499D+05 0.21442499D+05 0.21442499D+05 0.12305101D+01  1  2 14  3  6  5       21 -.403321047549D-03 0.100000000000D+01
  </mgrwgt>
  </event>
  <event>
  6     66 0.47055975E-03 0.33876296E+02 0.75467711E-02 0.12098234E+00
       21 -1    0    0  502  503 0.00000000E+00 0.00000000E+00 0.57377073E+03 0.57377122E+03 0.75000000E+00 0.0000E+00 0.9000E+01
       -3 -1    0    0    0  501 0.00000000E+00 0.00000000E+00 -.17115603E+03 0.17115676E+03 0.50000000E+00 0.0000E+00 0.9000E+01
       25  1    1    2    0    0 -.38924099E+02 0.17064271E+02 0.49942176E+02 0.14115770E+03 0.12500000E+03 0.0000E+00 0.9000E+01
       23  1    1    2    0    0 -.85187040E+01 -.68339042E+01 -.10006203E+03 0.13581948E+03 0.91188000E+02 0.0000E+00 0.9000E+01
       -3  1    1    2    0  503 0.42410826E+02 0.74083135E+01 0.44648835E+03 0.44855954E+03 0.50000000E+00 0.0000E+00 0.9000E+01
       21  1    1    2  502  501 0.50319775E+01 -.17638681E+02 0.62461975E+01 0.19391270E+02 0.75000000E+00 0.0000E+00 0.9000E+01
#aMCatNLO 2  0  0  1  5 0.11582934D+03 0.00000000D+00  -5  6  0 0.00000000D+00 0.00000000D+00 0.00000000D+00 0.00000000D+00 0.00000000D+00
  <mgrwgt>
 0.4170365750D-01    1    2    0
 0.144961889780993D+03 0.000000000000000D+00 0.000000000000000D+00 0.144961889780993D+03
 0.144961889780993D+03 0.000000000000000D+00 0.000000000000000D+00 -.144961889780993D+03
 0.146594886822956D+03 -.173366201519958D+02 0.208411146652961D+02 0.716250681245647D+02
 0.122276945234674D+03 0.927415735716475D+01 -.372089053727951D+01 -.808489021004459D+02
 0.000000000000000D+00 0.000000000000000D+00 0.000000000000000D+00 0.000000000000000D+00
 0.210519475043563D+02 0.806246279483100D+01 -.171202241280166D+02 0.922383397588124D+01
 0.666049198678897D+03 0.000000000000000D+00 0.000000000000000D+00 0.666049198678897D+03
 0.147443488835993D+03 0.000000000000000D+00 0.000000000000000D+00 -.147443488835993D+03
 0.150205897898478D+03 -.389266520246144D+02 0.170697727516816D+02 0.716250681245647D+02
 0.122356222123620D+03 -.852107147055676D+01 -.682935710816309D+01 -.808489021004459D+02
 0.520389703534278D+03 0.424108258988891D+02 0.740831353316967D+01 0.518605709842904D+03
 0.205408639585130D+02 0.503689759628211D+01 -.176487291766882D+02 0.922383397588124D+01
0.241862956240D-03 0.000000000000D+00 0.000000000000D+00 0.322904240310D-04 0.760398331960D-07  6 21 -3 25 23 -3 21 4 0.88272443D-01 0.26331770D-01 0.20345453D+05 0.20345453D+05 0.20345453D+05 0.12330081D+01  1  2  1  4  5  1        3 0.417036575021D-01 0.100000000000D+01
  </mgrwgt>
  </event>
  <event>
  5     66 0.47055975E-03 0.59338046E+02 0.75467711E-02 0.11747111E+00
        3 -1    0    0  502    0 0.00000000E+00 0.00000000E+00 0.59565640E+03 0.59565661E+03 0.50000000E+00 0.0000E+00 0.9000E+01
       -3 -1    0    0    0  501 0.00000000E+00 0.00000000E+00 -.60980515E+02 0.60982565E+02 0.50000000E+00 0.0000E+00 0.9000E+01
       25  1    1    2    0    0 -.96139286E+02 0.50017366E+02 0.14761134E+03 0.22171740E+03 0.12500000E+03 0.0000E+00 0.9000E+01
       23  1    1    2    0    0 0.68083161E+02 0.22672274E+01 0.13799528E+03 0.17888098E+03 0.91188000E+02 0.0000E+00 0.9000E+01
       21  1    1    2  502  501 0.28056125E+02 -.52284594E+02 0.24906926E+03 0.25604079E+03 0.75000000E+00 0.0000E+00 0.9000E+01
#aMCatNLO 1  0  0  5  2 0.10955224D+02 0.00000000D+00  -5  6  0 0.00000000D+00 0.00000000D+00 0.00000000D+00 0.00000000D+00 0.00000000D+00
  <mgrwgt>
 0.4067669017D-02    9    2    0
 0.190589023808197D+03 0.000000000000000D+00 0.000000000000000D+00 0.190589023808197D+03
 0.190589023808197D+03 -.000000000000000D+00 -.000000000000000D+00 -.190589023808197D+03
 0.174890498611056D+03 -.961397160624896D+02 0.500181687416205D+02 -.567188178260308D+02
 0.114585515478922D+03 0.680828788804589D+02 0.226775310650177D+01 -.131972691405096D+02
 0.917020335264151D+02 0.280568371820307D+02 -.522859218481223D+02 0.699160869665404D+02
 0.000000000000000D+00 0.000000000000000D+00 0.000000000000000D+00 0.000000000000000D+00
 0.190589023808197D+03 0.000000000000000D+00 0.000000000000000D+00 0.190589023808197D+03
 0.190589023808197D+03 -.000000000000000D+00 -.000000000000000D+00 -.190589023808197D+03
 0.171284967198572D+03 -.941912208337779D+02 0.463870085866508D+02 -.518632754503652D+02
 0.115011857735148D+03 0.693751986154409D+02 -.140577106475000D+00 -.997687981460775D+01
 0.837575708293650D+02 0.173421581301223D+02 -.544621542884842D+02 0.612246190097028D+02
 0.111236518533085D+02 0.747386408821467D+01 0.821572280830834D+01 0.615536255270098D+00
0.626737943421D-04 0.000000000000D+00 0.000000000000D+00 0.480526119969D-05 0.000000000000D+00  6 3 -3 25 23 21 21 2 0.91639620D-01 0.93817916D-02 0.28662291D+05 0.28662291D+05 0.28662291D+05 0.12169831D+01  1  2  2  3  6  5       21 0.201799987248D-02 0.100000000000D+01
0.851118512120D-08 0.330738699276D-05 -.240683872663D-06 0.480526119969D-05 0.000000000000D+00  6 3 -3 25 23 21 21 4 0.91639620D-01 0.93817916D-02 0.28662291D+05 0.28662291D+05 0.28662291D+05 0.12169831D+01  1  2  3  3  6  5       21 0.405876833597D-06 0.100000000000D+01
0.149187587909D-05 0.000000000000D+00 0.000000000000D+00 0.480526119969D-05 0.000000000000D+00  6 3 -3 25 23 21 21 4 0.91639620D-01 0.93817916D-02 0.28662291D+05 0.28662291D+05 0.28662291D+05 0.12169831D+01  1  2 15  3  6  5       21 0.711437771947D-04 0.100000000000D+01
0.784950231660D-04 0.000000000000D+00 0.000000000000D+00 0.478948561082D-05 0.000000000000D+00  6 3 -3 25 23 21 21 4 0.91639620D-01 0.93817916D-02 0.29943869D+05 0.29943869D+05 0.29943869D+05 0.12149838D+01  1  2 12  3  6  5       21 0.372778865975D-02 0.100000000000D+01
-.392835376824D-04 0.000000000000D+00 0.000000000000D+00 0.480526119969D-05 0.000000000000D+00  6 3 -3 25 23 21 21 4 0.91639620D-01 0.93817916D-02 0.28662291D+05 0.28662291D+05 0.28662291D+05 0.12169831D+01  1  2  4  3  6  5       21 -.187333228687D-02 0.100000000000D+01
0.650985083563D-06 0.000000000000D+00 0.000000000000D+00 0.478948561082D-05 0.000000000000D+00  6 3 -3 25 23 3 -3 4 0.91639620D-01 0.93817916D-02 0.29943869D+05 0.29943869D+05 0.29943869D+05 0.12149838D+01  1  2 12  6  6  5       21 0.309157792978D-04 0.100000000000D+01
0.650985083563D-06 0.000000000000D+00 0.000000000000D+00 0.478948561082D-05 0.000000000000D+00  6 3 -3 25 23 2 -2 4 0.91639620D-01 0.93817916D-02 0.29943869D+05 0.29943869D+05 0.29943869D+05 0.12149838D+01  1  2 12  7  6  5       21 0.309157792978D-04 0.100000000000D+01
0.650985083563D-06 0.000000000000D+00 0.000000000000D+00 0.478948561082D-05 0.000000000000D+00  6 3 -3 25 23 4 -4 4 0.91639620D-01 0.93817916D-02 0.29943869D+05 0.29943869D+05 0.29943869D+05 0.12149838D+01  1  2 12  7  6  5       21 0.309157792978D-04 0.100000000000D+01
0.650985083563D-06 0.000000000000D+00 0.000000000000D+00 0.478948561082D-05 0.000000000000D+00  6 3 -3 25 23 1 -1 4 0.91639620D-01 0.93817916D-02 0.29943869D+05 0.29943869D+05 0.29943869D+05 0.12149838D+01  1  2 12  8  6  5       21 0.309157792978D-04 0.100000000000D+01
  </mgrwgt>
  </event>
  <event>
  5     66 0.47055975E-03 0.37638037E+02 0.75467711E-02 0.11902251E+00
        1 -1    0    0  502    0 0.00000000E+00 0.00000000E+00 0.54018562E+03 0.54018571E+03 0.32000000E+00 0.0000E+00 0.9000E+01
       -1 -1    0    0    0  501 0.00000000E+00 0.00000000E+00 -.97370650E+02 0.97371176E+02 0.32000000E+00 0.0000E+00 0.9000E+01
       25  1    1    2    0    0 -.74052082E+02 0.47815476E+02 0.14186544E+03 0.20861648E+03 0.12500000E+03 0.0000E+00 0.9000E+01
       23  1    1    2    0    0 0.81985653E+02 -.52558255E+01 -.21572482E+01 0.12275657E+03 0.91188000E+02 0.0000E+00 0.9000E+01
       21  1    1    2  502  501 -.79335710E+01 -.42559650E+02 0.30310677E+03 0.30618384E+03 0.75000000E+00 0.0000E+00 0.9000E+01
#aMCatNLO 1  0  0  5  2 0.12754328D+02 0.00000000D+00  -5  6  0 0.00000000D+00 0.00000000D+00 0.00000000D+00 0.00000000D+00 0.00000000D+00
  <mgrwgt>
 0.2915392337D-01   15    2    0
 0.229343459798253D+03 0.000000000000000D+00 0.000000000000000D+00 0.229343459798253D+03
 0.229343459798253D+03 -.000000000000000D+00 -.000000000000000D+00 -.229343459798253D+03
 0.153012346160931D+03 -.740520393997603D+02 0.478157015775517D+02 -.421096438542971D+01
 0.172709981733371D+03 0.819857000462068D+02 -.525557053942799D+01 -.121508067273658D+03
 0.132964591702204D+03 -.793366064644646D+01 -.425601310381238D+02 0.125719031659088D+03
 0.000000000000000D+00 0.000000000000000D+00 -.000000000000000D+00 0.000000000000000D+00
 0.229343459798253D+03 0.000000000000000D+00 0.000000000000000D+00 0.229343459798253D+03
 0.229343459798253D+03 -.000000000000000D+00 -.000000000000000D+00 -.229343459798253D+03
 0.152813140026205D+03 -.741841147733678D+02 0.471071830943267D+02 -.211806064075309D+01
 0.171018455981836D+03 0.818372557082389D+02 -.605190034950231D+01 -.119155776287661D+03
 0.118122275220440D+03 -.596654026942106D+01 -.255677583748155D+02 0.115167538968904D+03
 0.167330483680244D+02 -.168660066545011D+01 -.154875243700089D+02 0.610629795951099D+01
0.972255705316D-04 0.000000000000D+00 0.000000000000D+00 0.892575621019D-05 0.000000000000D+00  6 1 -1 25 23 21 21 2 0.83105527D-01 0.14980148D-01 0.25437906D+05 0.25437906D+05 0.25437906D+05 0.12224899D+01  1  2  2  3  6  5       21 0.189338537781D-01 0.100000000000D+01
0.571586517223D-05 0.513073431592D-05 -.373371790922D-06 0.892575621019D-05 0.000000000000D+00  6 1 -1 25 23 21 21 4 0.83105527D-01 0.14980148D-01 0.25437906D+05 0.25437906D+05 0.25437906D+05 0.12224899D+01  1  2  3  3  6  5       21 0.166353171010D-02 0.100000000000D+01
0.303483008847D-05 0.000000000000D+00 0.000000000000D+00 0.892575621019D-05 0.000000000000D+00  6 1 -1 25 23 21 21 4 0.83105527D-01 0.14980148D-01 0.25437906D+05 0.25437906D+05 0.25437906D+05 0.12224899D+01  1  2 15  3  6  5       21 0.883249680461D-03 0.100000000000D+01
0.271615123721D-03 0.000000000000D+00 0.000000000000D+00 0.893291887382D-05 0.000000000000D+00  6 1 -1 25 23 21 21 4 0.83105527D-01 0.14980148D-01 0.25171012D+05 0.25171012D+05 0.25171012D+05 0.12229804D+01  1  2 12  3  6  5       21 0.791708686262D-01 0.100000000000D+01
-.298954863238D-03 0.000000000000D+00 0.000000000000D+00 0.892575621019D-05 0.000000000000D+00  6 1 -1 25 23 21 21 4 0.83105527D-01 0.14980148D-01 0.25437906D+05 0.25437906D+05 0.25437906D+05 0.12224899D+01  1  2  4  3  6  5       21 -.870071073930D-01 0.100000000000D+01
-.523854585605D-03 0.000000000000D+00 0.000000000000D+00 0.892575621019D-05 0.000000000000D+00  6 1 -1 25 23 21 21 4 0.83105527D-01 0.14980148D-01 0.25437906D+05 0.25437906D+05 0.25437906D+05 0.12224899D+01  1  2  5  3  6  5       21 -.152461383951D+00 0.100000000000D+01
0.582141189593D-03 0.000000000000D+00 -.000000000000D+00 0.892575621019D-05 0.000000000000D+00  6 1 -1 25 23 21 21 4 0.83105527D-01 0.14980148D-01 0.25437906D+05 0.25437906D+05 0.25437906D+05 0.12224899D+01  1  2  6  3  6  5       21 0.169424977578D+00 0.100000000000D+01
0.254524070112D-05 0.000000000000D+00 0.000000000000D+00 0.893291887382D-05 0.000000000000D+00  6 1 -1 25 23 1 -1 4 0.83105527D-01 0.14980148D-01 0.25171012D+05 0.25171012D+05 0.25171012D+05 0.12229804D+01  1  2 12  6  6  5       21 0.741891373387D-03 0.100000000000D+01
-.379816223131D-05 0.000000000000D+00 0.000000000000D+00 0.892575621019D-05 0.000000000000D+00  6 1 -1 25 23 1 -1 4 0.83105527D-01 0.14980148D-01 0.25437906D+05 0.25437906D+05 0.25437906D+05 0.12224899D+01  1  2  5  6  6  5       21 -.110540803912D-02 0.100000000000D+01
0.254524070112D-05 0.000000000000D+00 0.000000000000D+00 0.893291887382D-05 0.000000000000D+00  6 1 -1 25 23 2 -2 4 0.83105527D-01 0.14980148D-01 0.25171012D+05 0.25171012D+05 0.25171012D+05 0.12229804D+01  1  2 12  7  6  5       21 0.741891373387D-03 0.100000000000D+01
0.254524070112D-05 0.000000000000D+00 0.000000000000D+00 0.893291887382D-05 0.000000000000D+00  6 1 -1 25 23 4 -4 4 0.83105527D-01 0.14980148D-01 0.25171012D+05 0.25171012D+05 0.25171012D+05 0.12229804D+01  1  2 12  7  6  5       21 0.741891373387D-03 0.100000000000D+01
-.379816223131D-05 0.000000000000D+00 0.000000000000D+00 0.892575621019D-05 0.000000000000D+00  6 1 -1 25 23 2 -2 4 0.83105527D-01 0.14980148D-01 0.25437906D+05 0.25437906D+05 0.25437906D+05 0.12224899D+01  1  2  5  7  6  5       21 -.110540803912D-02 0.100000000000D+01
-.379816223131D-05 0.000000000000D+00 0.000000000000D+00 0.892575621019D-05 0.000000000000D+00  6 1 -1 25 23 4 -4 4 0.83105527D-01 0.14980148D-01 0.25437906D+05 0.25437906D+05 0.25437906D+05 0.12224899D+01  1  2  5  7  6  5       21 -.110540803912D-02 0.100000000000D+01
0.254524070112D-05 0.000000000000D+00 0.000000000000D+00 0.893291887382D-05 0.000000000000D+00  6 1 -1 25 23 3 -3 4 0.83105527D-01 0.14980148D-01 0.25171012D+05 0.25171012D+05 0.25171012D+05 0.12229804D+01  1  2 12  8  6  5       21 0.741891373387D-03 0.100000000000D+01
-.379816223131D-05 0.000000000000D+00 0.000000000000D+00 0.892575621019D-05 0.000000000000D+00  6 1 -1 25 23 3 -3 4 0.83105527D-01 0.14980148D-01 0.25437906D+05 0.25437906D+05 0.25437906D+05 0.12224899D+01  1  2  5  8  6  5       21 -.110540803912D-02 0.100000000000D+01
  </mgrwgt>
  </event>
  <event>
  5     66 0.47055975E-03 0.76038737E+02 0.75467711E-02 0.11700552E+00
        3 -1    0    0  502    0 0.00000000E+00 0.00000000E+00 0.83197547E+02 0.83199049E+02 0.50000000E+00 0.0000E+00 0.9000E+01
       -3 -1    0    0    0  501 -.00000000E+00 -.00000000E+00 -.68316127E+03 0.68316146E+03 0.50000000E+00 0.0000E+00 0.9000E+01
       25  1    1    2    0    0 0.11576949E+03 0.29812973E+02 -.16270165E+03 0.23746203E+03 0.12500000E+03 0.0000E+00 0.9000E+01
       23  1    1    2    0    0 -.32929609E+02 -.11639890E+02 -.43311269E+03 0.44398389E+03 0.91188000E+02 0.0000E+00 0.9000E+01
       21  1    1    2  502  501 -.82839878E+02 -.18173084E+02 -.41493857E+01 0.84914583E+02 0.75000000E+00 0.0000E+00 0.9000E+01
#aMCatNLO 1  0  0  5  1 0.73075266D+00 0.00000000D+00  -5  6  0 0.00000000D+00 0.00000000D+00 0.00000000D+00 0.00000000D+00 0.00000000D+00
  <mgrwgt>
 0.1694140324D-02   25    2    0
 0.238407189355692D+03 0.000000000000000D+00 0.000000000000000D+00 0.238407189355692D+03
 0.238407189355692D+03 -.000000000000000D+00 -.000000000000000D+00 -.238407189355692D+03
 0.176937901169752D+03 0.115769989142597D+03 0.298130832531462D+02 0.372895501611475D+02
 0.168619067724141D+03 -.329291306526092D+02 -.116397845857414D+02 -.137467546808036D+03
 0.131257409817491D+03 -.828408584899878D+02 -.181732986674048D+02 0.100177996646888D+03
 0.000000000000000D+00 -.000000000000000D+00 0.000000000000000D+00 0.000000000000000D+00
 0.238407189355692D+03 0.000000000000000D+00 0.000000000000000D+00 0.238407189355692D+03
 0.238407189355692D+03 -.000000000000000D+00 -.000000000000000D+00 -.238407189355692D+03
 0.176926271199076D+03 0.115743329002303D+03 0.298072346574061D+02 0.373217898010258D+02
 0.168599370435605D+03 -.329545367026501D+02 -.116453580641404D+02 -.137436823717496D+03
 0.128843631494056D+03 -.807573494173332D+02 -.180406394083467D+02 0.987596436881024D+02
 0.244510558264678D+01 -.203144288232015D+01 -.121237184919024D+00 0.135539022836752D+01
0.265345912004D-04 0.000000000000D+00 0.000000000000D+00 0.178351204568D-05 0.000000000000D+00  6 3 -3 25 23 21 21 2 0.12799752D-01 0.10510186D+00 0.31581267D+05 0.31581267D+05 0.31581267D+05 0.12125640D+01  1  2  2  3  6  5       21 0.370401973253D-03 0.100000000000D+01
-.142177648563D-05 0.140026884786D-05 -.101899816928D-06 0.178351204568D-05 0.000000000000D+00  6 3 -3 25 23 21 21 4 0.12799752D-01 0.10510186D+00 0.31581267D+05 0.31581267D+05 0.31581267D+05 0.12125640D+01  1  2  3  3  6  5       21 -.291810938254D-04 0.100000000000D+01
0.810871984102D-06 0.000000000000D+00 0.000000000000D+00 0.178351204568D-05 0.000000000000D+00  6 3 -3 25 23 21 21 4 0.12799752D-01 0.10510186D+00 0.31581267D+05 0.31581267D+05 0.31581267D+05 0.12125640D+01  1  2 15  3  6  5       21 0.166426521241D-04 0.100000000000D+01
0.234165165538D-10 0.000000000000D+00 0.000000000000D+00 0.178354016856D-05 0.000000000000D+00  6 3 -3 25 23 21 21 4 0.12799752D-01 0.10510186D+00 0.31574604D+05 0.31574604D+05 0.31574604D+05 0.12125736D+01  1  2 12  3  6  5       21 0.480620118733D-09 0.100000000000D+01
0.245536967665D-10 0.000000000000D+00 0.000000000000D+00 0.178354016856D-05 0.000000000000D+00  6 3 -3 25 23 21 21 4 0.12799752D-01 0.10510186D+00 0.31574604D+05 0.31574604D+05 0.31574604D+05 0.12125736D+01  1  2 12  3  6  5       21 0.503960554002D-09 0.100000000000D+01
-.805705236799D-02 0.000000000000D+00 0.000000000000D+00 0.178351204568D-05 0.000000000000D+00  6 3 -3 25 23 21 21 4 0.12799752D-01 0.10510186D+00 0.31581267D+05 0.31581267D+05 0.31581267D+05 0.12125640D+01  1  2  4  3  6  5       21 -.165366077920D+00 0.100000000000D+01
-.975495458294D-02 0.000000000000D+00 0.000000000000D+00 0.178351204568D-05 0.000000000000D+00  6 3 -3 25 23 21 21 4 0.12799752D-01 0.10510186D+00 0.31581267D+05 0.31581267D+05 0.31581267D+05 0.12125640D+01  1  2  5  3  6  5       21 -.200214483658D+00 0.100000000000D+01
0.993238803158D-02 0.000000000000D+00 -.000000000000D+00 0.178351204568D-05 0.000000000000D+00  6 3 -3 25 23 21 21 4 0.12799752D-01 0.10510186D+00 0.31581267D+05 0.31581267D+05 0.31581267D+05 0.12125640D+01  1  2  6  3  6  5       21 0.203856196800D+00 0.100000000000D+01
0.794540437174D-02 0.000000000000D+00 0.000000000000D+00 0.178351204568D-05 0.229752811938D-04  6 3 -3 25 23 21 21 4 0.12799752D-01 0.10510186D+00 0.31574604D+05 0.31574604D+05 0.31574604D+05 0.12125736D+01  1  2 11  3  6  5       21 0.163078107017D+00 0.100000000000D+01
0.282140196055D-11 0.000000000000D+00 0.000000000000D+00 0.178354016856D-05 0.000000000000D+00  6 3 -3 25 23 3 -3 4 0.12799752D-01 0.10510186D+00 0.31574604D+05 0.31574604D+05 0.31574604D+05 0.12125736D+01  1  2 12  6  6  5       21 0.579088073222D-10 0.100000000000D+01
0.283221442839D-11 0.000000000000D+00 0.000000000000D+00 0.178354016856D-05 0.000000000000D+00  6 3 -3 25 23 3 -3 4 0.12799752D-01 0.10510186D+00 0.31574604D+05 0.31574604D+05 0.31574604D+05 0.12125736D+01  1  2 12  6  6  5       21 0.581307314315D-10 0.100000000000D+01
-.146106711619D-04 0.000000000000D+00 0.000000000000D+00 0.178351204568D-05 0.000000000000D+00  6 3 -3 25 23 3 -3 4 0.12799752D-01 0.10510186D+00 0.31581267D+05 0.31581267D+05 0.31581267D+05 0.12125640D+01  1  2  5  6  6  5       21 -.299875100156D-03 0.100000000000D+01
0.142094521358D-04 0.000000000000D+00 0.000000000000D+00 0.178351204568D-05 0.810554910238D-07  6 3 -3 25 23 3 -3 4 0.12799752D-01 0.10510186D+00 0.31574604D+05 0.31574604D+05 0.31574604D+05 0.12125736D+01  1  2 11  6  6  5       21 0.291646648507D-03 0.100000000000D+01
0.282140196055D-11 0.000000000000D+00 0.000000000000D+00 0.178354016856D-05 0.000000000000D+00  6 3 -3 25 23 2 -2 4 0.12799752D-01 0.10510186D+00 0.31574604D+05 0.31574604D+05 0.31574604D+05 0.12125736D+01  1  2 12  7  6  5       21 0.579088073222D-10 0.100000000000D+01
0.282140196055D-11 0.000000000000D+00 0.000000000000D+00 0.178354016856D-05 0.000000000000D+00  6 3 -3 25 23 4 -4 4 0.12799752D-01 0.10510186D+00 0.31574604D+05 0.31574604D+05 0.31574604D+05 0.12125736D+01  1  2 12  7  6  5       21 0.579088073222D-10 0.100000000000D+01
0.283221442839D-11 0.000000000000D+00 0.000000000000D+00 0.178354016856D-05 0.000000000000D+00  6 3 -3 25 23 2 -2 4 0.12799752D-01 0.10510186D+00 0.31574604D+05 0.31574604D+05 0.31574604D+05 0.12125736D+01  1  2 12  7  6  5       21 0.581307314315D-10 0.100000000000D+01
0.283221442839D-11 0.000000000000D+00 0.000000000000D+00 0.178354016856D-05 0.000000000000D+00  6 3 -3 25 23 4 -4 4 0.12799752D-01 0.10510186D+00 0.31574604D+05 0.31574604D+05 0.31574604D+05 0.12125736D+01  1  2 12  7  6  5       21 0.581307314315D-10 0.100000000000D+01
-.146106711619D-04 0.000000000000D+00 0.000000000000D+00 0.178351204568D-05 0.000000000000D+00  6 3 -3 25 23 2 -2 4 0.12799752D-01 0.10510186D+00 0.31581267D+05 0.31581267D+05 0.31581267D+05 0.12125640D+01  1  2  5  7  6  5       21 -.299875100156D-03 0.100000000000D+01
-.146106711619D-04 0.000000000000D+00 0.000000000000D+00 0.178351204568D-05 0.000000000000D+00  6 3 -3 25 23 4 -4 4 0.12799752D-01 0.10510186D+00 0.31581267D+05 0.31581267D+05 0.31581267D+05 0.12125640D+01  1  2  5  7  6  5       21 -.299875100156D-03 0.100000000000D+01
0.144651296989D-04 0.000000000000D+00 0.000000000000D+00 0.178351204568D-05 0.823318611968D-07  6 3 -3 25 23 2 -2 4 0.12799752D-01 0.10510186D+00 0.31574604D+05 0.31574604D+05 0.31574604D+05 0.12125736D+01  1  2 11  7  6  5       21 0.296894388086D-03 0.100000000000D+01
0.144651296989D-04 0.000000000000D+00 0.000000000000D+00 0.178351204568D-05 0.823318611968D-07  6 3 -3 25 23 4 -4 4 0.12799752D-01 0.10510186D+00 0.31574604D+05 0.31574604D+05 0.31574604D+05 0.12125736D+01  1  2 11  7  6  5       21 0.296894388086D-03 0.100000000000D+01
0.282140196055D-11 0.000000000000D+00 0.000000000000D+00 0.178354016856D-05 0.000000000000D+00  6 3 -3 25 23 1 -1 4 0.12799752D-01 0.10510186D+00 0.31574604D+05 0.31574604D+05 0.31574604D+05 0.12125736D+01  1  2 12  8  6  5       21 0.579088073222D-10 0.100000000000D+01
0.283221442839D-11 0.000000000000D+00 0.000000000000D+00 0.178354016856D-05 0.000000000000D+00  6 3 -3 25 23 1 -1 4 0.12799752D-01 0.10510186D+00 0.31574604D+05 0.31574604D+05 0.31574604D+05 0.12125736D+01  1  2 12  8  6  5       21 0.581307314315D-10 0.100000000000D+01
-.146106711619D-04 0.000000000000D+00 0.000000000000D+00 0.178351204568D-05 0.000000000000D+00  6 3 -3 25 23 1 -1 4 0.12799752D-01 0.10510186D+00 0.31581267D+05 0.31581267D+05 0.31581267D+05 0.12125640D+01  1  2  5  8  6  5       21 -.299875100156D-03 0.100000000000D+01
0.144506931647D-04 0.000000000000D+00 0.000000000000D+00 0.178351204568D-05 0.822496920944D-07  6 3 -3 25 23 1 -1 4 0.12799752D-01 0.10510186D+00 0.31574604D+05 0.31574604D+05 0.31574604D+05 0.12125736D+01  1  2 11  8  6  5       21 0.296598080618D-03 0.100000000000D+01
  </mgrwgt>
  </event>
  <event>
  5     66 0.47055975E-03 0.74184725E+02 0.75467711E-02 0.11915384E+00
        3 -1    0    0  502    0 0.00000000E+00 0.00000000E+00 0.88915010E+02 0.88916416E+02 0.50000000E+00 0.0000E+00 0.9000E+01
       -3 -1    0    0    0  501 0.00000000E+00 0.00000000E+00 -.14187767E+04 0.14187768E+04 0.50000000E+00 0.0000E+00 0.9000E+01
       25  1    1    2    0    0 -.80357489E+02 0.10248105E+02 0.14677332E+02 0.14967556E+03 0.12500000E+03 0.0000E+00 0.9000E+01
       23  1    1    2    0    0 0.83380485E+01 0.75353522E+01 -.10597235E+04 0.10636989E+04 0.91188000E+02 0.0000E+00 0.9000E+01
       21  1    1    2  502  501 0.72019440E+02 -.17783457E+02 -.28481557E+03 0.29431874E+03 0.75000000E+00 0.0000E+00 0.9000E+01
#aMCatNLO 1  0  0  1  1 0.53033421D+02 0.00000000D+00  -5  6  0 0.00000000D+00 0.00000000D+00 0.00000000D+00 0.00000000D+00 0.00000000D+00
  <mgrwgt>
 0.1544525063D-02    1    2    0
 0.355178368417136D+03 0.000000000000000D+00 0.000000000000000D+00 0.355178368417136D+03
 0.355178368417136D+03 0.000000000000000D+00 0.000000000000000D+00 -.355178368417136D+03
 0.345156736293026D+03 -.803586649337905D+02 0.102483956217897D+02 0.311360928771886D+03
 0.273729379200152D+03 0.833711561568317D+01 0.753558259803420D+01 -.257849237329529D+03
 0.914706213410937D+02 0.720215493181073D+02 -.177839782198239D+02 -.535116914423569D+02
 0.000000000000000D+00 0.000000000000000D+00 -.000000000000000D+00 -.000000000000000D+00
 0.355812369082731D+03 0.000000000000000D+00 0.000000000000000D+00 0.355812369082731D+03
 0.476643600126012D+03 0.000000000000000D+00 0.000000000000000D+00 -.476643600126012D+03
 0.346426751179110D+03 -.845863244823318D+02 0.169121162895525D+02 0.311360928771886D+03
 0.273843966928026D+03 0.498979207887187D+01 0.128117002176836D+02 -.257849237329529D+03
 0.902710352099252D+02 0.709105600252686D+02 -.160328149042000D+02 -.535116914423569D+02
 0.121914215891682D+03 0.868597237819141D+01 -.136910016030361D+02 -.120831231043281D+03
0.524758665589D-03 0.000000000000D+00 0.000000000000D+00 0.374582050822D-06 0.000000000000D+00  6 3 -3 25 23 21 21 4 0.13679347D-01 0.21827346D+00 0.24808997D+05 0.24808997D+05 0.24808997D+05 0.12236549D+01  1  2 14  1  6  1        3 0.154452506311D-02 0.100000000000D+01
  </mgrwgt>
  </event>
  <event>
  5     66 0.47055975E-03 0.43865805E+02 0.75467711E-02 0.11953016E+00
        1 -1    0    0  502    0 0.00000000E+00 0.00000000E+00 0.47750234E+02 0.47751306E+02 0.32000000E+00 0.0000E+00 0.9000E+01
       -1 -1    0    0    0  501 -.00000000E+00 -.00000000E+00 -.73333100E+03 0.73333107E+03 0.32000000E+00 0.0000E+00 0.9000E+01
       25  1    1    2    0    0 -.24466600E+02 -.68220682E+02 -.32834138E+03 0.35872794E+03 0.12500000E+03 0.0000E+00 0.9000E+01
       23  1    1    2    0    0 0.61036320E+02 0.43998358E+02 -.82567270E+02 0.14420088E+03 0.91188000E+02 0.0000E+00 0.9000E+01
       21  1    1    2  502  501 -.36569720E+02 0.24222324E+02 -.27467212E+03 0.27815356E+03 0.75000000E+00 0.0000E+00 0.9000E+01
#aMCatNLO 1  0  0  5  2 0.57930579D+01 0.00000000D+00  -5  6  0 0.00000000D+00 0.00000000D+00 0.00000000D+00 0.00000000D+00 0.00000000D+00
  <mgrwgt>
 0.3260702822D-01   25    2    0
 0.187128759951631D+03 0.000000000000000D+00 0.000000000000000D+00 0.187128759951631D+03
 0.187128759951631D+03 -.000000000000000D+00 -.000000000000000D+00 -.187128759951631D+03
 0.147202095666585D+03 -.244659240183105D+02 -.682211296790341D+02 -.281203306502796D+02
 0.149700565450626D+03 0.610370078571531D+02 0.439979029314342D+02 0.918350486563770D+02
 0.773548587860504D+02 -.365710838388425D+02 0.242232267475999D+02 -.637147180060973D+02
 0.000000000000000D+00 0.000000000000000D+00 0.000000000000000D+00 0.000000000000000D+00
 0.187128759951631D+03 0.000000000000000D+00 0.000000000000000D+00 0.187128759951631D+03
 0.187128759951631D+03 -.000000000000000D+00 -.000000000000000D+00 -.187128759951631D+03
 0.147278507158761D+03 -.248520931126837D+02 -.679653466790787D+02 -.287931205259935D+02
 0.149199590002971D+03 0.606450431530874D+02 0.442575247120048D+02 0.911521615782160D+02
 0.101205055875265D+02 -.315769982842508D+01 -.260908912185375D+01 -.925452425005975D+01
 0.676589171540023D+02 -.326352502119786D+02 0.263169110889277D+02 -.531045168021627D+02
0.150780102919D-03 0.000000000000D+00 0.000000000000D+00 0.715545158453D-05 0.000000000000D+00  6 1 -1 25 23 21 21 2 0.73462777D-02 0.11282024D+00 0.23497762D+05 0.23497762D+05 0.23497762D+05 0.12261937D+01  1  2  2  3  6  5       21 0.168101182057D-01 0.100000000000D+01
0.397549120247D-05 0.795688463408D-05 -.579035296520D-06 0.715545158453D-05 0.000000000000D+00  6 1 -1 25 23 21 21 4 0.73462777D-02 0.11282024D+00 0.23497762D+05 0.23497762D+05 0.23497762D+05 0.12261937D+01  1  2  3  3  6  5       21 0.666401040138D-03 0.100000000000D+01
0.583221546110D-05 0.000000000000D+00 0.000000000000D+00 0.715545158453D-05 0.000000000000D+00  6 1 -1 25 23 21 21 4 0.73462777D-02 0.11282024D+00 0.23497762D+05 0.23497762D+05 0.23497762D+05 0.12261937D+01  1  2 15  3  6  5       21 0.977638800250D-03 0.100000000000D+01
0.115636385501D-04 0.000000000000D+00 0.000000000000D+00 0.714835741353D-05 0.000000000000D+00  6 1 -1 25 23 21 21 4 0.73462777D-02 0.11282024D+00 0.23804577D+05 0.23804577D+05 0.23804577D+05 0.12255857D+01  1  2 12  3  6  5       21 0.193477435465D-02 0.100000000000D+01
0.911419181457D-05 0.000000000000D+00 0.000000000000D+00 0.714835741353D-05 0.000000000000D+00  6 1 -1 25 23 21 21 4 0.73462777D-02 0.11282024D+00 0.23804577D+05 0.23804577D+05 0.23804577D+05 0.12255857D+01  1  2 12  3  6  5       21 0.152494429066D-02 0.100000000000D+01
-.206639144866D-03 0.000000000000D+00 0.000000000000D+00 0.715545158453D-05 0.000000000000D+00  6 1 -1 25 23 21 21 4 0.73462777D-02 0.11282024D+00 0.23497762D+05 0.23497762D+05 0.23497762D+05 0.12261937D+01  1  2  4  3  6  5       21 -.346383714763D-01 0.100000000000D+01
-.272131227679D-04 0.000000000000D+00 0.000000000000D+00 0.715545158453D-05 0.000000000000D+00  6 1 -1 25 23 21 21 4 0.73462777D-02 0.11282024D+00 0.23497762D+05 0.23497762D+05 0.23497762D+05 0.12261937D+01  1  2  5  3  6  5       21 -.456166355159D-02 0.100000000000D+01
0.286479857230D-03 0.000000000000D+00 -.000000000000D+00 0.715545158453D-05 0.000000000000D+00  6 1 -1 25 23 21 21 4 0.73462777D-02 0.11282024D+00 0.23497762D+05 0.23497762D+05 0.23497762D+05 0.12261937D+01  1  2  6  3  6  5       21 0.480218582091D-01 0.100000000000D+01
0.634652332417D-05 0.000000000000D+00 0.000000000000D+00 0.715545158453D-05 0.209649137472D-05  6 1 -1 25 23 21 21 4 0.73462777D-02 0.11282024D+00 0.23804577D+05 0.23804577D+05 0.23804577D+05 0.12255857D+01  1  2 11  3  6  5       21 0.106187083898D-02 0.100000000000D+01
0.532604549204D-05 0.000000000000D+00 0.000000000000D+00 0.714835741353D-05 0.000000000000D+00  6 1 -1 25 23 1 -1 4 0.73462777D-02 0.11282024D+00 0.23804577D+05 0.23804577D+05 0.23804577D+05 0.12255857D+01  1  2 12  6  6  5       21 0.891129222439D-03 0.100000000000D+01
0.480637943170D-05 0.000000000000D+00 0.000000000000D+00 0.714835741353D-05 0.000000000000D+00  6 1 -1 25 23 1 -1 4 0.73462777D-02 0.11282024D+00 0.23804577D+05 0.23804577D+05 0.23804577D+05 0.12255857D+01  1  2 12  6  6  5       21 0.804181108127D-03 0.100000000000D+01
-.134661324347D-04 0.000000000000D+00 0.000000000000D+00 0.715545158453D-05 0.000000000000D+00  6 1 -1 25 23 1 -1 4 0.73462777D-02 0.11282024D+00 0.23497762D+05 0.23497762D+05 0.23497762D+05 0.12261937D+01  1  2  5  6  6  5       21 -.225729204370D-02 0.100000000000D+01
0.462286470448D-05 0.000000000000D+00 0.000000000000D+00 0.715545158453D-05 0.299869416379D-07  6 1 -1 25 23 1 -1 4 0.73462777D-02 0.11282024D+00 0.23804577D+05 0.23804577D+05 0.23804577D+05 0.12255857D+01  1  2 11  6  6  5       21 0.773476275354D-03 0.100000000000D+01
0.532604549204D-05 0.000000000000D+00 0.000000000000D+00 0.714835741353D-05 0.000000000000D+00  6 1 -1 25 23 2 -2 4 0.73462777D-02 0.11282024D+00 0.23804577D+05 0.23804577D+05 0.23804577D+05 0.12255857D+01  1  2 12  7  6  5       21 0.891129222439D-03 0.100000000000D+01
0.532604549204D-05 0.000000000000D+00 0.000000000000D+00 0.714835741353D-05 0.000000000000D+00  6 1 -1 25 23 4 -4 4 0.73462777D-02 0.11282024D+00 0.23804577D+05 0.23804577D+05 0.23804577D+05 0.12255857D+01  1  2 12  7  6  5       21 0.891129222439D-03 0.100000000000D+01
0.480637943170D-05 0.000000000000D+00 0.000000000000D+00 0.714835741353D-05 0.000000000000D+00  6 1 -1 25 23 2 -2 4 0.73462777D-02 0.11282024D+00 0.23804577D+05 0.23804577D+05 0.23804577D+05 0.12255857D+01  1  2 12  7  6  5       21 0.804181108127D-03 0.100000000000D+01
0.480637943170D-05 0.000000000000D+00 0.000000000000D+00 0.714835741353D-05 0.000000000000D+00  6 1 -1 25 23 4 -4 4 0.73462777D-02 0.11282024D+00 0.23804577D+05 0.23804577D+05 0.23804577D+05 0.12255857D+01  1  2 12  7  6  5       21 0.804181108127D-03 0.100000000000D+01
-.134661324347D-04 0.000000000000D+00 0.000000000000D+00 0.715545158453D-05 0.000000000000D+00  6 1 -1 25 23 2 -2 4 0.73462777D-02 0.11282024D+00 0.23497762D+05 0.23497762D+05 0.23497762D+05 0.12261937D+01  1  2  5  7  6  5       21 -.225729204370D-02 0.100000000000D+01
-.134661324347D-04 0.000000000000D+00 0.000000000000D+00 0.715545158453D-05 0.000000000000D+00  6 1 -1 25 23 4 -4 4 0.73462777D-02 0.11282024D+00 0.23497762D+05 0.23497762D+05 0.23497762D+05 0.12261937D+01  1  2  5  7  6  5       21 -.225729204370D-02 0.100000000000D+01
0.454576848634D-05 0.000000000000D+00 0.000000000000D+00 0.715545158453D-05 0.288163842523D-07  6 1 -1 25 23 2 -2 4 0.73462777D-02 0.11282024D+00 0.23804577D+05 0.23804577D+05 0.23804577D+05 0.12255857D+01  1  2 11  7  6  5       21 0.760576893809D-03 0.100000000000D+01
0.454576848634D-05 0.000000000000D+00 0.000000000000D+00 0.715545158453D-05 0.288163842523D-07  6 1 -1 25 23 4 -4 4 0.73462777D-02 0.11282024D+00 0.23804577D+05 0.23804577D+05 0.23804577D+05 0.12255857D+01  1  2 11  7  6  5       21 0.760576893809D-03 0.100000000000D+01
0.532604549204D-05 0.000000000000D+00 0.000000000000D+00 0.714835741353D-05 0.000000000000D+00  6 1 -1 25 23 3 -3 4 0.73462777D-02 0.11282024D+00 0.23804577D+05 0.23804577D+05 0.23804577D+05 0.12255857D+01  1  2 12  8  6  5       21 0.891129222439D-03 0.100000000000D+01
0.480637943170D-05 0.000000000000D+00 0.000000000000D+00 0.714835741353D-05 0.000000000000D+00  6 1 -1 25 23 3 -3 4 0.73462777D-02 0.11282024D+00 0.23804577D+05 0.23804577D+05 0.23804577D+05 0.12255857D+01  1  2 12  8  6  5       21 0.804181108127D-03 0.100000000000D+01
-.134661324347D-04 0.000000000000D+00 0.000000000000D+00 0.715545158453D-05 0.000000000000D+00  6 1 -1 25 23 3 -3 4 0.73462777D-02 0.11282024D+00 0.23497762D+05 0.23497762D+05 0.23497762D+05 0.12261937D+01  1  2  5  8  6  5       21 -.225729204370D-02 0.100000000000D+01
0.455878223082D-05 0.000000000000D+00 0.000000000000D+00 0.715545158453D-05 0.288988805481D-07  6 1 -1 25 23 3 -3 4 0.73462777D-02 0.11282024D+00 0.23804577D+05 0.23804577D+05 0.23804577D+05 0.12255857D+01  1  2 11  8  6  5       21 0.762754293162D-03 0.100000000000D+01
  </mgrwgt>
  </event>
  <event>
  6     66 0.47055975E-03 0.50102667E+03 0.75467711E-02 0.10039938E+00
        1 -1    0    0  502    0 0.00000000E+00 0.00000000E+00 0.23197685E+04 0.23197685E+04 0.32000000E+00 0.0000E+00 0.9000E+01
       -1 -1    0    0    0  501 0.00000000E+00 0.00000000E+00 -.23894136E+03 0.23894158E+03 0.32000000E+00 0.0000E+00 0.9000E+01
       25  1    1    2    0    0 0.30886726E+03 -.91393964E+02 0.17672934E+03 0.38808517E+03 0.12500000E+03 0.0000E+00 0.9000E+01
       23  1    1    2    0    0 0.19131240E+03 -.40586947E+02 0.21776583E+02 0.21688062E+03 0.91188000E+02 0.0000E+00 0.9000E+01
        2  1    1    2  502    0 -.42739357E+03 0.11589071E+03 0.17010324E+04 0.17577279E+04 0.32000000E+00 0.0000E+00 0.9000E+01
       -2  1    1    2    0  501 -.72786083E+02 0.16090203E+02 0.18128883E+03 0.19601646E+03 0.32000000E+00 0.0000E+00 0.9000E+01
#aMCatNLO 2  0  0  5  1 0.25258904D+02 0.00000000D+00  -5  6  0 0.00000000D+00 0.00000000D+00 0.00000000D+00 0.00000000D+00 0.00000000D+00
  <mgrwgt>
 0.1268885148D-04    3    2    0
 0.744505845292803D+03 0.000000000000000D+00 0.000000000000000D+00 0.744505845292803D+03
 0.744505845292803D+03 -.000000000000000D+00 -.000000000000000D+00 -.744505845292803D+03
 0.421090827565344D+03 0.309729927577276D+03 -.916215945079908D+02 -.239510626992739D+03
 0.343220221792445D+03 0.192015534361549D+03 -.407724818098403D+02 -.266369120947175D+03
 0.724700641227816D+03 -.501745461938825D+03 0.132394076317831D+03 0.505879747939914D+03
 0.000000000000000D+00 -.000000000000000D+00 0.000000000000000D+00 0.000000000000000D+00
 0.744505845292803D+03 0.000000000000000D+00 0.000000000000000D+00 0.744505845292803D+03
 0.744505845292803D+03 -.000000000000000D+00 -.000000000000000D+00 -.744505845292803D+03
 0.419911862191659D+03 0.308866976705972D+03 -.913938902392318D+02 -.238640565572407D+03
 0.342254449814022D+03 0.191312170421904D+03 -.405868872680486D+02 -.265659961424092D+03
 0.643323397623656D+03 -.427364925565995D+03 0.115884418141784D+03 0.466685135779956D+03
 0.835219809562693D+02 -.728142215618808D+02 0.160963593654961D+02 0.376153912165425D+02
-.224664745740D-04 0.000000000000D+00 0.000000000000D+00 0.747081533700D-06 0.000000000000D+00  6 1 -1 25 23 2 -2 4 0.35688748D+00 0.36760228D-01 0.29087883D+06 0.29087883D+06 0.29087883D+06 0.11232345D+01  1  2 13  7  6  5       21 -.499272650363D-04 0.100000000000D+01
-.231219553761D-04 0.000000000000D+00 0.000000000000D+00 0.747081533700D-06 0.000000000000D+00  6 1 -1 25 23 2 -2 4 0.35688748D+00 0.36760228D-01 0.29087883D+06 0.29087883D+06 0.29087883D+06 0.11232345D+01  1  2 13  7  6  5       21 -.513839405651D-04 0.100000000000D+01
0.512982111480D-04 0.000000000000D+00 0.000000000000D+00 0.746813741539D-06 0.130477297887D-09  6 1 -1 25 23 2 -2 4 0.35688748D+00 0.36760228D-01 0.29087883D+06 0.29087883D+06 0.29087883D+06 0.11232345D+01  1  2  1  7  6  5       21 0.114000057082D-03 0.100000000000D+01
  </mgrwgt>
  </event>
  <event>
  5     66 -.47055975E-03 0.27290743E+02 0.75467711E-02 0.11476151E+00
        1 -1    0    0  502    0 0.00000000E+00 0.00000000E+00 0.41119195E+03 0.41119207E+03 0.32000000E+00 0.0000E+00 0.9000E+01
       -1 -1    0    0    0  501 0.00000000E+00 0.00000000E+00 -.13981220E+03 0.13981257E+03 0.32000000E+00 0.0000E+00 0.9000E+01
       25  1    1    2    0    0 0.14026725E+03 0.93039375E+02 -.44792988E+01 0.20970525E+03 0.12500000E+03 0.0000E+00 0.9000E+01
       23  1    1    2    0    0 -.11596105E+03 -.80651360E+02 0.26032527E+03 0.30989693E+03 0.91188000E+02 0.0000E+00 0.9000E+01
       21  1    1    2  502  501 -.24306197E+02 -.12388015E+02 0.15533779E+02 0.31402467E+02 0.75000000E+00 0.0000E+00 0.9000E+01
#aMCatNLO 1  0  0  2  2 0.21230006D+02 0.00000000D+00  -5  6  0 0.00000000D+00 0.00000000D+00 0.00000000D+00 0.00000000D+00 0.00000000D+00
  <mgrwgt>
 -.2874380236D-01    1    2    0
 0.239770279084909D+03 0.000000000000000D+00 0.000000000000000D+00 0.239770279084909D+03
 0.239770279084909D+03 0.000000000000000D+00 0.000000000000000D+00 -.239770279084909D+03
 0.243495323948677D+03 0.140271914770908D+03 0.930417516936416D+02 -.123822433965550D+03
 0.208754381337571D+03 -.115957056446829D+03 -.806493226862082D+02 0.123744851182079D+03
 0.272908528835688D+02 -.243148583240789D+02 -.123924290074333D+02 0.775827834709330D-01
 0.000000000000000D+00 -.000000000000000D+00 0.000000000000000D+00 0.000000000000000D+00
 0.364190284214174D+03 0.000000000000000D+00 0.000000000000000D+00 0.364190284214174D+03
 0.291503230048474D+03 0.000000000000000D+00 0.000000000000000D+00 -.291503230048474D+03
 0.236271658711518D+03 0.155400330086052D+03 0.267962491085100D+02 -.123822433965550D+03
 0.232566232243693D+03 -.102040964321499D+03 -.141586208517254D+03 0.123744851182079D+03
 0.303356630708393D+02 -.224977306391159D+02 -.203494115627204D+02 0.775827834709330D-01
 0.156519960236598D+03 -.308616351254369D+02 0.135139370971464D+03 0.726870541657007D+02
-.132277463372D-03 0.000000000000D+00 0.000000000000D+00 0.104496039768D-04 0.000000000000D+00  6 1 -1 25 23 21 21 4 0.63260338D-01 0.21509607D-01 0.41021661D+05 0.41021661D+05 0.41021661D+05 0.12008896D+01  1  2 14  2  6  2       -1 -.287438023643D-01 0.100000000000D+01
  </mgrwgt>
  </event>
  <event>
  5     66 0.47055975E-03 0.40237420E+02 0.75467711E-02 0.11645822E+00
        1 -1    0    0  502    0 0.00000000E+00 0.00000000E+00 0.13023834E+04 0.13023834E+04 0.32000000E+00 0.0000E+00 0.9000E+01
       -1 -1    0    0    0  501 0.00000000E+00 0.00000000E+00 -.15750370E+02 0.15753621E+02 0.32000000E+00 0.0000E+00 0.9000E+01
       25  1    1    2    0    0 -.26506808E+02 -.42577638E+02 0.41137855E+03 0.43286578E+03 0.12500000E+03 0.0000E+00 0.9000E+01
       23  1    1    2    0    0 -.84593561E+00 0.13074648E+02 0.64093471E+03 0.64752160E+03 0.91188000E+02 0.0000E+00 0.9000E+01
       21  1    1    2  502  501 0.27352744E+02 0.29502990E+02 0.23431973E+03 0.23774965E+03 0.75000000E+00 0.0000E+00 0.9000E+01
#aMCatNLO 1  0  0  1  5 0.47173069D+01 0.00000000D+00  -5  6  0 0.00000000D+00 0.00000000D+00 0.00000000D+00 0.00000000D+00 0.00000000D+00
  <mgrwgt>
 0.1500158768D+00    7    4    0
 0.143231241856696D+03 0.000000000000000D+00 0.000000000000000D+00 0.143231241856696D+03
 0.143231241856696D+03 0.000000000000000D+00 0.000000000000000D+00 -.143231241856696D+03
 0.144115193176869D+03 -.265090505057015D+02 -.425800566459134D+02 -.512679034262506D+02
 0.100796150159948D+03 -.847503787014753D+00 0.130729569669933D+02 0.409022258139687D+02
 0.415511403765747D+02 0.273565542927162D+02 0.295070996789201D+02 0.103656776122819D+02
 0.000000000000000D+00 -.000000000000000D+00 0.000000000000000D+00 0.000000000000000D+00
 0.195804941441032D+03 0.000000000000000D+00 0.000000000000000D+00 0.195804941441032D+03
 0.189726626042344D+03 0.000000000000000D+00 0.000000000000000D+00 -.189726626042344D+03
 0.154560034460274D+03 0.316389935669620D+01 -.750026404301763D+02 -.512679034262506D+02
 0.102184894458195D+03 0.193183680451433D+02 -.896157859798610D+01 0.409022258139687D+02
 0.423984067219967D+02 0.356968198103279D+02 0.203939862614220D+02 0.103656776122819D+02
 0.863882318429106D+02 -.581790872121674D+02 0.635702327667404D+02 0.607831539868801D+01
 0.143231241856696D+03 0.000000000000000D+00 0.000000000000000D+00 0.143231241856696D+03
 0.143231241856696D+03 0.000000000000000D+00 0.000000000000000D+00 -.143231241856696D+03
 0.144115193176869D+03 -.265090505057015D+02 -.425800566459134D+02 -.512679034262506D+02
 0.100796150159948D+03 -.847503787014753D+00 0.130729569669933D+02 0.409022258139687D+02
 0.000000000000000D+00 -.000000000000000D+00 0.000000000000000D+00 0.000000000000000D+00
 0.415511403765747D+02 0.273565542927162D+02 0.295070996789201D+02 0.103656776122819D+02
 0.195804941441032D+03 0.000000000000000D+00 0.000000000000000D+00 0.195804941441032D+03
 0.189726626042344D+03 0.000000000000000D+00 0.000000000000000D+00 -.189726626042344D+03
 0.154560034460274D+03 0.316389935669620D+01 -.750026404301763D+02 -.512679034262506D+02
 0.102184894458195D+03 0.193183680451433D+02 -.896157859798610D+01 0.409022258139687D+02
 0.863882318429106D+02 -.581790872121674D+02 0.635702327667404D+02 0.607831539868801D+01
 0.423984067219967D+02 0.356968198103279D+02 0.203939862614220D+02 0.103656776122819D+02
0.863899774164D-04 0.000000000000D+00 0.000000000000D+00 0.995221091465D-05 0.000000000000D+00  6 1 -1 25 23 21 21 2 0.20036692D+00 0.24233870D-02 0.17828845D+05 0.17828845D+05 0.17828845D+05 0.12393585D+01  1  2  2  1  6  1        1 0.654156750749D-01 0.100000000000D+01
0.367077996458D-05 0.455892435764D-05 -.331760260283D-06 0.995221091465D-05 0.000000000000D+00  6 1 -1 25 23 21 21 4 0.20036692D+00 0.24233870D-02 0.17828845D+05 0.17828845D+05 0.17828845D+05 0.12393585D+01  1  2  3  1  6  1        1 0.426943791130D-02 0.100000000000D+01
0.332909507069D-05 0.000000000000D+00 0.000000000000D+00 0.995221091465D-05 0.000000000000D+00  6 1 -1 25 23 21 21 4 0.20036692D+00 0.24233870D-02 0.17828845D+05 0.17828845D+05 0.17828845D+05 0.12393585D+01  1  2 15  1  6  1        1 0.387202851772D-02 0.100000000000D+01
-.123577924827D-04 0.000000000000D+00 0.000000000000D+00 0.995221091465D-05 0.000000000000D+00  6 1 -1 25 23 21 21 4 0.20036692D+00 0.24233870D-02 0.17828845D+05 0.17828845D+05 0.17828845D+05 0.12393585D+01  1  2  4  1  6  1        1 -.143731926823D-01 0.100000000000D+01
-.873543813068D-04 0.000000000000D+00 -.540118413375D-04 0.995221091465D-05 0.000000000000D+00  6 1 -1 25 23 21 21 4 0.32041983D+00 0.24233870D-02 0.17828845D+05 0.17828845D+05 0.17828845D+05 0.12393585D+01  1  2  5  1  6  1        1 -.320177503235D-01 0.100000000000D+01
0.106237969910D-03 0.000000000000D+00 0.485610675707D-04 0.995221091465D-05 0.000000000000D+00  6 1 -1 25 23 21 21 4 0.20036692D+00 0.24233870D-02 0.17828845D+05 0.17828845D+05 0.17828845D+05 0.12393585D+01  1  2  6  1  6  1        1 0.123564043808D+00 0.100000000000D+01
-.242501936565D-05 0.000000000000D+00 -.289913594637D-05 0.995221091465D-05 0.000000000000D+00  6 21 -1 25 23 -1 21 4 0.32041983D+00 0.24233870D-02 0.17828845D+05 0.17828845D+05 0.17828845D+05 0.12393585D+01  3  4  5  4  5  1        1 -.714365484323D-03 0.100000000000D+01
  </mgrwgt>
  </event>
  <event>
  5     66 0.47055975E-03 0.30021759E+02 0.75467711E-02 0.11666870E+00
        1 -1    0    0  502    0 0.00000000E+00 0.00000000E+00 0.85131756E+03 0.85131762E+03 0.32000000E+00 0.0000E+00 0.9000E+01
       -1 -1    0    0    0  501 0.00000000E+00 0.00000000E+00 -.52848217E+02 0.52849186E+02 0.32000000E+00 0.0000E+00 0.9000E+01
       25  1    1    2    0    0 0.10379982E+03 -.83919877E+02 0.29929090E+03 0.35073778E+03 0.12500000E+03 0.0000E+00 0.9000E+01
       23  1    1    2    0    0 -.77086905E+02 0.70220429E+02 0.15474381E+03 0.20768774E+03 0.91188000E+02 0.0000E+00 0.9000E+01
       21  1    1    2  502  501 -.26712919E+02 0.13699448E+02 0.34443463E+03 0.34574128E+03 0.75000000E+00 0.0000E+00 0.9000E+01
#aMCatNLO 1  0  0  5  2 0.13899084D+02 0.00000000D+00  -5  6  0 0.00000000D+00 0.00000000D+00 0.00000000D+00 0.00000000D+00 0.00000000D+00
  <mgrwgt>
 0.6079528233D-01   15    2    0
 0.212111008571602D+03 0.000000000000000D+00 0.000000000000000D+00 0.212111008571602D+03
 0.212111008571602D+03 -.000000000000000D+00 -.000000000000000D+00 -.212111008571602D+03
 0.184222071625513D+03 0.103800239229926D+03 -.839200904377015D+02 -.222643309069423D+02
 0.151397722633732D+03 -.770865630764210D+02 0.702202540149216D+02 -.610966185138362D+02
 0.886022228839595D+02 -.267136761535045D+02 0.136998364227799D+02 0.833609494207786D+02
 0.000000000000000D+00 -.000000000000000D+00 0.000000000000000D+00 0.000000000000000D+00
 0.212111008571602D+03 0.000000000000000D+00 0.000000000000000D+00 0.212111008571602D+03
 0.212111008571602D+03 -.000000000000000D+00 -.000000000000000D+00 -.212111008571602D+03
 0.183445423053901D+03 0.103128742717040D+03 -.835757202981469D+02 -.201689028376186D+02
 0.151125532487986D+03 -.776390821699518D+02 0.705036077981426D+02 -.593724635923956D+02
 0.294886538488282D+02 -.322051175136529D+00 0.157005876302545D+02 0.249593376699244D+02
 0.601624077524891D+02 -.251676093719517D+02 -.262847513025015D+01 0.545820287600898D+02
0.114989987392D-03 0.000000000000D+00 0.000000000000D+00 0.160270698390D-04 0.000000000000D+00  6 1 -1 25 23 21 21 2 0.13097201D+00 0.81305740D-02 0.30873294D+05 0.30873294D+05 0.30873294D+05 0.12135927D+01  1  2  2  3  6  5       21 0.295866804146D-01 0.100000000000D+01
0.161912060624D-04 0.606818834873D-05 -.441591829144D-06 0.160270698390D-04 0.000000000000D+00  6 1 -1 25 23 21 21 4 0.13097201D+00 0.81305740D-02 0.30873294D+05 0.30873294D+05 0.30873294D+05 0.12135927D+01  1  2  3  3  6  5       21 0.613566023757D-02 0.100000000000D+01
0.418369664049D-05 0.000000000000D+00 0.000000000000D+00 0.160270698390D-04 0.000000000000D+00  6 1 -1 25 23 21 21 4 0.13097201D+00 0.81305740D-02 0.30873294D+05 0.30873294D+05 0.30873294D+05 0.12135927D+01  1  2 15  3  6  5       21 0.158541253964D-02 0.100000000000D+01
0.431188581440D-04 0.000000000000D+00 0.000000000000D+00 0.159541060048D-04 0.000000000000D+00  6 1 -1 25 23 21 21 4 0.13097201D+00 0.81305740D-02 0.32818209D+05 0.32818209D+05 0.32818209D+05 0.12108271D+01  1  2 12  3  6  5       21 0.161974066917D-01 0.100000000000D+01
-.128545890860D-03 0.000000000000D+00 0.000000000000D+00 0.160270698390D-04 0.000000000000D+00  6 1 -1 25 23 21 21 4 0.13097201D+00 0.81305740D-02 0.30873294D+05 0.30873294D+05 0.30873294D+05 0.12135927D+01  1  2  4  3  6  5       21 -.487124867792D-01 0.100000000000D+01
-.705648981040D-04 0.000000000000D+00 0.000000000000D+00 0.160270698390D-04 0.000000000000D+00  6 1 -1 25 23 21 21 4 0.13097201D+00 0.81305740D-02 0.30873294D+05 0.30873294D+05 0.30873294D+05 0.12135927D+01  1  2  5  3  6  5       21 -.267405799047D-01 0.100000000000D+01
0.250502524105D-03 0.000000000000D+00 -.000000000000D+00 0.160270698390D-04 0.000000000000D+00  6 1 -1 25 23 21 21 4 0.13097201D+00 0.81305740D-02 0.30873294D+05 0.30873294D+05 0.30873294D+05 0.12135927D+01  1  2  6  3  6  5       21 0.949279732862D-01 0.100000000000D+01
0.382499868404D-05 0.000000000000D+00 0.000000000000D+00 0.159541060048D-04 0.000000000000D+00  6 1 -1 25 23 1 -1 4 0.13097201D+00 0.81305740D-02 0.32818209D+05 0.32818209D+05 0.32818209D+05 0.12108271D+01  1  2 12  6  6  5       21 0.143684369084D-02 0.100000000000D+01
-.118301563680D-04 0.000000000000D+00 0.000000000000D+00 0.160270698390D-04 0.000000000000D+00  6 1 -1 25 23 1 -1 4 0.13097201D+00 0.81305740D-02 0.30873294D+05 0.30873294D+05 0.30873294D+05 0.12135927D+01  1  2  5  6  6  5       21 -.448303972861D-02 0.100000000000D+01
0.382499868404D-05 0.000000000000D+00 0.000000000000D+00 0.159541060048D-04 0.000000000000D+00  6 1 -1 25 23 2 -2 4 0.13097201D+00 0.81305740D-02 0.32818209D+05 0.32818209D+05 0.32818209D+05 0.12108271D+01  1  2 12  7  6  5       21 0.143684369084D-02 0.100000000000D+01
0.382499868404D-05 0.000000000000D+00 0.000000000000D+00 0.159541060048D-04 0.000000000000D+00  6 1 -1 25 23 4 -4 4 0.13097201D+00 0.81305740D-02 0.32818209D+05 0.32818209D+05 0.32818209D+05 0.12108271D+01  1  2 12  7  6  5       21 0.143684369084D-02 0.100000000000D+01
-.118301563680D-04 0.000000000000D+00 0.000000000000D+00 0.160270698390D-04 0.000000000000D+00  6 1 -1 25 23 2 -2 4 0.13097201D+00 0.81305740D-02 0.30873294D+05 0.30873294D+05 0.30873294D+05 0.12135927D+01  1  2  5  7  6  5       21 -.448303972861D-02 0.100000000000D+01
-.118301563680D-04 0.000000000000D+00 0.000000000000D+00 0.160270698390D-04 0.000000000000D+00  6 1 -1 25 23 4 -4 4 0.13097201D+00 0.81305740D-02 0.30873294D+05 0.30873294D+05 0.30873294D+05 0.12135927D+01  1  2  5  7  6  5       21 -.448303972861D-02 0.100000000000D+01
0.382499868404D-05 0.000000000000D+00 0.000000000000D+00 0.159541060048D-04 0.000000000000D+00  6 1 -1 25 23 3 -3 4 0.13097201D+00 0.81305740D-02 0.32818209D+05 0.32818209D+05 0.32818209D+05 0.12108271D+01  1  2 12  8  6  5       21 0.143684369084D-02 0.100000000000D+01
-.118301563680D-04 0.000000000000D+00 0.000000000000D+00 0.160270698390D-04 0.000000000000D+00  6 1 -1 25 23 3 -3 4 0.13097201D+00 0.81305740D-02 0.30873294D+05 0.30873294D+05 0.30873294D+05 0.12135927D+01  1  2  5  8  6  5       21 -.448303972861D-02 0.100000000000D+01
  </mgrwgt>
  </event>
  <event>
  5     66 -.47055975E-03 0.70441251E+02 0.75467711E-02 0.11070351E+00
        1 -1    0    0  502    0 0.00000000E+00 0.00000000E+00 0.66254286E+03 0.66254294E+03 0.32000000E+00 0.0000E+00 0.9000E+01
       -1 -1    0    0    0  501 0.00000000E+00 0.00000000E+00 -.34324016E+03 0.34324031E+03 0.32000000E+00 0.0000E+00 0.9000E+01
       25  1    1    2    0    0 -.85534434E+02 0.21607032E+03 -.22314486E+03 0.34557366E+03 0.12500000E+03 0.0000E+00 0.9000E+01
       23  1    1    2    0    0 0.55444374E+02 -.15237934E+03 0.98104557E+02 0.21031714E+03 0.91188000E+02 0.0000E+00 0.9000E+01
       21  1    1    2  502  501 0.30090060E+02 -.63690979E+02 0.44434301E+03 0.44989246E+03 0.75000000E+00 0.0000E+00 0.9000E+01
#aMCatNLO 1  0  0  5  2 0.14427674D+01 0.00000000D+00  -5  6  0 0.00000000D+00 0.00000000D+00 0.00000000D+00 0.00000000D+00 0.00000000D+00
  <mgrwgt>
 -.2896589022D+00   25    2    0
 0.476876750611537D+03 0.000000000000000D+00 0.000000000000000D+00 0.476876750611537D+03
 0.476876750611537D+03 -.000000000000000D+00 -.000000000000000D+00 -.476876750611537D+03
 0.439131595753918D+03 -.855344705370092D+02 0.216070400533345D+03 -.351011388351853D+03
 0.188946459708374D+03 0.554443584217845D+02 -.152379310290130D+03 0.330451540627258D+02
 0.325675445760782D+03 0.300901121152247D+02 -.636910902432156D+02 0.317966234289127D+03
 0.000000000000000D+00 0.000000000000000D+00 0.000000000000000D+00 0.000000000000000D+00
 0.476876750611537D+03 0.000000000000000D+00 0.000000000000000D+00 0.476876750611537D+03
 0.476876750611537D+03 -.000000000000000D+00 -.000000000000000D+00 -.476876750611537D+03
 0.439122873704007D+03 -.855335697670411D+02 0.216068493893014D+03 -.351001869795271D+03
 0.188947951389412D+03 0.554447460041407D+02 -.152380130677330D+03 0.330492496972589D+02
 0.265346270744051D+03 0.245232332410136D+02 -.533064898874747D+02 0.258777264389781D+03
 0.603364053856044D+02 0.556559052188677D+01 -.103818733282097D+02 0.591753557082311D+02
0.680908654496D-04 0.000000000000D+00 0.000000000000D+00 0.213681228784D-05 0.000000000000D+00  6 1 -1 25 23 21 21 2 0.10192969D+00 0.52806197D-01 0.67689980D+05 0.67689980D+05 0.67689980D+05 0.11794688D+01  1  2  2  3  6  5       21 0.108893391134D-02 0.100000000000D+01
0.624905495792D-05 0.359325368884D-05 -.261486852063D-06 0.213681228784D-05 0.000000000000D+00  6 1 -1 25 23 21 21 4 0.10192969D+00 0.52806197D-01 0.67689980D+05 0.67689980D+05 0.67689980D+05 0.11794688D+01  1  2  3  3  6  5       21 0.139027247896D-03 0.100000000000D+01
0.109113507507D-05 0.000000000000D+00 0.000000000000D+00 0.213681228784D-05 0.000000000000D+00  6 1 -1 25 23 21 21 4 0.10192969D+00 0.52806197D-01 0.67689980D+05 0.67689980D+05 0.67689980D+05 0.11794688D+01  1  2 15  3  6  5       21 0.242752716356D-04 0.100000000000D+01
0.177003566410D-04 0.000000000000D+00 0.000000000000D+00 0.213680410627D-05 0.000000000000D+00  6 1 -1 25 23 21 21 4 0.10192969D+00 0.52806197D-01 0.67693655D+05 0.67693655D+05 0.67693655D+05 0.11794665D+01  1  2 12  3  6  5       21 0.393789093506D-03 0.100000000000D+01
0.177904357599D-04 0.000000000000D+00 0.000000000000D+00 0.213680410627D-05 0.000000000000D+00  6 1 -1 25 23 21 21 4 0.10192969D+00 0.52806197D-01 0.67693655D+05 0.67693655D+05 0.67693655D+05 0.11794665D+01  1  2 12  3  6  5       21 0.395793130786D-03 0.100000000000D+01
-.321960451545D+00 0.000000000000D+00 0.000000000000D+00 0.213681228784D-05 0.000000000000D+00  6 1 -1 25 23 21 21 4 0.10192969D+00 0.52806197D-01 0.67689980D+05 0.67689980D+05 0.67689980D+05 0.11794688D+01  1  2  4  3  6  5       21 -.716288715830D+01 0.100000000000D+01
-.241505093618D+00 0.000000000000D+00 0.000000000000D+00 0.213681228784D-05 0.000000000000D+00  6 1 -1 25 23 21 21 4 0.10192969D+00 0.52806197D-01 0.67689980D+05 0.67689980D+05 0.67689980D+05 0.11794688D+01  1  2  5  3  6  5       21 -.537293858745D+01 0.100000000000D+01
0.282108767727D+00 0.000000000000D+00 -.000000000000D+00 0.213681228784D-05 0.000000000000D+00  6 1 -1 25 23 21 21 4 0.10192969D+00 0.52806197D-01 0.67689980D+05 0.67689980D+05 0.67689980D+05 0.11794688D+01  1  2  6  3  6  5       21 0.627627790899D+01 0.100000000000D+01
0.267888577538D+00 0.000000000000D+00 0.000000000000D+00 0.213681228784D-05 0.695392593485D-05  6 1 -1 25 23 21 21 4 0.10192969D+00 0.52806197D-01 0.67693655D+05 0.67693655D+05 0.67693655D+05 0.11794665D+01  1  2 11  3  6  5       21 0.595985732090D+01 0.100000000000D+01
0.182214522364D-06 0.000000000000D+00 0.000000000000D+00 0.213680410627D-05 0.000000000000D+00  6 1 -1 25 23 1 -1 4 0.10192969D+00 0.52806197D-01 0.67693655D+05 0.67693655D+05 0.67693655D+05 0.11794665D+01  1  2 12  6  6  5       21 0.405382179809D-05 0.100000000000D+01
0.182888739408D-06 0.000000000000D+00 0.000000000000D+00 0.213680410627D-05 0.000000000000D+00  6 1 -1 25 23 1 -1 4 0.10192969D+00 0.52806197D-01 0.67693655D+05 0.67693655D+05 0.67693655D+05 0.11794665D+01  1  2 12  6  6  5       21 0.406882145738D-05 0.100000000000D+01
-.248340212381D-02 0.000000000000D+00 0.000000000000D+00 0.213681228784D-05 0.000000000000D+00  6 1 -1 25 23 1 -1 4 0.10192969D+00 0.52806197D-01 0.67689980D+05 0.67689980D+05 0.67689980D+05 0.11794688D+01  1  2  5  6  6  5       21 -.552500442095D-01 0.100000000000D+01
0.258837064393D-02 0.000000000000D+00 0.000000000000D+00 0.213681228784D-05 0.128116082979D-06  6 1 -1 25 23 1 -1 4 0.10192969D+00 0.52806197D-01 0.67693655D+05 0.67693655D+05 0.67693655D+05 0.11794665D+01  1  2 11  6  6  5       21 0.575848357298D-01 0.100000000000D+01
0.182214522364D-06 0.000000000000D+00 0.000000000000D+00 0.213680410627D-05 0.000000000000D+00  6 1 -1 25 23 2 -2 4 0.10192969D+00 0.52806197D-01 0.67693655D+05 0.67693655D+05 0.67693655D+05 0.11794665D+01  1  2 12  7  6  5       21 0.405382179809D-05 0.100000000000D+01
0.182214522364D-06 0.000000000000D+00 0.000000000000D+00 0.213680410627D-05 0.000000000000D+00  6 1 -1 25 23 4 -4 4 0.10192969D+00 0.52806197D-01 0.67693655D+05 0.67693655D+05 0.67693655D+05 0.11794665D+01  1  2 12  7  6  5       21 0.405382179809D-05 0.100000000000D+01
0.182888739408D-06 0.000000000000D+00 0.000000000000D+00 0.213680410627D-05 0.000000000000D+00  6 1 -1 25 23 2 -2 4 0.10192969D+00 0.52806197D-01 0.67693655D+05 0.67693655D+05 0.67693655D+05 0.11794665D+01  1  2 12  7  6  5       21 0.406882145738D-05 0.100000000000D+01
0.182888739408D-06 0.000000000000D+00 0.000000000000D+00 0.213680410627D-05 0.000000000000D+00  6 1 -1 25 23 4 -4 4 0.10192969D+00 0.52806197D-01 0.67693655D+05 0.67693655D+05 0.67693655D+05 0.11794665D+01  1  2 12  7  6  5       21 0.406882145738D-05 0.100000000000D+01
-.248340212381D-02 0.000000000000D+00 0.000000000000D+00 0.213681228784D-05 0.000000000000D+00  6 1 -1 25 23 2 -2 4 0.10192969D+00 0.52806197D-01 0.67689980D+05 0.67689980D+05 0.67689980D+05 0.11794688D+01  1  2  5  7  6  5       21 -.552500442095D-01 0.100000000000D+01
-.248340212381D-02 0.000000000000D+00 0.000000000000D+00 0.213681228784D-05 0.000000000000D+00  6 1 -1 25 23 4 -4 4 0.10192969D+00 0.52806197D-01 0.67689980D+05 0.67689980D+05 0.67689980D+05 0.11794688D+01  1  2  5  7  6  5       21 -.552500442095D-01 0.100000000000D+01
0.256712268987D-02 0.000000000000D+00 0.000000000000D+00 0.213681228784D-05 0.127051085551D-06  6 1 -1 25 23 2 -2 4 0.10192969D+00 0.52806197D-01 0.67693655D+05 0.67693655D+05 0.67693655D+05 0.11794665D+01  1  2 11  7  6  5       21 0.571121213807D-01 0.100000000000D+01
0.256712268987D-02 0.000000000000D+00 0.000000000000D+00 0.213681228784D-05 0.127051085551D-06  6 1 -1 25 23 4 -4 4 0.10192969D+00 0.52806197D-01 0.67693655D+05 0.67693655D+05 0.67693655D+05 0.11794665D+01  1  2 11  7  6  5       21 0.571121213807D-01 0.100000000000D+01
0.182214522364D-06 0.000000000000D+00 0.000000000000D+00 0.213680410627D-05 0.000000000000D+00  6 1 -1 25 23 3 -3 4 0.10192969D+00 0.52806197D-01 0.67693655D+05 0.67693655D+05 0.67693655D+05 0.11794665D+01  1  2 12  8  6  5       21 0.405382179809D-05 0.100000000000D+01
0.182888739408D-06 0.000000000000D+00 0.000000000000D+00 0.213680410627D-05 0.000000000000D+00  6 1 -1 25 23 3 -3 4 0.10192969D+00 0.52806197D-01 0.67693655D+05 0.67693655D+05 0.67693655D+05 0.11794665D+01  1  2 12  8  6  5       21 0.406882145738D-05 0.100000000000D+01
-.248340212381D-02 0.000000000000D+00 0.000000000000D+00 0.213681228784D-05 0.000000000000D+00  6 1 -1 25 23 3 -3 4 0.10192969D+00 0.52806197D-01 0.67689980D+05 0.67689980D+05 0.67689980D+05 0.11794688D+01  1  2  5  8  6  5       21 -.552500442095D-01 0.100000000000D+01
0.256875349782D-02 0.000000000000D+00 0.000000000000D+00 0.213681228784D-05 0.127131796895D-06  6 1 -1 25 23 3 -3 4 0.10192969D+00 0.52806197D-01 0.67693655D+05 0.67693655D+05 0.67693655D+05 0.11794665D+01  1  2 11  8  6  5       21 0.571484028183D-01 0.100000000000D+01
  </mgrwgt>
  </event>
  <event>
  6     66 -.47055975E-03 0.69392988E+02 0.75467711E-02 0.11798154E+00
        1 -1    0    0  502    0 0.00000000E+00 0.00000000E+00 0.40288792E+03 0.40288805E+03 0.32000000E+00 0.0000E+00 0.9000E+01
       -1 -1    0    0    0  501 0.00000000E+00 0.00000000E+00 -.13627934E+03 0.13627972E+03 0.32000000E+00 0.0000E+00 0.9000E+01
       25  1    1    2    0    0 -.17594270E+02 0.90950761E+02 -.54305156E+02 0.16478971E+03 0.12500000E+03 0.0000E+00 0.9000E+01
       23  1    1    2    0    0 0.74940531E-03 -.98151597E+01 0.10690668E+03 0.14085676E+03 0.91188000E+02 0.0000E+00 0.9000E+01
       21  1    1    2  502  503 0.26110904E+02 -.71391192E+02 0.14942622E+03 0.16765214E+03 0.75000000E+00 0.0000E+00 0.9000E+01
       21  1    1    2  503  501 -.85173839E+01 -.97444087E+01 0.64580835E+02 0.65869159E+02 0.75000000E+00 0.0000E+00 0.9000E+01
#aMCatNLO 2  0  0  5  1 0.18776069D+02 0.00000000D+00  -5  6  0 0.00000000D+00 0.00000000D+00 0.00000000D+00 0.00000000D+00 0.00000000D+00
  <mgrwgt>
 -.6174705568D-02    3    2    0
 0.234319092514895D+03 0.000000000000000D+00 0.000000000000000D+00 0.234319092514895D+03
 0.234319092514895D+03 -.000000000000000D+00 -.000000000000000D+00 -.234319092514895D+03
 0.222992692078726D+03 -.179762634051962D+02 0.927123917802244D+02 -.158688396188552D+03
 0.100692066303418D+03 -.173183648781461D+00 -.901303691909000D+01 0.417417781769169D+02
 0.144953426647646D+03 0.181494470539777D+02 -.836993548611344D+02 0.116946618011635D+03
 0.000000000000000D+00 0.000000000000000D+00 0.000000000000000D+00 0.000000000000000D+00
 0.234319092514895D+03 0.000000000000000D+00 0.000000000000000D+00 0.234319092514895D+03
 0.234319092514895D+03 -.000000000000000D+00 -.000000000000000D+00 -.234319092514895D+03
 0.220476909691739D+03 -.175930890401421D+02 0.909453160638694D+02 -.156219398319439D+03
 0.101238001948937D+03 0.129150211733511D-02 -.981765964539658D+01 0.428660151172490D+02
 0.107604670241324D+03 0.261364253626917D+02 -.712733548065899D+02 0.762611383446277D+02
 0.393186031477903D+02 -.854462782466693D+01 -.985430161188298D+01 0.370922448575627D+02
-.445527856295D-04 0.000000000000D+00 0.000000000000D+00 0.187191420328D-05 0.000000000000D+00  6 1 -1 25 23 21 21 4 0.61982796D-01 0.20966092D-01 0.28266645D+05 0.28266645D+05 0.28266645D+05 0.12176205D+01  1  2 13  3  6  5       21 -.109263460752D-01 0.100000000000D+01
-.578500793694D-04 0.000000000000D+00 0.000000000000D+00 0.187191420328D-05 0.000000000000D+00  6 1 -1 25 23 21 21 4 0.61982796D-01 0.20966092D-01 0.28266645D+05 0.28266645D+05 0.28266645D+05 0.12176205D+01  1  2 13  3  6  5       21 -.141874403303D-01 0.100000000000D+01
0.772251585997D-04 0.000000000000D+00 0.000000000000D+00 0.187386386372D-05 0.705861039115D-07  6 1 -1 25 23 21 21 4 0.61982796D-01 0.20966092D-01 0.28266645D+05 0.28266645D+05 0.28266645D+05 0.12176205D+01  1  2  1  3  6  5       21 0.189390808375D-01 0.100000000000D+01
  </mgrwgt>
  </event>
  <event>
  5     66 0.47055975E-03 0.20913140E+02 0.75467711E-02 0.11855607E+00
        1 -1    0    0  502    0 0.00000000E+00 0.00000000E+00 0.14049783E+04 0.14049783E+04 0.32000000E+00 0.0000E+00 0.9000E+01
       -1 -1    0    0    0  501 0.00000000E+00 0.00000000E+00 -.16210955E+02 0.16214113E+02 0.32000000E+00 0.0000E+00 0.9000E+01
       25  1    1    2    0    0 -.75469231E+02 -.13004258E+02 0.49882448E+03 0.51991882E+03 0.12500000E+03 0.0000E+00 0.9000E+01
       23  1    1    2    0    0 0.63515859E+02 0.30158416E+02 0.62594828E+03 0.63645133E+03 0.91188000E+02 0.0000E+00 0.9000E+01
       21  1    1    2  502  501 0.11953372E+02 -.17154158E+02 0.26399458E+03 0.26482230E+03 0.75000000E+00 0.0000E+00 0.9000E+01
#aMCatNLO 1  0  0  1  5 0.15244534D+02 0.00000000D+00  -5  6  0 0.00000000D+00 0.00000000D+00 0.00000000D+00 0.00000000D+00 0.00000000D+00
  <mgrwgt>
 0.1928812128D+00    7    4    0
 0.150924849110586D+03 0.000000000000000D+00 0.000000000000000D+00 0.150924849110586D+03
 0.150924849110586D+03 0.000000000000000D+00 0.000000000000000D+00 -.150924849110586D+03
 0.152903986459049D+03 -.754708682302880D+02 -.130019085183826D+02 -.434709960607649D+02
 0.116690864790258D+03 0.635146091000047D+02 0.301602097335955D+02 0.189146176592994D+02
 0.322548469718649D+02 0.119562591302833D+02 -.171583012152129D+02 0.245563784014655D+02
 0.000000000000000D+00 0.000000000000000D+00 0.000000000000000D+00 0.000000000000000D+00
 0.229938888528684D+03 0.000000000000000D+00 0.000000000000000D+00 0.229938888528684D+03
 0.157190221008480D+03 0.000000000000000D+00 0.000000000000000D+00 -.157190221008480D+03
 0.159724164296651D+03 -.836643973260690D+02 -.315808451725755D+02 -.434709960607649D+02
 0.110736302886221D+03 0.575540738410272D+02 0.166446164273302D+02 0.189146176592994D+02
 0.339467878322135D+02 0.102212105761326D+02 -.210925469843667D+02 0.245563784014655D+02
 0.827218545220786D+02 0.158891129089091D+02 0.360287757296119D+02 0.727486675202041D+02
 0.150924849110586D+03 0.000000000000000D+00 0.000000000000000D+00 0.150924849110586D+03
 0.150924849110586D+03 0.000000000000000D+00 0.000000000000000D+00 -.150924849110586D+03
 0.152903986459049D+03 -.754708682302880D+02 -.130019085183826D+02 -.434709960607649D+02
 0.116690864790258D+03 0.635146091000047D+02 0.301602097335955D+02 0.189146176592994D+02
 0.000000000000000D+00 0.000000000000000D+00 0.000000000000000D+00 0.000000000000000D+00
 0.322548469718649D+02 0.119562591302833D+02 -.171583012152129D+02 0.245563784014655D+02
 0.229938888528684D+03 0.000000000000000D+00 0.000000000000000D+00 0.229938888528684D+03
 0.157190221008480D+03 0.000000000000000D+00 0.000000000000000D+00 -.157190221008480D+03
 0.159724164296651D+03 -.836643973260690D+02 -.315808451725755D+02 -.434709960607649D+02
 0.110736302886221D+03 0.575540738410272D+02 0.166446164273302D+02 0.189146176592994D+02
 0.827218545220786D+02 0.158891129089091D+02 0.360287757296119D+02 0.727486675202041D+02
 0.339467878322135D+02 0.102212105761326D+02 -.210925469843667D+02 0.245563784014655D+02
0.739780722930D-04 0.000000000000D+00 0.000000000000D+00 0.347741134967D-04 0.000000000000D+00  6 1 -1 25 23 21 21 2 0.21615075D+00 0.24942388D-02 0.19973490D+05 0.19973490D+05 0.19973490D+05 0.12338895D+01  1  2  2  1  6  1        1 0.456180858346D-01 0.100000000000D+01
0.139348909795D-04 0.390393012933D-05 -.284095276479D-06 0.347741134967D-04 0.000000000000D+00  6 1 -1 25 23 21 21 4 0.21615075D+00 0.24942388D-02 0.19973490D+05 0.19973490D+05 0.19973490D+05 0.12338895D+01  1  2  3  1  6  1        1 0.130824817536D-01 0.100000000000D+01
0.214723864713D-05 0.000000000000D+00 0.000000000000D+00 0.347741134967D-04 0.000000000000D+00  6 1 -1 25 23 21 21 4 0.21615075D+00 0.24942388D-02 0.19973490D+05 0.19973490D+05 0.19973490D+05 0.12338895D+01  1  2 15  1  6  1        1 0.201589021852D-02 0.100000000000D+01
-.622547824610D-04 0.000000000000D+00 0.000000000000D+00 0.347741134967D-04 0.000000000000D+00  6 1 -1 25 23 21 21 4 0.21615075D+00 0.24942388D-02 0.19973490D+05 0.19973490D+05 0.19973490D+05 0.12338895D+01  1  2  4  1  6  1        1 -.584466040547D-01 0.100000000000D+01
-.312605012537D-03 0.000000000000D+00 -.475609121437D-04 0.347741134967D-04 0.000000000000D+00  6 1 -1 25 23 21 21 4 0.33345031D+00 0.24942388D-02 0.19973490D+05 0.19973490D+05 0.19973490D+05 0.12338895D+01  1  2  5  1  6  1        1 -.952770396664D-01 0.100000000000D+01
0.307971798442D-03 0.000000000000D+00 0.434167895625D-04 0.347741134967D-04 0.000000000000D+00  6 1 -1 25 23 21 21 4 0.21615075D+00 0.24942388D-02 0.19973490D+05 0.19973490D+05 0.19973490D+05 0.12338895D+01  1  2  6  1  6  1        1 0.289132899545D+00 0.100000000000D+01
-.139887881891D-04 0.000000000000D+00 -.240298210103D-05 0.347741134967D-04 0.000000000000D+00  6 21 -1 25 23 -1 21 4 0.33345031D+00 0.24942388D-02 0.19973490D+05 0.19973490D+05 0.19973490D+05 0.12338895D+01  3  4  5  4  5  1        1 -.324450083278D-02 0.100000000000D+01
  </mgrwgt>
  </event>
  <event>
  6     66 0.47055975E-03 0.36835840E+02 0.75467711E-02 0.11907903E+00
        1 -1    0    0  502    0 0.00000000E+00 0.00000000E+00 0.45782820E+03 0.45782832E+03 0.32000000E+00 0.0000E+00 0.9000E+01
       21 -1    0    0  503  501 0.00000000E+00 0.00000000E+00 -.23247163E+03 0.23247284E+03 0.75000000E+00 0.0000E+00 0.9000E+01
       25  1    1    2    0    0 -.65690545E+02 0.76132448E+01 0.28488764E+03 0.31805530E+03 0.12500000E+03 0.0000E+00 0.9000E+01
       23  1    1    2    0    0 0.62544424E+02 -.56893305E+02 0.68845026E+02 0.14213916E+03 0.91188000E+02 0.0000E+00 0.9000E+01
        1  1    1    2  503    0 -.35516531E+01 0.84241974E+01 -.17067127E+03 0.17091626E+03 0.32000000E+00 0.0000E+00 0.9000E+01
       21  1    1    2  502  501 0.66977736E+01 0.40855863E+02 0.42295185E+02 0.59190429E+02 0.75000000E+00 0.0000E+00 0.9000E+01
#aMCatNLO 2  0  0  2  5 0.91422832D+01 0.00000000D+00  -5  6  0 0.00000000D+00 0.00000000D+00 0.00000000D+00 0.00000000D+00 0.00000000D+00
  <mgrwgt>
 0.3005841873D-01    2    2    0
 0.167957607519469D+03 0.000000000000000D+00 0.000000000000000D+00 0.167957607519469D+03
 0.167957607519469D+03 0.000000000000000D+00 0.000000000000000D+00 -.167957607519469D+03
 0.156787069150575D+03 -.673434233266492D+02 0.115296186863286D+02 0.654913450802681D+02
 0.136520215438645D+03 0.610901028507143D+02 -.534473611801910D+02 -.611056200032169D+02
 0.000000000000000D+00 -.000000000000000D+00 0.000000000000000D+00 -.000000000000000D+00
 0.426079304497176D+02 0.625332047593497D+01 0.419177424938623D+02 -.438572507705123D+01
 0.168064711024967D+03 0.000000000000000D+00 0.000000000000000D+00 0.168064711024967D+03
 0.633282582663482D+03 0.000000000000000D+00 0.000000000000000D+00 -.633282582663482D+03
 0.155843955440200D+03 -.656909953426143D+02 0.761021009702790D+01 0.654913450802681D+02
 0.138557048128548D+03 0.625440384243995D+02 -.568959638611240D+02 -.611056200032169D+02
 0.465307693288941D+03 -.355165307886812D+01 0.842419743433597D+01 -.465217871638515D+03
 0.416385968307610D+02 0.669860999708294D+01 0.408615563297601D+02 -.438572507705123D+01
-.586148673886D-03 0.000000000000D+00 0.000000000000D+00 0.683529713736D-05 0.000000000000D+00  6 1 21 25 23 1 21 4 0.70390300D-01 0.35793692D-01 0.25014476D+05 0.25014476D+05 0.25014476D+05 0.12232707D+01  1  2 13  5  5  2       -1 -.560446480333D+00 0.100000000000D+01
0.617111601950D-03 0.000000000000D+00 0.000000000000D+00 0.686684684499D-05 0.217737933297D-06  6 1 21 25 23 1 21 4 0.70435187D-01 0.35764956D-01 0.25014476D+05 0.25014476D+05 0.25014476D+05 0.12232707D+01  1  2  1  5  5  2       -1 0.590504899058D+00 0.100000000000D+01
  </mgrwgt>
  </event>
  <event>
  6     66 0.47055975E-03 0.24159501E+02 0.75467711E-02 0.10980939E+00
        1 -1    0    0  502    0 0.00000000E+00 0.00000000E+00 0.97727876E+03 0.97727881E+03 0.32000000E+00 0.0000E+00 0.9000E+01
       21 -1    0    0  503  501 0.00000000E+00 0.00000000E+00 -.21603625E+03 0.21603755E+03 0.75000000E+00 0.0000E+00 0.9000E+01
       25  1    1    2    0    0 0.18857632E+03 -.56835209E+02 0.64698385E+03 0.68775313E+03 0.12500000E+03 0.0000E+00 0.9000E+01
       23  1    1    2    0    0 -.22280746E+03 -.75213040E+00 0.24630871E+03 0.34442266E+03 0.91188000E+02 0.0000E+00 0.9000E+01
        1  1    1    2  503    0 0.25546906E+01 0.41782250E+02 -.11390466E+03 0.12135344E+03 0.32000000E+00 0.0000E+00 0.9000E+01
       21  1    1    2  502  501 0.31676449E+02 0.15805090E+02 -.18145394E+02 0.39787135E+02 0.75000000E+00 0.0000E+00 0.9000E+01
#aMCatNLO 2  0  0  2  2 0.41860277D+02 0.00000000D+00  -5  6  0 0.00000000D+00 0.00000000D+00 0.00000000D+00 0.00000000D+00 0.00000000D+00
  <mgrwgt>
 0.3817400313D+00    1    2    0
 0.308816151314689D+03 0.000000000000000D+00 0.000000000000000D+00 0.308816151314689D+03
 0.308816151314689D+03 0.000000000000000D+00 0.000000000000000D+00 -.308816151314689D+03
 0.273863694156132D+03 0.189712385699393D+03 -.382480063826824D+02 0.148062904526551D+03
 0.247803357518764D+03 -.221783219027645D+03 0.160056689646394D+02 -.603926731673818D+02
 0.000000000000000D+00 0.000000000000000D+00 0.000000000000000D+00 -.000000000000000D+00
 0.959652509544829D+02 0.320708333282527D+02 0.222423374180430D+02 -.876702313591692D+02
 0.310708647761412D+03 0.000000000000000D+00 0.000000000000000D+00 0.310708647761412D+03
 0.679505881858718D+03 0.000000000000000D+00 0.000000000000000D+00 -.679505881858718D+03
 0.276294711975713D+03 0.188575888970096D+03 -.568355370172713D+02 0.148062904526551D+03
 0.248206433898159D+03 -.222807857566948D+03 -.752408509521128D+00 -.603926731673818D+02
 0.371165303734414D+03 0.255469060669357D+01 0.417822495126900D+02 -.368797234097306D+03
 0.945480800118450D+02 0.316772779901585D+02 0.158056960141024D+02 -.876702313591692D+02
0.127661126759D-02 0.000000000000D+00 0.000000000000D+00 0.597478821915D-05 0.416211481553D-08  6 1 21 25 23 1 21 4 0.15035065D+00 0.33236443D-01 0.75977850D+05 0.75977850D+05 0.75977850D+05 0.11746938D+01  1  2  1  5  5  2       -1 0.381740031342D+00 0.100000000000D+01
  </mgrwgt>
  </event>
  <event>
  5     66 -.47055975E-03 0.21098294E+02 0.75467711E-02 0.12265591E+00
        1 -1    0    0  502    0 0.00000000E+00 0.00000000E+00 0.23980276E+02 0.23982411E+02 0.32000000E+00 0.0000E+00 0.9000E+01
       -1 -1    0    0    0  501 -.00000000E+00 -.00000000E+00 -.86914409E+03 0.86914415E+03 0.32000000E+00 0.0000E+00 0.9000E+01
       25  1    1    2    0    0 -.35567239E+02 0.18133744E+02 -.45901754E+03 0.47740545E+03 0.12500000E+03 0.0000E+00 0.9000E+01
       23  1    1    2    0    0 0.48023602E+02 -.35159435E+02 -.37753094E+03 0.39292151E+03 0.91188000E+02 0.0000E+00 0.9000E+01
       21  1    1    2  502  501 -.12456363E+02 0.17025691E+02 -.86153316E+01 0.22799596E+02 0.75000000E+00 0.0000E+00 0.9000E+01
#aMCatNLO 1  0  0  5  2 0.24166785D+01 0.00000000D+00  -5  6  0 0.00000000D+00 0.00000000D+00 0.00000000D+00 0.00000000D+00 0.00000000D+00
  <mgrwgt>
 -.8489019499D+00    9    2    0
 0.144372070569542D+03 0.000000000000000D+00 0.000000000000000D+00 0.144372070569542D+03
 0.144372070569542D+03 -.000000000000000D+00 -.000000000000000D+00 -.144372070569542D+03
 0.133123019852646D+03 -.355664520820114D+02 0.181326677827593D+02 -.224270430522166D+02
 0.110317077397268D+03 0.480242544580617D+02 -.351603265726280D+02 -.176643324393648D+02
 0.453040438891705D+02 -.124578023760502D+02 0.170276587898688D+02 0.400913754915814D+02
 0.000000000000000D+00 0.000000000000000D+00 0.000000000000000D+00 -.000000000000000D+00
 0.144372070569542D+03 0.000000000000000D+00 0.000000000000000D+00 0.144372070569542D+03
 0.144372070569542D+03 -.000000000000000D+00 -.000000000000000D+00 -.144372070569542D+03
 0.133096272568054D+03 -.359497345063109D+02 0.186565484917415D+02 -.211935735262065D+02
 0.109882761744528D+03 0.477072273658130D+02 -.347270054305033D+02 -.166440840991938D+02
 0.433018009264708D+02 -.990335995779989D+01 0.153160437117920D+02 0.392732508208887D+02
 0.246330590003242D+01 -.185413290170223D+01 0.754413226969901D+00 -.143559319548842D+01
0.633088824348D-03 0.000000000000D+00 0.000000000000D+00 0.422787877227D-04 0.000000000000D+00  6 1 -1 25 23 21 21 2 0.36894420D-02 0.13371464D+00 0.17057960D+05 0.17057960D+05 0.17057960D+05 0.12415070D+01  1  2  2  3  6  5       21 0.123238321208D+00 0.100000000000D+01
0.946179387093D-04 0.334090151217D-04 -.243122778161D-05 0.422787877227D-04 0.000000000000D+00  6 1 -1 25 23 21 21 4 0.36894420D-02 0.13371464D+00 0.17057960D+05 0.17057960D+05 0.17057960D+05 0.12415070D+01  1  2  3  3  6  5       21 0.283891867041D-01 0.100000000000D+01
0.123998656038D-04 0.000000000000D+00 0.000000000000D+00 0.422787877227D-04 0.000000000000D+00  6 1 -1 25 23 21 21 4 0.36894420D-02 0.13371464D+00 0.17057960D+05 0.17057960D+05 0.17057960D+05 0.12415070D+01  1  2 15  3  6  5       21 0.372045834579D-02 0.100000000000D+01
0.515691455543D-06 0.000000000000D+00 0.000000000000D+00 0.423032123643D-04 0.000000000000D+00  6 1 -1 25 23 21 21 4 0.36894420D-02 0.13371464D+00 0.16932984D+05 0.16932984D+05 0.16932984D+05 0.12418656D+01  1  2 12  3  6  5       21 0.154884856358D-03 0.100000000000D+01
-.334768125035D-02 0.000000000000D+00 0.000000000000D+00 0.422787877227D-04 0.000000000000D+00  6 1 -1 25 23 21 21 4 0.36894420D-02 0.13371464D+00 0.17057960D+05 0.17057960D+05 0.17057960D+05 0.12415070D+01  1  2  4  3  6  5       21 -.100443900320D+01 0.100000000000D+01
0.284692006231D-07 0.000000000000D+00 0.000000000000D+00 0.423032123643D-04 0.000000000000D+00  6 1 -1 25 23 1 -1 4 0.36894420D-02 0.13371464D+00 0.16932984D+05 0.16932984D+05 0.16932984D+05 0.12418656D+01  1  2 12  6  6  5       21 0.855055479731D-05 0.100000000000D+01
0.284692006231D-07 0.000000000000D+00 0.000000000000D+00 0.423032123643D-04 0.000000000000D+00  6 1 -1 25 23 2 -2 4 0.36894420D-02 0.13371464D+00 0.16932984D+05 0.16932984D+05 0.16932984D+05 0.12418656D+01  1  2 12  7  6  5       21 0.855055479731D-05 0.100000000000D+01
0.284692006231D-07 0.000000000000D+00 0.000000000000D+00 0.423032123643D-04 0.000000000000D+00  6 1 -1 25 23 4 -4 4 0.36894420D-02 0.13371464D+00 0.16932984D+05 0.16932984D+05 0.16932984D+05 0.12418656D+01  1  2 12  7  6  5       21 0.855055479731D-05 0.100000000000D+01
0.284692006231D-07 0.000000000000D+00 0.000000000000D+00 0.423032123643D-04 0.000000000000D+00  6 1 -1 25 23 3 -3 4 0.36894420D-02 0.13371464D+00 0.16932984D+05 0.16932984D+05 0.16932984D+05 0.12418656D+01  1  2 12  8  6  5       21 0.855055479731D-05 0.100000000000D+01
  </mgrwgt>
  </event>
  <event>
  5     66 0.47055975E-03 0.48909181E+02 0.75467711E-02 0.99970188E-01
        1 -1    0    0  502    0 0.00000000E+00 0.00000000E+00 0.14286671E+03 0.14286707E+03 0.32000000E+00 0.0000E+00 0.9000E+01
       -1 -1    0    0    0  501 0.00000000E+00 0.00000000E+00 -.15519982E+03 0.15520015E+03 0.32000000E+00 0.0000E+00 0.9000E+01
       25  1    1    2    0    0 0.25638300E+02 -.46177752E+02 -.50935962E+02 0.14494544E+03 0.12500000E+03 0.0000E+00 0.9000E+01
       23  1    1    2    0    0 0.83718872E+01 0.11035847E+02 0.46963440E+02 0.10350215E+03 0.91188000E+02 0.0000E+00 0.9000E+01
       21  1    1    2  502  501 -.34010187E+02 0.35141905E+02 -.83605861E+01 0.49619635E+02 0.75000000E+00 0.0000E+00 0.9000E+01
#aMCatNLO 1  0  0  2  2 0.46249109D+03 0.00000000D+00  -5  6  0 0.00000000D+00 0.00000000D+00 0.00000000D+00 0.00000000D+00 0.00000000D+00
  <mgrwgt>
 0.2755549594D-01    5    4    0
 0.148905978156690D+03 0.000000000000000D+00 0.000000000000000D+00 0.148905978156690D+03
 0.148905978156690D+03 0.000000000000000D+00 0.000000000000000D+00 -.148905978156690D+03
 0.142961150929509D+03 0.256401881767488D+02 -.461797035137874D+02 -.449767318591446D+02
 0.105535816215682D+03 0.837328116865535D+01 0.110344070475855D+02 0.512902250325443D+02
 0.493149891681884D+02 -.340134693454042D+02 0.351452964662020D+02 -.631349317339972D+01
 0.000000000000000D+00 -.000000000000000D+00 -.000000000000000D+00 -.000000000000000D+00
 0.350137641869304D+03 0.000000000000000D+00 0.000000000000000D+00 0.350137641869304D+03
 0.169260879141806D+04 0.000000000000000D+00 0.000000000000000D+00 -.169260879141806D+04
 0.285979523344556D+03 0.239670129883392D+03 0.818205976837633D+02 -.449767318591446D+02
 0.235885854225066D+03 0.178733577136130D+03 0.112918138931366D+03 0.512902250325443D+02
 0.800879839895530D+02 0.305551585854637D+02 0.737604722549788D+02 -.631349317339972D+01
 0.144079307172819D+04 -.448958865604986D+03 -.268499208870108D+03 -.134247114954875D+04
 0.148905978156690D+03 0.000000000000000D+00 0.000000000000000D+00 0.148905978156690D+03
 0.148905978156690D+03 0.000000000000000D+00 0.000000000000000D+00 -.148905978156690D+03
 0.142961150929509D+03 0.256401881767488D+02 -.461797035137874D+02 -.449767318591446D+02
 0.105535816215682D+03 0.837328116865535D+01 0.110344070475855D+02 0.512902250325443D+02
 0.000000000000000D+00 -.000000000000000D+00 -.000000000000000D+00 -.000000000000000D+00
 0.493149891681884D+02 -.340134693454042D+02 0.351452964662020D+02 -.631349317339972D+01
 0.350137641869304D+03 0.000000000000000D+00 0.000000000000000D+00 0.350137641869304D+03
 0.169260879141806D+04 0.000000000000000D+00 0.000000000000000D+00 -.169260879141806D+04
 0.285979523344556D+03 0.239670129883392D+03 0.818205976837633D+02 -.449767318591446D+02
 0.235885854225066D+03 0.178733577136130D+03 0.112918138931366D+03 0.512902250325443D+02
 0.144079307172819D+04 -.448958865604986D+03 -.268499208870108D+03 -.134247114954875D+04
 0.800879839895530D+02 0.305551585854637D+02 0.737604722549788D+02 -.631349317339972D+01
0.510041120020D-04 0.000000000000D+00 0.000000000000D+00 0.661502598075D-05 0.000000000000D+00  6 1 -1 25 23 21 21 2 0.21979547D-01 0.23876948D-01 0.19160797D+05 0.19160797D+05 0.19160797D+05 0.12358808D+01  1  2  2  2  6  2       -1 0.255431375857D-01 0.100000000000D+01
0.468302251906D-06 0.269156093681D-05 -.195869219779D-06 0.661502598075D-05 0.000000000000D+00  6 1 -1 25 23 21 21 4 0.21979547D-01 0.23876948D-01 0.19160797D+05 0.19160797D+05 0.19160797D+05 0.12358808D+01  1  2  3  2  6  2       -1 0.358218895464D-03 0.100000000000D+01
0.205038706709D-05 0.000000000000D+00 0.000000000000D+00 0.661502598075D-05 0.000000000000D+00  6 1 -1 25 23 21 21 4 0.21979547D-01 0.23876948D-01 0.19160797D+05 0.19160797D+05 0.19160797D+05 0.12358808D+01  1  2 15  2  6  2       -1 0.156840456662D-02 0.100000000000D+01
0.114227218508D-03 0.000000000000D+00 -.110012921499D-03 0.661502598075D-05 0.000000000000D+00  6 1 -1 25 23 21 21 4 0.21979547D-01 0.41664554D+00 0.19160797D+05 0.19160797D+05 0.19160797D+05 0.12358808D+01  1  2  5  2  6  2       -1 0.449721437371D-04 0.100000000000D+01
0.946258769871D-05 0.000000000000D+00 -.345750701592D-04 0.661502598075D-05 0.000000000000D+00  6 1 21 25 23 1 21 4 0.21979547D-01 0.41664554D+00 0.19160797D+05 0.19160797D+05 0.19160797D+05 0.12358808D+01  3  4  5  5  5  2       -1 0.407627459289D-04 0.100000000000D+01
  </mgrwgt>
  </event>
  <event>
  6     66 -.47055975E-03 0.76504303E+02 0.75467711E-02 0.11633541E+00
        1 -1    0    0  502    0 0.00000000E+00 0.00000000E+00 0.75776727E+03 0.75776734E+03 0.32000000E+00 0.0000E+00 0.9000E+01
       -1 -1    0    0    0  501 0.00000000E+00 0.00000000E+00 -.50709553E+02 0.50710563E+02 0.32000000E+00 0.0000E+00 0.9000E+01
       25  1    1    2    0    0 0.28168489E+02 0.65427725E+01 0.33978236E+03 0.36319874E+03 0.12500000E+03 0.0000E+00 0.9000E+01
       23  1    1    2    0    0 -.11221809E+03 0.12237369E+02 0.27362636E+03 0.30972454E+03 0.91188000E+02 0.0000E+00 0.9000E+01
       21  1    1    2  502  503 0.82868831E+02 -.59969047E+01 0.89307563E+02 0.12198200E+03 0.75000000E+00 0.0000E+00 0.9000E+01
       21  1    1    2  503  501 0.11807738E+01 -.12783237E+02 0.43414303E+01 0.13572616E+02 0.75000000E+00 0.0000E+00 0.9000E+01
#aMCatNLO 2  0  0  5  1 0.16802232D+02 0.00000000D+00  -5  6  0 0.00000000D+00 0.00000000D+00 0.00000000D+00 0.00000000D+00 0.00000000D+00
  <mgrwgt>
 -.2977518349D-01    3    2    0
 0.196026720888308D+03 0.000000000000000D+00 0.000000000000000D+00 0.196026720888308D+03
 0.196026720888308D+03 -.000000000000000D+00 -.000000000000000D+00 -.196026720888308D+03
 0.136262374626421D+03 0.251065918100844D+02 0.722692644296648D+01 0.475380407747412D+02
 0.147939123897136D+03 -.115512793585365D+03 0.129735408951965D+02 0.769511469684191D+01
 0.107851943253059D+03 0.904062017752809D+02 -.202004673381629D+02 -.552331554715831D+02
 0.000000000000000D+00 0.000000000000000D+00 0.000000000000000D+00 -.000000000000000D+00
 0.196026720888308D+03 0.000000000000000D+00 0.000000000000000D+00 0.196026720888308D+03
 0.196026720888308D+03 -.000000000000000D+00 -.000000000000000D+00 -.196026720888308D+03
 0.136186379631557D+03 0.281907104335481D+02 0.653780737483933D+01 0.456538160193865D+02
 0.145205309495452D+03 -.112194399970929D+03 0.122320751494038D+02 0.566776096642364D+01
 0.903141310762264D+02 0.827781259889718D+02 -.586524155450620D+01 -.356373830592963D+02
 0.203476215733804D+02 0.122556354840933D+01 -.129046409697370D+02 -.156841939265138D+02
-.881158076618D-04 0.000000000000D+00 0.000000000000D+00 0.207892691757D-05 0.000000000000D+00  6 1 -1 25 23 21 21 4 0.11657966D+00 0.78015526D-02 0.34104695D+05 0.34104695D+05 0.34104695D+05 0.12090963D+01  1  2 13  3  6  5       21 -.418737848963D-01 0.100000000000D+01
-.688207073173D-04 0.000000000000D+00 0.000000000000D+00 0.207892691757D-05 0.000000000000D+00  6 1 -1 25 23 21 21 4 0.11657966D+00 0.78015526D-02 0.34104695D+05 0.34104695D+05 0.34104695D+05 0.12090963D+01  1  2 13  3  6  5       21 -.327045007143D-01 0.100000000000D+01
0.942800260070D-04 0.000000000000D+00 0.000000000000D+00 0.207999447141D-05 0.609338278238D-07  6 1 -1 25 23 21 21 4 0.11657966D+00 0.78015526D-02 0.34104695D+05 0.34104695D+05 0.34104695D+05 0.12090963D+01  1  2  1  3  6  5       21 0.448031021197D-01 0.100000000000D+01
  </mgrwgt>
  </event>
  <event>
  5     66 -.47055975E-03 0.22082979E+02 0.75467711E-02 0.12016786E+00
        3 -1    0    0  502    0 0.00000000E+00 0.00000000E+00 0.33345099E+02 0.33348847E+02 0.50000000E+00 0.0000E+00 0.9000E+01
       -3 -1    0    0    0  501 0.00000000E+00 0.00000000E+00 -.87730325E+03 0.87730339E+03 0.50000000E+00 0.0000E+00 0.9000E+01
       25  1    1    2    0    0 0.49985332E+02 -.33545923E+02 -.61389913E+03 0.62938145E+03 0.12500000E+03 0.0000E+00 0.9000E+01
       23  1    1    2    0    0 -.49126668E+02 0.11480465E+02 -.23634336E+03 0.25829956E+03 0.91188000E+02 0.0000E+00 0.9000E+01
       21  1    1    2  502  501 -.85866359E+00 0.22065458E+02 0.62843418E+01 0.22971225E+02 0.75000000E+00 0.0000E+00 0.9000E+01
#aMCatNLO 1  0  0  1  2 0.57347728D+02 0.00000000D+00  -5  6  0 0.00000000D+00 0.00000000D+00 0.00000000D+00 0.00000000D+00 0.00000000D+00
  <mgrwgt>
 -.3180024327D-01    7    4    0
 0.171042495299767D+03 0.000000000000000D+00 0.000000000000000D+00 0.171042495299767D+03
 0.171042495299767D+03 0.000000000000000D+00 0.000000000000000D+00 -.171042495299767D+03
 0.160903792683578D+03 0.499853512805248D+02 -.335464194220110D+02 -.814931463454739D+02
 0.104527037278562D+03 -.491266558023382D+02 0.114801419199815D+02 0.808877057466171D+01
 0.766541606373942D+02 -.858695478186653D+00 0.220662775020295D+02 0.734043757708122D+02
 0.000000000000000D+00 0.000000000000000D+00 0.000000000000000D+00 0.000000000000000D+00
 0.236884893335000D+03 0.000000000000000D+00 0.000000000000000D+00 0.236884893335000D+03
 0.175606758210451D+03 0.000000000000000D+00 0.000000000000000D+00 -.175606758210451D+03
 0.157275449858941D+03 0.353794787240898D+02 -.348959412003620D+02 -.814931463454739D+02
 0.109394556790865D+03 -.589466287052844D+02 0.105728173322762D+02 0.808877057466171D+01
 0.768720898774558D+02 -.790624776716909D+01 0.214151130295681D+02 0.734043757708122D+02
 0.689495550181886D+02 0.314733977483638D+02 0.290801083851767D+01 0.612781351245497D+02
 0.171042495299767D+03 0.000000000000000D+00 0.000000000000000D+00 0.171042495299767D+03
 0.171042495299767D+03 0.000000000000000D+00 0.000000000000000D+00 -.171042495299767D+03
 0.160903792683578D+03 0.499853512805248D+02 -.335464194220110D+02 -.814931463454739D+02
 0.104527037278562D+03 -.491266558023382D+02 0.114801419199815D+02 0.808877057466171D+01
 0.000000000000000D+00 0.000000000000000D+00 0.000000000000000D+00 0.000000000000000D+00
 0.766541606373942D+02 -.858695478186653D+00 0.220662775020295D+02 0.734043757708122D+02
 0.236884893335000D+03 0.000000000000000D+00 0.000000000000000D+00 0.236884893335000D+03
 0.175606758210451D+03 0.000000000000000D+00 0.000000000000000D+00 -.175606758210451D+03
 0.157275449858941D+03 0.353794787240898D+02 -.348959412003620D+02 -.814931463454739D+02
 0.109394556790865D+03 -.589466287052844D+02 0.105728173322762D+02 0.808877057466171D+01
 0.689495550181886D+02 0.314733977483638D+02 0.290801083851767D+01 0.612781351245497D+02
 0.768720898774558D+02 -.790624776716909D+01 0.214151130295681D+02 0.734043757708122D+02
0.313631782143D-03 0.000000000000D+00 0.000000000000D+00 0.367584236744D-04 0.000000000000D+00  6 3 -3 25 23 21 21 2 0.51303145D-02 0.13497003D+00 0.17561149D+05 0.17561149D+05 0.17561149D+05 0.12400926D+01  1  2  2  1  6  1        3 0.109509057655D-01 0.100000000000D+01
0.468637420888D-04 0.165508038514D-04 -.120442862458D-05 0.367584236744D-04 0.000000000000D+00  6 3 -3 25 23 21 21 4 0.51303145D-02 0.13497003D+00 0.17561149D+05 0.17561149D+05 0.17561149D+05 0.12400926D+01  1  2  3  1  6  1        3 0.251637372519D-02 0.100000000000D+01
0.131375786867D-04 0.000000000000D+00 0.000000000000D+00 0.367584236744D-04 0.000000000000D+00  6 3 -3 25 23 21 21 4 0.51303145D-02 0.13497003D+00 0.17561149D+05 0.17561149D+05 0.17561149D+05 0.12400926D+01  1  2 15  1  6  1        3 0.705429322250D-03 0.100000000000D+01
-.597524710164D-03 0.000000000000D+00 0.000000000000D+00 0.367584236744D-04 0.000000000000D+00  6 3 -3 25 23 21 21 4 0.51303145D-02 0.13497003D+00 0.17561149D+05 0.17561149D+05 0.17561149D+05 0.12400926D+01  1  2  4  1  6  1        3 -.320844092637D-01 0.100000000000D+01
-.224880372325D-02 0.000000000000D+00 -.295232128947D-03 0.367584236744D-04 0.000000000000D+00  6 3 -3 25 23 21 21 4 0.72835677D-02 0.13497003D+00 0.17561149D+05 0.17561149D+05 0.17561149D+05 0.12400926D+01  1  2  5  1  6  1        3 -.689509498216D-01 0.100000000000D+01
0.223109781992D-02 0.000000000000D+00 0.277985874861D-03 0.367584236744D-04 0.000000000000D+00  6 3 -3 25 23 21 21 4 0.51303145D-02 0.13497003D+00 0.17561149D+05 0.17561149D+05 0.17561149D+05 0.12400926D+01  1  2  6  1  6  1        3 0.119799992108D+00 0.100000000000D+01
-.888712083197D-04 0.000000000000D+00 -.127655758856D-04 0.367584236744D-04 0.000000000000D+00  6 21 -3 25 23 -3 21 4 0.72835677D-02 0.13497003D+00 0.17561149D+05 0.17561149D+05 0.17561149D+05 0.12400926D+01  3  4  5  4  5  1        3 -.647375851049D-01 0.100000000000D+01
  </mgrwgt>
  </event>
  <event>
  6     66 0.47055975E-03 0.20026183E+02 0.75467711E-02 0.12255528E+00
       21 -1    0    0  502  503 0.00000000E+00 0.00000000E+00 0.12802360E+03 0.12802580E+03 0.75000000E+00 0.0000E+00 0.9000E+01
       -3 -1    0    0    0  501 0.00000000E+00 0.00000000E+00 -.25948735E+03 0.25948783E+03 0.50000000E+00 0.0000E+00 0.9000E+01
       25  1    1    2    0    0 -.26328993E+02 -.37173867E+02 -.16412021E+03 0.21127128E+03 0.12500000E+03 0.0000E+00 0.9000E+01
       23  1    1    2    0    0 0.10008241E+02 0.43140988E+02 -.29802725E+02 0.10566344E+03 0.91188000E+02 0.0000E+00 0.9000E+01
       -3  1    1    2    0  503 0.21617440E+02 -.70569211E+01 0.60733780E+02 0.64853342E+02 0.50000000E+00 0.0000E+00 0.9000E+01
       21  1    1    2  502  501 -.52966878E+01 0.10898001E+01 0.17253997E+01 0.57255629E+01 0.75000000E+00 0.0000E+00 0.9000E+01
#aMCatNLO 2  0  0  1  2 0.57347728D+02 0.00000000D+00  -5  6  0 0.00000000D+00 0.00000000D+00 0.00000000D+00 0.00000000D+00 0.00000000D+00
  <mgrwgt>
 0.7932523706D-01    1    2    0
 0.129085879557567D+03 0.000000000000000D+00 0.000000000000000D+00 0.129085879557567D+03
 0.129085879557567D+03 0.000000000000000D+00 0.000000000000000D+00 -.129085879557567D+03
 0.140680532872723D+03 -.145345633625332D+02 -.410225545651617D+02 -.476645446234627D+02
 0.109525379624702D+03 0.191669711968543D+02 0.401523696505955D+02 0.412428401606393D+02
 0.000000000000000D+00 0.000000000000000D+00 -.000000000000000D+00 0.000000000000000D+00
 0.796584661770883D+01 -.463240783432101D+01 0.870184914566191D+00 0.642170446282340D+01
 0.254327499783183D+03 0.000000000000000D+00 0.000000000000000D+00 0.254327499783183D+03
 0.130622026045182D+03 0.000000000000000D+00 0.000000000000000D+00 -.130622026045182D+03
 0.141320902336429D+03 -.263181346707852D+02 -.371758578982503D+02 -.476645446234627D+02
 0.109442055673904D+03 0.100173071672634D+02 0.431392385042968D+02 0.412428401606393D+02
 0.125778209825357D+03 0.216174396841761D+02 -.705692111542160D+01 0.123705473738001D+03
 0.840835799267450D+01 -.531661218065442D+01 0.109354050937503D+01 0.642170446282340D+01
0.464853089286D-04 0.000000000000D+00 0.000000000000D+00 0.685688955666D-03 0.932872179328D-06  6 21 -3 25 23 -3 21 4 0.19696070D-01 0.39921187D-01 0.17237294D+05 0.17237294D+05 0.17237294D+05 0.12409976D+01  1  2  1  4  5  1        3 0.793252370571D-01 0.100000000000D+01
  </mgrwgt>
  </event>
  <event>
  5     66 0.47055975E-03 0.82883038E+02 0.75467711E-02 0.11553830E+00
        1 -1    0    0  502    0 0.00000000E+00 0.00000000E+00 0.94211884E+03 0.94211889E+03 0.32000000E+00 0.0000E+00 0.9000E+01
       -1 -1    0    0    0  501 0.00000000E+00 0.00000000E+00 -.34995212E+02 0.34996675E+02 0.32000000E+00 0.0000E+00 0.9000E+01
       25  1    1    2    0    0 0.41598195E+02 0.60731619E+02 0.39781632E+03 0.42344015E+03 0.12500000E+03 0.0000E+00 0.9000E+01
       23  1    1    2    0    0 -.97386933E+02 0.56097487E+00 0.28959856E+03 0.31885280E+03 0.91188000E+02 0.0000E+00 0.9000E+01
       21  1    1    2  502  501 0.55788738E+02 -.61292593E+02 0.21970875E+03 0.23482262E+03 0.75000000E+00 0.0000E+00 0.9000E+01
#aMCatNLO 1  0  0  2  2 0.24696806D+02 0.00000000D+00  -5  6  0 0.00000000D+00 0.00000000D+00 0.00000000D+00 0.00000000D+00 0.00000000D+00
  <mgrwgt>
 0.4351697313D-02    4    2    0
 0.181577503799382D+03 0.000000000000000D+00 0.000000000000000D+00 0.181577503799382D+03
 0.181577503799382D+03 0.000000000000000D+00 0.000000000000000D+00 -.181577503799382D+03
 0.145616712351361D+03 0.415972819690065D+02 0.607326217094286D+02 0.126665586924556D+02
 0.134528127868208D+03 -.973877769047778D+02 0.561901654747633D+00 -.172589402861407D+02
 0.830101673791945D+02 0.557904949357713D+02 -.612945233641762D+02 0.459238159368515D+01
 0.000000000000000D+00 0.000000000000000D+00 0.000000000000000D+00 0.000000000000000D+00
 0.196642840085553D+03 0.000000000000000D+00 0.000000000000000D+00 0.196642840085553D+03
 0.192408191373620D+03 0.000000000000000D+00 0.000000000000000D+00 -.192408191373620D+03
 0.141118449787320D+03 0.383676934921870D+02 0.515450798559532D+02 0.126665586924556D+02
 0.136999156758412D+03 -.100446074265421D+03 -.813835077770789D+01 -.172589402861407D+02
 0.858762007853151D+02 0.538882745577481D+02 -.667059649342283D+02 0.459238159368515D+01
 0.250572241281258D+02 0.819010621548563D+01 0.232992358559829D+02 0.423464871193239D+01
0.422285026695D-04 0.000000000000D+00 0.000000000000D+00 0.235126550220D-05 0.000000000000D+00  6 1 -1 25 23 21 21 2 0.14494148D+00 0.53839955D-02 0.32646028D+05 0.32646028D+05 0.32646028D+05 0.12110644D+01  1  2  2  2  6  2       -1 0.171158210289D-01 0.100000000000D+01
-.156026368197D-05 0.222845930933D-05 -.162168569271D-06 0.235126550220D-05 0.000000000000D+00  6 1 -1 25 23 21 21 4 0.14494148D+00 0.53839955D-02 0.32646028D+05 0.32646028D+05 0.32646028D+05 0.12110644D+01  1  2  3  2  6  2       -1 -.927522694682D-03 0.100000000000D+01
0.396919743726D-06 0.000000000000D+00 0.000000000000D+00 0.235126550220D-05 0.000000000000D+00  6 1 -1 25 23 21 21 4 0.14494148D+00 0.53839955D-02 0.32646028D+05 0.32646028D+05 0.32646028D+05 0.12110644D+01  1  2 15  2  6  2       -1 0.235955034093D-03 0.100000000000D+01
-.203082586220D-04 0.000000000000D+00 0.000000000000D+00 0.235126550220D-05 0.000000000000D+00  6 1 -1 25 23 21 21 4 0.14494148D+00 0.53839955D-02 0.32646028D+05 0.32646028D+05 0.32646028D+05 0.12110644D+01  1  2  4  2  6  2       -1 -.120725560551D-01 0.100000000000D+01
  </mgrwgt>
  </event>
  <event>
  6     66 0.47055975E-03 0.24034359E+02 0.75467711E-02 0.12250097E+00
        3 -1    0    0  503    0 0.00000000E+00 0.00000000E+00 0.97277325E+01 0.97405739E+01 0.50000000E+00 0.0000E+00 0.9000E+01
       -3 -1    0    0    0  501 0.00000000E+00 0.00000000E+00 -.21293630E+04 0.21293631E+04 0.50000000E+00 0.0000E+00 0.9000E+01
       25  1    1    2    0    0 0.35923845E+02 -.21470823E+02 -.14503222E+04 0.14563005E+04 0.12500000E+03 0.0000E+00 0.9000E+01
       23  1    1    2    0    0 -.16273512E+02 0.19444137E+02 -.43924795E+03 0.44932940E+03 0.91188000E+02 0.0000E+00 0.9000E+01
       21  1    1    2  502  501 -.28178178E+02 0.26146687E+01 -.20576157E+03 0.20769986E+03 0.75000000E+00 0.0000E+00 0.9000E+01
       21  1    1    2  503  502 0.85278451E+01 -.58798275E+00 -.24303577E+02 0.25773945E+02 0.75000000E+00 0.0000E+00 0.9000E+01
#aMCatNLO 2  0  0  1  2 0.85480914D+01 0.00000000D+00  -5  6  0 0.00000000D+00 0.00000000D+00 0.00000000D+00 0.00000000D+00 0.00000000D+00
  <mgrwgt>
 0.3382674054D-01    2    2    0
 0.137544909345845D+03 0.000000000000000D+00 0.000000000000000D+00 0.137544909345845D+03
 0.137544909345845D+03 0.000000000000000D+00 0.000000000000000D+00 -.137544909345845D+03
 0.141976693673434D+03 0.403102747685222D+02 -.217733905518662D+02 -.493293295961174D+02
 0.105640545090261D+03 -.129878243295247D+02 0.192174975692262D+02 0.480278838731166D+02
 0.274725799279955D+02 -.273224504389975D+02 0.255589298264001D+01 0.130144572300078D+01
 0.000000000000000D+00 0.000000000000000D+00 -.000000000000000D+00 0.000000000000000D+00
 0.148842035553218D+03 0.000000000000000D+00 0.000000000000000D+00 0.148842035553218D+03
 0.139237858725590D+03 0.000000000000000D+00 0.000000000000000D+00 -.139237858725590D+03
 0.140749055903314D+03 0.359290517898175D+02 -.214713114819873D+02 -.493293295961174D+02
 0.106135236406704D+03 -.162695803125459D+02 0.194437699593189D+02 0.480278838731166D+02
 0.283383052613202D+02 -.281873165964640D+02 0.261552426954029D+01 0.130144572300078D+01
 0.128572967074698D+02 0.852784511919246D+01 -.587982746871969D+00 0.960417682762868D+01
-.271771472637D-04 0.000000000000D+00 0.000000000000D+00 0.204045259366D-04 0.000000000000D+00  6 3 -3 25 23 21 21 4 0.13837934D-02 0.32358700D+00 0.16213558D+05 0.16213558D+05 0.16213558D+05 0.12439891D+01  1  2  8  1  6  1        3 -.859786328236D-03 0.100000000000D+01
0.130544605151D-02 0.000000000000D+00 0.000000000000D+00 0.204045259366D-04 0.653289805218D-06  6 3 -3 25 23 21 21 4 0.14974500D-02 0.32756982D+00 0.17334986D+05 0.17334986D+05 0.17334986D+05 0.12407226D+01  1  2  1  1  6  1        3 0.346865268669D-01 0.100000000000D+01
  </mgrwgt>
  </event>
  <event>
  6     66 -.47055975E-03 0.73540094E+01 0.75467711E-02 0.12123025E+00
        1 -1    0    0  502    0 0.00000000E+00 0.00000000E+00 0.74971876E+03 0.74971883E+03 0.32000000E+00 0.0000E+00 0.9000E+01
       -1 -1    0    0    0  501 0.00000000E+00 0.00000000E+00 -.53463487E+02 0.53464445E+02 0.32000000E+00 0.0000E+00 0.9000E+01
       25  1    1    2    0    0 -.62346103E+02 -.16388545E+02 0.21166270E+03 0.25412934E+03 0.12500000E+03 0.0000E+00 0.9000E+01
       23  1    1    2    0    0 0.75973012E+02 0.32531705E+00 0.82536744E+02 0.14456684E+03 0.91188000E+02 0.0000E+00 0.9000E+01
       21  1    1    2  503  501 -.13088662E+02 0.37510320E+01 0.36816258E+03 0.36841502E+03 0.75000000E+00 0.0000E+00 0.9000E+01
       21  1    1    2  502  503 -.53824761E+00 0.12312196E+02 0.33893253E+02 0.36072080E+02 0.75000000E+00 0.0000E+00 0.9000E+01
#aMCatNLO 2  0  0  5  2 0.11469344D+02 0.00000000D+00  -5  6  0 0.00000000D+00 0.00000000D+00 0.00000000D+00 0.00000000D+00 0.00000000D+00
  <mgrwgt>
 -.2598008409D+00    2    2    0
 0.200207371287747D+03 0.000000000000000D+00 0.000000000000000D+00 0.200207371287747D+03
 0.200207371287747D+03 -.000000000000000D+00 -.000000000000000D+00 -.200207371287747D+03
 0.141928194118779D+03 -.620234890680917D+02 -.167688384292206D+02 -.197612030851545D+02
 0.148138012169368D+03 0.763081036043401D+02 -.696842553277153D-01 -.883554626149712D+02
 0.110348536287347D+03 -.142846145362484D+02 0.168385226845483D+02 0.108116665700126D+03
 0.000000000000000D+00 0.000000000000000D+00 0.000000000000000D+00 0.000000000000000D+00
 0.200207371287747D+03 0.000000000000000D+00 0.000000000000000D+00 0.200207371287747D+03
 0.200207371287747D+03 -.000000000000000D+00 -.000000000000000D+00 -.200207371287747D+03
 0.141704508498980D+03 -.623484642399719D+02 -.163857618127860D+02 -.173015474934795D+02
 0.146453607970636D+03 0.759705721366854D+02 0.328193563526292D+00 -.858007715689444D+02
 0.987321665173085D+02 -.130793519920470D+02 0.362997291644022D+01 0.977946550343913D+02
 0.135244595885691D+02 -.542755904666614D+00 0.124275953328195D+02 0.530766402803271D+01
-.449442546797D-03 0.000000000000D+00 0.000000000000D+00 0.394814472114D-04 0.000000000000D+00  6 1 -1 25 23 21 21 4 0.11534143D+00 0.82252308D-02 0.20355540D+05 0.20355540D+05 0.20355540D+05 0.12329844D+01  1  2 13  3  6  5       21 -.215416972211D+00 0.100000000000D+01
-.922434281265D-04 0.000000000000D+00 0.000000000000D+00 0.395638661706D-04 0.000000000000D+00  6 1 -1 25 23 21 21 4 0.11534143D+00 0.82252308D-02 0.19814953D+05 0.19814953D+05 0.19814953D+05 0.12342707D+01  1  2  8  3  6  5       21 -.443838687125D-01 0.100000000000D+01
  </mgrwgt>
  </event>
  <event>
  6     66 0.47055975E-03 0.37447668E+02 0.75467711E-02 0.11804701E+00
        1 -1    0    0  502    0 0.00000000E+00 0.00000000E+00 0.53396442E+03 0.53396451E+03 0.32000000E+00 0.0000E+00 0.9000E+01
       -1 -1    0    0    0  501 0.00000000E+00 0.00000000E+00 -.95973585E+02 0.95974119E+02 0.32000000E+00 0.0000E+00 0.9000E+01
       25  1    1    2    0    0 0.11354101E+03 0.19423915E+02 0.26622820E+03 0.31586596E+03 0.12500000E+03 0.0000E+00 0.9000E+01
       23  1    1    2    0    0 -.69460775E+02 -.15782073E+02 -.18736210E+02 0.11721847E+03 0.91188000E+02 0.0000E+00 0.9000E+01
        2  1    1    2  502    0 -.41497900E+01 0.69416557E+01 0.38505848E+02 0.39347301E+02 0.32000000E+00 0.0000E+00 0.9000E+01
       -2  1    1    2    0  501 -.39930446E+02 -.10583498E+02 0.15199300E+03 0.15750690E+03 0.32000000E+00 0.0000E+00 0.9000E+01
#aMCatNLO 2  0  0  5  2 0.85577442D+01 0.00000000D+00  -5  6  0 0.00000000D+00 0.00000000D+00 0.00000000D+00 0.00000000D+00 0.00000000D+00
  <mgrwgt>
 0.9258103876D-03    3    2    0
 0.226377290804119D+03 0.000000000000000D+00 0.000000000000000D+00 0.226377290804119D+03
 0.226377290804119D+03 -.000000000000000D+00 -.000000000000000D+00 -.226377290804119D+03
 0.181953261947365D+03 0.114128204093947D+03 0.194724284458789D+02 0.638558305403406D+02
 0.181753956886868D+03 -.688750578606892D+02 -.157336820919622D+02 -.140456139604324D+03
 0.890473627740051D+02 -.452531462332580D+02 -.373874635391666D+01 0.766003090639829D+02
 0.000000000000000D+00 0.000000000000000D+00 -.000000000000000D+00 0.000000000000000D+00
 0.226377290804119D+03 0.000000000000000D+00 0.000000000000000D+00 0.226377290804119D+03
 0.226377290804119D+03 -.000000000000000D+00 -.000000000000000D+00 -.226377290804119D+03
 0.181932643083846D+03 0.113554295106627D+03 0.194250129551909D+02 0.648272901948088D+02
 0.181228861837399D+03 -.694475425297257D+02 -.157809799076323D+02 -.139487090903123D+03
 0.171053153536451D+02 -.404120850184130D+01 0.680926270619664D+01 0.151622685832395D+02
 0.724877613333470D+02 -.400655440750596D+02 -.104532957537552D+02 0.594975321250744D+02
-.589535550001D-05 0.000000000000D+00 0.000000000000D+00 0.478832176919D-05 0.000000000000D+00  6 1 -1 25 23 2 -2 4 0.82148420D-01 0.14765215D-01 0.28059453D+05 0.28059453D+05 0.28059453D+05 0.12179583D+01  1  2 13  7  6  5       21 -.175742278274D-02 0.100000000000D+01
-.676796962162D-05 0.000000000000D+00 0.000000000000D+00 0.478832176919D-05 0.000000000000D+00  6 1 -1 25 23 2 -2 4 0.82148420D-01 0.14765215D-01 0.28059453D+05 0.28059453D+05 0.28059453D+05 0.12179583D+01  1  2 13  7  6  5       21 -.201755161430D-02 0.100000000000D+01
0.157689986194D-04 0.000000000000D+00 0.000000000000D+00 0.479674639325D-05 0.119627377598D-07  6 1 -1 25 23 2 -2 4 0.82148420D-01 0.14765215D-01 0.28059453D+05 0.28059453D+05 0.28059453D+05 0.12179583D+01  1  2  1  7  6  5       21 0.470078478468D-02 0.100000000000D+01
  </mgrwgt>
  </event>
  <event>
  5     66 0.47055975E-03 0.33050841E+02 0.75467711E-02 0.10664882E+00
        1 -1    0    0  502    0 0.00000000E+00 0.00000000E+00 0.33399983E+03 0.33399998E+03 0.32000000E+00 0.0000E+00 0.9000E+01
       -1 -1    0    0    0  501 0.00000000E+00 0.00000000E+00 -.22283964E+03 0.22283987E+03 0.32000000E+00 0.0000E+00 0.9000E+01
       25  1    1    2    0    0 -.22793698E+03 0.89677874E+00 0.13620280E+03 0.29348301E+03 0.12500000E+03 0.0000E+00 0.9000E+01
       23  1    1    2    0    0 0.20627075E+03 0.24054757E+02 -.99639424E+01 0.22702595E+03 0.91188000E+02 0.0000E+00 0.9000E+01
       21  1    1    2  502  501 0.21666237E+02 -.24951536E+02 -.15078662E+02 0.36330889E+02 0.75000000E+00 0.0000E+00 0.9000E+01
#aMCatNLO 1  0  0  2  1 0.71964656D+02 0.00000000D+00  -5  6  0 0.00000000D+00 0.00000000D+00 0.00000000D+00 0.00000000D+00 0.00000000D+00
  <mgrwgt>
 0.3236075261D+00    7    4    0
 0.272815885197655D+03 0.000000000000000D+00 0.000000000000000D+00 0.272815885197655D+03
 0.272815885197655D+03 0.000000000000000D+00 0.000000000000000D+00 -.272815885197655D+03
 0.271765487884909D+03 -.227938866483673D+03 0.898947676945667D+00 0.792120284081588D+02
 0.233717680798940D+03 0.206269126519485D+03 0.240566221240832D+02 -.564183423267878D+02
 0.401486017114622D+02 0.216697399641878D+02 -.249555698010288D+02 -.227936860813710D+02
 0.000000000000000D+00 -.000000000000000D+00 0.000000000000000D+00 -.000000000000000D+00
 0.314072539618196D+03 0.000000000000000D+00 0.000000000000000D+00 0.314072539618196D+03
 0.441219653827182D+03 0.000000000000000D+00 0.000000000000000D+00 -.441219653827182D+03
 0.226380059511020D+03 -.169424292350240D+03 -.253731169015265D+02 0.792120284081588D+02
 0.288293596510156D+03 0.267587084181192D+03 -.347411474558737D+01 -.564183423267878D+02
 0.493556991651857D+02 0.321833460302982D+02 -.296760029856164D+02 -.227936860813710D+02
 0.191262838259017D+03 -.130346137861251D+03 0.585232346327304D+02 -.127147114208986D+03
 0.272815885197655D+03 0.000000000000000D+00 0.000000000000000D+00 0.272815885197655D+03
 0.272815885197655D+03 0.000000000000000D+00 0.000000000000000D+00 -.272815885197655D+03
 0.271765487884909D+03 -.227938866483673D+03 0.898947676945667D+00 0.792120284081588D+02
 0.233717680798940D+03 0.206269126519485D+03 0.240566221240832D+02 -.564183423267878D+02
 0.000000000000000D+00 -.000000000000000D+00 0.000000000000000D+00 -.000000000000000D+00
 0.401486017114622D+02 0.216697399641878D+02 -.249555698010288D+02 -.227936860813710D+02
 0.314072539618196D+03 0.000000000000000D+00 0.000000000000000D+00 0.314072539618196D+03
 0.441219653827182D+03 0.000000000000000D+00 0.000000000000000D+00 -.441219653827182D+03
 0.226380059511020D+03 -.169424292350240D+03 -.253731169015265D+02 0.792120284081588D+02
 0.288293596510156D+03 0.267587084181192D+03 -.347411474558737D+01 -.564183423267878D+02
 0.191262838259017D+03 -.130346137861251D+03 0.585232346327304D+02 -.127147114208986D+03
 0.493556991651857D+02 0.321833460302982D+02 -.296760029856164D+02 -.227936860813710D+02
0.152593504996D-02 0.000000000000D+00 0.000000000000D+00 0.858956364156D-05 0.000000000000D+00  6 1 -1 25 23 21 21 2 0.51384619D-01 0.34283050D-01 0.67553732D+05 0.67553732D+05 0.67553732D+05 0.11795526D+01  1  2  2  2  6  2       -1 0.132090912573D+00 0.100000000000D+01
0.408243259853D-03 0.805258049079D-04 -.585999237977D-05 0.858956364156D-05 0.000000000000D+00  6 1 -1 25 23 21 21 4 0.51384619D-01 0.34283050D-01 0.67553732D+05 0.67553732D+05 0.67553732D+05 0.11795526D+01  1  2  3  2  6  2       -1 0.491689074927D-01 0.100000000000D+01
0.120109733966D-04 0.000000000000D+00 0.000000000000D+00 0.858956364156D-05 0.000000000000D+00  6 1 -1 25 23 21 21 4 0.51384619D-01 0.34283050D-01 0.67553732D+05 0.67553732D+05 0.67553732D+05 0.11795526D+01  1  2 15  2  6  2       -1 0.144660426249D-02 0.100000000000D+01
-.227560627351D-03 0.000000000000D+00 0.000000000000D+00 0.858956364156D-05 0.000000000000D+00  6 1 -1 25 23 21 21 4 0.51384619D-01 0.34283050D-01 0.67553732D+05 0.67553732D+05 0.67553732D+05 0.11795526D+01  1  2  4  2  6  2       -1 -.274074517218D-01 0.100000000000D+01
-.215226993728D-02 0.000000000000D+00 -.924048712973D-03 0.858956364156D-05 0.000000000000D+00  6 1 -1 25 23 21 21 4 0.51384619D-01 0.62205202D-01 0.67553732D+05 0.67553732D+05 0.67553732D+05 0.11795526D+01  1  2  5  2  6  2       -1 -.870908911090D-01 0.100000000000D+01
0.240584016470D-02 0.000000000000D+00 0.781242400368D-03 0.858956364156D-05 0.000000000000D+00  6 1 -1 25 23 21 21 4 0.51384619D-01 0.34283050D-01 0.67553732D+05 0.67553732D+05 0.67553732D+05 0.11795526D+01  1  2  6  2  6  2       -1 0.289759915554D+00 0.100000000000D+01
-.906800061476D-04 0.000000000000D+00 -.602759545063D-04 0.858956364156D-05 0.000000000000D+00  6 1 21 25 23 1 21 4 0.51384619D-01 0.62205202D-01 0.67553732D+05 0.67553732D+05 0.67553732D+05 0.11795526D+01  3  4  5  5  5  2       -1 -.343604709336D-01 0.100000000000D+01
  </mgrwgt>
  </event>
  <event>
  5     66 0.47055975E-03 0.35800693E+02 0.75467711E-02 0.10274713E+00
        1 -1    0    0  502    0 0.00000000E+00 0.00000000E+00 0.90023233E+03 0.90023239E+03 0.32000000E+00 0.0000E+00 0.9000E+01
       -1 -1    0    0    0  501 0.00000000E+00 0.00000000E+00 -.88053621E+02 0.88054202E+02 0.32000000E+00 0.0000E+00 0.9000E+01
       25  1    1    2    0    0 0.34222880E+02 0.52116377E+02 0.37517358E+03 0.40033428E+03 0.12500000E+03 0.0000E+00 0.9000E+01
       23  1    1    2    0    0 -.50352281E+02 -.84077386E+02 -.14845702E+02 0.13468484E+03 0.91188000E+02 0.0000E+00 0.9000E+01
       21  1    1    2  502  501 0.16129400E+02 0.31961009E+02 0.45185083E+03 0.45326747E+03 0.75000000E+00 0.0000E+00 0.9000E+01
#aMCatNLO 1  0  0  2  5 0.31694622D+02 0.00000000D+00  -5  6  0 0.00000000D+00 0.00000000D+00 0.00000000D+00 0.00000000D+00 0.00000000D+00
  <mgrwgt>
 0.9924987743D-01    3    2    0
 0.281547565857989D+03 0.000000000000000D+00 0.000000000000000D+00 0.281547565857989D+03
 0.281547565857989D+03 0.000000000000000D+00 0.000000000000000D+00 -.281547565857989D+03
 0.161494603219952D+03 0.342228175620756D+02 0.521162522877429D+02 0.810444438241318D+02
 0.257798439430293D+03 -.503523812956993D+02 -.840775852425844D+02 -.220318817594692D+03
 0.143802089065733D+03 0.161295637336237D+02 0.319613329548415D+02 0.139274373770560D+03
 0.000000000000000D+00 -.000000000000000D+00 -.000000000000000D+00 0.000000000000000D+00
 0.114932452647338D+04 0.000000000000000D+00 0.000000000000000D+00 0.114932452647338D+04
 0.400282087248463D+03 0.000000000000000D+00 0.000000000000000D+00 -.400282087248463D+03
 0.244853767215439D+03 0.996645953536176D+02 0.166814669252525D+03 0.810444438241318D+02
 0.247478256388147D+03 0.310216505862679D+02 0.585449557989215D+02 -.220318817594692D+03
 0.203745351708887D+03 0.721015425724268D+02 0.130062233997703D+03 0.139274373770560D+03
 0.853529238409373D+03 -.202787788512312D+03 -.355421859049149D+03 0.749042439224919D+03
0.784822819172D-03 0.000000000000D+00 0.000000000000D+00 0.583991110956D-05 0.000000000000D+00  6 1 -1 25 23 21 21 2 0.13849733D+00 0.13546760D-01 0.23924581D+05 0.23924581D+05 0.23924581D+05 0.12253502D+01  1  2  2  2  6  2       -1 0.858961499406D-01 0.100000000000D+01
0.559245350043D-04 0.414162380146D-04 -.301392627421D-05 0.583991110956D-05 0.000000000000D+00  6 1 -1 25 23 21 21 4 0.13849733D+00 0.13546760D-01 0.23924581D+05 0.23924581D+05 0.23924581D+05 0.12253502D+01  1  2  3  2  6  2       -1 0.919019957634D-02 0.100000000000D+01
0.253360506857D-04 0.000000000000D+00 0.000000000000D+00 0.583991110956D-05 0.000000000000D+00  6 1 -1 25 23 21 21 4 0.13849733D+00 0.13546760D-01 0.23924581D+05 0.23924581D+05 0.23924581D+05 0.12253502D+01  1  2 15  2  6  2       -1 0.416352790882D-02 0.100000000000D+01
  </mgrwgt>
  </event>
  <event>
  6     66 -.47055975E-03 0.33628989E+02 0.75467711E-02 0.12139413E+00
       21 -1    0    0  502  503 0.00000000E+00 0.00000000E+00 0.51433865E+02 0.51439333E+02 0.75000000E+00 0.0000E+00 0.9000E+01
       -3 -1    0    0    0  501 0.00000000E+00 0.00000000E+00 -.57654417E+03 0.57654439E+03 0.50000000E+00 0.0000E+00 0.9000E+01
       25  1    1    2    0    0 -.27439343E+02 -.59834518E+02 -.40087544E+03 0.42504024E+03 0.12500000E+03 0.0000E+00 0.9000E+01
       23  1    1    2    0    0 0.35910414E+02 0.24270976E+02 -.12921523E+03 0.16398312E+03 0.91188000E+02 0.0000E+00 0.9000E+01
       -3  1    1    2    0  503 0.20327201E+00 0.69226262E+01 0.57500571E+01 0.90153885E+01 0.50000000E+00 0.0000E+00 0.9000E+01
       21  1    1    2  502  501 -.86743427E+01 0.28640916E+02 -.76969499E+00 0.29944970E+02 0.75000000E+00 0.0000E+00 0.9000E+01
#aMCatNLO 2  0  0  1  5 0.69256099D+01 0.00000000D+00  -5  6  0 0.00000000D+00 0.00000000D+00 0.00000000D+00 0.00000000D+00 0.00000000D+00
  <mgrwgt>
 -.2886837470D-01    2    2    0
 0.159107752856742D+03 0.000000000000000D+00 0.000000000000000D+00 0.159107752856742D+03
 0.159107752856742D+03 0.000000000000000D+00 0.000000000000000D+00 -.159107752856742D+03
 0.156680583072336D+03 -.273384999594134D+02 -.564137467794408D+02 -.706675364376133D+02
 0.103955662279074D+03 0.359768672917856D+02 0.265251364998861D+02 0.222173474882239D+02
 0.000000000000000D+00 0.000000000000000D+00 0.000000000000000D+00 0.000000000000000D+00
 0.575792603620751D+02 -.863836733237219D+01 0.298886102795547D+02 0.484501889493894D+02
 0.185812909434236D+03 0.000000000000000D+00 0.000000000000000D+00 0.185812909434236D+03
 0.159595079948518D+03 0.000000000000000D+00 0.000000000000000D+00 -.159595079948518D+03
 0.157962403485359D+03 -.274389830252911D+02 -.598357954676618D+02 -.706675364376133D+02
 0.103380256335352D+03 0.359106533615249D+02 0.242701566063950D+02 0.222173474882239D+02
 0.271171284563597D+02 0.203272006378919D+00 0.692262618288141D+01 0.262178294857187D+02
 0.569482011056832D+02 -.867494234261275D+01 0.286430126783853D+02 0.484501889493894D+02
-.294351831941D-04 0.000000000000D+00 0.000000000000D+00 0.167228390067D-04 0.000000000000D+00  6 21 -3 25 23 -3 21 4 0.82836005D-02 0.88427421D-01 0.19473047D+05 0.19473047D+05 0.19473047D+05 0.12351047D+01  1  2 13  4  5  1        3 -.450580665078D-01 0.100000000000D+01
0.983857646074D-05 0.000000000000D+00 0.000000000000D+00 0.167851229262D-04 0.841210701105D-07  6 21 -3 25 23 -3 21 4 0.79132257D-02 0.88698263D-01 0.19473047D+05 0.19473047D+05 0.19473047D+05 0.12351047D+01  1  2  1  4  5  1        3 0.161896918040D-01 0.100000000000D+01
  </mgrwgt>
  </event>
  <event>
  5     66 0.47055975E-03 0.68365979E+02 0.75467711E-02 0.11542073E+00
        1 -1    0    0  502    0 0.00000000E+00 0.00000000E+00 0.71542739E+03 0.71542746E+03 0.32000000E+00 0.0000E+00 0.9000E+01
       -1 -1    0    0    0  501 0.00000000E+00 0.00000000E+00 -.18083216E+03 0.18083244E+03 0.32000000E+00 0.0000E+00 0.9000E+01
       25  1    1    2    0    0 0.13815546E+03 0.27273253E+02 0.47949508E+02 0.19430625E+03 0.12500000E+03 0.0000E+00 0.9000E+01
       23  1    1    2    0    0 -.93549735E+02 0.24535931E+02 0.57504049E+03 0.59020368E+03 0.91188000E+02 0.0000E+00 0.9000E+01
       21  1    1    2  502  501 -.44605726E+02 -.51809184E+02 -.88394763E+02 0.11174998E+03 0.75000000E+00 0.0000E+00 0.9000E+01
#aMCatNLO 1  0  0  5  1 0.82805031D+00 0.00000000D+00  -5  6  0 0.00000000D+00 0.00000000D+00 0.00000000D+00 0.00000000D+00 0.00000000D+00
  <mgrwgt>
 0.2845573597D+00   25    2    0
 0.359683804477066D+03 0.000000000000000D+00 0.000000000000000D+00 0.359683804477066D+03
 0.359683804477066D+03 -.000000000000000D+00 -.000000000000000D+00 -.359683804477066D+03
 0.206452526687255D+03 0.138155546915432D+03 0.272733529942663D+02 -.846572787685722D+02
 0.307995974728794D+03 -.935496073812252D+02 0.245360796027417D+02 0.277835780384180D+03
 0.204919107538083D+03 -.446059395342066D+02 -.518094325970081D+02 -.193178501615608D+03
 0.000000000000000D+00 -.000000000000000D+00 0.000000000000000D+00 0.000000000000000D+00
 0.359683804477066D+03 0.000000000000000D+00 0.000000000000000D+00 0.359683804477066D+03
 0.359683804477066D+03 -.000000000000000D+00 -.000000000000000D+00 -.359683804477066D+03
 0.206452929719714D+03 0.138155124121682D+03 0.272728619227970D+02 -.846591097951996D+02
 0.307993643838418D+03 -.935502381226128D+02 0.245353470017979D+02 0.277833048782124D+03
 0.113293543140876D+03 -.239687800918989D+02 -.282696162584640D+02 -.107059578249304D+03
 0.916274922551246D+02 -.206361059071707D+02 -.235385926661309D+02 -.861143607376199D+02
0.200819365745D-04 0.000000000000D+00 0.000000000000D+00 0.166878012527D-05 0.000000000000D+00  6 1 -1 25 23 21 21 2 0.11006578D+00 0.27820359D-01 0.37944527D+05 0.37944527D+05 0.37944527D+05 0.12043338D+01  1  2  2  3  6  5       21 0.939903087979D-03 0.100000000000D+01
0.331398279914D-08 0.105975290810D-05 -.771199241412D-07 0.166878012527D-05 0.000000000000D+00  6 1 -1 25 23 21 21 4 0.11006578D+00 0.27820359D-01 0.37944527D+05 0.37944527D+05 0.37944527D+05 0.12043338D+01  1  2  3  3  6  5       21 0.224968391230D-06 0.100000000000D+01
0.508974514796D-06 0.000000000000D+00 0.000000000000D+00 0.166878012527D-05 0.000000000000D+00  6 1 -1 25 23 21 21 4 0.11006578D+00 0.27820359D-01 0.37944527D+05 0.37944527D+05 0.37944527D+05 0.12043338D+01  1  2 15  3  6  5       21 0.345515305029D-04 0.100000000000D+01
0.600497332829D-07 0.000000000000D+00 0.000000000000D+00 0.166877972598D-05 0.000000000000D+00  6 1 -1 25 23 21 21 4 0.11006578D+00 0.27820359D-01 0.37944650D+05 0.37944650D+05 0.37944650D+05 0.12043337D+01  1  2 12  3  6  5       21 0.407644989616D-05 0.100000000000D+01
0.600299407644D-07 0.000000000000D+00 0.000000000000D+00 0.166877972598D-05 0.000000000000D+00  6 1 -1 25 23 21 21 4 0.11006578D+00 0.27820359D-01 0.37944650D+05 0.37944650D+05 0.37944650D+05 0.12043337D+01  1  2 12  3  6  5       21 0.407510628969D-05 0.100000000000D+01
-.106608384668D+00 0.000000000000D+00 0.000000000000D+00 0.166878012527D-05 0.000000000000D+00  6 1 -1 25 23 21 21 4 0.11006578D+00 0.27820359D-01 0.37944527D+05 0.37944527D+05 0.37944527D+05 0.12043338D+01  1  2  4  3  6  5       21 -.723706737303D+01 0.100000000000D+01
-.733778779182D-01 0.000000000000D+00 0.000000000000D+00 0.166878012527D-05 0.000000000000D+00  6 1 -1 25 23 21 21 4 0.11006578D+00 0.27820359D-01 0.37944527D+05 0.37944527D+05 0.37944527D+05 0.12043338D+01  1  2  5  3  6  5       21 -.498122776962D+01 0.100000000000D+01
0.111145946492D+00 0.000000000000D+00 -.000000000000D+00 0.166878012527D-05 0.000000000000D+00  6 1 -1 25 23 21 21 4 0.11006578D+00 0.27820359D-01 0.37944527D+05 0.37944527D+05 0.37944527D+05 0.12043338D+01  1  2  6  3  6  5       21 0.754509793488D+01 0.100000000000D+01
0.730522883480D-01 0.000000000000D+00 0.000000000000D+00 0.166878012527D-05 0.126869788590D-04  6 1 -1 25 23 21 21 4 0.11006578D+00 0.27820359D-01 0.37944650D+05 0.37944650D+05 0.37944650D+05 0.12043337D+01  1  2 11  3  6  5       21 0.495912266334D+01 0.100000000000D+01
0.753038632979D-09 0.000000000000D+00 0.000000000000D+00 0.166877972598D-05 0.000000000000D+00  6 1 -1 25 23 1 -1 4 0.11006578D+00 0.27820359D-01 0.37944650D+05 0.37944650D+05 0.37944650D+05 0.12043337D+01  1  2 12  6  6  5       21 0.511196984465D-07 0.100000000000D+01
0.752779589431D-09 0.000000000000D+00 0.000000000000D+00 0.166877972598D-05 0.000000000000D+00  6 1 -1 25 23 1 -1 4 0.11006578D+00 0.27820359D-01 0.37944650D+05 0.37944650D+05 0.37944650D+05 0.12043337D+01  1  2 12  6  6  5       21 0.511021133884D-07 0.100000000000D+01
-.922155048406D-03 0.000000000000D+00 0.000000000000D+00 0.166878012527D-05 0.000000000000D+00  6 1 -1 25 23 1 -1 4 0.11006578D+00 0.27820359D-01 0.37944527D+05 0.37944527D+05 0.37944527D+05 0.12043338D+01  1  2  5  6  6  5       21 -.626001250696D-01 0.100000000000D+01
0.913045644186D-03 0.000000000000D+00 0.000000000000D+00 0.166878012527D-05 0.192386647476D-06  6 1 -1 25 23 1 -1 4 0.11006578D+00 0.27820359D-01 0.37944650D+05 0.37944650D+05 0.37944650D+05 0.12043337D+01  1  2 11  6  6  5       21 0.619817044631D-01 0.100000000000D+01
0.753038632979D-09 0.000000000000D+00 0.000000000000D+00 0.166877972598D-05 0.000000000000D+00  6 1 -1 25 23 2 -2 4 0.11006578D+00 0.27820359D-01 0.37944650D+05 0.37944650D+05 0.37944650D+05 0.12043337D+01  1  2 12  7  6  5       21 0.511196984465D-07 0.100000000000D+01
0.753038632979D-09 0.000000000000D+00 0.000000000000D+00 0.166877972598D-05 0.000000000000D+00  6 1 -1 25 23 4 -4 4 0.11006578D+00 0.27820359D-01 0.37944650D+05 0.37944650D+05 0.37944650D+05 0.12043337D+01  1  2 12  7  6  5       21 0.511196984465D-07 0.100000000000D+01
0.752779589431D-09 0.000000000000D+00 0.000000000000D+00 0.166877972598D-05 0.000000000000D+00  6 1 -1 25 23 2 -2 4 0.11006578D+00 0.27820359D-01 0.37944650D+05 0.37944650D+05 0.37944650D+05 0.12043337D+01  1  2 12  7  6  5       21 0.511021133884D-07 0.100000000000D+01
0.752779589431D-09 0.000000000000D+00 0.000000000000D+00 0.166877972598D-05 0.000000000000D+00  6 1 -1 25 23 4 -4 4 0.11006578D+00 0.27820359D-01 0.37944650D+05 0.37944650D+05 0.37944650D+05 0.12043337D+01  1  2 12  7  6  5       21 0.511021133884D-07 0.100000000000D+01
-.922155048406D-03 0.000000000000D+00 0.000000000000D+00 0.166878012527D-05 0.000000000000D+00  6 1 -1 25 23 2 -2 4 0.11006578D+00 0.27820359D-01 0.37944527D+05 0.37944527D+05 0.37944527D+05 0.12043338D+01  1  2  5  7  6  5       21 -.626001250696D-01 0.100000000000D+01
-.922155048406D-03 0.000000000000D+00 0.000000000000D+00 0.166878012527D-05 0.000000000000D+00  6 1 -1 25 23 4 -4 4 0.11006578D+00 0.27820359D-01 0.37944527D+05 0.37944527D+05 0.37944527D+05 0.12043338D+01  1  2  5  7  6  5       21 -.626001250696D-01 0.100000000000D+01
0.913625837942D-03 0.000000000000D+00 0.000000000000D+00 0.166878012527D-05 0.192505324817D-06  6 1 -1 25 23 2 -2 4 0.11006578D+00 0.27820359D-01 0.37944650D+05 0.37944650D+05 0.37944650D+05 0.12043337D+01  1  2 11  7  6  5       21 0.620210906627D-01 0.100000000000D+01
0.913625837942D-03 0.000000000000D+00 0.000000000000D+00 0.166878012527D-05 0.192505324817D-06  6 1 -1 25 23 4 -4 4 0.11006578D+00 0.27820359D-01 0.37944650D+05 0.37944650D+05 0.37944650D+05 0.12043337D+01  1  2 11  7  6  5       21 0.620210906627D-01 0.100000000000D+01
0.753038632979D-09 0.000000000000D+00 0.000000000000D+00 0.166877972598D-05 0.000000000000D+00  6 1 -1 25 23 3 -3 4 0.11006578D+00 0.27820359D-01 0.37944650D+05 0.37944650D+05 0.37944650D+05 0.12043337D+01  1  2 12  8  6  5       21 0.511196984465D-07 0.100000000000D+01
0.752779589431D-09 0.000000000000D+00 0.000000000000D+00 0.166877972598D-05 0.000000000000D+00  6 1 -1 25 23 3 -3 4 0.11006578D+00 0.27820359D-01 0.37944650D+05 0.37944650D+05 0.37944650D+05 0.12043337D+01  1  2 12  8  6  5       21 0.511021133884D-07 0.100000000000D+01
-.922155048406D-03 0.000000000000D+00 0.000000000000D+00 0.166878012527D-05 0.000000000000D+00  6 1 -1 25 23 3 -3 4 0.11006578D+00 0.27820359D-01 0.37944527D+05 0.37944527D+05 0.37944527D+05 0.12043338D+01  1  2  5  8  6  5       21 -.626001250696D-01 0.100000000000D+01
0.913687529704D-03 0.000000000000D+00 0.000000000000D+00 0.166878012527D-05 0.192518323566D-06  6 1 -1 25 23 3 -3 4 0.11006578D+00 0.27820359D-01 0.37944650D+05 0.37944650D+05 0.37944650D+05 0.12043337D+01  1  2 11  8  6  5       21 0.620252785810D-01 0.100000000000D+01
  </mgrwgt>
  </event>
  <event>
  5     66 0.47055975E-03 0.26086427E+02 0.75467711E-02 0.12155555E+00
        1 -1    0    0  502    0 0.00000000E+00 0.00000000E+00 0.19423915E+03 0.19423942E+03 0.32000000E+00 0.0000E+00 0.9000E+01
       -1 -1    0    0    0  501 0.00000000E+00 0.00000000E+00 -.98392898E+02 0.98393418E+02 0.32000000E+00 0.0000E+00 0.9000E+01
       25  1    1    2    0    0 0.21920845E+02 -.40948039E+02 0.93256372E+02 0.16272374E+03 0.12500000E+03 0.0000E+00 0.9000E+01
       23  1    1    2    0    0 -.28404840E+02 0.15689390E+02 -.15690926E+02 0.98053294E+02 0.91188000E+02 0.0000E+00 0.9000E+01
       21  1    1    2  502  501 0.64839943E+01 0.25258649E+02 0.18280810E+02 0.31855801E+02 0.75000000E+00 0.0000E+00 0.9000E+01
#aMCatNLO 1  0  0  2  5 0.19625166D+02 0.00000000D+00  -5  6  0 0.00000000D+00 0.00000000D+00 0.00000000D+00 0.00000000D+00 0.00000000D+00
  <mgrwgt>
 0.6091930355D-01    4    2    0
 0.138245680000407D+03 0.000000000000000D+00 0.000000000000000D+00 0.138245680000407D+03
 0.138245680000407D+03 0.000000000000000D+00 0.000000000000000D+00 -.138245680000407D+03
 0.139896737481739D+03 0.219196138158848D+02 -.409528367685738D+02 0.422905763593228D+02
 0.109217185159257D+03 -.284058013703278D+02 0.156856440110676D+02 -.505985494908599D+02
 0.273774373598174D+02 0.648618755444306D+01 0.252671927575061D+02 0.830797313153704D+01
 0.000000000000000D+00 0.000000000000000D+00 0.000000000000000D+00 0.000000000000000D+00
 0.153343382970643D+03 0.000000000000000D+00 0.000000000000000D+00 0.153343382970643D+03
 0.145121451584067D+03 0.000000000000000D+00 0.000000000000000D+00 -.145121451584067D+03
 0.139806505410660D+03 0.126303092114233D+02 -.444166792495912D+02 0.422905763593228D+02
 0.110992130426860D+03 -.357192360951671D+02 0.129585737985267D+02 -.505985494908599D+02
 0.263883394924238D+02 0.470055692209424D+01 0.246013578534849D+02 0.830797313153704D+01
 0.212778592247663D+02 0.183883699616495D+02 0.685674759757957D+01 0.822193138657608D+01
0.802003571804D-04 0.000000000000D+00 0.000000000000D+00 0.226587282625D-04 0.000000000000D+00  6 1 -1 25 23 21 21 2 0.29883007D-01 0.15137429D-01 0.16413097D+05 0.16413097D+05 0.16413097D+05 0.12433897D+01  1  2  2  2  6  2       -1 0.570775861315D-01 0.100000000000D+01
0.113748143521D-04 0.423228912399D-05 -.307990488812D-06 0.226587282625D-04 0.000000000000D+00  6 1 -1 25 23 21 21 4 0.29883007D-01 0.15137429D-01 0.16413097D+05 0.16413097D+05 0.16413097D+05 0.12433897D+01  1  2  3  2  6  2       -1 0.125154975042D-01 0.100000000000D+01
0.174711120213D-05 0.000000000000D+00 0.000000000000D+00 0.226587282625D-04 0.000000000000D+00  6 1 -1 25 23 21 21 4 0.29883007D-01 0.15137429D-01 0.16413097D+05 0.16413097D+05 0.16413097D+05 0.12433897D+01  1  2 15  2  6  2       -1 0.192231408910D-02 0.100000000000D+01
-.963034861451D-05 0.000000000000D+00 0.000000000000D+00 0.226587282625D-04 0.000000000000D+00  6 1 -1 25 23 21 21 4 0.29883007D-01 0.15137429D-01 0.16413097D+05 0.16413097D+05 0.16413097D+05 0.12433897D+01  1  2  4  2  6  2       -1 -.105960941708D-01 0.100000000000D+01
  </mgrwgt>
  </event>
  <event>
  6     66 0.47055975E-03 0.63548236E+02 0.75467711E-02 0.11300126E+00
        3 -1    0    0  502    0 0.00000000E+00 0.00000000E+00 0.15436140E+03 0.15436221E+03 0.50000000E+00 0.0000E+00 0.9000E+01
       -3 -1    0    0    0  503 0.00000000E+00 0.00000000E+00 -.44365936E+03 0.44365964E+03 0.50000000E+00 0.0000E+00 0.9000E+01
       25  1    1    2    0    0 -.33782155E+02 -.92092728E+01 -.12120360E+03 0.17759887E+03 0.12500000E+03 0.0000E+00 0.9000E+01
       23  1    1    2    0    0 0.48580310E+02 -.54771726E+02 -.62191868E+02 0.13245025E+03 0.91188000E+02 0.0000E+00 0.9000E+01
       21  1    1    2  502  501 0.77578304E+02 0.78398492E+02 -.14870409E+03 0.18514369E+03 0.75000000E+00 0.0000E+00 0.9000E+01
       21  1    1    2  501  503 -.92376459E+02 -.14417493E+02 0.42801598E+02 0.10282905E+03 0.75000000E+00 0.0000E+00 0.9000E+01
#aMCatNLO 2  0  0  2  1 0.56011097D+02 0.00000000D+00  -5  6  0 0.00000000D+00 0.00000000D+00 0.00000000D+00 0.00000000D+00 0.00000000D+00
  <mgrwgt>
 0.8333540987D-04    1    2    0
 0.177612304054960D+03 0.000000000000000D+00 0.000000000000000D+00 0.177612304054960D+03
 0.177612304054960D+03 0.000000000000000D+00 0.000000000000000D+00 -.177612304054960D+03
 0.143423640494714D+03 -.687193441942857D+02 -.146628548323090D+02 -.282720258045717D+01
 0.116086146098524D+03 0.180987545426591D+02 -.595297461069079D+02 0.359080267413796D+02
 0.957148215166811D+02 0.506205896516266D+02 0.741926009392168D+02 -.330808241609224D+02
 0.000000000000000D+00 -.000000000000000D+00 -.000000000000000D+00 0.000000000000000D+00
 0.347656306114909D+03 0.000000000000000D+00 0.000000000000000D+00 0.347656306114909D+03
 0.196986748205239D+03 0.000000000000000D+00 0.000000000000000D+00 -.196986748205239D+03
 0.129842565688473D+03 -.337827080080015D+02 -.921018076807897D+01 -.282720258045717D+01
 0.122330148219144D+03 0.485798866657971D+02 -.547724570052898D+02 0.359080267413796D+02
 0.115149755342248D+03 0.775792798943442D+02 0.784001311178030D+02 -.330808241609224D+02
 0.177320585070283D+03 -.923764585521398D+02 -.144174933444342D+02 0.150669557909670D+03
0.483806498084D-05 0.000000000000D+00 0.000000000000D+00 0.230606470468D-05 0.884852705658D-09  6 3 -3 25 23 21 21 4 0.23747902D-01 0.68255110D-01 0.50747370D+05 0.50747370D+05 0.50747370D+05 0.11916441D+01  1  2  1  2  6  2       -3 0.833354098702D-04 0.100000000000D+01
  </mgrwgt>
  </event>
  <event>
  5     66 0.47055975E-03 0.23615103E+02 0.75467711E-02 0.11746082E+00
        3 -1    0    0  502    0 0.00000000E+00 0.00000000E+00 0.38124558E+03 0.38124590E+03 0.50000000E+00 0.0000E+00 0.9000E+01
       -3 -1    0    0    0  501 0.00000000E+00 0.00000000E+00 -.93799217E+02 0.93800549E+02 0.50000000E+00 0.0000E+00 0.9000E+01
       25  1    1    2    0    0 0.11762769E+03 -.10482647E+02 0.18437571E+03 0.25212211E+03 0.12500000E+03 0.0000E+00 0.9000E+01
       23  1    1    2    0    0 -.10578522E+03 0.30911799E+02 0.12554037E+03 0.19031997E+03 0.91188000E+02 0.0000E+00 0.9000E+01
       21  1    1    2  502  501 -.11842464E+02 -.20429152E+02 -.22469722E+02 0.32604373E+02 0.75000000E+00 0.0000E+00 0.9000E+01
#aMCatNLO 1  0  0  5  1 0.49259343D+01 0.00000000D+00  -5  6  0 0.00000000D+00 0.00000000D+00 0.00000000D+00 0.00000000D+00 0.00000000D+00
  <mgrwgt>
 0.1007555261D-01    9    2    0
 0.189105607691984D+03 0.000000000000000D+00 0.000000000000000D+00 0.189105607691984D+03
 0.189105607691984D+03 -.000000000000000D+00 -.000000000000000D+00 -.189105607691984D+03
 0.176546498000103D+03 0.117628149010520D+03 -.104818501666046D+02 0.399676786108995D+02
 0.143635897613941D+03 -.105784847509915D+03 0.309124471890990D+02 0.130386496788491D+02
 0.580288197699246D+02 -.118433015006053D+02 -.204305970224944D+02 -.530063282897485D+02
 0.000000000000000D+00 0.000000000000000D+00 0.000000000000000D+00 0.000000000000000D+00
 0.189105607691984D+03 0.000000000000000D+00 0.000000000000000D+00 0.189105607691984D+03
 0.189105607691984D+03 -.000000000000000D+00 -.000000000000000D+00 -.189105607691984D+03
 0.172958648945315D+03 0.115100907467751D+03 -.148415342915234D+02 0.286566607434030D+02
 0.143911547635413D+03 -.107864078260885D+03 0.273256157985720D+02 0.373276586170365D+01
 0.132881077829679D+02 0.114919217825016D+01 0.885484851219683D+01 0.984097676123999D+01
 0.480529110202725D+02 -.838602138511661D+01 -.213389300192454D+02 -.422304033663466D+02
0.208395269474D-03 0.000000000000D+00 0.000000000000D+00 0.249529442573D-04 0.000000000000D+00  6 3 -3 25 23 21 21 2 0.58653293D-01 0.14430776D-01 0.28666031D+05 0.28666031D+05 0.28666031D+05 0.12169771D+01  1  2  2  3  6  5       21 0.847090667141D-02 0.100000000000D+01
0.378682019907D-04 0.109973205044D-04 -.800292706514D-06 0.249529442573D-04 0.000000000000D+00  6 3 -3 25 23 21 21 4 0.58653293D-01 0.14430776D-01 0.28666031D+05 0.28666031D+05 0.28666031D+05 0.12169771D+01  1  2  3  3  6  5       21 0.227972015550D-02 0.100000000000D+01
0.428903992455D-05 0.000000000000D+00 0.000000000000D+00 0.249529442573D-04 0.000000000000D+00  6 3 -3 25 23 21 21 4 0.58653293D-01 0.14430776D-01 0.28666031D+05 0.28666031D+05 0.28666031D+05 0.12169771D+01  1  2 15  3  6  5       21 0.258206364436D-03 0.100000000000D+01
-.216134354768D-04 0.000000000000D+00 0.000000000000D+00 0.249529442573D-04 0.000000000000D+00  6 3 -3 25 23 21 21 4 0.58653293D-01 0.14430776D-01 0.28666031D+05 0.28666031D+05 0.28666031D+05 0.12169771D+01  1  2  4  3  6  5       21 -.130115986226D-02 0.100000000000D+01
0.514372776078D-05 0.000000000000D+00 0.000000000000D+00 0.249529442573D-04 0.115692778907D-05  6 3 -3 25 23 21 21 4 0.58653293D-01 0.14430776D-01 0.29978842D+05 0.29978842D+05 0.29978842D+05 0.12149306D+01  1  2 11  3  6  5       21 0.308384712998D-03 0.100000000000D+01
0.162152077572D-06 0.000000000000D+00 0.000000000000D+00 0.248690899777D-04 0.469332681261D-08  6 3 -3 25 23 3 -3 4 0.58653293D-01 0.14430776D-01 0.29978842D+05 0.29978842D+05 0.29978842D+05 0.12149306D+01  1  2 11  6  6  5       21 0.972159185512D-05 0.100000000000D+01
0.276300186060D-06 0.000000000000D+00 0.000000000000D+00 0.248690899777D-04 0.163960488922D-08  6 3 -3 25 23 2 -2 4 0.58653293D-01 0.14430776D-01 0.29978842D+05 0.29978842D+05 0.29978842D+05 0.12149306D+01  1  2 11  7  6  5       21 0.165651755968D-04 0.100000000000D+01
0.276300186060D-06 0.000000000000D+00 0.000000000000D+00 0.248690899777D-04 0.163960488922D-08  6 3 -3 25 23 4 -4 4 0.58653293D-01 0.14430776D-01 0.29978842D+05 0.29978842D+05 0.29978842D+05 0.12149306D+01  1  2 11  7  6  5       21 0.165651755968D-04 0.100000000000D+01
0.277591937831D-06 0.000000000000D+00 0.000000000000D+00 0.248690899777D-04 0.164727032930D-08  6 3 -3 25 23 1 -1 4 0.58653293D-01 0.14430776D-01 0.29978842D+05 0.29978842D+05 0.29978842D+05 0.12149306D+01  1  2 11  8  6  5       21 0.166426206945D-04 0.100000000000D+01
  </mgrwgt>
  </event>
  <event>
  5     66 -.47055975E-03 0.47702576E+02 0.75467711E-02 0.10933911E+00
        1 -1    0    0  502    0 0.00000000E+00 0.00000000E+00 0.95308605E+02 0.95309142E+02 0.32000000E+00 0.0000E+00 0.9000E+01
       -1 -1    0    0    0  501 -.00000000E+00 -.00000000E+00 -.91788776E+03 0.91788782E+03 0.32000000E+00 0.0000E+00 0.9000E+01
       25  1    1    2    0    0 0.14151040E+03 0.21134460E+03 -.34075708E+03 0.44320663E+03 0.12500000E+03 0.0000E+00 0.9000E+01
       23  1    1    2    0    0 -.14586758E+03 -.16384400E+03 -.30363589E+03 0.38552849E+03 0.91188000E+02 0.0000E+00 0.9000E+01
       21  1    1    2  502  501 0.43571824E+01 -.47500600E+02 -.17818618E+03 0.18446184E+03 0.75000000E+00 0.0000E+00 0.9000E+01
#aMCatNLO 1  0  0  5  1 0.70144573D+01 0.00000000D+00  -5  6  0 0.00000000D+00 0.00000000D+00 0.00000000D+00 0.00000000D+00 0.00000000D+00
  <mgrwgt>
 -.1293967970D+00   25    2    0
 0.295775087265032D+03 0.000000000000000D+00 0.000000000000000D+00 0.295775087265032D+03
 0.295775087265032D+03 -.000000000000000D+00 -.000000000000000D+00 -.295775087265032D+03
 0.285278603437118D+03 0.141510271011167D+03 0.211345984280357D+03 0.326588380985234D+02
 0.238105495618800D+03 -.145867686721170D+03 -.163842840322419D+03 0.160348790320123D+02
 0.681660754741464D+02 0.435741571000336D+01 -.475031439579384D+02 -.486937171305356D+02
 0.000000000000000D+00 0.000000000000000D+00 0.000000000000000D+00 -.000000000000000D+00
 0.295775087265032D+03 0.000000000000000D+00 0.000000000000000D+00 0.295775087265032D+03
 0.295775087265032D+03 -.000000000000000D+00 -.000000000000000D+00 -.295775087265032D+03
 0.284876157963780D+03 0.141555763581276D+03 0.210850038919454D+03 0.321504628394582D+02
 0.238339400817223D+03 -.145829671248317D+03 -.164257272774991D+03 0.156100596425174D+02
 0.379769927195467D+02 -.146125836662614D+01 -.303766279133458D+02 -.227459265940214D+02
 0.303576230295137D+02 0.573516603366729D+01 -.162161382311165D+02 -.250145958879542D+02
0.862807045136D-03 0.000000000000D+00 0.000000000000D+00 0.439203124877D-05 0.000000000000D+00  6 1 -1 25 23 21 21 2 0.14662908D-01 0.14121355D+00 0.80846555D+05 0.80846555D+05 0.80846555D+05 0.11721506D+01  1  2  2  3  6  5       21 0.201725599855D-01 0.100000000000D+01
0.140977898888D-03 0.455315786813D-04 -.331340623564D-05 0.439203124877D-05 0.000000000000D+00  6 1 -1 25 23 21 21 4 0.14662908D-01 0.14121355D+00 0.80846555D+05 0.80846555D+05 0.80846555D+05 0.11721506D+01  1  2  3  3  6  5       21 0.452861292882D-02 0.100000000000D+01
0.132341055093D-05 0.000000000000D+00 0.000000000000D+00 0.439203124877D-05 0.000000000000D+00  6 1 -1 25 23 21 21 4 0.14662908D-01 0.14121355D+00 0.80846555D+05 0.80846555D+05 0.80846555D+05 0.11721506D+01  1  2 15  3  6  5       21 0.425117282802D-04 0.100000000000D+01
0.227112643149D-02 0.000000000000D+00 0.000000000000D+00 0.439221906300D-05 0.000000000000D+00  6 1 -1 25 23 21 21 4 0.14662908D-01 0.14121355D+00 0.80796922D+05 0.80796922D+05 0.80796922D+05 0.11721757D+01  1  2 12  3  6  5       21 0.729618915071D-01 0.100000000000D+01
0.223652465159D-02 0.000000000000D+00 0.000000000000D+00 0.439221906300D-05 0.000000000000D+00  6 1 -1 25 23 21 21 4 0.14662908D-01 0.14121355D+00 0.80796922D+05 0.80796922D+05 0.80796922D+05 0.11721757D+01  1  2 12  3  6  5       21 0.718502795440D-01 0.100000000000D+01
-.149204535442D-01 0.000000000000D+00 0.000000000000D+00 0.439203124877D-05 0.000000000000D+00  6 1 -1 25 23 21 21 4 0.14662908D-01 0.14121355D+00 0.80846555D+05 0.80846555D+05 0.80846555D+05 0.11721506D+01  1  2  4  3  6  5       21 -.479287600091D+00 0.100000000000D+01
-.475180189872D-02 0.000000000000D+00 0.000000000000D+00 0.439203124877D-05 0.000000000000D+00  6 1 -1 25 23 21 21 4 0.14662908D-01 0.14121355D+00 0.80846555D+05 0.80846555D+05 0.80846555D+05 0.11721506D+01  1  2  5  3  6  5       21 -.152641454323D+00 0.100000000000D+01
0.996165324531D-02 0.000000000000D+00 -.000000000000D+00 0.439203124877D-05 0.000000000000D+00  6 1 -1 25 23 21 21 4 0.14662908D-01 0.14121355D+00 0.80846555D+05 0.80846555D+05 0.80846555D+05 0.11721506D+01  1  2  6  3  6  5       21 0.319996765697D+00 0.100000000000D+01
0.257171000050D-03 0.000000000000D+00 0.000000000000D+00 0.439203124877D-05 0.555714913066D-06  6 1 -1 25 23 21 21 4 0.14662908D-01 0.14121355D+00 0.80796922D+05 0.80796922D+05 0.80796922D+05 0.11721757D+01  1  2 11  3  6  5       21 0.826183973919D-02 0.100000000000D+01
0.679766049926D-04 0.000000000000D+00 0.000000000000D+00 0.439221906300D-05 0.000000000000D+00  6 1 -1 25 23 1 -1 4 0.14662908D-01 0.14121355D+00 0.80796922D+05 0.80796922D+05 0.80796922D+05 0.11721757D+01  1  2 12  6  6  5       21 0.218380694695D-02 0.100000000000D+01
0.669581543192D-04 0.000000000000D+00 0.000000000000D+00 0.439221906300D-05 0.000000000000D+00  6 1 -1 25 23 1 -1 4 0.14662908D-01 0.14121355D+00 0.80796922D+05 0.80796922D+05 0.80796922D+05 0.11721757D+01  1  2 12  6  6  5       21 0.215108834242D-02 0.100000000000D+01
-.103061528127D-03 0.000000000000D+00 0.000000000000D+00 0.439203124877D-05 0.000000000000D+00  6 1 -1 25 23 1 -1 4 0.14662908D-01 0.14121355D+00 0.80846555D+05 0.80846555D+05 0.80846555D+05 0.11721506D+01  1  2  5  6  6  5       21 -.331063076143D-02 0.100000000000D+01
0.481404695487D-05 0.000000000000D+00 0.000000000000D+00 0.439203124877D-05 0.126923939800D-07  6 1 -1 25 23 1 -1 4 0.14662908D-01 0.14121355D+00 0.80796922D+05 0.80796922D+05 0.80796922D+05 0.11721757D+01  1  2 11  6  6  5       21 0.154655402166D-03 0.100000000000D+01
0.679766049926D-04 0.000000000000D+00 0.000000000000D+00 0.439221906300D-05 0.000000000000D+00  6 1 -1 25 23 2 -2 4 0.14662908D-01 0.14121355D+00 0.80796922D+05 0.80796922D+05 0.80796922D+05 0.11721757D+01  1  2 12  7  6  5       21 0.218380694695D-02 0.100000000000D+01
0.679766049926D-04 0.000000000000D+00 0.000000000000D+00 0.439221906300D-05 0.000000000000D+00  6 1 -1 25 23 4 -4 4 0.14662908D-01 0.14121355D+00 0.80796922D+05 0.80796922D+05 0.80796922D+05 0.11721757D+01  1  2 12  7  6  5       21 0.218380694695D-02 0.100000000000D+01
0.669581543192D-04 0.000000000000D+00 0.000000000000D+00 0.439221906300D-05 0.000000000000D+00  6 1 -1 25 23 2 -2 4 0.14662908D-01 0.14121355D+00 0.80796922D+05 0.80796922D+05 0.80796922D+05 0.11721757D+01  1  2 12  7  6  5       21 0.215108834242D-02 0.100000000000D+01
0.669581543192D-04 0.000000000000D+00 0.000000000000D+00 0.439221906300D-05 0.000000000000D+00  6 1 -1 25 23 4 -4 4 0.14662908D-01 0.14121355D+00 0.80796922D+05 0.80796922D+05 0.80796922D+05 0.11721757D+01  1  2 12  7  6  5       21 0.215108834242D-02 0.100000000000D+01
-.103061528127D-03 0.000000000000D+00 0.000000000000D+00 0.439203124877D-05 0.000000000000D+00  6 1 -1 25 23 2 -2 4 0.14662908D-01 0.14121355D+00 0.80846555D+05 0.80846555D+05 0.80846555D+05 0.11721506D+01  1  2  5  7  6  5       21 -.331063076143D-02 0.100000000000D+01
-.103061528127D-03 0.000000000000D+00 0.000000000000D+00 0.439203124877D-05 0.000000000000D+00  6 1 -1 25 23 4 -4 4 0.14662908D-01 0.14121355D+00 0.80846555D+05 0.80846555D+05 0.80846555D+05 0.11721506D+01  1  2  5  7  6  5       21 -.331063076143D-02 0.100000000000D+01
0.483538237433D-05 0.000000000000D+00 0.000000000000D+00 0.439203124877D-05 0.125446743224D-07  6 1 -1 25 23 2 -2 4 0.14662908D-01 0.14121355D+00 0.80796922D+05 0.80796922D+05 0.80796922D+05 0.11721757D+01  1  2 11  7  6  5       21 0.155340820880D-03 0.100000000000D+01
0.483538237433D-05 0.000000000000D+00 0.000000000000D+00 0.439203124877D-05 0.125446743224D-07  6 1 -1 25 23 4 -4 4 0.14662908D-01 0.14121355D+00 0.80796922D+05 0.80796922D+05 0.80796922D+05 0.11721757D+01  1  2 11  7  6  5       21 0.155340820880D-03 0.100000000000D+01
0.679766049926D-04 0.000000000000D+00 0.000000000000D+00 0.439221906300D-05 0.000000000000D+00  6 1 -1 25 23 3 -3 4 0.14662908D-01 0.14121355D+00 0.80796922D+05 0.80796922D+05 0.80796922D+05 0.11721757D+01  1  2 12  8  6  5       21 0.218380694695D-02 0.100000000000D+01
0.669581543192D-04 0.000000000000D+00 0.000000000000D+00 0.439221906300D-05 0.000000000000D+00  6 1 -1 25 23 3 -3 4 0.14662908D-01 0.14121355D+00 0.80796922D+05 0.80796922D+05 0.80796922D+05 0.11721757D+01  1  2 12  8  6  5       21 0.215108834242D-02 0.100000000000D+01
-.103061528127D-03 0.000000000000D+00 0.000000000000D+00 0.439203124877D-05 0.000000000000D+00  6 1 -1 25 23 3 -3 4 0.14662908D-01 0.14121355D+00 0.80846555D+05 0.80846555D+05 0.80846555D+05 0.11721506D+01  1  2  5  8  6  5       21 -.331063076143D-02 0.100000000000D+01
0.483725962174D-05 0.000000000000D+00 0.000000000000D+00 0.439203124877D-05 0.125495445592D-07  6 1 -1 25 23 3 -3 4 0.14662908D-01 0.14121355D+00 0.80796922D+05 0.80796922D+05 0.80796922D+05 0.11721757D+01  1  2 11  8  6  5       21 0.155401129069D-03 0.100000000000D+01
  </mgrwgt>
  </event>
  <event>
  5     66 0.47055975E-03 0.28927040E+02 0.75467711E-02 0.11326869E+00
        1 -1    0    0  502    0 0.00000000E+00 0.00000000E+00 0.52650279E+03 0.52650289E+03 0.32000000E+00 0.0000E+00 0.9000E+01
       -1 -1    0    0    0  501 0.00000000E+00 0.00000000E+00 -.11450671E+03 0.11450715E+03 0.32000000E+00 0.0000E+00 0.9000E+01
       25  1    1    2    0    0 0.32552587E+02 0.15902507E+03 0.19424572E+03 0.28232082E+03 0.12500000E+03 0.0000E+00 0.9000E+01
       23  1    1    2    0    0 -.22085716E+02 -.18599022E+03 0.88663574E+02 0.22639925E+03 0.91188000E+02 0.0000E+00 0.9000E+01
       21  1    1    2  502  501 -.10466871E+02 0.26965155E+02 0.12908679E+03 0.13228997E+03 0.75000000E+00 0.0000E+00 0.9000E+01
#aMCatNLO 1  0  0  5  1 0.46025600D+01 0.00000000D+00  -5  6  0 0.00000000D+00 0.00000000D+00 0.00000000D+00 0.00000000D+00 0.00000000D+00
  <mgrwgt>
 0.6464534738D-01   25    2    0
 0.245536706910841D+03 0.000000000000000D+00 0.000000000000000D+00 0.245536706910841D+03
 0.245536706910841D+03 -.000000000000000D+00 -.000000000000000D+00 -.245536706910841D+03
 0.205553110400219D+03 0.325528839070611D+02 0.159024300317688D+03 0.166931978065228D+02
 0.221139569836054D+03 -.220853959627793D+02 -.185991045342393D+03 -.742093278563134D+02
 0.643807335854104D+02 -.104674879442818D+02 0.269667450247057D+02 0.575161300497905D+02
 0.000000000000000D+00 -.000000000000000D+00 0.000000000000000D+00 0.000000000000000D+00
 0.245536706910841D+03 0.000000000000000D+00 0.000000000000000D+00 0.245536706910841D+03
 0.245536706910841D+03 -.000000000000000D+00 -.000000000000000D+00 -.245536706910841D+03
 0.205655908813049D+03 0.325078860829978D+02 0.159140225442669D+03 0.169404491732843D+02
 0.220950496046990D+03 -.221337730412851D+02 -.185866414452150D+03 -.739435083632721D+02
 0.323346600908596D+02 -.700861928664266D+00 0.142624135847418D+02 0.290107324017535D+02
 0.321323488707834D+02 -.967325111304846D+01 0.124637754247394D+02 0.279923267882343D+02
0.642814131698D-04 0.000000000000D+00 0.000000000000D+00 0.128495744670D-04 0.000000000000D+00  6 1 -1 25 23 21 21 2 0.81000471D-01 0.17616458D-01 0.48866971D+05 0.48866971D+05 0.48866971D+05 0.11932689D+01  1  2  2  3  6  5       21 0.956831914115D-02 0.100000000000D+01
0.126326482138D-04 0.339222336904D-05 -.246857552257D-06 0.128495744670D-04 0.000000000000D+00  6 1 -1 25 23 21 21 4 0.81000471D-01 0.17616458D-01 0.48866971D+05 0.48866971D+05 0.48866971D+05 0.11932689D+01  1  2  3  3  6  5       21 0.267744936701D-02 0.100000000000D+01
0.738980611057D-06 0.000000000000D+00 0.000000000000D+00 0.128495744670D-04 0.000000000000D+00  6 1 -1 25 23 21 21 4 0.81000471D-01 0.17616458D-01 0.48866971D+05 0.48866971D+05 0.48866971D+05 0.11932689D+01  1  2 15  3  6  5       21 0.156624575926D-03 0.100000000000D+01
0.679475471049D-04 0.000000000000D+00 0.000000000000D+00 0.128449338255D-04 0.000000000000D+00  6 1 -1 25 23 21 21 4 0.81000471D-01 0.17616458D-01 0.49111863D+05 0.49111863D+05 0.49111863D+05 0.11930534D+01  1  2 12  3  6  5       21 0.143910551030D-01 0.100000000000D+01
0.696240126232D-04 0.000000000000D+00 0.000000000000D+00 0.128449338255D-04 0.000000000000D+00  6 1 -1 25 23 21 21 4 0.81000471D-01 0.17616458D-01 0.49111863D+05 0.49111863D+05 0.49111863D+05 0.11930534D+01  1  2 12  3  6  5       21 0.147461246924D-01 0.100000000000D+01
-.111153032852D-02 0.000000000000D+00 0.000000000000D+00 0.128495744670D-04 0.000000000000D+00  6 1 -1 25 23 21 21 4 0.81000471D-01 0.17616458D-01 0.48866971D+05 0.48866971D+05 0.48866971D+05 0.11932689D+01  1  2  4  3  6  5       21 -.235585296459D+00 0.100000000000D+01
-.530689529771D-03 0.000000000000D+00 0.000000000000D+00 0.128495744670D-04 0.000000000000D+00  6 1 -1 25 23 21 21 4 0.81000471D-01 0.17616458D-01 0.48866971D+05 0.48866971D+05 0.48866971D+05 0.11932689D+01  1  2  5  3  6  5       21 -.112477947737D+00 0.100000000000D+01
0.138066060419D-02 0.000000000000D+00 -.000000000000D+00 0.128495744670D-04 0.000000000000D+00  6 1 -1 25 23 21 21 4 0.81000471D-01 0.17616458D-01 0.48866971D+05 0.48866971D+05 0.48866971D+05 0.11932689D+01  1  2  6  3  6  5       21 0.292626597226D+00 0.100000000000D+01
0.383346781683D-03 0.000000000000D+00 0.000000000000D+00 0.128495744670D-04 0.256919982682D-05  6 1 -1 25 23 21 21 4 0.81000471D-01 0.17616458D-01 0.49111863D+05 0.49111863D+05 0.49111863D+05 0.11930534D+01  1  2 11  3  6  5       21 0.811915204274D-01 0.100000000000D+01
0.428590422962D-05 0.000000000000D+00 0.000000000000D+00 0.128449338255D-04 0.000000000000D+00  6 1 -1 25 23 1 -1 4 0.81000471D-01 0.17616458D-01 0.49111863D+05 0.49111863D+05 0.49111863D+05 0.11930534D+01  1  2 12  6  6  5       21 0.907739669240D-03 0.100000000000D+01
0.439164670694D-05 0.000000000000D+00 0.000000000000D+00 0.128449338255D-04 0.000000000000D+00  6 1 -1 25 23 1 -1 4 0.81000471D-01 0.17616458D-01 0.49111863D+05 0.49111863D+05 0.49111863D+05 0.11930534D+01  1  2 12  6  6  5       21 0.930135559640D-03 0.100000000000D+01
-.409119774183D-04 0.000000000000D+00 0.000000000000D+00 0.128495744670D-04 0.000000000000D+00  6 1 -1 25 23 1 -1 4 0.81000471D-01 0.17616458D-01 0.48866971D+05 0.48866971D+05 0.48866971D+05 0.11932689D+01  1  2  5  6  6  5       21 -.867116270382D-02 0.100000000000D+01
0.292087781235D-04 0.000000000000D+00 0.000000000000D+00 0.128495744670D-04 0.195340451288D-06  6 1 -1 25 23 1 -1 4 0.81000471D-01 0.17616458D-01 0.49111863D+05 0.49111863D+05 0.49111863D+05 0.11930534D+01  1  2 11  6  6  5       21 0.618631802585D-02 0.100000000000D+01
0.428590422962D-05 0.000000000000D+00 0.000000000000D+00 0.128449338255D-04 0.000000000000D+00  6 1 -1 25 23 2 -2 4 0.81000471D-01 0.17616458D-01 0.49111863D+05 0.49111863D+05 0.49111863D+05 0.11930534D+01  1  2 12  7  6  5       21 0.907739669240D-03 0.100000000000D+01
0.428590422962D-05 0.000000000000D+00 0.000000000000D+00 0.128449338255D-04 0.000000000000D+00  6 1 -1 25 23 4 -4 4 0.81000471D-01 0.17616458D-01 0.49111863D+05 0.49111863D+05 0.49111863D+05 0.11930534D+01  1  2 12  7  6  5       21 0.907739669240D-03 0.100000000000D+01
0.439164670694D-05 0.000000000000D+00 0.000000000000D+00 0.128449338255D-04 0.000000000000D+00  6 1 -1 25 23 2 -2 4 0.81000471D-01 0.17616458D-01 0.49111863D+05 0.49111863D+05 0.49111863D+05 0.11930534D+01  1  2 12  7  6  5       21 0.930135559640D-03 0.100000000000D+01
0.439164670694D-05 0.000000000000D+00 0.000000000000D+00 0.128449338255D-04 0.000000000000D+00  6 1 -1 25 23 4 -4 4 0.81000471D-01 0.17616458D-01 0.49111863D+05 0.49111863D+05 0.49111863D+05 0.11930534D+01  1  2 12  7  6  5       21 0.930135559640D-03 0.100000000000D+01
-.409119774183D-04 0.000000000000D+00 0.000000000000D+00 0.128495744670D-04 0.000000000000D+00  6 1 -1 25 23 2 -2 4 0.81000471D-01 0.17616458D-01 0.48866971D+05 0.48866971D+05 0.48866971D+05 0.11932689D+01  1  2  5  7  6  5       21 -.867116270382D-02 0.100000000000D+01
-.409119774183D-04 0.000000000000D+00 0.000000000000D+00 0.128495744670D-04 0.000000000000D+00  6 1 -1 25 23 4 -4 4 0.81000471D-01 0.17616458D-01 0.48866971D+05 0.48866971D+05 0.48866971D+05 0.11932689D+01  1  2  5  7  6  5       21 -.867116270382D-02 0.100000000000D+01
0.291109759561D-04 0.000000000000D+00 0.000000000000D+00 0.128495744670D-04 0.192381382468D-06  6 1 -1 25 23 2 -2 4 0.81000471D-01 0.17616458D-01 0.49111863D+05 0.49111863D+05 0.49111863D+05 0.11930534D+01  1  2 11  7  6  5       21 0.616560386557D-02 0.100000000000D+01
0.291109759561D-04 0.000000000000D+00 0.000000000000D+00 0.128495744670D-04 0.192381382468D-06  6 1 -1 25 23 4 -4 4 0.81000471D-01 0.17616458D-01 0.49111863D+05 0.49111863D+05 0.49111863D+05 0.11930534D+01  1  2 11  7  6  5       21 0.616560386557D-02 0.100000000000D+01
0.428590422962D-05 0.000000000000D+00 0.000000000000D+00 0.128449338255D-04 0.000000000000D+00  6 1 -1 25 23 3 -3 4 0.81000471D-01 0.17616458D-01 0.49111863D+05 0.49111863D+05 0.49111863D+05 0.11930534D+01  1  2 12  8  6  5       21 0.907739669240D-03 0.100000000000D+01
0.439164670694D-05 0.000000000000D+00 0.000000000000D+00 0.128449338255D-04 0.000000000000D+00  6 1 -1 25 23 3 -3 4 0.81000471D-01 0.17616458D-01 0.49111863D+05 0.49111863D+05 0.49111863D+05 0.11930534D+01  1  2 12  8  6  5       21 0.930135559640D-03 0.100000000000D+01
-.409119774183D-04 0.000000000000D+00 0.000000000000D+00 0.128495744670D-04 0.000000000000D+00  6 1 -1 25 23 3 -3 4 0.81000471D-01 0.17616458D-01 0.48866971D+05 0.48866971D+05 0.48866971D+05 0.11932689D+01  1  2  5  8  6  5       21 -.867116270382D-02 0.100000000000D+01
0.291153259866D-04 0.000000000000D+00 0.000000000000D+00 0.128495744670D-04 0.192410129869D-06  6 1 -1 25 23 3 -3 4 0.81000471D-01 0.17616458D-01 0.49111863D+05 0.49111863D+05 0.49111863D+05 0.11930534D+01  1  2 11  8  6  5       21 0.616652518698D-02 0.100000000000D+01
  </mgrwgt>
  </event>
  <event>
  6     66 0.47055975E-03 0.39677642E+02 0.75467711E-02 0.11420252E+00
        1 -1    0    0  502    0 0.00000000E+00 0.00000000E+00 0.64747104E+03 0.64747112E+03 0.32000000E+00 0.0000E+00 0.9000E+01
       21 -1    0    0  503  501 0.00000000E+00 0.00000000E+00 -.16357027E+03 0.16357199E+03 0.75000000E+00 0.0000E+00 0.9000E+01
       25  1    1    2    0    0 0.51070000E+02 -.63955408E+02 0.29912769E+03 0.33436629E+03 0.12500000E+03 0.0000E+00 0.9000E+01
       23  1    1    2    0    0 -.28431265E+02 0.13734866E+03 0.28473809E+03 0.33024843E+03 0.91188000E+02 0.0000E+00 0.9000E+01
        1  1    1    2  503    0 -.46196309E+02 -.39060934E+02 -.79852804E+02 0.10018198E+03 0.32000000E+00 0.0000E+00 0.9000E+01
       21  1    1    2  502  501 0.23557573E+02 -.34332319E+02 -.20112215E+02 0.46246417E+02 0.75000000E+00 0.0000E+00 0.9000E+01
#aMCatNLO 2  0  0  2  2 0.60496739D+02 0.00000000D+00  -5  6  0 0.00000000D+00 0.00000000D+00 0.00000000D+00 0.00000000D+00 0.00000000D+00
  <mgrwgt>
 0.8927961671D-01    1    2    0
 0.214386105315860D+03 0.000000000000000D+00 0.000000000000000D+00 0.214386105315860D+03
 0.214386105315860D+03 0.000000000000000D+00 0.000000000000000D+00 -.214386105315860D+03
 0.161373897164568D+03 0.338710287944512D+02 -.784973317961926D+02 0.557445692006348D+02
 0.163693804247387D+03 -.463964349549219D+02 0.122158890152262D+03 0.374831506843180D+02
 0.000000000000000D+00 -.000000000000000D+00 -.000000000000000D+00 -.000000000000000D+00
 0.103704509219765D+03 0.125254061604707D+02 -.436615583560689D+02 -.932277198849528D+02
 0.219962579779718D+03 0.000000000000000D+00 0.000000000000000D+00 0.219962579779718D+03
 0.481480317793217D+03 0.000000000000000D+00 0.000000000000000D+00 -.481480317793217D+03
 0.159470462684781D+03 0.510698870431883D+02 -.639549693998041D+02 0.557445692006348D+02
 0.171444939091202D+03 -.284313264423499D+02 0.137349149569595D+03 0.374831506843180D+02
 0.268423886352092D+03 -.461963086139574D+02 -.390609336691817D+02 -.261517738013498D+03
 0.102103609444860D+03 0.235577480131191D+02 -.343332465006096D+02 -.932277198849528D+02
0.830167776777D-04 0.000000000000D+00 0.000000000000D+00 0.770026757693D-05 0.464659725881D-08  6 1 21 25 23 1 21 4 0.99611025D-01 0.25164785D-01 0.43857217D+05 0.43857217D+05 0.43857217D+05 0.11979613D+01  1  2  1  5  5  2       -1 0.892796167087D-01 0.100000000000D+01
  </mgrwgt>
  </event>
  <event>
  5     66 0.47055975E-03 0.85656498E+02 0.75467711E-02 0.11487463E+00
        3 -1    0    0  502    0 0.00000000E+00 0.00000000E+00 0.17476855E+03 0.17476926E+03 0.50000000E+00 0.0000E+00 0.9000E+01
       -3 -1    0    0    0  501 0.00000000E+00 0.00000000E+00 -.59264634E+03 0.59264655E+03 0.50000000E+00 0.0000E+00 0.9000E+01
       25  1    1    2    0    0 -.61628854E+02 0.76843517E+02 0.11670680E+03 0.19735379E+03 0.12500000E+03 0.0000E+00 0.9000E+01
       23  1    1    2    0    0 -.22482967E+02 -.60653870E+02 -.28235249E+03 0.30368167E+03 0.91188000E+02 0.0000E+00 0.9000E+01
       21  1    1    2  502  501 0.84111820E+02 -.16189648E+02 -.25223209E+03 0.26638036E+03 0.75000000E+00 0.0000E+00 0.9000E+01
#aMCatNLO 1  0  0  1  5 0.42074906D+02 0.00000000D+00  -5  6  0 0.00000000D+00 0.00000000D+00 0.00000000D+00 0.00000000D+00 0.00000000D+00
  <mgrwgt>
 0.7887056035D-02    9    4    0
 0.321832714266553D+03 0.000000000000000D+00 0.000000000000000D+00 0.321832714266553D+03
 0.321832714266553D+03 0.000000000000000D+00 0.000000000000000D+00 -.321832714266553D+03
 0.311065451769450D+03 -.616293368543921D+02 0.768436104092787D+02 0.267270648711539D+03
 0.178759141318326D+03 -.224832441587489D+02 -.606538164163066D+02 -.139481889674252D+03
 0.153840835445329D+03 0.841125810131410D+02 -.161897939929721D+02 -.127788759037287D+03
 0.000000000000000D+00 -.000000000000000D+00 -.000000000000000D+00 0.000000000000000D+00
 0.359316474811558D+03 0.000000000000000D+00 0.000000000000000D+00 0.359316474811558D+03
 0.334547055483512D+03 0.000000000000000D+00 0.000000000000000D+00 -.334547055483512D+03
 0.315943626714087D+03 -.579379039628890D+02 0.969792497545245D+02 0.267270648711539D+03
 0.174975825121267D+03 -.204006764020779D+02 -.492940451586768D+02 -.139481889674252D+03
 0.154119680029475D+03 0.859256577533652D+02 -.630001394836079D+01 -.127788759037287D+03
 0.488243984302414D+02 -.758707738839826D+01 -.413851906474869D+02 0.247694193280461D+02
 0.321832714266553D+03 0.000000000000000D+00 0.000000000000000D+00 0.321832714266553D+03
 0.321832714266553D+03 0.000000000000000D+00 0.000000000000000D+00 -.321832714266553D+03
 0.311065451769450D+03 -.616293368543921D+02 0.768436104092787D+02 0.267270648711539D+03
 0.178759141318326D+03 -.224832441587489D+02 -.606538164163066D+02 -.139481889674252D+03
 0.000000000000000D+00 -.000000000000000D+00 -.000000000000000D+00 0.000000000000000D+00
 0.153840835445329D+03 0.841125810131410D+02 -.161897939929721D+02 -.127788759037287D+03
 0.359316474811558D+03 0.000000000000000D+00 0.000000000000000D+00 0.359316474811558D+03
 0.334547055483512D+03 0.000000000000000D+00 0.000000000000000D+00 -.334547055483512D+03
 0.315943626714087D+03 -.579379039628890D+02 0.969792497545245D+02 0.267270648711539D+03
 0.174975825121267D+03 -.204006764020779D+02 -.492940451586768D+02 -.139481889674252D+03
 0.488243984302414D+02 -.758707738839826D+01 -.413851906474869D+02 0.247694193280461D+02
 0.154119680029475D+03 0.859256577533652D+02 -.630001394836079D+01 -.127788759037287D+03
0.875661071501D-03 0.000000000000D+00 0.000000000000D+00 0.646767413918D-06 0.000000000000D+00  6 3 -3 25 23 21 21 2 0.26887540D-01 0.91176431D-01 0.31792022D+05 0.31792022D+05 0.31792022D+05 0.12122628D+01  1  2  2  1  6  1        3 0.457471015786D-02 0.100000000000D+01
-.586739537700D-04 0.462099042886D-04 -.336276908142D-05 0.646767413918D-06 0.000000000000D+00  6 3 -3 25 23 21 21 4 0.26887540D-01 0.91176431D-01 0.31792022D+05 0.31792022D+05 0.31792022D+05 0.12122628D+01  1  2  3  1  6  1        3 -.450470565663D-03 0.100000000000D+01
0.281085286180D-05 0.000000000000D+00 0.000000000000D+00 0.646767413918D-06 0.000000000000D+00  6 3 -3 25 23 21 21 4 0.26887540D-01 0.91176431D-01 0.31792022D+05 0.31792022D+05 0.31792022D+05 0.12122628D+01  1  2 15  1  6  1        3 0.215803844345D-04 0.100000000000D+01
0.290673384336D-02 0.000000000000D+00 0.000000000000D+00 0.635314248872D-06 0.000000000000D+00  6 3 -3 25 23 21 21 4 0.31186594D-01 0.91176431D-01 0.40473839D+05 0.40473839D+05 0.40473839D+05 0.12014812D+01  1  2 12  1  6  1        3 0.164911521811D-01 0.100000000000D+01
-.228657917002D-02 0.000000000000D+00 0.000000000000D+00 0.646767413918D-06 0.000000000000D+00  6 3 -3 25 23 21 21 4 0.26887540D-01 0.91176431D-01 0.31792022D+05 0.31792022D+05 0.31792022D+05 0.12122628D+01  1  2  4  1  6  1        3 -.175552616786D-01 0.100000000000D+01
-.654839620843D-02 0.000000000000D+00 -.167953575514D-02 0.646767413918D-06 0.000000000000D+00  6 3 -3 25 23 21 21 4 0.31085172D-01 0.91176431D-01 0.31792022D+05 0.31792022D+05 0.31792022D+05 0.12122628D+01  1  2  5  1  6  1        3 -.384365698836D-01 0.100000000000D+01
0.673853236232D-02 0.000000000000D+00 0.166201673646D-02 0.646767413918D-06 0.000000000000D+00  6 3 -3 25 23 21 21 4 0.26887540D-01 0.91176431D-01 0.31792022D+05 0.31792022D+05 0.31792022D+05 0.12122628D+01  1  2  6  1  6  1        3 0.517352298583D-01 0.100000000000D+01
0.657049019226D-04 0.000000000000D+00 0.000000000000D+00 0.635314248872D-06 0.000000000000D+00  6 21 -3 25 23 -3 21 4 0.31186594D-01 0.91176431D-01 0.40473839D+05 0.40473839D+05 0.40473839D+05 0.12014812D+01  3  4 12  4  5  1        3 0.744764284034D-02 0.100000000000D+01
-.134398798380D-03 0.000000000000D+00 -.372858125754D-04 0.646767413918D-06 0.000000000000D+00  6 21 -3 25 23 -3 21 4 0.31085172D-01 0.91176431D-01 0.31792022D+05 0.31792022D+05 0.31792022D+05 0.12122628D+01  3  4  5  4  5  1        3 -.159409572588D-01 0.100000000000D+01
  </mgrwgt>
  </event>
  <event>
  6     66 -.47055975E-03 0.85295086E+01 0.75467711E-02 0.12227365E+00
        1 -1    0    0  502    0 0.00000000E+00 0.00000000E+00 0.16347808E+04 0.16347808E+04 0.32000000E+00 0.0000E+00 0.9000E+01
       -1 -1    0    0    0  501 0.00000000E+00 0.00000000E+00 -.17781137E+02 0.17784016E+02 0.32000000E+00 0.0000E+00 0.9000E+01
       25  1    1    2    0    0 0.17134186E+02 0.36314022E+02 0.12946821E+04 0.13013220E+04 0.12500000E+03 0.0000E+00 0.9000E+01
       23  1    1    2    0    0 0.13605671E+02 -.26486396E+02 0.18879992E+03 0.21177182E+03 0.91188000E+02 0.0000E+00 0.9000E+01
        1  1    1    2  502    0 -.16676307E+02 -.15649896E+01 0.10724187E+03 0.10854248E+03 0.32000000E+00 0.0000E+00 0.9000E+01
       -1  1    1    2    0  501 -.14063551E+02 -.82626363E+01 0.26275792E+02 0.30928535E+02 0.32000000E+00 0.0000E+00 0.9000E+01
#aMCatNLO 2  0  0  5  2 0.11682619D+02 0.00000000D+00  -5  6  0 0.00000000D+00 0.00000000D+00 0.00000000D+00 0.00000000D+00 0.00000000D+00
  <mgrwgt>
 -.1398683542D-02    2    2    0
 0.170501219910497D+03 0.000000000000000D+00 0.000000000000000D+00 0.170501219910497D+03
 0.170501219910497D+03 -.000000000000000D+00 -.000000000000000D+00 -.170501219910497D+03
 0.168734652980688D+03 0.203763056525924D+02 0.373505371782900D+02 0.105052970719340D+03
 0.130347148393837D+03 0.161280476607216D+02 -.256799844239742D+02 -.880656132042629D+02
 0.419206384464690D+02 -.365043533133139D+02 -.116705527543158D+02 -.169873575150774D+02
 0.000000000000000D+00 0.000000000000000D+00 0.000000000000000D+00 -.000000000000000D+00
 0.170501219910497D+03 0.000000000000000D+00 0.000000000000000D+00 0.170501219910497D+03
 0.170501219910497D+03 -.000000000000000D+00 -.000000000000000D+00 -.170501219910497D+03
 0.167221089716891D+03 0.171614362343002D+02 0.363227336496974D+02 0.103556926242012D+03
 0.131011499113852D+03 0.136270220305837D+02 -.264795699228844D+02 -.892294693659889D+02
 0.171502266391385D+02 -.163121993823543D+02 -.147868169747721D+01 0.508487222274880D+01
 0.256196243511127D+02 -.144762588825296D+02 -.836448202933581D+01 -.194123290987720D+02
-.119911499723D-05 0.000000000000D+00 0.000000000000D+00 0.662320506430D-05 0.000000000000D+00  6 1 -1 25 23 1 -1 4 0.25150496D+00 0.27357834D-02 0.16941965D+05 0.16941965D+05 0.16941965D+05 0.12418397D+01  1  2 13  6  6  5       21 -.716059411187D-03 0.100000000000D+01
-.114312418790D-05 0.000000000000D+00 0.000000000000D+00 0.662320506430D-05 0.000000000000D+00  6 1 -1 25 23 1 -1 4 0.25150496D+00 0.27357834D-02 0.16941965D+05 0.16941965D+05 0.16941965D+05 0.12418397D+01  1  2 13  6  6  5       21 -.682624130954D-03 0.100000000000D+01
  </mgrwgt>
  </event>
  <event>
  5     66 0.47055975E-03 0.21717074E+02 0.75467711E-02 0.11913627E+00
        1 -1    0    0  502    0 0.00000000E+00 0.00000000E+00 0.46994504E+03 0.46994514E+03 0.32000000E+00 0.0000E+00 0.9000E+01
       -1 -1    0    0    0  501 0.00000000E+00 0.00000000E+00 -.77707938E+02 0.77708597E+02 0.32000000E+00 0.0000E+00 0.9000E+01
       25  1    1    2    0    0 0.36910028E+02 0.92510710E+02 0.10464861E+03 0.19104165E+03 0.12500000E+03 0.0000E+00 0.9000E+01
       23  1    1    2    0    0 -.55212474E+02 -.80822344E+02 0.98120700E+02 0.16590236E+03 0.91188000E+02 0.0000E+00 0.9000E+01
       21  1    1    2  502  501 0.18302446E+02 -.11688366E+02 0.18946778E+03 0.19070973E+03 0.75000000E+00 0.0000E+00 0.9000E+01
#aMCatNLO 1  0  0  5  1 0.67641512D+01 0.00000000D+00  -5  6  0 0.00000000D+00 0.00000000D+00 0.00000000D+00 0.00000000D+00 0.00000000D+00
  <mgrwgt>
 0.1944848721D+00   20    2    0
 0.191098587137570D+03 0.000000000000000D+00 0.000000000000000D+00 0.191098587137570D+03
 0.191098587137570D+03 -.000000000000000D+00 -.000000000000000D+00 -.191098587137570D+03
 0.166348130615282D+03 0.369096676755122D+02 0.925109407211986D+02 -.461096826942147D+02
 0.137025011367245D+03 -.552127709585929D+02 -.808221544841043D+02 -.296636421198598D+02
 0.788240322926126D+02 0.183031032830807D+02 -.116887862370942D+02 0.757733248140745D+02
 0.000000000000000D+00 0.000000000000000D+00 0.000000000000000D+00 0.000000000000000D+00
 0.191098587137570D+03 0.000000000000000D+00 0.000000000000000D+00 0.191098587137570D+03
 0.191098587137570D+03 -.000000000000000D+00 -.000000000000000D+00 -.191098587137570D+03
 0.166177982461455D+03 0.370432203190505D+02 0.924256509057190D+02 -.455567858612521D+02
 0.136924296433441D+03 -.551027445491969D+02 -.808924199008468D+02 -.292081419389151D+02
 0.262990073365666D+02 0.788704785422073D+00 -.816244841278650D+01 0.249878003745595D+02
 0.527958880436778D+02 0.172708194447243D+02 -.337078259208569D+01 0.497771274256077D+02
0.118482276818D-03 0.000000000000D+00 0.000000000000D+00 0.339066511259D-04 0.000000000000D+00  6 1 -1 25 23 21 21 2 0.72299295D-01 0.11955126D-01 0.24857088D+05 0.24857088D+05 0.24857088D+05 0.12235647D+01  1  2  2  3  6  5       21 0.394552180325D-01 0.100000000000D+01
0.232913698299D-04 0.625248152490D-05 -.455003140080D-06 0.339066511259D-04 0.000000000000D+00  6 1 -1 25 23 21 21 4 0.72299295D-01 0.11955126D-01 0.24857088D+05 0.24857088D+05 0.24857088D+05 0.12235647D+01  1  2  3  3  6  5       21 0.116118105431D-01 0.100000000000D+01
0.420877883590D-05 0.000000000000D+00 0.000000000000D+00 0.339066511259D-04 0.000000000000D+00  6 1 -1 25 23 21 21 4 0.72299295D-01 0.11955126D-01 0.24857088D+05 0.24857088D+05 0.24857088D+05 0.12235647D+01  1  2 15  3  6  5       21 0.209826827779D-02 0.100000000000D+01
0.992446871534D-04 0.000000000000D+00 0.000000000000D+00 0.338407290258D-04 0.000000000000D+00  6 1 -1 25 23 21 21 4 0.72299295D-01 0.11955126D-01 0.25501112D+05 0.25501112D+05 0.25501112D+05 0.12223746D+01  1  2 12  3  6  5       21 0.493049339763D-01 0.100000000000D+01
0.132283486687D-03 0.000000000000D+00 0.000000000000D+00 0.338407290258D-04 0.000000000000D+00  6 1 -1 25 23 21 21 4 0.72299295D-01 0.11955126D-01 0.25501112D+05 0.25501112D+05 0.25501112D+05 0.12223746D+01  1  2 12  3  6  5       21 0.657186673093D-01 0.100000000000D+01
-.507911653989D-03 0.000000000000D+00 0.000000000000D+00 0.339066511259D-04 0.000000000000D+00  6 1 -1 25 23 21 21 4 0.72299295D-01 0.11955126D-01 0.24857088D+05 0.24857088D+05 0.24857088D+05 0.12235647D+01  1  2  4  3  6  5       21 -.253217133292D+00 0.100000000000D+01
-.258710210927D-03 0.000000000000D+00 0.000000000000D+00 0.339066511259D-04 0.000000000000D+00  6 1 -1 25 23 21 21 4 0.72299295D-01 0.11955126D-01 0.24857088D+05 0.24857088D+05 0.24857088D+05 0.12235647D+01  1  2  5  3  6  5       21 -.128978843958D+00 0.100000000000D+01
0.885502971823D-03 0.000000000000D+00 -.000000000000D+00 0.339066511259D-04 0.000000000000D+00  6 1 -1 25 23 21 21 4 0.72299295D-01 0.11955126D-01 0.24857088D+05 0.24857088D+05 0.24857088D+05 0.12235647D+01  1  2  6  3  6  5       21 0.441463633065D+00 0.100000000000D+01
0.960878485472D-05 0.000000000000D+00 0.000000000000D+00 0.338407290258D-04 0.000000000000D+00  6 1 -1 25 23 1 -1 4 0.72299295D-01 0.11955126D-01 0.25501112D+05 0.25501112D+05 0.25501112D+05 0.12223746D+01  1  2 12  6  6  5       21 0.477366110411D-02 0.100000000000D+01
0.123137427545D-04 0.000000000000D+00 0.000000000000D+00 0.338407290258D-04 0.000000000000D+00  6 1 -1 25 23 1 -1 4 0.72299295D-01 0.11955126D-01 0.25501112D+05 0.25501112D+05 0.25501112D+05 0.12223746D+01  1  2 12  6  6  5       21 0.611748891477D-02 0.100000000000D+01
-.383797780763D-04 0.000000000000D+00 0.000000000000D+00 0.339066511259D-04 0.000000000000D+00  6 1 -1 25 23 1 -1 4 0.72299295D-01 0.11955126D-01 0.24857088D+05 0.24857088D+05 0.24857088D+05 0.12235647D+01  1  2  5  6  6  5       21 -.191340704717D-01 0.100000000000D+01
0.960878485472D-05 0.000000000000D+00 0.000000000000D+00 0.338407290258D-04 0.000000000000D+00  6 1 -1 25 23 2 -2 4 0.72299295D-01 0.11955126D-01 0.25501112D+05 0.25501112D+05 0.25501112D+05 0.12223746D+01  1  2 12  7  6  5       21 0.477366110411D-02 0.100000000000D+01
0.960878485472D-05 0.000000000000D+00 0.000000000000D+00 0.338407290258D-04 0.000000000000D+00  6 1 -1 25 23 4 -4 4 0.72299295D-01 0.11955126D-01 0.25501112D+05 0.25501112D+05 0.25501112D+05 0.12223746D+01  1  2 12  7  6  5       21 0.477366110411D-02 0.100000000000D+01
0.123137427545D-04 0.000000000000D+00 0.000000000000D+00 0.338407290258D-04 0.000000000000D+00  6 1 -1 25 23 2 -2 4 0.72299295D-01 0.11955126D-01 0.25501112D+05 0.25501112D+05 0.25501112D+05 0.12223746D+01  1  2 12  7  6  5       21 0.611748891477D-02 0.100000000000D+01
0.123137427545D-04 0.000000000000D+00 0.000000000000D+00 0.338407290258D-04 0.000000000000D+00  6 1 -1 25 23 4 -4 4 0.72299295D-01 0.11955126D-01 0.25501112D+05 0.25501112D+05 0.25501112D+05 0.12223746D+01  1  2 12  7  6  5       21 0.611748891477D-02 0.100000000000D+01
-.383797780763D-04 0.000000000000D+00 0.000000000000D+00 0.339066511259D-04 0.000000000000D+00  6 1 -1 25 23 2 -2 4 0.72299295D-01 0.11955126D-01 0.24857088D+05 0.24857088D+05 0.24857088D+05 0.12235647D+01  1  2  5  7  6  5       21 -.191340704717D-01 0.100000000000D+01
-.383797780763D-04 0.000000000000D+00 0.000000000000D+00 0.339066511259D-04 0.000000000000D+00  6 1 -1 25 23 4 -4 4 0.72299295D-01 0.11955126D-01 0.24857088D+05 0.24857088D+05 0.24857088D+05 0.12235647D+01  1  2  5  7  6  5       21 -.191340704717D-01 0.100000000000D+01
0.960878485472D-05 0.000000000000D+00 0.000000000000D+00 0.338407290258D-04 0.000000000000D+00  6 1 -1 25 23 3 -3 4 0.72299295D-01 0.11955126D-01 0.25501112D+05 0.25501112D+05 0.25501112D+05 0.12223746D+01  1  2 12  8  6  5       21 0.477366110411D-02 0.100000000000D+01
0.123137427545D-04 0.000000000000D+00 0.000000000000D+00 0.338407290258D-04 0.000000000000D+00  6 1 -1 25 23 3 -3 4 0.72299295D-01 0.11955126D-01 0.25501112D+05 0.25501112D+05 0.25501112D+05 0.12223746D+01  1  2 12  8  6  5       21 0.611748891477D-02 0.100000000000D+01
-.383797780763D-04 0.000000000000D+00 0.000000000000D+00 0.339066511259D-04 0.000000000000D+00  6 1 -1 25 23 3 -3 4 0.72299295D-01 0.11955126D-01 0.24857088D+05 0.24857088D+05 0.24857088D+05 0.12235647D+01  1  2  5  8  6  5       21 -.191340704717D-01 0.100000000000D+01
  </mgrwgt>
  </event>
  <event>
  6     66 0.47055975E-03 0.18974174E+02 0.75467711E-02 0.11836791E+00
        1 -1    0    0  502    0 0.00000000E+00 0.00000000E+00 0.23934615E+04 0.23934615E+04 0.32000000E+00 0.0000E+00 0.9000E+01
       -1 -1    0    0    0  503 0.00000000E+00 0.00000000E+00 -.13912977E+02 0.13916657E+02 0.32000000E+00 0.0000E+00 0.9000E+01
       25  1    1    2    0    0 0.12619813E+02 0.85515954E+02 0.10322223E+04 0.10433505E+04 0.12500000E+03 0.0000E+00 0.9000E+01
       23  1    1    2    0    0 0.78721231E-01 -.94747839E+02 0.11475082E+04 0.11550184E+04 0.91188000E+02 0.0000E+00 0.9000E+01
       21  1    1    2  502  501 0.15142524E+02 0.91995055E+01 0.15655814E+03 0.15755932E+03 0.75000000E+00 0.0000E+00 0.9000E+01
       21  1    1    2  501  503 -.27841058E+02 0.32380080E-01 0.43259828E+02 0.51449983E+02 0.75000000E+00 0.0000E+00 0.9000E+01
#aMCatNLO 2  0  0  2  2 0.17589953D+02 0.00000000D+00  -5  6  0 0.00000000D+00 0.00000000D+00 0.00000000D+00 0.00000000D+00 0.00000000D+00
  <mgrwgt>
 0.6610678430D-01    1    2    0
 0.151143698509727D+03 0.000000000000000D+00 0.000000000000000D+00 0.151143698509727D+03
 0.151143698509727D+03 0.000000000000000D+00 0.000000000000000D+00 -.151143698509727D+03
 0.152636466265505D+03 -.143896029082195D+01 0.855275359211346D+02 -.188642738148346D+02
 0.133071098357228D+03 -.121322463133786D+02 -.947377950045777D+02 0.164385118262328D+02
 0.165798323967219D+02 0.135712066042006D+02 0.921025908344310D+01 0.242576198860178D+01
 0.000000000000000D+00 -.000000000000000D+00 0.000000000000000D+00 -.000000000000000D+00
 0.154844977329608D+03 0.000000000000000D+00 0.000000000000000D+00 0.154844977329608D+03
 0.215077914879962D+03 0.000000000000000D+00 0.000000000000000D+00 -.215077914879962D+03
 0.153140789130703D+03 0.126125432064217D+02 0.855111935531213D+02 -.188642738148346D+02
 0.132527057368266D+03 0.728910805144150D-01 -.947519899871276D+02 0.164385118262328D+02
 0.178989434204686D+02 0.151556234645985D+02 0.920841635370076D+01 0.242576198860178D+01
 0.663561022901338D+02 -.278410577515346D+02 0.323800803055878D-01 -.602329375503538D+02
0.255297407041D-03 0.000000000000D+00 0.000000000000D+00 0.516422740593D-04 0.206850024424D-06  6 1 -1 25 23 21 21 4 0.36822018D+00 0.21407140D-02 0.27068961D+05 0.27068961D+05 0.27068961D+05 0.12196127D+01  1  2  1  2  6  2       -1 0.661067842974D-01 0.100000000000D+01
  </mgrwgt>
  </event>
  <event>
  5     66 0.47055975E-03 0.31067749E+02 0.75467711E-02 0.12292910E+00
        1 -1    0    0  502    0 0.00000000E+00 0.00000000E+00 0.18912087E+04 0.18912087E+04 0.32000000E+00 0.0000E+00 0.9000E+01
       -1 -1    0    0    0  501 0.00000000E+00 0.00000000E+00 -.88607581E+01 0.88665345E+01 0.32000000E+00 0.0000E+00 0.9000E+01
       25  1    1    2    0    0 0.11266905E+02 -.25809252E+02 0.89113199E+03 0.90029678E+03 0.12500000E+03 0.0000E+00 0.9000E+01
       23  1    1    2    0    0 -.36903641E+02 0.82736715E+01 0.70423392E+03 0.71111954E+03 0.91188000E+02 0.0000E+00 0.9000E+01
       21  1    1    2  502  501 0.25636736E+02 0.17535581E+02 0.28698201E+03 0.28865892E+03 0.75000000E+00 0.0000E+00 0.9000E+01
#aMCatNLO 1  0  0  5  2 0.30468540D+01 0.00000000D+00  -5  6  0 0.00000000D+00 0.00000000D+00 0.00000000D+00 0.00000000D+00 0.00000000D+00
  <mgrwgt>
 0.4203583633D+00   14    2    0
 0.129472221369163D+03 0.000000000000000D+00 0.000000000000000D+00 0.129472221369163D+03
 0.129472221369163D+03 -.000000000000000D+00 -.000000000000000D+00 -.129472221369163D+03
 0.128256162911949D+03 0.112634053415961D+02 -.258116461894480D+02 -.561586556089177D+01
 0.987377715871756D+02 -.369063350481609D+02 0.827182867809334D+01 -.184268218486966D+01
 0.319505082392009D+02 0.256429297065647D+02 0.175398175113546D+02 0.745854774576141D+01
 0.000000000000000D+00 -.000000000000000D+00 0.000000000000000D+00 0.000000000000000D+00
 0.129472221369163D+03 0.000000000000000D+00 0.000000000000000D+00 0.129472221369163D+03
 0.129472221369163D+03 -.000000000000000D+00 -.000000000000000D+00 -.129472221369163D+03
 0.128148232157055D+03 0.134500618611192D+02 -.243159685601235D+02 -.497985079030694D+01
 0.982178859539703D+02 -.352266665990167D+02 0.942072540770638D+01 -.135413085831107D+01
 0.290575581766699D+02 0.240840707582582D+02 0.157989560774008D+02 0.383304184246961D+01
 0.352076645062976D+01 -.230746602036083D+01 -.903712924983738D+00 0.250093980614839D+01
0.356489460248D-03 0.000000000000D+00 0.000000000000D+00 0.203425071389D-04 0.000000000000D+00  6 1 -1 25 23 21 21 2 0.29095563D+00 0.13636400D-02 0.16630872D+05 0.16630872D+05 0.16630872D+05 0.12427447D+01  1  2  2  3  6  5       21 0.258776515072D+00 0.100000000000D+01
0.362836703639D-04 0.188124656606D-04 -.136901339318D-05 0.203425071389D-04 0.000000000000D+00  6 1 -1 25 23 21 21 4 0.29095563D+00 0.13636400D-02 0.16630872D+05 0.16630872D+05 0.16630872D+05 0.12427447D+01  1  2  3  3  6  5       21 0.406774049204D-01 0.100000000000D+01
0.107648054426D-04 0.000000000000D+00 0.000000000000D+00 0.203425071389D-04 0.000000000000D+00  6 1 -1 25 23 21 21 4 0.29095563D+00 0.13636400D-02 0.16630872D+05 0.16630872D+05 0.16630872D+05 0.12427447D+01  1  2 15  3  6  5       21 0.120683587268D-01 0.100000000000D+01
0.198385683141D-05 0.000000000000D+00 0.000000000000D+00 0.203472245981D-04 0.000000000000D+00  6 1 -1 25 23 21 21 4 0.29095563D+00 0.13636400D-02 0.16581938D+05 0.16581938D+05 0.16581938D+05 0.12428888D+01  1  2 12  3  6  5       21 0.222504731842D-02 0.100000000000D+01
-.362599615928D-03 0.000000000000D+00 0.000000000000D+00 0.203425071389D-04 0.000000000000D+00  6 1 -1 25 23 21 21 4 0.29095563D+00 0.13636400D-02 0.16630872D+05 0.16630872D+05 0.16630872D+05 0.12427447D+01  1  2  4  3  6  5       21 -.406508251595D+00 0.100000000000D+01
0.433278478104D-03 0.000000000000D+00 0.000000000000D+00 0.203425071389D-04 0.847288164723D-05  6 1 -1 25 23 21 21 4 0.29095563D+00 0.13636400D-02 0.16581938D+05 0.16581938D+05 0.16581938D+05 0.12428888D+01  1  2 11  3  6  5       21 0.485954984540D+00 0.100000000000D+01
0.582094590479D-07 0.000000000000D+00 0.000000000000D+00 0.203472245981D-04 0.000000000000D+00  6 1 -1 25 23 1 -1 4 0.29095563D+00 0.13636400D-02 0.16581938D+05 0.16581938D+05 0.16581938D+05 0.12428888D+01  1  2 12  6  6  5       21 0.652863647774D-04 0.100000000000D+01
0.585812744736D-05 0.000000000000D+00 0.000000000000D+00 0.203472245981D-04 0.100961159129D-06  6 1 -1 25 23 1 -1 4 0.29095563D+00 0.13636400D-02 0.16581938D+05 0.16581938D+05 0.16581938D+05 0.12428888D+01  1  2 11  6  6  5       21 0.657033842432D-02 0.100000000000D+01
0.582094590479D-07 0.000000000000D+00 0.000000000000D+00 0.203472245981D-04 0.000000000000D+00  6 1 -1 25 23 2 -2 4 0.29095563D+00 0.13636400D-02 0.16581938D+05 0.16581938D+05 0.16581938D+05 0.12428888D+01  1  2 12  7  6  5       21 0.652863647774D-04 0.100000000000D+01
0.582094590479D-07 0.000000000000D+00 0.000000000000D+00 0.203472245981D-04 0.000000000000D+00  6 1 -1 25 23 4 -4 4 0.29095563D+00 0.13636400D-02 0.16581938D+05 0.16581938D+05 0.16581938D+05 0.12428888D+01  1  2 12  7  6  5       21 0.652863647774D-04 0.100000000000D+01
0.603892269652D-05 0.000000000000D+00 0.000000000000D+00 0.203472245981D-04 0.940747364734D-07  6 1 -1 25 23 2 -2 4 0.29095563D+00 0.13636400D-02 0.16581938D+05 0.16581938D+05 0.16581938D+05 0.12428888D+01  1  2 11  7  6  5       21 0.677311413775D-02 0.100000000000D+01
0.603892269652D-05 0.000000000000D+00 0.000000000000D+00 0.203472245981D-04 0.940747364734D-07  6 1 -1 25 23 4 -4 4 0.29095563D+00 0.13636400D-02 0.16581938D+05 0.16581938D+05 0.16581938D+05 0.12428888D+01  1  2 11  7  6  5       21 0.677311413775D-02 0.100000000000D+01
0.582094590479D-07 0.000000000000D+00 0.000000000000D+00 0.203472245981D-04 0.000000000000D+00  6 1 -1 25 23 3 -3 4 0.29095563D+00 0.13636400D-02 0.16581938D+05 0.16581938D+05 0.16581938D+05 0.12428888D+01  1  2 12  8  6  5       21 0.652863647774D-04 0.100000000000D+01
0.605093976968D-05 0.000000000000D+00 0.000000000000D+00 0.203472245981D-04 0.942619392326D-07  6 1 -1 25 23 3 -3 4 0.29095563D+00 0.13636400D-02 0.16581938D+05 0.16581938D+05 0.16581938D+05 0.12428888D+01  1  2 11  8  6  5       21 0.678659220531D-02 0.100000000000D+01
  </mgrwgt>
  </event>
  <event>
  5     66 -.47055975E-03 0.24743701E+02 0.75467711E-02 0.12205669E+00
        1 -1    0    0  502    0 0.00000000E+00 0.00000000E+00 0.16075360E+03 0.16075392E+03 0.32000000E+00 0.0000E+00 0.9000E+01
       -1 -1    0    0    0  501 0.00000000E+00 0.00000000E+00 -.15648356E+03 0.15648389E+03 0.32000000E+00 0.0000E+00 0.9000E+01
       25  1    1    2    0    0 0.45024859E+02 0.53071306E+02 -.55449847E+02 0.15343887E+03 0.12500000E+03 0.0000E+00 0.9000E+01
       23  1    1    2    0    0 -.30847477E+02 -.32793765E+02 0.28066064E+01 0.10173557E+03 0.91188000E+02 0.0000E+00 0.9000E+01
       21  1    1    2  502  501 -.14177382E+02 -.20277541E+02 0.56913282E+02 0.62063362E+02 0.75000000E+00 0.0000E+00 0.9000E+01
#aMCatNLO 1  0  0  5  1 0.32880763D+00 0.00000000D+00  -5  6  0 0.00000000D+00 0.00000000D+00 0.00000000D+00 0.00000000D+00 0.00000000D+00
  <mgrwgt>
 -.3605169959D+00   15    2    0
 0.158604532054077D+03 0.000000000000000D+00 0.000000000000000D+00 0.158604532054077D+03
 0.158604532054077D+03 -.000000000000000D+00 -.000000000000000D+00 -.158604532054077D+03
 0.154200363654178D+03 0.450253744503402D+02 0.530720438595690D+02 -.575223953539443D+02
 0.101706727624463D+03 -.308471363828247D+02 -.327932784834947D+02 0.143602345387186D+01
 0.613019728295122D+02 -.141782380675156D+02 -.202787653760743D+02 0.560863719000725D+02
 0.000000000000000D+00 0.000000000000000D+00 0.000000000000000D+00 0.000000000000000D+00
 0.158604532054077D+03 0.000000000000000D+00 0.000000000000000D+00 0.158604532054077D+03
 0.158604532054077D+03 -.000000000000000D+00 -.000000000000000D+00 -.158604532054077D+03
 0.154199464983677D+03 0.450249767912998D+02 0.530714750981797D+02 -.575208222915704D+02
 0.101706942787505D+03 -.308473986698867D+02 -.327936536258620D+02 0.143706101084026D+01
 0.322445316190580D+02 -.764192153153299D+01 -.109035681313025D+02 0.293670403112804D+02
 0.290581247179135D+02 -.653565658988009D+01 -.937425334101520D+01 0.267167209694498D+02
0.333595233685D-05 0.000000000000D+00 0.000000000000D+00 0.295073129393D-04 0.000000000000D+00  6 1 -1 25 23 21 21 2 0.24731373D-01 0.24074443D-01 0.18158903D+05 0.18158903D+05 0.18158903D+05 0.12384702D+01  1  2  2  3  6  5       21 0.142478450460D-02 0.100000000000D+01
0.399370490926D-06 0.176043041325D-06 -.128109353499D-07 0.295073129393D-04 0.000000000000D+00  6 1 -1 25 23 21 21 4 0.24731373D-01 0.24074443D-01 0.18158903D+05 0.18158903D+05 0.18158903D+05 0.12384702D+01  1  2  3  3  6  5       21 0.261623316890D-03 0.100000000000D+01
0.132613328459D-06 0.000000000000D+00 0.000000000000D+00 0.295073129393D-04 0.000000000000D+00  6 1 -1 25 23 21 21 4 0.24731373D-01 0.24074443D-01 0.18158903D+05 0.18158903D+05 0.18158903D+05 0.12384702D+01  1  2 15  3  6  5       21 0.868735663839D-04 0.100000000000D+01
-.118779903570D-01 0.000000000000D+00 0.000000000000D+00 0.295073129393D-04 0.000000000000D+00  6 1 -1 25 23 21 21 4 0.24731373D-01 0.24074443D-01 0.18158903D+05 0.18158903D+05 0.18158903D+05 0.12384702D+01  1  2  4  3  6  5       21 -.778114383961D+01 0.100000000000D+01
-.654815092711D-02 0.000000000000D+00 0.000000000000D+00 0.295073129393D-04 0.000000000000D+00  6 1 -1 25 23 21 21 4 0.24731373D-01 0.24074443D-01 0.18158903D+05 0.18158903D+05 0.18158903D+05 0.12384702D+01  1  2  5  3  6  5       21 -.428962330460D+01 0.100000000000D+01
0.112822385380D-01 0.000000000000D+00 -.000000000000D+00 0.295073129393D-04 0.000000000000D+00  6 1 -1 25 23 21 21 4 0.24731373D-01 0.24074443D-01 0.18158903D+05 0.18158903D+05 0.18158903D+05 0.12384702D+01  1  2  6  3  6  5       21 0.739087322503D+01 0.100000000000D+01
0.658763080276D-02 0.000000000000D+00 0.000000000000D+00 0.295073129393D-04 0.156546975361D-02  6 1 -1 25 23 21 21 4 0.24731373D-01 0.24074443D-01 0.18158732D+05 0.18158732D+05 0.18158732D+05 0.12384707D+01  1  2 11  3  6  5       21 0.431549157643D+01 0.100000000000D+01
-.206077816002D-04 0.000000000000D+00 0.000000000000D+00 0.295073129393D-04 0.000000000000D+00  6 1 -1 25 23 1 -1 4 0.24731373D-01 0.24074443D-01 0.18158903D+05 0.18158903D+05 0.18158903D+05 0.12384702D+01  1  2  5  6  6  5       21 -.134999362709D-01 0.100000000000D+01
0.212870721225D-04 0.000000000000D+00 0.000000000000D+00 0.295073129393D-04 0.559363517820D-05  6 1 -1 25 23 1 -1 4 0.24731373D-01 0.24074443D-01 0.18158732D+05 0.18158732D+05 0.18158732D+05 0.12384707D+01  1  2 11  6  6  5       21 0.139449497371D-01 0.100000000000D+01
-.206077816002D-04 0.000000000000D+00 0.000000000000D+00 0.295073129393D-04 0.000000000000D+00  6 1 -1 25 23 2 -2 4 0.24731373D-01 0.24074443D-01 0.18158903D+05 0.18158903D+05 0.18158903D+05 0.12384702D+01  1  2  5  7  6  5       21 -.134999362709D-01 0.100000000000D+01
-.206077816002D-04 0.000000000000D+00 0.000000000000D+00 0.295073129393D-04 0.000000000000D+00  6 1 -1 25 23 4 -4 4 0.24731373D-01 0.24074443D-01 0.18158903D+05 0.18158903D+05 0.18158903D+05 0.12384702D+01  1  2  5  7  6  5       21 -.134999362709D-01 0.100000000000D+01
0.214536453466D-04 0.000000000000D+00 0.000000000000D+00 0.295073129393D-04 0.563734681150D-05  6 1 -1 25 23 2 -2 4 0.24731373D-01 0.24074443D-01 0.18158732D+05 0.18158732D+05 0.18158732D+05 0.12384707D+01  1  2 11  7  6  5       21 0.140540702036D-01 0.100000000000D+01
0.214536453466D-04 0.000000000000D+00 0.000000000000D+00 0.295073129393D-04 0.563734681150D-05  6 1 -1 25 23 4 -4 4 0.24731373D-01 0.24074443D-01 0.18158732D+05 0.18158732D+05 0.18158732D+05 0.12384707D+01  1  2 11  7  6  5       21 0.140540702036D-01 0.100000000000D+01
-.206077816002D-04 0.000000000000D+00 0.000000000000D+00 0.295073129393D-04 0.000000000000D+00  6 1 -1 25 23 3 -3 4 0.24731373D-01 0.24074443D-01 0.18158903D+05 0.18158903D+05 0.18158903D+05 0.12384702D+01  1  2  5  8  6  5       21 -.134999362709D-01 0.100000000000D+01
0.214607439006D-04 0.000000000000D+00 0.000000000000D+00 0.295073129393D-04 0.563921208941D-05  6 1 -1 25 23 3 -3 4 0.24731373D-01 0.24074443D-01 0.18158732D+05 0.18158732D+05 0.18158732D+05 0.12384707D+01  1  2 11  8  6  5       21 0.140587203959D-01 0.100000000000D+01
  </mgrwgt>
  </event>
  <event>
  5     66 -.47055975E-03 0.46097989E+02 0.75467711E-02 0.11756860E+00
        1 -1    0    0  502    0 0.00000000E+00 0.00000000E+00 0.89038860E+03 0.89038866E+03 0.32000000E+00 0.0000E+00 0.9000E+01
       -1 -1    0    0    0  501 0.00000000E+00 0.00000000E+00 -.36214042E+02 0.36215456E+02 0.32000000E+00 0.0000E+00 0.9000E+01
       25  1    1    2    0    0 0.67502301E+02 -.82215517E+02 0.26493359E+03 0.31165808E+03 0.12500000E+03 0.0000E+00 0.9000E+01
       23  1    1    2    0    0 -.21762708E+02 0.87920419E+02 0.39852331E+03 0.41873583E+03 0.91188000E+02 0.0000E+00 0.9000E+01
       21  1    1    2  502  501 -.45739593E+02 -.57049022E+01 0.19071766E+03 0.19621021E+03 0.75000000E+00 0.0000E+00 0.9000E+01
#aMCatNLO 1  0  0  2  5 0.54143533D+01 0.00000000D+00  -5  6  0 0.00000000D+00 0.00000000D+00 0.00000000D+00 0.00000000D+00 0.00000000D+00
  <mgrwgt>
 -.7707568818D-01   11    4    0
 0.179569630812567D+03 0.000000000000000D+00 0.000000000000000D+00 0.179569630812567D+03
 0.179569630812567D+03 0.000000000000000D+00 0.000000000000000D+00 -.179569630812567D+03
 0.173984158751187D+03 0.675045510103980D+02 -.822152362225033D+02 -.576998962054603D+02
 0.132521677705892D+03 -.217609939844056D+02 0.879206328108459D+02 0.322980678204660D+02
 0.526334251680545D+02 -.457435570259924D+02 -.570539658834260D+01 0.254018283849943D+02
 0.000000000000000D+00 -.000000000000000D+00 0.000000000000000D+00 -.000000000000000D+00
 0.180412409156918D+03 0.000000000000000D+00 0.000000000000000D+00 0.180412409156918D+03
 0.188501814762789D+03 0.000000000000000D+00 0.000000000000000D+00 -.188501814762789D+03
 0.175237715433790D+03 0.700892950563840D+02 -.827131767424762D+02 -.576998962054603D+02
 0.131963854452435D+03 -.198034207192969D+02 0.875435142133479D+02 0.322980678204660D+02
 0.519785025871381D+02 -.449692783298615D+02 -.585455825762052D+01 0.254018283849943D+02
 0.973415144634361D+01 -.531659600722556D+01 0.102422078674884D+01 -.808940560587106D+01
 0.179569630812567D+03 0.000000000000000D+00 0.000000000000000D+00 0.179569630812567D+03
 0.179569630812567D+03 0.000000000000000D+00 0.000000000000000D+00 -.179569630812567D+03
 0.173984158751187D+03 0.675045510103980D+02 -.822152362225033D+02 -.576998962054603D+02
 0.132521677705892D+03 -.217609939844056D+02 0.879206328108459D+02 0.322980678204660D+02
 0.000000000000000D+00 -.000000000000000D+00 0.000000000000000D+00 -.000000000000000D+00
 0.526334251680545D+02 -.457435570259924D+02 -.570539658834260D+01 0.254018283849943D+02
 0.180412409156918D+03 0.000000000000000D+00 0.000000000000000D+00 0.180412409156918D+03
 0.188501814762789D+03 0.000000000000000D+00 0.000000000000000D+00 -.188501814762789D+03
 0.175237715433790D+03 0.700892950563840D+02 -.827131767424762D+02 -.576998962054603D+02
 0.131963854452435D+03 -.198034207192969D+02 0.875435142133479D+02 0.322980678204660D+02
 0.973415144634361D+01 -.531659600722556D+01 0.102422078674884D+01 -.808940560587106D+01
 0.519785025871381D+02 -.449692783298615D+02 -.585455825762052D+01 0.254018283849943D+02
0.335351669892D-04 0.000000000000D+00 0.000000000000D+00 0.616189440708D-05 0.000000000000D+00  6 1 -1 25 23 21 21 2 0.13698298D+00 0.55715043D-02 0.28689816D+05 0.28689816D+05 0.28689816D+05 0.12169391D+01  1  2  2  2  6  2       -1 0.142709975681D-01 0.100000000000D+01
0.196601030817D-05 0.176969938177D-05 -.128783871251D-06 0.616189440708D-05 0.000000000000D+00  6 1 -1 25 23 21 21 4 0.13698298D+00 0.55715043D-02 0.28689816D+05 0.28689816D+05 0.28689816D+05 0.12169391D+01  1  2  3  2  6  2       -1 0.123901721195D-02 0.100000000000D+01
0.354862668843D-06 0.000000000000D+00 0.000000000000D+00 0.616189440708D-05 0.000000000000D+00  6 1 -1 25 23 21 21 4 0.13698298D+00 0.55715043D-02 0.28689816D+05 0.28689816D+05 0.28689816D+05 0.12169391D+01  1  2 15  2  6  2       -1 0.223641225454D-03 0.100000000000D+01
0.237528601942D-03 0.000000000000D+00 0.000000000000D+00 0.614720581885D-05 0.000000000000D+00  6 1 -1 25 23 21 21 4 0.13698298D+00 0.59089780D-02 0.29614871D+05 0.29614871D+05 0.29614871D+05 0.12154878D+01  1  2 12  2  6  2       -1 0.136488229142D+00 0.100000000000D+01
-.715335571178D-03 0.000000000000D+00 0.000000000000D+00 0.616189440708D-05 0.000000000000D+00  6 1 -1 25 23 21 21 4 0.13698298D+00 0.55715043D-02 0.28689816D+05 0.28689816D+05 0.28689816D+05 0.12169391D+01  1  2  4  2  6  2       -1 -.450818127109D+00 0.100000000000D+01
-.165403634855D-02 0.000000000000D+00 -.153888726806D-03 0.616189440708D-05 0.000000000000D+00  6 1 -1 25 23 21 21 4 0.13698298D+00 0.58748931D-02 0.28689816D+05 0.28689816D+05 0.28689816D+05 0.12169391D+01  1  2  5  2  6  2       -1 -.962962558106D+00 0.100000000000D+01
0.166007789422D-02 0.000000000000D+00 0.153672657478D-03 0.616189440708D-05 0.000000000000D+00  6 1 -1 25 23 21 21 4 0.13698298D+00 0.55715043D-02 0.28689816D+05 0.28689816D+05 0.28689816D+05 0.12169391D+01  1  2  6  2  6  2       -1 0.104621276682D+01 0.100000000000D+01
0.379366230908D-03 0.000000000000D+00 0.000000000000D+00 0.616189440708D-05 0.119208183923D-05  6 1 -1 25 23 21 21 4 0.13762588D+00 0.58486431D-02 0.29614871D+05 0.29614871D+05 0.29614871D+05 0.12154878D+01  1  2 11  2  6  2       -1 0.219713711704D+00 0.100000000000D+01
0.447765124341D-05 0.000000000000D+00 0.000000000000D+00 0.614720581885D-05 0.000000000000D+00  6 1 21 25 23 1 21 4 0.13698298D+00 0.59089780D-02 0.29614871D+05 0.29614871D+05 0.29614871D+05 0.12154878D+01  3  4 12  5  5  2       -1 0.431636369266D-01 0.100000000000D+01
-.150605728075D-04 0.000000000000D+00 -.141532361561D-05 0.616189440708D-05 0.000000000000D+00  6 1 21 25 23 1 21 4 0.13698298D+00 0.58748931D-02 0.28689816D+05 0.28689816D+05 0.28689816D+05 0.12169391D+01  3  4  5  5  5  2       -1 -.147357254420D+00 0.100000000000D+01
0.233653254817D-05 0.000000000000D+00 0.000000000000D+00 0.616189440708D-05 0.144043735386D-07  6 1 21 25 23 1 21 4 0.13762588D+00 0.58486431D-02 0.29614871D+05 0.29614871D+05 0.29614871D+05 0.12154878D+01  3  4 11  5  5  2       -1 0.227502508557D-01 0.100000000000D+01
  </mgrwgt>
  </event>
  <event>
  5     66 0.47055975E-03 0.29791498E+02 0.75467711E-02 0.11016216E+00
        1 -1    0    0  502    0 0.00000000E+00 0.00000000E+00 0.46184076E+03 0.46184087E+03 0.32000000E+00 0.0000E+00 0.9000E+01
       -1 -1    0    0    0  501 0.00000000E+00 0.00000000E+00 -.69629550E+02 0.69630285E+02 0.32000000E+00 0.0000E+00 0.9000E+01
       25  1    1    2    0    0 0.11140553E+03 0.46723358E+02 0.27780863E+03 0.32771466E+03 0.12500000E+03 0.0000E+00 0.9000E+01
       23  1    1    2    0    0 -.97049521E+02 -.20628624E+02 0.74564872E+02 0.15401078E+03 0.91188000E+02 0.0000E+00 0.9000E+01
       21  1    1    2  502  501 -.14356013E+02 -.26094735E+02 0.39837712E+02 0.49745714E+02 0.75000000E+00 0.0000E+00 0.9000E+01
#aMCatNLO 1  0  0  2  5 0.16519568D+03 0.00000000D+00  -5  6  0 0.00000000D+00 0.00000000D+00 0.00000000D+00 0.00000000D+00 0.00000000D+00
  <mgrwgt>
 0.6083742367D-01    5    4    0
 0.179326487922590D+03 0.000000000000000D+00 0.000000000000000D+00 0.179326487922590D+03
 0.179326487922590D+03 0.000000000000000D+00 0.000000000000000D+00 -.179326487922590D+03
 0.181824861838638D+03 0.111407786873839D+03 0.467274533280799D+02 0.532928748707104D+02
 0.146678262979858D+03 -.970477041598115D+02 -.206253202675575D+02 -.579275475741784D+02
 0.301498510266835D+02 -.143600827140278D+02 -.261021330605224D+02 0.463467270346795D+01
 0.000000000000000D+00 -.000000000000000D+00 -.000000000000000D+00 -.000000000000000D+00
 0.223626857869845D+03 0.000000000000000D+00 0.000000000000000D+00 0.223626857869845D+03
 0.457907853653997D+03 0.000000000000000D+00 0.000000000000000D+00 -.457907853653997D+03
 0.255108193225775D+03 0.192645211216058D+03 0.974827283904920D+02 0.532928748707104D+02
 0.118546337506090D+03 -.477354281350643D+02 0.101838560924186D+02 -.579275475741784D+02
 0.212145243639788D+02 -.481008526860879D+01 -.201355142132078D+02 0.463467270346795D+01
 0.286665656427999D+03 -.140099697812385D+03 -.875310702697027D+02 -.234280995784153D+03
 0.179326487922590D+03 0.000000000000000D+00 0.000000000000000D+00 0.179326487922590D+03
 0.179326487922590D+03 0.000000000000000D+00 0.000000000000000D+00 -.179326487922590D+03
 0.181824861838638D+03 0.111407786873839D+03 0.467274533280799D+02 0.532928748707104D+02
 0.146678262979858D+03 -.970477041598115D+02 -.206253202675575D+02 -.579275475741784D+02
 0.000000000000000D+00 -.000000000000000D+00 -.000000000000000D+00 -.000000000000000D+00
 0.301498510266835D+02 -.143600827140278D+02 -.261021330605224D+02 0.463467270346795D+01
 0.223626857869845D+03 0.000000000000000D+00 0.000000000000000D+00 0.223626857869845D+03
 0.457907853653997D+03 0.000000000000000D+00 0.000000000000000D+00 -.457907853653997D+03
 0.255108193225775D+03 0.192645211216058D+03 0.974827283904920D+02 0.532928748707104D+02
 0.118546337506090D+03 -.477354281350643D+02 0.101838560924186D+02 -.579275475741784D+02
 0.286665656427999D+03 -.140099697812385D+03 -.875310702697027D+02 -.234280995784153D+03
 0.212145243639788D+02 -.481008526860879D+01 -.201355142132078D+02 0.463467270346795D+01
0.164883391945D-03 0.000000000000D+00 0.000000000000D+00 0.131390504985D-04 0.000000000000D+00  6 1 -1 25 23 21 21 2 0.71052490D-01 0.10712304D-01 0.28626261D+05 0.28626261D+05 0.28626261D+05 0.12170407D+01  1  2  2  2  6  2       -1 0.659696400531D-01 0.100000000000D+01
0.316821070992D-04 0.870113564313D-05 -.633195639862D-06 0.131390504985D-04 0.000000000000D+00  6 1 -1 25 23 21 21 4 0.71052490D-01 0.10712304D-01 0.28626261D+05 0.28626261D+05 0.28626261D+05 0.12170407D+01  1  2  3  2  6  2       -1 0.187754985868D-01 0.100000000000D+01
0.306614001684D-05 0.000000000000D+00 0.000000000000D+00 0.131390504985D-04 0.000000000000D+00  6 1 -1 25 23 21 21 4 0.71052490D-01 0.10712304D-01 0.28626261D+05 0.28626261D+05 0.28626261D+05 0.12170407D+01  1  2 15  2  6  2       -1 0.181706056902D-02 0.100000000000D+01
-.131308506331D-03 0.000000000000D+00 -.982553360788D-04 0.131390504985D-04 0.000000000000D+00  6 1 -1 25 23 21 21 4 0.71052490D-01 0.33404967D-01 0.28626261D+05 0.28626261D+05 0.28626261D+05 0.12170407D+01  1  2  5  2  6  2       -1 -.124259572055D-01 0.100000000000D+01
-.125870372467D-04 0.000000000000D+00 -.128076612280D-04 0.131390504985D-04 0.000000000000D+00  6 1 21 25 23 1 21 4 0.71052490D-01 0.33404967D-01 0.28626261D+05 0.28626261D+05 0.28626261D+05 0.12170407D+01  3  4  5  5  5  2       -1 -.132988183296D-01 0.100000000000D+01
  </mgrwgt>
  </event>
  <event>
  5     66 0.47055975E-03 0.29969784E+02 0.75467711E-02 0.11265814E+00
        1 -1    0    0  502    0 0.00000000E+00 0.00000000E+00 0.45906883E+02 0.45907998E+02 0.32000000E+00 0.0000E+00 0.9000E+01
       -1 -1    0    0    0  501 0.00000000E+00 0.00000000E+00 -.45747960E+03 0.45747971E+03 0.32000000E+00 0.0000E+00 0.9000E+01
       25  1    1    2    0    0 -.39525481E+02 -.71927150E+02 -.18501046E+03 0.23788579E+03 0.12500000E+03 0.0000E+00 0.9000E+01
       23  1    1    2    0    0 0.23867881E+02 0.46380136E+02 -.14865971E+03 0.18203229E+03 0.91188000E+02 0.0000E+00 0.9000E+01
       21  1    1    2  502  501 0.15657600E+02 0.25547015E+02 -.77902546E+02 0.83469632E+02 0.75000000E+00 0.0000E+00 0.9000E+01
#aMCatNLO 1  0  0  1  1 0.14262241D+03 0.00000000D+00  -5  6  0 0.00000000D+00 0.00000000D+00 0.00000000D+00 0.00000000D+00 0.00000000D+00
  <mgrwgt>
 0.2386664398D-01    3    2    0
 0.144919878689159D+03 0.000000000000000D+00 0.000000000000000D+00 0.144919878689159D+03
 0.144919878689159D+03 0.000000000000000D+00 0.000000000000000D+00 -.144919878689159D+03
 0.150442359087691D+03 -.395274188076939D+02 -.719303128342973D+02 0.164777627677732D+02
 0.105051718823183D+03 0.238665272362447D+02 0.463779274222357D+02 0.298344439239536D+00
 0.343456794674441D+02 0.156608915714492D+02 0.255523854120616D+02 -.167761072070127D+02
 0.000000000000000D+00 0.000000000000000D+00 -.000000000000000D+00 -.000000000000000D+00
 0.178788983695708D+03 0.000000000000000D+00 0.000000000000000D+00 0.178788983695708D+03
 0.455902950666876D+03 0.000000000000000D+00 0.000000000000000D+00 -.455902950666876D+03
 0.182994079595883D+03 -.116624818625456D+03 -.631582788072403D+02 0.164777627677732D+02
 0.107992500757220D+03 -.253937019117774D+02 0.519826872103540D+02 0.298344439239536D+00
 0.320431948900244D+02 0.310410952124384D+00 0.272989415688540D+02 -.167761072070127D+02
 0.311662159119456D+03 0.141708109585109D+03 -.161233499719678D+02 -.277113966971167D+03
0.589744866875D-04 0.000000000000D+00 0.000000000000D+00 0.185347429357D-04 0.000000000000D+00  6 1 -1 25 23 21 21 2 0.70626918D-02 0.70381571D-01 0.20243359D+05 0.20243359D+05 0.20243359D+05 0.12332482D+01  1  2  2  1  6  1        1 0.190861144673D-01 0.100000000000D+01
0.737117232609D-05 0.311216916452D-05 -.226477557219D-06 0.185347429357D-04 0.000000000000D+00  6 1 -1 25 23 21 21 4 0.70626918D-02 0.70381571D-01 0.20243359D+05 0.20243359D+05 0.20243359D+05 0.12332482D+01  1  2  3  1  6  1        1 0.362819733240D-02 0.100000000000D+01
0.234111827522D-05 0.000000000000D+00 0.000000000000D+00 0.185347429357D-04 0.000000000000D+00  6 1 -1 25 23 21 21 4 0.70626918D-02 0.70381571D-01 0.20243359D+05 0.20243359D+05 0.20243359D+05 0.12332482D+01  1  2 15  1  6  1        1 0.115233218072D-02 0.100000000000D+01
  </mgrwgt>
  </event>
  <event>
  5     66 0.47055975E-03 0.58463911E+02 0.75467711E-02 0.12078042E+00
        1 -1    0    0  502    0 0.00000000E+00 0.00000000E+00 0.59726296E+02 0.59727153E+02 0.32000000E+00 0.0000E+00 0.9000E+01
       -1 -1    0    0    0  501 -.00000000E+00 -.00000000E+00 -.12343572E+04 0.12343573E+04 0.32000000E+00 0.0000E+00 0.9000E+01
       25  1    1    2    0    0 -.53077584E+02 -.75625288E+01 -.97591665E+02 0.16740237E+03 0.12500000E+03 0.0000E+00 0.9000E+01
       23  1    1    2    0    0 -.30395071E+01 0.24665183E+02 -.10618897E+04 0.10660875E+04 0.91188000E+02 0.0000E+00 0.9000E+01
       21  1    1    2  502  501 0.56117091E+02 -.17102654E+02 -.15149606E+02 0.60594569E+02 0.75000000E+00 0.0000E+00 0.9000E+01
#aMCatNLO 1  0  0  5  2 0.21678468D+02 0.00000000D+00  -5  6  0 0.00000000D+00 0.00000000D+00 0.00000000D+00 0.00000000D+00 0.00000000D+00
  <mgrwgt>
 0.2720181373D-01   20    2    0
 0.271521947138866D+03 0.000000000000000D+00 0.000000000000000D+00 0.271521947138866D+03
 0.271521947138866D+03 -.000000000000000D+00 -.000000000000000D+00 -.271521947138866D+03
 0.187827182282205D+03 -.530780223623656D+02 -.756239523160346D+01 0.129536034077526D+03
 0.243588513223688D+03 -.304007527042816D+01 0.246653561005249D+02 -.224504990103363D+03
 0.111628198771839D+03 0.561180976327939D+02 -.171029608689215D+02 0.949689560258374D+02
 0.000000000000000D+00 0.000000000000000D+00 0.000000000000000D+00 0.000000000000000D+00
 0.271521947138866D+03 0.000000000000000D+00 0.000000000000000D+00 0.271521947138866D+03
 0.271521947138866D+03 -.000000000000000D+00 -.000000000000000D+00 -.271521947138866D+03
 0.189306547237562D+03 -.514529196519375D+02 -.805767339028767D+01 0.132286204064649D+03
 0.240258764562201D+03 -.955134409889414D+00 0.240299343122608D+02 -.220976633561476D+03
 0.699889740407837D+02 0.520955058670423D+02 -.104658432486376D+02 0.455519580351207D+02
 0.434896084371857D+02 0.312548194784675D+00 -.550641767333561D+01 0.431384714617063D+02
0.329308971541D-03 0.000000000000D+00 0.000000000000D+00 0.144878201176D-05 0.000000000000D+00  6 1 -1 25 23 21 21 2 0.91887300D-02 0.18990118D+00 0.20908158D+05 0.20908158D+05 0.20908158D+05 0.12317085D+01  1  2  2  3  6  5       21 0.714627355938D-02 0.100000000000D+01
-.173825606280D-04 0.173781118649D-04 -.126463315976D-05 0.144878201176D-05 0.000000000000D+00  6 1 -1 25 23 21 21 4 0.91887300D-02 0.18990118D+00 0.20908158D+05 0.20908158D+05 0.20908158D+05 0.12317085D+01  1  2  3  3  6  5       21 -.572276210933D-03 0.100000000000D+01
0.788454670671D-05 0.000000000000D+00 0.000000000000D+00 0.144878201176D-05 0.000000000000D+00  6 1 -1 25 23 21 21 4 0.91887300D-02 0.18990118D+00 0.20908158D+05 0.20908158D+05 0.20908158D+05 0.12317085D+01  1  2 15  3  6  5       21 0.259578471251D-03 0.100000000000D+01
0.233621603002D-03 0.000000000000D+00 0.000000000000D+00 0.144941775739D-05 0.000000000000D+00  6 1 -1 25 23 21 21 4 0.91887300D-02 0.18990118D+00 0.20789740D+05 0.20789740D+05 0.20789740D+05 0.12319787D+01  1  2 12  3  6  5       21 0.769861761499D-02 0.100000000000D+01
0.321914161230D-03 0.000000000000D+00 0.000000000000D+00 0.144941775739D-05 0.000000000000D+00  6 1 -1 25 23 21 21 4 0.91887300D-02 0.18990118D+00 0.20789740D+05 0.20789740D+05 0.20789740D+05 0.12319787D+01  1  2 12  3  6  5       21 0.106081543843D-01 0.100000000000D+01
-.267162470941D-03 0.000000000000D+00 0.000000000000D+00 0.144878201176D-05 0.000000000000D+00  6 1 -1 25 23 21 21 4 0.91887300D-02 0.18990118D+00 0.20908158D+05 0.20908158D+05 0.20908158D+05 0.12317085D+01  1  2  4  3  6  5       21 -.879563890762D-02 0.100000000000D+01
-.617459723192D-03 0.000000000000D+00 0.000000000000D+00 0.144878201176D-05 0.000000000000D+00  6 1 -1 25 23 21 21 4 0.91887300D-02 0.18990118D+00 0.20908158D+05 0.20908158D+05 0.20908158D+05 0.12317085D+01  1  2  5  3  6  5       21 -.203282771943D-01 0.100000000000D+01
0.911067777546D-03 0.000000000000D+00 -.000000000000D+00 0.144878201176D-05 0.000000000000D+00  6 1 -1 25 23 21 21 4 0.91887300D-02 0.18990118D+00 0.20908158D+05 0.20908158D+05 0.20908158D+05 0.12317085D+01  1  2  6  3  6  5       21 0.299945690854D-01 0.100000000000D+01
0.581564717970D-05 0.000000000000D+00 0.000000000000D+00 0.144941775739D-05 0.000000000000D+00  6 1 -1 25 23 1 -1 4 0.91887300D-02 0.18990118D+00 0.20789740D+05 0.20789740D+05 0.20789740D+05 0.12319787D+01  1  2 12  6  6  5       21 0.191645135744D-03 0.100000000000D+01
0.785557590095D-05 0.000000000000D+00 0.000000000000D+00 0.144941775739D-05 0.000000000000D+00  6 1 -1 25 23 1 -1 4 0.91887300D-02 0.18990118D+00 0.20789740D+05 0.20789740D+05 0.20789740D+05 0.12319787D+01  1  2 12  6  6  5       21 0.258867648495D-03 0.100000000000D+01
-.464150222276D-05 0.000000000000D+00 0.000000000000D+00 0.144878201176D-05 0.000000000000D+00  6 1 -1 25 23 1 -1 4 0.91887300D-02 0.18990118D+00 0.20908158D+05 0.20908158D+05 0.20908158D+05 0.12317085D+01  1  2  5  6  6  5       21 -.152809552167D-03 0.100000000000D+01
0.581564717970D-05 0.000000000000D+00 0.000000000000D+00 0.144941775739D-05 0.000000000000D+00  6 1 -1 25 23 2 -2 4 0.91887300D-02 0.18990118D+00 0.20789740D+05 0.20789740D+05 0.20789740D+05 0.12319787D+01  1  2 12  7  6  5       21 0.191645135744D-03 0.100000000000D+01
0.581564717970D-05 0.000000000000D+00 0.000000000000D+00 0.144941775739D-05 0.000000000000D+00  6 1 -1 25 23 4 -4 4 0.91887300D-02 0.18990118D+00 0.20789740D+05 0.20789740D+05 0.20789740D+05 0.12319787D+01  1  2 12  7  6  5       21 0.191645135744D-03 0.100000000000D+01
0.785557590095D-05 0.000000000000D+00 0.000000000000D+00 0.144941775739D-05 0.000000000000D+00  6 1 -1 25 23 2 -2 4 0.91887300D-02 0.18990118D+00 0.20789740D+05 0.20789740D+05 0.20789740D+05 0.12319787D+01  1  2 12  7  6  5       21 0.258867648495D-03 0.100000000000D+01
0.785557590095D-05 0.000000000000D+00 0.000000000000D+00 0.144941775739D-05 0.000000000000D+00  6 1 -1 25 23 4 -4 4 0.91887300D-02 0.18990118D+00 0.20789740D+05 0.20789740D+05 0.20789740D+05 0.12319787D+01  1  2 12  7  6  5       21 0.258867648495D-03 0.100000000000D+01
-.464150222276D-05 0.000000000000D+00 0.000000000000D+00 0.144878201176D-05 0.000000000000D+00  6 1 -1 25 23 2 -2 4 0.91887300D-02 0.18990118D+00 0.20908158D+05 0.20908158D+05 0.20908158D+05 0.12317085D+01  1  2  5  7  6  5       21 -.152809552167D-03 0.100000000000D+01
-.464150222276D-05 0.000000000000D+00 0.000000000000D+00 0.144878201176D-05 0.000000000000D+00  6 1 -1 25 23 4 -4 4 0.91887300D-02 0.18990118D+00 0.20908158D+05 0.20908158D+05 0.20908158D+05 0.12317085D+01  1  2  5  7  6  5       21 -.152809552167D-03 0.100000000000D+01
0.581564717970D-05 0.000000000000D+00 0.000000000000D+00 0.144941775739D-05 0.000000000000D+00  6 1 -1 25 23 3 -3 4 0.91887300D-02 0.18990118D+00 0.20789740D+05 0.20789740D+05 0.20789740D+05 0.12319787D+01  1  2 12  8  6  5       21 0.191645135744D-03 0.100000000000D+01
0.785557590095D-05 0.000000000000D+00 0.000000000000D+00 0.144941775739D-05 0.000000000000D+00  6 1 -1 25 23 3 -3 4 0.91887300D-02 0.18990118D+00 0.20789740D+05 0.20789740D+05 0.20789740D+05 0.12319787D+01  1  2 12  8  6  5       21 0.258867648495D-03 0.100000000000D+01
-.464150222276D-05 0.000000000000D+00 0.000000000000D+00 0.144878201176D-05 0.000000000000D+00  6 1 -1 25 23 3 -3 4 0.91887300D-02 0.18990118D+00 0.20908158D+05 0.20908158D+05 0.20908158D+05 0.12317085D+01  1  2  5  8  6  5       21 -.152809552167D-03 0.100000000000D+01
  </mgrwgt>
  </event>
  <event>
  5     66 0.47055975E-03 0.30343936E+02 0.75467711E-02 0.12288178E+00
        1 -1    0    0  502    0 0.00000000E+00 0.00000000E+00 0.10882947E+04 0.10882947E+04 0.32000000E+00 0.0000E+00 0.9000E+01
       -1 -1    0    0    0  501 0.00000000E+00 0.00000000E+00 -.31211237E+02 0.31212878E+02 0.32000000E+00 0.0000E+00 0.9000E+01
       25  1    1    2    0    0 0.17637821E+02 0.42759804E+02 0.66127631E+03 0.67457457E+03 0.12500000E+03 0.0000E+00 0.9000E+01
       23  1    1    2    0    0 -.19325893E+02 -.12464874E+02 0.68805839E+02 0.11652621E+03 0.91188000E+02 0.0000E+00 0.9000E+01
       21  1    1    2  502  501 0.16880717E+01 -.30294930E+02 0.32700130E+03 0.32840682E+03 0.75000000E+00 0.0000E+00 0.9000E+01
#aMCatNLO 1  0  0  1  2 0.54888798D+00 0.00000000D+00  -5  6  0 0.00000000D+00 0.00000000D+00 0.00000000D+00 0.00000000D+00 0.00000000D+00
  <mgrwgt>
 0.1212079778D+00    9    4    0
 0.184304010639124D+03 0.000000000000000D+00 0.000000000000000D+00 0.184304010639124D+03
 0.184304010639124D+03 0.000000000000000D+00 0.000000000000000D+00 -.184304010639124D+03
 0.152375751861251D+03 0.176377661046726D+02 0.427607945846346D+02 0.738498030370368D+02
 0.156586251298103D+03 -.193259496279627D+02 -.124638564732841D+02 -.125200490032521D+03
 0.596460181188948D+02 0.168818352329012D+01 -.302969381113505D+02 0.513506869954845D+02
 0.000000000000000D+00 -.000000000000000D+00 -.000000000000000D+00 0.000000000000000D+00
 0.185006289848681D+03 0.000000000000000D+00 0.000000000000000D+00 0.185006289848681D+03
 0.184411496270643D+03 0.000000000000000D+00 0.000000000000000D+00 -.184411496270643D+03
 0.152444577670867D+03 0.177408388457278D+02 0.429629897666568D+02 0.738498030370368D+02
 0.156556819837739D+03 -.192200626133598D+02 -.122561406022184D+02 -.125200490032521D+03
 0.596070324393233D+02 0.172850806076144D+01 -.302178344888942D+02 0.513506869954845D+02
 0.809356171394396D+00 -.249284293129485D+00 -.489014675544239D+00 0.594793578038206D+00
 0.184304010639124D+03 0.000000000000000D+00 0.000000000000000D+00 0.184304010639124D+03
 0.184304010639124D+03 0.000000000000000D+00 0.000000000000000D+00 -.184304010639124D+03
 0.152375751861251D+03 0.176377661046726D+02 0.427607945846346D+02 0.738498030370368D+02
 0.156586251298103D+03 -.193259496279627D+02 -.124638564732841D+02 -.125200490032521D+03
 0.000000000000000D+00 -.000000000000000D+00 -.000000000000000D+00 0.000000000000000D+00
 0.596460181188948D+02 0.168818352329012D+01 -.302969381113505D+02 0.513506869954845D+02
 0.185006289848681D+03 0.000000000000000D+00 0.000000000000000D+00 0.185006289848681D+03
 0.184411496270643D+03 0.000000000000000D+00 0.000000000000000D+00 -.184411496270643D+03
 0.152444577670867D+03 0.177408388457278D+02 0.429629897666568D+02 0.738498030370368D+02
 0.156556819837739D+03 -.192200626133598D+02 -.122561406022184D+02 -.125200490032521D+03
 0.809356171394396D+00 -.249284293129485D+00 -.489014675544239D+00 0.594793578038206D+00
 0.596070324393233D+02 0.172850806076144D+01 -.302178344888942D+02 0.513506869954845D+02
0.482125340484D-04 0.000000000000D+00 0.000000000000D+00 0.105551963950D-04 0.000000000000D+00  6 1 -1 25 23 21 21 2 0.16743008D+00 0.48018586D-02 0.16598558D+05 0.16598558D+05 0.16598558D+05 0.12428398D+01  1  2  2  1  6  1        1 0.189349905923D-01 0.100000000000D+01
0.205424730958D-05 0.254424532093D-05 -.185148825398D-06 0.105551963950D-04 0.000000000000D+00  6 1 -1 25 23 21 21 4 0.16743008D+00 0.48018586D-02 0.16598558D+05 0.16598558D+05 0.16598558D+05 0.12428398D+01  1  2  3  1  6  1        1 0.124620125819D-02 0.100000000000D+01
0.212229469635D-05 0.000000000000D+00 0.000000000000D+00 0.105551963950D-04 0.000000000000D+00  6 1 -1 25 23 21 21 4 0.16743008D+00 0.48018586D-02 0.16598558D+05 0.16598558D+05 0.16598558D+05 0.12428398D+01  1  2 15  1  6  1        1 0.128748194460D-02 0.100000000000D+01
-.156796935846D-02 0.000000000000D+00 0.000000000000D+00 0.105551963950D-04 0.000000000000D+00  6 1 -1 25 23 21 21 4 0.16743008D+00 0.48018586D-02 0.16598558D+05 0.16598558D+05 0.16598558D+05 0.12428398D+01  1  2  4  1  6  1        1 -.951202602626D+00 0.100000000000D+01
-.345148068354D-01 0.000000000000D+00 -.258588136755D-02 0.105551963950D-04 0.000000000000D+00  6 1 -1 25 23 21 21 4 0.16811743D+00 0.48018586D-02 0.16598558D+05 0.16598558D+05 0.16598558D+05 0.12428398D+01  1  2  5  1  6  1        1 -.207868833249D+02 0.100000000000D+01
0.345251328210D-01 0.000000000000D+00 0.258585966651D-02 0.105551963950D-04 0.000000000000D+00  6 1 -1 25 23 21 21 4 0.16743008D+00 0.48018586D-02 0.16598558D+05 0.16598558D+05 0.16598558D+05 0.12428398D+01  1  2  6  1  6  1        1 0.209445395206D+02 0.100000000000D+01
0.152276718813D-02 0.000000000000D+00 0.000000000000D+00 0.105551963950D-04 0.817867960195D-03  6 1 -1 25 23 21 21 4 0.16806806D+00 0.48046591D-02 0.16663277D+05 0.16663277D+05 0.16663277D+05 0.12426496D+01  1  2 11  1  6  1        1 0.916266616195D+00 0.100000000000D+01
-.263346355470D-04 0.000000000000D+00 -.197422851063D-05 0.105551963950D-04 0.000000000000D+00  6 21 -1 25 23 -1 21 4 0.16811743D+00 0.48018586D-02 0.16598558D+05 0.16598558D+05 0.16598558D+05 0.12428398D+01  3  4  5  4  5  1        1 -.234248103229D-01 0.100000000000D+01
0.499444841262D-06 0.000000000000D+00 0.000000000000D+00 0.105551963950D-04 0.535726099930D-06  6 21 -1 25 23 -1 21 4 0.16806806D+00 0.48046591D-02 0.16663277D+05 0.16663277D+05 0.16663277D+05 0.12426496D+01  3  4 11  4  5  1        1 0.443905086691D-03 0.100000000000D+01
  </mgrwgt>
  </event>
  <event>
  5     66 0.47055975E-03 0.66293030E+02 0.75467711E-02 0.11416887E+00
        1 -1    0    0  502    0 0.00000000E+00 0.00000000E+00 0.14333412E+03 0.14333448E+03 0.32000000E+00 0.0000E+00 0.9000E+01
       -1 -1    0    0    0  501 -.00000000E+00 -.00000000E+00 -.53353567E+03 0.53353577E+03 0.32000000E+00 0.0000E+00 0.9000E+01
       25  1    1    2    0    0 -.63597888E+02 0.66792007E+02 -.85108503E+02 0.17712798E+03 0.12500000E+03 0.0000E+00 0.9000E+01
       23  1    1    2    0    0 0.10154958E+03 -.12114617E+03 0.50787337E+01 0.18256439E+03 0.91188000E+02 0.0000E+00 0.9000E+01
       21  1    1    2  502  501 -.37951694E+02 0.54354162E+02 -.31017178E+03 0.31717787E+03 0.75000000E+00 0.0000E+00 0.9000E+01
#aMCatNLO 1  0  0  5  1 0.12752947D+02 0.00000000D+00  -5  6  0 0.00000000D+00 0.00000000D+00 0.00000000D+00 0.00000000D+00 0.00000000D+00
  <mgrwgt>
 0.8053466714D-01   15    2    0
 0.276539361565597D+03 0.000000000000000D+00 0.000000000000000D+00 0.276539361565597D+03
 0.276539361565597D+03 -.000000000000000D+00 -.000000000000000D+00 -.276539361565597D+03
 0.156728430843966D+03 -.635977828389289D+02 0.667918554931939D+02 0.208079574336533D+02
 0.227010074014039D+03 0.101549734924441D+03 -.121146387631992D+03 0.135016763627167D+03
 0.169340218273188D+03 -.379519520855122D+02 0.543545321387981D+02 -.155824721060820D+03
 0.000000000000000D+00 0.000000000000000D+00 0.000000000000000D+00 -.000000000000000D+00
 0.276539361565597D+03 0.000000000000000D+00 0.000000000000000D+00 0.276539361565597D+03
 0.276539361565597D+03 -.000000000000000D+00 -.000000000000000D+00 -.276539361565597D+03
 0.157022805594057D+03 -.641779525597527D+02 0.676227706900044D+02 0.184258721930414D+02
 0.223973377358832D+03 0.100715803730896D+03 -.119952036949872D+03 0.131592773859121D+03
 0.158288837785189D+03 -.359059353604601D+02 0.626305255434917D+02 -.140867090704047D+03
 0.137937023931165D+02 -.631915810682801D+00 -.103012592836241D+02 -.915155534811568D+01
0.521179811109D-03 0.000000000000D+00 0.000000000000D+00 0.350220552674D-05 0.000000000000D+00  6 1 -1 25 23 21 21 2 0.22051438D-01 0.82082446D-01 0.40829861D+05 0.40829861D+05 0.40829861D+05 0.12010957D+01  1  2  2  3  6  5       21 0.263293884357D-01 0.100000000000D+01
0.131723515350D-04 0.275034142459D-04 -.200146770446D-05 0.350220552674D-05 0.000000000000D+00  6 1 -1 25 23 21 21 4 0.22051438D-01 0.82082446D-01 0.40829861D+05 0.40829861D+05 0.40829861D+05 0.12010957D+01  1  2  3  3  6  5       21 0.960001089988D-03 0.100000000000D+01
0.687225204040D-05 0.000000000000D+00 0.000000000000D+00 0.350220552674D-05 0.000000000000D+00  6 1 -1 25 23 21 21 4 0.22051438D-01 0.82082446D-01 0.40829861D+05 0.40829861D+05 0.40829861D+05 0.12010957D+01  1  2 15  3  6  5       21 0.500849786156D-03 0.100000000000D+01
0.934521978069D-03 0.000000000000D+00 0.000000000000D+00 0.348292389339D-05 0.000000000000D+00  6 1 -1 25 23 21 21 4 0.22051438D-01 0.82082446D-01 0.44034940D+05 0.44034940D+05 0.44034940D+05 0.11977848D+01  1  2 12  3  6  5       21 0.673360675347D-01 0.100000000000D+01
-.389960795705D-03 0.000000000000D+00 0.000000000000D+00 0.350220552674D-05 0.000000000000D+00  6 1 -1 25 23 21 21 4 0.22051438D-01 0.82082446D-01 0.40829861D+05 0.40829861D+05 0.40829861D+05 0.12010957D+01  1  2  4  3  6  5       21 -.284203460510D-01 0.100000000000D+01
-.282706966226D-02 0.000000000000D+00 0.000000000000D+00 0.350220552674D-05 0.000000000000D+00  6 1 -1 25 23 21 21 4 0.22051438D-01 0.82082446D-01 0.40829861D+05 0.40829861D+05 0.40829861D+05 0.12010957D+01  1  2  5  3  6  5       21 -.206036860620D+00 0.100000000000D+01
0.304522180052D-02 0.000000000000D+00 -.000000000000D+00 0.350220552674D-05 0.000000000000D+00  6 1 -1 25 23 21 21 4 0.22051438D-01 0.82082446D-01 0.40829861D+05 0.40829861D+05 0.40829861D+05 0.12010957D+01  1  2  6  3  6  5       21 0.221935790280D+00 0.100000000000D+01
0.944503564178D-05 0.000000000000D+00 0.000000000000D+00 0.348292389339D-05 0.000000000000D+00  6 1 -1 25 23 1 -1 4 0.22051438D-01 0.82082446D-01 0.44034940D+05 0.44034940D+05 0.44034940D+05 0.11977848D+01  1  2 12  6  6  5       21 0.680552809637D-03 0.100000000000D+01
-.164394689965D-04 0.000000000000D+00 0.000000000000D+00 0.350220552674D-05 0.000000000000D+00  6 1 -1 25 23 1 -1 4 0.22051438D-01 0.82082446D-01 0.40829861D+05 0.40829861D+05 0.40829861D+05 0.12010957D+01  1  2  5  6  6  5       21 -.119810863790D-02 0.100000000000D+01
0.944503564178D-05 0.000000000000D+00 0.000000000000D+00 0.348292389339D-05 0.000000000000D+00  6 1 -1 25 23 2 -2 4 0.22051438D-01 0.82082446D-01 0.44034940D+05 0.44034940D+05 0.44034940D+05 0.11977848D+01  1  2 12  7  6  5       21 0.680552809637D-03 0.100000000000D+01
0.944503564178D-05 0.000000000000D+00 0.000000000000D+00 0.348292389339D-05 0.000000000000D+00  6 1 -1 25 23 4 -4 4 0.22051438D-01 0.82082446D-01 0.44034940D+05 0.44034940D+05 0.44034940D+05 0.11977848D+01  1  2 12  7  6  5       21 0.680552809637D-03 0.100000000000D+01
-.164394689965D-04 0.000000000000D+00 0.000000000000D+00 0.350220552674D-05 0.000000000000D+00  6 1 -1 25 23 2 -2 4 0.22051438D-01 0.82082446D-01 0.40829861D+05 0.40829861D+05 0.40829861D+05 0.12010957D+01  1  2  5  7  6  5       21 -.119810863790D-02 0.100000000000D+01
-.164394689965D-04 0.000000000000D+00 0.000000000000D+00 0.350220552674D-05 0.000000000000D+00  6 1 -1 25 23 4 -4 4 0.22051438D-01 0.82082446D-01 0.40829861D+05 0.40829861D+05 0.40829861D+05 0.12010957D+01  1  2  5  7  6  5       21 -.119810863790D-02 0.100000000000D+01
0.944503564178D-05 0.000000000000D+00 0.000000000000D+00 0.348292389339D-05 0.000000000000D+00  6 1 -1 25 23 3 -3 4 0.22051438D-01 0.82082446D-01 0.44034940D+05 0.44034940D+05 0.44034940D+05 0.11977848D+01  1  2 12  8  6  5       21 0.680552809637D-03 0.100000000000D+01
-.164394689965D-04 0.000000000000D+00 0.000000000000D+00 0.350220552674D-05 0.000000000000D+00  6 1 -1 25 23 3 -3 4 0.22051438D-01 0.82082446D-01 0.40829861D+05 0.40829861D+05 0.40829861D+05 0.12010957D+01  1  2  5  8  6  5       21 -.119810863790D-02 0.100000000000D+01
  </mgrwgt>
  </event>
  <event>
  5     66 0.47055975E-03 0.42666482E+02 0.75467711E-02 0.10350716E+00
        1 -1    0    0  502    0 0.00000000E+00 0.00000000E+00 0.12633673E+04 0.12633674E+04 0.32000000E+00 0.0000E+00 0.9000E+01
       -1 -1    0    0    0  501 0.00000000E+00 0.00000000E+00 -.16671573E+03 0.16671604E+03 0.32000000E+00 0.0000E+00 0.9000E+01
       25  1    1    2    0    0 -.12725868E+03 0.34698101E+03 0.76044072E+03 0.85468455E+03 0.12500000E+03 0.0000E+00 0.9000E+01
       23  1    1    2    0    0 0.10299788E+03 -.38207266E+03 0.24388709E+03 0.47369214E+03 0.91188000E+02 0.0000E+00 0.9000E+01
       21  1    1    2  502  501 0.24260796E+02 0.35091652E+02 0.92323775E+02 0.10170670E+03 0.75000000E+00 0.0000E+00 0.9000E+01
#aMCatNLO 1  0  0  1  1 0.13325109D+02 0.00000000D+00  -5  6  0 0.00000000D+00 0.00000000D+00 0.00000000D+00 0.00000000D+00 0.00000000D+00
  <mgrwgt>
 0.1092003194D+01    7    4    0
 0.458937309605863D+03 0.000000000000000D+00 0.000000000000000D+00 0.458937309605863D+03
 0.458937309605863D+03 0.000000000000000D+00 0.000000000000000D+00 -.458937309605863D+03
 0.423075341969797D+03 -.127260032725763D+03 0.346979050506928D+03 0.163640360433509D+03
 0.446642631397338D+03 0.102996448663135D+03 -.382074736090950D+03 -.185970471960878D+03
 0.481566458445917D+02 0.242635840626280D+02 0.350956855840216D+02 0.223301115273683D+02
 0.000000000000000D+00 0.000000000000000D+00 0.000000000000000D+00 0.000000000000000D+00
 0.467297215006441D+03 0.000000000000000D+00 0.000000000000000D+00 0.467297215006441D+03
 0.464326387138435D+03 0.000000000000000D+00 0.000000000000000D+00 -.464326387138435D+03
 0.418449103962864D+03 -.128250834743265D+03 0.340951915131988D+03 0.163640360433509D+03
 0.451920399560066D+03 0.101938490016504D+03 -.388510391117577D+03 -.185970471960878D+03
 0.476018332435365D+02 0.241508390381287D+02 0.344098477339721D+02 0.223301115273683D+02
 0.136522653784102D+02 0.216150568863194D+01 0.131486282516172D+02 0.297082786800663D+01
 0.458937309605863D+03 0.000000000000000D+00 0.000000000000000D+00 0.458937309605863D+03
 0.458937309605863D+03 0.000000000000000D+00 0.000000000000000D+00 -.458937309605863D+03
 0.423075341969797D+03 -.127260032725763D+03 0.346979050506928D+03 0.163640360433509D+03
 0.446642631397338D+03 0.102996448663135D+03 -.382074736090950D+03 -.185970471960878D+03
 0.000000000000000D+00 0.000000000000000D+00 0.000000000000000D+00 0.000000000000000D+00
 0.481566458445917D+02 0.242635840626280D+02 0.350956855840216D+02 0.223301115273683D+02
 0.467297215006441D+03 0.000000000000000D+00 0.000000000000000D+00 0.467297215006441D+03
 0.464326387138435D+03 0.000000000000000D+00 0.000000000000000D+00 -.464326387138435D+03
 0.418449103962864D+03 -.128250834743265D+03 0.340951915131988D+03 0.163640360433509D+03
 0.451920399560066D+03 0.101938490016504D+03 -.388510391117577D+03 -.185970471960878D+03
 0.136522653784102D+02 0.216150568863194D+01 0.131486282516172D+02 0.297082786800663D+01
 0.476018332435365D+02 0.241508390381287D+02 0.344098477339721D+02 0.223301115273683D+02
0.110100012934D-01 0.000000000000D+00 0.000000000000D+00 0.395827510400D-05 0.000000000000D+00  6 1 -1 25 23 21 21 2 0.19436423D+00 0.25648601D-01 0.17593740D+06 0.17593740D+06 0.17593740D+06 0.11416836D+01  1  2  2  1  6  1        1 0.194877954324D+00 0.100000000000D+01
0.396078056722D-02 0.581013730705D-03 -.422813039667D-04 0.395827510400D-05 0.000000000000D+00  6 1 -1 25 23 21 21 4 0.19436423D+00 0.25648601D-01 0.17593740D+06 0.17593740D+06 0.17593740D+06 0.11416836D+01  1  2  3  1  6  1        1 0.913792668574D-01 0.100000000000D+01
0.153949335637D-04 0.000000000000D+00 0.000000000000D+00 0.395827510400D-05 0.000000000000D+00  6 1 -1 25 23 21 21 4 0.19436423D+00 0.25648601D-01 0.17593740D+06 0.17593740D+06 0.17593740D+06 0.11416836D+01  1  2 15  1  6  1        1 0.355176894680D-03 0.100000000000D+01
-.479789198214D-03 0.000000000000D+00 0.000000000000D+00 0.395827510400D-05 0.000000000000D+00  6 1 -1 25 23 21 21 4 0.19436423D+00 0.25648601D-01 0.17593740D+06 0.17593740D+06 0.17593740D+06 0.11416836D+01  1  2  4  1  6  1        1 -.110692285106D-01 0.100000000000D+01
-.725096472750D+00 0.000000000000D+00 -.935226355228D-01 0.395827510400D-05 0.000000000000D+00  6 1 -1 25 23 21 21 4 0.19934552D+00 0.25648601D-01 0.17593740D+06 0.17593740D+06 0.17593740D+06 0.11416836D+01  1  2  5  1  6  1        1 -.158804853918D+02 0.100000000000D+01
0.727260196450D+00 0.000000000000D+00 0.934926984393D-01 0.395827510400D-05 0.000000000000D+00  6 1 -1 25 23 21 21 4 0.19436423D+00 0.25648601D-01 0.17593740D+06 0.17593740D+06 0.17593740D+06 0.11416836D+01  1  2  6  1  6  1        1 0.167786380584D+02 0.100000000000D+01
-.329175939771D-02 0.000000000000D+00 -.427375675346D-03 0.395827510400D-05 0.000000000000D+00  6 21 -1 25 23 -1 21 4 0.19934552D+00 0.25648601D-01 0.17593740D+06 0.17593740D+06 0.17593740D+06 0.11416836D+01  3  4  5  4  5  1        1 -.816926426342D-01 0.100000000000D+01
  </mgrwgt>
  </event>
  <event>
  6     66 -.47055975E-03 0.13286847E+02 0.75467711E-02 0.11705736E+00
        1 -1    0    0  502    0 0.00000000E+00 0.00000000E+00 0.11909367E+04 0.11909367E+04 0.32000000E+00 0.0000E+00 0.9000E+01
       -1 -1    0    0    0  501 0.00000000E+00 0.00000000E+00 -.27612637E+02 0.27614491E+02 0.32000000E+00 0.0000E+00 0.9000E+01
       25  1    1    2    0    0 -.71519251E+02 0.98583197E+02 0.44629491E+03 0.47920538E+03 0.12500000E+03 0.0000E+00 0.9000E+01
       23  1    1    2    0    0 0.64899945E+02 -.10720145E+03 0.63427031E+03 0.65293050E+03 0.91188000E+02 0.0000E+00 0.9000E+01
        3  1    1    2  502    0 0.29715693E+01 -.71629419E+01 0.38661403E+02 0.39434655E+02 0.50000000E+00 0.0000E+00 0.9000E+01
       -3  1    1    2    0  501 0.36477361E+01 0.15781194E+02 0.44097389E+02 0.46980653E+02 0.50000000E+00 0.0000E+00 0.9000E+01
#aMCatNLO 2  0  0  5  2 0.68332674D+01 0.00000000D+00  -5  6  0 0.00000000D+00 0.00000000D+00 0.00000000D+00 0.00000000D+00 0.00000000D+00
  <mgrwgt>
 -.7070217252D-02    2    2    0
 0.181345134136907D+03 0.000000000000000D+00 0.000000000000000D+00 0.181345134136907D+03
 0.181345134136907D+03 -.000000000000000D+00 -.000000000000000D+00 -.181345134136907D+03
 0.177428182067967D+03 -.757679036811440D+02 0.930515051371848D+02 -.381628347402697D+02
 0.161065304465032D+03 0.610764141777935D+02 -.112179638174921D+03 0.362240440666151D+02
 0.241967817408148D+02 0.146914895033505D+02 0.191281330377358D+02 0.193879067365459D+01
 0.000000000000000D+00 0.000000000000000D+00 0.000000000000000D+00 -.000000000000000D+00
 0.181345134136907D+03 0.000000000000000D+00 0.000000000000000D+00 0.181345134136907D+03
 0.181345134136907D+03 -.000000000000000D+00 -.000000000000000D+00 -.181345134136907D+03
 0.178447957443171D+03 -.717998617101743D+02 0.982178454665787D+02 -.376391844484302D+02
 0.159384909747135D+03 0.646494547905944D+02 -.107527584605042D+03 0.366955672443779D+02
 0.782886695861505D+01 0.226459272581720D+01 -.687481313109336D+01 0.298324019388593D+01
 0.170285341248933D+02 0.488581419376269D+01 0.161845522695570D+02 -.203962298983353D+01
-.623226099140D-05 0.000000000000D+00 0.000000000000D+00 0.206972044350D-04 0.000000000000D+00  6 1 -1 25 23 3 -3 4 0.18322117D+00 0.42482440D-02 0.31272482D+05 0.31272482D+05 0.31272482D+05 0.12130095D+01  1  2 13  8  6  5       21 -.350530813707D-02 0.100000000000D+01
-.633822852324D-05 0.000000000000D+00 0.000000000000D+00 0.206972044350D-04 0.000000000000D+00  6 1 -1 25 23 3 -3 4 0.18322117D+00 0.42482440D-02 0.31272482D+05 0.31272482D+05 0.31272482D+05 0.12130095D+01  1  2 13  8  6  5       21 -.356490911529D-02 0.100000000000D+01
  </mgrwgt>
  </event>
  <event>
  5     66 0.47055975E-03 0.43683260E+02 0.75467711E-02 0.11886231E+00
        1 -1    0    0  502    0 0.00000000E+00 0.00000000E+00 0.48824348E+03 0.48824359E+03 0.32000000E+00 0.0000E+00 0.9000E+01
       -1 -1    0    0    0  501 0.00000000E+00 0.00000000E+00 -.61738440E+02 0.61739270E+02 0.32000000E+00 0.0000E+00 0.9000E+01
       25  1    1    2    0    0 -.79267201E+02 -.57023741E+02 0.12355398E+03 0.20106114E+03 0.12500000E+03 0.0000E+00 0.9000E+01
       23  1    1    2    0    0 0.35747799E+02 0.60776619E+02 0.14608302E+03 0.18608386E+03 0.91188000E+02 0.0000E+00 0.9000E+01
       21  1    1    2  502  501 0.43519401E+02 -.37528783E+01 0.15686805E+03 0.16283786E+03 0.75000000E+00 0.0000E+00 0.9000E+01
#aMCatNLO 1  0  0  5  2 0.12697658D+02 0.00000000D+00  -5  6  0 0.00000000D+00 0.00000000D+00 0.00000000D+00 0.00000000D+00 0.00000000D+00
  <mgrwgt>
 0.6888205703D-01   20    2    0
 0.173619261635870D+03 0.000000000000000D+00 0.000000000000000D+00 0.173619261635870D+03
 0.173619261635870D+03 -.000000000000000D+00 -.000000000000000D+00 -.173619261635870D+03
 0.166698563769977D+03 -.792685813157571D+02 -.570236218093721D+02 -.512660680655530D+02
 0.115303137507849D+03 0.357468443439491D+02 0.607767014962386D+02 0.281386741701315D+01
 0.652368219939136D+02 0.435217369718080D+02 -.375307968686655D+01 0.484522006485398D+02
 0.000000000000000D+00 0.000000000000000D+00 -.000000000000000D+00 0.000000000000000D+00
 0.173619261635870D+03 0.000000000000000D+00 0.000000000000000D+00 0.173619261635870D+03
 0.173619261635870D+03 -.000000000000000D+00 -.000000000000000D+00 -.173619261635870D+03
 0.165054689292608D+03 -.771556202462852D+02 -.572058321672471D+02 -.489137351665485D+02
 0.115752688092570D+03 0.372184560308322D+02 0.606497976474199D+02 0.445219414041073D+01
 0.473328829213412D+02 0.275951595416246D+02 0.926340935027765D+01 0.373242310399942D+02
 0.190982629652196D+02 0.123420046738285D+02 -.127073748304505D+02 0.713730998614353D+01
0.650231057104D-04 0.000000000000D+00 0.000000000000D+00 0.821776853577D-05 0.000000000000D+00  6 1 -1 25 23 21 21 2 0.75114454D-01 0.94982935D-02 0.25212951D+05 0.25212951D+05 0.25212951D+05 0.12229029D+01  1  2  2  3  6  5       21 0.293238265043D-01 0.100000000000D+01
0.279999543294D-05 0.343136355973D-05 -.249705846905D-06 0.821776853577D-05 0.000000000000D+00  6 1 -1 25 23 21 21 4 0.75114454D-01 0.94982935D-02 0.25212951D+05 0.25212951D+05 0.25212951D+05 0.12229029D+01  1  2  3  3  6  5       21 0.188840094023D-02 0.100000000000D+01
0.126860610096D-05 0.000000000000D+00 0.000000000000D+00 0.821776853577D-05 0.000000000000D+00  6 1 -1 25 23 21 21 4 0.75114454D-01 0.94982935D-02 0.25212951D+05 0.25212951D+05 0.25212951D+05 0.12229029D+01  1  2 15  3  6  5       21 0.855586021915D-03 0.100000000000D+01
0.568658346088D-04 0.000000000000D+00 0.000000000000D+00 0.820774774225D-05 0.000000000000D+00  6 1 -1 25 23 21 21 4 0.75114454D-01 0.94982935D-02 0.25620866D+05 0.25620866D+05 0.25620866D+05 0.12221571D+01  1  2 12  3  6  5       21 0.382700025288D-01 0.100000000000D+01
0.727416273335D-04 0.000000000000D+00 0.000000000000D+00 0.820774774225D-05 0.000000000000D+00  6 1 -1 25 23 21 21 4 0.75114454D-01 0.94982935D-02 0.25620866D+05 0.25620866D+05 0.25620866D+05 0.12221571D+01  1  2 12  3  6  5       21 0.489542144446D-01 0.100000000000D+01
-.127415061536D-03 0.000000000000D+00 0.000000000000D+00 0.821776853577D-05 0.000000000000D+00  6 1 -1 25 23 21 21 4 0.75114454D-01 0.94982935D-02 0.25212951D+05 0.25212951D+05 0.25212951D+05 0.12229029D+01  1  2  4  3  6  5       21 -.859325408800D-01 0.100000000000D+01
-.117142214310D-03 0.000000000000D+00 0.000000000000D+00 0.821776853577D-05 0.000000000000D+00  6 1 -1 25 23 21 21 4 0.75114454D-01 0.94982935D-02 0.25212951D+05 0.25212951D+05 0.25212951D+05 0.12229029D+01  1  2  5  3  6  5       21 -.790042244503D-01 0.100000000000D+01
0.173453801394D-03 0.000000000000D+00 -.000000000000D+00 0.821776853577D-05 0.000000000000D+00  6 1 -1 25 23 21 21 4 0.75114454D-01 0.94982935D-02 0.25212951D+05 0.25212951D+05 0.25212951D+05 0.12229029D+01  1  2  6  3  6  5       21 0.116982448538D+00 0.100000000000D+01
0.107001447094D-05 0.000000000000D+00 0.000000000000D+00 0.820774774225D-05 0.000000000000D+00  6 1 -1 25 23 1 -1 4 0.75114454D-01 0.94982935D-02 0.25620866D+05 0.25620866D+05 0.25620866D+05 0.12221571D+01  1  2 12  6  6  5       21 0.720106489083D-03 0.100000000000D+01
0.129587693156D-05 0.000000000000D+00 0.000000000000D+00 0.820774774225D-05 0.000000000000D+00  6 1 -1 25 23 1 -1 4 0.75114454D-01 0.94982935D-02 0.25620866D+05 0.25620866D+05 0.25620866D+05 0.12221571D+01  1  2 12  6  6  5       21 0.872109128254D-03 0.100000000000D+01
-.327110263140D-05 0.000000000000D+00 0.000000000000D+00 0.821776853577D-05 0.000000000000D+00  6 1 -1 25 23 1 -1 4 0.75114454D-01 0.94982935D-02 0.25212951D+05 0.25212951D+05 0.25212951D+05 0.12229029D+01  1  2  5  6  6  5       21 -.220612977153D-02 0.100000000000D+01
0.107001447094D-05 0.000000000000D+00 0.000000000000D+00 0.820774774225D-05 0.000000000000D+00  6 1 -1 25 23 2 -2 4 0.75114454D-01 0.94982935D-02 0.25620866D+05 0.25620866D+05 0.25620866D+05 0.12221571D+01  1  2 12  7  6  5       21 0.720106489083D-03 0.100000000000D+01
0.107001447094D-05 0.000000000000D+00 0.000000000000D+00 0.820774774225D-05 0.000000000000D+00  6 1 -1 25 23 4 -4 4 0.75114454D-01 0.94982935D-02 0.25620866D+05 0.25620866D+05 0.25620866D+05 0.12221571D+01  1  2 12  7  6  5       21 0.720106489083D-03 0.100000000000D+01
0.129587693156D-05 0.000000000000D+00 0.000000000000D+00 0.820774774225D-05 0.000000000000D+00  6 1 -1 25 23 2 -2 4 0.75114454D-01 0.94982935D-02 0.25620866D+05 0.25620866D+05 0.25620866D+05 0.12221571D+01  1  2 12  7  6  5       21 0.872109128254D-03 0.100000000000D+01
0.129587693156D-05 0.000000000000D+00 0.000000000000D+00 0.820774774225D-05 0.000000000000D+00  6 1 -1 25 23 4 -4 4 0.75114454D-01 0.94982935D-02 0.25620866D+05 0.25620866D+05 0.25620866D+05 0.12221571D+01  1  2 12  7  6  5       21 0.872109128254D-03 0.100000000000D+01
-.327110263140D-05 0.000000000000D+00 0.000000000000D+00 0.821776853577D-05 0.000000000000D+00  6 1 -1 25 23 2 -2 4 0.75114454D-01 0.94982935D-02 0.25212951D+05 0.25212951D+05 0.25212951D+05 0.12229029D+01  1  2  5  7  6  5       21 -.220612977153D-02 0.100000000000D+01
-.327110263140D-05 0.000000000000D+00 0.000000000000D+00 0.821776853577D-05 0.000000000000D+00  6 1 -1 25 23 4 -4 4 0.75114454D-01 0.94982935D-02 0.25212951D+05 0.25212951D+05 0.25212951D+05 0.12229029D+01  1  2  5  7  6  5       21 -.220612977153D-02 0.100000000000D+01
0.107001447094D-05 0.000000000000D+00 0.000000000000D+00 0.820774774225D-05 0.000000000000D+00  6 1 -1 25 23 3 -3 4 0.75114454D-01 0.94982935D-02 0.25620866D+05 0.25620866D+05 0.25620866D+05 0.12221571D+01  1  2 12  8  6  5       21 0.720106489083D-03 0.100000000000D+01
0.129587693156D-05 0.000000000000D+00 0.000000000000D+00 0.820774774225D-05 0.000000000000D+00  6 1 -1 25 23 3 -3 4 0.75114454D-01 0.94982935D-02 0.25620866D+05 0.25620866D+05 0.25620866D+05 0.12221571D+01  1  2 12  8  6  5       21 0.872109128254D-03 0.100000000000D+01
-.327110263140D-05 0.000000000000D+00 0.000000000000D+00 0.821776853577D-05 0.000000000000D+00  6 1 -1 25 23 3 -3 4 0.75114454D-01 0.94982935D-02 0.25212951D+05 0.25212951D+05 0.25212951D+05 0.12229029D+01  1  2  5  8  6  5       21 -.220612977153D-02 0.100000000000D+01
  </mgrwgt>
  </event>
  <event>
  6     66 0.47055975E-03 0.52695850E+02 0.75467711E-02 0.11864488E+00
        1 -1    0    0  503    0 0.00000000E+00 0.00000000E+00 0.60014807E+03 0.60014816E+03 0.32000000E+00 0.0000E+00 0.9000E+01
       -1 -1    0    0    0  501 0.00000000E+00 0.00000000E+00 -.19546743E+03 0.19546769E+03 0.32000000E+00 0.0000E+00 0.9000E+01
       25  1    1    2    0    0 0.21815311E+02 0.42257441E+02 0.16973724E+03 0.21609565E+03 0.12500000E+03 0.0000E+00 0.9000E+01
       23  1    1    2    0    0 0.34348779E+02 -.73479473E+02 -.12862180E+03 0.17730733E+03 0.91188000E+02 0.0000E+00 0.9000E+01
       21  1    1    2  502  501 -.46378206E+02 0.34612557E+02 0.24268616E+02 0.62757433E+02 0.75000000E+00 0.0000E+00 0.9000E+01
       21  1    1    2  503  502 -.97858839E+01 -.33905254E+01 0.33929658E+03 0.33945544E+03 0.75000000E+00 0.0000E+00 0.9000E+01
#aMCatNLO 2  0  0  1  5 0.10356601D+02 0.00000000D+00  -5  6  0 0.00000000D+00 0.00000000D+00 0.00000000D+00 0.00000000D+00 0.00000000D+00
  <mgrwgt>
 0.9414928984D-02    2    2    0
 0.225665674751515D+03 0.000000000000000D+00 0.000000000000000D+00 0.225665674751515D+03
 0.225665674751515D+03 0.000000000000000D+00 0.000000000000000D+00 -.225665674751515D+03
 0.193027154058960D+03 0.176241309353069D+02 0.408036610877848D+02 0.140210318645632D+03
 0.197646119044816D+03 0.300640229180993D+02 -.749657133035382D+02 -.155643931408679D+03
 0.606580763992534D+02 -.476881538534061D+02 0.341620522157534D+02 0.154336127630465D+02
 0.000000000000000D+00 -.000000000000000D+00 -.000000000000000D+00 0.000000000000000D+00
 0.519488676351278D+03 0.000000000000000D+00 0.000000000000000D+00 0.519488676351278D+03
 0.225816359781846D+03 0.000000000000000D+00 0.000000000000000D+00 -.225816359781846D+03
 0.193766626385991D+03 0.218168608302237D+02 0.422563205901000D+02 0.140210318645632D+03
 0.197786840834059D+03 0.343503989565464D+02 -.734806081241429D+02 -.155643931408679D+03
 0.598966919669653D+02 -.463813759090391D+02 0.346148129339199D+02 0.154336127630465D+02
 0.293854876946108D+03 -.978588387773099D+01 -.339052539987691D+01 0.293672316569432D+03
-.306654566030D-02 0.000000000000D+00 0.000000000000D+00 0.170962201227D-05 0.000000000000D+00  6 1 -1 25 23 21 21 4 0.92491988D-01 0.30051808D-01 0.26246411D+05 0.26246411D+05 0.26246411D+05 0.12210387D+01  1  2 13  1  6  1        1 -.248052004568D+00 0.100000000000D+01
0.317889373655D-02 0.000000000000D+00 0.000000000000D+00 0.171851748045D-05 0.896102691966D-07  6 1 -1 25 23 21 21 4 0.92330304D-01 0.30071875D-01 0.26246411D+05 0.26246411D+05 0.26246411D+05 0.12210387D+01  1  2  1  1  6  1        1 0.257466933551D+00 0.100000000000D+01
  </mgrwgt>
  </event>
  <event>
  5     66 0.47055975E-03 0.21630833E+02 0.75467711E-02 0.10757933E+00
        1 -1    0    0  502    0 0.00000000E+00 0.00000000E+00 0.42240000E+03 0.42240012E+03 0.32000000E+00 0.0000E+00 0.9000E+01
       -1 -1    0    0    0  501 0.00000000E+00 0.00000000E+00 -.51341553E+02 0.51342550E+02 0.32000000E+00 0.0000E+00 0.9000E+01
       25  1    1    2    0    0 0.51267397E+02 -.32737761E+02 0.24838767E+03 0.28464283E+03 0.12500000E+03 0.0000E+00 0.9000E+01
       23  1    1    2    0    0 -.36316051E+02 0.17108864E+02 0.13212708E+03 0.16548228E+03 0.91188000E+02 0.0000E+00 0.9000E+01
       21  1    1    2  502  501 -.14951346E+02 0.15628896E+02 -.94562993E+01 0.23617562E+02 0.75000000E+00 0.0000E+00 0.9000E+01
#aMCatNLO 1  0  0  2  5 0.32005413D+01 0.00000000D+00  -5  6  0 0.00000000D+00 0.00000000D+00 0.00000000D+00 0.00000000D+00 0.00000000D+00
  <mgrwgt>
 0.9697047078D-02    5    4    0
 0.147264852987407D+03 0.000000000000000D+00 0.000000000000000D+00 0.147264852987407D+03
 0.147264852987407D+03 0.000000000000000D+00 0.000000000000000D+00 -.147264852987407D+03
 0.144913954567295D+03 0.512682277912443D+02 -.327386291971711D+02 0.409243839998504D+02
 0.997151639535112D+02 -.363154794577687D+02 0.171082664850708D+02 0.404422401750965D+01
 0.499005874540075D+02 -.149527483334756D+02 0.156303627121003D+02 -.449686080173601D+02
 0.000000000000000D+00 0.000000000000000D+00 -.000000000000000D+00 -.000000000000000D+00
 0.224802952279089D+03 0.000000000000000D+00 0.000000000000000D+00 0.224802952279089D+03
 0.831452946884190D+03 0.000000000000000D+00 0.000000000000000D+00 -.831452946884190D+03
 0.161906804761923D+03 0.429578763274837D+02 0.840751395115154D+02 0.409243839998504D+02
 0.151274546130166D+03 -.431136267185435D+02 0.112665861760154D+03 0.404422401750965D+01
 0.817987182963741D+02 -.185198717599077D+02 0.657713384226531D+02 -.449686080173601D+02
 0.661275829974816D+03 0.186756221509675D+02 -.262512339694322D+03 -.606649994605101D+03
 0.147264852987407D+03 0.000000000000000D+00 0.000000000000000D+00 0.147264852987407D+03
 0.147264852987407D+03 0.000000000000000D+00 0.000000000000000D+00 -.147264852987407D+03
 0.144913954567295D+03 0.512682277912443D+02 -.327386291971711D+02 0.409243839998504D+02
 0.997151639535112D+02 -.363154794577687D+02 0.171082664850708D+02 0.404422401750965D+01
 0.000000000000000D+00 0.000000000000000D+00 -.000000000000000D+00 -.000000000000000D+00
 0.499005874540075D+02 -.149527483334756D+02 0.156303627121003D+02 -.449686080173601D+02
 0.224802952279089D+03 0.000000000000000D+00 0.000000000000000D+00 0.224802952279089D+03
 0.831452946884190D+03 0.000000000000000D+00 0.000000000000000D+00 -.831452946884190D+03
 0.161906804761923D+03 0.429578763274837D+02 0.840751395115154D+02 0.409243839998504D+02
 0.151274546130166D+03 -.431136267185435D+02 0.112665861760154D+03 0.404422401750965D+01
 0.661275829974816D+03 0.186756221509675D+02 -.262512339694322D+03 -.606649994605101D+03
 0.817987182963741D+02 -.185198717599077D+02 0.657713384226531D+02 -.449686080173601D+02
0.110114080573D-04 0.000000000000D+00 0.000000000000D+00 0.402009424595D-04 0.000000000000D+00  6 1 -1 25 23 21 21 2 0.64984702D-01 0.78987865D-02 0.16936320D+05 0.16936320D+05 0.16936320D+05 0.12418559D+01  1  2  2  2  6  2       -1 0.808712496441D-02 0.100000000000D+01
0.155695167728D-05 0.581087967674D-06 -.422867063103D-07 0.402009424595D-04 0.000000000000D+00  6 1 -1 25 23 21 21 4 0.64984702D-01 0.78987865D-02 0.16936320D+05 0.16936320D+05 0.16936320D+05 0.12418559D+01  1  2  3  2  6  2       -1 0.176347323856D-02 0.100000000000D+01
0.448754692900D-06 0.000000000000D+00 0.000000000000D+00 0.402009424595D-04 0.000000000000D+00  6 1 -1 25 23 21 21 4 0.64984702D-01 0.78987865D-02 0.16936320D+05 0.16936320D+05 0.16936320D+05 0.12418559D+01  1  2 15  2  6  2       -1 0.508279674415D-03 0.100000000000D+01
-.122183994331D-05 0.000000000000D+00 -.122807076193D-04 0.402009424595D-04 0.000000000000D+00  6 1 -1 25 23 21 21 4 0.64984702D-01 0.64524035D-01 0.16936320D+05 0.16936320D+05 0.16936320D+05 0.12418559D+01  1  2  5  2  6  2       -1 -.429552136209D-04 0.100000000000D+01
-.182767990325D-05 0.000000000000D+00 -.312629471120D-05 0.402009424595D-04 0.000000000000D+00  6 1 21 25 23 1 21 4 0.64984702D-01 0.64524035D-01 0.16936320D+05 0.16936320D+05 0.16936320D+05 0.12418559D+01  3  4  5  5  5  2       -1 -.618875585354D-03 0.100000000000D+01
  </mgrwgt>
  </event>
  <event>
  5     66 0.47055975E-03 0.22865478E+02 0.75467711E-02 0.11791611E+00
        1 -1    0    0  502    0 0.00000000E+00 0.00000000E+00 0.16409100E+04 0.16409100E+04 0.32000000E+00 0.0000E+00 0.9000E+01
       -1 -1    0    0    0  501 0.00000000E+00 0.00000000E+00 -.15318134E+02 0.15321476E+02 0.32000000E+00 0.0000E+00 0.9000E+01
       25  1    1    2    0    0 -.42742154E+02 0.45435325E+02 0.11449579E+04 0.11534491E+04 0.12500000E+03 0.0000E+00 0.9000E+01
       23  1    1    2    0    0 0.55763161E+02 -.64219363E+02 0.40303522E+03 0.42188423E+03 0.91188000E+02 0.0000E+00 0.9000E+01
       21  1    1    2  502  501 -.13021007E+02 0.18784038E+02 0.77598750E+02 0.80898178E+02 0.75000000E+00 0.0000E+00 0.9000E+01
#aMCatNLO 1  0  0  2  5 0.32005413D+01 0.00000000D+00  -5  6  0 0.00000000D+00 0.00000000D+00 0.00000000D+00 0.00000000D+00 0.00000000D+00
  <mgrwgt>
 0.3050085613D+00    3    2    0
 0.158551167422350D+03 0.000000000000000D+00 0.000000000000000D+00 0.158551167422350D+03
 0.158551167422350D+03 0.000000000000000D+00 0.000000000000000D+00 -.158551167422350D+03
 0.154978843882440D+03 -.427392260167560D+02 0.454311001362100D+02 0.671030234120646D+02
 0.137393514186842D+03 0.557657576275018D+02 -.642231083542405D+02 -.576827446136207D+02
 0.247299767754177D+02 -.130265316107458D+02 0.187920082180305D+02 -.942027879844389D+01
 0.000000000000000D+00 0.000000000000000D+00 -.000000000000000D+00 0.000000000000000D+00
 0.373028058638811D+03 0.000000000000000D+00 0.000000000000000D+00 0.373028058638811D+03
 0.162817729270179D+03 0.000000000000000D+00 0.000000000000000D+00 -.162817729270179D+03
 0.164790665324209D+03 -.490940639020454D+02 0.679552832128387D+02 0.671030234120646D+02
 0.127548610392346D+03 0.505005143750664D+02 -.455609008988196D+02 -.576827446136207D+02
 0.281785153730321D+02 -.140779917427412D+02 0.225188193402564D+02 -.942027879844389D+01
 0.215327996819403D+03 0.126715412697202D+02 -.449132016542755D+02 0.210210329368633D+03
0.471945843108D-03 0.000000000000D+00 0.000000000000D+00 0.235521242112D-04 0.000000000000D+00  6 1 -1 25 23 21 21 2 0.25244795D+00 0.23568955D-02 0.20629889D+05 0.20629889D+05 0.20629889D+05 0.12323462D+01  1  2  2  2  6  2       -1 0.221663864608D+00 0.100000000000D+01
0.994330698478D-04 0.249052663744D-04 -.181239630373D-05 0.235521242112D-04 0.000000000000D+00  6 1 -1 25 23 21 21 4 0.25244795D+00 0.23568955D-02 0.20629889D+05 0.20629889D+05 0.20629889D+05 0.12323462D+01  1  2  3  2  6  2       -1 0.709249519283D-01 0.100000000000D+01
0.174118320771D-04 0.000000000000D+00 0.000000000000D+00 0.235521242112D-04 0.000000000000D+00  6 1 -1 25 23 21 21 4 0.25244795D+00 0.23568955D-02 0.20629889D+05 0.20629889D+05 0.20629889D+05 0.12323462D+01  1  2 15  2  6  2       -1 0.124197448086D-01 0.100000000000D+01
  </mgrwgt>
  </event>
  <event>
  5     66 -.47055975E-03 0.26259622E+02 0.75467711E-02 0.11571091E+00
        1 -1    0    0  502    0 0.00000000E+00 0.00000000E+00 0.14879819E+04 0.14879820E+04 0.32000000E+00 0.0000E+00 0.9000E+01
       -1 -1    0    0    0  501 0.00000000E+00 0.00000000E+00 -.53670295E+02 0.53671249E+02 0.32000000E+00 0.0000E+00 0.9000E+01
       25  1    1    2    0    0 0.14525644E+03 0.47697919E+02 0.12678241E+04 0.12831124E+04 0.12500000E+03 0.0000E+00 0.9000E+01
       23  1    1    2    0    0 -.12745632E+03 -.28405741E+02 0.10257474E+03 0.18944347E+03 0.91188000E+02 0.0000E+00 0.9000E+01
       21  1    1    2  502  501 -.17800114E+02 -.19292179E+02 0.63912772E+02 0.69097302E+02 0.75000000E+00 0.0000E+00 0.9000E+01
#aMCatNLO 1  0  0  5  2 0.38122222D+01 0.00000000D+00  -5  6  0 0.00000000D+00 0.00000000D+00 0.00000000D+00 0.00000000D+00 0.00000000D+00
  <mgrwgt>
 -.6584380775D+00   20    2    0
 0.282597224817260D+03 0.000000000000000D+00 0.000000000000000D+00 0.282597224817260D+03
 0.282597224817260D+03 -.000000000000000D+00 -.000000000000000D+00 -.282597224817260D+03
 0.282488685809809D+03 0.145260062283544D+03 0.477018484908405D+02 0.201987389622449D+03
 0.256426376372865D+03 -.127453032108246D+03 -.284021740851622D+02 -.200968346436370D+03
 0.262793874518461D+02 -.178070301752976D+02 -.192996744056783D+02 -.101904318607869D+01
 0.000000000000000D+00 0.000000000000000D+00 0.000000000000000D+00 -.000000000000000D+00
 0.282597224817260D+03 0.000000000000000D+00 0.000000000000000D+00 0.282597224817260D+03
 0.282597224817260D+03 -.000000000000000D+00 -.000000000000000D+00 -.282597224817260D+03
 0.282089575563603D+03 0.144718222517576D+03 0.471145899215963D+02 0.201956381749939D+03
 0.256753207050928D+03 -.127945543287663D+03 -.289359691823976D+02 -.200996531381109D+03
 0.198235345299482D+02 -.118624738077025D+02 -.156779943606443D+02 0.254061591926628D+01
 0.652813249004078D+01 -.491020542221045D+01 -.250062637855451D+01 -.350046628809627D+01
0.894525492211D-03 0.000000000000D+00 0.000000000000D+00 0.707848941104D-05 0.000000000000D+00  6 1 -1 25 23 21 21 2 0.22892037D+00 0.82570445D-02 0.36674920D+05 0.36674920D+05 0.36674920D+05 0.12058467D+01  1  2  2  3  6  5       21 0.786527519816D-01 0.100000000000D+01
0.242024416017D-03 0.472054071193D-04 -.343521342406D-05 0.707848941104D-05 0.000000000000D+00  6 1 -1 25 23 21 21 4 0.22892037D+00 0.82570445D-02 0.36674920D+05 0.36674920D+05 0.36674920D+05 0.12058467D+01  1  2  3  3  6  5       21 0.309431525619D-01 0.100000000000D+01
0.108092546531D-04 0.000000000000D+00 0.000000000000D+00 0.707848941104D-05 0.000000000000D+00  6 1 -1 25 23 21 21 4 0.22892037D+00 0.82570445D-02 0.36674920D+05 0.36674920D+05 0.36674920D+05 0.12058467D+01  1  2 15  3  6  5       21 0.138197798931D-02 0.100000000000D+01
0.106792362950D-04 0.000000000000D+00 0.000000000000D+00 0.708160431574D-05 0.000000000000D+00  6 1 -1 25 23 21 21 4 0.22892037D+00 0.82570445D-02 0.36457199D+05 0.36457199D+05 0.36457199D+05 0.12061120D+01  1  2 12  3  6  5       21 0.136666854946D-02 0.100000000000D+01
0.106693406474D-04 0.000000000000D+00 0.000000000000D+00 0.708160431574D-05 0.000000000000D+00  6 1 -1 25 23 21 21 4 0.22892037D+00 0.82570445D-02 0.36457199D+05 0.36457199D+05 0.36457199D+05 0.12061120D+01  1  2 12  3  6  5       21 0.136540216018D-02 0.100000000000D+01
-.817685842028D-02 0.000000000000D+00 0.000000000000D+00 0.707848941104D-05 0.000000000000D+00  6 1 -1 25 23 21 21 4 0.22892037D+00 0.82570445D-02 0.36674920D+05 0.36674920D+05 0.36674920D+05 0.12058467D+01  1  2  4  3  6  5       21 -.104542253108D+01 0.100000000000D+01
-.309188062850D-02 0.000000000000D+00 0.000000000000D+00 0.707848941104D-05 0.000000000000D+00  6 1 -1 25 23 21 21 4 0.22892037D+00 0.82570445D-02 0.36674920D+05 0.36674920D+05 0.36674920D+05 0.12058467D+01  1  2  5  3  6  5       21 -.395301166573D+00 0.100000000000D+01
0.534728116735D-02 0.000000000000D+00 -.000000000000D+00 0.707848941104D-05 0.000000000000D+00  6 1 -1 25 23 21 21 4 0.22892037D+00 0.82570445D-02 0.36674920D+05 0.36674920D+05 0.36674920D+05 0.12058467D+01  1  2  6  3  6  5       21 0.683657209777D+00 0.100000000000D+01
0.201754914661D-05 0.000000000000D+00 0.000000000000D+00 0.708160431574D-05 0.000000000000D+00  6 1 -1 25 23 1 -1 4 0.22892037D+00 0.82570445D-02 0.36457199D+05 0.36457199D+05 0.36457199D+05 0.12061120D+01  1  2 12  6  6  5       21 0.258194583349D-03 0.100000000000D+01
0.201629094412D-05 0.000000000000D+00 0.000000000000D+00 0.708160431574D-05 0.000000000000D+00  6 1 -1 25 23 1 -1 4 0.22892037D+00 0.82570445D-02 0.36457199D+05 0.36457199D+05 0.36457199D+05 0.12061120D+01  1  2 12  6  6  5       21 0.258033565676D-03 0.100000000000D+01
-.335281033503D-04 0.000000000000D+00 0.000000000000D+00 0.707848941104D-05 0.000000000000D+00  6 1 -1 25 23 1 -1 4 0.22892037D+00 0.82570445D-02 0.36674920D+05 0.36674920D+05 0.36674920D+05 0.12058467D+01  1  2  5  6  6  5       21 -.428661386381D-02 0.100000000000D+01
0.201754914661D-05 0.000000000000D+00 0.000000000000D+00 0.708160431574D-05 0.000000000000D+00  6 1 -1 25 23 2 -2 4 0.22892037D+00 0.82570445D-02 0.36457199D+05 0.36457199D+05 0.36457199D+05 0.12061120D+01  1  2 12  7  6  5       21 0.258194583349D-03 0.100000000000D+01
0.201754914661D-05 0.000000000000D+00 0.000000000000D+00 0.708160431574D-05 0.000000000000D+00  6 1 -1 25 23 4 -4 4 0.22892037D+00 0.82570445D-02 0.36457199D+05 0.36457199D+05 0.36457199D+05 0.12061120D+01  1  2 12  7  6  5       21 0.258194583349D-03 0.100000000000D+01
0.201629094412D-05 0.000000000000D+00 0.000000000000D+00 0.708160431574D-05 0.000000000000D+00  6 1 -1 25 23 2 -2 4 0.22892037D+00 0.82570445D-02 0.36457199D+05 0.36457199D+05 0.36457199D+05 0.12061120D+01  1  2 12  7  6  5       21 0.258033565676D-03 0.100000000000D+01
0.201629094412D-05 0.000000000000D+00 0.000000000000D+00 0.708160431574D-05 0.000000000000D+00  6 1 -1 25 23 4 -4 4 0.22892037D+00 0.82570445D-02 0.36457199D+05 0.36457199D+05 0.36457199D+05 0.12061120D+01  1  2 12  7  6  5       21 0.258033565676D-03 0.100000000000D+01
-.335281033503D-04 0.000000000000D+00 0.000000000000D+00 0.707848941104D-05 0.000000000000D+00  6 1 -1 25 23 2 -2 4 0.22892037D+00 0.82570445D-02 0.36674920D+05 0.36674920D+05 0.36674920D+05 0.12058467D+01  1  2  5  7  6  5       21 -.428661386381D-02 0.100000000000D+01
-.335281033503D-04 0.000000000000D+00 0.000000000000D+00 0.707848941104D-05 0.000000000000D+00  6 1 -1 25 23 4 -4 4 0.22892037D+00 0.82570445D-02 0.36674920D+05 0.36674920D+05 0.36674920D+05 0.12058467D+01  1  2  5  7  6  5       21 -.428661386381D-02 0.100000000000D+01
0.201754914661D-05 0.000000000000D+00 0.000000000000D+00 0.708160431574D-05 0.000000000000D+00  6 1 -1 25 23 3 -3 4 0.22892037D+00 0.82570445D-02 0.36457199D+05 0.36457199D+05 0.36457199D+05 0.12061120D+01  1  2 12  8  6  5       21 0.258194583349D-03 0.100000000000D+01
0.201629094412D-05 0.000000000000D+00 0.000000000000D+00 0.708160431574D-05 0.000000000000D+00  6 1 -1 25 23 3 -3 4 0.22892037D+00 0.82570445D-02 0.36457199D+05 0.36457199D+05 0.36457199D+05 0.12061120D+01  1  2 12  8  6  5       21 0.258033565676D-03 0.100000000000D+01
-.335281033503D-04 0.000000000000D+00 0.000000000000D+00 0.707848941104D-05 0.000000000000D+00  6 1 -1 25 23 3 -3 4 0.22892037D+00 0.82570445D-02 0.36674920D+05 0.36674920D+05 0.36674920D+05 0.12058467D+01  1  2  5  8  6  5       21 -.428661386381D-02 0.100000000000D+01
  </mgrwgt>
  </event>
  <event>
  6     66 0.47055975E-03 0.17291251E+02 0.75467711E-02 0.11734512E+00
        1 -1    0    0  502    0 0.00000000E+00 0.00000000E+00 0.23836190E+03 0.23836212E+03 0.32000000E+00 0.0000E+00 0.9000E+01
       -1 -1    0    0    0  501 0.00000000E+00 0.00000000E+00 -.14446292E+03 0.14446327E+03 0.32000000E+00 0.0000E+00 0.9000E+01
       25  1    1    2    0    0 -.44427611E+02 0.92820938E+02 0.56493793E+02 0.17148203E+03 0.12500000E+03 0.0000E+00 0.9000E+01
       23  1    1    2    0    0 0.66275606E+02 -.11090912E+03 0.62371690E+02 0.16999637E+03 0.91188000E+02 0.0000E+00 0.9000E+01
       21  1    1    2  502  503 -.17305705E+02 0.12744258E+02 -.79516456E+01 0.22928033E+02 0.75000000E+00 0.0000E+00 0.9000E+01
       21  1    1    2  503  501 -.45422899E+01 0.53439220E+01 -.17014852E+02 0.18418946E+02 0.75000000E+00 0.0000E+00 0.9000E+01
#aMCatNLO 2  0  0  5  1 0.83398471D+01 0.00000000D+00  -5  6  0 0.00000000D+00 0.00000000D+00 0.00000000D+00 0.00000000D+00 0.00000000D+00
  <mgrwgt>
 0.1107596181D+00    3    2    0
 0.185565525758641D+03 0.000000000000000D+00 0.000000000000000D+00 0.185565525758641D+03
 0.185565525758641D+03 -.000000000000000D+00 -.000000000000000D+00 -.185565525758641D+03
 0.162229089620315D+03 -.438085362015230D+02 0.923083994248360D+02 0.159138012599388D+02
 0.160314980978444D+03 0.668852771539095D+02 -.111413870883139D+03 0.223372079051713D+02
 0.485869809185230D+02 -.230767409523866D+02 0.191054714583027D+02 -.382510091651102D+02
 0.000000000000000D+00 0.000000000000000D+00 0.000000000000000D+00 -.000000000000000D+00
 0.185565525758641D+03 0.000000000000000D+00 0.000000000000000D+00 0.185565525758641D+03
 0.185565525758641D+03 -.000000000000000D+00 -.000000000000000D+00 -.185565525758641D+03
 0.162587505089520D+03 -.444199261566516D+02 0.928145754642387D+02 0.149003876750080D+02
 0.159581589332805D+03 0.662831479740778D+02 -.110915361934963D+03 0.213391445814184D+02
 0.249557000852552D+02 -.169515546561492D+02 0.124525508037782D+02 -.134300312718965D+02
 0.240062570097007D+02 -.491166716127701D+01 0.564823566694646D+01 -.228095009845299D+02
-.107205265543D-03 0.000000000000D+00 0.000000000000D+00 0.149567654646D-04 0.000000000000D+00  6 1 -1 25 23 21 21 4 0.36671106D-01 0.22225108D-01 0.30375374D+05 0.30375374D+05 0.30375374D+05 0.12143320D+01  1  2 13  3  6  5       21 -.456681930229D-01 0.100000000000D+01
-.999802046941D-04 0.000000000000D+00 0.000000000000D+00 0.149567654646D-04 0.000000000000D+00  6 1 -1 25 23 21 21 4 0.36671106D-01 0.22225108D-01 0.30375374D+05 0.30375374D+05 0.30375374D+05 0.12143320D+01  1  2 13  3  6  5       21 -.425904013511D-01 0.100000000000D+01
0.467191690889D-03 0.000000000000D+00 0.000000000000D+00 0.149465898356D-04 0.370357529119D-05  6 1 -1 25 23 21 21 4 0.36671106D-01 0.22225108D-01 0.30375374D+05 0.30375374D+05 0.30375374D+05 0.12143320D+01  1  2  1  3  6  5       21 0.199018212493D+00 0.100000000000D+01
  </mgrwgt>
  </event>
  <event>
  5     66 0.47055975E-03 0.36120901E+02 0.75467711E-02 0.11241269E+00
        1 -1    0    0  502    0 0.00000000E+00 0.00000000E+00 0.15683378E+04 0.15683378E+04 0.32000000E+00 0.0000E+00 0.9000E+01
       -1 -1    0    0    0  501 0.00000000E+00 0.00000000E+00 -.33474149E+02 0.33475678E+02 0.32000000E+00 0.0000E+00 0.9000E+01
       25  1    1    2    0    0 -.58611623E+02 -.86227874E+02 0.34557431E+03 0.38199106E+03 0.12500000E+03 0.0000E+00 0.9000E+01
       23  1    1    2    0    0 0.94528742E+02 0.82401370E+02 0.38963371E+03 0.41935110E+03 0.91188000E+02 0.0000E+00 0.9000E+01
       21  1    1    2  502  501 -.35917119E+02 0.38265033E+01 0.79965565E+03 0.80047136E+03 0.75000000E+00 0.0000E+00 0.9000E+01
#aMCatNLO 1  0  0  2  2 0.12068209D+03 0.00000000D+00  -5  6  0 0.00000000D+00 0.00000000D+00 0.00000000D+00 0.00000000D+00 0.00000000D+00
  <mgrwgt>
 0.5841639466D-01    4    2    0
 0.229128838769097D+03 0.000000000000000D+00 0.000000000000000D+00 0.229128838769097D+03
 0.229128838769097D+03 0.000000000000000D+00 0.000000000000000D+00 -.229128838769097D+03
 0.177780163259358D+03 -.586113491814208D+02 -.862279029832148D+02 -.714859772457149D+02
 0.160799928704280D+03 0.945289897817769D+02 0.824013441328908D+02 -.426104952239615D+02
 0.119677585574555D+03 -.359176406003561D+02 0.382655885032401D+01 0.114096472469676D+03
 0.000000000000000D+00 -.000000000000000D+00 -.000000000000000D+00 0.000000000000000D+00
 0.347342108393310D+03 0.000000000000000D+00 0.000000000000000D+00 0.347342108393310D+03
 0.269921198561748D+03 0.000000000000000D+00 0.000000000000000D+00 -.269921198561748D+03
 0.167224704443416D+03 -.140070856340315D+02 -.838609467240489D+02 -.714859772457149D+02
 0.192291600895906D+03 0.140178744660615D+03 0.848237801165060D+02 -.426104952239615D+02
 0.114365816977760D+03 -.565912952924626D+01 0.543224777951596D+01 0.114096472469676D+03
 0.143381184637977D+03 -.120512529497337D+03 -.639508117197304D+01 0.774209098315624D+02
0.323937378933D-03 0.000000000000D+00 0.000000000000D+00 0.126625515338D-04 0.000000000000D+00  6 1 -1 25 23 21 21 2 0.24128286D+00 0.51499892D-02 0.31319601D+05 0.31319601D+05 0.31319601D+05 0.12129412D+01  1  2  2  2  6  2       -1 0.520880343372D-01 0.100000000000D+01
0.379639090152D-04 0.170946451352D-04 -.124400482978D-05 0.126625515338D-04 0.000000000000D+00  6 1 -1 25 23 21 21 4 0.24128286D+00 0.51499892D-02 0.31319601D+05 0.31319601D+05 0.31319601D+05 0.12129412D+01  1  2  3  2  6  2       -1 0.898105401063D-02 0.100000000000D+01
0.124785726338D-04 0.000000000000D+00 0.000000000000D+00 0.126625515338D-04 0.000000000000D+00  6 1 -1 25 23 21 21 4 0.24128286D+00 0.51499892D-02 0.31319601D+05 0.31319601D+05 0.31319601D+05 0.12129412D+01  1  2 15  2  6  2       -1 0.295203359471D-02 0.100000000000D+01
-.236918023516D-04 0.000000000000D+00 0.000000000000D+00 0.126625515338D-04 0.000000000000D+00  6 1 -1 25 23 21 21 4 0.24128286D+00 0.51499892D-02 0.31319601D+05 0.31319601D+05 0.31319601D+05 0.12129412D+01  1  2  4  2  6  2       -1 -.560472728042D-02 0.100000000000D+01
  </mgrwgt>
  </event>
  <event>
  5     66 -.47055975E-03 0.23305790E+02 0.75467711E-02 0.10289257E+00
        1 -1    0    0  502    0 0.00000000E+00 0.00000000E+00 0.20951354E+03 0.20951379E+03 0.32000000E+00 0.0000E+00 0.9000E+01
       -1 -1    0    0    0  501 -.00000000E+00 -.00000000E+00 -.98274050E+03 0.98274055E+03 0.32000000E+00 0.0000E+00 0.9000E+01
       25  1    1    2    0    0 -.40504575E+03 0.64718248E+02 -.48154484E+03 0.64479527E+03 0.12500000E+03 0.0000E+00 0.9000E+01
       23  1    1    2    0    0 0.42664496E+03 -.55993211E+02 -.27964657E+03 0.52122799E+03 0.91188000E+02 0.0000E+00 0.9000E+01
       21  1    1    2  502  501 -.21599215E+02 -.87250369E+01 -.12035543E+02 0.26231072E+02 0.75000000E+00 0.0000E+00 0.9000E+01
#aMCatNLO 1  0  0  5  1 0.12714844D+01 0.00000000D+00  -5  6  0 0.00000000D+00 0.00000000D+00 0.00000000D+00 0.00000000D+00 0.00000000D+00
  <mgrwgt>
 -.2122137105D-01    1    2    0
 0.453759428614019D+03 0.000000000000000D+00 0.000000000000000D+00 0.453759428614019D+03
 0.453759428614019D+03 -.000000000000000D+00 -.000000000000000D+00 -.453759428614019D+03
 0.436809477302124D+03 -.405040753246488D+03 0.647202654586549D+02 -.832513958407522D+02
 0.446503137186010D+03 0.426650066040743D+03 -.559911493856623D+02 0.767105762646258D+02
 0.242062427399043D+02 -.216093127942551D+02 -.872911607299258D+01 0.654081957612637D+01
 0.000000000000000D+00 0.000000000000000D+00 -.000000000000000D+00 0.000000000000000D+00
 0.453759428614019D+03 0.000000000000000D+00 0.000000000000000D+00 0.453759428614019D+03
 0.453759428614019D+03 -.000000000000000D+00 -.000000000000000D+00 -.453759428614019D+03
 0.436830534452541D+03 -.405066757809843D+03 0.647097608741678D+02 -.832435246437973D+02
 0.446480467786572D+03 0.426623485700536D+03 -.560018865561191D+02 0.767186217407231D+02
 0.951290828198679D+01 -.829969196909839D+01 -.321708259627578D+01 0.335572894738476D+01
 0.146949467069384D+02 -.132570359215946D+02 -.549079172177295D+01 0.316917395568947D+01
-.252771484071D-02 0.000000000000D+00 0.000000000000D+00 0.150752426221D-04 0.000000000000D+00  6 1 -1 25 23 21 21 4 0.32232875D-01 0.15119087D+00 0.19890382D+06 0.19890382D+06 0.19890382D+06 0.11370955D+01  1  2 14  3  6  5       21 -.212213710467D-01 0.100000000000D+01
  </mgrwgt>
  </event>
  <event>
  5     66 0.47055975E-03 0.68741000E+02 0.75467711E-02 0.11696046E+00
        1 -1    0    0  502    0 0.00000000E+00 0.00000000E+00 0.52699939E+03 0.52699949E+03 0.32000000E+00 0.0000E+00 0.9000E+01
       -1 -1    0    0    0  501 0.00000000E+00 0.00000000E+00 -.58146154E+02 0.58147035E+02 0.32000000E+00 0.0000E+00 0.9000E+01
       25  1    1    2    0    0 0.87226687E+02 -.20005049E+02 0.28998314E+03 0.32821322E+03 0.12500000E+03 0.0000E+00 0.9000E+01
       23  1    1    2    0    0 -.41679791E+02 -.31476697E+02 0.63929409E+02 0.12300491E+03 0.91188000E+02 0.0000E+00 0.9000E+01
       21  1    1    2  502  501 -.45546896E+02 0.51481746E+02 0.11494069E+03 0.13392840E+03 0.75000000E+00 0.0000E+00 0.9000E+01
#aMCatNLO 1  0  0  1  5 0.27883642D+02 0.00000000D+00  -5  6  0 0.00000000D+00 0.00000000D+00 0.00000000D+00 0.00000000D+00 0.00000000D+00
  <mgrwgt>
 0.3097550020D-01    7    4    0
 0.175052203668150D+03 0.000000000000000D+00 0.000000000000000D+00 0.175052203668150D+03
 0.175052203668150D+03 0.000000000000000D+00 0.000000000000000D+00 -.175052203668150D+03
 0.160219479163246D+03 0.872278860541605D+02 -.200064042437576D+02 0.451256156423328D+02
 0.119971103682560D+03 -.416788925624870D+02 -.314777121257736D+02 -.578777844159842D+02
 0.699138244904942D+02 -.455489934916735D+02 0.514841163695312D+02 0.127521687736514D+02
 0.000000000000000D+00 0.000000000000000D+00 -.000000000000000D+00 0.000000000000000D+00
 0.196466901498325D+03 0.000000000000000D+00 0.000000000000000D+00 0.196466901498325D+03
 0.184924386161650D+03 0.000000000000000D+00 0.000000000000000D+00 -.184924386161650D+03
 0.158280163997384D+03 0.856499113880745D+02 -.744189540065150D+01 0.451256156423328D+02
 0.118277176351969D+03 -.428592698665313D+02 -.220790434439411D+02 -.578777844159842D+02
 0.746556911840008D+02 -.462652487155690D+02 0.571872466465709D+02 0.127521687736514D+02
 0.301782561266214D+02 0.347460719402586D+01 -.276663078019784D+02 0.115425153366749D+02
 0.175052203668150D+03 0.000000000000000D+00 0.000000000000000D+00 0.175052203668150D+03
 0.175052203668150D+03 0.000000000000000D+00 0.000000000000000D+00 -.175052203668150D+03
 0.160219479163246D+03 0.872278860541605D+02 -.200064042437576D+02 0.451256156423328D+02
 0.119971103682560D+03 -.416788925624870D+02 -.314777121257736D+02 -.578777844159842D+02
 0.000000000000000D+00 0.000000000000000D+00 -.000000000000000D+00 0.000000000000000D+00
 0.699138244904942D+02 -.455489934916735D+02 0.514841163695312D+02 0.127521687736514D+02
 0.196466901498325D+03 0.000000000000000D+00 0.000000000000000D+00 0.196466901498325D+03
 0.184924386161650D+03 0.000000000000000D+00 0.000000000000000D+00 -.184924386161650D+03
 0.158280163997384D+03 0.856499113880745D+02 -.744189540065150D+01 0.451256156423328D+02
 0.118277176351969D+03 -.428592698665313D+02 -.220790434439411D+02 -.578777844159842D+02
 0.301782561266214D+02 0.347460719402586D+01 -.276663078019784D+02 0.115425153366749D+02
 0.746556911840008D+02 -.462652487155690D+02 0.571872466465709D+02 0.127521687736514D+02
0.414445570634D-04 0.000000000000D+00 0.000000000000D+00 0.300271222366D-05 0.000000000000D+00  6 1 -1 25 23 21 21 2 0.81076905D-01 0.89456374D-02 0.26824080D+05 0.26824080D+05 0.26824080D+05 0.12200321D+01  1  2  2  1  6  1        1 0.184555144401D-01 0.100000000000D+01
-.102495125205D-05 0.218708936312D-05 -.159158011726D-06 0.300271222366D-05 0.000000000000D+00  6 1 -1 25 23 21 21 4 0.81076905D-01 0.89456374D-02 0.26824080D+05 0.26824080D+05 0.26824080D+05 0.12200321D+01  1  2  3  1  6  1        1 -.679366884038D-03 0.100000000000D+01
0.134387729594D-05 0.000000000000D+00 0.000000000000D+00 0.300271222366D-05 0.000000000000D+00  6 1 -1 25 23 21 21 4 0.81076905D-01 0.89456374D-02 0.26824080D+05 0.26824080D+05 0.26824080D+05 0.12200321D+01  1  2 15  1  6  1        1 0.890760150055D-03 0.100000000000D+01
-.346596386472D-04 0.000000000000D+00 0.000000000000D+00 0.300271222366D-05 0.000000000000D+00  6 1 -1 25 23 21 21 4 0.81076905D-01 0.89456374D-02 0.26824080D+05 0.26824080D+05 0.26824080D+05 0.12200321D+01  1  2  4  1  6  1        1 -.229733957226D-01 0.100000000000D+01
-.306922247191D-03 0.000000000000D+00 -.696318387448D-04 0.300271222366D-05 0.000000000000D+00  6 1 -1 25 23 21 21 4 0.94920938D-01 0.89456374D-02 0.26824080D+05 0.26824080D+05 0.26824080D+05 0.12200321D+01  1  2  5  1  6  1        1 -.164360723668D+00 0.100000000000D+01
0.314835521106D-03 0.000000000000D+00 0.687754527578D-04 0.300271222366D-05 0.000000000000D+00  6 1 -1 25 23 21 21 4 0.81076905D-01 0.89456374D-02 0.26824080D+05 0.26824080D+05 0.26824080D+05 0.12200321D+01  1  2  6  1  6  1        1 0.208681951002D+00 0.100000000000D+01
-.675911530904D-05 0.000000000000D+00 -.165330043105D-05 0.300271222366D-05 0.000000000000D+00  6 21 -1 25 23 -1 21 4 0.94920938D-01 0.89456374D-02 0.26824080D+05 0.26824080D+05 0.26824080D+05 0.12200321D+01  3  4  5  4  5  1        1 -.903923911934D-02 0.100000000000D+01
  </mgrwgt>
  </event>
  <event>
  5     66 0.47055975E-03 0.33082471E+02 0.75467711E-02 0.10747280E+00
        1 -1    0    0  502    0 0.00000000E+00 0.00000000E+00 0.71210695E+03 0.71210702E+03 0.32000000E+00 0.0000E+00 0.9000E+01
       -1 -1    0    0    0  501 0.00000000E+00 0.00000000E+00 -.86111260E+02 0.86111855E+02 0.32000000E+00 0.0000E+00 0.9000E+01
       25  1    1    2    0    0 -.78070490E+01 0.14419491E+03 0.69865880E+02 0.20337002E+03 0.12500000E+03 0.0000E+00 0.9000E+01
       23  1    1    2    0    0 -.25109752E+02 -.14747019E+03 0.42690870E+03 0.46145882E+03 0.91188000E+02 0.0000E+00 0.9000E+01
       21  1    1    2  502  501 0.32916801E+02 0.32752772E+01 0.12922111E+03 0.13339004E+03 0.75000000E+00 0.0000E+00 0.9000E+01
#aMCatNLO 1  0  0  1  2 0.30276559D+03 0.00000000D+00  -5  6  0 0.00000000D+00 0.00000000D+00 0.00000000D+00 0.00000000D+00 0.00000000D+00
  <mgrwgt>
 0.1549589233D+00    3    2    0
 0.247630153105365D+03 0.000000000000000D+00 0.000000000000000D+00 0.247630153105365D+03
 0.247630153105365D+03 0.000000000000000D+00 0.000000000000000D+00 -.247630153105365D+03
 0.239467262006528D+03 -.780872694296199D+01 0.144194747581613D+03 -.144452303984078D+03
 0.204138785582108D+03 -.251111819832450D+02 -.147470334042183D+03 0.104782257810325D+03
 0.516542586220932D+02 0.329199089262070D+02 0.327558646057041D+01 0.396700461737525D+02
 0.000000000000000D+00 -.000000000000000D+00 -.000000000000000D+00 -.000000000000000D+00
 0.280693948935143D+03 0.000000000000000D+00 0.000000000000000D+00 0.280693948935143D+03
 0.945681400053181D+03 0.000000000000000D+00 0.000000000000000D+00 -.945681400053181D+03
 0.255070938347787D+03 0.868097134775374D+02 0.145030304106624D+03 -.144452303984078D+03
 0.209162031624540D+03 0.539643651041051D+02 -.146772033699839D+03 0.104782257810325D+03
 0.686670750456838D+02 0.559406117410816D+02 0.347887768331560D+01 0.396700461737525D+02
 0.693475303970313D+03 -.196714690322724D+03 -.173714809010131D+01 -.664987451118039D+03
0.809431095545D-03 0.000000000000D+00 0.000000000000D+00 0.723880465556D-05 0.000000000000D+00  6 1 -1 25 23 21 21 2 0.10955497D+00 0.13247937D-01 0.39854129D+05 0.39854129D+05 0.39854129D+05 0.12021614D+01  1  2  2  1  6  1        1 0.126119155579D+00 0.100000000000D+01
0.114858486689D-03 0.427148524362D-04 -.310842853499D-05 0.723880465556D-05 0.000000000000D+00  6 1 -1 25 23 21 21 4 0.10955497D+00 0.13247937D-01 0.39854129D+05 0.39854129D+05 0.39854129D+05 0.12021614D+01  1  2  3  1  6  1        1 0.258636510314D-01 0.100000000000D+01
0.132167056889D-04 0.000000000000D+00 0.000000000000D+00 0.723880465556D-05 0.000000000000D+00  6 1 -1 25 23 21 21 4 0.10955497D+00 0.13247937D-01 0.39854129D+05 0.39854129D+05 0.39854129D+05 0.12021614D+01  1  2 15  1  6  1        1 0.297611672918D-02 0.100000000000D+01
  </mgrwgt>
  </event>
  <event>
  6     66 0.47055975E-03 0.52704881E+02 0.75467711E-02 0.11633782E+00
        1 -1    0    0  502    0 0.00000000E+00 0.00000000E+00 0.25173233E+04 0.25173233E+04 0.32000000E+00 0.0000E+00 0.9000E+01
       21 -1    0    0  503  501 0.00000000E+00 0.00000000E+00 -.61803767E+02 0.61808317E+02 0.75000000E+00 0.0000E+00 0.9000E+01
       25  1    1    2    0    0 0.58978044E+02 -.53497545E+01 0.20344819E+04 0.20391785E+04 0.12500000E+03 0.0000E+00 0.9000E+01
       23  1    1    2    0    0 -.37524947E+02 -.15429919E+02 0.39089365E+03 0.40343438E+03 0.91188000E+02 0.0000E+00 0.9000E+01
        1  1    1    2  503    0 -.72956151E+02 0.29939796E+02 0.65647902E+01 0.79134002E+02 0.32000000E+00 0.0000E+00 0.9000E+01
       21  1    1    2  502  501 0.51503054E+02 -.91601230E+01 0.23579107E+02 0.57384747E+02 0.75000000E+00 0.0000E+00 0.9000E+01
#aMCatNLO 2  0  0  2  5 0.21963318D+02 0.00000000D+00  -5  6  0 0.00000000D+00 0.00000000D+00 0.00000000D+00 0.00000000D+00 0.00000000D+00
  <mgrwgt>
 0.1241528227D+00    1    2    0
 0.248188361679935D+03 0.000000000000000D+00 0.000000000000000D+00 0.248188361679935D+03
 0.248188361679935D+03 0.000000000000000D+00 0.000000000000000D+00 -.248188361679935D+03
 0.223871204356098D+03 0.258330643204214D+02 0.825224930305624D+01 0.183733147007030D+03
 0.107941866019980D+03 -.528628470942474D+02 -.913556779071513D+01 -.214069122973605D+02
 0.000000000000000D+00 -.000000000000000D+00 0.000000000000000D+00 -.000000000000000D+00
 0.164563652983791D+03 0.270297827738261D+02 0.883318487658888D+00 -.162326234709670D+03
 0.255652633964926D+03 0.000000000000000D+00 0.000000000000000D+00 0.255652633964926D+03
 0.608583086524622D+03 0.000000000000000D+00 0.000000000000000D+00 -.608583086524622D+03
 0.229978030960281D+03 0.589780053084422D+02 -.534979486508936D+01 0.183733147007030D+03
 0.102077011948979D+03 -.375250151117854D+02 -.154299180550419D+02 -.214069122973605D+02
 0.361633648437098D+03 -.729561507339406D+02 0.299397963924450D+02 -.352930452559696D+03
 0.170547029143189D+03 0.515031605372838D+02 -.916008347231370D+01 -.162326234709670D+03
0.365779680911D-03 0.000000000000D+00 0.000000000000D+00 0.243467687283D-04 0.501230889609D-08  6 1 21 25 23 1 21 4 0.38728075D+00 0.95086208D-02 0.34095191D+05 0.34095191D+05 0.34095191D+05 0.12091088D+01  1  2  1  5  5  2       -1 0.124152822691D+00 0.100000000000D+01
  </mgrwgt>
  </event>
  <event>
  5     66 0.47055975E-03 0.48495219E+02 0.75467711E-02 0.11779396E+00
        1 -1    0    0  502    0 0.00000000E+00 0.00000000E+00 0.16153054E+04 0.16153054E+04 0.32000000E+00 0.0000E+00 0.9000E+01
       -1 -1    0    0    0  501 0.00000000E+00 0.00000000E+00 -.68832795E+02 0.68833539E+02 0.32000000E+00 0.0000E+00 0.9000E+01
       25  1    1    2    0    0 0.17767274E+02 -.10853048E+03 0.25543831E+03 0.30490699E+03 0.12500000E+03 0.0000E+00 0.9000E+01
       23  1    1    2    0    0 0.15365946E+02 0.73119127E+02 0.36003022E+02 0.12326390E+03 0.91188000E+02 0.0000E+00 0.9000E+01
       21  1    1    2  502  501 -.33133220E+02 0.35411357E+02 0.12550313E+04 0.12559681E+04 0.75000000E+00 0.0000E+00 0.9000E+01
#aMCatNLO 1  0  0  1  5 0.51079023D+01 0.00000000D+00  -5  6  0 0.00000000D+00 0.00000000D+00 0.00000000D+00 0.00000000D+00 0.00000000D+00
  <mgrwgt>
 0.6642788173D+00   11    4    0
 0.333446604728399D+03 0.000000000000000D+00 0.000000000000000D+00 0.333446604728399D+03
 0.333446604728399D+03 0.000000000000000D+00 0.000000000000000D+00 -.333446604728399D+03
 0.177655846721229D+03 0.177673105828738D+02 -.108530522272483D+03 -.619842583576716D+02
 0.227796650902439D+03 0.153659926849174D+02 0.731190770942960D+02 -.194919341400625D+03
 0.261440711833131D+03 -.331333032677911D+02 0.354114451781869D+02 0.256903599758296D+03
 0.000000000000000D+00 0.000000000000000D+00 -.000000000000000D+00 0.000000000000000D+00
 0.415066771393472D+03 0.000000000000000D+00 0.000000000000000D+00 0.415066771393472D+03
 0.333536309726714D+03 0.000000000000000D+00 0.000000000000000D+00 -.333536309726714D+03
 0.176818967429481D+03 0.175162404048548D+02 -.107196456474814D+03 -.619842583576716D+02
 0.228331940437517D+03 0.150429223790576D+02 0.748357168349874D+02 -.194919341400625D+03
 0.261761862655197D+03 -.335038812560510D+02 0.373805178231624D+02 0.256903599758296D+03
 0.816903105979903D+02 0.944718472138499D+00 -.501977818333542D+01 0.815304616667576D+02
 0.333446604728399D+03 0.000000000000000D+00 0.000000000000000D+00 0.333446604728399D+03
 0.333446604728399D+03 0.000000000000000D+00 0.000000000000000D+00 -.333446604728399D+03
 0.177655846721229D+03 0.177673105828738D+02 -.108530522272483D+03 -.619842583576716D+02
 0.227796650902439D+03 0.153659926849174D+02 0.731190770942960D+02 -.194919341400625D+03
 0.000000000000000D+00 0.000000000000000D+00 -.000000000000000D+00 0.000000000000000D+00
 0.261440711833131D+03 -.331333032677911D+02 0.354114451781869D+02 0.256903599758296D+03
 0.415066771393472D+03 0.000000000000000D+00 0.000000000000000D+00 0.415066771393472D+03
 0.333536309726714D+03 0.000000000000000D+00 0.000000000000000D+00 -.333536309726714D+03
 0.176818967429481D+03 0.175162404048548D+02 -.107196456474814D+03 -.619842583576716D+02
 0.228331940437517D+03 0.150429223790576D+02 0.748357168349874D+02 -.194919341400625D+03
 0.816903105979903D+02 0.944718472138499D+00 -.501977818333542D+01 0.815304616667576D+02
 0.261761862655197D+03 -.335038812560510D+02 0.373805178231624D+02 0.256903599758296D+03
0.820691540091D-04 0.000000000000D+00 0.000000000000D+00 0.121472987348D-04 0.000000000000D+00  6 1 -1 25 23 21 21 2 0.24850858D+00 0.10589720D-01 0.27701590D+05 0.27701590D+05 0.27701590D+05 0.12185484D+01  1  2  2  1  6  1        1 0.417945856442D-02 0.100000000000D+01
0.921144838589D-05 0.433090824205D-05 -.315167160699D-06 0.121472987348D-04 0.000000000000D+00  6 1 -1 25 23 21 21 4 0.24850858D+00 0.10589720D-01 0.27701590D+05 0.27701590D+05 0.27701590D+05 0.12185484D+01  1  2  3  1  6  1        1 0.696552027095D-03 0.100000000000D+01
0.256932646062D-05 0.000000000000D+00 0.000000000000D+00 0.121472987348D-04 0.000000000000D+00  6 1 -1 25 23 21 21 4 0.24850858D+00 0.10589720D-01 0.27701590D+05 0.27701590D+05 0.27701590D+05 0.12185484D+01  1  2 15  1  6  1        1 0.194287529978D-03 0.100000000000D+01
0.138954386340D-01 0.000000000000D+00 0.000000000000D+00 0.121095226851D-04 0.000000000000D+00  6 1 -1 25 23 21 21 4 0.31468522D+00 0.10589720D-01 0.28870101D+05 0.28870101D+05 0.28870101D+05 0.12166522D+01  1  2 12  1  6  1        1 0.552612059908D+00 0.100000000000D+01
-.197223286195D-01 0.000000000000D+00 0.000000000000D+00 0.121472987348D-04 0.000000000000D+00  6 1 -1 25 23 21 21 4 0.24850858D+00 0.10589720D-01 0.27701590D+05 0.27701590D+05 0.27701590D+05 0.12185484D+01  1  2  4  1  6  1        1 -.149136459365D+01 0.100000000000D+01
-.348152390901D-01 0.000000000000D+00 -.845670068223D-04 0.121472987348D-04 0.000000000000D+00  6 1 -1 25 23 21 21 4 0.30936348D+00 0.10589720D-01 0.27701590D+05 0.27701590D+05 0.27701590D+05 0.12185484D+01  1  2  5  1  6  1        1 -.146803749067D+01 0.100000000000D+01
0.340164574648D-01 0.000000000000D+00 0.825780947728D-04 0.121472987348D-04 0.000000000000D+00  6 1 -1 25 23 21 21 4 0.24850858D+00 0.10589720D-01 0.27701590D+05 0.27701590D+05 0.27701590D+05 0.12185484D+01  1  2  6  1  6  1        1 0.257225915069D+01 0.100000000000D+01
0.116548381291D-01 0.000000000000D+00 0.000000000000D+00 0.121472987348D-04 0.116641303049D-05  6 1 -1 25 23 21 21 4 0.30933785D+00 0.10592569D-01 0.28870101D+05 0.28870101D+05 0.28870101D+05 0.12166522D+01  1  2 11  1  6  1        1 0.487691735950D+00 0.100000000000D+01
0.450741958343D-03 0.000000000000D+00 0.000000000000D+00 0.121095226851D-04 0.000000000000D+00  6 21 -1 25 23 -1 21 4 0.31468522D+00 0.10589720D-01 0.28870101D+05 0.28870101D+05 0.28870101D+05 0.12166522D+01  3  4 12  4  5  1        1 0.142034491834D-01 0.100000000000D+01
-.106650446815D-02 0.000000000000D+00 -.259332602387D-05 0.121472987348D-04 0.000000000000D+00  6 21 -1 25 23 -1 21 4 0.30936348D+00 0.10589720D-01 0.27701590D+05 0.27701590D+05 0.27701590D+05 0.12185484D+01  3  4  5  4  5  1        1 -.364265458885D-01 0.100000000000D+01
0.836422341320D-03 0.000000000000D+00 0.000000000000D+00 0.121472987348D-04 0.167410979257D-06  6 21 -1 25 23 -1 21 4 0.30933785D+00 0.10592569D-01 0.28870101D+05 0.28870101D+05 0.28870101D+05 0.12166522D+01  3  4 11  4  5  1        1 0.282707536369D-01 0.100000000000D+01
  </mgrwgt>
  </event>
  <event>
  5     66 -.47055975E-03 0.65722105E+02 0.75467711E-02 0.11184578E+00
        1 -1    0    0  502    0 0.00000000E+00 0.00000000E+00 0.18404896E+04 0.18404896E+04 0.32000000E+00 0.0000E+00 0.9000E+01
       -1 -1    0    0    0  501 0.00000000E+00 0.00000000E+00 -.29973700E+02 0.29975408E+02 0.32000000E+00 0.0000E+00 0.9000E+01
       25  1    1    2    0    0 0.31789686E+02 -.37834600E+02 0.15201727E+03 0.20291942E+03 0.12500000E+03 0.0000E+00 0.9000E+01
       23  1    1    2    0    0 -.46855872E+02 -.26135021E+02 0.11397304E+04 0.11446306E+04 0.91188000E+02 0.0000E+00 0.9000E+01
       21  1    1    2  502  501 0.15066186E+02 0.63969622E+02 0.51876821E+03 0.52291502E+03 0.75000000E+00 0.0000E+00 0.9000E+01
#aMCatNLO 1  0  0  2  2 0.14473047D+03 0.00000000D+00  -5  6  0 0.00000000D+00 0.00000000D+00 0.00000000D+00 0.00000000D+00 0.00000000D+00
  <mgrwgt>
 -.1360581156D-01    5    4    0
 0.234878494109094D+03 0.000000000000000D+00 0.000000000000000D+00 0.234878494109094D+03
 0.234878494109094D+03 0.000000000000000D+00 0.000000000000000D+00 -.234878494109094D+03
 0.222081726388730D+03 0.317893928024869D+02 -.378358436083557D+02 -.176785679961619D+03
 0.164960383042043D+03 -.468560895752805D+02 -.261359448190496D+02 0.126562616469108D+03
 0.827148787874152D+02 0.150666967727936D+02 0.639717884274053D+02 0.502230634925109D+02
 0.000000000000000D+00 -.000000000000000D+00 0.000000000000000D+00 -.000000000000000D+00
 0.256088060798192D+03 0.000000000000000D+00 0.000000000000000D+00 0.256088060798192D+03
 0.753478071935822D+03 0.000000000000000D+00 0.000000000000000D+00 -.753478071935822D+03
 0.246182186519765D+03 0.957029956401449D+02 -.675901542065311D+02 -.176785679961619D+03
 0.162923214938037D+03 -.210307427645623D+01 -.469702439085313D+02 0.126562616469108D+03
 0.824416844552587D+02 0.376090082730768D+02 0.534774506307406D+02 0.502230634925109D+02
 0.518019046820954D+03 -.131208929636766D+03 0.610829474843218D+02 -.497390011137630D+03
 0.234878494109094D+03 0.000000000000000D+00 0.000000000000000D+00 0.234878494109094D+03
 0.234878494109094D+03 0.000000000000000D+00 0.000000000000000D+00 -.234878494109094D+03
 0.222081726388730D+03 0.317893928024869D+02 -.378358436083557D+02 -.176785679961619D+03
 0.164960383042043D+03 -.468560895752805D+02 -.261359448190496D+02 0.126562616469108D+03
 0.000000000000000D+00 -.000000000000000D+00 0.000000000000000D+00 -.000000000000000D+00
 0.827148787874152D+02 0.150666967727936D+02 0.639717884274053D+02 0.502230634925109D+02
 0.256088060798192D+03 0.000000000000000D+00 0.000000000000000D+00 0.256088060798192D+03
 0.753478071935822D+03 0.000000000000000D+00 0.000000000000000D+00 -.753478071935822D+03
 0.246182186519765D+03 0.957029956401449D+02 -.675901542065311D+02 -.176785679961619D+03
 0.162923214938037D+03 -.210307427645623D+01 -.469702439085313D+02 0.126562616469108D+03
 0.518019046820954D+03 -.131208929636766D+03 0.610829474843218D+02 -.497390011137630D+03
 0.824416844552587D+02 0.376090082730768D+02 0.534774506307406D+02 0.502230634925109D+02
0.664424855142D-04 0.000000000000D+00 0.000000000000D+00 0.138549487339D-05 0.000000000000D+00  6 1 -1 25 23 21 21 2 0.28315238D+00 0.46114720D-02 0.23399360D+05 0.23399360D+05 0.23399360D+05 0.12263905D+01  1  2  2  2  6  2       -1 0.862302190575D-02 0.100000000000D+01
-.333698030896D-05 0.350626628981D-05 -.255156639083D-06 0.138549487339D-05 0.000000000000D+00  6 1 -1 25 23 21 21 4 0.28315238D+00 0.46114720D-02 0.23399360D+05 0.23399360D+05 0.23399360D+05 0.12263905D+01  1  2  3  2  6  2       -1 -.651365648599D-03 0.100000000000D+01
0.186097100574D-05 0.000000000000D+00 0.000000000000D+00 0.138549487339D-05 0.000000000000D+00  6 1 -1 25 23 21 21 4 0.28315238D+00 0.46114720D-02 0.23399360D+05 0.23399360D+05 0.23399360D+05 0.12263905D+01  1  2 15  2  6  2       -1 0.363254341934D-03 0.100000000000D+01
-.261202651001D-03 0.000000000000D+00 -.417221618447D-04 0.138549487339D-05 0.000000000000D+00  6 1 -1 25 23 21 21 4 0.28315238D+00 0.16153418D-01 0.23399360D+05 0.23399360D+05 0.23399360D+05 0.12263905D+01  1  2  5  2  6  2       -1 -.755998877506D-02 0.100000000000D+01
-.369849964498D-04 0.000000000000D+00 -.611978637751D-05 0.138549487339D-05 0.000000000000D+00  6 1 21 25 23 1 21 4 0.28315238D+00 0.16153418D-01 0.23399360D+05 0.23399360D+05 0.23399360D+05 0.12263905D+01  3  4  5  5  5  2       -1 -.143807333831D-01 0.100000000000D+01
  </mgrwgt>
  </event>
  <event>
  5     66 0.47055975E-03 0.74499436E+02 0.75467711E-02 0.11047464E+00
        1 -1    0    0  502    0 0.00000000E+00 0.00000000E+00 0.44591426E+03 0.44591437E+03 0.32000000E+00 0.0000E+00 0.9000E+01
       -1 -1    0    0    0  501 0.00000000E+00 0.00000000E+00 -.28478970E+03 0.28478988E+03 0.32000000E+00 0.0000E+00 0.9000E+01
       25  1    1    2    0    0 0.10338512E+03 0.74118935E+02 0.34920878E+02 0.18173213E+03 0.12500000E+03 0.0000E+00 0.9000E+01
       23  1    1    2    0    0 -.16925398E+03 -.39313426E+02 -.16002206E+03 0.25320894E+03 0.91188000E+02 0.0000E+00 0.9000E+01
       21  1    1    2  502  501 0.65868854E+02 -.34805509E+02 0.28622573E+03 0.29576319E+03 0.75000000E+00 0.0000E+00 0.9000E+01
#aMCatNLO 1  0  0  5  5 0.50798411D+02 0.00000000D+00  -5  6  0 0.00000000D+00 0.00000000D+00 0.00000000D+00 0.00000000D+00 0.00000000D+00
  <mgrwgt>
 0.3169133545D-01    3    2    0
 0.356359224093779D+03 0.000000000000000D+00 0.000000000000000D+00 0.356359224093779D+03
 0.356359224093779D+03 -.000000000000000D+00 -.000000000000000D+00 -.356359224093779D+03
 0.178423634707004D+03 0.103385040485178D+03 0.741189781711849D+02 -.528241429613132D+01
 0.295775458146235D+03 -.169254111503274D+03 -.393133544926538D+02 -.221303809717292D+03
 0.238519355334320D+03 0.658690710180955D+02 -.348056236785311D+02 0.226586224013423D+03
 0.000000000000000D+00 0.000000000000000D+00 0.000000000000000D+00 -.000000000000000D+00
 0.356359224093779D+03 0.000000000000000D+00 0.000000000000000D+00 0.356359224093779D+03
 0.356359224093779D+03 -.000000000000000D+00 -.000000000000000D+00 -.356359224093779D+03
 0.183962592802424D+03 0.112734459450166D+03 0.691786874842417D+02 0.268791071471296D+02
 0.253628002242863D+03 -.155079723124073D+03 -.468031887984127D+02 -.172544641098374D+03
 0.688953945422727D+02 -.578556814775797D+02 -.146414268827944D+02 -.344227269218470D+02
 0.206232458599999D+03 0.100200945151487D+03 -.773407180303455D+01 0.180088260873091D+03
0.746998969643D-03 0.000000000000D+00 0.000000000000D+00 0.250220574898D-05 0.000000000000D+00  6 1 -1 25 23 21 21 2 0.68602216D-01 0.43813823D-01 0.50417934D+05 0.50417934D+05 0.50417934D+05 0.11919239D+01  1  2  2  3  6  5       21 0.296035354076D-01 0.100000000000D+01
0.271624464884D-04 0.394202186374D-04 -.286867273278D-05 0.250220574898D-05 0.000000000000D+00  6 1 -1 25 23 21 21 4 0.68602216D-01 0.43813823D-01 0.50417934D+05 0.50417934D+05 0.50417934D+05 0.11919239D+01  1  2  3  3  6  5       21 0.152928884744D-02 0.100000000000D+01
0.991999024854D-05 0.000000000000D+00 0.000000000000D+00 0.250220574898D-05 0.000000000000D+00  6 1 -1 25 23 21 21 4 0.68602216D-01 0.43813823D-01 0.50417934D+05 0.50417934D+05 0.50417934D+05 0.11919239D+01  1  2 15  3  6  5       21 0.558511195239D-03 0.100000000000D+01
  </mgrwgt>
  </event>
  <event>
  5     66 0.47055975E-03 0.20171518E+02 0.75467711E-02 0.12234120E+00
        1 -1    0    0  502    0 0.00000000E+00 0.00000000E+00 0.13666356E+04 0.13666356E+04 0.32000000E+00 0.0000E+00 0.9000E+01
       -1 -1    0    0    0  501 0.00000000E+00 0.00000000E+00 -.19265379E+02 0.19268036E+02 0.32000000E+00 0.0000E+00 0.9000E+01
       25  1    1    2    0    0 -.37702655E+02 0.34974961E+02 0.83808473E+03 0.84891446E+03 0.12500000E+03 0.0000E+00 0.9000E+01
       23  1    1    2    0    0 0.17583491E+02 -.33559550E+02 0.16627713E+03 0.19338758E+03 0.91188000E+02 0.0000E+00 0.9000E+01
       21  1    1    2  502  501 0.20119164E+02 -.14154112E+01 0.34300834E+03 0.34360161E+03 0.75000000E+00 0.0000E+00 0.9000E+01
#aMCatNLO 1  0  0  5  2 0.14522942D+02 0.00000000D+00  -5  6  0 0.00000000D+00 0.00000000D+00 0.00000000D+00 0.00000000D+00 0.00000000D+00
  <mgrwgt>
 0.1388079522D+00   15    2    0
 0.162267124537814D+03 0.000000000000000D+00 0.000000000000000D+00 0.162267124537814D+03
 0.162267124537814D+03 -.000000000000000D+00 -.000000000000000D+00 -.162267124537814D+03
 0.145756765036048D+03 -.377040128107218D+02 0.349750568939224D+02 0.545452781366959D+02
 0.135517850988682D+03 0.175822279822943D+02 -.335594613019753D+02 -.928141390569904D+02
 0.432596330508977D+02 0.201217848284275D+02 -.141559559194711D+01 0.382688609202946D+02
 0.000000000000000D+00 0.000000000000000D+00 -.000000000000000D+00 0.000000000000000D+00
 0.162267124537814D+03 0.000000000000000D+00 0.000000000000000D+00 0.162267124537814D+03
 0.162267124537814D+03 -.000000000000000D+00 -.000000000000000D+00 -.162267124537814D+03
 0.146937021015521D+03 -.352126623751037D+02 0.347997869203724D+02 0.592834832282088D+02
 0.132942254636464D+03 0.198673062209469D+02 -.337202197391354D+02 -.884682352491212D+02
 0.180112815145087D+02 -.645971477225920D+01 0.610646647519621D+01 0.156649102788124D+02
 0.266436919091340D+02 0.218050709264160D+02 -.718603365643320D+01 0.135198417421000D+02
0.247107182876D-03 0.000000000000D+00 0.000000000000D+00 0.300364523147D-04 0.000000000000D+00  6 1 -1 25 23 21 21 2 0.21025183D+00 0.29641118D-02 0.16139513D+05 0.16139513D+05 0.16139513D+05 0.12442136D+01  1  2  2  3  6  5       21 0.127475372592D+00 0.100000000000D+01
0.326553820327D-04 0.130402042997D-04 -.948956647059D-06 0.300364523147D-04 0.000000000000D+00  6 1 -1 25 23 21 21 4 0.21025183D+00 0.29641118D-02 0.16139513D+05 0.16139513D+05 0.16139513D+05 0.12442136D+01  1  2  3  3  6  5       21 0.260786788919D-01 0.100000000000D+01
0.903001340410D-05 0.000000000000D+00 0.000000000000D+00 0.300364523147D-04 0.000000000000D+00  6 1 -1 25 23 21 21 4 0.21025183D+00 0.29641118D-02 0.16139513D+05 0.16139513D+05 0.16139513D+05 0.12442136D+01  1  2 15  3  6  5       21 0.721139381309D-02 0.100000000000D+01
0.461526146496D-04 0.000000000000D+00 0.000000000000D+00 0.298291817000D-04 0.000000000000D+00  6 1 -1 25 23 21 21 4 0.21025183D+00 0.29641118D-02 0.17626118D+05 0.17626118D+05 0.17626118D+05 0.12399132D+01  1  2 12  3  6  5       21 0.363865955446D-01 0.100000000000D+01
-.209815836658D-03 0.000000000000D+00 0.000000000000D+00 0.300364523147D-04 0.000000000000D+00  6 1 -1 25 23 21 21 4 0.21025183D+00 0.29641118D-02 0.16139513D+05 0.16139513D+05 0.16139513D+05 0.12442136D+01  1  2  4  3  6  5       21 -.167559510562D+00 0.100000000000D+01
-.627031641205D-04 0.000000000000D+00 0.000000000000D+00 0.300364523147D-04 0.000000000000D+00  6 1 -1 25 23 21 21 4 0.21025183D+00 0.29641118D-02 0.16139513D+05 0.16139513D+05 0.16139513D+05 0.12442136D+01  1  2  5  3  6  5       21 -.500749212172D-01 0.100000000000D+01
0.195019079596D-03 0.000000000000D+00 -.000000000000D+00 0.300364523147D-04 0.000000000000D+00  6 1 -1 25 23 21 21 4 0.21025183D+00 0.29641118D-02 0.16139513D+05 0.16139513D+05 0.16139513D+05 0.12442136D+01  1  2  6  3  6  5       21 0.155742779230D+00 0.100000000000D+01
0.263158264968D-05 0.000000000000D+00 0.000000000000D+00 0.298291817000D-04 0.000000000000D+00  6 1 -1 25 23 1 -1 4 0.21025183D+00 0.29641118D-02 0.17626118D+05 0.17626118D+05 0.17626118D+05 0.12399132D+01  1  2 12  6  6  5       21 0.207473258543D-02 0.100000000000D+01
-.148739977890D-05 0.000000000000D+00 0.000000000000D+00 0.300364523147D-04 0.000000000000D+00  6 1 -1 25 23 1 -1 4 0.21025183D+00 0.29641118D-02 0.16139513D+05 0.16139513D+05 0.16139513D+05 0.12442136D+01  1  2  5  6  6  5       21 -.118784159925D-02 0.100000000000D+01
0.263158264968D-05 0.000000000000D+00 0.000000000000D+00 0.298291817000D-04 0.000000000000D+00  6 1 -1 25 23 2 -2 4 0.21025183D+00 0.29641118D-02 0.17626118D+05 0.17626118D+05 0.17626118D+05 0.12399132D+01  1  2 12  7  6  5       21 0.207473258543D-02 0.100000000000D+01
0.263158264968D-05 0.000000000000D+00 0.000000000000D+00 0.298291817000D-04 0.000000000000D+00  6 1 -1 25 23 4 -4 4 0.21025183D+00 0.29641118D-02 0.17626118D+05 0.17626118D+05 0.17626118D+05 0.12399132D+01  1  2 12  7  6  5       21 0.207473258543D-02 0.100000000000D+01
-.148739977890D-05 0.000000000000D+00 0.000000000000D+00 0.300364523147D-04 0.000000000000D+00  6 1 -1 25 23 2 -2 4 0.21025183D+00 0.29641118D-02 0.16139513D+05 0.16139513D+05 0.16139513D+05 0.12442136D+01  1  2  5  7  6  5       21 -.118784159925D-02 0.100000000000D+01
-.148739977890D-05 0.000000000000D+00 0.000000000000D+00 0.300364523147D-04 0.000000000000D+00  6 1 -1 25 23 4 -4 4 0.21025183D+00 0.29641118D-02 0.16139513D+05 0.16139513D+05 0.16139513D+05 0.12442136D+01  1  2  5  7  6  5       21 -.118784159925D-02 0.100000000000D+01
0.263158264968D-05 0.000000000000D+00 0.000000000000D+00 0.298291817000D-04 0.000000000000D+00  6 1 -1 25 23 3 -3 4 0.21025183D+00 0.29641118D-02 0.17626118D+05 0.17626118D+05 0.17626118D+05 0.12399132D+01  1  2 12  8  6  5       21 0.207473258543D-02 0.100000000000D+01
-.148739977890D-05 0.000000000000D+00 0.000000000000D+00 0.300364523147D-04 0.000000000000D+00  6 1 -1 25 23 3 -3 4 0.21025183D+00 0.29641118D-02 0.16139513D+05 0.16139513D+05 0.16139513D+05 0.12442136D+01  1  2  5  8  6  5       21 -.118784159925D-02 0.100000000000D+01
  </mgrwgt>
  </event>
  <event>
  6     66 -.47055975E-03 0.12525968E+02 0.75467711E-02 0.12061952E+00
        1 -1    0    0  502    0 0.00000000E+00 0.00000000E+00 0.51935085E+03 0.51935094E+03 0.32000000E+00 0.0000E+00 0.9000E+01
       -1 -1    0    0    0  501 0.00000000E+00 0.00000000E+00 -.40729255E+02 0.40730512E+02 0.32000000E+00 0.0000E+00 0.9000E+01
       25  1    1    2    0    0 0.80982193E+02 0.18101836E+02 0.24510421E+03 0.28737931E+03 0.12500000E+03 0.0000E+00 0.9000E+01
       23  1    1    2    0    0 -.77182760E+02 -.49367975E+00 0.19758461E+03 0.23089467E+03 0.91188000E+02 0.0000E+00 0.9000E+01
       21  1    1    2  502  503 -.77416966E+01 -.13762309E+02 0.26221251E+02 0.30617830E+02 0.75000000E+00 0.0000E+00 0.9000E+01
       21  1    1    2  503  501 0.39422641E+01 -.38458476E+01 0.97115240E+01 0.11189646E+02 0.75000000E+00 0.0000E+00 0.9000E+01
#aMCatNLO 2  0  0  5  2 0.49232686D+01 0.00000000D+00  -5  6  0 0.00000000D+00 0.00000000D+00 0.00000000D+00 0.00000000D+00 0.00000000D+00
  <mgrwgt>
 -.8715271972D-01    3    2    0
 0.145441233931044D+03 0.000000000000000D+00 0.000000000000000D+00 0.145441233931044D+03
 0.145441233931044D+03 -.000000000000000D+00 -.000000000000000D+00 -.145441233931044D+03
 0.150452646348689D+03 0.813498959503048D+02 0.198059262068971D+02 -.958388900877010D+00
 0.119282856262330D+03 -.768906055701362D+02 0.860286885286580D+00 0.493087854587442D+00
 0.211469652510682D+02 -.445929038016856D+01 -.206662130921837D+02 0.465301046289574D+00
 0.000000000000000D+00 0.000000000000000D+00 0.000000000000000D+00 0.000000000000000D+00
 0.145441233931044D+03 0.000000000000000D+00 0.000000000000000D+00 0.145441233931044D+03
 0.145441233931044D+03 -.000000000000000D+00 -.000000000000000D+00 -.145441233931044D+03
 0.150027663944310D+03 0.809720672263108D+02 0.180549101804161D+02 -.918964668408432D+00
 0.119474815595441D+03 -.771908232663102D+02 -.531047240602019D+00 0.524413827160482D+00
 0.154748148940056D+02 -.790175305652057D+01 -.133050553766841D+02 0.877271957522362D-01
 0.590517342833060D+01 0.412050909651994D+01 -.421880756313001D+01 0.306823645495720D+00
-.133201143117D-04 0.000000000000D+00 0.000000000000D+00 0.345231315448D-04 0.000000000000D+00  6 1 -1 25 23 21 21 4 0.79900234D-01 0.62661435D-02 0.21151380D+05 0.21151380D+05 0.21151380D+05 0.12311588D+01  1  2 13  3  6  5       21 -.158916015637D-01 0.100000000000D+01
-.133482808498D-04 0.000000000000D+00 0.000000000000D+00 0.345231315448D-04 0.000000000000D+00  6 1 -1 25 23 21 21 4 0.79900234D-01 0.62661435D-02 0.21151380D+05 0.21151380D+05 0.21151380D+05 0.12311588D+01  1  2 13  3  6  5       21 -.159252057349D-01 0.100000000000D+01
-.463818976511D-04 0.000000000000D+00 0.000000000000D+00 0.345230766182D-04 0.000000000000D+00  6 1 -1 25 23 21 21 4 0.79900234D-01 0.62661435D-02 0.21151816D+05 0.21151816D+05 0.21151816D+05 0.12311578D+01  1  2  8  3  6  5       21 -.553359124228D-01 0.100000000000D+01
  </mgrwgt>
  </event>
  <event>
  6     66 0.47055975E-03 0.19369851E+02 0.75467711E-02 0.10956533E+00
        1 -1    0    0  502    0 0.00000000E+00 0.00000000E+00 0.58354925E+03 0.58354934E+03 0.32000000E+00 0.0000E+00 0.9000E+01
       21 -1    0    0  503  501 0.00000000E+00 0.00000000E+00 -.21002072E+03 0.21002206E+03 0.75000000E+00 0.0000E+00 0.9000E+01
       25  1    1    2    0    0 -.12041086E+03 -.16691211E+03 0.15097174E+03 0.28421101E+03 0.12500000E+03 0.0000E+00 0.9000E+01
       23  1    1    2    0    0 0.12416781E+03 0.21420683E+03 0.30736758E+03 0.40508307E+03 0.91188000E+02 0.0000E+00 0.9000E+01
        1  1    1    2  503    0 -.16379541E+02 -.26797672E+02 -.68010588E+02 0.74912931E+02 0.32000000E+00 0.0000E+00 0.9000E+01
       21  1    1    2  502  501 0.12622590E+02 -.20497044E+02 -.16800205E+02 0.29364400E+02 0.75000000E+00 0.0000E+00 0.9000E+01
#aMCatNLO 2  0  0  2  5 0.31407079D+02 0.00000000D+00  -5  6  0 0.00000000D+00 0.00000000D+00 0.00000000D+00 0.00000000D+00 0.00000000D+00
  <mgrwgt>
 0.1399739349D+00    1    2    0
 0.283075434586231D+03 0.000000000000000D+00 0.000000000000000D+00 0.283075434586231D+03
 0.283075434586231D+03 0.000000000000000D+00 0.000000000000000D+00 -.283075434586231D+03
 0.254411722246533D+03 -.127596316406384D+03 -.178665840159545D+03 -.299670154678862D+02
 0.260757750481591D+03 0.116436609806530D+03 0.201560279674854D+03 0.741304434519079D+02
 0.000000000000000D+00 -.000000000000000D+00 -.000000000000000D+00 -.000000000000000D+00
 0.509813964443386D+02 0.111597065998543D+02 -.228944395153083D+02 -.441634279840217D+02
 0.285197187683304D+03 0.000000000000000D+00 0.000000000000000D+00 0.285197187683304D+03
 0.429730238315999D+03 0.000000000000000D+00 0.000000000000000D+00 -.429730238315999D+03
 0.242654542996188D+03 -.120411426830249D+03 -.166911034714125D+03 -.299670154678862D+02
 0.274067823105553D+03 0.124167294742150D+03 0.214208031100274D+03 0.741304434519079D+02
 0.147906076068380D+03 -.163795409874101D+02 -.267976724697078D+02 -.144533050632695D+03
 0.502989838291828D+02 0.126236730755090D+02 -.204993239164413D+02 -.441634279840217D+02
0.203110801434D-03 0.000000000000D+00 0.000000000000D+00 0.149279930457D-04 0.750989780659D-08  6 1 21 25 23 1 21 4 0.89776864D-01 0.32310971D-01 0.78436544D+05 0.78436544D+05 0.78436544D+05 0.11733876D+01  1  2  1  5  5  2       -1 0.139973934872D+00 0.100000000000D+01
  </mgrwgt>
  </event>
  <event>
  5     66 0.47055975E-03 0.52383133E+02 0.75467711E-02 0.11121933E+00
        1 -1    0    0  502    0 0.00000000E+00 0.00000000E+00 0.85307178E+03 0.85307184E+03 0.32000000E+00 0.0000E+00 0.9000E+01
       -1 -1    0    0    0  501 0.00000000E+00 0.00000000E+00 -.75964612E+02 0.75965286E+02 0.32000000E+00 0.0000E+00 0.9000E+01
       25  1    1    2    0    0 0.10760533E+03 0.13073884E+03 0.26589420E+03 0.33911101E+03 0.12500000E+03 0.0000E+00 0.9000E+01
       23  1    1    2    0    0 -.14763605E+03 -.16659679E+03 0.42377249E+03 0.48728767E+03 0.91188000E+02 0.0000E+00 0.9000E+01
       21  1    1    2  502  501 0.40030724E+02 0.35857956E+02 0.87440474E+02 0.10263845E+03 0.75000000E+00 0.0000E+00 0.9000E+01
#aMCatNLO 1  0  0  5  1 0.59843351D+01 0.00000000D+00  -5  6  0 0.00000000D+00 0.00000000D+00 0.00000000D+00 0.00000000D+00 0.00000000D+00
  <mgrwgt>
 0.7576415980D-01   25    2    0
 0.254565527303481D+03 0.000000000000000D+00 0.000000000000000D+00 0.254565527303481D+03
 0.254565527303481D+03 -.000000000000000D+00 -.000000000000000D+00 -.254565527303481D+03
 0.212946279009614D+03 0.107603702641193D+03 0.130737382352849D+03 -.324082979724517D+02
 0.242359680153593D+03 -.147637902205562D+03 -.166598451584514D+03 0.295121836219407D+02
 0.538250954437545D+02 0.400341995643690D+02 0.358610692316657D+02 0.289611435051097D+01
 0.000000000000000D+00 0.000000000000000D+00 0.000000000000000D+00 0.000000000000000D+00
 0.254565527303481D+03 0.000000000000000D+00 0.000000000000000D+00 0.254565527303481D+03
 0.254565527303481D+03 -.000000000000000D+00 -.000000000000000D+00 -.254565527303481D+03
 0.214742646791294D+03 0.109319246839686D+03 0.132274099708050D+03 -.322841937758833D+02
 0.240009226891698D+03 -.145703025873504D+03 -.164865265087627D+03 0.296521545261355D+02
 0.483162689312296D+02 0.389414340049214D+02 0.285790058925626D+02 -.112560351284407D+01
 0.606291199274039D+01 -.255765497110397D+01 0.401215948701478D+01 0.375764276259196D+01
0.282541502341D-03 0.000000000000D+00 0.000000000000D+00 0.354489113969D-05 0.000000000000D+00  6 1 -1 25 23 21 21 2 0.13124187D+00 0.11686920D-01 0.63697927D+05 0.63697927D+05 0.63697927D+05 0.11820059D+01  1  2  2  3  6  5       21 0.393440634750D-01 0.100000000000D+01
0.392439465897D-04 0.149101247111D-04 -.108503376387D-05 0.354489113969D-05 0.000000000000D+00  6 1 -1 25 23 21 21 4 0.13124187D+00 0.11686920D-01 0.63697927D+05 0.63697927D+05 0.63697927D+05 0.11820059D+01  1  2  3  3  6  5       21 0.763499812827D-02 0.100000000000D+01
-.630039059305D-06 0.000000000000D+00 0.000000000000D+00 0.354489113969D-05 0.000000000000D+00  6 1 -1 25 23 21 21 4 0.13124187D+00 0.11686920D-01 0.63697927D+05 0.63697927D+05 0.63697927D+05 0.11820059D+01  1  2 15  3  6  5       21 -.122575516903D-03 0.100000000000D+01
0.433811486199D-04 0.000000000000D+00 0.000000000000D+00 0.354612248360D-05 0.000000000000D+00  6 1 -1 25 23 21 21 4 0.13124187D+00 0.11686920D-01 0.63386541D+05 0.63386541D+05 0.63386541D+05 0.11822112D+01  1  2 12  3  6  5       21 0.844588151260D-02 0.100000000000D+01
0.440697498390D-04 0.000000000000D+00 0.000000000000D+00 0.354612248360D-05 0.000000000000D+00  6 1 -1 25 23 21 21 4 0.13124187D+00 0.11686920D-01 0.63386541D+05 0.63386541D+05 0.63386541D+05 0.11822112D+01  1  2 12  3  6  5       21 0.857994537423D-02 0.100000000000D+01
-.326093067830D-03 0.000000000000D+00 0.000000000000D+00 0.354489113969D-05 0.000000000000D+00  6 1 -1 25 23 21 21 4 0.13124187D+00 0.11686920D-01 0.63697927D+05 0.63697927D+05 0.63697927D+05 0.11820059D+01  1  2  4  3  6  5       21 -.634421402250D-01 0.100000000000D+01
-.773315973360D-03 0.000000000000D+00 0.000000000000D+00 0.354489113969D-05 0.000000000000D+00  6 1 -1 25 23 21 21 4 0.13124187D+00 0.11686920D-01 0.63697927D+05 0.63697927D+05 0.63697927D+05 0.11820059D+01  1  2  5  3  6  5       21 -.150450362979D+00 0.100000000000D+01
0.944639294202D-03 0.000000000000D+00 -.000000000000D+00 0.354489113969D-05 0.000000000000D+00  6 1 -1 25 23 21 21 4 0.13124187D+00 0.11686920D-01 0.63697927D+05 0.63697927D+05 0.63697927D+05 0.11820059D+01  1  2  6  3  6  5       21 0.183781700615D+00 0.100000000000D+01
0.212790105742D-03 0.000000000000D+00 0.000000000000D+00 0.354489113969D-05 0.714940959002D-06  6 1 -1 25 23 21 21 4 0.13124187D+00 0.11686920D-01 0.63386541D+05 0.63386541D+05 0.63386541D+05 0.11822112D+01  1  2 11  3  6  5       21 0.414281335864D-01 0.100000000000D+01
0.292820069110D-05 0.000000000000D+00 0.000000000000D+00 0.354612248360D-05 0.000000000000D+00  6 1 -1 25 23 1 -1 4 0.13124187D+00 0.11686920D-01 0.63386541D+05 0.63386541D+05 0.63386541D+05 0.11822112D+01  1  2 12  6  6  5       21 0.570091776474D-03 0.100000000000D+01
0.294067412279D-05 0.000000000000D+00 0.000000000000D+00 0.354612248360D-05 0.000000000000D+00  6 1 -1 25 23 1 -1 4 0.13124187D+00 0.11686920D-01 0.63386541D+05 0.63386541D+05 0.63386541D+05 0.11822112D+01  1  2 12  6  6  5       21 0.572520230525D-03 0.100000000000D+01
-.684434573896D-05 0.000000000000D+00 0.000000000000D+00 0.354489113969D-05 0.000000000000D+00  6 1 -1 25 23 1 -1 4 0.13124187D+00 0.11686920D-01 0.63697927D+05 0.63697927D+05 0.63697927D+05 0.11820059D+01  1  2  5  6  6  5       21 -.133158286684D-02 0.100000000000D+01
0.169372721487D-05 0.000000000000D+00 0.000000000000D+00 0.354489113969D-05 0.848586300378D-08  6 1 -1 25 23 1 -1 4 0.13124187D+00 0.11686920D-01 0.63386541D+05 0.63386541D+05 0.63386541D+05 0.11822112D+01  1  2 11  6  6  5       21 0.329751973532D-03 0.100000000000D+01
0.292820069110D-05 0.000000000000D+00 0.000000000000D+00 0.354612248360D-05 0.000000000000D+00  6 1 -1 25 23 2 -2 4 0.13124187D+00 0.11686920D-01 0.63386541D+05 0.63386541D+05 0.63386541D+05 0.11822112D+01  1  2 12  7  6  5       21 0.570091776474D-03 0.100000000000D+01
0.292820069110D-05 0.000000000000D+00 0.000000000000D+00 0.354612248360D-05 0.000000000000D+00  6 1 -1 25 23 4 -4 4 0.13124187D+00 0.11686920D-01 0.63386541D+05 0.63386541D+05 0.63386541D+05 0.11822112D+01  1  2 12  7  6  5       21 0.570091776474D-03 0.100000000000D+01
0.294067412279D-05 0.000000000000D+00 0.000000000000D+00 0.354612248360D-05 0.000000000000D+00  6 1 -1 25 23 2 -2 4 0.13124187D+00 0.11686920D-01 0.63386541D+05 0.63386541D+05 0.63386541D+05 0.11822112D+01  1  2 12  7  6  5       21 0.572520230525D-03 0.100000000000D+01
0.294067412279D-05 0.000000000000D+00 0.000000000000D+00 0.354612248360D-05 0.000000000000D+00  6 1 -1 25 23 4 -4 4 0.13124187D+00 0.11686920D-01 0.63386541D+05 0.63386541D+05 0.63386541D+05 0.11822112D+01  1  2 12  7  6  5       21 0.572520230525D-03 0.100000000000D+01
-.684434573896D-05 0.000000000000D+00 0.000000000000D+00 0.354489113969D-05 0.000000000000D+00  6 1 -1 25 23 2 -2 4 0.13124187D+00 0.11686920D-01 0.63697927D+05 0.63697927D+05 0.63697927D+05 0.11820059D+01  1  2  5  7  6  5       21 -.133158286684D-02 0.100000000000D+01
-.684434573896D-05 0.000000000000D+00 0.000000000000D+00 0.354489113969D-05 0.000000000000D+00  6 1 -1 25 23 4 -4 4 0.13124187D+00 0.11686920D-01 0.63697927D+05 0.63697927D+05 0.63697927D+05 0.11820059D+01  1  2  5  7  6  5       21 -.133158286684D-02 0.100000000000D+01
0.169566703541D-05 0.000000000000D+00 0.000000000000D+00 0.354489113969D-05 0.815893268316D-08  6 1 -1 25 23 2 -2 4 0.13124187D+00 0.11686920D-01 0.63386541D+05 0.63386541D+05 0.63386541D+05 0.11822112D+01  1  2 11  7  6  5       21 0.330129637448D-03 0.100000000000D+01
0.169566703541D-05 0.000000000000D+00 0.000000000000D+00 0.354489113969D-05 0.815893268316D-08  6 1 -1 25 23 4 -4 4 0.13124187D+00 0.11686920D-01 0.63386541D+05 0.63386541D+05 0.63386541D+05 0.11822112D+01  1  2 11  7  6  5       21 0.330129637448D-03 0.100000000000D+01
0.292820069110D-05 0.000000000000D+00 0.000000000000D+00 0.354612248360D-05 0.000000000000D+00  6 1 -1 25 23 3 -3 4 0.13124187D+00 0.11686920D-01 0.63386541D+05 0.63386541D+05 0.63386541D+05 0.11822112D+01  1  2 12  8  6  5       21 0.570091776474D-03 0.100000000000D+01
0.294067412279D-05 0.000000000000D+00 0.000000000000D+00 0.354612248360D-05 0.000000000000D+00  6 1 -1 25 23 3 -3 4 0.13124187D+00 0.11686920D-01 0.63386541D+05 0.63386541D+05 0.63386541D+05 0.11822112D+01  1  2 12  8  6  5       21 0.572520230525D-03 0.100000000000D+01
-.684434573896D-05 0.000000000000D+00 0.000000000000D+00 0.354489113969D-05 0.000000000000D+00  6 1 -1 25 23 3 -3 4 0.13124187D+00 0.11686920D-01 0.63697927D+05 0.63697927D+05 0.63697927D+05 0.11820059D+01  1  2  5  8  6  5       21 -.133158286684D-02 0.100000000000D+01
0.169699418581D-05 0.000000000000D+00 0.000000000000D+00 0.354489113969D-05 0.816531844786D-08  6 1 -1 25 23 3 -3 4 0.13124187D+00 0.11686920D-01 0.63386541D+05 0.63386541D+05 0.63386541D+05 0.11822112D+01  1  2 11  8  6  5       21 0.330388020531D-03 0.100000000000D+01
  </mgrwgt>
  </event>
  <event>
  5     66 0.47055975E-03 0.21844684E+02 0.75467711E-02 0.11612735E+00
        1 -1    0    0  502    0 0.00000000E+00 0.00000000E+00 0.70016167E+02 0.70016899E+02 0.32000000E+00 0.0000E+00 0.9000E+01
       -1 -1    0    0    0  501 0.00000000E+00 0.00000000E+00 -.26922635E+03 0.26922654E+03 0.32000000E+00 0.0000E+00 0.9000E+01
       25  1    1    2    0    0 -.56471958E+02 0.37607817E+01 -.13939783E+03 0.19560158E+03 0.12500000E+03 0.0000E+00 0.9000E+01
       23  1    1    2    0    0 0.49274057E+02 0.16856706E+02 -.61553868E+02 0.12172186E+03 0.91188000E+02 0.0000E+00 0.9000E+01
       21  1    1    2  502  501 0.71979003E+01 -.20617488E+02 0.17415172E+01 0.21919990E+02 0.75000000E+00 0.0000E+00 0.9000E+01
#aMCatNLO 1  0  0  1  1 0.94589658D+02 0.00000000D+00  -5  6  0 0.00000000D+00 0.00000000D+00 0.00000000D+00 0.00000000D+00 0.00000000D+00
  <mgrwgt>
 0.1303230854D+00    4    2    0
 0.137296588481810D+03 0.000000000000000D+00 0.000000000000000D+00 0.137296588481810D+03
 0.137296588481810D+03 0.000000000000000D+00 0.000000000000000D+00 -.137296588481810D+03
 0.140525882256204D+03 -.564732477975726D+02 0.376447745692200D+01 -.303170674135034D+02
 0.105724057873851D+03 0.492730865514512D+02 0.168594868608100D+02 0.122574758330082D+02
 0.283432368335644D+02 0.720016124612145D+01 -.206239643177320D+02 0.180595915804952D+02
 0.000000000000000D+00 0.000000000000000D+00 -.000000000000000D+00 -.000000000000000D+00
 0.185454003771374D+03 0.000000000000000D+00 0.000000000000000D+00 0.185454003771374D+03
 0.200800892794088D+03 0.000000000000000D+00 0.000000000000000D+00 -.200800892794088D+03
 0.167285628852810D+03 -.104676914604817D+03 0.219795494253421D+02 -.303170674135034D+02
 0.979963795656808D+02 0.173702117928675D+02 0.289148593711801D+02 0.122574758330082D+02
 0.251463239445008D+02 -.117637072996357D+01 -.174586629434550D+02 0.180595915804952D+02
 0.958265642024695D+02 0.884830735419131D+02 -.334357458530672D+02 -.153468890227141D+02
0.219987345577D-03 0.000000000000D+00 0.000000000000D+00 0.359927744537D-04 0.000000000000D+00  6 1 -1 25 23 21 21 2 0.10771789D-01 0.41419509D-01 0.17433558D+05 0.17433558D+05 0.17433558D+05 0.12404469D+01  1  2  2  1  6  1        1 0.109503643113D+00 0.100000000000D+01
0.389122644347D-04 0.116090511668D-04 -.844809331015D-06 0.359927744537D-04 0.000000000000D+00  6 1 -1 25 23 21 21 4 0.10771789D-01 0.41419509D-01 0.17433558D+05 0.17433558D+05 0.17433558D+05 0.12404469D+01  1  2  3  1  6  1        1 0.298039418382D-01 0.100000000000D+01
0.333229738279D-05 0.000000000000D+00 0.000000000000D+00 0.359927744537D-04 0.000000000000D+00  6 1 -1 25 23 21 21 4 0.10771789D-01 0.41419509D-01 0.17433558D+05 0.17433558D+05 0.17433558D+05 0.12404469D+01  1  2 15  1  6  1        1 0.255229549931D-02 0.100000000000D+01
-.150625317130D-04 0.000000000000D+00 0.000000000000D+00 0.359927744537D-04 0.000000000000D+00  6 1 -1 25 23 21 21 4 0.10771789D-01 0.41419509D-01 0.17433558D+05 0.17433558D+05 0.17433558D+05 0.12404469D+01  1  2  4  1  6  1        1 -.115367950345D-01 0.100000000000D+01
  </mgrwgt>
  </event>
  <event>
  5     66 0.47055975E-03 0.44704893E+02 0.75467711E-02 0.10693907E+00
        1 -1    0    0  502    0 0.00000000E+00 0.00000000E+00 0.30081974E+03 0.30081991E+03 0.32000000E+00 0.0000E+00 0.9000E+01
       -1 -1    0    0    0  501 0.00000000E+00 0.00000000E+00 -.25982718E+03 0.25982737E+03 0.32000000E+00 0.0000E+00 0.9000E+01
       25  1    1    2    0    0 -.95771703E+02 -.22323490E+03 -.36265027E+02 0.27558336E+03 0.12500000E+03 0.0000E+00 0.9000E+01
       23  1    1    2    0    0 0.10759383E+03 0.18012665E+03 0.55827404E+02 0.23548671E+03 0.91188000E+02 0.0000E+00 0.9000E+01
       21  1    1    2  502  501 -.11822129E+02 0.43108252E+02 0.21430185E+02 0.49577207E+02 0.75000000E+00 0.0000E+00 0.9000E+01
#aMCatNLO 1  0  0  1  2 0.12657134D+02 0.00000000D+00  -5  6  0 0.00000000D+00 0.00000000D+00 0.00000000D+00 0.00000000D+00 0.00000000D+00
  <mgrwgt>
 0.1853903909D+00    7    4    0
 0.279573329861282D+03 0.000000000000000D+00 0.000000000000000D+00 0.279573329861282D+03
 0.279573329861282D+03 0.000000000000000D+00 0.000000000000000D+00 -.279573329861282D+03
 0.278983719228086D+03 -.957709872833824D+02 -.223237508681057D+03 -.565672016894665D+02
 0.232024287200925D+03 0.107594427657080D+03 0.180124474098573D+03 0.387121618481199D+02
 0.481386532935534D+02 -.118234403736977D+02 0.431130345824842D+02 0.178550398413467D+02
 0.000000000000000D+00 0.000000000000000D+00 -.000000000000000D+00 0.000000000000000D+00
 0.348923248641045D+03 0.000000000000000D+00 0.000000000000000D+00 0.348923248641045D+03
 0.332284774891237D+03 0.000000000000000D+00 0.000000000000000D+00 -.332284774891237D+03
 0.299129706448133D+03 -.151904010403905D+03 -.218125891622201D+03 -.565672016894665D+02
 0.218599018040480D+03 0.638403003728458D+02 0.184108837152408D+03 0.387121618481199D+02
 0.521504407397909D+02 -.215612007924686D+02 0.439997800222367D+02 0.178550398413467D+02
 0.111328858303878D+03 0.109624910823528D+03 -.998272555244397D+01 0.166384737498078D+02
 0.279573329861282D+03 0.000000000000000D+00 0.000000000000000D+00 0.279573329861282D+03
 0.279573329861282D+03 0.000000000000000D+00 0.000000000000000D+00 -.279573329861282D+03
 0.278983719228086D+03 -.957709872833824D+02 -.223237508681057D+03 -.565672016894665D+02
 0.232024287200925D+03 0.107594427657080D+03 0.180124474098573D+03 0.387121618481199D+02
 0.000000000000000D+00 0.000000000000000D+00 -.000000000000000D+00 0.000000000000000D+00
 0.481386532935534D+02 -.118234403736977D+02 0.431130345824842D+02 0.178550398413467D+02
 0.348923248641045D+03 0.000000000000000D+00 0.000000000000000D+00 0.348923248641045D+03
 0.332284774891237D+03 0.000000000000000D+00 0.000000000000000D+00 -.332284774891237D+03
 0.299129706448133D+03 -.151904010403905D+03 -.218125891622201D+03 -.565672016894665D+02
 0.218599018040480D+03 0.638403003728458D+02 0.184108837152408D+03 0.387121618481199D+02
 0.111328858303878D+03 0.109624910823528D+03 -.998272555244397D+01 0.166384737498078D+02
 0.521504407397909D+02 -.215612007924686D+02 0.439997800222367D+02 0.178550398413467D+02
0.108468511584D-02 0.000000000000D+00 0.000000000000D+00 0.482009119734D-05 0.000000000000D+00  6 1 -1 25 23 21 21 2 0.46279988D-01 0.39973440D-01 0.74710825D+05 0.74710825D+05 0.74710825D+05 0.11753853D+01  1  2  2  1  6  1        1 0.812276964659D-01 0.100000000000D+01
0.224631833294D-03 0.572404061542D-04 -.416547644897D-05 0.482009119734D-05 0.000000000000D+00  6 1 -1 25 23 21 21 4 0.46279988D-01 0.39973440D-01 0.74710825D+05 0.74710825D+05 0.74710825D+05 0.11753853D+01  1  2  3  1  6  1        1 0.232397941498D-01 0.100000000000D+01
-.424650843056D-05 0.000000000000D+00 0.000000000000D+00 0.482009119734D-05 0.000000000000D+00  6 1 -1 25 23 21 21 4 0.46279988D-01 0.39973440D-01 0.74710825D+05 0.74710825D+05 0.74710825D+05 0.11753853D+01  1  2 15  1  6  1        1 -.439332129976D-03 0.100000000000D+01
-.132082606079D-03 0.000000000000D+00 0.000000000000D+00 0.482009119734D-05 0.000000000000D+00  6 1 -1 25 23 21 21 4 0.46279988D-01 0.39973440D-01 0.74710825D+05 0.74710825D+05 0.74710825D+05 0.11753853D+01  1  2  4  1  6  1        1 -.136649046176D-01 0.100000000000D+01
-.215061945406D-02 0.000000000000D+00 -.935984391296D-03 0.482009119734D-05 0.000000000000D+00  6 1 -1 25 23 21 21 4 0.67231806D-01 0.39973440D-01 0.74710825D+05 0.74710825D+05 0.74710825D+05 0.11753853D+01  1  2  5  1  6  1        1 -.137952686527D+00 0.100000000000D+01
0.239301826928D-02 0.000000000000D+00 0.874309208285D-03 0.482009119734D-05 0.000000000000D+00  6 1 -1 25 23 21 21 4 0.46279988D-01 0.39973440D-01 0.74710825D+05 0.74710825D+05 0.74710825D+05 0.11753853D+01  1  2  6  1  6  1        1 0.247575115064D+00 0.100000000000D+01
-.683146671276D-04 0.000000000000D+00 -.423742742282D-04 0.482009119734D-05 0.000000000000D+00  6 21 -1 25 23 -1 21 4 0.67231806D-01 0.39973440D-01 0.74710825D+05 0.74710825D+05 0.74710825D+05 0.11753853D+01  3  4  5  4  5  1        1 -.145952915162D-01 0.100000000000D+01
  </mgrwgt>
  </event>
  <event>
  5     66 -.47055975E-03 0.31981730E+02 0.75467711E-02 0.12042844E+00
        3 -1    0    0  502    0 0.00000000E+00 0.00000000E+00 0.23006212E+03 0.23006266E+03 0.50000000E+00 0.0000E+00 0.9000E+01
       -3 -1    0    0    0  501 0.00000000E+00 0.00000000E+00 -.13101820E+03 0.13101916E+03 0.50000000E+00 0.0000E+00 0.9000E+01
       25  1    1    2    0    0 -.56207703E+02 -.49956405E+02 0.12470693E+03 0.19191604E+03 0.12500000E+03 0.0000E+00 0.9000E+01
       23  1    1    2    0    0 0.51252522E+02 0.18366165E+02 -.60210782E+02 0.12208492E+03 0.91188000E+02 0.0000E+00 0.9000E+01
       21  1    1    2  502  501 0.49551817E+01 0.31590241E+02 0.34547769E+02 0.47080867E+02 0.75000000E+00 0.0000E+00 0.9000E+01
#aMCatNLO 1  0  0  1  2 0.95954314D+01 0.00000000D+00  -5  6  0 0.00000000D+00 0.00000000D+00 0.00000000D+00 0.00000000D+00 0.00000000D+00
  <mgrwgt>
 -.3078444718D-01    9    4    0
 0.173616232994689D+03 0.000000000000000D+00 0.000000000000000D+00 0.173616232994689D+03
 0.173616232994689D+03 0.000000000000000D+00 0.000000000000000D+00 -.173616232994689D+03
 0.163999533678151D+03 -.562081340609278D+02 -.499591504956635D+02 0.749371469552406D+02
 0.144129395536844D+03 0.512521434092073D+02 0.183637524170025D+02 -.974372706254907D+02
 0.391035367743832D+02 0.495599065172050D+01 0.315953980786609D+02 0.225001236702501D+02
 0.000000000000000D+00 -.000000000000000D+00 0.000000000000000D+00 0.000000000000000D+00
 0.191028518526231D+03 0.000000000000000D+00 0.000000000000000D+00 0.191028518526231D+03
 0.175009506022293D+03 0.000000000000000D+00 0.000000000000000D+00 -.175009506022293D+03
 0.164134239479162D+03 -.533160805761293D+02 -.534496784612525D+02 0.749371469552406D+02
 0.144697261014214D+03 0.537977580545512D+02 0.152913544977072D+02 -.974372706254907D+02
 0.385335204009734D+02 0.564025585122451D+01 0.307695327109205D+02 0.225001236702501D+02
 0.186730036541742D+02 -.612193332964642D+01 0.738879125262468D+01 0.160190125039375D+02
 0.173616232994689D+03 0.000000000000000D+00 0.000000000000000D+00 0.173616232994689D+03
 0.173616232994689D+03 0.000000000000000D+00 0.000000000000000D+00 -.173616232994689D+03
 0.163999533678151D+03 -.562081340609278D+02 -.499591504956635D+02 0.749371469552406D+02
 0.144129395536844D+03 0.512521434092073D+02 0.183637524170025D+02 -.974372706254907D+02
 0.000000000000000D+00 -.000000000000000D+00 0.000000000000000D+00 0.000000000000000D+00
 0.391035367743832D+02 0.495599065172050D+01 0.315953980786609D+02 0.225001236702501D+02
 0.191028518526231D+03 0.000000000000000D+00 0.000000000000000D+00 0.191028518526231D+03
 0.175009506022293D+03 0.000000000000000D+00 0.000000000000000D+00 -.175009506022293D+03
 0.164134239479162D+03 -.533160805761293D+02 -.534496784612525D+02 0.749371469552406D+02
 0.144697261014214D+03 0.537977580545512D+02 0.152913544977072D+02 -.974372706254907D+02
 0.186730036541742D+02 -.612193332964642D+01 0.738879125262468D+01 0.160190125039375D+02
 0.385335204009734D+02 0.564025585122451D+01 0.307695327109205D+02 0.225001236702501D+02
0.375532542804D-04 0.000000000000D+00 0.000000000000D+00 0.101627003770D-04 0.000000000000D+00  6 3 -3 25 23 21 21 2 0.35394288D-01 0.20156762D-01 0.20172973D+05 0.20172973D+05 0.20172973D+05 0.12334145D+01  1  2  2  1  6  1        3 0.232379412782D-02 0.100000000000D+01
0.335256537152D-05 0.198173967360D-05 -.144214384436D-06 0.101627003770D-04 0.000000000000D+00  6 3 -3 25 23 21 21 4 0.35394288D-01 0.20156762D-01 0.20172973D+05 0.20172973D+05 0.20172973D+05 0.12334145D+01  1  2  3  1  6  1        3 0.315606140750D-03 0.100000000000D+01
0.640897412778D-06 0.000000000000D+00 0.000000000000D+00 0.101627003770D-04 0.000000000000D+00  6 3 -3 25 23 21 21 4 0.35394288D-01 0.20156762D-01 0.20172973D+05 0.20172973D+05 0.20172973D+05 0.12334145D+01  1  2 15  1  6  1        3 0.603332483184D-04 0.100000000000D+01
-.268898345124D-03 0.000000000000D+00 0.000000000000D+00 0.101627003770D-04 0.000000000000D+00  6 3 -3 25 23 21 21 4 0.35394288D-01 0.20156762D-01 0.20172973D+05 0.20172973D+05 0.20172973D+05 0.12334145D+01  1  2  4  1  6  1        3 -.253137402419D-01 0.100000000000D+01
-.994380101447D-03 0.000000000000D+00 -.997327078565D-04 0.101627003770D-04 0.000000000000D+00  6 3 -3 25 23 21 21 4 0.39159600D-01 0.20156762D-01 0.20172973D+05 0.20172973D+05 0.20172973D+05 0.12334145D+01  1  2  5  1  6  1        3 -.771958638125D-01 0.100000000000D+01
0.999856345145D-03 0.000000000000D+00 0.992252235618D-04 0.101627003770D-04 0.000000000000D+00  6 3 -3 25 23 21 21 4 0.35394288D-01 0.20156762D-01 0.20172973D+05 0.20172973D+05 0.20172973D+05 0.12334145D+01  1  2  6  1  6  1        3 0.941251750305D-01 0.100000000000D+01
0.785815223541D-09 0.000000000000D+00 0.000000000000D+00 0.101627003770D-04 0.819435778651D-06  6 3 -3 25 23 21 21 4 0.38944045D-01 0.20318520D-01 0.21591349D+05 0.21591349D+05 0.21591349D+05 0.12301822D+01  1  2 11  1  6  1        3 0.604217900547D-07 0.100000000000D+01
-.159678922030D-04 0.000000000000D+00 -.163519055965D-05 0.101627003770D-04 0.000000000000D+00  6 21 -3 25 23 -3 21 4 0.39159600D-01 0.20156762D-01 0.20172973D+05 0.20172973D+05 0.20172973D+05 0.12334145D+01  3  4  5  4  5  1        3 -.250998253787D-01 0.100000000000D+01
0.855755509540D-11 0.000000000000D+00 0.000000000000D+00 0.101627003770D-04 0.177803446215D-07  6 21 -3 25 23 -3 21 4 0.38944045D-01 0.20318520D-01 0.21591349D+05 0.21591349D+05 0.21591349D+05 0.12301822D+01  3  4 11  4  5  1        3 0.132878450541D-07 0.100000000000D+01
  </mgrwgt>
  </event>
  <event>
  5     66 0.47055975E-03 0.35955271E+02 0.75467711E-02 0.12020301E+00
        1 -1    0    0  502    0 0.00000000E+00 0.00000000E+00 0.57497309E+03 0.57497317E+03 0.32000000E+00 0.0000E+00 0.9000E+01
       -1 -1    0    0    0  501 0.00000000E+00 0.00000000E+00 -.41329061E+02 0.41330300E+02 0.32000000E+00 0.0000E+00 0.9000E+01
       25  1    1    2    0    0 0.30842751E+02 -.22738490E+02 0.13833735E+03 0.19034320E+03 0.12500000E+03 0.0000E+00 0.9000E+01
       23  1    1    2    0    0 -.54374892E+02 0.49918525E+02 0.24832123E+03 0.27464008E+03 0.91188000E+02 0.0000E+00 0.9000E+01
       21  1    1    2  502  501 0.23532140E+02 -.27180035E+02 0.14698545E+03 0.15132019E+03 0.75000000E+00 0.0000E+00 0.9000E+01
#aMCatNLO 1  0  0  2  5 0.12675525D+02 0.00000000D+00  -5  6  0 0.00000000D+00 0.00000000D+00 0.00000000D+00 0.00000000D+00 0.00000000D+00
  <mgrwgt>
 0.8667335799D-01    9    4    0
 0.154154166570039D+03 0.000000000000000D+00 0.000000000000000D+00 0.154154166570039D+03
 0.154154166570039D+03 0.000000000000000D+00 0.000000000000000D+00 -.154154166570039D+03
 0.141048157618940D+03 0.308414410277504D+02 -.227369762976034D+02 -.529284251784550D+02
 0.119188258498800D+03 -.543759991488371D+02 0.499198037784808D+02 0.210203122541116D+02
 0.480719170223385D+02 0.235345581210866D+02 -.271828274808774D+02 0.319081129243434D+02
 0.000000000000000D+00 -.000000000000000D+00 0.000000000000000D+00 -.000000000000000D+00
 0.157732201278313D+03 0.000000000000000D+00 0.000000000000000D+00 0.157732201278313D+03
 0.165934475119097D+03 0.000000000000000D+00 0.000000000000000D+00 -.165934475119097D+03
 0.142703967921902D+03 0.361811076172670D+02 -.250785111274880D+02 -.529284251784550D+02
 0.116417351740960D+03 -.499423569235955D+02 0.479755760781911D+02 0.210203122541116D+02
 0.494474687908857D+02 0.253696844845087D+02 -.279875616763848D+02 0.319081129243434D+02
 0.150978879436626D+02 -.116084351781802D+02 0.509049672568162D+01 -.820227384078364D+01
 0.154154166570039D+03 0.000000000000000D+00 0.000000000000000D+00 0.154154166570039D+03
 0.154154166570039D+03 0.000000000000000D+00 0.000000000000000D+00 -.154154166570039D+03
 0.141048157618940D+03 0.308414410277504D+02 -.227369762976034D+02 -.529284251784550D+02
 0.119188258498800D+03 -.543759991488371D+02 0.499198037784808D+02 0.210203122541116D+02
 0.000000000000000D+00 -.000000000000000D+00 0.000000000000000D+00 -.000000000000000D+00
 0.480719170223385D+02 0.235345581210866D+02 -.271828274808774D+02 0.319081129243434D+02
 0.157732201278313D+03 0.000000000000000D+00 0.000000000000000D+00 0.157732201278313D+03
 0.165934475119097D+03 0.000000000000000D+00 0.000000000000000D+00 -.165934475119097D+03
 0.142703967921902D+03 0.361811076172670D+02 -.250785111274880D+02 -.529284251784550D+02
 0.116417351740960D+03 -.499423569235955D+02 0.479755760781911D+02 0.210203122541116D+02
 0.150978879436626D+02 -.116084351781802D+02 0.509049672568162D+01 -.820227384078364D+01
 0.494474687908857D+02 0.253696844845087D+02 -.279875616763848D+02 0.319081129243434D+02
0.454982146257D-04 0.000000000000D+00 0.000000000000D+00 0.124251581150D-04 0.000000000000D+00  6 1 -1 25 23 21 21 2 0.88457500D-01 0.63584193D-02 0.20166289D+05 0.20166289D+05 0.20166289D+05 0.12334304D+01  1  2  2  2  6  2       -1 0.306739466614D-01 0.100000000000D+01
0.288908104517D-05 0.240100674973D-05 -.174725124118D-06 0.124251581150D-04 0.000000000000D+00  6 1 -1 25 23 21 21 4 0.88457500D-01 0.63584193D-02 0.20166289D+05 0.20166289D+05 0.20166289D+05 0.12334304D+01  1  2  3  2  6  2       -1 0.296322269797D-02 0.100000000000D+01
0.132851214521D-05 0.000000000000D+00 0.000000000000D+00 0.124251581150D-04 0.000000000000D+00  6 1 -1 25 23 21 21 4 0.88457500D-01 0.63584193D-02 0.20166289D+05 0.20166289D+05 0.20166289D+05 0.12334304D+01  1  2 15  2  6  2       -1 0.136260536885D-02 0.100000000000D+01
0.195760992633D-03 0.000000000000D+00 0.000000000000D+00 0.123366679170D-04 0.000000000000D+00  6 1 -1 25 23 21 21 4 0.88457500D-01 0.71218566D-02 0.22123525D+05 0.22123525D+05 0.22123525D+05 0.12290303D+01  1  2 12  2  6  2       -1 0.167323372156D+00 0.100000000000D+01
-.113660679361D-03 0.000000000000D+00 0.000000000000D+00 0.124251581150D-04 0.000000000000D+00  6 1 -1 25 23 21 21 4 0.88457500D-01 0.63584193D-02 0.20166289D+05 0.20166289D+05 0.20166289D+05 0.12334304D+01  1  2  4  2  6  2       -1 -.116577520562D+00 0.100000000000D+01
-.698434751305D-03 0.000000000000D+00 -.117855291160D-03 0.124251581150D-04 0.000000000000D+00  6 1 -1 25 23 21 21 4 0.88457500D-01 0.70004065D-02 0.20166289D+05 0.20166289D+05 0.20166289D+05 0.12334304D+01  1  2  5  2  6  2       -1 -.620232120564D+00 0.100000000000D+01
0.707040813553D-03 0.000000000000D+00 0.117312174162D-03 0.124251581150D-04 0.000000000000D+00  6 1 -1 25 23 21 21 4 0.88457500D-01 0.63584193D-02 0.20166289D+05 0.20166289D+05 0.20166289D+05 0.12334304D+01  1  2  6  2  6  2       -1 0.725185397832D+00 0.100000000000D+01
0.356702228630D-05 0.000000000000D+00 0.000000000000D+00 0.123366679170D-04 0.000000000000D+00  6 1 21 25 23 1 21 4 0.88457500D-01 0.71218566D-02 0.22123525D+05 0.22123525D+05 0.22123525D+05 0.12290303D+01  3  4 12  5  5  2       -1 0.494100439303D-01 0.100000000000D+01
-.106072436225D-04 0.000000000000D+00 -.185087994526D-05 0.124251581150D-04 0.000000000000D+00  6 1 21 25 23 1 21 4 0.88457500D-01 0.70004065D-02 0.20166289D+05 0.20166289D+05 0.20166289D+05 0.12334304D+01  3  4  5  5  5  2       -1 -.153435589532D+00 0.100000000000D+01
  </mgrwgt>
  </event>
  <event>
  5     66 0.47055975E-03 0.25064859E+02 0.75467711E-02 0.11669340E+00
        1 -1    0    0  502    0 0.00000000E+00 0.00000000E+00 0.10818054E+04 0.10818054E+04 0.32000000E+00 0.0000E+00 0.9000E+01
       -1 -1    0    0    0  501 0.00000000E+00 0.00000000E+00 -.31376064E+02 0.31377696E+02 0.32000000E+00 0.0000E+00 0.9000E+01
       25  1    1    2    0    0 -.59749455E+02 0.33222520E+02 0.17651725E+03 0.22684151E+03 0.12500000E+03 0.0000E+00 0.9000E+01
       23  1    1    2    0    0 0.43118614E+02 -.14471136E+02 0.43753293E+03 0.44924264E+03 0.91188000E+02 0.0000E+00 0.9000E+01
       21  1    1    2  502  501 0.16630841E+02 -.18751385E+02 0.43637912E+03 0.43709895E+03 0.75000000E+00 0.0000E+00 0.9000E+01
#aMCatNLO 1  0  0  2  5 0.83588169D+02 0.00000000D+00  -5  6  0 0.00000000D+00 0.00000000D+00 0.00000000D+00 0.00000000D+00 0.00000000D+00
  <mgrwgt>
 0.1103766308D+00    4    2    0
 0.184238239496524D+03 0.000000000000000D+00 0.000000000000000D+00 0.184238239496524D+03
 0.184238239496524D+03 0.000000000000000D+00 0.000000000000000D+00 -.184238239496524D+03
 0.182094996597085D+03 -.597498505164801D+02 0.332229658750777D+02 -.113400959816988D+03
 0.109889544183360D+03 0.431183756224626D+02 -.144708669446785D+02 0.411322290956402D+02
 0.764919382126022D+02 0.166314748940175D+02 -.187520989303991D+02 0.722687307213482D+02
 0.000000000000000D+00 0.000000000000000D+00 0.000000000000000D+00 0.000000000000000D+00
 0.254386129332137D+03 0.000000000000000D+00 0.000000000000000D+00 0.254386129332137D+03
 0.215600579539190D+03 0.000000000000000D+00 0.000000000000000D+00 -.215600579539190D+03
 0.200235679304591D+03 -.102570748267846D+03 0.329968358927179D+02 -.113400959816988D+03
 0.102917687949372D+03 0.192840424070698D+02 -.145967320627068D+02 0.411322290956402D+02
 0.746850870152929D+02 -.300297384972136D+00 -.188415127812950D+02 0.722687307213482D+02
 0.921482546020715D+02 0.835870032457485D+02 0.441408951283918D+00 0.387855497929468D+02
0.261865340689D-03 0.000000000000D+00 0.000000000000D+00 0.212367271360D-04 0.000000000000D+00  6 1 -1 25 23 21 21 2 0.16643172D+00 0.48272159D-02 0.18149470D+05 0.18149470D+05 0.18149470D+05 0.12384953D+01  1  2  2  2  6  2       -1 0.102508456857D+00 0.100000000000D+01
0.283637189338D-04 0.138190136841D-04 -.100563185897D-05 0.212367271360D-04 0.000000000000D+00  6 1 -1 25 23 21 21 4 0.16643172D+00 0.48272159D-02 0.18149470D+05 0.18149470D+05 0.18149470D+05 0.12384953D+01  1  2  3  2  6  2       -1 0.170307433389D-01 0.100000000000D+01
0.817441260675D-05 0.000000000000D+00 0.000000000000D+00 0.212367271360D-04 0.000000000000D+00  6 1 -1 25 23 21 21 4 0.16643172D+00 0.48272159D-02 0.18149470D+05 0.18149470D+05 0.18149470D+05 0.12384953D+01  1  2 15  2  6  2       -1 0.490825351136D-02 0.100000000000D+01
-.234341424092D-04 0.000000000000D+00 0.000000000000D+00 0.212367271360D-04 0.000000000000D+00  6 1 -1 25 23 21 21 4 0.16643172D+00 0.48272159D-02 0.18149470D+05 0.18149470D+05 0.18149470D+05 0.12384953D+01  1  2  4  2  6  2       -1 -.140708228590D-01 0.100000000000D+01
  </mgrwgt>
  </event>
  <event>
  5     66 0.47055975E-03 0.21231054E+02 0.75467711E-02 0.11088400E+00
        1 -1    0    0  502    0 0.00000000E+00 0.00000000E+00 0.20288521E+04 0.20288521E+04 0.32000000E+00 0.0000E+00 0.9000E+01
       -1 -1    0    0    0  501 0.00000000E+00 0.00000000E+00 -.96829319E+01 0.96882181E+01 0.32000000E+00 0.0000E+00 0.9000E+01
       25  1    1    2    0    0 -.28100279E+02 0.31579271E+02 0.10033868E+04 0.10120262E+04 0.12500000E+03 0.0000E+00 0.9000E+01
       23  1    1    2    0    0 0.15249866E+02 -.48475007E+02 0.52531203E+03 0.53558413E+03 0.91188000E+02 0.0000E+00 0.9000E+01
       21  1    1    2  502  501 0.12850413E+02 0.16895736E+02 0.49047028E+03 0.49093000E+03 0.75000000E+00 0.0000E+00 0.9000E+01
#aMCatNLO 1  0  0  2  2 0.42914805D+02 0.00000000D+00  -5  6  0 0.00000000D+00 0.00000000D+00 0.00000000D+00 0.00000000D+00 0.00000000D+00
  <mgrwgt>
 0.2850071209D+00    5    4    0
 0.140180776693381D+03 0.000000000000000D+00 0.000000000000000D+00 0.140180776693381D+03
 0.140180776693381D+03 0.000000000000000D+00 0.000000000000000D+00 -.140180776693381D+03
 0.132145023199361D+03 -.281015081080763D+02 0.315776547942772D+02 0.710380997105488D+01
 0.110986582074868D+03 0.152488335817703D+02 -.484763649646487D+02 -.376866709974632D+02
 0.372299481125341D+02 0.128526745263061D+02 0.168987101703715D+02 0.305828610264083D+02
 0.000000000000000D+00 -.000000000000000D+00 -.000000000000000D+00 -.000000000000000D+00
 0.235105093446374D+03 0.000000000000000D+00 0.000000000000000D+00 0.235105093446374D+03
 0.307723762072794D+03 0.000000000000000D+00 0.000000000000000D+00 -.307723762072794D+03
 0.166054551590901D+03 0.253999085676555D+02 0.106082489755402D+03 0.710380997105488D+01
 0.113471710913063D+03 0.555199730289582D+02 0.760429204662934D+01 -.376866709974632D+02
 0.594316726049412D+02 0.301951997468554D+02 0.410495095257887D+02 0.305828610264083D+02
 0.203870920410263D+03 -.111115081343469D+03 -.154736291327820D+03 -.726186686264202D+02
 0.140180776693381D+03 0.000000000000000D+00 0.000000000000000D+00 0.140180776693381D+03
 0.140180776693381D+03 0.000000000000000D+00 0.000000000000000D+00 -.140180776693381D+03
 0.132145023199361D+03 -.281015081080763D+02 0.315776547942772D+02 0.710380997105488D+01
 0.110986582074868D+03 0.152488335817703D+02 -.484763649646487D+02 -.376866709974632D+02
 0.000000000000000D+00 -.000000000000000D+00 -.000000000000000D+00 -.000000000000000D+00
 0.372299481125341D+02 0.128526745263061D+02 0.168987101703715D+02 0.305828610264083D+02
 0.235105093446374D+03 0.000000000000000D+00 0.000000000000000D+00 0.235105093446374D+03
 0.307723762072794D+03 0.000000000000000D+00 0.000000000000000D+00 -.307723762072794D+03
 0.166054551590901D+03 0.253999085676555D+02 0.106082489755402D+03 0.710380997105488D+01
 0.113471710913063D+03 0.555199730289582D+02 0.760429204662934D+01 -.376866709974632D+02
 0.203870920410263D+03 -.111115081343469D+03 -.154736291327820D+03 -.726186686264202D+02
 0.594316726049412D+02 0.301951997468554D+02 0.410495095257887D+02 0.305828610264083D+02
0.295095123558D-03 0.000000000000D+00 0.000000000000D+00 0.394759667823D-04 0.000000000000D+00  6 1 -1 25 23 21 21 2 0.31213149D+00 0.14900904D-02 0.16586506D+05 0.16586506D+05 0.16586506D+05 0.12428753D+01  1  2  2  2  6  2       -1 0.154338803042D+00 0.100000000000D+01
0.442382543403D-04 0.155725975031D-04 -.113324297479D-05 0.394759667823D-04 0.000000000000D+00  6 1 -1 25 23 21 21 4 0.31213149D+00 0.14900904D-02 0.16586506D+05 0.16586506D+05 0.16586506D+05 0.12428753D+01  1  2  3  2  6  2       -1 0.357409608742D-01 0.100000000000D+01
0.133113381218D-04 0.000000000000D+00 0.000000000000D+00 0.394759667823D-04 0.000000000000D+00  6 1 -1 25 23 21 21 4 0.31213149D+00 0.14900904D-02 0.16586506D+05 0.16586506D+05 0.16586506D+05 0.12428753D+01  1  2 15  2  6  2       -1 0.107544934150D-01 0.100000000000D+01
0.240364188166D-03 0.000000000000D+00 -.212530960024D-03 0.394759667823D-04 0.000000000000D+00  6 1 -1 25 23 21 21 4 0.31213149D+00 0.66885999D-02 0.16586506D+05 0.16586506D+05 0.16586506D+05 0.12428753D+01  1  2  5  2  6  2       -1 0.217314656217D-01 0.100000000000D+01
0.418650270333D-04 0.000000000000D+00 -.385779928734D-04 0.394759667823D-04 0.000000000000D+00  6 1 21 25 23 1 21 4 0.31213149D+00 0.66885999D-02 0.16586506D+05 0.16586506D+05 0.16586506D+05 0.12428753D+01  3  4  5  5  5  2       -1 0.624413979638D-01 0.100000000000D+01
  </mgrwgt>
  </event>
  <event>
  5     66 -.47055975E-03 0.30206464E+02 0.75467711E-02 0.12171851E+00
        1 -1    0    0  502    0 0.00000000E+00 0.00000000E+00 0.20693284E+03 0.20693309E+03 0.32000000E+00 0.0000E+00 0.9000E+01
       -1 -1    0    0    0  501 0.00000000E+00 0.00000000E+00 -.77032919E+03 0.77032925E+03 0.32000000E+00 0.0000E+00 0.9000E+01
       25  1    1    2    0    0 0.47164868E+02 -.70675609E+01 -.52837145E+02 0.14384450E+03 0.12500000E+03 0.0000E+00 0.9000E+01
       23  1    1    2    0    0 -.17157850E+02 0.36025938E+01 -.66733110E+03 0.67376065E+03 0.91188000E+02 0.0000E+00 0.9000E+01
       21  1    1    2  502  501 -.30007018E+02 0.34649671E+01 0.15677190E+03 0.15965719E+03 0.75000000E+00 0.0000E+00 0.9000E+01
#aMCatNLO 1  0  0  1  2 0.25999712D+02 0.00000000D+00  -5  6  0 0.00000000D+00 0.00000000D+00 0.00000000D+00 0.00000000D+00 0.00000000D+00
  <mgrwgt>
 -.3301757735D+00    7    4    0
 0.399257509188683D+03 0.000000000000000D+00 0.000000000000000D+00 0.399257509188683D+03
 0.399257509188683D+03 0.000000000000000D+00 0.000000000000000D+00 -.399257509188683D+03
 0.138764484362097D+03 0.471648835206144D+02 -.706756266011618D+01 0.368253369408994D+02
 0.353743276634261D+03 -.171578104072982D+02 0.360258914730833D+01 -.341338080666963D+03
 0.306007257381009D+03 -.300070731133162D+02 0.346497351280785D+01 0.304512743726063D+03
 0.000000000000000D+00 -.000000000000000D+00 0.000000000000000D+00 0.000000000000000D+00
 0.523502698491298D+03 0.000000000000000D+00 0.000000000000000D+00 0.523502698491298D+03
 0.400831594994819D+03 0.000000000000000D+00 0.000000000000000D+00 -.400831594994819D+03
 0.140278891556306D+03 0.510815732839624D+02 -.936668811748718D+01 0.368253369408994D+02
 0.353389571304546D+03 -.723240014542208D+01 -.222369906716185D+01 -.341338080666963D+03
 0.305269719712283D+03 -.214271085437515D+02 -.157152826729869D+01 0.304512743726063D+03
 0.125396110912982D+03 -.224220645947888D+02 0.131619154519477D+02 0.122671103496479D+03
 0.399257509188683D+03 0.000000000000000D+00 0.000000000000000D+00 0.399257509188683D+03
 0.399257509188683D+03 0.000000000000000D+00 0.000000000000000D+00 -.399257509188683D+03
 0.138764484362097D+03 0.471648835206144D+02 -.706756266011618D+01 0.368253369408994D+02
 0.353743276634261D+03 -.171578104072982D+02 0.360258914730833D+01 -.341338080666963D+03
 0.000000000000000D+00 -.000000000000000D+00 0.000000000000000D+00 0.000000000000000D+00
 0.306007257381009D+03 -.300070731133162D+02 0.346497351280785D+01 0.304512743726063D+03
 0.523502698491298D+03 0.000000000000000D+00 0.000000000000000D+00 0.523502698491298D+03
 0.400831594994819D+03 0.000000000000000D+00 0.000000000000000D+00 -.400831594994819D+03
 0.140278891556306D+03 0.510815732839624D+02 -.936668811748718D+01 0.368253369408994D+02
 0.353389571304546D+03 -.723240014542208D+01 -.222369906716185D+01 -.341338080666963D+03
 0.125396110912982D+03 -.224220645947888D+02 0.131619154519477D+02 0.122671103496479D+03
 0.305269719712283D+03 -.214271085437515D+02 -.157152826729869D+01 0.304512743726063D+03
0.117200580358D-02 0.000000000000D+00 0.000000000000D+00 0.132656091717D-04 0.000000000000D+00  6 1 -1 25 23 21 21 2 0.31835846D-01 0.11851221D+00 0.16493424D+05 0.16493424D+05 0.16493424D+05 0.12431507D+01  1  2  2  1  6  1        1 0.179980280222D-01 0.100000000000D+01
0.236901364211D-03 0.618484454452D-04 -.450081088197D-05 0.132656091717D-04 0.000000000000D+00  6 1 -1 25 23 21 21 4 0.31835846D-01 0.11851221D+00 0.16493424D+05 0.16493424D+05 0.16493424D+05 0.12431507D+01  1  2  3  1  6  1        1 0.562225133514D-02 0.100000000000D+01
0.581851709036D-04 0.000000000000D+00 0.000000000000D+00 0.132656091717D-04 0.000000000000D+00  6 1 -1 25 23 21 21 4 0.31835846D-01 0.11851221D+00 0.16493424D+05 0.16493424D+05 0.16493424D+05 0.12431507D+01  1  2 15  1  6  1        1 0.138087704090D-02 0.100000000000D+01
-.207400224888D-01 0.000000000000D+00 0.000000000000D+00 0.132656091717D-04 0.000000000000D+00  6 1 -1 25 23 21 21 4 0.31835846D-01 0.11851221D+00 0.16493424D+05 0.16493424D+05 0.16493424D+05 0.12431507D+01  1  2  4  1  6  1        1 -.492211682768D+00 0.100000000000D+01
-.453791655066D-01 0.000000000000D+00 -.129858740256D-02 0.132656091717D-04 0.000000000000D+00  6 1 -1 25 23 21 21 4 0.41820960D-01 0.11851221D+00 0.16493424D+05 0.16493424D+05 0.16493424D+05 0.12431507D+01  1  2  5  1  6  1        1 -.768801435487D+00 0.100000000000D+01
0.441280270180D-01 0.000000000000D+00 0.125171979096D-02 0.132656091717D-04 0.000000000000D+00  6 1 -1 25 23 21 21 4 0.31835846D-01 0.11851221D+00 0.16493424D+05 0.16493424D+05 0.16493424D+05 0.12431507D+01  1  2  6  1  6  1        1 0.104726648428D+01 0.100000000000D+01
-.161221962791D-02 0.000000000000D+00 -.468532200792D-04 0.132656091717D-04 0.000000000000D+00  6 21 -1 25 23 -1 21 4 0.41820960D-01 0.11851221D+00 0.16493424D+05 0.16493424D+05 0.16493424D+05 0.12431507D+01  3  4  5  4  5  1        1 -.141430295920D+00 0.100000000000D+01
  </mgrwgt>
  </event>
  <event>
  5     66 0.47055975E-03 0.37086960E+02 0.75467711E-02 0.11921034E+00
        1 -1    0    0  502    0 0.00000000E+00 0.00000000E+00 0.60332870E+02 0.60333718E+02 0.32000000E+00 0.0000E+00 0.9000E+01
       -1 -1    0    0    0  501 -.00000000E+00 -.00000000E+00 -.40891443E+03 0.40891456E+03 0.32000000E+00 0.0000E+00 0.9000E+01
       25  1    1    2    0    0 0.39778461E+01 0.86804157E+02 -.17098775E+03 0.22893797E+03 0.12500000E+03 0.0000E+00 0.9000E+01
       23  1    1    2    0    0 -.39508298E+02 -.74333861E+02 -.13214583E+03 0.18128486E+03 0.91188000E+02 0.0000E+00 0.9000E+01
       21  1    1    2  502  501 0.35530452E+02 -.12470296E+02 -.45447986E+02 0.59025445E+02 0.75000000E+00 0.0000E+00 0.9000E+01
#aMCatNLO 1  0  0  5  1 0.87324196D+01 0.00000000D+00  -5  6  0 0.00000000D+00 0.00000000D+00 0.00000000D+00 0.00000000D+00 0.00000000D+00
  <mgrwgt>
 0.1459982561D+00   19    2    0
 0.157070715126488D+03 0.000000000000000D+00 0.000000000000000D+00 0.157070715126488D+03
 0.157070715126488D+03 -.000000000000000D+00 -.000000000000000D+00 -.157070715126488D+03
 0.152242756619940D+03 0.397444467957110D+01 0.868053508723819D+02 -.137542453446226D+01
 0.124160966858564D+03 -.395110717169225D+02 -.743328877222747D+02 0.376714240524156D+01
 0.377377067744716D+02 0.355366270373514D+02 -.124724631501071D+02 -.239171787077929D+01
 0.000000000000000D+00 0.000000000000000D+00 0.000000000000000D+00 0.000000000000000D+00
 0.157070715126488D+03 0.000000000000000D+00 0.000000000000000D+00 0.157070715126488D+03
 0.157070715126488D+03 -.000000000000000D+00 -.000000000000000D+00 -.157070715126488D+03
 0.151513841605264D+03 0.863109978242309D+01 0.851709819405180D+02 -.168883090293501D+01
 0.123807384983818D+03 -.357096626357722D+02 -.756670867905570D+02 0.351129656978921D+01
 0.873249741976987D+01 0.282308678942453D+01 0.824903489585252D+01 -.490015767778781D+00
 0.300877062441242D+02 0.242554760639245D+02 -.177529300458135D+02 -.133244989907541D+01
0.489496406809D-03 0.000000000000D+00 0.000000000000D+00 0.107045591948D-04 0.000000000000D+00  6 1 -1 25 23 21 21 2 0.92820549D-02 0.62909987D-01 0.24649344D+05 0.24649344D+05 0.24649344D+05 0.12239559D+01  1  2  2  3  6  5       21 0.135118376671D+00 0.100000000000D+01
0.519254014719D-04 0.258314350659D-04 -.187979508951D-05 0.107045591948D-04 0.000000000000D+00  6 1 -1 25 23 21 21 4 0.92820549D-02 0.62909987D-01 0.24649344D+05 0.24649344D+05 0.24649344D+05 0.12239559D+01  1  2  3  3  6  5       21 0.214721886675D-01 0.100000000000D+01
0.133706739981D-04 0.000000000000D+00 0.000000000000D+00 0.107045591948D-04 0.000000000000D+00  6 1 -1 25 23 21 21 4 0.92820549D-02 0.62909987D-01 0.24649344D+05 0.24649344D+05 0.24649344D+05 0.12239559D+01  1  2 15  3  6  5       21 0.552904024933D-02 0.100000000000D+01
0.388176084824D-04 0.000000000000D+00 0.000000000000D+00 0.107043682513D-04 0.000000000000D+00  6 1 -1 25 23 21 21 4 0.92820549D-02 0.62909987D-01 0.24655114D+05 0.24655114D+05 0.24655114D+05 0.12239450D+01  1  2 12  3  6  5       21 0.160513559965D-01 0.100000000000D+01
0.377231914417D-04 0.000000000000D+00 0.000000000000D+00 0.107043682513D-04 0.000000000000D+00  6 1 -1 25 23 21 21 4 0.92820549D-02 0.62909987D-01 0.24655114D+05 0.24655114D+05 0.24655114D+05 0.12239450D+01  1  2 12  3  6  5       21 0.155988068000D-01 0.100000000000D+01
-.159240907915D-03 0.000000000000D+00 0.000000000000D+00 0.107045591948D-04 0.000000000000D+00  6 1 -1 25 23 21 21 4 0.92820549D-02 0.62909987D-01 0.24649344D+05 0.24649344D+05 0.24649344D+05 0.12239559D+01  1  2  4  3  6  5       21 -.658492899701D-01 0.100000000000D+01
0.183412058725D-07 0.000000000000D+00 0.000000000000D+00 0.107045591948D-04 0.569290319200D-06  6 1 -1 25 23 21 21 4 0.92820549D-02 0.62909987D-01 0.24655114D+05 0.24655114D+05 0.24655114D+05 0.12239450D+01  1  2 11  3  6  5       21 0.758421851255D-05 0.100000000000D+01
0.549631043298D-05 0.000000000000D+00 0.000000000000D+00 0.107043682513D-04 0.000000000000D+00  6 1 -1 25 23 1 -1 4 0.92820549D-02 0.62909987D-01 0.24655114D+05 0.24655114D+05 0.24655114D+05 0.12239450D+01  1  2 12  6  6  5       21 0.227276328646D-02 0.100000000000D+01
0.542171776302D-05 0.000000000000D+00 0.000000000000D+00 0.107043682513D-04 0.000000000000D+00  6 1 -1 25 23 1 -1 4 0.92820549D-02 0.62909987D-01 0.24655114D+05 0.24655114D+05 0.24655114D+05 0.12239450D+01  1  2 12  6  6  5       21 0.224191868920D-02 0.100000000000D+01
0.666102336187D-08 0.000000000000D+00 0.000000000000D+00 0.107043682513D-04 0.266633257267D-07  6 1 -1 25 23 1 -1 4 0.92820549D-02 0.62909987D-01 0.24655114D+05 0.24655114D+05 0.24655114D+05 0.12239450D+01  1  2 11  6  6  5       21 0.275438033053D-05 0.100000000000D+01
0.549631043298D-05 0.000000000000D+00 0.000000000000D+00 0.107043682513D-04 0.000000000000D+00  6 1 -1 25 23 2 -2 4 0.92820549D-02 0.62909987D-01 0.24655114D+05 0.24655114D+05 0.24655114D+05 0.12239450D+01  1  2 12  7  6  5       21 0.227276328646D-02 0.100000000000D+01
0.549631043298D-05 0.000000000000D+00 0.000000000000D+00 0.107043682513D-04 0.000000000000D+00  6 1 -1 25 23 4 -4 4 0.92820549D-02 0.62909987D-01 0.24655114D+05 0.24655114D+05 0.24655114D+05 0.12239450D+01  1  2 12  7  6  5       21 0.227276328646D-02 0.100000000000D+01
0.542171776302D-05 0.000000000000D+00 0.000000000000D+00 0.107043682513D-04 0.000000000000D+00  6 1 -1 25 23 2 -2 4 0.92820549D-02 0.62909987D-01 0.24655114D+05 0.24655114D+05 0.24655114D+05 0.12239450D+01  1  2 12  7  6  5       21 0.224191868920D-02 0.100000000000D+01
0.542171776302D-05 0.000000000000D+00 0.000000000000D+00 0.107043682513D-04 0.000000000000D+00  6 1 -1 25 23 4 -4 4 0.92820549D-02 0.62909987D-01 0.24655114D+05 0.24655114D+05 0.24655114D+05 0.12239450D+01  1  2 12  7  6  5       21 0.224191868920D-02 0.100000000000D+01
0.701636294251D-08 0.000000000000D+00 0.000000000000D+00 0.107043682513D-04 0.247582414256D-07  6 1 -1 25 23 2 -2 4 0.92820549D-02 0.62909987D-01 0.24655114D+05 0.24655114D+05 0.24655114D+05 0.12239450D+01  1  2 11  7  6  5       21 0.290131576349D-05 0.100000000000D+01
0.701636294251D-08 0.000000000000D+00 0.000000000000D+00 0.107043682513D-04 0.247582414256D-07  6 1 -1 25 23 4 -4 4 0.92820549D-02 0.62909987D-01 0.24655114D+05 0.24655114D+05 0.24655114D+05 0.12239450D+01  1  2 11  7  6  5       21 0.290131576349D-05 0.100000000000D+01
0.549631043298D-05 0.000000000000D+00 0.000000000000D+00 0.107043682513D-04 0.000000000000D+00  6 1 -1 25 23 3 -3 4 0.92820549D-02 0.62909987D-01 0.24655114D+05 0.24655114D+05 0.24655114D+05 0.12239450D+01  1  2 12  8  6  5       21 0.227276328646D-02 0.100000000000D+01
0.542171776302D-05 0.000000000000D+00 0.000000000000D+00 0.107043682513D-04 0.000000000000D+00  6 1 -1 25 23 3 -3 4 0.92820549D-02 0.62909987D-01 0.24655114D+05 0.24655114D+05 0.24655114D+05 0.12239450D+01  1  2 12  8  6  5       21 0.224191868920D-02 0.100000000000D+01
0.703388811860D-08 0.000000000000D+00 0.000000000000D+00 0.107043682513D-04 0.248200815191D-07  6 1 -1 25 23 3 -3 4 0.92820549D-02 0.62909987D-01 0.24655114D+05 0.24655114D+05 0.24655114D+05 0.12239450D+01  1  2 11  8  6  5       21 0.290856254791D-05 0.100000000000D+01
  </mgrwgt>
  </event>
  <event>
  5     66 0.47055975E-03 0.24997022E+02 0.75467711E-02 0.10896815E+00
        1 -1    0    0  502    0 0.00000000E+00 0.00000000E+00 0.41597714E+03 0.41597726E+03 0.32000000E+00 0.0000E+00 0.9000E+01
       -1 -1    0    0    0  501 0.00000000E+00 0.00000000E+00 -.22215857E+03 0.22215880E+03 0.32000000E+00 0.0000E+00 0.9000E+01
       25  1    1    2    0    0 -.97979124E+02 -.24341426E+03 0.15151824E+02 0.29104121E+03 0.12500000E+03 0.0000E+00 0.9000E+01
       23  1    1    2    0    0 0.10726409E+03 0.22020952E+03 0.12895538E+03 0.29144907E+03 0.91188000E+02 0.0000E+00 0.9000E+01
       21  1    1    2  502  501 -.92849695E+01 0.23204740E+02 0.49711369E+02 0.55645784E+02 0.75000000E+00 0.0000E+00 0.9000E+01
#aMCatNLO 1  0  0  5  2 0.62840936D+01 0.00000000D+00  -5  6  0 0.00000000D+00 0.00000000D+00 0.00000000D+00 0.00000000D+00 0.00000000D+00
  <mgrwgt>
 0.4239894998D+00   16    2    0
 0.303995064855475D+03 0.000000000000000D+00 0.000000000000000D+00 0.303995064855475D+03
 0.303995064855475D+03 -.000000000000000D+00 -.000000000000000D+00 -.303995064855475D+03
 0.300643591887444D+03 -.979784111611908D+02 -.243416040396958D+03 -.768793312066337D+02
 0.264789409194882D+03 0.107264721872958D+03 0.220207948389480D+03 0.424372334794312D+02
 0.425571286286231D+02 -.928631071176675D+01 0.232080920074773D+02 0.344420977272026D+02
 0.000000000000000D+00 0.000000000000000D+00 -.000000000000000D+00 0.000000000000000D+00
 0.303995064855475D+03 0.000000000000000D+00 0.000000000000000D+00 0.303995064855475D+03
 0.303995064855475D+03 -.000000000000000D+00 -.000000000000000D+00 -.303995064855475D+03
 0.293961408911882D+03 -.100563997876238D+03 -.236954213279748D+03 -.672896208161574D+02
 0.270224042651171D+03 0.104938263683731D+03 0.226022168630756D+03 0.510658592920557D+02
 0.313893116308744D+02 -.213499471164376D+01 0.208127810343361D+02 0.233999749542212D+02
 0.124153665170221D+02 -.223927109584870D+01 -.988073638534413D+01 -.717621343011946D+01
0.307489989019D-02 0.000000000000D+00 0.000000000000D+00 0.148008166734D-04 0.000000000000D+00  6 1 -1 25 23 21 21 2 0.63996510D-01 0.34178269D-01 0.83235549D+05 0.83235549D+05 0.83235549D+05 0.11709640D+01  1  2  2  3  6  5       21 0.198877660230D+00 0.100000000000D+01
0.106054544423D-02 0.162266925237D-03 -.118084252181D-04 0.148008166734D-04 0.000000000000D+00  6 1 -1 25 23 21 21 4 0.63996510D-01 0.34178269D-01 0.83235549D+05 0.83235549D+05 0.83235549D+05 0.11709640D+01  1  2  3  3  6  5       21 0.940527325269D-01 0.100000000000D+01
0.150684664632D-04 0.000000000000D+00 0.000000000000D+00 0.148008166734D-04 0.000000000000D+00  6 1 -1 25 23 21 21 4 0.63996510D-01 0.34178269D-01 0.83235549D+05 0.83235549D+05 0.83235549D+05 0.11709640D+01  1  2 15  3  6  5       21 0.133632222322D-02 0.100000000000D+01
0.304172880099D-02 0.000000000000D+00 0.000000000000D+00 0.147811426910D-04 0.000000000000D+00  6 1 -1 25 23 21 21 4 0.63996510D-01 0.34178269D-01 0.84845392D+05 0.84845392D+05 0.84845392D+05 0.11701855D+01  1  2 12  3  6  5       21 0.268999140769D+00 0.100000000000D+01
-.192343779257D-02 0.000000000000D+00 0.000000000000D+00 0.148008166734D-04 0.000000000000D+00  6 1 -1 25 23 21 21 4 0.63996510D-01 0.34178269D-01 0.83235549D+05 0.83235549D+05 0.83235549D+05 0.11709640D+01  1  2  4  3  6  5       21 -.170576924564D+00 0.100000000000D+01
0.322324278585D-03 0.000000000000D+00 0.000000000000D+00 0.148008166734D-04 0.000000000000D+00  6 1 -1 25 23 21 21 4 0.63996510D-01 0.34178269D-01 0.83235549D+05 0.83235549D+05 0.83235549D+05 0.11709640D+01  1  2  5  3  6  5       21 0.285847997610D-01 0.100000000000D+01
-.442073452033D-03 0.000000000000D+00 0.000000000000D+00 0.148008166734D-04 0.000000000000D+00  6 1 -1 25 23 21 21 4 0.63996510D-01 0.34178269D-01 0.83235549D+05 0.83235549D+05 0.83235549D+05 0.11709640D+01  1  2  6  3  6  5       21 -.392045587180D-01 0.100000000000D+01
0.324107987796D-03 0.000000000000D+00 0.000000000000D+00 0.148008166734D-04 0.587190617252D-06  6 1 -1 25 23 21 21 4 0.63996510D-01 0.34178269D-01 0.84845392D+05 0.84845392D+05 0.84845392D+05 0.11701855D+01  1  2 11  3  6  5       21 0.286629005863D-01 0.100000000000D+01
0.359290600211D-04 0.000000000000D+00 0.000000000000D+00 0.147811426910D-04 0.000000000000D+00  6 1 -1 25 23 1 -1 4 0.63996510D-01 0.34178269D-01 0.84845392D+05 0.84845392D+05 0.84845392D+05 0.11701855D+01  1  2 12  6  6  5       21 0.317743194961D-02 0.100000000000D+01
0.131771411414D-05 0.000000000000D+00 0.000000000000D+00 0.147811426910D-04 0.400575517249D-08  6 1 -1 25 23 1 -1 4 0.63996510D-01 0.34178269D-01 0.84845392D+05 0.84845392D+05 0.84845392D+05 0.11701855D+01  1  2 11  6  6  5       21 0.116533717394D-03 0.100000000000D+01
0.359290600211D-04 0.000000000000D+00 0.000000000000D+00 0.147811426910D-04 0.000000000000D+00  6 1 -1 25 23 2 -2 4 0.63996510D-01 0.34178269D-01 0.84845392D+05 0.84845392D+05 0.84845392D+05 0.11701855D+01  1  2 12  7  6  5       21 0.317743194961D-02 0.100000000000D+01
0.359290600211D-04 0.000000000000D+00 0.000000000000D+00 0.147811426910D-04 0.000000000000D+00  6 1 -1 25 23 4 -4 4 0.63996510D-01 0.34178269D-01 0.84845392D+05 0.84845392D+05 0.84845392D+05 0.11701855D+01  1  2 12  7  6  5       21 0.317743194961D-02 0.100000000000D+01
0.162463311800D-05 0.000000000000D+00 0.000000000000D+00 0.147811426910D-04 0.328553907559D-08  6 1 -1 25 23 2 -2 4 0.63996510D-01 0.34178269D-01 0.84845392D+05 0.84845392D+05 0.84845392D+05 0.11701855D+01  1  2 11  7  6  5       21 0.143676488405D-03 0.100000000000D+01
0.162463311800D-05 0.000000000000D+00 0.000000000000D+00 0.147811426910D-04 0.328553907559D-08  6 1 -1 25 23 4 -4 4 0.63996510D-01 0.34178269D-01 0.84845392D+05 0.84845392D+05 0.84845392D+05 0.11701855D+01  1  2 11  7  6  5       21 0.143676488405D-03 0.100000000000D+01
0.359290600211D-04 0.000000000000D+00 0.000000000000D+00 0.147811426910D-04 0.000000000000D+00  6 1 -1 25 23 3 -3 4 0.63996510D-01 0.34178269D-01 0.84845392D+05 0.84845392D+05 0.84845392D+05 0.11701855D+01  1  2 12  8  6  5       21 0.317743194961D-02 0.100000000000D+01
0.162617148832D-05 0.000000000000D+00 0.000000000000D+00 0.147811426910D-04 0.328865016309D-08  6 1 -1 25 23 3 -3 4 0.63996510D-01 0.34178269D-01 0.84845392D+05 0.84845392D+05 0.84845392D+05 0.11701855D+01  1  2 11  8  6  5       21 0.143812536133D-03 0.100000000000D+01
  </mgrwgt>
  </event>
  <event>
  5     66 0.47055975E-03 0.57184215E+02 0.75467711E-02 0.12072157E+00
        1 -1    0    0  502    0 0.00000000E+00 0.00000000E+00 0.29101660E+04 0.29101660E+04 0.32000000E+00 0.0000E+00 0.9000E+01
       -1 -1    0    0    0  501 0.00000000E+00 0.00000000E+00 -.13113789E+02 0.13117693E+02 0.32000000E+00 0.0000E+00 0.9000E+01
       25  1    1    2    0    0 -.68253554E+01 -.50089540E+02 0.50102634E+03 0.51885252E+03 0.12500000E+03 0.0000E+00 0.9000E+01
       23  1    1    2    0    0 -.24379919E+02 -.12114509E+01 0.21128652E+04 0.21149729E+04 0.91188000E+02 0.0000E+00 0.9000E+01
       21  1    1    2  502  501 0.31205274E+02 0.51300991E+02 0.28316072E+03 0.28945832E+03 0.75000000E+00 0.0000E+00 0.9000E+01
#aMCatNLO 1  0  0  5  2 0.62840936D+01 0.00000000D+00  -5  6  0 0.00000000D+00 0.00000000D+00 0.00000000D+00 0.00000000D+00 0.00000000D+00
  <mgrwgt>
 0.1390942799D-02    1    2    0
 0.195368971039316D+03 0.000000000000000D+00 0.000000000000000D+00 0.195368971039316D+03
 0.195368971039316D+03 -.000000000000000D+00 -.000000000000000D+00 -.195368971039316D+03
 0.167001103214254D+03 -.682621333149932D+01 -.500909506574855D+02 -.985325730332870D+02
 0.157612959015635D+03 -.243807283159270D+02 -.121278213289672D+01 0.126216887744657D+03
 0.661238798487430D+02 0.312069416474263D+02 0.513037327903823D+02 -.276843147113701D+02
 0.000000000000000D+00 0.000000000000000D+00 0.000000000000000D+00 -.000000000000000D+00
 0.195368971039316D+03 0.000000000000000D+00 0.000000000000000D+00 0.195368971039316D+03
 0.195368971039316D+03 -.000000000000000D+00 -.000000000000000D+00 -.195368971039316D+03
 0.167008818516357D+03 -.557964356038748D+01 -.480416090986672D+02 -.996384305134284D+02
 0.156599971143932D+03 -.232080435693184D+02 0.715093580368587D+00 0.125176575177373D+03
 0.511604926482805D+02 0.230321339846510D+02 0.443528539602908D+02 -.109426302918888D+02
 0.159686597700621D+02 0.575555314505491D+01 0.297366155800784D+01 -.145955143720554D+02
0.104074336932D-04 0.000000000000D+00 0.000000000000D+00 0.230865966982D-05 0.000000000000D+00  6 1 -1 25 23 21 21 4 0.44771815D+00 0.20178077D-02 0.20921338D+05 0.20921338D+05 0.20921338D+05 0.12316785D+01  1  2 14  3  6  5       21 0.139094279861D-02 0.100000000000D+01
  </mgrwgt>
  </event>
  <event>
  6     66 -.47055975E-03 0.19811301E+02 0.75467711E-02 0.10670447E+00
        1 -1    0    0  502    0 0.00000000E+00 0.00000000E+00 0.33865934E+03 0.33865949E+03 0.32000000E+00 0.0000E+00 0.9000E+01
       -1 -1    0    0    0  501 -.00000000E+00 -.00000000E+00 -.37093883E+03 0.37093897E+03 0.32000000E+00 0.0000E+00 0.9000E+01
       25  1    1    2    0    0 -.28090766E+03 -.93045056E+02 -.11480132E+03 0.34113171E+03 0.12500000E+03 0.0000E+00 0.9000E+01
       23  1    1    2    0    0 0.28646581E+03 0.12068216E+03 0.64522353E+02 0.33031081E+03 0.91188000E+02 0.0000E+00 0.9000E+01
       21  1    1    2  502  503 0.27844213E+01 -.24506321E+02 0.13868588E+02 0.28305706E+02 0.75000000E+00 0.0000E+00 0.9000E+01
       21  1    1    2  503  501 -.83425724E+01 -.31307857E+01 0.41308872E+01 0.98502316E+01 0.75000000E+00 0.0000E+00 0.9000E+01
#aMCatNLO 2  0  0  5  2 0.78484953D+01 0.00000000D+00  -5  6  0 0.00000000D+00 0.00000000D+00 0.00000000D+00 0.00000000D+00 0.00000000D+00
  <mgrwgt>
 -.3639382654D-01    4    2    0
 0.354431941720342D+03 0.000000000000000D+00 0.000000000000000D+00 0.354431941720342D+03
 0.354431941720342D+03 -.000000000000000D+00 -.000000000000000D+00 -.354431941720342D+03
 0.335855083624738D+03 -.280555062877468D+03 -.912918009533563D+02 -.100639460298098D+03
 0.334231520832585D+03 0.286816164595443D+03 0.122424228262854D+03 0.783852934871510D+02
 0.387772789833613D+02 -.626110171797562D+01 -.311324273094973D+02 0.222541668109472D+02
 0.000000000000000D+00 0.000000000000000D+00 0.000000000000000D+00 0.000000000000000D+00
 0.354431941720342D+03 0.000000000000000D+00 0.000000000000000D+00 0.354431941720342D+03
 0.354431941720342D+03 -.000000000000000D+00 -.000000000000000D+00 -.354431941720342D+03
 0.336264777247061D+03 -.280913922051628D+03 -.930761765564238D+02 -.993639480507144D+02
 0.333580023958274D+03 0.286459605723418D+03 0.120651290581134D+03 0.796526296483234D+02
 0.286170161119544D+02 0.305617321357571D+01 -.242334253941941D+02 0.149108856244191D+02
 0.104020661233946D+02 -.860185688536634D+01 -.334168863051628D+01 0.480043277797194D+01
-.434319767860D-03 0.000000000000D+00 0.000000000000D+00 0.841412081324D-05 0.000000000000D+00  6 1 -1 25 23 21 21 4 0.52101459D-01 0.57067535D-01 0.11520358D+06 0.11520358D+06 0.11520358D+06 0.11579671D+01  1  2 13  3  6  5       21 -.188048403692D-01 0.100000000000D+01
-.454755809132D-03 0.000000000000D+00 0.000000000000D+00 0.841412081324D-05 0.000000000000D+00  6 1 -1 25 23 21 21 4 0.52101459D-01 0.57067535D-01 0.11520358D+06 0.11520358D+06 0.11520358D+06 0.11579671D+01  1  2 13  3  6  5       21 -.196896642302D-01 0.100000000000D+01
-.425005997907D-02 0.000000000000D+00 0.000000000000D+00 0.841706274116D-05 0.000000000000D+00  6 1 -1 25 23 21 21 4 0.52101459D-01 0.57067535D-01 0.11461198D+06 0.11461198D+06 0.11461198D+06 0.11581696D+01  1  2  8  3  6  5       21 -.184156977258D+00 0.100000000000D+01
0.430183825177D-02 0.000000000000D+00 0.000000000000D+00 0.841706274116D-05 0.593596656847D-06  6 1 -1 25 23 21 21 4 0.52101459D-01 0.57067535D-01 0.11520358D+06 0.11520358D+06 0.11520358D+06 0.11579671D+01  1  2  1  3  6  5       21 0.186257655315D+00 0.100000000000D+01
  </mgrwgt>
  </event>
  <event>
  5     66 0.47055975E-03 0.92251473E+02 0.75467711E-02 0.11847759E+00
        1 -1    0    0  502    0 0.00000000E+00 0.00000000E+00 0.69414416E+03 0.69414423E+03 0.32000000E+00 0.0000E+00 0.9000E+01
       -1 -1    0    0    0  501 0.00000000E+00 0.00000000E+00 -.73638327E+02 0.73639023E+02 0.32000000E+00 0.0000E+00 0.9000E+01
       25  1    1    2    0    0 -.17030191E+02 -.44230168E+02 0.17716770E+03 0.22194533E+03 0.12500000E+03 0.0000E+00 0.9000E+01
       23  1    1    2    0    0 0.11832900E+02 -.47874099E+02 0.11556472E+02 0.10431083E+03 0.91188000E+02 0.0000E+00 0.9000E+01
       21  1    1    2  502  501 0.51972910E+01 0.92104268E+02 0.43178166E+03 0.44152709E+03 0.75000000E+00 0.0000E+00 0.9000E+01
#aMCatNLO 1  0  0  5  1 0.75242632D+02 0.00000000D+00  -5  6  0 0.00000000D+00 0.00000000D+00 0.00000000D+00 0.00000000D+00 0.00000000D+00
  <mgrwgt>
 0.1463521776D-01    4    2    0
 0.226088279546429D+03 0.000000000000000D+00 0.000000000000000D+00 0.226088279546429D+03
 0.226088279546429D+03 -.000000000000000D+00 -.000000000000000D+00 -.226088279546429D+03
 0.133736187740383D+03 -.170302087643992D+02 -.442304785415207D+02 -.374228122406480D+01
 0.161258874049353D+03 0.118328791719334D+02 -.478744730211701D+02 -.123520002101331D+03
 0.157181497303123D+03 0.519732959246573D+01 0.921049515626908D+02 0.127262283325396D+03
 0.000000000000000D+00 0.000000000000000D+00 0.000000000000000D+00 -.000000000000000D+00
 0.226088279546429D+03 0.000000000000000D+00 0.000000000000000D+00 0.226088279546429D+03
 0.226088279546429D+03 -.000000000000000D+00 -.000000000000000D+00 -.226088279546429D+03
 0.130783171970462D+03 -.157410948289945D+02 -.213853280720653D+02 0.278230794034392D+02
 0.129951153835867D+03 0.132520679431703D+02 -.227241894558217D+02 -.887696172577008D+02
 0.115245801934079D+03 -.432723928583400D+02 0.392691394917388D+01 0.106741155261587D+03
 0.761964313524515D+02 0.457614197441642D+02 0.401826035787131D+02 -.457946174073250D+02
0.770849436002D-04 0.000000000000D+00 0.000000000000D+00 0.264944012439D-05 0.000000000000D+00  6 1 -1 25 23 21 21 2 0.10679147D+00 0.11329033D-01 0.27159725D+05 0.27159725D+05 0.27159725D+05 0.12194583D+01  1  2  2  3  6  5       21 0.163384274323D-01 0.100000000000D+01
-.466340084061D-05 0.406788423259D-05 -.296026480357D-06 0.264944012439D-05 0.000000000000D+00  6 1 -1 25 23 21 21 4 0.10679147D+00 0.11329033D-01 0.27159725D+05 0.27159725D+05 0.27159725D+05 0.12194583D+01  1  2  3  3  6  5       21 -.146986459205D-02 0.100000000000D+01
0.391280452812D-05 0.000000000000D+00 0.000000000000D+00 0.264944012439D-05 0.000000000000D+00  6 1 -1 25 23 21 21 4 0.10679147D+00 0.11329033D-01 0.27159725D+05 0.27159725D+05 0.27159725D+05 0.12194583D+01  1  2 15  3  6  5       21 0.123328296839D-02 0.100000000000D+01
-.465313234504D-05 0.000000000000D+00 0.000000000000D+00 0.264944012439D-05 0.000000000000D+00  6 1 -1 25 23 21 21 4 0.10679147D+00 0.11329033D-01 0.27159725D+05 0.27159725D+05 0.27159725D+05 0.12194583D+01  1  2  4  3  6  5       21 -.146662804890D-02 0.100000000000D+01
  </mgrwgt>
  </event>
  <event>
  5     66 -.47055975E-03 0.48933642E+02 0.75467711E-02 0.10979495E+00
        1 -1    0    0  502    0 0.00000000E+00 0.00000000E+00 0.35417532E+03 0.35417546E+03 0.32000000E+00 0.0000E+00 0.9000E+01
       -1 -1    0    0    0  501 0.00000000E+00 0.00000000E+00 -.24453053E+03 0.24453074E+03 0.32000000E+00 0.0000E+00 0.9000E+01
       25  1    1    2    0    0 -.15551579E+03 0.17004502E+03 0.93127658E+02 0.27820538E+03 0.12500000E+03 0.0000E+00 0.9000E+01
       23  1    1    2    0    0 0.11205906E+03 -.19253378E+03 -.41862050E+02 0.24432391E+03 0.91188000E+02 0.0000E+00 0.9000E+01
       21  1    1    2  502  501 0.43456733E+02 0.22488763E+02 0.58379180E+02 0.76176921E+02 0.75000000E+00 0.0000E+00 0.9000E+01
#aMCatNLO 1  0  0  2  1 0.32525287D+01 0.00000000D+00  -5  6  0 0.00000000D+00 0.00000000D+00 0.00000000D+00 0.00000000D+00 0.00000000D+00
  <mgrwgt>
 -.8917625487D-02    1    2    0
 0.294290307651286D+03 0.000000000000000D+00 0.000000000000000D+00 0.294290307651286D+03
 0.294290307651286D+03 0.000000000000000D+00 0.000000000000000D+00 -.294290307651286D+03
 0.265643110022032D+03 -.155517034813988D+03 0.170044376059725D+03 0.429024935790551D+02
 0.256325829025145D+03 0.112057858365097D+03 -.192534403504977D+03 -.880977816238212D+02
 0.666116762553944D+02 0.434591764488917D+02 0.224900274452521D+02 0.451952880447661D+02
 0.000000000000000D+00 -.000000000000000D+00 -.000000000000000D+00 0.000000000000000D+00
 0.632354295482900D+03 0.000000000000000D+00 0.000000000000000D+00 0.632354295482900D+03
 0.456942674275208D+03 0.000000000000000D+00 0.000000000000000D+00 -.456942674275208D+03
 0.232465951837157D+03 -.170232876596642D+02 0.190486226498167D+03 0.429024935790551D+02
 0.350792110020375D+03 0.280860325096356D+03 -.167618948118277D+03 -.880977816238212D+02
 0.106281078471219D+03 0.915301056717996D+02 0.295853567709626D+02 0.451952880447661D+02
 0.399757829429356D+03 -.355367143108492D+03 -.524526351508525D+02 0.175411621207692D+03
-.954931222349D-04 0.000000000000D+00 0.000000000000D+00 0.395445025480D-05 0.000000000000D+00  6 1 -1 25 23 21 21 4 0.54488538D-01 0.37620109D-01 0.76120876D+05 0.76120876D+05 0.76120876D+05 0.11746165D+01  1  2 14  2  6  2       -1 -.891762548744D-02 0.100000000000D+01
  </mgrwgt>
  </event>
  <event>
  5     66 0.47055975E-03 0.33622242E+02 0.75467711E-02 0.11600223E+00
        1 -1    0    0  502    0 0.00000000E+00 0.00000000E+00 0.47062956E+02 0.47064044E+02 0.32000000E+00 0.0000E+00 0.9000E+01
       -1 -1    0    0    0  501 0.00000000E+00 0.00000000E+00 -.54044714E+03 0.54044724E+03 0.32000000E+00 0.0000E+00 0.9000E+01
       25  1    1    2    0    0 -.41172671E+02 -.24175949E+02 -.41952955E+03 0.44035180E+03 0.12500000E+03 0.0000E+00 0.9000E+01
       23  1    1    2    0    0 0.13721973E+02 0.47723836E+01 -.44398581E+02 0.10245757E+03 0.91188000E+02 0.0000E+00 0.9000E+01
       21  1    1    2  502  501 0.27450698E+02 0.19403566E+02 -.29456055E+02 0.44701911E+02 0.75000000E+00 0.0000E+00 0.9000E+01
#aMCatNLO 1  0  0  2  2 0.98412896D+02 0.00000000D+00  -5  6  0 0.00000000D+00 0.00000000D+00 0.00000000D+00 0.00000000D+00 0.00000000D+00
  <mgrwgt>
 0.9239181988D-01    3    2    0
 0.159484756769907D+03 0.000000000000000D+00 0.000000000000000D+00 0.159484756769907D+03
 0.159484756769907D+03 0.000000000000000D+00 0.000000000000000D+00 -.159484756769907D+03
 0.162156631116810D+03 -.411755739843166D+02 -.241780013314241D+02 -.915956842533155D+02
 0.120039951198205D+03 0.137198236733298D+02 0.477086442144475D+01 0.767029584221654D+02
 0.367729312247983D+02 0.274557503109868D+02 0.194071369099794D+02 0.148927258311501D+02
 0.000000000000000D+00 -.000000000000000D+00 0.000000000000000D+00 0.000000000000000D+00
 0.394956112434712D+03 0.000000000000000D+00 0.000000000000000D+00 0.394956112434712D+03
 0.177520311128485D+03 0.000000000000000D+00 0.000000000000000D+00 -.177520311128485D+03
 0.175430736248982D+03 -.345091357370493D+02 -.746343982203162D+02 -.915956842533155D+02
 0.124718750606751D+03 0.185531466255363D+02 -.318111981617782D+02 0.767029584221654D+02
 0.336568173716255D+02 0.288465475243194D+02 0.888058381145799D+01 0.148927258311501D+02
 0.238670119335839D+03 -.128905584128064D+02 0.975650125706364D+02 0.217435801306227D+03
0.354679422841D-03 0.000000000000D+00 0.000000000000D+00 0.974792125862D-05 0.000000000000D+00  6 1 -1 25 23 21 21 2 0.72405458D-02 0.83145805D-01 0.16870048D+05 0.16870048D+05 0.16870048D+05 0.12420472D+01  1  2  2  2  6  2       -1 0.800883479278D-01 0.100000000000D+01
0.237534963497D-04 0.187169473624D-04 -.136206237295D-05 0.974792125862D-05 0.000000000000D+00  6 1 -1 25 23 21 21 4 0.72405458D-02 0.83145805D-01 0.16870048D+05 0.16870048D+05 0.16870048D+05 0.12420472D+01  1  2  3  2  6  2       -1 0.827441158355D-02 0.100000000000D+01
0.115662932266D-04 0.000000000000D+00 0.000000000000D+00 0.974792125862D-05 0.000000000000D+00  6 1 -1 25 23 21 21 4 0.72405458D-02 0.83145805D-01 0.16870048D+05 0.16870048D+05 0.16870048D+05 0.12420472D+01  1  2 15  2  6  2       -1 0.402906036416D-02 0.100000000000D+01
  </mgrwgt>
  </event>
  <event>
  5     66 0.47055975E-03 0.37478954E+02 0.75467711E-02 0.11562411E+00
        1 -1    0    0  502    0 0.00000000E+00 0.00000000E+00 0.19477158E+04 0.19477158E+04 0.32000000E+00 0.0000E+00 0.9000E+01
       -1 -1    0    0    0  501 0.00000000E+00 0.00000000E+00 -.38208794E+02 0.38210134E+02 0.32000000E+00 0.0000E+00 0.9000E+01
       25  1    1    2    0    0 -.46900527E+02 0.10549510E+03 0.22883187E+03 0.28516294E+03 0.12500000E+03 0.0000E+00 0.9000E+01
       23  1    1    2    0    0 0.29032509E+02 -.72549829E+02 0.35894013E+03 0.37849655E+03 0.91188000E+02 0.0000E+00 0.9000E+01
       21  1    1    2  502  501 0.17868019E+02 -.32945273E+02 0.13217350E+04 0.13222665E+04 0.75000000E+00 0.0000E+00 0.9000E+01
#aMCatNLO 1  0  0  5  2 0.52817754D+02 0.00000000D+00  -5  6  0 0.00000000D+00 0.00000000D+00 0.00000000D+00 0.00000000D+00 0.00000000D+00
  <mgrwgt>
 0.1260505726D+00   10    2    0
 0.272802543838209D+03 0.000000000000000D+00 0.000000000000000D+00 0.272802543838209D+03
 0.272802543838209D+03 -.000000000000000D+00 -.000000000000000D+00 -.272802543838209D+03
 0.237088512474382D+03 -.469005898652978D+02 0.105495217334440D+03 -.165097112443439D+03
 0.121456747309282D+03 0.290324767825421D+02 -.725497700301554D+02 -.181696528143363D+02
 0.187059827892753D+03 0.178681130827557D+02 -.329454473042847D+02 0.183266765257776D+03
 0.000000000000000D+00 0.000000000000000D+00 0.000000000000000D+00 0.000000000000000D+00
 0.272802543838209D+03 0.000000000000000D+00 0.000000000000000D+00 0.272802543838209D+03
 0.272802543838209D+03 -.000000000000000D+00 -.000000000000000D+00 -.272802543838209D+03
 0.224668604734785D+03 -.453504342468081D+02 0.102637021283975D+03 -.149197727626978D+03
 0.121598784142502D+03 0.298484336647277D+02 -.740542413943174D+02 -.980067855861084D+01
 0.664978162821978D+02 -.709374722624721D+01 -.581454064532804D+02 0.314761819313247D+02
 0.132839882516933D+03 0.225957478083275D+02 0.295626265636228D+02 0.127522224254264D+03
0.111344349338D-02 0.000000000000D+00 0.000000000000D+00 0.145111311785D-04 0.000000000000D+00  6 1 -1 25 23 21 21 2 0.29964869D+00 0.58783811D-02 0.26851315D+05 0.26851315D+05 0.26851315D+05 0.12199852D+01  1  2  2  3  6  5       21 0.849521031220D-01 0.100000000000D+01
0.150533548412D-03 0.587580274314D-04 -.427591619099D-05 0.145111311785D-04 0.000000000000D+00  6 1 -1 25 23 21 21 4 0.29964869D+00 0.58783811D-02 0.26851315D+05 0.26851315D+05 0.26851315D+05 0.12199852D+01  1  2  3  3  6  5       21 0.170941850413D-01 0.100000000000D+01
0.375858415208D-04 0.000000000000D+00 0.000000000000D+00 0.145111311785D-04 0.000000000000D+00  6 1 -1 25 23 21 21 4 0.29964869D+00 0.58783811D-02 0.26851315D+05 0.26851315D+05 0.26851315D+05 0.12199852D+01  1  2 15  3  6  5       21 0.426814711184D-02 0.100000000000D+01
-.215036260070D-03 0.000000000000D+00 0.000000000000D+00 0.145111311785D-04 0.000000000000D+00  6 1 -1 25 23 21 21 4 0.29964869D+00 0.58783811D-02 0.26851315D+05 0.26851315D+05 0.26851315D+05 0.12199852D+01  1  2  4  3  6  5       21 -.244189395586D-01 0.100000000000D+01
-.206292413399D-03 0.000000000000D+00 0.000000000000D+00 0.145111311785D-04 0.000000000000D+00  6 1 -1 25 23 21 21 4 0.29964869D+00 0.58783811D-02 0.26851315D+05 0.26851315D+05 0.26851315D+05 0.12199852D+01  1  2  5  3  6  5       21 -.234260118390D-01 0.100000000000D+01
0.683566776603D-03 0.000000000000D+00 -.000000000000D+00 0.145111311785D-04 0.000000000000D+00  6 1 -1 25 23 21 21 4 0.29964869D+00 0.58783811D-02 0.26851315D+05 0.26851315D+05 0.26851315D+05 0.12199852D+01  1  2  6  3  6  5       21 0.776240053504D-01 0.100000000000D+01
-.221097974980D-04 0.000000000000D+00 0.000000000000D+00 0.145111311785D-04 0.000000000000D+00  6 1 -1 25 23 1 -1 4 0.29964869D+00 0.58783811D-02 0.26851315D+05 0.26851315D+05 0.26851315D+05 0.12199852D+01  1  2  5  6  6  5       21 -.251072916066D-02 0.100000000000D+01
-.221097974980D-04 0.000000000000D+00 0.000000000000D+00 0.145111311785D-04 0.000000000000D+00  6 1 -1 25 23 2 -2 4 0.29964869D+00 0.58783811D-02 0.26851315D+05 0.26851315D+05 0.26851315D+05 0.12199852D+01  1  2  5  7  6  5       21 -.251072916066D-02 0.100000000000D+01
-.221097974980D-04 0.000000000000D+00 0.000000000000D+00 0.145111311785D-04 0.000000000000D+00  6 1 -1 25 23 4 -4 4 0.29964869D+00 0.58783811D-02 0.26851315D+05 0.26851315D+05 0.26851315D+05 0.12199852D+01  1  2  5  7  6  5       21 -.251072916066D-02 0.100000000000D+01
-.221097974980D-04 0.000000000000D+00 0.000000000000D+00 0.145111311785D-04 0.000000000000D+00  6 1 -1 25 23 3 -3 4 0.29964869D+00 0.58783811D-02 0.26851315D+05 0.26851315D+05 0.26851315D+05 0.12199852D+01  1  2  5  8  6  5       21 -.251072916066D-02 0.100000000000D+01
  </mgrwgt>
  </event>
  <event>
  6     66 0.47055975E-03 0.40107440E+02 0.75467711E-02 0.11691051E+00
        1 -1    0    0  503    0 0.00000000E+00 0.00000000E+00 0.63687644E+03 0.63687652E+03 0.32000000E+00 0.0000E+00 0.9000E+01
       -1 -1    0    0    0  501 0.00000000E+00 0.00000000E+00 -.76895191E+02 0.76895857E+02 0.32000000E+00 0.0000E+00 0.9000E+01
       25  1    1    2    0    0 0.10116536E+02 -.36935070E+02 0.16961182E+03 0.21414881E+03 0.12500000E+03 0.0000E+00 0.9000E+01
       23  1    1    2    0    0 0.75466851E+02 -.13467025E+02 0.42961457E+02 0.12663943E+03 0.91188000E+02 0.0000E+00 0.9000E+01
       21  1    1    2  502  501 -.61259280E+02 0.12661974E+02 0.78627525E+02 0.10047823E+03 0.75000000E+00 0.0000E+00 0.9000E+01
       21  1    1    2  503  502 -.24324107E+02 0.37740122E+02 0.26878045E+03 0.27250591E+03 0.75000000E+00 0.0000E+00 0.9000E+01
#aMCatNLO 2  0  0  1  5 0.44899654D+02 0.00000000D+00  -5  6  0 0.00000000D+00 0.00000000D+00 0.00000000D+00 0.00000000D+00 0.00000000D+00
  <mgrwgt>
 0.8131896276D-02    2    2    0
 0.164242359821138D+03 0.000000000000000D+00 0.000000000000000D+00 0.164242359821138D+03
 0.164242359821138D+03 0.000000000000000D+00 0.000000000000000D+00 -.164242359821138D+03
 0.132321445740746D+03 0.227653446212258D+00 -.215901152269245D+02 0.376534208448269D+02
 0.124899877576634D+03 0.660442075315706D+02 0.115443287577065D+01 -.540514385647625D+02
 0.712633963248957D+02 -.662718609777828D+02 0.204356823511539D+02 0.163980177199356D+02
 0.000000000000000D+00 -.000000000000000D+00 0.000000000000000D+00 0.000000000000000D+00
 0.288269849716629D+03 0.000000000000000D+00 0.000000000000000D+00 0.288269849716629D+03
 0.169883794498051D+03 0.000000000000000D+00 0.000000000000000D+00 -.169883794498051D+03
 0.136049211497171D+03 0.101180181788147D+02 -.369355324290497D+02 0.376534208448269D+02
 0.130819155989051D+03 0.754683172202505D+02 -.134675652851940D+02 -.540514385647625D+02
 0.646707553730630D+02 -.612622285770325D+02 0.126629761570751D+02 0.163980177199356D+02
 0.126614521355395D+03 -.243241068220327D+02 0.377401215571685D+02 0.118386055218578D+03
-.805783496152D-04 0.000000000000D+00 0.000000000000D+00 0.328117407704D-05 0.000000000000D+00  6 1 -1 25 23 21 21 4 0.10394000D+00 0.11437165D-01 0.31919819D+05 0.31919819D+05 0.31919819D+05 0.12120812D+01  1  2 13  1  6  1        1 -.254153105839D-01 0.100000000000D+01
0.103107929061D-03 0.000000000000D+00 0.000000000000D+00 0.335432100054D-05 0.115108403843D-07  6 1 -1 25 23 21 21 4 0.97980422D-01 0.11830011D-01 0.31919819D+05 0.31919819D+05 0.31919819D+05 0.12120812D+01  1  2  1  1  6  1        1 0.335472068600D-01 0.100000000000D+01
  </mgrwgt>
  </event>
  <event>
  5     66 -.47055975E-03 0.25382397E+02 0.75467711E-02 0.10558472E+00
        1 -1    0    0  502    0 0.00000000E+00 0.00000000E+00 0.35785895E+03 0.35785909E+03 0.32000000E+00 0.0000E+00 0.9000E+01
       -1 -1    0    0    0  501 -.00000000E+00 -.00000000E+00 -.53985720E+03 0.53985729E+03 0.32000000E+00 0.0000E+00 0.9000E+01
       25  1    1    2    0    0 0.32505220E+03 0.12365682E+03 -.32160675E+03 0.48990391E+03 0.12500000E+03 0.0000E+00 0.9000E+01
       23  1    1    2    0    0 -.30025319E+03 -.12902908E+03 0.16012370E+03 0.37517374E+03 0.91188000E+02 0.0000E+00 0.9000E+01
       21  1    1    2  502  501 -.24799003E+02 0.53722630E+01 -.20515199E+02 0.32638745E+02 0.75000000E+00 0.0000E+00 0.9000E+01
#aMCatNLO 1  0  0  5  1 0.23986694D+01 0.00000000D+00  -5  6  0 0.00000000D+00 0.00000000D+00 0.00000000D+00 0.00000000D+00 0.00000000D+00
  <mgrwgt>
 -.5874995606D+00   25    2    0
 0.439537072124367D+03 0.000000000000000D+00 0.000000000000000D+00 0.439537072124367D+03
 0.439537072124367D+03 -.000000000000000D+00 -.000000000000000D+00 -.439537072124367D+03
 0.433711186358960D+03 0.325056265364851D+03 0.123655938336498D+03 -.226997855571528D+03
 0.416279717667277D+03 -.300249285006606D+03 -.129029929376116D+03 0.241195348577381D+03
 0.290832402224972D+02 -.248069803582448D+02 0.537399103961760D+01 -.141974930058530D+02
 0.000000000000000D+00 0.000000000000000D+00 0.000000000000000D+00 -.000000000000000D+00
 0.439537072124367D+03 0.000000000000000D+00 0.000000000000000D+00 0.439537072124367D+03
 0.439537072124367D+03 -.000000000000000D+00 -.000000000000000D+00 -.439537072124367D+03
 0.433629246240400D+03 0.324845009326604D+03 0.123701703199461D+03 -.227118761303792D+03
 0.416345186724991D+03 -.300452085466537D+03 -.128985996263792D+03 0.241079282128749D+03
 0.210281036840792D+02 -.190540422523905D+02 0.277584709861723D+01 -.845099350831628D+01
 0.807160759926459D+01 -.533888160767589D+01 0.250844596571386D+01 -.550952731664158D+01
0.869228097384D-02 0.000000000000D+00 0.000000000000D+00 0.953005206220D-05 0.000000000000D+00  6 1 -1 25 23 21 21 2 0.55055242D-01 0.83054972D-01 0.13477346D+06 0.13477346D+06 0.13477346D+06 0.11518504D+01  1  2  2  3  6  5       21 0.121320438591D+00 0.100000000000D+01
0.442607227489D-02 0.458704269177D-03 -.333806476697D-04 0.953005206220D-05 0.000000000000D+00  6 1 -1 25 23 21 21 4 0.55055242D-01 0.83054972D-01 0.13477346D+06 0.13477346D+06 0.13477346D+06 0.11518504D+01  1  2  3  3  6  5       21 0.819616860314D-01 0.100000000000D+01
0.155797672068D-03 0.000000000000D+00 0.000000000000D+00 0.953005206220D-05 0.000000000000D+00  6 1 -1 25 23 21 21 4 0.55055242D-01 0.83054972D-01 0.13477346D+06 0.13477346D+06 0.13477346D+06 0.11518504D+01  1  2 15  3  6  5       21 0.288505001486D-02 0.100000000000D+01
0.906051874457D-05 0.000000000000D+00 0.000000000000D+00 0.953046367020D-05 0.000000000000D+00  6 1 -1 25 23 21 21 4 0.55055242D-01 0.83054972D-01 0.13468680D+06 0.13468680D+06 0.13468680D+06 0.11518753D+01  1  2 12  3  6  5       21 0.167798945845D-03 0.100000000000D+01
0.903719952050D-05 0.000000000000D+00 0.000000000000D+00 0.953046367020D-05 0.000000000000D+00  6 1 -1 25 23 21 21 4 0.55055242D-01 0.83054972D-01 0.13468680D+06 0.13468680D+06 0.13468680D+06 0.11518753D+01  1  2 12  3  6  5       21 0.167367078605D-03 0.100000000000D+01
-.262694365183D+00 0.000000000000D+00 0.000000000000D+00 0.953005206220D-05 0.000000000000D+00  6 1 -1 25 23 21 21 4 0.55055242D-01 0.83054972D-01 0.13477346D+06 0.13477346D+06 0.13477346D+06 0.11518504D+01  1  2  4  3  6  5       21 -.486455524089D+01 0.100000000000D+01
-.965419275817D-01 0.000000000000D+00 0.000000000000D+00 0.953005206220D-05 0.000000000000D+00  6 1 -1 25 23 21 21 4 0.55055242D-01 0.83054972D-01 0.13477346D+06 0.13477346D+06 0.13477346D+06 0.11518504D+01  1  2  5  3  6  5       21 -.178775642734D+01 0.100000000000D+01
0.189500262307D+00 0.000000000000D+00 -.000000000000D+00 0.953005206220D-05 0.000000000000D+00  6 1 -1 25 23 21 21 4 0.55055242D-01 0.83054972D-01 0.13477346D+06 0.13477346D+06 0.13477346D+06 0.11518504D+01  1  2  6  3  6  5       21 0.350915214155D+01 0.100000000000D+01
0.126068653050D+00 0.000000000000D+00 0.000000000000D+00 0.953005206220D-05 0.112393069367D-04  6 1 -1 25 23 21 21 4 0.55055242D-01 0.83054972D-01 0.13468680D+06 0.13468680D+06 0.13468680D+06 0.11518753D+01  1  2 11  3  6  5       21 0.233476555617D+01 0.100000000000D+01
0.332453014159D-05 0.000000000000D+00 0.000000000000D+00 0.953046367020D-05 0.000000000000D+00  6 1 -1 25 23 1 -1 4 0.55055242D-01 0.83054972D-01 0.13468680D+06 0.13468680D+06 0.13468680D+06 0.11518753D+01  1  2 12  6  6  5       21 0.615696152633D-04 0.100000000000D+01
0.331803760380D-05 0.000000000000D+00 0.000000000000D+00 0.953046367020D-05 0.000000000000D+00  6 1 -1 25 23 1 -1 4 0.55055242D-01 0.83054972D-01 0.13468680D+06 0.13468680D+06 0.13468680D+06 0.11518753D+01  1  2 12  6  6  5       21 0.614493747970D-04 0.100000000000D+01
-.121886979545D-02 0.000000000000D+00 0.000000000000D+00 0.953005206220D-05 0.000000000000D+00  6 1 -1 25 23 1 -1 4 0.55055242D-01 0.83054972D-01 0.13477346D+06 0.13477346D+06 0.13477346D+06 0.11518504D+01  1  2  5  6  6  5       21 -.225709426514D-01 0.100000000000D+01
0.140148545989D-02 0.000000000000D+00 0.000000000000D+00 0.953005206220D-05 0.218998136645D-06  6 1 -1 25 23 1 -1 4 0.55055242D-01 0.83054972D-01 0.13468680D+06 0.13468680D+06 0.13468680D+06 0.11518753D+01  1  2 11  6  6  5       21 0.259552228096D-01 0.100000000000D+01
0.332453014159D-05 0.000000000000D+00 0.000000000000D+00 0.953046367020D-05 0.000000000000D+00  6 1 -1 25 23 2 -2 4 0.55055242D-01 0.83054972D-01 0.13468680D+06 0.13468680D+06 0.13468680D+06 0.11518753D+01  1  2 12  7  6  5       21 0.615696152633D-04 0.100000000000D+01
0.332453014159D-05 0.000000000000D+00 0.000000000000D+00 0.953046367020D-05 0.000000000000D+00  6 1 -1 25 23 4 -4 4 0.55055242D-01 0.83054972D-01 0.13468680D+06 0.13468680D+06 0.13468680D+06 0.11518753D+01  1  2 12  7  6  5       21 0.615696152633D-04 0.100000000000D+01
0.331803760380D-05 0.000000000000D+00 0.000000000000D+00 0.953046367020D-05 0.000000000000D+00  6 1 -1 25 23 2 -2 4 0.55055242D-01 0.83054972D-01 0.13468680D+06 0.13468680D+06 0.13468680D+06 0.11518753D+01  1  2 12  7  6  5       21 0.614493747970D-04 0.100000000000D+01
0.331803760380D-05 0.000000000000D+00 0.000000000000D+00 0.953046367020D-05 0.000000000000D+00  6 1 -1 25 23 4 -4 4 0.55055242D-01 0.83054972D-01 0.13468680D+06 0.13468680D+06 0.13468680D+06 0.11518753D+01  1  2 12  7  6  5       21 0.614493747970D-04 0.100000000000D+01
-.121886979545D-02 0.000000000000D+00 0.000000000000D+00 0.953005206220D-05 0.000000000000D+00  6 1 -1 25 23 2 -2 4 0.55055242D-01 0.83054972D-01 0.13477346D+06 0.13477346D+06 0.13477346D+06 0.11518504D+01  1  2  5  7  6  5       21 -.225709426514D-01 0.100000000000D+01
-.121886979545D-02 0.000000000000D+00 0.000000000000D+00 0.953005206220D-05 0.000000000000D+00  6 1 -1 25 23 4 -4 4 0.55055242D-01 0.83054972D-01 0.13477346D+06 0.13477346D+06 0.13477346D+06 0.11518504D+01  1  2  5  7  6  5       21 -.225709426514D-01 0.100000000000D+01
0.140800866737D-02 0.000000000000D+00 0.000000000000D+00 0.953005206220D-05 0.219688963528D-06  6 1 -1 25 23 2 -2 4 0.55055242D-01 0.83054972D-01 0.13468680D+06 0.13468680D+06 0.13468680D+06 0.11518753D+01  1  2 11  7  6  5       21 0.260760312721D-01 0.100000000000D+01
0.140800866737D-02 0.000000000000D+00 0.000000000000D+00 0.953005206220D-05 0.219688963528D-06  6 1 -1 25 23 4 -4 4 0.55055242D-01 0.83054972D-01 0.13468680D+06 0.13468680D+06 0.13468680D+06 0.11518753D+01  1  2 11  7  6  5       21 0.260760312721D-01 0.100000000000D+01
0.332453014159D-05 0.000000000000D+00 0.000000000000D+00 0.953046367020D-05 0.000000000000D+00  6 1 -1 25 23 3 -3 4 0.55055242D-01 0.83054972D-01 0.13468680D+06 0.13468680D+06 0.13468680D+06 0.11518753D+01  1  2 12  8  6  5       21 0.615696152633D-04 0.100000000000D+01
0.331803760380D-05 0.000000000000D+00 0.000000000000D+00 0.953046367020D-05 0.000000000000D+00  6 1 -1 25 23 3 -3 4 0.55055242D-01 0.83054972D-01 0.13468680D+06 0.13468680D+06 0.13468680D+06 0.11518753D+01  1  2 12  8  6  5       21 0.614493747970D-04 0.100000000000D+01
-.121886979545D-02 0.000000000000D+00 0.000000000000D+00 0.953005206220D-05 0.000000000000D+00  6 1 -1 25 23 3 -3 4 0.55055242D-01 0.83054972D-01 0.13477346D+06 0.13477346D+06 0.13477346D+06 0.11518504D+01  1  2  5  8  6  5       21 -.225709426514D-01 0.100000000000D+01
0.140803281609D-02 0.000000000000D+00 0.000000000000D+00 0.953005206220D-05 0.219692731407D-06  6 1 -1 25 23 3 -3 4 0.55055242D-01 0.83054972D-01 0.13468680D+06 0.13468680D+06 0.13468680D+06 0.11518753D+01  1  2 11  8  6  5       21 0.260764785014D-01 0.100000000000D+01
  </mgrwgt>
  </event>
  <event>
  6     66 0.47055975E-03 0.15844243E+02 0.75467711E-02 0.11413908E+00
        1 -1    0    0  502    0 0.00000000E+00 0.00000000E+00 0.18700759E+04 0.18700759E+04 0.32000000E+00 0.0000E+00 0.9000E+01
       21 -1    0    0  503  501 0.00000000E+00 0.00000000E+00 -.33875489E+02 0.33883791E+02 0.75000000E+00 0.0000E+00 0.9000E+01
       25  1    1    2    0    0 0.10324776E+03 0.10566313E+03 0.51495043E+03 0.55011249E+03 0.12500000E+03 0.0000E+00 0.9000E+01
       23  1    1    2    0    0 -.12908858E+03 -.10325969E+03 0.11303346E+04 0.11459921E+04 0.91188000E+02 0.0000E+00 0.9000E+01
        1  1    1    2  503    0 0.17856416E+02 -.14927111E+02 0.84159690E+01 0.24750781E+02 0.32000000E+00 0.0000E+00 0.9000E+01
       21  1    1    2  502  501 0.79844058E+01 0.12523670E+02 0.18249939E+03 0.18310429E+03 0.75000000E+00 0.0000E+00 0.9000E+01
#aMCatNLO 2  0  0  2  5 0.14763883D+01 0.00000000D+00  -5  6  0 0.00000000D+00 0.00000000D+00 0.00000000D+00 0.00000000D+00 0.00000000D+00
  <mgrwgt>
 0.2358915491D+00    1    2    0
 0.217995753027159D+03 0.000000000000000D+00 0.000000000000000D+00 0.217995753027159D+03
 0.217995753027159D+03 0.000000000000000D+00 0.000000000000000D+00 -.217995753027159D+03
 0.212903334544796D+03 0.111940406418204D+03 0.983919230102215D+02 -.865517461266455D+02
 0.199057814838556D+03 -.120913833797718D+03 -.110097659103087D+03 0.675804155111456D+02
 0.000000000000000D+00 0.000000000000000D+00 -.000000000000000D+00 -.000000000000000D+00
 0.240303566709655D+02 0.897342737951339D+01 0.117057360928654D+02 0.189713306154999D+02
 0.220258974227292D+03 0.000000000000000D+00 0.000000000000000D+00 0.220258974227292D+03
 0.287649845463255D+03 0.000000000000000D+00 0.000000000000000D+00 -.287649845463255D+03
 0.211990501983659D+03 0.103245645504691D+03 0.105660327739564D+03 -.865517461266455D+02
 0.200523928813256D+03 -.129090623922148D+03 -.103262253207235D+03 0.675804155111456D+02
 0.712965619872490D+02 0.178564159934485D+02 -.149271106758293D+02 -.673908712359626D+02
 0.240978269063835D+02 0.798856242400889D+01 0.125290361435001D+02 0.189713306154999D+02
0.983293081068D-04 0.000000000000D+00 0.000000000000D+00 0.446360606186D-04 0.241773102390D-07  6 1 21 25 23 1 21 4 0.28770416D+00 0.52122460D-02 0.44192999D+05 0.44192999D+05 0.44192999D+05 0.11976285D+01  1  2  1  5  5  2       -1 0.235891549114D+00 0.100000000000D+01
  </mgrwgt>
  </event>
  <event>
  5     66 0.47055975E-03 0.22213013E+02 0.75467711E-02 0.11422446E+00
        3 -1    0    0  502    0 0.00000000E+00 0.00000000E+00 0.24031582E+03 0.24031634E+03 0.50000000E+00 0.0000E+00 0.9000E+01
       -3 -1    0    0    0  501 0.00000000E+00 0.00000000E+00 -.23676829E+03 0.23676882E+03 0.50000000E+00 0.0000E+00 0.9000E+01
       25  1    1    2    0    0 0.90029686E+02 0.12550426E+03 -.53044018E+01 0.19877072E+03 0.12500000E+03 0.0000E+00 0.9000E+01
       23  1    1    2    0    0 -.10539293E+03 -.10946200E+03 0.86750011E+02 0.19730792E+03 0.91188000E+02 0.0000E+00 0.9000E+01
       21  1    1    2  502  501 0.15363241E+02 -.16042263E+02 -.77898078E+02 0.81006521E+02 0.75000000E+00 0.0000E+00 0.9000E+01
#aMCatNLO 1  0  0  5  1 0.14653474D+02 0.00000000D+00  -5  6  0 0.00000000D+00 0.00000000D+00 0.00000000D+00 0.00000000D+00 0.00000000D+00
  <mgrwgt>
 0.2624646668D-01   15    2    0
 0.238535986689249D+03 0.000000000000000D+00 0.000000000000000D+00 0.238535986689249D+03
 0.238535986689249D+03 -.000000000000000D+00 -.000000000000000D+00 -.238535986689249D+03
 0.198815672529977D+03 0.900294158324263D+02 0.125504544843111D+03 -.678123529620284D+01
 0.196668875523514D+03 -.105393194730957D+03 -.109461719670475D+03 0.852865856208845D+02
 0.815874253250077D+02 0.153637788985304D+02 -.160428251726364D+02 -.785053503246817D+02
 0.000000000000000D+00 0.000000000000000D+00 -.000000000000000D+00 0.000000000000000D+00
 0.238535986689249D+03 0.000000000000000D+00 0.000000000000000D+00 0.238535986689249D+03
 0.238535986689249D+03 -.000000000000000D+00 -.000000000000000D+00 -.238535986689249D+03
 0.198829620674015D+03 0.907530852035938D+02 0.124748890828489D+03 -.104790181058855D+02
 0.195151694640272D+03 -.104680125695646D+03 -.110206304836993D+03 0.816429680712900D+02
 0.181235378634111D+02 -.545387454100464D+01 0.989245506291575D+01 -.141724101692574D+02
 0.649671202007998D+02 0.193809150330565D+02 -.244350410544121D+02 -.569915397961471D+02
0.815167093623D-03 0.000000000000D+00 0.000000000000D+00 0.238174333852D-04 0.000000000000D+00  6 3 -3 25 23 21 21 2 0.36971746D-01 0.36425972D-01 0.39626302D+05 0.39626302D+05 0.39626302D+05 0.12024144D+01  1  2  2  3  6  5       21 0.154784873427D-01 0.100000000000D+01
0.193153975646D-03 0.430175493709D-04 -.313045627794D-05 0.238174333852D-04 0.000000000000D+00  6 3 -3 25 23 21 21 4 0.36971746D-01 0.36425972D-01 0.39626302D+05 0.39626302D+05 0.39626302D+05 0.12024144D+01  1  2  3  3  6  5       21 0.530266139260D-02 0.100000000000D+01
0.202462182082D-05 0.000000000000D+00 0.000000000000D+00 0.238174333852D-04 0.000000000000D+00  6 3 -3 25 23 21 21 4 0.36971746D-01 0.36425972D-01 0.39626302D+05 0.39626302D+05 0.39626302D+05 0.12024144D+01  1  2 15  3  6  5       21 0.555819983926D-04 0.100000000000D+01
0.826200931442D-04 0.000000000000D+00 0.000000000000D+00 0.236458854457D-04 0.000000000000D+00  6 3 -3 25 23 21 21 4 0.36971746D-01 0.36425972D-01 0.43741735D+05 0.43741735D+05 0.43741735D+05 0.11980763D+01  1  2 12  3  6  5       21 0.224582548933D-02 0.100000000000D+01
-.496450765415D-03 0.000000000000D+00 0.000000000000D+00 0.238174333852D-04 0.000000000000D+00  6 3 -3 25 23 21 21 4 0.36971746D-01 0.36425972D-01 0.39626302D+05 0.39626302D+05 0.39626302D+05 0.12024144D+01  1  2  4  3  6  5       21 -.136290764831D-01 0.100000000000D+01
-.113075332592D-03 0.000000000000D+00 0.000000000000D+00 0.238174333852D-04 0.000000000000D+00  6 3 -3 25 23 21 21 4 0.36971746D-01 0.36425972D-01 0.39626302D+05 0.39626302D+05 0.39626302D+05 0.12024144D+01  1  2  5  3  6  5       21 -.310426020789D-02 0.100000000000D+01
0.723696418248D-03 0.000000000000D+00 -.000000000000D+00 0.238174333852D-04 0.000000000000D+00  6 3 -3 25 23 21 21 4 0.36971746D-01 0.36425972D-01 0.39626302D+05 0.39626302D+05 0.39626302D+05 0.12024144D+01  1  2  6  3  6  5       21 0.198676576248D-01 0.100000000000D+01
0.150794257290D-04 0.000000000000D+00 0.000000000000D+00 0.236458854457D-04 0.000000000000D+00  6 3 -3 25 23 3 -3 4 0.36971746D-01 0.36425972D-01 0.43741735D+05 0.43741735D+05 0.43741735D+05 0.11980763D+01  1  2 12  6  6  5       21 0.409897367309D-03 0.100000000000D+01
-.146614061619D-04 0.000000000000D+00 0.000000000000D+00 0.238174333852D-04 0.000000000000D+00  6 3 -3 25 23 3 -3 4 0.36971746D-01 0.36425972D-01 0.39626302D+05 0.39626302D+05 0.39626302D+05 0.12024144D+01  1  2  5  6  6  5       21 -.402499985599D-03 0.100000000000D+01
0.150794257290D-04 0.000000000000D+00 0.000000000000D+00 0.236458854457D-04 0.000000000000D+00  6 3 -3 25 23 2 -2 4 0.36971746D-01 0.36425972D-01 0.43741735D+05 0.43741735D+05 0.43741735D+05 0.11980763D+01  1  2 12  7  6  5       21 0.409897367309D-03 0.100000000000D+01
0.150794257290D-04 0.000000000000D+00 0.000000000000D+00 0.236458854457D-04 0.000000000000D+00  6 3 -3 25 23 4 -4 4 0.36971746D-01 0.36425972D-01 0.43741735D+05 0.43741735D+05 0.43741735D+05 0.11980763D+01  1  2 12  7  6  5       21 0.409897367309D-03 0.100000000000D+01
-.146614061619D-04 0.000000000000D+00 0.000000000000D+00 0.238174333852D-04 0.000000000000D+00  6 3 -3 25 23 2 -2 4 0.36971746D-01 0.36425972D-01 0.39626302D+05 0.39626302D+05 0.39626302D+05 0.12024144D+01  1  2  5  7  6  5       21 -.402499985599D-03 0.100000000000D+01
-.146614061619D-04 0.000000000000D+00 0.000000000000D+00 0.238174333852D-04 0.000000000000D+00  6 3 -3 25 23 4 -4 4 0.36971746D-01 0.36425972D-01 0.39626302D+05 0.39626302D+05 0.39626302D+05 0.12024144D+01  1  2  5  7  6  5       21 -.402499985599D-03 0.100000000000D+01
0.150794257290D-04 0.000000000000D+00 0.000000000000D+00 0.236458854457D-04 0.000000000000D+00  6 3 -3 25 23 1 -1 4 0.36971746D-01 0.36425972D-01 0.43741735D+05 0.43741735D+05 0.43741735D+05 0.11980763D+01  1  2 12  8  6  5       21 0.409897367309D-03 0.100000000000D+01
-.146614061619D-04 0.000000000000D+00 0.000000000000D+00 0.238174333852D-04 0.000000000000D+00  6 3 -3 25 23 1 -1 4 0.36971746D-01 0.36425972D-01 0.39626302D+05 0.39626302D+05 0.39626302D+05 0.12024144D+01  1  2  5  8  6  5       21 -.402499985599D-03 0.100000000000D+01
  </mgrwgt>
  </event>
  <event>
  5     66 -.47055975E-03 0.32417368E+02 0.75467711E-02 0.12288953E+00
        1 -1    0    0  502    0 0.00000000E+00 0.00000000E+00 0.11819724E+03 0.11819768E+03 0.32000000E+00 0.0000E+00 0.9000E+01
       -1 -1    0    0    0  501 0.00000000E+00 0.00000000E+00 -.20366649E+03 0.20366674E+03 0.32000000E+00 0.0000E+00 0.9000E+01
       25  1    1    2    0    0 -.17752579E+02 -.15201278E+02 -.62096199E+02 0.14151739E+03 0.12500000E+03 0.0000E+00 0.9000E+01
       23  1    1    2    0    0 -.12585714E+02 0.37819627E+01 -.75394705E+02 0.11904754E+03 0.91188000E+02 0.0000E+00 0.9000E+01
       21  1    1    2  502  501 0.30338293E+02 0.11419315E+02 0.52021657E+02 0.61299495E+02 0.75000000E+00 0.0000E+00 0.9000E+01
#aMCatNLO 1  0  0  1  5 0.67937254D+01 0.00000000D+00  -5  6  0 0.00000000D+00 0.00000000D+00 0.00000000D+00 0.00000000D+00 0.00000000D+00
  <mgrwgt>
 -.2798545810D+00   11    4    0
 0.155154530192793D+03 0.000000000000000D+00 0.000000000000000D+00 0.155154530192793D+03
 0.155154530192793D+03 0.000000000000000D+00 0.000000000000000D+00 -.155154530192793D+03
 0.129684298762617D+03 -.177531666103129D+02 -.152014988564225D+02 -.254314146947482D+02
 0.102715025157786D+03 -.125861795313806D+02 0.378178750905801D+01 -.454137778345385D+02
 0.779097364651834D+02 0.303393461416935D+02 0.114197113473644D+02 0.708451925292868D+02
 0.000000000000000D+00 0.000000000000000D+00 -.000000000000000D+00 0.000000000000000D+00
 0.197341880128064D+03 0.000000000000000D+00 0.000000000000000D+00 0.197341880128064D+03
 0.155465461797639D+03 0.000000000000000D+00 0.000000000000000D+00 -.155465461797639D+03
 0.129844527991124D+03 -.200855356838530D+02 -.135799798289337D+02 -.254314146947482D+02
 0.103013150854852D+03 -.144350455756254D+02 0.506716361185060D+01 -.454137778345385D+02
 0.775257415591492D+02 0.289424573782773D+02 0.123908619833685D+02 0.708451925292868D+02
 0.424239215205785D+02 0.557812388120105D+01 -.387804576628539D+01 0.418764183304252D+02
 0.155154530192793D+03 0.000000000000000D+00 0.000000000000000D+00 0.155154530192793D+03
 0.155154530192793D+03 0.000000000000000D+00 0.000000000000000D+00 -.155154530192793D+03
 0.129684298762617D+03 -.177531666103129D+02 -.152014988564225D+02 -.254314146947482D+02
 0.102715025157786D+03 -.125861795313806D+02 0.378178750905801D+01 -.454137778345385D+02
 0.000000000000000D+00 0.000000000000000D+00 -.000000000000000D+00 0.000000000000000D+00
 0.779097364651834D+02 0.303393461416935D+02 0.114197113473644D+02 0.708451925292868D+02
 0.197341880128064D+03 0.000000000000000D+00 0.000000000000000D+00 0.197341880128064D+03
 0.155465461797639D+03 0.000000000000000D+00 0.000000000000000D+00 -.155465461797639D+03
 0.129844527991124D+03 -.200855356838530D+02 -.135799798289337D+02 -.254314146947482D+02
 0.103013150854852D+03 -.144350455756254D+02 0.506716361185060D+01 -.454137778345385D+02
 0.424239215205785D+02 0.557812388120105D+01 -.387804576628539D+01 0.418764183304252D+02
 0.775257415591492D+02 0.289424573782773D+02 0.123908619833685D+02 0.708451925292868D+02
0.133741631600D-04 0.000000000000D+00 0.000000000000D+00 0.231824960724D-04 0.000000000000D+00  6 1 -1 25 23 21 21 2 0.18184244D-01 0.31333359D-01 0.15839958D+05 0.15839958D+05 0.15839958D+05 0.12451339D+01  1  2  2  1  6  1        1 0.548329836415D-02 0.100000000000D+01
0.792713972010D-06 0.705773979999D-06 -.513603080325D-07 0.231824960724D-04 0.000000000000D+00  6 1 -1 25 23 21 21 4 0.18184244D-01 0.31333359D-01 0.15839958D+05 0.15839958D+05 0.15839958D+05 0.12451339D+01  1  2  3  1  6  1        1 0.503876285652D-03 0.100000000000D+01
0.584511339818D-06 0.000000000000D+00 0.000000000000D+00 0.231824960724D-04 0.000000000000D+00  6 1 -1 25 23 21 21 4 0.18184244D-01 0.31333359D-01 0.15839958D+05 0.15839958D+05 0.15839958D+05 0.12451339D+01  1  2 15  1  6  1        1 0.371535526342D-03 0.100000000000D+01
0.794460418358D-03 0.000000000000D+00 0.000000000000D+00 0.230915348962D-04 0.000000000000D+00  6 1 -1 25 23 21 21 4 0.23987053D-01 0.31333359D-01 0.16649918D+05 0.16649918D+05 0.16649918D+05 0.12426888D+01  1  2 12  1  6  1        1 0.353278949226D+00 0.100000000000D+01
-.127393965865D-02 0.000000000000D+00 0.000000000000D+00 0.231824960724D-04 0.000000000000D+00  6 1 -1 25 23 21 21 4 0.18184244D-01 0.31333359D-01 0.15839958D+05 0.15839958D+05 0.15839958D+05 0.12451339D+01  1  2  4  1  6  1        1 -.809759895766D+00 0.100000000000D+01
-.104274175239D-02 0.000000000000D+00 -.165919443530D-04 0.231824960724D-04 0.000000000000D+00  6 1 -1 25 23 21 21 4 0.23151392D-01 0.31333359D-01 0.15839958D+05 0.15839958D+05 0.15839958D+05 0.12451339D+01  1  2  5  1  6  1        1 -.488163114533D+00 0.100000000000D+01
0.101740796385D-02 0.000000000000D+00 0.161195922666D-04 0.231824960724D-04 0.000000000000D+00  6 1 -1 25 23 21 21 4 0.18184244D-01 0.31333359D-01 0.15839958D+05 0.15839958D+05 0.15839958D+05 0.12451339D+01  1  2  6  1  6  1        1 0.646699520786D+00 0.100000000000D+01
0.692033303888D-04 0.000000000000D+00 0.000000000000D+00 0.231824960724D-04 0.317537819061D-05  6 1 -1 25 23 21 21 4 0.23128638D-01 0.31396151D-01 0.16649918D+05 0.16649918D+05 0.16649918D+05 0.12426888D+01  1  2 11  1  6  1        1 0.321072431175D-01 0.100000000000D+01
0.289815069870D-04 0.000000000000D+00 0.000000000000D+00 0.230915348962D-04 0.000000000000D+00  6 21 -1 25 23 -1 21 4 0.23987053D-01 0.31333359D-01 0.16649918D+05 0.16649918D+05 0.16649918D+05 0.12426888D+01  3  4 12  4  5  1        1 0.985212564414D-01 0.100000000000D+01
-.341355197633D-04 0.000000000000D+00 -.547338707913D-06 0.231824960724D-04 0.000000000000D+00  6 21 -1 25 23 -1 21 4 0.23151392D-01 0.31333359D-01 0.15839958D+05 0.15839958D+05 0.15839958D+05 0.12451339D+01  3  4  5  4  5  1        1 -.125002361106D+00 0.100000000000D+01
0.168276535303D-05 0.000000000000D+00 0.000000000000D+00 0.231824960724D-04 0.154343807596D-06  6 21 -1 25 23 -1 21 4 0.23128638D-01 0.31396151D-01 0.16649918D+05 0.16649918D+05 0.16649918D+05 0.12426888D+01  3  4 11  4  5  1        1 0.610511065521D-02 0.100000000000D+01
  </mgrwgt>
  </event>
  <event>
  5     66 0.47055975E-03 0.43709107E+02 0.75467711E-02 0.10010209E+00
        1 -1    0    0  502    0 0.00000000E+00 0.00000000E+00 0.84765592E+03 0.84765598E+03 0.32000000E+00 0.0000E+00 0.9000E+01
       -1 -1    0    0    0  501 0.00000000E+00 0.00000000E+00 -.85903599E+02 0.85904195E+02 0.32000000E+00 0.0000E+00 0.9000E+01
       25  1    1    2    0    0 -.84343555E+01 0.61476160E+02 0.22219710E+03 0.26238714E+03 0.12500000E+03 0.0000E+00 0.9000E+01
       23  1    1    2    0    0 0.14054457E+02 -.18130114E+02 -.30952738E+02 0.98992687E+02 0.91188000E+02 0.0000E+00 0.9000E+01
       21  1    1    2  502  501 -.56201010E+01 -.43346046E+02 0.57050795E+03 0.57218035E+03 0.75000000E+00 0.0000E+00 0.9000E+01
#aMCatNLO 1  0  0  1  5 0.67937254D+01 0.00000000D+00  -5  6  0 0.00000000D+00 0.00000000D+00 0.00000000D+00 0.00000000D+00 0.00000000D+00
  <mgrwgt>
 0.9877024024D-01    5    4    0
 0.269846253973347D+03 0.000000000000000D+00 0.000000000000000D+00 0.269846253973347D+03
 0.269846253973347D+03 0.000000000000000D+00 0.000000000000000D+00 -.269846253973347D+03
 0.140255834051911D+03 -.843434342374111D+01 0.614762530632276D+02 0.140082527787549D+02
 0.214926517035710D+03 0.140544750009973D+02 -.181299715436247D+02 -.193266479880436D+03
 0.184510156859074D+03 -.562013157725617D+01 -.433462815196029D+02 0.179258227101681D+03
 0.000000000000000D+00 -.000000000000000D+00 -.000000000000000D+00 0.000000000000000D+00
 0.892211168653962D+03 0.000000000000000D+00 0.000000000000000D+00 0.892211168653962D+03
 0.509468882297043D+03 0.000000000000000D+00 0.000000000000000D+00 -.509468882297043D+03
 0.253704051567685D+03 0.124573093861814D+02 0.219975748842462D+03 0.140082527787549D+02
 0.283988596781841D+03 0.405118929259374D+02 0.182595525805814D+03 -.193266479880436D+03
 0.214791240242186D+03 0.155547810452222D+02 0.117302232236960D+03 0.179258227101681D+03
 0.649196162359293D+03 -.685239833573410D+02 -.519873506885237D+03 0.382742286356919D+03
 0.269846253973347D+03 0.000000000000000D+00 0.000000000000000D+00 0.269846253973347D+03
 0.269846253973347D+03 0.000000000000000D+00 0.000000000000000D+00 -.269846253973347D+03
 0.140255834051911D+03 -.843434342374111D+01 0.614762530632276D+02 0.140082527787549D+02
 0.214926517035710D+03 0.140544750009973D+02 -.181299715436247D+02 -.193266479880436D+03
 0.000000000000000D+00 -.000000000000000D+00 -.000000000000000D+00 0.000000000000000D+00
 0.184510156859074D+03 -.562013157725617D+01 -.433462815196029D+02 0.179258227101681D+03
 0.892211168653962D+03 0.000000000000000D+00 0.000000000000000D+00 0.892211168653962D+03
 0.509468882297043D+03 0.000000000000000D+00 0.000000000000000D+00 -.509468882297043D+03
 0.253704051567685D+03 0.124573093861814D+02 0.219975748842462D+03 0.140082527787549D+02
 0.283988596781841D+03 0.405118929259374D+02 0.182595525805814D+03 -.193266479880436D+03
 0.649196162359293D+03 -.685239833573410D+02 -.519873506885237D+03 0.382742286356919D+03
 0.214791240242186D+03 0.155547810452222D+02 0.117302232236960D+03 0.179258227101681D+03
0.653932950828D-03 0.000000000000D+00 0.000000000000D+00 0.863019135388D-05 0.000000000000D+00  6 1 -1 25 23 21 21 2 0.13040865D+00 0.13215989D-01 0.19222819D+05 0.19222819D+05 0.19222819D+05 0.12357255D+01  1  2  2  1  6  1        1 0.832149765973D-01 0.100000000000D+01
0.375400980367D-04 0.345089898962D-04 -.251127471568D-05 0.863019135388D-05 0.000000000000D+00  6 1 -1 25 23 21 21 4 0.13040865D+00 0.13215989D-01 0.19222819D+05 0.19222819D+05 0.19222819D+05 0.12357255D+01  1  2  3  1  6  1        1 0.729470492123D-02 0.100000000000D+01
0.288531621425D-04 0.000000000000D+00 0.000000000000D+00 0.863019135388D-05 0.000000000000D+00  6 1 -1 25 23 21 21 4 0.13040865D+00 0.13215989D-01 0.19222819D+05 0.19222819D+05 0.19222819D+05 0.12357255D+01  1  2 15  1  6  1        1 0.560667965407D-02 0.100000000000D+01
0.784566153240D-03 0.000000000000D+00 -.431258363364D-03 0.863019135388D-05 0.000000000000D+00  6 1 -1 25 23 21 21 4 0.53691761D+00 0.13215989D-01 0.19222819D+05 0.19222819D+05 0.19222819D+05 0.12357255D+01  1  2  5  1  6  1        1 0.252552728772D-02 0.100000000000D+01
0.135939428524D-03 0.000000000000D+00 -.730978762586D-04 0.863019135388D-05 0.000000000000D+00  6 21 -1 25 23 -1 21 4 0.53691761D+00 0.13215989D-01 0.19222819D+05 0.19222819D+05 0.19222819D+05 0.12357255D+01  3  4  5  4  5  1        1 0.128351783742D-03 0.100000000000D+01
  </mgrwgt>
  </event>
  <event>
  6     66 0.47055975E-03 0.14399580E+03 0.75467711E-02 0.10947058E+00
        1 -1    0    0  502    0 0.00000000E+00 0.00000000E+00 0.60522164E+03 0.60522172E+03 0.32000000E+00 0.0000E+00 0.9000E+01
       -1 -1    0    0    0  503 0.00000000E+00 0.00000000E+00 -.45909459E+03 0.45909470E+03 0.32000000E+00 0.0000E+00 0.9000E+01
       25  1    1    2    0    0 -.57988214E+01 -.85347033E+02 0.45353202E+03 0.47815691E+03 0.12500000E+03 0.0000E+00 0.9000E+01
       23  1    1    2    0    0 -.93747377E+02 0.21293620E+03 -.16705394E+02 0.25044903E+03 0.91188000E+02 0.0000E+00 0.9000E+01
       21  1    1    2  502  501 0.94725675E+02 -.11641150E+03 -.23609589E+03 0.27976137E+03 0.75000000E+00 0.0000E+00 0.9000E+01
       21  1    1    2  501  503 0.48205234E+01 -.11177661E+02 -.54603684E+02 0.55949105E+02 0.75000000E+00 0.0000E+00 0.9000E+01
#aMCatNLO 2  0  0  2  5 0.12172820D+02 0.00000000D+00  -5  6  0 0.00000000D+00 0.00000000D+00 0.00000000D+00 0.00000000D+00 0.00000000D+00
  <mgrwgt>
 0.7557182371D+00    2    2    0
 0.494055572750795D+03 0.000000000000000D+00 0.000000000000000D+00 0.494055572750795D+03
 0.494055572750795D+03 0.000000000000000D+00 0.000000000000000D+00 -.494055572750795D+03
 0.396763323620034D+03 -.386573286240967D+01 -.898295148884631D+02 0.365666308721977D+03
 0.256110759540711D+03 -.924911017569364D+02 0.210023123153633D+03 -.679202005672966D+02
 0.335237062340845D+03 0.963568346193460D+02 -.120193608265170D+03 -.297746108154680D+03
 0.000000000000000D+00 0.000000000000000D+00 -.000000000000000D+00 -.000000000000000D+00
 0.494640802085301D+03 0.000000000000000D+00 0.000000000000000D+00 0.494640802085301D+03
 0.561724317898962D+03 0.000000000000000D+00 0.000000000000000D+00 -.561724317898962D+03
 0.395796123968283D+03 -.579891944210765D+01 -.853469094183503D+02 0.365666308721977D+03
 0.258957226100134D+03 -.937474397143008D+02 0.212936275696246D+03 -.679202005672966D+02
 0.333432772794582D+03 0.947258357643502D+02 -.116411705128695D+03 -.297746108154680D+03
 0.681789971212648D+02 0.482052339205819D+01 -.111776611492010D+02 -.670835158136609D+02
-.435625500007D-01 0.000000000000D+00 0.000000000000D+00 0.423917605630D-06 0.000000000000D+00  6 1 -1 25 23 21 21 4 0.93000485D-01 0.71641542D-01 0.79415450D+05 0.79415450D+05 0.79415450D+05 0.11728802D+01  1  2 13  2  6  2       -1 -.593977433445D+00 0.100000000000D+01
0.963497814387D-01 0.000000000000D+00 0.000000000000D+00 0.424833575127D-06 0.307276030072D-07  6 1 -1 25 23 21 21 4 0.93110648D-01 0.70629657D-01 0.79415450D+05 0.79415450D+05 0.79415450D+05 0.11728802D+01  1  2  1  2  6  2       -1 0.134969567055D+01 0.100000000000D+01
  </mgrwgt>
  </event>
  <event>
  5     66 0.47055975E-03 0.22490823E+02 0.75467711E-02 0.10858730E+00
        3 -1    0    0  502    0 0.00000000E+00 0.00000000E+00 0.14562670E+03 0.14562756E+03 0.50000000E+00 0.0000E+00 0.9000E+01
       -3 -1    0    0    0  501 0.00000000E+00 0.00000000E+00 -.38272468E+03 0.38272501E+03 0.50000000E+00 0.0000E+00 0.9000E+01
       25  1    1    2    0    0 0.94788866E+02 -.10006425E+02 0.72924953E+02 0.17328620E+03 0.12500000E+03 0.0000E+00 0.9000E+01
       23  1    1    2    0    0 -.11510725E+03 0.38760771E+00 -.28951007E+03 0.32462465E+03 0.91188000E+02 0.0000E+00 0.9000E+01
       21  1    1    2  502  501 0.20318389E+02 0.96188174E+01 -.20512862E+02 0.30441724E+02 0.75000000E+00 0.0000E+00 0.9000E+01
#aMCatNLO 1  0  0  2  5 0.79748251D+02 0.00000000D+00  -5  6  0 0.00000000D+00 0.00000000D+00 0.00000000D+00 0.00000000D+00 0.00000000D+00
  <mgrwgt>
 0.5816977633D-01    5    4    0
 0.236083135206914D+03 0.000000000000000D+00 0.000000000000000D+00 0.236083135206914D+03
 0.236083135206914D+03 0.000000000000000D+00 0.000000000000000D+00 -.236083135206914D+03
 0.230525359824709D+03 0.947839215062821D+02 -.100087657514652D+02 0.168620207431775D+03
 0.217877832548205D+03 -.115111927862956D+03 0.385395460637141D+00 -.160949041954018D+03
 0.237630780409129D+02 0.203280063566743D+02 0.962337029082805D+01 -.767116547775744D+01
 0.000000000000000D+00 0.000000000000000D+00 -.000000000000000D+00 -.000000000000000D+00
 0.355077229282064D+03 0.000000000000000D+00 0.000000000000000D+00 0.355077229282064D+03
 0.373783053389368D+03 0.000000000000000D+00 0.000000000000000D+00 -.373783053389368D+03
 0.227801088496249D+03 0.468244057229402D+02 0.751201477263872D+02 0.168620207431775D+03
 0.264012937122855D+03 -.165537226377917D+03 0.898911130280768D+02 -.160949041954018D+03
 0.253141597403077D+02 0.151925388998126D+02 0.187389077949693D+02 -.767116547775744D+01
 0.211732097312021D+03 0.103520281755164D+03 -.183750168549433D+03 -.187058241073043D+02
 0.236083135206914D+03 0.000000000000000D+00 0.000000000000000D+00 0.236083135206914D+03
 0.236083135206914D+03 0.000000000000000D+00 0.000000000000000D+00 -.236083135206914D+03
 0.230525359824709D+03 0.947839215062821D+02 -.100087657514652D+02 0.168620207431775D+03
 0.217877832548205D+03 -.115111927862956D+03 0.385395460637141D+00 -.160949041954018D+03
 0.000000000000000D+00 0.000000000000000D+00 -.000000000000000D+00 -.000000000000000D+00
 0.237630780409129D+02 0.203280063566743D+02 0.962337029082805D+01 -.767116547775744D+01
 0.355077229282064D+03 0.000000000000000D+00 0.000000000000000D+00 0.355077229282064D+03
 0.373783053389368D+03 0.000000000000000D+00 0.000000000000000D+00 -.373783053389368D+03
 0.227801088496249D+03 0.468244057229402D+02 0.751201477263872D+02 0.168620207431775D+03
 0.264012937122855D+03 -.165537226377917D+03 0.898911130280768D+02 -.160949041954018D+03
 0.211732097312021D+03 0.103520281755164D+03 -.183750168549433D+03 -.187058241073043D+02
 0.253141597403077D+02 0.151925388998126D+02 0.187389077949693D+02 -.767116547775744D+01
0.190879024499D-02 0.000000000000D+00 0.000000000000D+00 0.111531075286D-04 0.000000000000D+00  6 3 -3 25 23 21 21 2 0.22404199D-01 0.58880811D-01 0.26656525D+05 0.26656525D+05 0.26656525D+05 0.12203216D+01  1  2  2  2  6  2       -3 0.356823170938D-01 0.100000000000D+01
0.487377364274D-03 0.100729628618D-03 -.733025713676D-05 0.111531075286D-04 0.000000000000D+00  6 3 -3 25 23 21 21 4 0.22404199D-01 0.58880811D-01 0.26656525D+05 0.26656525D+05 0.26656525D+05 0.12203216D+01  1  2  3  2  6  2       -3 0.135677790372D-01 0.100000000000D+01
0.224829451723D-04 0.000000000000D+00 0.000000000000D+00 0.111531075286D-04 0.000000000000D+00  6 3 -3 25 23 21 21 4 0.22404199D-01 0.58880811D-01 0.26656525D+05 0.26656525D+05 0.26656525D+05 0.12203216D+01  1  2 15  2  6  2       -3 0.625887976265D-03 0.100000000000D+01
0.212586927730D-03 0.000000000000D+00 -.103920900604D-02 0.111531075286D-04 0.000000000000D+00  6 3 -3 25 23 21 21 4 0.22404199D-01 0.13028402D+00 0.26656525D+05 0.26656525D+05 0.26656525D+05 0.12203216D+01  1  2  5  2  6  2       -3 0.101126332181D-02 0.100000000000D+01
0.838437732329D-04 0.000000000000D+00 -.894967555666D-04 0.111531075286D-04 0.000000000000D+00  6 3 21 25 23 3 21 4 0.22404199D-01 0.13028402D+00 0.26656525D+05 0.26656525D+05 0.26656525D+05 0.12203216D+01  3  4  5  5  5  2       -3 0.728252890414D-02 0.100000000000D+01
  </mgrwgt>
  </event>
</LesHouchesEvents>
