<event>
 5    0  0.2306346E+000  0.2400262E+03  0.7546771E-02  0.1119775E+00
         21   -1    0    0  503  502  0.00000000000E+00  0.00000000000E+00  0.10854676823E+03  0.10854676823E+03  0.00000000000E+00 0.  1.
          2   -1    0    0  502    0 -0.00000000000E+00 -0.00000000000E+00 -0.11602257334E+04  0.11602257334E+04  0.00000000000E+00 0.  1.
         25    1    1    2    0    0 -0.20479459905E+03  0.10143117591E+03 -0.18431026228E+03  0.31909933254E+03  0.12500000000E+03 0.  0.
         21    1    1    2  503  501  0.24573481198E+02 -0.12464657158E+02  0.23623071648E+02  0.36294258090E+02  0.00000000000E+00 0.  1.
          2    1    1    2  501    0  0.18022111785E+03 -0.88966518753E+02 -0.89099177450E+03  0.91337891097E+03  0.00000000000E+00 0.  1.
<mgrwt>
<rscale>  4 0.24002619E+03</rscale>
<asrwt>0</asrwt>
<pdfrwt beam="1">  1       21 0.16699504E-01 0.24002619E+03</pdfrwt>
<pdfrwt beam="2">  1        2 0.17849626E+00 0.24002619E+03</pdfrwt>
<totfact> 0.85372849E+03</totfact>
</mgrwt>
</event>
<event>
 5    0  0.2306346E+000  0.3086641E+03  0.7546771E-02  0.1080988E+00
          2   -1    0    0  502    0 -0.00000000000E+00  0.00000000000E+00  0.10114667337E+04  0.10114667337E+04  0.00000000000E+00 0.  1.
         21   -1    0    0  503  502  0.00000000000E+00 -0.00000000000E+00 -0.29757826526E+03  0.29757826526E+03  0.00000000000E+00 0.  1.
         25    1    1    2    0    0 -0.41792550411E+01  0.30015003410E+03 -0.85409677549E+02  0.33619536309E+03  0.12500000000E+03 0.  0.
         21    1    1    2  503  501  0.19382831017E+02 -0.20171844639E+02 -0.61485257773E+02  0.67550235957E+02  0.00000000000E+00 0.  1.
          2    1    1    2  501    0 -0.15203575976E+02 -0.27997818946E+03  0.86078340379E+03  0.90529939994E+03  0.00000000000E+00 0.  1.
<mgrwt>
<rscale>  4 0.30866410E+03</rscale>
<asrwt>0</asrwt>
<pdfrwt beam="1">  1       21 0.45781272E-01 0.30866410E+03</pdfrwt>
<pdfrwt beam="2">  1        2 0.15561026E+00 0.30866410E+03</pdfrwt>
<totfact> 0.14281306E+03</totfact>
</mgrwt>
</event>
<event>
 5    0  0.2306346E+000  0.2721867E+03  0.7546771E-02  0.1100035E+00
         21   -1    0    0  503  502  0.00000000000E+00  0.00000000000E+00  0.12686087598E+03  0.12686087598E+03  0.00000000000E+00 0.  1.
          2   -1    0    0  502    0 -0.00000000000E+00 -0.00000000000E+00 -0.16646517866E+04  0.16646517866E+04  0.00000000000E+00 0.  1.
         25    1    1    2    0    0  0.63196523077E+02 -0.22916802103E+03 -0.13419725539E+04  0.13685858094E+04  0.12500000000E+03 0.  0.
         21    1    1    2  503  501 -0.13472650796E+02  0.24230169970E+03 -0.24329775475E+02  0.24389252546E+03  0.00000000000E+00 0.  1.
          2    1    1    2  501    0 -0.49723872281E+02 -0.13133678671E+02 -0.17148858126E+03  0.17903432769E+03  0.00000000000E+00 0.  1.
<mgrwt>
<rscale>  4 0.27218673E+03</rscale>
<asrwt>0</asrwt>
<pdfrwt beam="1">  1       21 0.19517058E-01 0.27218673E+03</pdfrwt>
<pdfrwt beam="2">  1        2 0.25610027E+00 0.27218673E+03</pdfrwt>
<totfact> 0.33538700E+03</totfact>
</mgrwt>
</event>
<event>
 5    0  0.2306346E+000  0.2180159E+03  0.7546771E-02  0.1135371E+00
         21   -1    0    0  503  502  0.00000000000E+00  0.00000000000E+00  0.69037974287E+03  0.69037974287E+03  0.00000000000E+00 0. -1.
          2   -1    0    0  502    0 -0.00000000000E+00 -0.00000000000E+00 -0.80105988988E+03  0.80105988988E+03  0.00000000000E+00 0.  1.
         25    1    1    2    0    0  0.77886974859E+01  0.23920349847E+03  0.51683255338E+03  0.58311222395E+03  0.12500000000E+03 0.  0.
         21    1    1    2  503  501  0.47978796019E+02 -0.70535168745E+02  0.11594159428E+03  0.14394314218E+03  0.00000000000E+00 0. -1.
          2    1    1    2  501    0 -0.55767493504E+02 -0.16866832972E+03 -0.74345429467E+03  0.76438426661E+03  0.00000000000E+00 0.  1.
<mgrwt>
<rscale>  4 0.21801591E+03</rscale>
<asrwt>0</asrwt>
<pdfrwt beam="1">  1       21 0.10621227E+00 0.21801591E+03</pdfrwt>
<pdfrwt beam="2">  1        2 0.12323998E+00 0.21801591E+03</pdfrwt>
<totfact> 0.31269970E+02</totfact>
</mgrwt>
</event>
<event>
 5    0  0.2306346E+000  0.3298964E+03  0.7546771E-02  0.1071183E+00
          1   -1    0    0  502    0 -0.00000000000E+00  0.00000000000E+00  0.12621993129E+04  0.12621993129E+04  0.00000000000E+00 0. -1.
         21   -1    0    0  503  502  0.00000000000E+00 -0.00000000000E+00 -0.88331016644E+02  0.88331016644E+02  0.00000000000E+00 0. -1.
         25    1    1    2    0    0 -0.48495574862E+02  0.30142136073E+03  0.45856013818E+03  0.56489738698E+03  0.12500000000E+03 0.  0.
         21    1    1    2  503  501  0.69157776531E+02 -0.23246321037E+03  0.45560633317E+03  0.51613861806E+03  0.00000000000E+00 0. -1.
          1    1    1    2  501    0 -0.20662201669E+02 -0.68958150360E+02  0.25970182491E+03  0.26949432451E+03  0.00000000000E+00 0. -1.
<mgrwt>
<rscale>  4 0.32989643E+03</rscale>
<asrwt>0</asrwt>
<pdfrwt beam="1">  1       21 0.13589388E-01 0.32989643E+03</pdfrwt>
<pdfrwt beam="2">  1        1 0.19418450E+00 0.32989643E+03</pdfrwt>
<totfact> 0.52680734E+03</totfact>
</mgrwt>
</event>
<event>
 5    0  0.2306346E+000  0.2303831E+03  0.7546771E-02  0.1126370E+00
          2   -1    0    0  502    0 -0.00000000000E+00  0.00000000000E+00  0.11522850503E+04  0.11522850503E+04  0.00000000000E+00 0.  1.
         21   -1    0    0  503  502  0.00000000000E+00 -0.00000000000E+00 -0.57854023597E+02  0.57854023597E+02  0.00000000000E+00 0. -1.
         25    1    1    2    0    0 -0.20880220058E+03 -0.46371271557E+02  0.38167659731E+03  0.45502821750E+03  0.12500000000E+03 0.  0.
         21    1    1    2  503  501  0.24095316321E+02  0.18467546378E+02  0.17165503049E+02  0.34875335593E+02  0.00000000000E+00 0. -1.
          2    1    1    2  501    0  0.18470688426E+03  0.27903725179E+02  0.69558892637E+03  0.72023552082E+03  0.00000000000E+00 0.  1.
<mgrwt>
<rscale>  4 0.23038314E+03</rscale>
<asrwt>0</asrwt>
<pdfrwt beam="1">  1       21 0.89006198E-02 0.23038314E+03</pdfrwt>
<pdfrwt beam="2">  1        2 0.17727461E+00 0.23038314E+03</pdfrwt>
<totfact> 0.26858936E+04</totfact>
</mgrwt>
</event>
<event>
 5    0  0.2551578E+000  0.1779451E+03  0.7546771E-02  0.1169807E+00
         21   -1    0    0  503  502  0.00000000000E+00  0.00000000000E+00  0.46364976597E+03  0.46364976597E+03  0.00000000000E+00 0. -1.
          1   -1    0    0  502    0 -0.00000000000E+00 -0.00000000000E+00 -0.11934065068E+04  0.11934065068E+04  0.00000000000E+00 0. -1.
         25    1    1    2    0    0 -0.19315868532E+03 -0.75051253398E+02 -0.65695314626E+03  0.70011099458E+03  0.12500000000E+03 0.  0.
         21    1    1    2  503  501  0.12220599156E+03  0.29019526421E+02  0.42954200235E+03  0.44752962926E+03  0.00000000000E+00 0. -1.
          1    1    1    2  501    0  0.70952693756E+02  0.46031726977E+02 -0.50234559696E+03  0.50941564897E+03  0.00000000000E+00 0. -1.
<mgrwt>
<rscale>  4 0.17794512E+03</rscale>
<asrwt>0</asrwt>
<pdfrwt beam="1">  1       21 0.71330734E-01 0.17794512E+03</pdfrwt>
<pdfrwt beam="2">  1        1 0.18360100E+00 0.17794512E+03</pdfrwt>
<totfact> 0.23510197E+02</totfact>
</mgrwt>
</event>
<event>
 5    0  0.2306346E+000  0.3163824E+03  0.7546771E-02  0.1077326E+00
         21   -1    0    0  503  502  0.00000000000E+00  0.00000000000E+00  0.25370278156E+03  0.25370278156E+03  0.00000000000E+00 0. -1.
          4   -1    0    0  502    0 -0.00000000000E+00 -0.00000000000E+00 -0.83688934780E+03  0.83688934780E+03  0.00000000000E+00 0. -1.
         25    1    1    2    0    0  0.26723131279E+03  0.59491393777E+02 -0.17101211724E+03  0.34615306544E+03  0.12500000000E+03 0.  0.
         21    1    1    2  503  501  0.30900266538E+02 -0.36481034700E+02  0.12268406182E+03  0.13167031324E+03  0.00000000000E+00 0. -1.
          4    1    1    2  501    0 -0.29813157933E+03 -0.23010359077E+02 -0.53485851081E+03  0.61276875068E+03  0.00000000000E+00 0. -1.
<mgrwt>
<rscale>  4 0.31638241E+03</rscale>
<asrwt>0</asrwt>
<pdfrwt beam="1">  1       21 0.39031197E-01 0.31638241E+03</pdfrwt>
<pdfrwt beam="2">  1        4 0.12875221E+00 0.31638241E+03</pdfrwt>
<totfact> 0.12127889E+02</totfact>
</mgrwt>
</event>
<event>
 5    0  0.2306346E+000  0.3800613E+03  0.7546771E-02  0.1050911E+00
         21   -1    0    0  503  502  0.00000000000E+00  0.00000000000E+00  0.15043677986E+04  0.15043677986E+04  0.00000000000E+00 0. -1.
          2   -1    0    0  502    0 -0.00000000000E+00 -0.00000000000E+00 -0.36917289252E+03  0.36917289252E+03  0.00000000000E+00 0.  1.
         25    1    1    2    0    0  0.38077909531E+03  0.44796873468E+02  0.53178423129E+03  0.66739714409E+03  0.12500000000E+03 0.  0.
         21    1    1    2  503  501 -0.26643286089E+02 -0.24028046155E+02  0.79984139085E+03  0.80064565334E+03  0.00000000000E+00 0. -1.
          2    1    1    2  501    0 -0.35413580922E+03 -0.20768827313E+02 -0.19643071607E+03  0.40549789367E+03  0.00000000000E+00 0.  1.
<mgrwt>
<rscale>  4 0.38006129E+03</rscale>
<asrwt>0</asrwt>
<pdfrwt beam="1">  1       21 0.23144120E+00 0.38006129E+03</pdfrwt>
<pdfrwt beam="2">  1        2 0.56795830E-01 0.38006129E+03</pdfrwt>
<totfact> 0.81320840E+01</totfact>
</mgrwt>
</event>
<event>
 5    0  0.2306346E+000  0.4465423E+03  0.7546771E-02  0.1028758E+00
         21   -1    0    0  503  502  0.00000000000E+00  0.00000000000E+00  0.12589856011E+04  0.12589856011E+04  0.00000000000E+00 0.  1.
          1   -1    0    0  502    0 -0.00000000000E+00 -0.00000000000E+00 -0.49769642608E+03  0.49769642608E+03  0.00000000000E+00 0.  1.
         25    1    1    2    0    0 -0.28494650584E+03 -0.25887050589E+03  0.93784090669E+03  0.10214592583E+04  0.12500000000E+03 0.  0.
         21    1    1    2  503  501 -0.13543432448E+02 -0.55406459779E+02  0.17061281711E+03  0.17989450717E+03  0.00000000000E+00 0. -1.
          1    1    1    2  501    0  0.29848993829E+03  0.31427696567E+03 -0.34716454876E+03  0.55532826177E+03  0.00000000000E+00 0.  1.
<mgrwt>
<rscale>  4 0.44654235E+03</rscale>
<asrwt>0</asrwt>
<pdfrwt beam="1">  1       21 0.19369009E+00 0.44654235E+03</pdfrwt>
<pdfrwt beam="2">  1        1 0.76568681E-01 0.44654235E+03</pdfrwt>
<totfact> 0.63182517E+01</totfact>
</mgrwt>
</event>
<event>
 5    0  0.2306346E+000  0.3354974E+03  0.7546771E-02  0.1068730E+00
         -1   -1    0    0    0  501 -0.00000000000E+00  0.00000000000E+00  0.39518293197E+03  0.39518293197E+03  0.00000000000E+00 0. -1.
         21   -1    0    0  501  502  0.00000000000E+00 -0.00000000000E+00 -0.10594478222E+04  0.10594478222E+04  0.00000000000E+00 0. -1.
         25    1    1    2    0    0  0.32457682041E+03  0.10201460201E+03 -0.27450696154E+03  0.45468248625E+03  0.12500000000E+03 0.  0.
         21    1    1    2  503  502 -0.53977271928E+02  0.41254770462E+02 -0.61569081582E+03  0.61942770575E+03  0.00000000000E+00 0.  1.
         -1    1    1    2    0  503 -0.27059954848E+03 -0.14326937247E+03  0.22593288714E+03  0.38052056215E+03  0.00000000000E+00 0. -1.
<mgrwt>
<rscale>  4 0.33549738E+03</rscale>
<asrwt>0</asrwt>
<pdfrwt beam="1">  1       21 0.16299197E+00 0.33549738E+03</pdfrwt>
<pdfrwt beam="2">  1       -1 0.60797374E-01 0.33549738E+03</pdfrwt>
<totfact> 0.57456192E+01</totfact>
</mgrwt>
</event>
<event>
 5    0  0.2306346E+000  0.2599084E+03  0.7546771E-02  0.1107198E+00
         21   -1    0    0  503  502  0.00000000000E+00  0.00000000000E+00  0.10865700070E+03  0.10865700070E+03  0.00000000000E+00 0. -1.
          1   -1    0    0  502    0 -0.00000000000E+00 -0.00000000000E+00 -0.63271354978E+03  0.63271354978E+03  0.00000000000E+00 0. -1.
         25    1    1    2    0    0 -0.17825217542E+03  0.14539699634E+03 -0.35898706636E+03  0.44430939490E+03  0.12500000000E+03 0.  0.
         21    1    1    2  503  501  0.17138496744E+02  0.12275526384E+02 -0.92510625018E+01  0.23021702284E+02  0.00000000000E+00 0. -1.
          1    1    1    2  501    0  0.16111367867E+03 -0.15767252273E+03 -0.15581842022E+03  0.27403945329E+03  0.00000000000E+00 0. -1.
<mgrwt>
<rscale>  4 0.25990837E+03</rscale>
<asrwt>0</asrwt>
<pdfrwt beam="1">  1       21 0.16716462E-01 0.25990837E+03</pdfrwt>
<pdfrwt beam="2">  1        1 0.97340547E-01 0.25990837E+03</pdfrwt>
<totfact> 0.11500476E+04</totfact>
</mgrwt>
</event>
<event>
 5    0  0.2306346E+000  0.2350695E+03  0.7546771E-02  0.1123122E+00
         21   -1    0    0  503  502  0.00000000000E+00  0.00000000000E+00  0.25480887028E+03  0.25480887028E+03  0.00000000000E+00 0.  1.
          2   -1    0    0  502    0 -0.00000000000E+00 -0.00000000000E+00 -0.75819868341E+03  0.75819868341E+03  0.00000000000E+00 0.  1.
         25    1    1    2    0    0 -0.13093961370E+03  0.18808029056E+03  0.14102415677E+03  0.29670219232E+03  0.12500000000E+03 0.  0.
         21    1    1    2  503  501  0.75326322726E+02 -0.11818718185E+03 -0.12049656943E+03  0.18482880753E+03  0.00000000000E+00 0.  1.
          2    1    1    2  501    0  0.55613290974E+02 -0.69893108704E+02 -0.52391740046E+03  0.53147655384E+03  0.00000000000E+00 0.  1.
<mgrwt>
<rscale>  4 0.23506950E+03</rscale>
<asrwt>0</asrwt>
<pdfrwt beam="1">  1       21 0.39201365E-01 0.23506950E+03</pdfrwt>
<pdfrwt beam="2">  1        2 0.11664595E+00 0.23506950E+03</pdfrwt>
<totfact> 0.29595430E+03</totfact>
</mgrwt>
</event>
<event>
 5    0  0.2306346E+000  0.3505838E+03  0.7546771E-02  0.1062376E+00
          2   -1    0    0  502    0 -0.00000000000E+00  0.00000000000E+00  0.11035091946E+04  0.11035091946E+04  0.00000000000E+00 0.  1.
         21   -1    0    0  503  502  0.00000000000E+00 -0.00000000000E+00 -0.17481162172E+03  0.17481162172E+03  0.00000000000E+00 0. -1.
         25    1    1    2    0    0  0.14319354189E+03  0.28003804383E+03  0.11439802855E+03  0.35726405552E+03  0.12500000000E+03 0.  0.
         21    1    1    2  503  501  0.51209717781E+02 -0.11057121920E+02  0.13339022739E+02  0.54061304720E+02  0.00000000000E+00 0. -1.
          2    1    1    2  501    0 -0.19440325967E+03 -0.26898092191E+03  0.80096052160E+03  0.86699545610E+03  0.00000000000E+00 0.  1.
<mgrwt>
<rscale>  4 0.35058381E+03</rscale>
<asrwt>0</asrwt>
<pdfrwt beam="1">  1       21 0.26894097E-01 0.35058381E+03</pdfrwt>
<pdfrwt beam="2">  1        2 0.16977064E+00 0.35058381E+03</pdfrwt>
<totfact> 0.36209346E+03</totfact>
</mgrwt>
</event>
<event>
 5    0  0.2306346E+000  0.2858077E+03  0.7546771E-02  0.1092559E+00
         -1   -1    0    0    0  501 -0.00000000000E+00  0.00000000000E+00  0.13444468148E+04  0.13444468148E+04  0.00000000000E+00 0.  1.
         21   -1    0    0  501  502  0.00000000000E+00 -0.00000000000E+00 -0.14464996569E+03  0.14464996569E+03  0.00000000000E+00 0. -1.
         25    1    1    2    0    0  0.19490807078E+03 -0.21280945203E+03  0.15172698692E+03  0.34917488095E+03  0.12500000000E+03 0.  0.
         21    1    1    2  503  502 -0.53999042522E+02  0.30733343824E+01 -0.74346795291E+01  0.54595022092E+02  0.00000000000E+00 0.  1.
         -1    1    1    2    0  503 -0.14090902826E+03  0.20973611764E+03  0.10555045417E+04  0.10853268774E+04  0.00000000000E+00 0.  1.
<mgrwt>
<rscale>  4 0.28580766E+03</rscale>
<asrwt>0</asrwt>
<pdfrwt beam="1">  1       21 0.22253842E-01 0.28580766E+03</pdfrwt>
<pdfrwt beam="2">  1       -1 0.20683796E+00 0.28580766E+03</pdfrwt>
<totfact> 0.25945403E+02</totfact>
</mgrwt>
</event>
<event>
 5    0  0.2306346E+000  0.2923221E+03  0.7546771E-02  0.1089143E+00
         21   -1    0    0  503  502  0.00000000000E+00  0.00000000000E+00  0.10475374362E+03  0.10475374362E+03  0.00000000000E+00 0. -1.
          2   -1    0    0  502    0 -0.00000000000E+00 -0.00000000000E+00 -0.24617677688E+04  0.24617677688E+04  0.00000000000E+00 0.  1.
         25    1    1    2    0    0 -0.23659140809E+03  0.48125602491E+02 -0.10746449554E+03  0.29234429326E+03  0.12500000000E+03 0.  0.
         21    1    1    2  503  501 -0.23148636751E+02  0.10242504958E+02 -0.32467331688E+02  0.41169113644E+02  0.00000000000E+00 0. -1.
          2    1    1    2  501    0  0.25974004485E+03 -0.58368107449E+02 -0.22170821980E+04  0.22330081055E+04  0.00000000000E+00 0.  1.
<mgrwt>
<rscale>  4 0.29232209E+03</rscale>
<asrwt>0</asrwt>
<pdfrwt beam="1">  1       21 0.16115961E-01 0.29232209E+03</pdfrwt>
<pdfrwt beam="2">  1        2 0.37873349E+00 0.29232209E+03</pdfrwt>
<totfact> 0.17907940E+03</totfact>
</mgrwt>
</event>
<event>
 5    0  0.2306346E+000  0.2752760E+03  0.7546771E-02  0.1098297E+00
         21   -1    0    0  503  502  0.00000000000E+00  0.00000000000E+00  0.24768172969E+03  0.24768172969E+03  0.00000000000E+00 0.  1.
          2   -1    0    0  502    0 -0.00000000000E+00 -0.00000000000E+00 -0.19973820692E+04  0.19973820692E+04  0.00000000000E+00 0.  1.
         25    1    1    2    0    0  0.12350271550E+03 -0.21193526723E+03 -0.18604884684E+04  0.18807476756E+04  0.12500000000E+03 0.  0.
         21    1    1    2  503  501  0.27812550237E+02  0.16941915696E+02  0.11288640773E+03  0.11749003153E+03  0.00000000000E+00 0.  1.
          2    1    1    2  501    0 -0.15131526573E+03  0.19499335153E+03 -0.20982788152E+01  0.24682609173E+03  0.00000000000E+00 0.  1.
<mgrwt>
<rscale>  4 0.27527600E+03</rscale>
<asrwt>0</asrwt>
<pdfrwt beam="1">  1       21 0.38104881E-01 0.27527600E+03</pdfrwt>
<pdfrwt beam="2">  1        2 0.30728956E+00 0.27527600E+03</pdfrwt>
<totfact> 0.60856431E+02</totfact>
</mgrwt>
</event>
<event>
 5    0  0.2306346E+000  0.1986997E+03  0.7546771E-02  0.1150841E+00
         21   -1    0    0  503  502  0.00000000000E+00  0.00000000000E+00  0.54338468888E+03  0.54338468888E+03  0.00000000000E+00 0. -1.
          4   -1    0    0  502    0 -0.00000000000E+00 -0.00000000000E+00 -0.21615189682E+04  0.21615189682E+04  0.00000000000E+00 0.  1.
         25    1    1    2    0    0  0.76682932835E+02 -0.19701869168E+03  0.11454112558E+03  0.27100056551E+03  0.12500000000E+03 0.  0.
         21    1    1    2  503  501 -0.10235609601E+02  0.58505470619E+02  0.34524233943E+03  0.35031404586E+03  0.00000000000E+00 0. -1.
          4    1    1    2  501    0 -0.66447323234E+02  0.13851322106E+03 -0.20779177443E+04  0.20835890457E+04  0.00000000000E+00 0.  1.
<mgrwt>
<rscale>  4 0.19869971E+03</rscale>
<asrwt>0</asrwt>
<pdfrwt beam="1">  1       21 0.83597644E-01 0.19869971E+03</pdfrwt>
<pdfrwt beam="2">  1        4 0.33254138E+00 0.19869971E+03</pdfrwt>
<totfact> 0.12360161E+00</totfact>
</mgrwt>
</event>
<event>
 5    0  0.2306346E+000  0.2856793E+03  0.7546771E-02  0.1092627E+00
          2   -1    0    0  502    0 -0.00000000000E+00  0.00000000000E+00  0.10114174800E+04  0.10114174800E+04  0.00000000000E+00 0.  1.
         21   -1    0    0  503  502  0.00000000000E+00 -0.00000000000E+00 -0.13395506151E+03  0.13395506151E+03  0.00000000000E+00 0.  1.
         25    1    1    2    0    0 -0.28090667764E+03 -0.14885012570E+03  0.39641678771E+03  0.52329359927E+03  0.12500000000E+03 0.  0.
         21    1    1    2  503  501  0.96528614340E+02  0.79916570194E+01  0.10486965820E+02  0.97424927099E+02  0.00000000000E+00 0.  1.
          2    1    1    2  501    0  0.18437806330E+03  0.14085846868E+03  0.47055866494E+03  0.52465401511E+03  0.00000000000E+00 0.  1.
<mgrwt>
<rscale>  4 0.28567928E+03</rscale>
<asrwt>0</asrwt>
<pdfrwt beam="1">  1       21 0.20608472E-01 0.28567928E+03</pdfrwt>
<pdfrwt beam="2">  1        2 0.15560268E+00 0.28567928E+03</pdfrwt>
<totfact> 0.69735362E+03</totfact>
</mgrwt>
</event>
<event>
 5    0  0.2306346E+000  0.3198738E+03  0.7546771E-02  0.1075707E+00
          1   -1    0    0  502    0 -0.00000000000E+00  0.00000000000E+00  0.16402752340E+04  0.16402752340E+04  0.00000000000E+00 0. -1.
         21   -1    0    0  503  502  0.00000000000E+00 -0.00000000000E+00 -0.58892091991E+02  0.58892091991E+02  0.00000000000E+00 0. -1.
         25    1    1    2    0    0 -0.27734708921E+03  0.98857569294E+02  0.80276604302E+03  0.86414845179E+03  0.12500000000E+03 0.  0.
         21    1    1    2  503  501  0.57951725495E+02 -0.28717464671E+02  0.10729008495E+03  0.12527672407E+03  0.00000000000E+00 0. -1.
          1    1    1    2  501    0  0.21939536372E+03 -0.70140104623E+02  0.67132701404E+03  0.70974215014E+03  0.00000000000E+00 0. -1.
<mgrwt>
<rscale>  4 0.31987377E+03</rscale>
<asrwt>0</asrwt>
<pdfrwt beam="1">  1       21 0.90603231E-02 0.31987377E+03</pdfrwt>
<pdfrwt beam="2">  1        1 0.25235000E+00 0.31987377E+03</pdfrwt>
<totfact> 0.60959379E+03</totfact>
</mgrwt>
</event>
<event>
 5    0  0.2306346E+000  0.3798856E+03  0.7546771E-02  0.1050976E+00
         -2   -1    0    0    0  501 -0.00000000000E+00  0.00000000000E+00  0.98966414116E+02  0.98966414116E+02  0.00000000000E+00 0. -1.
         21   -1    0    0  501  502  0.00000000000E+00 -0.00000000000E+00 -0.24167608797E+04  0.24167608797E+04  0.00000000000E+00 0. -1.
         25    1    1    2    0    0  0.20439355302E+03  0.32094392371E+03 -0.18919033673E+04  0.19338317088E+04  0.12500000000E+03 0.  0.
         21    1    1    2  503  502 -0.14225958347E+01 -0.30842417821E+02 -0.84883540917E+02  0.90324382281E+02  0.00000000000E+00 0. -1.
         -2    1    1    2    0  503 -0.20297095719E+03 -0.29010150589E+03 -0.34100755731E+03  0.49157120269E+03  0.00000000000E+00 0. -1.
<mgrwt>
<rscale>  4 0.37988564E+03</rscale>
<asrwt>0</asrwt>
<pdfrwt beam="1">  1       21 0.37180938E+00 0.37988564E+03</pdfrwt>
<pdfrwt beam="2">  1       -2 0.15225602E-01 0.37988564E+03</pdfrwt>
<totfact> 0.28808664E+01</totfact>
</mgrwt>
</event>
<event>
 5    0  0.2306346E+000  0.2602088E+03  0.7546771E-02  0.1107018E+00
          2   -1    0    0  502    0 -0.00000000000E+00  0.00000000000E+00  0.11057282051E+04  0.11057282051E+04  0.00000000000E+00 0.  1.
         21   -1    0    0  503  502  0.00000000000E+00 -0.00000000000E+00 -0.85607170554E+02  0.85607170554E+02  0.00000000000E+00 0.  1.
         25    1    1    2    0    0 -0.13445937432E+03  0.14831030726E+03  0.25037545151E+03  0.34407577261E+03  0.12500000000E+03 0.  0.
         21    1    1    2  503  501 -0.69026099242E+02 -0.17004114878E+02  0.47510614510E+02  0.85504390475E+02  0.00000000000E+00 0.  1.
          2    1    1    2  501    0  0.20348547356E+03 -0.13130619238E+03  0.72223496854E+03  0.76175521257E+03  0.00000000000E+00 0.  1.
<mgrwt>
<rscale>  4 0.26020885E+03</rscale>
<asrwt>0</asrwt>
<pdfrwt beam="1">  1       21 0.13170335E-01 0.26020885E+03</pdfrwt>
<pdfrwt beam="2">  1        2 0.17011202E+00 0.26020885E+03</pdfrwt>
<totfact> 0.14106638E+04</totfact>
</mgrwt>
</event>
<event>
 5    0  0.2306346E+000  0.4566550E+03  0.7546771E-02  0.1025756E+00
         -3   -1    0    0    0  501 -0.00000000000E+00  0.00000000000E+00  0.28220079157E+04  0.28220079157E+04  0.00000000000E+00 0. -1.
         21   -1    0    0  501  502  0.00000000000E+00 -0.00000000000E+00 -0.16268314318E+03  0.16268314318E+03  0.00000000000E+00 0. -1.
         25    1    1    2    0    0  0.18413718623E+03 -0.43791093441E+03  0.45723076976E+03  0.67108678027E+03  0.12500000000E+03 0.  0.
         21    1    1    2  503  502  0.22220432429E+01  0.47826661194E+02 -0.18493435431E+02  0.51325764984E+02  0.00000000000E+00 0. -1.
         -3    1    1    2    0  503 -0.18635922947E+03  0.39008427322E+03  0.22205874382E+04  0.22622785136E+04  0.00000000000E+00 0. -1.
<mgrwt>
<rscale>  4 0.45665499E+03</rscale>
<asrwt>0</asrwt>
<pdfrwt beam="1">  1       21 0.25028178E-01 0.45665499E+03</pdfrwt>
<pdfrwt beam="2">  1       -3 0.43415503E+00 0.45665499E+03</pdfrwt>
<totfact> 0.56629383E+00</totfact>
</mgrwt>
</event>
<event>
 5    0  0.2306346E+000  0.2674926E+03  0.7546771E-02  0.1102723E+00
         -1   -1    0    0    0  501 -0.00000000000E+00  0.00000000000E+00  0.15800116989E+04  0.15800116989E+04  0.00000000000E+00 0.  1.
         21   -1    0    0  501  502  0.00000000000E+00 -0.00000000000E+00 -0.14693495757E+04  0.14693495757E+04  0.00000000000E+00 0.  1.
         25    1    1    2    0    0  0.66749208590E+02 -0.25940357406E+03 -0.76217568613E+03  0.81748544183E+03  0.12500000000E+03 0.  0.
         21    1    1    2  503  502 -0.13303188977E+02  0.29397879078E+02 -0.67014881675E+03  0.67092521694E+03  0.00000000000E+00 0. -1.
         -1    1    1    2    0  503 -0.53446019613E+02  0.23000569498E+03  0.15429866260E+04  0.15609506158E+04  0.00000000000E+00 0.  1.
<mgrwt>
<rscale>  4 0.26749257E+03</rscale>
<asrwt>0</asrwt>
<pdfrwt beam="1">  1       21 0.22605378E+00 0.26749257E+03</pdfrwt>
<pdfrwt beam="2">  1       -1 0.24307872E+00 0.26749257E+03</pdfrwt>
<totfact> 0.70638054E-01</totfact>
</mgrwt>
</event>
<event>
 5    0  0.2306346E+000  0.2366970E+03  0.7546771E-02  0.1122013E+00
          1   -1    0    0  502    0 -0.00000000000E+00  0.00000000000E+00  0.11560228489E+04  0.11560228489E+04  0.00000000000E+00 0. -1.
         21   -1    0    0  503  502  0.00000000000E+00 -0.00000000000E+00 -0.10003470356E+04  0.10003470356E+04  0.00000000000E+00 0. -1.
         25    1    1    2    0    0  0.23946209787E+02  0.22968781663E+03 -0.67142425119E+03  0.72094759806E+03  0.12500000000E+03 0.  0.
         21    1    1    2  503  501  0.18042478415E+02 -0.33498352242E+02 -0.29403000356E+03  0.29648155697E+03  0.00000000000E+00 0. -1.
          1    1    1    2  501    0 -0.41988688202E+02 -0.19618946438E+03  0.11211300680E+04  0.11389407295E+04  0.00000000000E+00 0. -1.
<mgrwt>
<rscale>  4 0.23669698E+03</rscale>
<asrwt>0</asrwt>
<pdfrwt beam="1">  1       21 0.15389954E+00 0.23669698E+03</pdfrwt>
<pdfrwt beam="2">  1        1 0.17784967E+00 0.23669698E+03</pdfrwt>
<totfact> 0.37106253E+01</totfact>
</mgrwt>
</event>
<event>
 5    0  0.2306346E+000  0.2776776E+03  0.7546771E-02  0.1096964E+00
          1   -1    0    0  502    0 -0.00000000000E+00  0.00000000000E+00  0.15996942371E+04  0.15996942371E+04  0.00000000000E+00 0. -1.
         21   -1    0    0  503  502  0.00000000000E+00 -0.00000000000E+00 -0.10420330264E+04  0.10420330264E+04  0.00000000000E+00 0.  1.
         25    1    1    2    0    0  0.23963136906E+03 -0.25563212710E+03  0.61147603857E+03  0.71575060125E+03  0.12500000000E+03 0.  0.
         21    1    1    2  503  501 -0.17802357230E+03  0.16920292412E+03 -0.97155546142E+03  0.10021187736E+04  0.00000000000E+00 0.  1.
          1    1    1    2  501    0 -0.61607796766E+02  0.86429202985E+02  0.91774063363E+03  0.92385788862E+03  0.00000000000E+00 0. -1.
<mgrwt>
<rscale>  4 0.27767760E+03</rscale>
<asrwt>0</asrwt>
<pdfrwt beam="1">  1       21 0.16031277E+00 0.27767760E+03</pdfrwt>
<pdfrwt beam="2">  1        1 0.24610681E+00 0.27767760E+03</pdfrwt>
<totfact> 0.16056694E+01</totfact>
</mgrwt>
</event>
<event>
 5    0  0.2306346E+000  0.3188688E+03  0.7546771E-02  0.1076171E+00
         21   -1    0    0  503  502  0.00000000000E+00  0.00000000000E+00  0.11212249565E+04  0.11212249565E+04  0.00000000000E+00 0.  1.
          2   -1    0    0  502    0 -0.00000000000E+00 -0.00000000000E+00 -0.99387814565E+03  0.99387814565E+03  0.00000000000E+00 0. -1.
         25    1    1    2    0    0 -0.24392096785E+03 -0.29593839047E+03  0.97673252881E+03  0.10567442464E+04  0.12500000000E+03 0.  0.
         21    1    1    2  503  501  0.51547434977E+02  0.77166378619E+02  0.55229981312E+02  0.10799138335E+03  0.00000000000E+00 0.  1.
          2    1    1    2  501    0  0.19237353287E+03  0.21877201185E+03 -0.90461569923E+03  0.95036747241E+03  0.00000000000E+00 0. -1.
<mgrwt>
<rscale>  4 0.31886876E+03</rscale>
<asrwt>0</asrwt>
<pdfrwt beam="1">  1       21 0.17249615E+00 0.31886876E+03</pdfrwt>
<pdfrwt beam="2">  1        2 0.15290433E+00 0.31886876E+03</pdfrwt>
<totfact> 0.62387300E+01</totfact>
</mgrwt>
</event>
<event>
 5    0  0.2306346E+000  0.2566099E+03  0.7546771E-02  0.1109197E+00
         21   -1    0    0  501  502  0.00000000000E+00  0.00000000000E+00  0.69927810705E+03  0.69927810705E+03  0.00000000000E+00 0. -1.
         -1   -1    0    0    0  501 -0.00000000000E+00 -0.00000000000E+00 -0.15372468309E+03  0.15372468309E+03  0.00000000000E+00 0. -1.
         25    1    1    2    0    0 -0.23489032726E+03  0.85783833584E+02  0.46338058616E+03  0.54118287073E+03  0.12500000000E+03 0.  0.
         21    1    1    2  503  502  0.45225776945E+02  0.23689042969E+02  0.77468271071E+02  0.92778632668E+02  0.00000000000E+00 0.  1.
         -1    1    1    2    0  503  0.18966455032E+03 -0.10947287655E+03  0.47045667399E+01  0.21904128674E+03  0.00000000000E+00 0. -1.
<mgrwt>
<rscale>  4 0.25660993E+03</rscale>
<asrwt>0</asrwt>
<pdfrwt beam="1">  1       21 0.10758125E+00 0.25660993E+03</pdfrwt>
<pdfrwt beam="2">  1       -1 0.23649952E-01 0.25660993E+03</pdfrwt>
<totfact> 0.93320726E+02</totfact>
</mgrwt>
</event>
<event>
 5    0  0.2306346E+000  0.3019219E+03  0.7546771E-02  0.1084284E+00
         21   -1    0    0  503  502  0.00000000000E+00  0.00000000000E+00  0.88854175310E+02  0.88854175310E+02  0.00000000000E+00 0. -1.
          2   -1    0    0  502    0 -0.00000000000E+00 -0.00000000000E+00 -0.24458185065E+04  0.24458185065E+04  0.00000000000E+00 0.  1.
         25    1    1    2    0    0 -0.17640275345E+03  0.21906289886E+03 -0.23386123560E+03  0.38655214732E+03  0.12500000000E+03 0.  0.
         21    1    1    2  503  501  0.60192714278E+02 -0.12379729195E+02 -0.17172657273E+03  0.18239088883E+03  0.00000000000E+00 0. -1.
          2    1    1    2  501    0  0.11621003918E+03 -0.20668316967E+03 -0.19513765228E+04  0.19657296456E+04  0.00000000000E+00 0.  1.
<mgrwt>
<rscale>  4 0.30192192E+03</rscale>
<asrwt>0</asrwt>
<pdfrwt beam="1">  1       21 0.13669870E-01 0.30192192E+03</pdfrwt>
<pdfrwt beam="2">  1        2 0.37627985E+00 0.30192192E+03</pdfrwt>
<totfact> 0.24623456E+03</totfact>
</mgrwt>
</event>
<event>
 5    0  0.2306346E+000  0.2311359E+03  0.7546771E-02  0.1125843E+00
          3   -1    0    0  502    0 -0.00000000000E+00  0.00000000000E+00  0.61918043071E+03  0.61918043071E+03  0.00000000000E+00 0. -1.
         21   -1    0    0  503  502  0.00000000000E+00 -0.00000000000E+00 -0.97810923764E+02  0.97810923764E+02  0.00000000000E+00 0. -1.
         25    1    1    2    0    0 -0.11947742312E+03 -0.16348052700E+03  0.13471084618E+03  0.27344606309E+03  0.12500000000E+03 0.  0.
         21    1    1    2  503  501  0.24046398910E+02  0.78442023554E+01  0.10417824434E+03  0.10720479189E+03  0.00000000000E+00 0. -1.
          3    1    1    2  501    0  0.95431024209E+02  0.15563632464E+03  0.28248041643E+03  0.33634049949E+03  0.00000000000E+00 0. -1.
<mgrwt>
<rscale>  4 0.23113591E+03</rscale>
<asrwt>0</asrwt>
<pdfrwt beam="1">  1       21 0.15047835E-01 0.23113591E+03</pdfrwt>
<pdfrwt beam="2">  1        3 0.95258525E-01 0.23113591E+03</pdfrwt>
<totfact> 0.19511687E+03</totfact>
</mgrwt>
</event>
<event>
 5    0  0.2306346E+000  0.3321334E+03  0.7546771E-02  0.1070197E+00
         21   -1    0    0  501  502  0.00000000000E+00  0.00000000000E+00  0.61212821332E+03  0.61212821332E+03  0.00000000000E+00 0. -1.
         -1   -1    0    0    0  501 -0.00000000000E+00 -0.00000000000E+00 -0.18209433011E+03  0.18209433011E+03  0.00000000000E+00 0. -1.
         25    1    1    2    0    0 -0.27918459817E+03  0.12939689938E+03  0.30188634194E+03  0.44882954546E+03  0.12500000000E+03 0.  0.
         21    1    1    2  503  502  0.50811353309E+02  0.86148864016E+01  0.36906688481E+02  0.63388591619E+02  0.00000000000E+00 0.  1.
         -1    1    1    2    0  503  0.22837324486E+03 -0.13801178578E+03  0.91240852789E+02  0.28200440635E+03  0.00000000000E+00 0. -1.
<mgrwt>
<rscale>  4 0.33213340E+03</rscale>
<asrwt>0</asrwt>
<pdfrwt beam="1">  1       21 0.94173570E-01 0.33213340E+03</pdfrwt>
<pdfrwt beam="2">  1       -1 0.28014513E-01 0.33213340E+03</pdfrwt>
<totfact> 0.94513296E+02</totfact>
</mgrwt>
</event>
<event>
 5    0  0.2306346E+000  0.2783246E+03  0.7546771E-02  0.1096608E+00
         21   -1    0    0  503  502  0.00000000000E+00  0.00000000000E+00  0.17762142785E+03  0.17762142785E+03  0.00000000000E+00 0.  1.
          1   -1    0    0  502    0 -0.00000000000E+00 -0.00000000000E+00 -0.13365587792E+04  0.13365587792E+04  0.00000000000E+00 0. -1.
         25    1    1    2    0    0  0.20841914784E+03 -0.73988897558E+02 -0.34850285952E+03  0.43126806193E+03  0.12500000000E+03 0.  0.
         21    1    1    2  503  501  0.25904798031E+02 -0.41406937779E+02  0.11307661827E+03  0.12317432629E+03  0.00000000000E+00 0.  1.
          1    1    1    2  501    0 -0.23432394587E+03  0.11539583534E+03 -0.92351111015E+03  0.95973781888E+03  0.00000000000E+00 0. -1.
<mgrwt>
<rscale>  4 0.27832457E+03</rscale>
<asrwt>0</asrwt>
<pdfrwt beam="1">  1       21 0.27326374E-01 0.27832457E+03</pdfrwt>
<pdfrwt beam="2">  1        1 0.20562442E+00 0.27832457E+03</pdfrwt>
<totfact> 0.12779159E+03</totfact>
</mgrwt>
</event>
<event>
 5    0  0.2306346E+000  0.4345734E+03  0.7546771E-02  0.1032425E+00
         21   -1    0    0  503  502  0.00000000000E+00  0.00000000000E+00  0.69907941327E+03  0.69907941327E+03  0.00000000000E+00 0. -1.
          1   -1    0    0  502    0 -0.00000000000E+00 -0.00000000000E+00 -0.59937571987E+03  0.59937571987E+03  0.00000000000E+00 0. -1.
         25    1    1    2    0    0  0.11258340213E+03 -0.40518622330E+03  0.32505989852E+03  0.54602182705E+03  0.12500000000E+03 0.  0.
         21    1    1    2  503  501 -0.61544595246E+02 -0.77734785991E+01  0.16845965442E+03  0.17951829806E+03  0.00000000000E+00 0. -1.
          1    1    1    2  501    0 -0.51038806881E+02  0.41295970190E+03 -0.39381585954E+03  0.57291500803E+03  0.00000000000E+00 0. -1.
<mgrwt>
<rscale>  4 0.43457344E+03</rscale>
<asrwt>0</asrwt>
<pdfrwt beam="1">  1       21 0.10755068E+00 0.43457344E+03</pdfrwt>
<pdfrwt beam="2">  1        1 0.92211649E-01 0.43457344E+03</pdfrwt>
<totfact> 0.24042068E+02</totfact>
</mgrwt>
</event>
<event>
 5    0  0.2306346E+000  0.3193135E+03  0.7546771E-02  0.1075966E+00
         21   -1    0    0  503  502  0.00000000000E+00  0.00000000000E+00  0.75458408274E+03  0.75458408274E+03  0.00000000000E+00 0.  1.
          4   -1    0    0  502    0 -0.00000000000E+00 -0.00000000000E+00 -0.17207095555E+03  0.17207095555E+03  0.00000000000E+00 0.  1.
         25    1    1    2    0    0 -0.16610571649E+03 -0.20946347999E+03  0.30274421697E+03  0.42278259118E+03  0.12500000000E+03 0.  0.
         21    1    1    2  503  501 -0.58226414919E+02 -0.64775537248E+01  0.15977100462E+03  0.17017358201E+03  0.00000000000E+00 0. -1.
          4    1    1    2  501    0  0.22433213141E+03  0.21594103371E+03  0.11999790559E+03  0.33369886510E+03  0.00000000000E+00 0.  1.
<mgrwt>
<rscale>  4 0.31931353E+03</rscale>
<asrwt>0</asrwt>
<pdfrwt beam="1">  1       21 0.11608986E+00 0.31931353E+03</pdfrwt>
<pdfrwt beam="2">  1        4 0.26472455E-01 0.31931353E+03</pdfrwt>
<totfact> 0.31743913E+02</totfact>
</mgrwt>
</event>
<event>
 5    0  0.2306346E+000  0.2898481E+03  0.7546771E-02  0.1090428E+00
          1   -1    0    0  502    0 -0.00000000000E+00  0.00000000000E+00  0.49018802621E+03  0.49018802621E+03  0.00000000000E+00 0. -1.
         21   -1    0    0  503  502  0.00000000000E+00 -0.00000000000E+00 -0.60184772785E+03  0.60184772785E+03  0.00000000000E+00 0. -1.
         25    1    1    2    0    0 -0.38587576605E+02  0.28084426607E+03 -0.46033494223E+03  0.55488355706E+03  0.12500000000E+03 0.  0.
         21    1    1    2  503  501  0.85681748240E+01 -0.22730695520E+02 -0.53257373286E+02  0.58535851817E+02  0.00000000000E+00 0. -1.
          1    1    1    2  501    0  0.30019401781E+02 -0.25811357055E+03  0.40193261388E+03  0.47861634519E+03  0.00000000000E+00 0. -1.
<mgrwt>
<rscale>  4 0.28984807E+03</rscale>
<asrwt>0</asrwt>
<pdfrwt beam="1">  1       21 0.92591958E-01 0.28984807E+03</pdfrwt>
<pdfrwt beam="2">  1        1 0.75413543E-01 0.28984807E+03</pdfrwt>
<totfact> 0.47917341E+02</totfact>
</mgrwt>
</event>
<event>
 5    0  0.2306346E+000  0.2394365E+03  0.7546771E-02  0.1120169E+00
          1   -1    0    0  502    0 -0.00000000000E+00  0.00000000000E+00  0.15072102254E+04  0.15072102254E+04  0.00000000000E+00 0.  1.
         21   -1    0    0  503  502  0.00000000000E+00 -0.00000000000E+00 -0.88114930589E+02  0.88114930589E+02  0.00000000000E+00 0.  1.
         25    1    1    2    0    0 -0.13187714189E+03 -0.22244105605E+03  0.27611137027E+03  0.39841447359E+03  0.12500000000E+03 0.  0.
         21    1    1    2  503  501  0.19185699611E+02  0.61357580481E+02  0.38216961854E+02  0.74788902421E+02  0.00000000000E+00 0.  1.
          1    1    1    2  501    0  0.11269144228E+03  0.16108347557E+03  0.11047669627E+04  0.11221217800E+04  0.00000000000E+00 0.  1.
<mgrwt>
<rscale>  4 0.23943650E+03</rscale>
<asrwt>0</asrwt>
<pdfrwt beam="1">  1       21 0.13556144E-01 0.23943650E+03</pdfrwt>
<pdfrwt beam="2">  1        1 0.23187848E+00 0.23943650E+03</pdfrwt>
<totfact> 0.37145447E+03</totfact>
</mgrwt>
</event>
<event>
 5    0  0.2306346E+000  0.2359455E+03  0.7546771E-02  0.1122524E+00
         21   -1    0    0  503  502  0.00000000000E+00  0.00000000000E+00  0.45055758530E+03  0.45055758530E+03  0.00000000000E+00 0. -1.
          1   -1    0    0  502    0 -0.00000000000E+00 -0.00000000000E+00 -0.58194939026E+03  0.58194939026E+03  0.00000000000E+00 0. -1.
         25    1    1    2    0    0 -0.19648075582E+03 -0.11628574763E+03  0.20035388891E+03  0.32847183032E+03  0.12500000000E+03 0.  0.
         21    1    1    2  503  501  0.41489871199E+01  0.66543516217E+02  0.16018453706E+03  0.17350602168E+03  0.00000000000E+00 0. -1.
          1    1    1    2  501    0  0.19233176870E+03  0.49742231410E+02 -0.49193023094E+03  0.53052912356E+03  0.00000000000E+00 0. -1.
<mgrwt>
<rscale>  4 0.23594546E+03</rscale>
<asrwt>0</asrwt>
<pdfrwt beam="1">  1       21 0.69316552E-01 0.23594546E+03</pdfrwt>
<pdfrwt beam="2">  1        1 0.89530675E-01 0.23594546E+03</pdfrwt>
<totfact> 0.75326041E+02</totfact>
</mgrwt>
</event>
<event>
 5    0  0.2306346E+000  0.4078722E+03  0.7546771E-02  0.1041087E+00
         21   -1    0    0  503  502  0.00000000000E+00  0.00000000000E+00  0.13098828954E+04  0.13098828954E+04  0.00000000000E+00 0.  1.
          1   -1    0    0  502    0 -0.00000000000E+00 -0.00000000000E+00 -0.11703459355E+04  0.11703459355E+04  0.00000000000E+00 0.  1.
         25    1    1    2    0    0 -0.38171959316E+03  0.26262098210E+02  0.94225624335E+03  0.10246323115E+04  0.12500000000E+03 0.  0.
         21    1    1    2  503  501 -0.67092328840E+01 -0.32735727668E+02  0.29204359259E+03  0.29394914806E+03  0.00000000000E+00 0.  1.
          1    1    1    2  501    0  0.38842882604E+03  0.64736294578E+01 -0.10947628760E+04  0.11616473714E+04  0.00000000000E+00 0.  1.
<mgrwt>
<rscale>  4 0.40787219E+03</rscale>
<asrwt>0</asrwt>
<pdfrwt beam="1">  1       21 0.20152045E+00 0.40787219E+03</pdfrwt>
<pdfrwt beam="2">  1        1 0.18005322E+00 0.40787219E+03</pdfrwt>
<totfact> 0.14870804E+01</totfact>
</mgrwt>
</event>
<event>
 5    0  0.2306346E+000  0.1940674E+03  0.7546771E-02  0.1154843E+00
         21   -1    0    0  501  502  0.00000000000E+00  0.00000000000E+00  0.18907424411E+03  0.18907424411E+03  0.00000000000E+00 0. -1.
         -1   -1    0    0    0  501 -0.00000000000E+00 -0.00000000000E+00 -0.69894704417E+03  0.69894704417E+03  0.00000000000E+00 0. -1.
         25    1    1    2    0    0 -0.16380075863E+02 -0.21166863620E+03 -0.31959350316E+03  0.40353057592E+03  0.12500000000E+03 0.  0.
         21    1    1    2  503  502  0.82928018235E+02  0.11823718395E+03  0.97796565249E+02  0.17441690300E+03  0.00000000000E+00 0. -1.
         -1    1    1    2    0  503 -0.66547942371E+02  0.93431452251E+02 -0.28807586214E+03  0.31007380936E+03  0.00000000000E+00 0. -1.
<mgrwt>
<rscale>  4 0.19406743E+03</rscale>
<asrwt>0</asrwt>
<pdfrwt beam="1">  1       21 0.29088345E-01 0.19406743E+03</pdfrwt>
<pdfrwt beam="2">  1       -1 0.10753031E+00 0.19406743E+03</pdfrwt>
<totfact> 0.90884274E+02</totfact>
</mgrwt>
</event>
<event>
 5    0  0.2306346E+000  0.4680228E+03  0.7546771E-02  0.1022480E+00
         21   -1    0    0  503  502  0.00000000000E+00  0.00000000000E+00  0.26676651545E+03  0.26676651545E+03  0.00000000000E+00 0.  1.
          1   -1    0    0  502    0 -0.00000000000E+00 -0.00000000000E+00 -0.19603140750E+04  0.19603140750E+04  0.00000000000E+00 0.  1.
         25    1    1    2    0    0  0.83350293728E+02  0.48498122277E+03 -0.63919583342E+02  0.51172724282E+03  0.12500000000E+03 0.  0.
         21    1    1    2  503  501 -0.57471137931E+01 -0.46358219990E+02 -0.31578450791E+02  0.56385392009E+02  0.00000000000E+00 0.  1.
          1    1    1    2  501    0 -0.77603179934E+02 -0.43862300278E+03 -0.15980495254E+04  0.16589679556E+04  0.00000000000E+00 0.  1.
<mgrwt>
<rscale>  4 0.46802277E+03</rscale>
<asrwt>0</asrwt>
<pdfrwt beam="1">  1       21 0.41041002E-01 0.46802277E+03</pdfrwt>
<pdfrwt beam="2">  1        1 0.30158678E+00 0.46802277E+03</pdfrwt>
<totfact> 0.20299722E+02</totfact>
</mgrwt>
</event>
<event>
 5    0  0.2306346E+000  0.2978756E+03  0.7546771E-02  0.1086307E+00
          1   -1    0    0  502    0 -0.00000000000E+00  0.00000000000E+00  0.13027401749E+04  0.13027401749E+04  0.00000000000E+00 0.  1.
         21   -1    0    0  503  502  0.00000000000E+00 -0.00000000000E+00 -0.12599574269E+03  0.12599574269E+03  0.00000000000E+00 0.  1.
         25    1    1    2    0    0  0.11885813291E+03  0.22157466892E+03  0.38027865447E+03  0.47271497196E+03  0.12500000000E+03 0.  0.
         21    1    1    2  503  501 -0.12284172039E+02  0.37419074736E+02 -0.50448456529E+02  0.64001053140E+02  0.00000000000E+00 0.  1.
          1    1    1    2  501    0 -0.10657396088E+03 -0.25899374366E+03  0.84691423423E+03  0.89201989245E+03  0.00000000000E+00 0.  1.
<mgrwt>
<rscale>  4 0.29787563E+03</rscale>
<asrwt>0</asrwt>
<pdfrwt beam="1">  1       21 0.19383961E-01 0.29787563E+03</pdfrwt>
<pdfrwt beam="2">  1        1 0.20042156E+00 0.29787563E+03</pdfrwt>
<totfact> 0.25801681E+03</totfact>
</mgrwt>
</event>
<event>
 5    0  0.2306346E+000  0.2663900E+03  0.7546771E-02  0.1103364E+00
         21   -1    0    0  503  502  0.00000000000E+00  0.00000000000E+00  0.87194282352E+02  0.87194282352E+02  0.00000000000E+00 0.  1.
          2   -1    0    0  502    0 -0.00000000000E+00 -0.00000000000E+00 -0.21269455869E+04  0.21269455869E+04  0.00000000000E+00 0. -1.
         25    1    1    2    0    0  0.25057581234E+03  0.87750448082E+02 -0.91203055879E+03  0.95807782514E+03  0.12500000000E+03 0.  0.
         21    1    1    2  503  501 -0.21145679573E+03 -0.87057579783E+02 -0.14118196667E+03  0.26874773742E+03  0.00000000000E+00 0.  1.
          2    1    1    2  501    0 -0.39119016609E+02 -0.69286829863E+00 -0.98653877912E+03  0.98731430671E+03  0.00000000000E+00 0. -1.
<mgrwt>
<rscale>  4 0.26638998E+03</rscale>
<asrwt>0</asrwt>
<pdfrwt beam="1">  1       21 0.13414504E-01 0.26638998E+03</pdfrwt>
<pdfrwt beam="2">  1        2 0.32722241E+00 0.26638998E+03</pdfrwt>
<totfact> 0.38364186E+03</totfact>
</mgrwt>
</event>
<event>
 5    0  0.2306346E+000  0.3032159E+03  0.7546771E-02  0.1083644E+00
         21   -1    0    0  503  502  0.00000000000E+00  0.00000000000E+00  0.66087214221E+02  0.66087214221E+02  0.00000000000E+00 0. -1.
          2   -1    0    0  502    0 -0.00000000000E+00 -0.00000000000E+00 -0.25576130254E+04  0.25576130254E+04  0.00000000000E+00 0.  1.
         25    1    1    2    0    0  0.47439401773E+02  0.23918018769E+03 -0.18004534140E+04  0.18211850963E+04  0.12500000000E+03 0.  0.
         21    1    1    2  503  501 -0.98874911317E+01 -0.28336440412E+03 -0.32253485380E+03  0.42944368655E+03  0.00000000000E+00 0. -1.
          2    1    1    2  501    0 -0.37551910642E+02  0.44184216422E+02 -0.36853754337E+03  0.37307145676E+03  0.00000000000E+00 0.  1.
<mgrwt>
<rscale>  4 0.30321591E+03</rscale>
<asrwt>0</asrwt>
<pdfrwt beam="1">  1       21 0.10167263E-01 0.30321591E+03</pdfrwt>
<pdfrwt beam="2">  1        2 0.39347894E+00 0.30321591E+03</pdfrwt>
<totfact> 0.36449837E+03</totfact>
</mgrwt>
</event>
<event>
 5    0  0.2306346E+000  0.2500448E+03  0.7546771E-02  0.1113276E+00
         21   -1    0    0  503  502  0.00000000000E+00  0.00000000000E+00  0.10386847758E+03  0.10386847758E+03  0.00000000000E+00 0. -1.
          1   -1    0    0  502    0 -0.00000000000E+00 -0.00000000000E+00 -0.34499213870E+04  0.34499213870E+04  0.00000000000E+00 0. -1.
         25    1    1    2    0    0 -0.17002922876E+03  0.14680942555E+03 -0.27411286684E+04  0.27531571554E+04  0.12500000000E+03 0.  0.
         21    1    1    2  503  501  0.13717311710E+02 -0.25352059938E+02  0.81388651744E+02  0.86342366289E+02  0.00000000000E+00 0. -1.
          1    1    1    2  501    0  0.15631191705E+03 -0.12145736561E+03 -0.68631289285E+03  0.71429034290E+03  0.00000000000E+00 0. -1.
<mgrwt>
<rscale>  4 0.25004483E+03</rscale>
<asrwt>0</asrwt>
<pdfrwt beam="1">  1       21 0.15979767E-01 0.25004483E+03</pdfrwt>
<pdfrwt beam="2">  1        1 0.53075709E+00 0.25004483E+03</pdfrwt>
<totfact> 0.13323819E+02</totfact>
</mgrwt>
</event>
<event>
 5    0  0.2306346E+000  0.3055764E+03  0.7546771E-02  0.1082486E+00
         21   -1    0    0  503  502  0.00000000000E+00  0.00000000000E+00  0.94499821456E+03  0.94499821456E+03  0.00000000000E+00 0. -1.
          2   -1    0    0  502    0 -0.00000000000E+00 -0.00000000000E+00 -0.64353395868E+03  0.64353395868E+03  0.00000000000E+00 0.  1.
         25    1    1    2    0    0 -0.66939053049E+01  0.28666198815E+03  0.98520480391E+02  0.32794997923E+03  0.12500000000E+03 0.  0.
         21    1    1    2  503  501 -0.18377890740E+02 -0.10212366172E+02  0.69516619602E+03  0.69548406120E+03  0.00000000000E+00 0. -1.
          2    1    1    2  501    0  0.25071796045E+02 -0.27644962198E+03 -0.49222242052E+03  0.56509813282E+03  0.00000000000E+00 0.  1.
<mgrwt>
<rscale>  4 0.30557644E+03</rscale>
<asrwt>0</asrwt>
<pdfrwt beam="1">  1       21 0.14538434E+00 0.30557644E+03</pdfrwt>
<pdfrwt beam="2">  1        2 0.99005224E-01 0.30557644E+03</pdfrwt>
<totfact> 0.17605600E+02</totfact>
</mgrwt>
</event>
<event>
 5    0  0.2306346E+000  0.2576398E+03  0.7546771E-02  0.1108570E+00
         21   -1    0    0  503  502  0.00000000000E+00  0.00000000000E+00  0.36762064619E+02  0.36762064619E+02  0.00000000000E+00 0.  1.
          2   -1    0    0  502    0 -0.00000000000E+00 -0.00000000000E+00 -0.23989576129E+04  0.23989576129E+04  0.00000000000E+00 0.  1.
         25    1    1    2    0    0 -0.14765681785E+03  0.17516641060E+03 -0.17860489452E+04  0.18050156902E+04  0.12500000000E+03 0.  0.
         21    1    1    2  503  501 -0.10711634365E+02 -0.25435542188E+02 -0.22181211558E+02  0.35407796646E+02  0.00000000000E+00 0. -1.
          2    1    1    2  501    0  0.15836845221E+03 -0.14973086841E+03 -0.55396539153E+03  0.59529619067E+03  0.00000000000E+00 0.  1.
<mgrwt>
<rscale>  4 0.25763976E+03</rscale>
<asrwt>0</asrwt>
<pdfrwt beam="1">  1       21 0.56557036E-02 0.25763976E+03</pdfrwt>
<pdfrwt beam="2">  1        2 0.36907031E+00 0.25763976E+03</pdfrwt>
<totfact> 0.12638361E+04</totfact>
</mgrwt>
</event>
<event>
 5    0  0.2306346E+000  0.2391285E+03  0.7546771E-02  0.1120375E+00
         21   -1    0    0  503  502  0.00000000000E+00  0.00000000000E+00  0.38022575804E+03  0.38022575804E+03  0.00000000000E+00 0.  1.
          1   -1    0    0  502    0 -0.00000000000E+00 -0.00000000000E+00 -0.78315846708E+03  0.78315846708E+03  0.00000000000E+00 0.  1.
         25    1    1    2    0    0  0.27654693674E+03  0.31894585170E+02  0.20938635982E+03  0.37008528810E+03  0.12500000000E+03 0.  0.
         21    1    1    2  503  501 -0.76811491886E+02 -0.19805761596E+02  0.55064519423E+02  0.96562802245E+02  0.00000000000E+00 0.  1.
          1    1    1    2  501    0 -0.19973544486E+03 -0.12088823574E+02 -0.66738358828E+03  0.69673613477E+03  0.00000000000E+00 0.  1.
<mgrwt>
<rscale>  4 0.23912848E+03</rscale>
<asrwt>0</asrwt>
<pdfrwt beam="1">  1       21 0.58496271E-01 0.23912848E+03</pdfrwt>
<pdfrwt beam="2">  1        1 0.12048592E+00 0.23912848E+03</pdfrwt>
<totfact> 0.70933378E+02</totfact>
</mgrwt>
</event>
<event>
 5    0  0.2306346E+000  0.3517786E+03  0.7546771E-02  0.1062207E+00
          1   -1    0    0  502    0 -0.00000000000E+00  0.00000000000E+00  0.81458101667E+03  0.81458101667E+03  0.00000000000E+00 0.  1.
         21   -1    0    0  503  502  0.00000000000E+00 -0.00000000000E+00 -0.15877429893E+03  0.15877429893E+03  0.00000000000E+00 0.  1.
         25    1    1    2    0    0 -0.32275411008E+03 -0.42010933752E+02  0.21588984514E+03  0.41008360046E+03  0.12500000000E+03 0.  0.
         21    1    1    2  503  501  0.10896577473E+03  0.67237197889E+02  0.10722852563E+03  0.16700999237E+03  0.00000000000E+00 0.  1.
          1    1    1    2  501    0  0.21378833534E+03 -0.25226264137E+02  0.33268834696E+03  0.39626172277E+03  0.00000000000E+00 0.  1.
<mgrwt>
<rscale>  4 0.35099501E+03</rscale>
<asrwt>0</asrwt>
<pdfrwt beam="1">  1       21 0.24426816E-01 0.35177858E+03</pdfrwt>
<pdfrwt beam="2">  1        1 0.12532015E+00 0.35177858E+03</pdfrwt>
<totfact> 0.37837510E+03</totfact>
</mgrwt>
</event>
<event>
 5    0  0.2306346E+000  0.2231981E+03  0.7546771E-02  0.1131521E+00
         21   -1    0    0  503  502  0.00000000000E+00  0.00000000000E+00  0.54802298278E+02  0.54802298278E+02  0.00000000000E+00 0.  1.
          1   -1    0    0  502    0 -0.00000000000E+00 -0.00000000000E+00 -0.13888067827E+04  0.13888067827E+04  0.00000000000E+00 0. -1.
         25    1    1    2    0    0  0.11054361126E+03  0.17445516504E+03 -0.40741731650E+03  0.47356980941E+03  0.12500000000E+03 0.  0.
         21    1    1    2  503  501 -0.62439318525E+01 -0.28565892538E+02 -0.32193570639E+01  0.29417021627E+02  0.00000000000E+00 0.  1.
          1    1    1    2  501    0 -0.10429967941E+03 -0.14588927250E+03 -0.92336781082E+03  0.94062224991E+03  0.00000000000E+00 0. -1.
<mgrwt>
<rscale>  4 0.22319809E+03</rscale>
<asrwt>0</asrwt>
<pdfrwt beam="1">  1       21 0.84311217E-02 0.22319809E+03</pdfrwt>
<pdfrwt beam="2">  1        1 0.21366261E+00 0.22319809E+03</pdfrwt>
<totfact> 0.10440745E+04</totfact>
</mgrwt>
</event>
<event>
 5    0  0.2306346E+000  0.2509651E+03  0.7546771E-02  0.1112696E+00
         21   -1    0    0  503  502  0.00000000000E+00  0.00000000000E+00  0.16876092729E+03  0.16876092729E+03  0.00000000000E+00 0. -1.
          1   -1    0    0  502    0 -0.00000000000E+00 -0.00000000000E+00 -0.14294699597E+04  0.14294699597E+04  0.00000000000E+00 0.  1.
         25    1    1    2    0    0 -0.23365596560E+03  0.16395573393E+03 -0.51303900842E+03  0.60025879178E+03  0.12500000000E+03 0.  0.
         21    1    1    2  503  501  0.35178296892E+02 -0.12109540986E+03  0.77615872158E+02  0.14807374674E+03  0.00000000000E+00 0. -1.
          1    1    1    2  501    0  0.19847766871E+03 -0.42860324066E+02 -0.82528589612E+03  0.84989834845E+03  0.00000000000E+00 0.  1.
<mgrwt>
<rscale>  4 0.25096506E+03</rscale>
<asrwt>0</asrwt>
<pdfrwt beam="1">  1       21 0.25963219E-01 0.25096506E+03</pdfrwt>
<pdfrwt beam="2">  1        1 0.21991846E+00 0.25096506E+03</pdfrwt>
<totfact> 0.12361124E+03</totfact>
</mgrwt>
</event>
<event>
 5    0  0.2306346E+000  0.4311316E+03  0.7546771E-02  0.1033503E+00
          3   -1    0    0  502    0 -0.00000000000E+00  0.00000000000E+00  0.21234891340E+03  0.21234891340E+03  0.00000000000E+00 0. -1.
         21   -1    0    0  503  502  0.00000000000E+00 -0.00000000000E+00 -0.11267033445E+04  0.11267033445E+04  0.00000000000E+00 0. -1.
         25    1    1    2    0    0  0.42258071611E+03  0.41034570012E+02 -0.38655824145E+03  0.58763132285E+03  0.12500000000E+03 0.  0.
         21    1    1    2  503  501 -0.20985877846E+02 -0.44396206184E+00 -0.27360773712E+03  0.27441173077E+03  0.00000000000E+00 0.  1.
          3    1    1    2  501    0 -0.40159483827E+03 -0.40590607950E+02 -0.25418845256E+03  0.47700920430E+03  0.00000000000E+00 0. -1.
<mgrwt>
<rscale>  4 0.43113159E+03</rscale>
<asrwt>0</asrwt>
<pdfrwt beam="1">  1       21 0.17333898E+00 0.43113159E+03</pdfrwt>
<pdfrwt beam="2">  1        3 0.32669063E-01 0.43113159E+03</pdfrwt>
<totfact> 0.83725098E+01</totfact>
</mgrwt>
</event>
<event>
 5    0  0.2306346E+000  0.2426483E+03  0.7546771E-02  0.1118041E+00
          2   -1    0    0  502    0 -0.00000000000E+00  0.00000000000E+00  0.24718121785E+03  0.24718121785E+03  0.00000000000E+00 0. -1.
         21   -1    0    0  503  502  0.00000000000E+00 -0.00000000000E+00 -0.47017131366E+03  0.47017131366E+03  0.00000000000E+00 0. -1.
         25    1    1    2    0    0  0.91323625101E+02 -0.17827709317E+03 -0.32913089945E+03  0.40506156992E+03  0.12500000000E+03 0.  0.
         21    1    1    2  503  501  0.34272280189E+02 -0.32317780378E+02  0.62400892207E+01  0.47518068473E+02  0.00000000000E+00 0. -1.
          2    1    1    2  501    0 -0.12559590529E+03  0.21059487354E+03  0.99900714428E+02  0.26477289312E+03  0.00000000000E+00 0. -1.
<mgrwt>
<rscale>  4 0.24264828E+03</rscale>
<asrwt>0</asrwt>
<pdfrwt beam="1">  1       21 0.72334049E-01 0.24264828E+03</pdfrwt>
<pdfrwt beam="2">  1        2 0.38027880E-01 0.24264828E+03</pdfrwt>
<totfact> 0.28268191E+03</totfact>
</mgrwt>
</event>
<event>
 5    0  0.2306346E+000  0.4480846E+03  0.7546771E-02  0.1028295E+00
         21   -1    0    0  503  502  0.00000000000E+00  0.00000000000E+00  0.16092478142E+03  0.16092478142E+03  0.00000000000E+00 0. -1.
          2   -1    0    0  502    0 -0.00000000000E+00 -0.00000000000E+00 -0.23984341449E+04  0.23984341449E+04  0.00000000000E+00 0.  1.
         25    1    1    2    0    0 -0.47579571191E+03 -0.47363066340E+02 -0.48673788609E+03  0.69365956296E+03  0.12500000000E+03 0.  0.
         21    1    1    2  503  501  0.57074049273E+02  0.31286728045E+02  0.40367184470E+00  0.65088166384E+02  0.00000000000E+00 0. -1.
          2    1    1    2  501    0  0.41872166264E+03  0.16076338295E+02 -0.17511751493E+04  0.18006111970E+04  0.00000000000E+00 0.  1.
<mgrwt>
<rscale>  4 0.44808464E+03</rscale>
<asrwt>0</asrwt>
<pdfrwt beam="1">  1       21 0.24757659E-01 0.44808464E+03</pdfrwt>
<pdfrwt beam="2">  1        2 0.36898986E+00 0.44808464E+03</pdfrwt>
<totfact> 0.81094340E+02</totfact>
</mgrwt>
</event>
<event>
 5    0  0.2306346E+000  0.2057594E+03  0.7546771E-02  0.1144969E+00
          2   -1    0    0  502    0 -0.00000000000E+00  0.00000000000E+00  0.97342445727E+03  0.97342445727E+03  0.00000000000E+00 0. -1.
         21   -1    0    0  503  502  0.00000000000E+00 -0.00000000000E+00 -0.30314931263E+03  0.30314931263E+03  0.00000000000E+00 0. -1.
         25    1    1    2    0    0 -0.58314597804E+02 -0.20680544057E+03  0.23473879669E+03  0.34190113372E+03  0.12500000000E+03 0.  0.
         21    1    1    2  503  501  0.40411945990E+02  0.52540918178E+02 -0.23614498994E+03  0.24527154286E+03  0.00000000000E+00 0. -1.
          2    1    1    2  501    0  0.17902651814E+02  0.15426452239E+03  0.67168133789E+03  0.68940109333E+03  0.00000000000E+00 0. -1.
<mgrwt>
<rscale>  4 0.20575943E+03</rscale>
<asrwt>0</asrwt>
<pdfrwt beam="1">  1       21 0.46638356E-01 0.20575943E+03</pdfrwt>
<pdfrwt beam="2">  1        2 0.14975761E+00 0.20575943E+03</pdfrwt>
<totfact> 0.15151741E+03</totfact>
</mgrwt>
</event>
<event>
 5    0  0.2306346E+000  0.2644418E+03  0.7546771E-02  0.1104503E+00
         21   -1    0    0  503  502  0.00000000000E+00  0.00000000000E+00  0.27494895648E+03  0.27494895648E+03  0.00000000000E+00 0. -1.
          1   -1    0    0  502    0 -0.00000000000E+00 -0.00000000000E+00 -0.65595636615E+03  0.65595636615E+03  0.00000000000E+00 0. -1.
         25    1    1    2    0    0 -0.88239797574E+02 -0.24684013826E+03 -0.37638746220E+03  0.47540386770E+03  0.12500000000E+03 0.  0.
         21    1    1    2  503  501  0.58572813889E+02  0.22151438801E+03  0.16442182192E+03  0.28201761318E+03  0.00000000000E+00 0. -1.
          1    1    1    2  501    0  0.29666983685E+02  0.25325750250E+02 -0.16904176939E+03  0.17348384174E+03  0.00000000000E+00 0. -1.
<mgrwt>
<rscale>  4 0.26444183E+03</rscale>
<asrwt>0</asrwt>
<pdfrwt beam="1">  1       21 0.42299840E-01 0.26444183E+03</pdfrwt>
<pdfrwt beam="2">  1        1 0.10091636E+00 0.26444183E+03</pdfrwt>
<totfact> 0.17999332E+03</totfact>
</mgrwt>
</event>
<event>
 5    0  0.2306346E+000  0.4301081E+03  0.7546771E-02  0.1033826E+00
          2   -1    0    0  502    0 -0.00000000000E+00  0.00000000000E+00  0.12161015229E+04  0.12161015229E+04  0.00000000000E+00 0. -1.
         21   -1    0    0  503  502  0.00000000000E+00 -0.00000000000E+00 -0.87383868583E+03  0.87383868583E+03  0.00000000000E+00 0.  1.
         25    1    1    2    0    0  0.11970280404E+03 -0.41154371408E+03  0.83414690785E+02  0.45418058141E+03  0.12500000000E+03 0.  0.
         21    1    1    2  503  501 -0.18714659611E+02  0.16701117306E+02 -0.64436569526E+03  0.64485371599E+03  0.00000000000E+00 0.  1.
          2    1    1    2  501    0 -0.10098814443E+03  0.39484259677E+03  0.90321384158E+03  0.99090591135E+03  0.00000000000E+00 0. -1.
<mgrwt>
<rscale>  4 0.43010810E+03</rscale>
<asrwt>0</asrwt>
<pdfrwt beam="1">  1       21 0.13443672E+00 0.43010810E+03</pdfrwt>
<pdfrwt beam="2">  1        2 0.18709254E+00 0.43010810E+03</pdfrwt>
<totfact> 0.85570708E+01</totfact>
</mgrwt>
</event>
<event>
 5    0  0.2306346E+000  0.1774863E+03  0.7546771E-02  0.1170258E+00
          2   -1    0    0  502    0 -0.00000000000E+00  0.00000000000E+00  0.41630483995E+04  0.41630483995E+04  0.00000000000E+00 0.  1.
         21   -1    0    0  503  502  0.00000000000E+00 -0.00000000000E+00 -0.11597207201E+03  0.11597207201E+03  0.00000000000E+00 0. -1.
         25    1    1    2    0    0 -0.18723062189E+03 -0.12747190016E+03  0.49865454220E+03  0.56177018750E+03  0.12500000000E+03 0.  0.
         21    1    1    2  503  501  0.66870829058E+02  0.10136758576E+03 -0.39129160041E+02  0.12758599605E+03  0.00000000000E+00 0. -1.
          2    1    1    2  501    0  0.12035979284E+03  0.26104314401E+02  0.35875509453E+04  0.35896642879E+04  0.00000000000E+00 0.  1.
<mgrwt>
<rscale>  4 0.17748630E+03</rscale>
<asrwt>0</asrwt>
<pdfrwt beam="1">  1       21 0.17841860E-01 0.17748630E+03</pdfrwt>
<pdfrwt beam="2">  1        2 0.64046887E+00 0.17748630E+03</pdfrwt>
<totfact> 0.13007033E+02</totfact>
</mgrwt>
</event>
<event>
 5    0  0.2306346E+000  0.2742928E+03  0.7546771E-02  0.1098848E+00
         21   -1    0    0  503  502  0.00000000000E+00  0.00000000000E+00  0.41852238732E+03  0.41852238732E+03  0.00000000000E+00 0.  1.
          1   -1    0    0  502    0 -0.00000000000E+00 -0.00000000000E+00 -0.41576216464E+03  0.41576216464E+03  0.00000000000E+00 0. -1.
         25    1    1    2    0    0  0.23287838740E+03 -0.51532769664E+02  0.26814415312E+03  0.38001875811E+03  0.12500000000E+03 0.  0.
         21    1    1    2  503  501  0.10562717347E+02  0.23627510908E+02  0.49151654669E+02  0.55549216251E+02  0.00000000000E+00 0. -1.
          1    1    1    2  501    0 -0.24344110475E+03  0.27905258756E+02 -0.31453558511E+03  0.39871657759E+03  0.00000000000E+00 0. -1.
<mgrwt>
<rscale>  4 0.27429282E+03</rscale>
<asrwt>0</asrwt>
<pdfrwt beam="1">  1       21 0.64388060E-01 0.27429282E+03</pdfrwt>
<pdfrwt beam="2">  1        1 0.63963410E-01 0.27429282E+03</pdfrwt>
<totfact> 0.13648264E+03</totfact>
</mgrwt>
</event>
<event>
 5    0  0.2311694E+000  0.2523344E+03  0.7546771E-02  0.1111838E+00
          2   -1    0    0  502    0 -0.00000000000E+00  0.00000000000E+00  0.41980032780E+03  0.41980032780E+03  0.00000000000E+00 0. -1.
         21   -1    0    0  503  502  0.00000000000E+00 -0.00000000000E+00 -0.44080440355E+03  0.44080440355E+03  0.00000000000E+00 0.  1.
         25    1    1    2    0    0 -0.10834655117E+03 -0.16984490079E+03 -0.35638849116E+03  0.42804675225E+03  0.12500000000E+03 0.  0.
         21    1    1    2  503  501 -0.21113965214E+02 -0.88837301886E+01 -0.80914187104E+01  0.24293852018E+02  0.00000000000E+00 0. -1.
          2    1    1    2  501    0  0.12946051638E+03  0.17872863098E+03  0.34347583413E+03  0.40826412708E+03  0.00000000000E+00 0. -1.
<mgrwt>
<rscale>  4 0.25233443E+03</rscale>
<asrwt>0</asrwt>
<pdfrwt beam="1">  1       21 0.67816062E-01 0.25233443E+03</pdfrwt>
<pdfrwt beam="2">  1        2 0.64584666E-01 0.25233443E+03</pdfrwt>
<totfact> 0.18315377E+03</totfact>
</mgrwt>
</event>
<event>
 5    0  0.2306346E+000  0.3438993E+03  0.7546771E-02  0.1065147E+00
         21   -1    0    0  503  502  0.00000000000E+00  0.00000000000E+00  0.58464977089E+03  0.58464977089E+03  0.00000000000E+00 0.  1.
          2   -1    0    0  502    0 -0.00000000000E+00 -0.00000000000E+00 -0.18831679422E+04  0.18831679422E+04  0.00000000000E+00 0. -1.
         25    1    1    2    0    0  0.27385831740E+03  0.80457668260E+02 -0.52428075698E+03  0.60989107759E+03  0.12500000000E+03 0.  0.
         21    1    1    2  503  501  0.45978083757E+02  0.29607540129E+02  0.51865029891E+03  0.52152538114E+03  0.00000000000E+00 0.  1.
          2    1    1    2  501    0 -0.31983640115E+03 -0.11006520839E+03 -0.12928877132E+04  0.13364012543E+04  0.00000000000E+00 0. -1.
<mgrwt>
<rscale>  4 0.34389932E+03</rscale>
<asrwt>0</asrwt>
<pdfrwt beam="1">  1       21 0.89946119E-01 0.34389932E+03</pdfrwt>
<pdfrwt beam="2">  1        2 0.28971814E+00 0.34389932E+03</pdfrwt>
<totfact> 0.10439907E+02</totfact>
</mgrwt>
</event>
<event>
 5    0  0.2306346E+000  0.3283262E+03  0.7546771E-02  0.1071880E+00
         21   -1    0    0  503  502  0.00000000000E+00  0.00000000000E+00  0.16048197144E+04  0.16048197144E+04  0.00000000000E+00 0. -1.
          1   -1    0    0  502    0 -0.00000000000E+00 -0.00000000000E+00 -0.51226657043E+03  0.51226657043E+03  0.00000000000E+00 0.  1.
         25    1    1    2    0    0 -0.35435019238E+03 -0.32117823609E+02 -0.24885013864E+03  0.45182629952E+03  0.12500000000E+03 0.  0.
         21    1    1    2  503  501  0.10258016153E+03  0.13988445004E+02  0.14018774111E+04  0.14056950743E+04  0.00000000000E+00 0. -1.
          1    1    1    2  501    0  0.25177003085E+03  0.18129378605E+02 -0.60474128507E+02  0.25956491100E+03  0.00000000000E+00 0.  1.
<mgrwt>
<rscale>  4 0.32832615E+03</rscale>
<asrwt>0</asrwt>
<pdfrwt beam="1">  1       21 0.24689534E+00 0.32832615E+03</pdfrwt>
<pdfrwt beam="2">  1        1 0.78810242E-01 0.32832615E+03</pdfrwt>
<totfact> 0.29637449E+01</totfact>
</mgrwt>
</event>
<event>
 5    0  0.2306346E+000  0.3145208E+03  0.7546771E-02  0.1078199E+00
         21   -1    0    0  503  502  0.00000000000E+00  0.00000000000E+00  0.25395450341E+03  0.25395450341E+03  0.00000000000E+00 0. -1.
          1   -1    0    0  502    0 -0.00000000000E+00 -0.00000000000E+00 -0.89051326731E+03  0.89051326731E+03  0.00000000000E+00 0.  1.
         25    1    1    2    0    0  0.22306213972E+03 -0.20866967314E+03  0.57755271740E+02  0.33505286461E+03  0.12500000000E+03 0.  0.
         21    1    1    2  503  501  0.84346544449E+01  0.39858400172E+02  0.15786381958E+02  0.43692623121E+02  0.00000000000E+00 0. -1.
          1    1    1    2  501    0 -0.23149679417E+03  0.16881127297E+03 -0.71010041760E+03  0.76572228299E+03  0.00000000000E+00 0.  1.
<mgrwt>
<rscale>  4 0.31452081E+03</rscale>
<asrwt>0</asrwt>
<pdfrwt beam="1">  1       21 0.39069923E-01 0.31452081E+03</pdfrwt>
<pdfrwt beam="2">  1        1 0.13700204E+00 0.31452081E+03</pdfrwt>
<totfact> 0.13067367E+03</totfact>
</mgrwt>
</event>
<event>
 5    0  0.2306346E+000  0.2351969E+03  0.7546771E-02  0.1123035E+00
         21   -1    0    0  501  502  0.00000000000E+00  0.00000000000E+00  0.85184638971E+03  0.85184638971E+03  0.00000000000E+00 0. -1.
         -2   -1    0    0    0  501 -0.00000000000E+00 -0.00000000000E+00 -0.77839773308E+02  0.77839773308E+02  0.00000000000E+00 0.  1.
         25    1    1    2    0    0  0.31335573207E+02  0.21306344242E+03  0.38178770094E+03  0.45581223901E+03  0.12500000000E+03 0.  0.
         21    1    1    2  503  502  0.18597802572E+02 -0.28871397831E+02  0.20029387772E+03  0.20321681358E+03  0.00000000000E+00 0.  1.
         -2    1    1    2    0  503 -0.49933375778E+02 -0.18419204459E+03  0.19192503775E+03  0.27065711042E+03  0.00000000000E+00 0.  1.
<mgrwt>
<rscale>  4 0.23519687E+03</rscale>
<asrwt>0</asrwt>
<pdfrwt beam="1">  1       21 0.13105328E+00 0.23519687E+03</pdfrwt>
<pdfrwt beam="2">  1       -2 0.11975350E-01 0.23519687E+03</pdfrwt>
<totfact> 0.16282397E+03</totfact>
</mgrwt>
</event>
<event>
 5    0  0.2306346E+000  0.2744971E+03  0.7546771E-02  0.1098733E+00
         21   -1    0    0  501  502  0.00000000000E+00  0.00000000000E+00  0.39502046146E+03  0.39502046146E+03  0.00000000000E+00 0.  1.
         -4   -1    0    0    0  501 -0.00000000000E+00 -0.00000000000E+00 -0.63741384373E+03  0.63741384373E+03  0.00000000000E+00 0.  1.
         25    1    1    2    0    0  0.19788075225E+03  0.12637657781E+03 -0.14727082346E+03  0.30404198225E+03  0.12500000000E+03 0.  0.
         21    1    1    2  503  502 -0.19569038322E+00  0.25517002191E+02  0.27826228188E+03  0.27942987173E+03  0.00000000000E+00 0.  1.
         -4    1    1    2    0  503 -0.19768506187E+03 -0.15189358000E+03 -0.37338484069E+03  0.44896245120E+03  0.00000000000E+00 0.  1.
<mgrwt>
<rscale>  4 0.27449708E+03</rscale>
<asrwt>0</asrwt>
<pdfrwt beam="1">  1       21 0.60772380E-01 0.27449708E+03</pdfrwt>
<pdfrwt beam="2">  1       -4 0.98063667E-01 0.27449708E+03</pdfrwt>
<totfact> 0.93073655E+01</totfact>
</mgrwt>
</event>
<event>
 5    0  0.2306346E+000  0.2789100E+03  0.7546771E-02  0.1096286E+00
         21   -1    0    0  503  502  0.00000000000E+00  0.00000000000E+00  0.23540174575E+03  0.23540174575E+03  0.00000000000E+00 0. -1.
          2   -1    0    0  502    0 -0.00000000000E+00 -0.00000000000E+00 -0.84165161686E+03  0.84165161686E+03  0.00000000000E+00 0. -1.
         25    1    1    2    0    0  0.10675842375E+03  0.25067572155E+03 -0.66087288022E+03  0.72568150192E+03  0.12500000000E+03 0.  0.
         21    1    1    2  503  501 -0.11896389831E+03 -0.21635194003E+03  0.12152938074E+03  0.27519077281E+03  0.00000000000E+00 0. -1.
          2    1    1    2  501    0  0.12205474565E+02 -0.34323781524E+02 -0.66906371623E+02  0.76181087884E+02  0.00000000000E+00 0. -1.
<mgrwt>
<rscale>  4 0.27891000E+03</rscale>
<asrwt>0</asrwt>
<pdfrwt beam="1">  1       21 0.36215653E-01 0.27891000E+03</pdfrwt>
<pdfrwt beam="2">  1        2 0.12948486E+00 0.27891000E+03</pdfrwt>
<totfact> 0.29945896E+03</totfact>
</mgrwt>
</event>
<event>
 5    0  0.2306346E+000  0.2693074E+03  0.7546771E-02  0.1101677E+00
          2   -1    0    0  502    0 -0.00000000000E+00  0.00000000000E+00  0.17687346250E+04  0.17687346250E+04  0.00000000000E+00 0. -1.
         21   -1    0    0  503  502  0.00000000000E+00 -0.00000000000E+00 -0.49609067623E+02  0.49609067623E+02  0.00000000000E+00 0. -1.
         25    1    1    2    0    0 -0.16040503710E+03  0.19087000337E+03  0.11638533855E+04  0.11968044273E+04  0.12500000000E+03 0.  0.
         21    1    1    2  503  501  0.55012309797E+01 -0.28590059119E+02  0.81892233529E+01  0.30244311892E+02  0.00000000000E+00 0.  1.
          2    1    1    2  501    0  0.15490380612E+03 -0.16227994425E+03  0.54708294847E+03  0.59129495344E+03  0.00000000000E+00 0. -1.
<mgrwt>
<rscale>  4 0.26930736E+03</rscale>
<asrwt>0</asrwt>
<pdfrwt beam="1">  1       21 0.76321656E-02 0.26930736E+03</pdfrwt>
<pdfrwt beam="2">  1        2 0.27211297E+00 0.26930736E+03</pdfrwt>
<totfact> 0.16158507E+04</totfact>
</mgrwt>
</event>
<event>
 5    0  0.2306346E+000  0.2354389E+03  0.7546771E-02  0.1122869E+00
         21   -1    0    0  501  502  0.00000000000E+00  0.00000000000E+00  0.71839889694E+02  0.71839889694E+02  0.00000000000E+00 0.  1.
         -4   -1    0    0    0  501 -0.00000000000E+00 -0.00000000000E+00 -0.11727119070E+04  0.11727119070E+04  0.00000000000E+00 0.  1.
         25    1    1    2    0    0  0.17733422641E+03 -0.10839628314E+03 -0.46396704684E+03  0.52353376453E+03  0.12500000000E+03 0.  0.
         21    1    1    2  503  502  0.69585862820E+01  0.39704361632E+02  0.12723169833E+02  0.42269815545E+02  0.00000000000E+00 0.  1.
         -4    1    1    2    0  503 -0.18429281269E+03  0.68691921508E+02 -0.64962814028E+03  0.67874821660E+03  0.00000000000E+00 0.  1.
<mgrwt>
<rscale>  4 0.23543894E+03</rscale>
<asrwt>0</asrwt>
<pdfrwt beam="1">  1       21 0.11052292E-01 0.23543894E+03</pdfrwt>
<pdfrwt beam="2">  1       -4 0.18041719E+00 0.23543894E+03</pdfrwt>
<totfact> 0.55366081E+02</totfact>
</mgrwt>
</event>
<event>
 5    0  0.2306346E+000  0.1910681E+03  0.7546771E-02  0.1157501E+00
         21   -1    0    0  503  502  0.00000000000E+00  0.00000000000E+00  0.38544843339E+03  0.38544843339E+03  0.00000000000E+00 0.  1.
          2   -1    0    0  502    0 -0.00000000000E+00 -0.00000000000E+00 -0.50396475664E+03  0.50396475664E+03  0.00000000000E+00 0.  1.
         25    1    1    2    0    0 -0.17181119960E+03  0.16143570361E+03  0.12738022963E+03  0.29568783812E+03  0.12500000000E+03 0.  0.
         21    1    1    2  503  501  0.94100925211E+02 -0.45460553340E+02  0.14494963757E+03  0.17869539297E+03  0.00000000000E+00 0.  1.
          2    1    1    2  501    0  0.77710274389E+02 -0.11597515027E+03 -0.39084619046E+03  0.41502995894E+03  0.00000000000E+00 0.  1.
<mgrwt>
<rscale>  4 0.19106814E+03</rscale>
<asrwt>0</asrwt>
<pdfrwt beam="1">  1       21 0.59299759E-01 0.19106814E+03</pdfrwt>
<pdfrwt beam="2">  1        2 0.77533039E-01 0.19106814E+03</pdfrwt>
<totfact> 0.20548482E+03</totfact>
</mgrwt>
</event>
<event>
 5    0  0.2306346E+000  0.2018025E+03  0.7546771E-02  0.1148227E+00
          2   -1    0    0  502    0 -0.00000000000E+00  0.00000000000E+00  0.27036290968E+04  0.27036290968E+04  0.00000000000E+00 0.  1.
         21   -1    0    0  503  502  0.00000000000E+00 -0.00000000000E+00 -0.46878442716E+02  0.46878442716E+02  0.00000000000E+00 0.  1.
         25    1    1    2    0    0 -0.13530109474E+03  0.18517524684E+03  0.11902710004E+04  0.12185919385E+04  0.12500000000E+03 0.  0.
         21    1    1    2  503  501  0.43866332007E+02 -0.77687116670E+02  0.38815939721E+02  0.97294503219E+02  0.00000000000E+00 0.  1.
          2    1    1    2  501    0  0.91434762730E+02 -0.10748813017E+03  0.14276637140E+04  0.14346210978E+04  0.00000000000E+00 0.  1.
<mgrwt>
<rscale>  4 0.20180251E+03</rscale>
<asrwt>0</asrwt>
<pdfrwt beam="1">  1       21 0.72120702E-02 0.20180251E+03</pdfrwt>
<pdfrwt beam="2">  1        2 0.41594282E+00 0.20180251E+03</pdfrwt>
<totfact> 0.57954179E+03</totfact>
</mgrwt>
</event>
<event>
 5    0  0.2306346E+000  0.2316848E+03  0.7546771E-02  0.1125460E+00
         21   -1    0    0  503  502  0.00000000000E+00  0.00000000000E+00  0.14648487627E+03  0.14648487627E+03  0.00000000000E+00 0. -1.
          2   -1    0    0  502    0 -0.00000000000E+00 -0.00000000000E+00 -0.12186534455E+04  0.12186534455E+04  0.00000000000E+00 0. -1.
         25    1    1    2    0    0 -0.44489911113E+02  0.20947269964E+03 -0.51554046613E+01  0.24801157691E+03  0.12500000000E+03 0.  0.
         21    1    1    2  503  501  0.18120155327E+02 -0.17528665193E+02  0.66896111850E+01  0.26083424436E+02  0.00000000000E+00 0.  1.
          2    1    1    2  501    0  0.26369755786E+02 -0.19194403445E+03 -0.10737027758E+04  0.10910433204E+04  0.00000000000E+00 0. -1.
<mgrwt>
<rscale>  4 0.23168478E+03</rscale>
<asrwt>0</asrwt>
<pdfrwt beam="1">  1       21 0.22536134E-01 0.23168478E+03</pdfrwt>
<pdfrwt beam="2">  1        2 0.18748515E+00 0.23168478E+03</pdfrwt>
<totfact> 0.45256952E+03</totfact>
</mgrwt>
</event>
<event>
 5    0  0.2306346E+000  0.3105332E+03  0.7546771E-02  0.1080091E+00
          2   -1    0    0  502    0 -0.00000000000E+00  0.00000000000E+00  0.33206137309E+04  0.33206137309E+04  0.00000000000E+00 0.  1.
         21   -1    0    0  503  502  0.00000000000E+00 -0.00000000000E+00 -0.26639832778E+03  0.26639832778E+03  0.00000000000E+00 0. -1.
         25    1    1    2    0    0  0.57621935449E+02  0.30124793263E+03 -0.92593415788E+02  0.34390281332E+03  0.12500000000E+03 0.  0.
         21    1    1    2  503  501 -0.19737010945E+02 -0.20161073800E+02 -0.37090514413E+02  0.46601767748E+02  0.00000000000E+00 0. -1.
          2    1    1    2  501    0 -0.37884924504E+02 -0.28108685884E+03  0.31838993333E+04  0.31965074776E+04  0.00000000000E+00 0.  1.
<mgrwt>
<rscale>  4 0.31053324E+03</rscale>
<asrwt>0</asrwt>
<pdfrwt beam="1">  1       21 0.40984360E-01 0.31053324E+03</pdfrwt>
<pdfrwt beam="2">  1        2 0.51086362E+00 0.31053324E+03</pdfrwt>
<totfact> 0.90952920E+01</totfact>
</mgrwt>
</event>
<event>
 5    0  0.2306346E+000  0.2101987E+03  0.7546771E-02  0.1141409E+00
         21   -1    0    0  503  502  0.00000000000E+00  0.00000000000E+00  0.24329293526E+03  0.24329293526E+03  0.00000000000E+00 0. -1.
          1   -1    0    0  502    0 -0.00000000000E+00 -0.00000000000E+00 -0.28376583093E+03  0.28376583093E+03  0.00000000000E+00 0. -1.
         25    1    1    2    0    0  0.19949471015E+03 -0.69265469541E+02  0.81367028562E+02  0.25853711143E+03  0.12500000000E+03 0.  0.
         21    1    1    2  503  501 -0.42891212912E+02  0.35937705119E+02  0.14966625033E+02  0.57923869512E+02  0.00000000000E+00 0. -1.
          1    1    1    2  501    0 -0.15660349724E+03  0.33327764421E+02 -0.13680654926E+03  0.21059778525E+03  0.00000000000E+00 0. -1.
<mgrwt>
<rscale>  4 0.21019872E+03</rscale>
<asrwt>0</asrwt>
<pdfrwt beam="1">  1       21 0.37429682E-01 0.21019872E+03</pdfrwt>
<pdfrwt beam="2">  1        1 0.43656282E-01 0.21019872E+03</pdfrwt>
<totfact> 0.70379098E+03</totfact>
</mgrwt>
</event>
<event>
 5    0  0.2306346E+000  0.2678225E+03  0.7546771E-02  0.1102532E+00
         21   -1    0    0  503  502  0.00000000000E+00  0.00000000000E+00  0.86506366634E+02  0.86506366634E+02  0.00000000000E+00 0.  1.
          2   -1    0    0  502    0 -0.00000000000E+00 -0.00000000000E+00 -0.95026153322E+03  0.95026153322E+03  0.00000000000E+00 0.  1.
         25    1    1    2    0    0  0.19768868306E+03 -0.11214642203E+03 -0.25529673722E+03  0.36394925391E+03  0.12500000000E+03 0.  0.
         21    1    1    2  503  501  0.22692061542E+02  0.13811128376E+02 -0.11538338570E+02  0.28962219891E+02  0.00000000000E+00 0. -1.
          2    1    1    2  501    0 -0.22038074461E+03  0.98335293659E+02 -0.59692009079E+03  0.64385642605E+03  0.00000000000E+00 0.  1.
<mgrwt>
<rscale>  4 0.26782251E+03</rscale>
<asrwt>0</asrwt>
<pdfrwt beam="1">  1       21 0.13308671E-01 0.26782251E+03</pdfrwt>
<pdfrwt beam="2">  1        2 0.14619410E+00 0.26782251E+03</pdfrwt>
<totfact> 0.17175050E+04</totfact>
</mgrwt>
</event>
<event>
 5    0  0.2306346E+000  0.4665787E+03  0.7546771E-02  0.1022890E+00
          2   -1    0    0  502    0 -0.00000000000E+00  0.00000000000E+00  0.74958705604E+03  0.74958705604E+03  0.00000000000E+00 0.  1.
         21   -1    0    0  503  502  0.00000000000E+00 -0.00000000000E+00 -0.56164826708E+03  0.56164826708E+03  0.00000000000E+00 0.  1.
         25    1    1    2    0    0  0.37374402766E+03  0.17570644194E+03 -0.28753888043E+03  0.51851804183E+03  0.12500000000E+03 0.  0.
         21    1    1    2  503  501  0.31018958227E+02  0.36794333426E+02 -0.67512288476E+02  0.82909033507E+02  0.00000000000E+00 0.  1.
          2    1    1    2  501    0 -0.40476298588E+03 -0.21250077536E+03  0.54298995786E+03  0.70980824778E+03  0.00000000000E+00 0.  1.
<mgrwt>
<rscale>  4 0.46657868E+03</rscale>
<asrwt>0</asrwt>
<pdfrwt beam="1">  1       21 0.86407426E-01 0.46657868E+03</pdfrwt>
<pdfrwt beam="2">  1        2 0.11532109E+00 0.46657868E+03</pdfrwt>
<totfact> 0.50208446E+02</totfact>
</mgrwt>
</event>
<event>
 5    0  0.2306346E+000  0.2576602E+03  0.7546771E-02  0.1108557E+00
         21   -1    0    0  503  502  0.00000000000E+00  0.00000000000E+00  0.55050801700E+03  0.55050801700E+03  0.00000000000E+00 0.  1.
          4   -1    0    0  502    0 -0.00000000000E+00 -0.00000000000E+00 -0.40544763212E+03  0.40544763212E+03  0.00000000000E+00 0. -1.
         25    1    1    2    0    0  0.17982333378E+03 -0.17759788871E+03  0.44910439428E+03  0.53028030173E+03  0.12500000000E+03 0.  0.
         21    1    1    2  503  501 -0.11367071583E+02  0.30913977468E+02  0.15014841114E+02  0.36198477495E+02  0.00000000000E+00 0. -1.
          4    1    1    2  501    0 -0.16845626219E+03  0.14668391124E+03 -0.31905885051E+03  0.38947686989E+03  0.00000000000E+00 0. -1.
<mgrwt>
<rscale>  4 0.25766021E+03</rscale>
<asrwt>0</asrwt>
<pdfrwt beam="1">  1       21 0.84693541E-01 0.25766021E+03</pdfrwt>
<pdfrwt beam="2">  1        4 0.62376559E-01 0.25766021E+03</pdfrwt>
<totfact> 0.12227197E+02</totfact>
</mgrwt>
</event>
<event>
 5    0  0.2306346E+000  0.1956864E+03  0.7546771E-02  0.1153430E+00
         -3   -1    0    0    0  501 -0.00000000000E+00  0.00000000000E+00  0.86359626461E+02  0.86359626461E+02  0.00000000000E+00 0.  1.
         21   -1    0    0  501  502  0.00000000000E+00 -0.00000000000E+00 -0.15679438546E+04  0.15679438546E+04  0.00000000000E+00 0.  1.
         25    1    1    2    0    0  0.17226975682E+03  0.10791028450E+03 -0.87062447991E+03  0.90273666351E+03  0.12500000000E+03 0.  0.
         21    1    1    2  503  502 -0.35278117552E+02 -0.56727967086E+02 -0.60130864829E+03  0.60500801511E+03  0.00000000000E+00 0.  1.
         -3    1    1    2    0  503 -0.13699163927E+03 -0.51182317417E+02 -0.96510999369E+01  0.14655880245E+03  0.00000000000E+00 0.  1.
<mgrwt>
<rscale>  4 0.19568643E+03</rscale>
<asrwt>0</asrwt>
<pdfrwt beam="1">  1       21 0.24122215E+00 0.19568643E+03</pdfrwt>
<pdfrwt beam="2">  1       -3 0.13286095E-01 0.19568643E+03</pdfrwt>
<totfact> 0.16835568E+02</totfact>
</mgrwt>
</event>
<event>
 5    0  0.2306346E+000  0.2411885E+03  0.7546771E-02  0.1119004E+00
         21   -1    0    0  503  502  0.00000000000E+00  0.00000000000E+00  0.70387817451E+02  0.70387817451E+02  0.00000000000E+00 0. -1.
          2   -1    0    0  502    0 -0.00000000000E+00 -0.00000000000E+00 -0.39555001812E+04  0.39555001812E+04  0.00000000000E+00 0.  1.
         25    1    1    2    0    0  0.39894287353E+02 -0.20519443631E+03 -0.16082831344E+03  0.29186821899E+03  0.12500000000E+03 0.  0.
         21    1    1    2  503  501 -0.27834882756E+02  0.41296834967E+02 -0.20730272407E+03  0.21320091154E+03  0.00000000000E+00 0. -1.
          2    1    1    2  501    0 -0.12059404597E+02  0.16389760134E+03 -0.35169813262E+04  0.35208188681E+04  0.00000000000E+00 0.  1.
<mgrwt>
<rscale>  4 0.24118849E+03</rscale>
<asrwt>0</asrwt>
<pdfrwt beam="1">  1       21 0.10828898E-01 0.24118849E+03</pdfrwt>
<pdfrwt beam="2">  1        2 0.60853833E+00 0.24118849E+03</pdfrwt>
<totfact> 0.43775974E+02</totfact>
</mgrwt>
</event>
<event>
 5    0  0.2306346E+000  0.1021913E+04  0.7546771E-02  0.9284832E-01
          2   -1    0    0  502    0 -0.00000000000E+00  0.00000000000E+00  0.24763014431E+04  0.24763014431E+04  0.00000000000E+00 0. -1.
         21   -1    0    0  503  502  0.00000000000E+00 -0.00000000000E+00 -0.48397579307E+03  0.48397579307E+03  0.00000000000E+00 0. -1.
         25    1    1    2    0    0 -0.79913455746E+03 -0.62339685708E+03  0.10577345325E+04  0.14702608692E+04  0.12500000000E+03 0.  0.
         21    1    1    2  503  501  0.13791171604E+02 -0.19799491041E+02 -0.62571071969E+02  0.67062324051E+02  0.00000000000E+00 0. -1.
          2    1    1    2  501    0  0.78534338586E+03  0.64319634812E+03  0.99716218948E+03  0.14229540429E+04  0.00000000000E+00 0. -1.
<mgrwt>
<rscale>  4 0.10219132E+04</rscale>
<asrwt>0</asrwt>
<pdfrwt beam="1">  1       21 0.74457815E-01 0.10219132E+04</pdfrwt>
<pdfrwt beam="2">  1        2 0.38096945E+00 0.10219132E+04</pdfrwt>
<totfact> 0.62800243E+01</totfact>
</mgrwt>
</event>
<event>
 5    0  0.2306346E+000  0.2851009E+03  0.7546771E-02  0.1092935E+00
         21   -1    0    0  503  502  0.00000000000E+00  0.00000000000E+00  0.33147522277E+03  0.33147522277E+03  0.00000000000E+00 0. -1.
          1   -1    0    0  502    0 -0.00000000000E+00 -0.00000000000E+00 -0.28058082010E+04  0.28058082010E+04  0.00000000000E+00 0.  1.
         25    1    1    2    0    0 -0.15457496132E+03 -0.17602297325E+03  0.26419711955E+03  0.37456991838E+03  0.12500000000E+03 0.  0.
         21    1    1    2  503  501 -0.56417824699E+01 -0.24486040809E+02 -0.20055526070E+02  0.32149961584E+02  0.00000000000E+00 0. -1.
          1    1    1    2  501    0  0.16021674379E+03  0.20050901406E+03 -0.27184745717E+04  0.27305635438E+04  0.00000000000E+00 0.  1.
<mgrwt>
<rscale>  4 0.28510090E+03</rscale>
<asrwt>0</asrwt>
<pdfrwt beam="1">  1       21 0.50996187E-01 0.28510090E+03</pdfrwt>
<pdfrwt beam="2">  1        1 0.43166281E+00 0.28510090E+03</pdfrwt>
<totfact> 0.38456601E+01</totfact>
</mgrwt>
</event>
<event>
 5    0  0.2306346E+000  0.2495687E+03  0.7546771E-02  0.1113578E+00
          2   -1    0    0  502    0 -0.00000000000E+00  0.00000000000E+00  0.74435604903E+03  0.74435604903E+03  0.00000000000E+00 0.  1.
         21   -1    0    0  503  502  0.00000000000E+00 -0.00000000000E+00 -0.12355081193E+04  0.12355081193E+04  0.00000000000E+00 0.  1.
         25    1    1    2    0    0  0.20207767515E+03  0.10291416005E+03 -0.10919597025E+04  0.11222422658E+04  0.12500000000E+03 0.  0.
         21    1    1    2  503  501 -0.24247942141E+01 -0.20843167000E+02 -0.11143135940E+03  0.11338988092E+03  0.00000000000E+00 0.  1.
          2    1    1    2  501    0 -0.19965288093E+03 -0.82070993048E+02  0.71223899167E+03  0.74423202163E+03  0.00000000000E+00 0.  1.
<mgrwt>
<rscale>  4 0.24956869E+03</rscale>
<asrwt>0</asrwt>
<pdfrwt beam="1">  1       21 0.19007817E+00 0.24956869E+03</pdfrwt>
<pdfrwt beam="2">  1        2 0.11451632E+00 0.24956869E+03</pdfrwt>
<totfact> 0.72621759E+01</totfact>
</mgrwt>
</event>
<event>
 5    0  0.2306346E+000  0.2506637E+03  0.7546771E-02  0.1112886E+00
          4   -1    0    0  502    0 -0.00000000000E+00  0.00000000000E+00  0.62676470295E+03  0.62676470295E+03  0.00000000000E+00 0.  1.
         21   -1    0    0  503  502  0.00000000000E+00 -0.00000000000E+00 -0.15341542265E+03  0.15341542265E+03  0.00000000000E+00 0.  1.
         25    1    1    2    0    0  0.94479548932E+02  0.21315569017E+03  0.26435519210E+03  0.37399251464E+03  0.12500000000E+03 0.  0.
         21    1    1    2  503  501 -0.29514316036E+02 -0.16176340119E+02 -0.58625669651E+02  0.67599837076E+02  0.00000000000E+00 0.  1.
          4    1    1    2  501    0 -0.64965232896E+02 -0.19697935005E+03  0.26761975785E+03  0.33858777389E+03  0.00000000000E+00 0.  1.
<mgrwt>
<rscale>  4 0.25066369E+03</rscale>
<asrwt>0</asrwt>
<pdfrwt beam="1">  1       21 0.23602373E-01 0.25066369E+03</pdfrwt>
<pdfrwt beam="2">  1        4 0.96425338E-01 0.25066369E+03</pdfrwt>
<totfact> 0.66020115E+02</totfact>
</mgrwt>
</event>
<event>
 5    0  0.2306346E+000  0.2411750E+03  0.7546771E-02  0.1119013E+00
         -1   -1    0    0    0  501 -0.00000000000E+00  0.00000000000E+00  0.80171263802E+03  0.80171263802E+03  0.00000000000E+00 0. -1.
         21   -1    0    0  501  502  0.00000000000E+00 -0.00000000000E+00 -0.27151741458E+03  0.27151741458E+03  0.00000000000E+00 0. -1.
         25    1    1    2    0    0 -0.26936562213E+03  0.51118193463E+02 -0.44380278382E+02  0.30457432131E+03  0.12500000000E+03 0.  0.
         21    1    1    2  503  502  0.68759230010E+02 -0.51452614739E+02 -0.58925532188E+02  0.10415095592E+03  0.00000000000E+00 0. -1.
         -1    1    1    2    0  503  0.20060639212E+03  0.33442127593E+00  0.63350103401E+03  0.66450477537E+03  0.00000000000E+00 0. -1.
<mgrwt>
<rscale>  4 0.24117499E+03</rscale>
<asrwt>0</asrwt>
<pdfrwt beam="1">  1       21 0.41771910E-01 0.24117499E+03</pdfrwt>
<pdfrwt beam="2">  1       -1 0.12334040E+00 0.24117499E+03</pdfrwt>
<totfact> 0.31429301E+02</totfact>
</mgrwt>
</event>
<event>
 5    0  0.2306346E+000  0.3407463E+03  0.7546771E-02  0.1066478E+00
         21   -1    0    0  503  502  0.00000000000E+00  0.00000000000E+00  0.63110556004E+03  0.63110556004E+03  0.00000000000E+00 0. -1.
          1   -1    0    0  502    0 -0.00000000000E+00 -0.00000000000E+00 -0.28412039746E+04  0.28412039746E+04  0.00000000000E+00 0.  1.
         25    1    1    2    0    0 -0.32738871777E+03 -0.40714853059E+02  0.48792507966E+03  0.60211041773E+03  0.12500000000E+03 0.  0.
         21    1    1    2  503  501  0.10606193384E+02  0.46185890518E+02  0.69764183718E+02  0.84336641805E+02  0.00000000000E+00 0. -1.
          1    1    1    2  501    0  0.31678252439E+03 -0.54710374591E+01 -0.27677876780E+04  0.27858624751E+04  0.00000000000E+00 0.  1.
<mgrwt>
<rscale>  4 0.34074633E+03</rscale>
<asrwt>0</asrwt>
<pdfrwt beam="1">  1       21 0.97093163E-01 0.34074633E+03</pdfrwt>
<pdfrwt beam="2">  1        1 0.43710830E+00 0.34074633E+03</pdfrwt>
<totfact> 0.82567195E+00</totfact>
</mgrwt>
</event>
<event>
 5    0  0.2306346E+000  0.2655903E+03  0.7546771E-02  0.1103830E+00
         21   -1    0    0  503  502  0.00000000000E+00  0.00000000000E+00  0.71119949865E+02  0.71119949865E+02  0.00000000000E+00 0. -1.
          4   -1    0    0  502    0 -0.00000000000E+00 -0.00000000000E+00 -0.12365888657E+04  0.12365888657E+04  0.00000000000E+00 0. -1.
         25    1    1    2    0    0  0.33346685382E+02  0.21741020938E+03 -0.42927078712E+03  0.49827463235E+03  0.12500000000E+03 0.  0.
         21    1    1    2  503  501  0.46134381909E+01  0.21928695901E+02  0.10245493227E+02  0.24639838623E+02  0.00000000000E+00 0. -1.
          4    1    1    2  501    0 -0.37960123573E+02 -0.23933890529E+03 -0.74644362196E+03  0.78479434461E+03  0.00000000000E+00 0. -1.
<mgrwt>
<rscale>  4 0.26559035E+03</rscale>
<asrwt>0</asrwt>
<pdfrwt beam="1">  1       21 0.10941530E-01 0.26559035E+03</pdfrwt>
<pdfrwt beam="2">  1        4 0.19024445E+00 0.26559035E+03</pdfrwt>
<totfact> 0.48433180E+02</totfact>
</mgrwt>
</event>
<event>
 5    0  0.2306346E+000  0.2852418E+03  0.7546771E-02  0.1092860E+00
          2   -1    0    0  502    0 -0.00000000000E+00  0.00000000000E+00  0.54125830141E+03  0.54125830141E+03  0.00000000000E+00 0.  1.
         21   -1    0    0  503  502  0.00000000000E+00 -0.00000000000E+00 -0.26747405296E+03  0.26747405296E+03  0.00000000000E+00 0.  1.
         25    1    1    2    0    0  0.26577099144E+03 -0.92229664785E+00 -0.11764780272E+03  0.31638754085E+03  0.12500000000E+03 0.  0.
         21    1    1    2  503  501 -0.38759389386E+02 -0.43053506014E+02  0.13584561928E+03  0.14768184358E+03  0.00000000000E+00 0.  1.
          2    1    1    2  501    0 -0.22701160205E+03  0.43975802661E+02  0.25558643189E+03  0.34466296994E+03  0.00000000000E+00 0.  1.
<mgrwt>
<rscale>  4 0.28524179E+03</rscale>
<asrwt>0</asrwt>
<pdfrwt beam="1">  1       21 0.41149854E-01 0.28524179E+03</pdfrwt>
<pdfrwt beam="2">  1        2 0.83270508E-01 0.28524179E+03</pdfrwt>
<totfact> 0.39417732E+03</totfact>
</mgrwt>
</event>
<event>
 5    0  0.2306346E+000  0.1812724E+03  0.7546771E-02  0.1166577E+00
         -2   -1    0    0    0  501 -0.00000000000E+00  0.00000000000E+00  0.50179678573E+02  0.50179678573E+02  0.00000000000E+00 0. -1.
         21   -1    0    0  501  502  0.00000000000E+00 -0.00000000000E+00 -0.13967342328E+04  0.13967342328E+04  0.00000000000E+00 0. -1.
         25    1    1    2    0    0 -0.80484258077E+02  0.19216337703E+03 -0.56228106750E+03  0.61252712441E+03  0.12500000000E+03 0.  0.
         21    1    1    2  503  502  0.17997111982E+02 -0.98691883820E+02 -0.65678279881E+03  0.66440020227E+03  0.00000000000E+00 0. -1.
         -2    1    1    2    0  503  0.62487146095E+02 -0.93471493206E+02 -0.12749068792E+03  0.16998658470E+03  0.00000000000E+00 0. -1.
<mgrwt>
<rscale>  4 0.18127237E+03</rscale>
<asrwt>0</asrwt>
<pdfrwt beam="1">  1       21 0.21488216E+00 0.18127237E+03</pdfrwt>
<pdfrwt beam="2">  1       -2 0.77199514E-02 0.18127237E+03</pdfrwt>
<totfact> 0.85183273E+02</totfact>
</mgrwt>
</event>
<event>
 5    0  0.2306346E+000  0.2248911E+03  0.7546771E-02  0.1130288E+00
          2   -1    0    0  502    0 -0.00000000000E+00  0.00000000000E+00  0.32338076486E+04  0.32338076486E+04  0.00000000000E+00 0. -1.
         21   -1    0    0  503  502  0.00000000000E+00 -0.00000000000E+00 -0.54762014596E+02  0.54762014596E+02  0.00000000000E+00 0.  1.
         25    1    1    2    0    0 -0.13106837377E+03 -0.21975949788E+03  0.73017214652E+03  0.78374072183E+03  0.12500000000E+03 0.  0.
         21    1    1    2  503  501  0.10506775915E+03  0.12682260733E+03  0.22484992961E+03  0.27871257343E+03  0.00000000000E+00 0.  1.
          2    1    1    2  501    0  0.26000614615E+02  0.92936890544E+02  0.22240235579E+04  0.22261163679E+04  0.00000000000E+00 0. -1.
<mgrwt>
<rscale>  4 0.22489105E+03</rscale>
<asrwt>0</asrwt>
<pdfrwt beam="1">  1       21 0.84249278E-02 0.22489105E+03</pdfrwt>
<pdfrwt beam="2">  1        2 0.49750872E+00 0.22489105E+03</pdfrwt>
<totfact> 0.21331803E+03</totfact>
</mgrwt>
</event>
<event>
 5    0  0.2306346E+000  0.2438682E+03  0.7546771E-02  0.1117242E+00
          2   -1    0    0  502    0 -0.00000000000E+00  0.00000000000E+00  0.74580135025E+03  0.74580135025E+03  0.00000000000E+00 0. -1.
         21   -1    0    0  503  502  0.00000000000E+00 -0.00000000000E+00 -0.92375274787E+03  0.92375274787E+03  0.00000000000E+00 0.  1.
         25    1    1    2    0    0 -0.16895059028E+03  0.16193481383E+03  0.68911112709E+03  0.73842151335E+03  0.12500000000E+03 0.  0.
         21    1    1    2  503  501  0.15880240986E+03 -0.13584508412E+03 -0.87690222984E+03  0.90145971233E+03  0.00000000000E+00 0.  1.
          2    1    1    2  501    0  0.10148180419E+02 -0.26089729714E+02  0.98397051196E+01  0.29672872447E+02  0.00000000000E+00 0. -1.
<mgrwt>
<rscale>  4 0.24386821E+03</rscale>
<asrwt>0</asrwt>
<pdfrwt beam="1">  1       21 0.14211581E+00 0.24386821E+03</pdfrwt>
<pdfrwt beam="2">  1        2 0.11473867E+00 0.24386821E+03</pdfrwt>
<totfact> 0.16205285E+02</totfact>
</mgrwt>
</event>
<event>
 5    0  0.2306346E+000  0.2731305E+03  0.7546771E-02  0.1099501E+00
          1   -1    0    0  502    0 -0.00000000000E+00  0.00000000000E+00  0.35111184684E+04  0.35111184684E+04  0.00000000000E+00 0. -1.
         21   -1    0    0  503  502  0.00000000000E+00 -0.00000000000E+00 -0.33498644900E+03  0.33498644900E+03  0.00000000000E+00 0.  1.
         25    1    1    2    0    0  0.14833204547E+03 -0.24161291630E+03  0.12759795844E+04  0.13130605839E+04  0.12500000000E+03 0.  0.
         21    1    1    2  503  501 -0.11981046107E+03  0.20957623890E+03 -0.27016313937E+03  0.36230493837E+03  0.00000000000E+00 0.  1.
          1    1    1    2  501    0 -0.28521584397E+02  0.32036677396E+02  0.21703155743E+04  0.21707393951E+04  0.00000000000E+00 0. -1.
<mgrwt>
<rscale>  4 0.27313049E+03</rscale>
<asrwt>0</asrwt>
<pdfrwt beam="1">  1       21 0.51536379E-01 0.27313049E+03</pdfrwt>
<pdfrwt beam="2">  1        1 0.54017205E+00 0.27313049E+03</pdfrwt>
<totfact> 0.11837560E+01</totfact>
</mgrwt>
</event>
<event>
 5    0  0.2306346E+000  0.3558875E+03  0.7546771E-02  0.1060224E+00
         21   -1    0    0  503  502  0.00000000000E+00  0.00000000000E+00  0.48133232422E+03  0.48133232422E+03  0.00000000000E+00 0. -1.
          1   -1    0    0  502    0 -0.00000000000E+00 -0.00000000000E+00 -0.27912216385E+04  0.27912216385E+04  0.00000000000E+00 0.  1.
         25    1    1    2    0    0 -0.21864313895E+03  0.22343829897E+03  0.36535386127E+03  0.49682787724E+03  0.12500000000E+03 0.  0.
         21    1    1    2  503  501 -0.26698599982E+02  0.27712810112E+01  0.35507529506E+02  0.44511570305E+02  0.00000000000E+00 0. -1.
          1    1    1    2  501    0  0.24534173893E+03 -0.22620957998E+03 -0.27107507051E+04  0.27312145152E+04  0.00000000000E+00 0.  1.
<mgrwt>
<rscale>  4 0.35588752E+03</rscale>
<asrwt>0</asrwt>
<pdfrwt beam="1">  1       21 0.74051130E-01 0.35588752E+03</pdfrwt>
<pdfrwt beam="2">  1        1 0.42941869E+00 0.35588752E+03</pdfrwt>
<totfact> 0.16612989E+01</totfact>
</mgrwt>
</event>
<event>
 5    0  0.2306346E+000  0.2494682E+03  0.7546771E-02  0.1113641E+00
         21   -1    0    0  501  502  0.00000000000E+00  0.00000000000E+00  0.20549074094E+04  0.20549074094E+04  0.00000000000E+00 0.  1.
         -1   -1    0    0    0  501 -0.00000000000E+00 -0.00000000000E+00 -0.42592737542E+02  0.42592737542E+02  0.00000000000E+00 0.  1.
         25    1    1    2    0    0  0.21078760013E+03  0.75507327321E+02  0.55744401825E+03  0.61359726395E+03  0.12500000000E+03 0.  0.
         21    1    1    2  503  502 -0.12327947576E+02 -0.20063426955E+02  0.72822090402E+03  0.72860154025E+03  0.00000000000E+00 0.  1.
         -1    1    1    2    0  503 -0.19845965256E+03 -0.55443900366E+02  0.72664974961E+03  0.75530134277E+03  0.00000000000E+00 0.  1.
<mgrwt>
<rscale>  4 0.24946817E+03</rscale>
<asrwt>0</asrwt>
<pdfrwt beam="1">  1       21 0.31613952E+00 0.24946817E+03</pdfrwt>
<pdfrwt beam="2">  1       -1 0.65527305E-02 0.24946817E+03</pdfrwt>
<totfact> 0.27183095E+02</totfact>
</mgrwt>
</event>
<event>
 5    0  0.2306346E+000  0.2020510E+03  0.7546771E-02  0.1148020E+00
          2   -1    0    0  502    0 -0.00000000000E+00  0.00000000000E+00  0.63933972994E+03  0.63933972994E+03  0.00000000000E+00 0.  1.
         21   -1    0    0  503  502  0.00000000000E+00 -0.00000000000E+00 -0.25429720795E+03  0.25429720795E+03  0.00000000000E+00 0. -1.
         25    1    1    2    0    0  0.15987937340E+03 -0.18301459133E+03  0.73816600606E+02  0.28307180221E+03  0.12500000000E+03 0.  0.
         21    1    1    2  503  501 -0.92140239223E+02  0.49956352076E+02 -0.11698516801E+03  0.15707001729E+03  0.00000000000E+00 0. -1.
          2    1    1    2  501    0 -0.67739134179E+02  0.13305823925E+03  0.42821108939E+03  0.45349511839E+03  0.00000000000E+00 0.  1.
<mgrwt>
<rscale>  4 0.20205102E+03</rscale>
<asrwt>0</asrwt>
<pdfrwt beam="1">  1       21 0.39122648E-01 0.20205102E+03</pdfrwt>
<pdfrwt beam="2">  1        2 0.98359958E-01 0.20205102E+03</pdfrwt>
<totfact> 0.36972697E+03</totfact>
</mgrwt>
</event>
<event>
 5    0  0.2306346E+000  0.2343691E+03  0.7546771E-02  0.1123602E+00
          2   -1    0    0  502    0 -0.00000000000E+00  0.00000000000E+00  0.13122648679E+04  0.13122648679E+04  0.00000000000E+00 0.  1.
         21   -1    0    0  503  502  0.00000000000E+00 -0.00000000000E+00 -0.78584686308E+02  0.78584686308E+02  0.00000000000E+00 0.  1.
         25    1    1    2    0    0 -0.20444281461E+03 -0.40672447908E+01  0.10869087067E+04  0.11130179440E+04  0.12500000000E+03 0.  0.
         21    1    1    2  503  501  0.24931402611E+02 -0.19639500415E+01 -0.20541998971E+02  0.32363647162E+02  0.00000000000E+00 0. -1.
          2    1    1    2  501    0  0.17951141200E+03  0.60311948323E+01  0.16731347382E+03  0.24546796303E+03  0.00000000000E+00 0.  1.
<mgrwt>
<rscale>  4 0.23436909E+03</rscale>
<asrwt>0</asrwt>
<pdfrwt beam="1">  1       21 0.12089953E-01 0.23436909E+03</pdfrwt>
<pdfrwt beam="2">  1        2 0.20188689E+00 0.23436909E+03</pdfrwt>
<totfact> 0.12653954E+04</totfact>
</mgrwt>
</event>
<event>
 5    0  0.2306346E+000  0.4021954E+03  0.7546771E-02  0.1043022E+00
          1   -1    0    0  502    0 -0.00000000000E+00  0.00000000000E+00  0.34070390658E+04  0.34070390658E+04  0.00000000000E+00 0.  1.
         21   -1    0    0  503  502  0.00000000000E+00 -0.00000000000E+00 -0.11053306932E+03  0.11053306932E+03  0.00000000000E+00 0. -1.
         25    1    1    2    0    0  0.12439634001E+02 -0.32986948083E+03  0.50951675089E+03  0.61983944559E+03  0.12500000000E+03 0.  0.
         21    1    1    2  503  501 -0.39074203892E+02 -0.65088851595E+02 -0.66307520753E+01  0.76205766742E+02  0.00000000000E+00 0. -1.
          1    1    1    2  501    0  0.26634569891E+02  0.39495833243E+03  0.27936199977E+04  0.28215269228E+04  0.00000000000E+00 0.  1.
<mgrwt>
<rscale>  4 0.40219540E+03</rscale>
<asrwt>0</asrwt>
<pdfrwt beam="1">  1       21 0.17005090E-01 0.40219540E+03</pdfrwt>
<pdfrwt beam="2">  1        1 0.52415977E+00 0.40219540E+03</pdfrwt>
<totfact> 0.11725124E+02</totfact>
</mgrwt>
</event>
<event>
 5    0  0.2306346E+000  0.4387506E+03  0.7546771E-02  0.1031131E+00
         21   -1    0    0  503  502  0.00000000000E+00  0.00000000000E+00  0.28066819074E+03  0.28066819074E+03  0.00000000000E+00 0. -1.
          2   -1    0    0  502    0 -0.00000000000E+00 -0.00000000000E+00 -0.93600270964E+03  0.93600270964E+03  0.00000000000E+00 0. -1.
         25    1    1    2    0    0  0.20166111354E+03 -0.32826757468E+03 -0.20138255635E+03  0.45233476465E+03  0.12500000000E+03 0.  0.
         21    1    1    2  503  501 -0.27594984182E+02 -0.82968866038E+02  0.41969780903E+02  0.96988547740E+02  0.00000000000E+00 0. -1.
          2    1    1    2  501    0 -0.17406612936E+03  0.41123644072E+03 -0.49592174346E+03  0.66734758799E+03  0.00000000000E+00 0. -1.
<mgrwt>
<rscale>  4 0.43875059E+03</rscale>
<asrwt>0</asrwt>
<pdfrwt beam="1">  1       21 0.43179722E-01 0.43875059E+03</pdfrwt>
<pdfrwt beam="2">  1        2 0.14400042E+00 0.43875059E+03</pdfrwt>
<totfact> 0.17354689E+03</totfact>
</mgrwt>
</event>
<event>
 5    0  0.2306346E+000  0.2023574E+03  0.7546771E-02  0.1147765E+00
          2   -1    0    0  502    0 -0.00000000000E+00  0.00000000000E+00  0.76032667953E+03  0.76032667953E+03  0.00000000000E+00 0.  1.
         21   -1    0    0  503  502  0.00000000000E+00 -0.00000000000E+00 -0.99893541614E+03  0.99893541614E+03  0.00000000000E+00 0.  1.
         25    1    1    2    0    0  0.18156644881E+03 -0.16032962564E+03 -0.84817273587E+03  0.89089502977E+03  0.12500000000E+03 0.  0.
         21    1    1    2  503  501 -0.69861902579E+02  0.48148214507E+02 -0.10584318490E+03  0.13565292397E+03  0.00000000000E+00 0.  1.
          2    1    1    2  501    0 -0.11170454623E+03  0.11218141113E+03  0.71540718416E+03  0.73271414194E+03  0.00000000000E+00 0.  1.
<mgrwt>
<rscale>  4 0.20235740E+03</rscale>
<asrwt>0</asrwt>
<pdfrwt beam="1">  1       21 0.15368237E+00 0.20235740E+03</pdfrwt>
<pdfrwt beam="2">  1        2 0.11697334E+00 0.20235740E+03</pdfrwt>
<totfact> 0.13291939E+02</totfact>
</mgrwt>
</event>
<event>
 5    0  0.2306346E+000  0.2657612E+03  0.7546771E-02  0.1103730E+00
          1   -1    0    0  502    0 -0.00000000000E+00  0.00000000000E+00  0.15989697601E+04  0.15989697601E+04  0.00000000000E+00 0. -1.
         21   -1    0    0  503  502  0.00000000000E+00 -0.00000000000E+00 -0.46556675804E+02  0.46556675804E+02  0.00000000000E+00 0. -1.
         25    1    1    2    0    0  0.21804391540E+03  0.11267756267E+03  0.63664133451E+03  0.69366892029E+03  0.12500000000E+03 0.  0.
         21    1    1    2  503  501 -0.24118522217E+02  0.93467105442E+01  0.50174802545E+02  0.56449755733E+02  0.00000000000E+00 0. -1.
          1    1    1    2  501    0 -0.19392539318E+03 -0.12202427322E+03  0.86559694720E+03  0.89540775984E+03  0.00000000000E+00 0. -1.
<mgrwt>
<rscale>  4 0.26576125E+03</rscale>
<asrwt>0</asrwt>
<pdfrwt beam="1">  1       21 0.71625667E-02 0.26576125E+03</pdfrwt>
<pdfrwt beam="2">  1        1 0.24599531E+00 0.26576125E+03</pdfrwt>
<totfact> 0.99519857E+03</totfact>
</mgrwt>
</event>
<event>
 5    0  0.2306346E+000  0.3140084E+03  0.7546771E-02  0.1078440E+00
          1   -1    0    0  502    0 -0.00000000000E+00  0.00000000000E+00  0.11096469746E+04  0.11096469746E+04  0.00000000000E+00 0. -1.
         21   -1    0    0  503  502  0.00000000000E+00 -0.00000000000E+00 -0.61831404683E+03  0.61831404683E+03  0.00000000000E+00 0. -1.
         25    1    1    2    0    0 -0.23385057277E+03  0.10241345741E+03 -0.46285335994E+03  0.54316925488E+03  0.12500000000E+03 0.  0.
         21    1    1    2  503  501 -0.28937894409E+02  0.18655012700E+02 -0.92579458982E+02  0.98774325901E+02  0.00000000000E+00 0. -1.
          1    1    1    2  501    0  0.26278846718E+03 -0.12106847011E+03  0.10467657467E+04  0.10860174406E+04  0.00000000000E+00 0. -1.
<mgrwt>
<rscale>  4 0.31400840E+03</rscale>
<asrwt>0</asrwt>
<pdfrwt beam="1">  1       21 0.95125238E-01 0.31400840E+03</pdfrwt>
<pdfrwt beam="2">  1        1 0.17071492E+00 0.31400840E+03</pdfrwt>
<totfact> 0.12737051E+02</totfact>
</mgrwt>
</event>
<event>
 5    0  0.2306346E+000  0.3186325E+03  0.7546771E-02  0.1076280E+00
         21   -1    0    0  503  502  0.00000000000E+00  0.00000000000E+00  0.96448378682E+03  0.96448378682E+03  0.00000000000E+00 0. -1.
          1   -1    0    0  502    0 -0.00000000000E+00 -0.00000000000E+00 -0.21513097061E+03  0.21513097061E+03  0.00000000000E+00 0.  1.
         25    1    1    2    0    0  0.19284255437E+03 -0.22466319262E+03  0.59307437918E+03  0.67455468283E+03  0.12500000000E+03 0.  0.
         21    1    1    2  503  501 -0.17852991564E+02 -0.98707229756E+01  0.20706185835E+03  0.20806434982E+03  0.00000000000E+00 0.  1.
          1    1    1    2  501    0 -0.17498956280E+03  0.23453391559E+03 -0.50783421324E+02  0.29699572478E+03  0.00000000000E+00 0.  1.
<mgrwt>
<rscale>  4 0.31863253E+03</rscale>
<asrwt>0</asrwt>
<pdfrwt beam="1">  1       21 0.14838212E+00 0.31863253E+03</pdfrwt>
<pdfrwt beam="2">  1        1 0.33097073E-01 0.31863253E+03</pdfrwt>
<totfact> 0.41830509E+02</totfact>
</mgrwt>
</event>
<event>
 5    0  0.2306346E+000  0.3284599E+03  0.7546771E-02  0.1071820E+00
         -2   -1    0    0    0  501 -0.00000000000E+00  0.00000000000E+00  0.79907862223E+03  0.79907862223E+03  0.00000000000E+00 0.  1.
         21   -1    0    0  501  502  0.00000000000E+00 -0.00000000000E+00 -0.51583617960E+03  0.51583617960E+03  0.00000000000E+00 0.  1.
         25    1    1    2    0    0  0.14180310808E+02 -0.29532653562E+03  0.46520231413E+03  0.56520530511E+03  0.12500000000E+03 0.  0.
         21    1    1    2  503  502  0.10699700096E+03 -0.12754849564E+02 -0.35862582774E+03  0.37446432236E+03  0.00000000000E+00 0.  1.
         -2    1    1    2    0  503 -0.12117731177E+03  0.30808138518E+03  0.17666595624E+03  0.37524517436E+03  0.00000000000E+00 0.  1.
<mgrwt>
<rscale>  4 0.32845987E+03</rscale>
<asrwt>0</asrwt>
<pdfrwt beam="1">  1       21 0.79359412E-01 0.32845987E+03</pdfrwt>
<pdfrwt beam="2">  1       -2 0.12293517E+00 0.32845987E+03</pdfrwt>
<totfact> 0.56414379E+01</totfact>
</mgrwt>
</event>
<event>
 5    0  0.2315923E+000  0.2428240E+03  0.7546771E-02  0.1117926E+00
         21   -1    0    0  503  502  0.00000000000E+00  0.00000000000E+00  0.21024253891E+03  0.21024253891E+03  0.00000000000E+00 0. -1.
          2   -1    0    0  502    0 -0.00000000000E+00 -0.00000000000E+00 -0.11665594569E+04  0.11665594569E+04  0.00000000000E+00 0.  1.
         25    1    1    2    0    0  0.74040992291E+02  0.21219501921E+03  0.94924781896E+02  0.27412498780E+03  0.12500000000E+03 0.  0.
         21    1    1    2  503  501  0.16324441256E+02 -0.25574393342E+02  0.84549835788E+00  0.30352130809E+02  0.00000000000E+00 0.  1.
          2    1    1    2  501    0 -0.90365433547E+02 -0.18662062587E+03 -0.10520871982E+04  0.10723248772E+04  0.00000000000E+00 0.  1.
<mgrwt>
<rscale>  4 0.24282404E+03</rscale>
<asrwt>0</asrwt>
<pdfrwt beam="1">  1       21 0.32345006E-01 0.24282404E+03</pdfrwt>
<pdfrwt beam="2">  1        2 0.17947068E+00 0.24282404E+03</pdfrwt>
<totfact> 0.23966210E+03</totfact>
</mgrwt>
</event>
<event>
 5    0  0.2306346E+000  0.3038217E+03  0.7546771E-02  0.1083346E+00
         21   -1    0    0  503  502  0.00000000000E+00  0.00000000000E+00  0.16550466276E+04  0.16550466276E+04  0.00000000000E+00 0. -1.
          1   -1    0    0  502    0 -0.00000000000E+00 -0.00000000000E+00 -0.47248033960E+03  0.47248033960E+03  0.00000000000E+00 0. -1.
         25    1    1    2    0    0 -0.49627117361E+01 -0.25141144659E+03  0.79634359421E+03  0.84440539081E+03  0.12500000000E+03 0.  0.
         21    1    1    2  503  501 -0.30441673919E+02 -0.24658886251E+02  0.79095384575E+03  0.79192344472E+03  0.00000000000E+00 0. -1.
          1    1    1    2  501    0  0.35404385655E+02  0.27607033284E+03 -0.40473115195E+03  0.49119813168E+03  0.00000000000E+00 0. -1.
<mgrwt>
<rscale>  4 0.30382172E+03</rscale>
<asrwt>0</asrwt>
<pdfrwt beam="1">  1       21 0.25462255E+00 0.30382172E+03</pdfrwt>
<pdfrwt beam="2">  1        1 0.72689284E-01 0.30382172E+03</pdfrwt>
<totfact> 0.30188430E+01</totfact>
</mgrwt>
</event>
<event>
 5    0  0.2306346E+000  0.2860989E+03  0.7546771E-02  0.1092404E+00
         21   -1    0    0  503  502  0.00000000000E+00  0.00000000000E+00  0.66430013186E+03  0.66430013186E+03  0.00000000000E+00 0. -1.
          2   -1    0    0  502    0 -0.00000000000E+00 -0.00000000000E+00 -0.14481963971E+04  0.14481963971E+04  0.00000000000E+00 0.  1.
         25    1    1    2    0    0 -0.17410477593E+03 -0.14777441288E+03 -0.12448034288E+03  0.28856560063E+03  0.12500000000E+03 0.  0.
         21    1    1    2  503  501 -0.18416344297E+02 -0.30334175715E+02  0.56784776747E+03  0.56895554393E+03  0.00000000000E+00 0. -1.
          2    1    1    2  501    0  0.19252112023E+03  0.17810858859E+03 -0.12272636898E+04  0.12549753844E+04  0.00000000000E+00 0.  1.
<mgrwt>
<rscale>  4 0.28609885E+03</rscale>
<asrwt>0</asrwt>
<pdfrwt beam="1">  1       21 0.10220002E+00 0.28609885E+03</pdfrwt>
<pdfrwt beam="2">  1        2 0.22279944E+00 0.28609885E+03</pdfrwt>
<totfact> 0.13579806E+02</totfact>
</mgrwt>
</event>
<event>
 5    0  0.2306346E+000  0.2806719E+03  0.7546771E-02  0.1095323E+00
          1   -1    0    0  502    0 -0.00000000000E+00  0.00000000000E+00  0.84419678075E+03  0.84419678075E+03  0.00000000000E+00 0. -1.
         21   -1    0    0  503  502  0.00000000000E+00 -0.00000000000E+00 -0.42959995035E+03  0.42959995035E+03  0.00000000000E+00 0. -1.
         25    1    1    2    0    0  0.23857093069E+03 -0.84941011354E+02 -0.35364708126E+03  0.45257300236E+03  0.12500000000E+03 0.  0.
         21    1    1    2  503  501 -0.34443239644E+02 -0.12289446470E+01  0.17873394164E+02  0.38824029686E+02  0.00000000000E+00 0. -1.
          1    1    1    2  501    0 -0.20412769104E+03  0.86169956001E+02  0.75037051749E+03  0.78239969906E+03  0.00000000000E+00 0. -1.
<mgrwt>
<rscale>  4 0.28067190E+03</rscale>
<asrwt>0</asrwt>
<pdfrwt beam="1">  1       21 0.66092300E-01 0.28067190E+03</pdfrwt>
<pdfrwt beam="2">  1        1 0.12987643E+00 0.28067190E+03</pdfrwt>
<totfact> 0.47446569E+02</totfact>
</mgrwt>
</event>
<event>
 5    0  0.2306346E+000  0.3405570E+03  0.7546771E-02  0.1066559E+00
         21   -1    0    0  503  502  0.00000000000E+00  0.00000000000E+00  0.18244510613E+03  0.18244510613E+03  0.00000000000E+00 0. -1.
          2   -1    0    0  502    0 -0.00000000000E+00 -0.00000000000E+00 -0.16032704085E+04  0.16032704085E+04  0.00000000000E+00 0.  1.
         25    1    1    2    0    0 -0.17444589829E+03  0.29301003786E+03 -0.12646593372E+04  0.13157790441E+04  0.12500000000E+03 0.  0.
         21    1    1    2  503  501  0.16973280679E+03 -0.26397705055E+03 -0.28751268278E+01  0.31384928752E+03  0.00000000000E+00 0. -1.
          2    1    1    2  501    0  0.47130914935E+01 -0.29032987303E+02 -0.15329083833E+03  0.15608718301E+03  0.00000000000E+00 0.  1.
<mgrwt>
<rscale>  4 0.34055698E+03</rscale>
<asrwt>0</asrwt>
<pdfrwt beam="1">  1       21 0.28068477E-01 0.34055698E+03</pdfrwt>
<pdfrwt beam="2">  1        2 0.24665699E+00 0.34055698E+03</pdfrwt>
<totfact> 0.17578955E+03</totfact>
</mgrwt>
</event>
<event>
 5    0  0.2306346E+000  0.2444925E+03  0.7546771E-02  0.1116836E+00
         21   -1    0    0  503  502  0.00000000000E+00  0.00000000000E+00  0.41899093581E+03  0.41899093581E+03  0.00000000000E+00 0.  1.
          2   -1    0    0  502    0 -0.00000000000E+00 -0.00000000000E+00 -0.30177851511E+03  0.30177851511E+03  0.00000000000E+00 0. -1.
         25    1    1    2    0    0 -0.17649857243E+03 -0.14207876882E+03  0.31027913775E+03  0.40402508083E+03  0.12500000000E+03 0.  0.
         21    1    1    2  503  501  0.28025732312E+02 -0.38668036466E+01  0.57489783153E+01  0.28869440482E+02  0.00000000000E+00 0. -1.
          2    1    1    2  501    0  0.14847284011E+03  0.14594557246E+03 -0.19881569536E+03  0.28787492960E+03  0.00000000000E+00 0. -1.
<mgrwt>
<rscale>  4 0.24449250E+03</rscale>
<asrwt>0</asrwt>
<pdfrwt beam="1">  1       21 0.64460144E-01 0.24449250E+03</pdfrwt>
<pdfrwt beam="2">  1        2 0.46427464E-01 0.24449250E+03</pdfrwt>
<totfact> 0.29372017E+03</totfact>
</mgrwt>
</event>
<event>
 5    0  0.2306346E+000  0.3611041E+03  0.7546771E-02  0.1058148E+00
          1   -1    0    0  502    0 -0.00000000000E+00  0.00000000000E+00  0.39407537237E+03  0.39407537237E+03  0.00000000000E+00 0.  1.
         21   -1    0    0  503  502  0.00000000000E+00 -0.00000000000E+00 -0.83578370285E+03  0.83578370285E+03  0.00000000000E+00 0.  1.
         25    1    1    2    0    0  0.62755562448E+01  0.22562750995E+03 -0.50519258338E+03  0.56726687031E+03  0.12500000000E+03 0.  0.
         21    1    1    2  503  501  0.20308498472E+03  0.79173491431E+02 -0.12104730692E+03  0.24932790313E+03  0.00000000000E+00 0.  1.
          1    1    1    2  501    0 -0.20936054097E+03 -0.30480100138E+03  0.18453155983E+03  0.41326430178E+03  0.00000000000E+00 0.  1.
<mgrwt>
<rscale>  4 0.36110413E+03</rscale>
<asrwt>0</asrwt>
<pdfrwt beam="1">  1       21 0.12858211E+00 0.36110413E+03</pdfrwt>
<pdfrwt beam="2">  1        1 0.60626981E-01 0.36110413E+03</pdfrwt>
<totfact> 0.27677769E+02</totfact>
</mgrwt>
</event>
<event>
 5    0  0.2306346E+000  0.2798668E+03  0.7546771E-02  0.1095762E+00
         21   -1    0    0  503  502  0.00000000000E+00  0.00000000000E+00  0.54757278259E+03  0.54757278259E+03  0.00000000000E+00 0.  1.
          1   -1    0    0  502    0 -0.00000000000E+00 -0.00000000000E+00 -0.17222128149E+04  0.17222128149E+04  0.00000000000E+00 0.  1.
         25    1    1    2    0    0  0.20441571349E+03 -0.48965235041E+02  0.11445803666E+03  0.27001670378E+03  0.12500000000E+03 0.  0.
         21    1    1    2  503  501  0.36117210352E+02 -0.27702815026E+02  0.34413859921E+03  0.34713581537E+03  0.00000000000E+00 0.  1.
          1    1    1    2  501    0 -0.24053292385E+03  0.76668050067E+02 -0.16332366682E+04  0.16526330784E+04  0.00000000000E+00 0.  1.
<mgrwt>
<rscale>  4 0.27986676E+03</rscale>
<asrwt>0</asrwt>
<pdfrwt beam="1">  1       21 0.84241967E-01 0.27986676E+03</pdfrwt>
<pdfrwt beam="2">  1        1 0.26495582E+00 0.27986676E+03</pdfrwt>
<totfact> 0.66351133E+01</totfact>
</mgrwt>
</event>
<event>
 5    0  0.2306346E+000  0.3500121E+03  0.7546771E-02  0.1062610E+00
          4   -1    0    0  502    0 -0.00000000000E+00  0.00000000000E+00  0.62184690462E+03  0.62184690462E+03  0.00000000000E+00 0. -1.
         21   -1    0    0  503  502  0.00000000000E+00 -0.00000000000E+00 -0.52392741287E+03  0.52392741287E+03  0.00000000000E+00 0. -1.
         25    1    1    2    0    0  0.30581827302E+03 -0.21274395009E+03 -0.31099983371E+03  0.50112942538E+03  0.12500000000E+03 0.  0.
         21    1    1    2  503  501 -0.15591362581E+03  0.20555784606E+03  0.60092780099E+02  0.26490418836E+03  0.00000000000E+00 0. -1.
          4    1    1    2  501    0 -0.14990464721E+03  0.71861040263E+01  0.34882654535E+03  0.37974070376E+03  0.00000000000E+00 0. -1.
<mgrwt>
<rscale>  4 0.35001212E+03</rscale>
<asrwt>0</asrwt>
<pdfrwt beam="1">  1       21 0.80604218E-01 0.35001212E+03</pdfrwt>
<pdfrwt beam="2">  1        4 0.95668754E-01 0.35001212E+03</pdfrwt>
<totfact> 0.51659347E+01</totfact>
</mgrwt>
</event>
<event>
 5    0  0.2306346E+000  0.3087508E+03  0.7546771E-02  0.1080946E+00
          2   -1    0    0  502    0 -0.00000000000E+00  0.00000000000E+00  0.65731501404E+03  0.65731501404E+03  0.00000000000E+00 0. -1.
         21   -1    0    0  503  502  0.00000000000E+00 -0.00000000000E+00 -0.18569491244E+03  0.18569491244E+03  0.00000000000E+00 0. -1.
         25    1    1    2    0    0  0.24547385971E+03  0.19232167717E+03  0.32273972704E+03  0.46586583339E+03  0.12500000000E+03 0.  0.
         21    1    1    2  503  501 -0.64991774321E+02 -0.11840137557E+02 -0.22405910471E+02  0.69757755201E+02  0.00000000000E+00 0. -1.
          2    1    1    2  501    0 -0.18048208538E+03 -0.18048153961E+03  0.17128628503E+03  0.30738633790E+03  0.00000000000E+00 0. -1.
<mgrwt>
<rscale>  4 0.30875077E+03</rscale>
<asrwt>0</asrwt>
<pdfrwt beam="1">  1       21 0.28568448E-01 0.30875077E+03</pdfrwt>
<pdfrwt beam="2">  1        2 0.10112539E+00 0.30875077E+03</pdfrwt>
<totfact> 0.64817949E+03</totfact>
</mgrwt>
</event>
<event>
 5    0  0.2306346E+000  0.3578650E+03  0.7546771E-02  0.1059432E+00
         21   -1    0    0  503  502  0.00000000000E+00  0.00000000000E+00  0.81276898513E+03  0.81276898513E+03  0.00000000000E+00 0.  1.
          1   -1    0    0  502    0 -0.00000000000E+00 -0.00000000000E+00 -0.33016535650E+03  0.33016535650E+03  0.00000000000E+00 0. -1.
         25    1    1    2    0    0  0.19782292557E+03  0.28536958175E+03  0.63791474198E+03  0.73697349077E+03  0.12500000000E+03 0.  0.
         21    1    1    2  503  501 -0.43949919123E+02 -0.58520011817E+02  0.25595897093E+02  0.77532813195E+02  0.00000000000E+00 0. -1.
          1    1    1    2  501    0 -0.15387300644E+03 -0.22684956993E+03 -0.18090701044E+03  0.32842803766E+03  0.00000000000E+00 0. -1.
<mgrwt>
<rscale>  4 0.35786499E+03</rscale>
<asrwt>0</asrwt>
<pdfrwt beam="1">  1       21 0.12504138E+00 0.35786499E+03</pdfrwt>
<pdfrwt beam="2">  1        1 0.50794670E-01 0.35786499E+03</pdfrwt>
<totfact> 0.37384053E+02</totfact>
</mgrwt>
</event>
<event>
 5    0  0.2306346E+000  0.2556135E+03  0.7546771E-02  0.1109808E+00
          2   -1    0    0  502    0 -0.00000000000E+00  0.00000000000E+00  0.14137639131E+04  0.14137639131E+04  0.00000000000E+00 0. -1.
         21   -1    0    0  503  502  0.00000000000E+00 -0.00000000000E+00 -0.46839095535E+02  0.46839095535E+02  0.00000000000E+00 0. -1.
         25    1    1    2    0    0  0.18981302883E+03 -0.11697977268E+03  0.51447087684E+03  0.57447239816E+03  0.12500000000E+03 0.  0.
         21    1    1    2  503  501 -0.24142284625E+02  0.58162600961E+02  0.16662650206E+03  0.17812952941E+03  0.00000000000E+00 0. -1.
          2    1    1    2  501    0 -0.16567074420E+03  0.58817171715E+02  0.68582743865E+03  0.70800108105E+03  0.00000000000E+00 0. -1.
<mgrwt>
<rscale>  4 0.25561348E+03</rscale>
<asrwt>0</asrwt>
<pdfrwt beam="1">  1       21 0.72060158E-02 0.25561348E+03</pdfrwt>
<pdfrwt beam="2">  1        2 0.21750211E+00 0.25561348E+03</pdfrwt>
<totfact> 0.27672226E+04</totfact>
</mgrwt>
</event>
<event>
 5    0  0.2306346E+000  0.2890843E+03  0.7546771E-02  0.1090828E+00
          1   -1    0    0  502    0 -0.00000000000E+00  0.00000000000E+00  0.10719848791E+04  0.10719848791E+04  0.00000000000E+00 0.  1.
         21   -1    0    0  503  502  0.00000000000E+00 -0.00000000000E+00 -0.14276301976E+03  0.14276301976E+03  0.00000000000E+00 0. -1.
         25    1    1    2    0    0  0.11083446914E+03  0.21985851849E+03  0.28089443151E+03  0.39388923488E+03  0.12500000000E+03 0.  0.
         21    1    1    2  503  501  0.22238886292E+02  0.11617821189E+02 -0.59377942866E+02  0.64461476338E+02  0.00000000000E+00 0. -1.
          1    1    1    2  501    0 -0.13307335543E+03 -0.23147633968E+03  0.70770537072E+03  0.75639718766E+03  0.00000000000E+00 0.  1.
<mgrwt>
<rscale>  4 0.28908430E+03</rscale>
<asrwt>0</asrwt>
<pdfrwt beam="1">  1       21 0.21963542E-01 0.28908430E+03</pdfrwt>
<pdfrwt beam="2">  1        1 0.16492075E+00 0.28908430E+03</pdfrwt>
<totfact> 0.29736433E+03</totfact>
</mgrwt>
</event>
<event>
 5    0  0.4644875E+000  0.2111833E+03  0.7546771E-02  0.1140632E+00
         21   -1    0    0  503  502  0.00000000000E+00  0.00000000000E+00  0.78371111222E+03  0.78371111222E+03  0.00000000000E+00 0.  1.
          2   -1    0    0  502    0 -0.00000000000E+00 -0.00000000000E+00 -0.17573341913E+04  0.17573341913E+04  0.00000000000E+00 0. -1.
         25    1    1    2    0    0 -0.23759474314E+03 -0.21535748626E+02 -0.60996171462E+03  0.66677833179E+03  0.12500000000E+03 0.  0.
         21    1    1    2  503  501  0.16796822427E+03 -0.21018024828E+02  0.74429886013E+03  0.76330588555E+03  0.00000000000E+00 0.  1.
          2    1    1    2  501    0  0.69626518869E+02  0.42553773454E+02 -0.11079602246E+04  0.11109610862E+04  0.00000000000E+00 0. -1.
<mgrwt>
<rscale>  4 0.21118328E+03</rscale>
<asrwt>0</asrwt>
<pdfrwt beam="1">  1       21 0.12057094E+00 0.21118328E+03</pdfrwt>
<pdfrwt beam="2">  1        2 0.27035910E+00 0.21118328E+03</pdfrwt>
<totfact> 0.65928163E+01</totfact>
</mgrwt>
</event>
<event>
 5    0  0.2306346E+000  0.2230648E+03  0.7546771E-02  0.1131619E+00
         21   -1    0    0  503  502  0.00000000000E+00  0.00000000000E+00  0.19861515837E+03  0.19861515837E+03  0.00000000000E+00 0. -1.
          2   -1    0    0  502    0 -0.00000000000E+00 -0.00000000000E+00 -0.53689282930E+03  0.53689282930E+03  0.00000000000E+00 0. -1.
         25    1    1    2    0    0 -0.20124505450E+03 -0.14231268368E+03 -0.35512225234E+02  0.27863702202E+03  0.12500000000E+03 0.  0.
         21    1    1    2  503  501  0.12824331430E+03  0.81799415017E+02 -0.13787298230E+02  0.15273369488E+03  0.00000000000E+00 0. -1.
          2    1    1    2  501    0  0.73001740195E+02  0.60513268668E+02 -0.28897814747E+03  0.30413727077E+03  0.00000000000E+00 0. -1.
<mgrwt>
<rscale>  4 0.22306477E+03</rscale>
<asrwt>0</asrwt>
<pdfrwt beam="1">  1       21 0.30556178E-01 0.22306477E+03</pdfrwt>
<pdfrwt beam="2">  1        2 0.82598896E-01 0.22306477E+03</pdfrwt>
<totfact> 0.73378054E+03</totfact>
</mgrwt>
</event>
<event>
 5    0  0.2306346E+000  0.3430547E+03  0.7546771E-02  0.1065502E+00
         21   -1    0    0  503  502  0.00000000000E+00  0.00000000000E+00  0.83128326043E+03  0.83128326043E+03  0.00000000000E+00 0. -1.
          1   -1    0    0  502    0 -0.00000000000E+00 -0.00000000000E+00 -0.39045742423E+03  0.39045742423E+03  0.00000000000E+00 0. -1.
         25    1    1    2    0    0 -0.56913506649E+02 -0.29421071781E+03 -0.93322951503E+02  0.33783615407E+03  0.12500000000E+03 0.  0.
         21    1    1    2  503  501  0.80075726392E+02 -0.61304432643E+02  0.51751282986E+03  0.52724746039E+03  0.00000000000E+00 0. -1.
          1    1    1    2  501    0 -0.23162219743E+02  0.35551515046E+03  0.16635957844E+02  0.35665707020E+03  0.00000000000E+00 0. -1.
<mgrwt>
<rscale>  4 0.34305471E+03</rscale>
<asrwt>0</asrwt>
<pdfrwt beam="1">  1       21 0.12788973E+00 0.34305471E+03</pdfrwt>
<pdfrwt beam="2">  1        1 0.60070373E-01 0.34305471E+03</pdfrwt>
<totfact> 0.28597221E+02</totfact>
</mgrwt>
</event>
<event>
 5    0  0.2306346E+000  0.2631476E+03  0.7546771E-02  0.1105267E+00
          2   -1    0    0  502    0 -0.00000000000E+00  0.00000000000E+00  0.69717061855E+03  0.69717061855E+03  0.00000000000E+00 0.  1.
         21   -1    0    0  503  502  0.00000000000E+00 -0.00000000000E+00 -0.31238563601E+03  0.31238563601E+03  0.00000000000E+00 0. -1.
         25    1    1    2    0    0 -0.20556145085E+03  0.12085505905E+02 -0.20392623419E+03  0.31561444599E+03  0.12500000000E+03 0.  0.
         21    1    1    2  503  501 -0.26820091362E+02  0.12772726241E+02 -0.23988565849E+02  0.38182602423E+02  0.00000000000E+00 0. -1.
          2    1    1    2  501    0  0.23238154221E+03 -0.24858232145E+02  0.61269978258E+03  0.65575920614E+03  0.00000000000E+00 0.  1.
<mgrwt>
<rscale>  4 0.26314759E+03</rscale>
<asrwt>0</asrwt>
<pdfrwt beam="1">  1       21 0.48059329E-01 0.26314759E+03</pdfrwt>
<pdfrwt beam="2">  1        2 0.10725702E+00 0.26314759E+03</pdfrwt>
<totfact> 0.21369717E+03</totfact>
</mgrwt>
</event>
<event>
 5    0  0.2306346E+000  0.4112580E+03  0.7546771E-02  0.1039950E+00
          2   -1    0    0  502    0 -0.00000000000E+00  0.00000000000E+00  0.57545717124E+03  0.57545717124E+03  0.00000000000E+00 0.  1.
         21   -1    0    0  503  502  0.00000000000E+00 -0.00000000000E+00 -0.52114602504E+03  0.52114602504E+03  0.00000000000E+00 0. -1.
         25    1    1    2    0    0  0.29673040737E+03 -0.23709563772E+03 -0.16484969627E+03  0.43250861083E+03  0.12500000000E+03 0.  0.
         21    1    1    2  503  501 -0.36429788971E+02 -0.62576557854E+02 -0.12122032970E+03  0.14119958729E+03  0.00000000000E+00 0.  1.
          2    1    1    2  501    0 -0.26030061840E+03  0.29967219558E+03  0.34038117217E+03  0.52289499817E+03  0.00000000000E+00 0.  1.
<mgrwt>
<rscale>  4 0.41125805E+03</rscale>
<asrwt>0</asrwt>
<pdfrwt beam="1">  1       21 0.80176312E-01 0.41125805E+03</pdfrwt>
<pdfrwt beam="2">  1        2 0.88531872E-01 0.41125805E+03</pdfrwt>
<totfact> 0.83699496E+02</totfact>
</mgrwt>
</event>
<event>
 5    0  0.2306346E+000  0.1976045E+03  0.7546771E-02  0.1151776E+00
          2   -1    0    0  502    0 -0.00000000000E+00  0.00000000000E+00  0.27933778879E+04  0.27933778879E+04  0.00000000000E+00 0. -1.
         21   -1    0    0  503  502  0.00000000000E+00 -0.00000000000E+00 -0.99768659356E+03  0.99768659356E+03  0.00000000000E+00 0. -1.
         25    1    1    2    0    0 -0.10401873353E+03 -0.21412515472E+03 -0.17675456724E+01  0.26888213594E+03  0.12500000000E+03 0.  0.
         21    1    1    2  503  501  0.13034833088E+02  0.92674687942E+02 -0.85764972165E+03  0.86274071986E+03  0.00000000000E+00 0. -1.
          2    1    1    2  501    0  0.90983900443E+02  0.12145046678E+03  0.26551085617E+04  0.26594416257E+04  0.00000000000E+00 0. -1.
<mgrwt>
<rscale>  4 0.19760453E+03</rscale>
<asrwt>0</asrwt>
<pdfrwt beam="1">  1       21 0.15349025E+00 0.19760453E+03</pdfrwt>
<pdfrwt beam="2">  1        2 0.42975044E+00 0.19760453E+03</pdfrwt>
<totfact> 0.10086425E+01</totfact>
</mgrwt>
</event>
<event>
 5    0  0.2306346E+000  0.2016198E+03  0.7546771E-02  0.1148380E+00
          1   -1    0    0  502    0 -0.00000000000E+00  0.00000000000E+00  0.18279871247E+04  0.18279871247E+04  0.00000000000E+00 0. -1.
         21   -1    0    0  503  502  0.00000000000E+00 -0.00000000000E+00 -0.12014796745E+03  0.12014796745E+03  0.00000000000E+00 0. -1.
         25    1    1    2    0    0  0.54416183970E+02  0.21961818237E+03  0.50592120136E+03  0.56813249255E+03  0.12500000000E+03 0.  0.
         21    1    1    2  503  501 -0.16493904221E+02 -0.75837926661E+02 -0.66922058548E+02  0.10247927555E+03  0.00000000000E+00 0. -1.
          1    1    1    2  501    0 -0.37922279749E+02 -0.14378025571E+03  0.12688400144E+04  0.12775233240E+04  0.00000000000E+00 0. -1.
<mgrwt>
<rscale>  4 0.20161977E+03</rscale>
<asrwt>0</asrwt>
<pdfrwt beam="1">  1       21 0.18484304E-01 0.20161977E+03</pdfrwt>
<pdfrwt beam="2">  1        1 0.28122877E+00 0.20161977E+03</pdfrwt>
<totfact> 0.13244503E+03</totfact>
</mgrwt>
</event>
<event>
 5    0  0.2306346E+000  0.2801189E+03  0.7546771E-02  0.1095624E+00
          1   -1    0    0  502    0 -0.00000000000E+00  0.00000000000E+00  0.19192314808E+04  0.19192314808E+04  0.00000000000E+00 0. -1.
         21   -1    0    0  503  502  0.00000000000E+00 -0.00000000000E+00 -0.47723241259E+02  0.47723241259E+02  0.00000000000E+00 0. -1.
         25    1    1    2    0    0  0.78628157027E+01 -0.23556900880E+03  0.60358998006E+03  0.65992457585E+03  0.12500000000E+03 0.  0.
         21    1    1    2  503  501  0.17649995168E+01 -0.21890276906E+02  0.12136232911E+02  0.25091584159E+02  0.00000000000E+00 0.  1.
          1    1    1    2  501    0 -0.96278152195E+01  0.25745928571E+03  0.12557820266E+04  0.12819385620E+04  0.00000000000E+00 0. -1.
<mgrwt>
<rscale>  4 0.28011895E+03</rscale>
<asrwt>0</asrwt>
<pdfrwt beam="1">  1       21 0.73420386E-02 0.28011895E+03</pdfrwt>
<pdfrwt beam="2">  1        1 0.29526632E+00 0.28011895E+03</pdfrwt>
<totfact> 0.58664006E+03</totfact>
</mgrwt>
</event>
<event>
 5    0  0.2306346E+000  0.3563622E+03  0.7546771E-02  0.1060034E+00
         -1   -1    0    0    0  501 -0.00000000000E+00  0.00000000000E+00  0.73791108741E+03  0.73791108741E+03  0.00000000000E+00 0.  1.
         21   -1    0    0  501  502  0.00000000000E+00 -0.00000000000E+00 -0.30782750532E+03  0.30782750532E+03  0.00000000000E+00 0.  1.
         25    1    1    2    0    0 -0.39837871462E+03 -0.58427037806E+02  0.11543274877E+03  0.43711444553E+03  0.12500000000E+03 0.  0.
         21    1    1    2  503  502  0.87893827465E+02  0.50692835402E+02 -0.63179057342E+02  0.11952690808E+03  0.00000000000E+00 0.  1.
         -1    1    1    2    0  503  0.31048488715E+03  0.77342024041E+01  0.37782989066E+03  0.48909723912E+03  0.00000000000E+00 0.  1.
<mgrwt>
<rscale>  4 0.35636220E+03</rscale>
<asrwt>0</asrwt>
<pdfrwt beam="1">  1       21 0.47358078E-01 0.35636220E+03</pdfrwt>
<pdfrwt beam="2">  1       -1 0.11352478E+00 0.35636220E+03</pdfrwt>
<totfact> 0.28296912E+02</totfact>
</mgrwt>
</event>
<event>
 5    0  0.2306346E+000  0.2865384E+03  0.7546771E-02  0.1092170E+00
         -4   -1    0    0    0  501 -0.00000000000E+00  0.00000000000E+00  0.12759282172E+03  0.12759282172E+03  0.00000000000E+00 0.  1.
         21   -1    0    0  501  502  0.00000000000E+00 -0.00000000000E+00 -0.11942433363E+04  0.11942433363E+04  0.00000000000E+00 0. -1.
         25    1    1    2    0    0  0.21338156359E+03 -0.10528152929E+03 -0.75257621628E+03  0.79913193741E+03  0.12500000000E+03 0.  0.
         21    1    1    2  503  502  0.25724426217E+02 -0.21026312360E+01 -0.25203039434E+03  0.25334854812E+03  0.00000000000E+00 0. -1.
         -4    1    1    2    0  503 -0.23910598981E+03  0.10738416053E+03 -0.62043903993E+02  0.26935567252E+03  0.00000000000E+00 0.  1.
<mgrwt>
<rscale>  4 0.28653842E+03</rscale>
<asrwt>0</asrwt>
<pdfrwt beam="1">  1       21 0.18372974E+00 0.28653842E+03</pdfrwt>
<pdfrwt beam="2">  1       -4 0.19629665E-01 0.28653842E+03</pdfrwt>
<totfact> 0.16342672E+02</totfact>
</mgrwt>
</event>
<event>
 5    0  0.2363946E+000  0.2579709E+03  0.7546771E-02  0.1108369E+00
          1   -1    0    0  502    0 -0.00000000000E+00  0.00000000000E+00  0.26204565653E+04  0.26204565653E+04  0.00000000000E+00 0.  1.
         21   -1    0    0  503  502  0.00000000000E+00 -0.00000000000E+00 -0.10842944307E+03  0.10842944307E+03  0.00000000000E+00 0.  1.
         25    1    1    2    0    0 -0.98477436654E+02 -0.20426974646E+03  0.65743520053E+02  0.26715378582E+03  0.12500000000E+03 0.  0.
         21    1    1    2  503  501 -0.14865032436E+02  0.26032199904E+02  0.70913427247E+02  0.76989342023E+02  0.00000000000E+00 0. -1.
          1    1    1    2  501    0  0.11334246909E+03  0.17823754655E+03  0.23753701749E+04  0.23847428805E+04  0.00000000000E+00 0.  1.
<mgrwt>
<rscale>  4 0.25797091E+03</rscale>
<asrwt>0</asrwt>
<pdfrwt beam="1">  1       21 0.16681455E-01 0.25797091E+03</pdfrwt>
<pdfrwt beam="2">  1        1 0.40314712E+00 0.25797091E+03</pdfrwt>
<totfact> 0.47030301E+02</totfact>
</mgrwt>
</event>
<event>
 5    0  0.2306346E+000  0.2113144E+03  0.7546771E-02  0.1140529E+00
          2   -1    0    0  502    0 -0.00000000000E+00  0.00000000000E+00  0.36684094109E+04  0.36684094109E+04  0.00000000000E+00 0. -1.
         21   -1    0    0  503  502  0.00000000000E+00 -0.00000000000E+00 -0.85718239081E+02  0.85718239081E+02  0.00000000000E+00 0.  1.
         25    1    1    2    0    0  0.23720645088E+03 -0.50462224117E+02  0.27086610775E+04  0.27223671996E+04  0.12500000000E+03 0.  0.
         21    1    1    2  503  501 -0.16564406971E+03  0.27794084334E+02  0.14089468767E+02  0.16854964279E+03  0.00000000000E+00 0.  1.
          2    1    1    2  501    0 -0.71562381164E+02  0.22668139783E+02  0.85994062558E+03  0.86321080767E+03  0.00000000000E+00 0. -1.
<mgrwt>
<rscale>  4 0.21131435E+03</rscale>
<asrwt>0</asrwt>
<pdfrwt beam="1">  1       21 0.13187424E-01 0.21131435E+03</pdfrwt>
<pdfrwt beam="2">  1        2 0.56437056E+00 0.21131435E+03</pdfrwt>
<totfact> 0.50654503E+02</totfact>
</mgrwt>
</event>
<event>
 5    0  0.2306346E+000  0.3525880E+03  0.7546771E-02  0.1061558E+00
          2   -1    0    0  502    0 -0.00000000000E+00  0.00000000000E+00  0.35004300956E+04  0.35004300956E+04  0.00000000000E+00 0.  1.
         21   -1    0    0  503  502  0.00000000000E+00 -0.00000000000E+00 -0.11692561395E+03  0.11692561395E+03  0.00000000000E+00 0.  1.
         25    1    1    2    0    0 -0.28556786406E+03 -0.21264105627E+03  0.58195868742E+03  0.69358931484E+03  0.12500000000E+03 0.  0.
         21    1    1    2  503  501  0.92615844791E+02 -0.51969580938E+02  0.31230292027E+01  0.10624634281E+03  0.00000000000E+00 0.  1.
          2    1    1    2  501    0  0.19295201926E+03  0.26461063721E+03  0.27984227650E+04  0.28175200519E+04  0.00000000000E+00 0.  1.
<mgrwt>
<rscale>  4 0.35258803E+03</rscale>
<asrwt>0</asrwt>
<pdfrwt beam="1">  1       21 0.17988559E-01 0.35258803E+03</pdfrwt>
<pdfrwt beam="2">  1        2 0.53852763E+00 0.35258803E+03</pdfrwt>
<totfact> 0.33873152E+02</totfact>
</mgrwt>
</event>
<event>
 5    0  0.2306346E+000  0.4655050E+03  0.7546771E-02  0.1023197E+00
         21   -1    0    0  503  502  0.00000000000E+00  0.00000000000E+00  0.29133590627E+03  0.29133590627E+03  0.00000000000E+00 0. -1.
          2   -1    0    0  502    0 -0.00000000000E+00 -0.00000000000E+00 -0.18730729354E+04  0.18730729354E+04  0.00000000000E+00 0. -1.
         25    1    1    2    0    0 -0.12400824880E+03 -0.43473064076E+03 -0.23870878393E+02  0.46964198558E+03  0.12500000000E+03 0.  0.
         21    1    1    2  503  501 -0.32557711061E+02  0.14903878392E+02  0.28859931141E+02  0.45989409282E+02  0.00000000000E+00 0. -1.
          2    1    1    2  501    0  0.15656595986E+03  0.41982676237E+03 -0.15867260819E+04  0.16487774468E+04  0.00000000000E+00 0. -1.
<mgrwt>
<rscale>  4 0.46550504E+03</rscale>
<asrwt>0</asrwt>
<pdfrwt beam="1">  1       21 0.44820909E-01 0.46550504E+03</pdfrwt>
<pdfrwt beam="2">  1        2 0.28816506E+00 0.46550504E+03</pdfrwt>
<totfact> 0.46947596E+02</totfact>
</mgrwt>
</event>
<event>
 5    0  0.2306346E+000  0.3220831E+03  0.7546771E-02  0.1074695E+00
          2   -1    0    0  502    0 -0.00000000000E+00  0.00000000000E+00  0.28320993942E+04  0.28320993942E+04  0.00000000000E+00 0. -1.
         21   -1    0    0  503  502  0.00000000000E+00 -0.00000000000E+00 -0.11093176776E+03  0.11093176776E+03  0.00000000000E+00 0. -1.
         25    1    1    2    0    0 -0.53447094899E+02 -0.30467562490E+03  0.19757268653E+03  0.38774191781E+03  0.12500000000E+03 0.  0.
         21    1    1    2  503  501 -0.69350871504E+02  0.11616565173E+03  0.46047268361E+03  0.47993655244E+03  0.00000000000E+00 0.  1.
          2    1    1    2  501    0  0.12279796640E+03  0.18850997317E+03  0.20631222563E+04  0.20753526917E+04  0.00000000000E+00 0. -1.
<mgrwt>
<rscale>  4 0.32208307E+03</rscale>
<asrwt>0</asrwt>
<pdfrwt beam="1">  1       21 0.17066428E-01 0.32208307E+03</pdfrwt>
<pdfrwt beam="2">  1        2 0.43570755E+00 0.32208307E+03</pdfrwt>
<totfact> 0.98370664E+02</totfact>
</mgrwt>
</event>
<event>
 5    0  0.2306346E+000  0.2173324E+03  0.7546771E-02  0.1135888E+00
         21   -1    0    0  503  502  0.00000000000E+00  0.00000000000E+00  0.13984618458E+03  0.13984618458E+03  0.00000000000E+00 0. -1.
          2   -1    0    0  502    0 -0.00000000000E+00 -0.00000000000E+00 -0.18515171303E+04  0.18515171303E+04  0.00000000000E+00 0.  1.
         25    1    1    2    0    0  0.28922608148E+03 -0.10204938982E+03 -0.22382354896E+03  0.39973464353E+03  0.12500000000E+03 0.  0.
         21    1    1    2  503  501 -0.14706090840E+03  0.74236377040E+01 -0.69127719009E+02  0.16266733757E+03  0.00000000000E+00 0. -1.
          2    1    1    2  501    0 -0.14216517308E+03  0.94625752118E+02 -0.14187196778E+04  0.14289613338E+04  0.00000000000E+00 0.  1.
<mgrwt>
<rscale>  4 0.21733244E+03</rscale>
<asrwt>0</asrwt>
<pdfrwt beam="1">  1       21 0.21514797E-01 0.21733244E+03</pdfrwt>
<pdfrwt beam="2">  1        2 0.28484879E+00 0.21733244E+03</pdfrwt>
<totfact> 0.22838745E+03</totfact>
</mgrwt>
</event>
<event>
 5    0  0.2306346E+000  0.2942486E+03  0.7546771E-02  0.1088152E+00
          2   -1    0    0  502    0 -0.00000000000E+00  0.00000000000E+00  0.10942366326E+03  0.10942366326E+03  0.00000000000E+00 0.  1.
         21   -1    0    0  503  502  0.00000000000E+00 -0.00000000000E+00 -0.18013906528E+04  0.18013906528E+04  0.00000000000E+00 0.  1.
         25    1    1    2    0    0 -0.11103775410E+03  0.21259530578E+03 -0.14734283144E+04  0.14980461089E+04  0.12500000000E+03 0.  0.
         21    1    1    2  503  501  0.12126513182E+01  0.33907932163E+02 -0.12124550703E+03  0.12590350020E+03  0.00000000000E+00 0. -1.
          2    1    1    2  501    0  0.10982510279E+03 -0.24650323794E+03 -0.97293168143E+02  0.28686470693E+03  0.00000000000E+00 0.  1.
<mgrwt>
<rscale>  4 0.29424856E+03</rscale>
<asrwt>0</asrwt>
<pdfrwt beam="1">  1       21 0.27713703E+00 0.29424856E+03</pdfrwt>
<pdfrwt beam="2">  1        2 0.16834409E-01 0.29424856E+03</pdfrwt>
<totfact> 0.17624189E+02</totfact>
</mgrwt>
</event>
<event>
 5    0  0.2306346E+000  0.3618462E+03  0.7546771E-02  0.1057855E+00
         21   -1    0    0  503  502  0.00000000000E+00  0.00000000000E+00  0.67448428912E+02  0.67448428912E+02  0.00000000000E+00 0.  1.
          2   -1    0    0  502    0 -0.00000000000E+00 -0.00000000000E+00 -0.31251077404E+04  0.31251077404E+04  0.00000000000E+00 0.  1.
         25    1    1    2    0    0  0.28769344294E+03 -0.18815828999E+03 -0.66394027268E+03  0.75803215294E+03  0.12500000000E+03 0.  0.
         21    1    1    2  503  501 -0.17875845085E+02 -0.16532031669E+02 -0.91287450708E+01  0.26003613118E+02  0.00000000000E+00 0.  1.
          2    1    1    2  501    0 -0.26981759786E+03  0.20469032166E+03 -0.23845902937E+04  0.24085204032E+04  0.00000000000E+00 0.  1.
<mgrwt>
<rscale>  4 0.36184622E+03</rscale>
<asrwt>0</asrwt>
<pdfrwt beam="1">  1       21 0.10376680E-01 0.36184622E+03</pdfrwt>
<pdfrwt beam="2">  1        2 0.48078586E+00 0.36184622E+03</pdfrwt>
<totfact> 0.16067107E+03</totfact>
</mgrwt>
</event>
<event>
 5    0  0.2306346E+000  0.2098928E+03  0.7546771E-02  0.1141651E+00
          2   -1    0    0  502    0 -0.00000000000E+00  0.00000000000E+00  0.17909604610E+03  0.17909604610E+03  0.00000000000E+00 0. -1.
         21   -1    0    0  503  502  0.00000000000E+00 -0.00000000000E+00 -0.48214931736E+03  0.48214931736E+03  0.00000000000E+00 0. -1.
         25    1    1    2    0    0  0.32097743021E+02  0.22272195540E+03 -0.13306467843E+03  0.28976981066E+03  0.12500000000E+03 0.  0.
         21    1    1    2  503  501 -0.73800575845E+02 -0.13506230493E+03 -0.21505065303E+03  0.26445251857E+03  0.00000000000E+00 0. -1.
          2    1    1    2  501    0  0.41702832824E+02 -0.87659650476E+02  0.45062060201E+02  0.10702303423E+03  0.00000000000E+00 0. -1.
<mgrwt>
<rscale>  4 0.20989279E+03</rscale>
<asrwt>0</asrwt>
<pdfrwt beam="1">  1       21 0.74176818E-01 0.20989279E+03</pdfrwt>
<pdfrwt beam="2">  1        2 0.27553238E-01 0.20989279E+03</pdfrwt>
<totfact> 0.38413990E+03</totfact>
</mgrwt>
</event>
<event>
 5    0  0.2306346E+000  0.2782006E+03  0.7546771E-02  0.1096676E+00
         21   -1    0    0  503  502  0.00000000000E+00  0.00000000000E+00  0.48974407887E+03  0.48974407887E+03  0.00000000000E+00 0. -1.
          1   -1    0    0  502    0 -0.00000000000E+00 -0.00000000000E+00 -0.11769411808E+04  0.11769411808E+04  0.00000000000E+00 0. -1.
         25    1    1    2    0    0 -0.25718686013E+03 -0.14714940196E+03 -0.93099684598E+03  0.98497622039E+03  0.12500000000E+03 0.  0.
         21    1    1    2  503  501  0.64767809590E+02  0.17254032088E+03  0.39486812236E+03  0.43575895349E+03  0.00000000000E+00 0. -1.
          1    1    1    2  501    0  0.19241905054E+03 -0.25390918926E+02 -0.15106837832E+03  0.24595008580E+03  0.00000000000E+00 0. -1.
<mgrwt>
<rscale>  4 0.27820056E+03</rscale>
<asrwt>0</asrwt>
<pdfrwt beam="1">  1       21 0.75345243E-01 0.27820056E+03</pdfrwt>
<pdfrwt beam="2">  1        1 0.18106787E+00 0.27820056E+03</pdfrwt>
<totfact> 0.19931604E+02</totfact>
</mgrwt>
</event>
<event>
 5    0  0.2306346E+000  0.4020164E+03  0.7546771E-02  0.1043084E+00
         21   -1    0    0  503  502  0.00000000000E+00  0.00000000000E+00  0.12047064020E+04  0.12047064020E+04  0.00000000000E+00 0.  1.
          1   -1    0    0  502    0 -0.00000000000E+00 -0.00000000000E+00 -0.21682313563E+03  0.21682313563E+03  0.00000000000E+00 0. -1.
         25    1    1    2    0    0 -0.80340480273E+02 -0.38812729735E+03  0.10765689514E+03  0.42931619908E+03  0.12500000000E+03 0.  0.
         21    1    1    2  503  501 -0.18773310363E+02  0.49978971822E+02  0.35964199871E+03  0.36358314323E+03  0.00000000000E+00 0.  1.
          1    1    1    2  501    0  0.99113790636E+02  0.33814832553E+03  0.52058437247E+03  0.62863019527E+03  0.00000000000E+00 0. -1.
<mgrwt>
<rscale>  4 0.40201642E+03</rscale>
<asrwt>0</asrwt>
<pdfrwt beam="1">  1       21 0.18533944E+00 0.40201642E+03</pdfrwt>
<pdfrwt beam="2">  1        1 0.33357406E-01 0.40201642E+03</pdfrwt>
<totfact> 0.21501200E+02</totfact>
</mgrwt>
</event>
<event>
 5    0  0.2306346E+000  0.2457111E+03  0.7546771E-02  0.1116046E+00
          2   -1    0    0  502    0 -0.00000000000E+00  0.00000000000E+00  0.62295385201E+03  0.62295385201E+03  0.00000000000E+00 0.  1.
         21   -1    0    0  503  502  0.00000000000E+00 -0.00000000000E+00 -0.11109651895E+03  0.11109651895E+03  0.00000000000E+00 0.  1.
         25    1    1    2    0    0 -0.22583488369E+03  0.58337645903E+02  0.24499374618E+03  0.36062669243E+03  0.12500000000E+03 0.  0.
         21    1    1    2  503  501  0.34573940953E+02 -0.20269609877E+01 -0.63361743913E+01  0.35208139255E+02  0.00000000000E+00 0.  1.
          2    1    1    2  501    0  0.19126094274E+03 -0.56310684915E+02  0.27319976127E+03  0.33821553928E+03  0.00000000000E+00 0.  1.
<mgrwt>
<rscale>  4 0.24571115E+03</rscale>
<asrwt>0</asrwt>
<pdfrwt beam="1">  1       21 0.17091772E-01 0.24571115E+03</pdfrwt>
<pdfrwt beam="2">  1        2 0.95839052E-01 0.24571115E+03</pdfrwt>
<totfact> 0.18581809E+04</totfact>
</mgrwt>
</event>
<event>
 5    0  0.2306346E+000  0.3995246E+03  0.7546771E-02  0.1044284E+00
         21   -1    0    0  503  502  0.00000000000E+00  0.00000000000E+00  0.50864757029E+03  0.50864757029E+03  0.00000000000E+00 0. -1.
          3   -1    0    0  502    0 -0.00000000000E+00 -0.00000000000E+00 -0.31079140419E+03  0.31079140419E+03  0.00000000000E+00 0. -1.
         25    1    1    2    0    0  0.12669434162E+03 -0.35332898773E+03  0.94041818736E+02  0.40664689036E+03  0.12500000000E+03 0.  0.
         21    1    1    2  503  501 -0.55206491510E+02  0.88516308184E+02  0.90617368741E+02  0.13818249179E+03  0.00000000000E+00 0. -1.
          3    1    1    2  501    0 -0.71487850110E+02  0.26481267954E+03  0.13196978620E+02  0.27460959234E+03  0.00000000000E+00 0. -1.
<mgrwt>
<rscale>  4 0.39854573E+03</rscale>
<asrwt>0</asrwt>
<pdfrwt beam="1">  1       21 0.78253472E-01 0.39952457E+03</pdfrwt>
<pdfrwt beam="2">  1        3 0.47814062E-01 0.39952457E+03</pdfrwt>
<totfact> 0.29918541E+02</totfact>
</mgrwt>
</event>
<event>
 5    0  0.2306346E+000  0.2457154E+03  0.7546771E-02  0.1116043E+00
         21   -1    0    0  503  502  0.00000000000E+00  0.00000000000E+00  0.76042091760E+03  0.76042091760E+03  0.00000000000E+00 0.  1.
          2   -1    0    0  502    0 -0.00000000000E+00 -0.00000000000E+00 -0.24917434532E+04  0.24917434532E+04  0.00000000000E+00 0. -1.
         25    1    1    2    0    0 -0.16970365886E+03 -0.18145188716E+03  0.69348699270E+03  0.74717690558E+03  0.12500000000E+03 0.  0.
         21    1    1    2  503  501  0.31840981188E+02  0.21305107457E+02  0.25216641751E+02  0.45865397719E+02  0.00000000000E+00 0. -1.
          2    1    1    2  501    0  0.13786267767E+03  0.16014677971E+03 -0.24500261700E+04  0.24591220675E+04  0.00000000000E+00 0. -1.
<mgrwt>
<rscale>  4 0.24571541E+03</rscale>
<asrwt>0</asrwt>
<pdfrwt beam="1">  1       21 0.11698783E+00 0.24571541E+03</pdfrwt>
<pdfrwt beam="2">  1        2 0.38334515E+00 0.24571541E+03</pdfrwt>
<totfact> 0.28103784E+01</totfact>
</mgrwt>
</event>
<event>
 5    0  0.2714552E+000  0.2738768E+03  0.7546771E-02  0.1099081E+00
         21   -1    0    0  503  502  0.00000000000E+00  0.00000000000E+00  0.13506474861E+04  0.13506474861E+04  0.00000000000E+00 0. -1.
          1   -1    0    0  502    0 -0.00000000000E+00 -0.00000000000E+00 -0.80044208627E+03  0.80044208627E+03  0.00000000000E+00 0.  1.
         25    1    1    2    0    0 -0.22039105175E+03 -0.37006384458E+02  0.11848467871E+04  0.12121998998E+04  0.12500000000E+03 0.  0.
         21    1    1    2  503  501 -0.18066316602E+02 -0.14755465616E+02  0.13215854161E+03  0.13420132518E+03  0.00000000000E+00 0.  1.
          1    1    1    2  501    0  0.23845736835E+03  0.51761850074E+02 -0.76679992883E+03  0.80468834743E+03  0.00000000000E+00 0.  1.
<mgrwt>
<rscale>  4 0.27387680E+03</rscale>
<asrwt>0</asrwt>
<pdfrwt beam="1">  1       21 0.20779192E+00 0.27387680E+03</pdfrwt>
<pdfrwt beam="2">  1        1 0.12314494E+00 0.27387680E+03</pdfrwt>
<totfact> 0.28471027E+01</totfact>
</mgrwt>
</event>
<event>
 5    0  0.2306346E+000  0.3234386E+03  0.7546771E-02  0.1074078E+00
          2   -1    0    0  502    0 -0.00000000000E+00  0.00000000000E+00  0.54488692439E+03  0.54488692439E+03  0.00000000000E+00 0. -1.
         21   -1    0    0  503  502  0.00000000000E+00 -0.00000000000E+00 -0.52020581842E+03  0.52020581842E+03  0.00000000000E+00 0. -1.
         25    1    1    2    0    0 -0.20361538320E+02 -0.28188392877E+03  0.14025281216E+03  0.33936557407E+03  0.12500000000E+03 0.  0.
         21    1    1    2  503  501 -0.96018944342E+02 -0.13978612143E+02 -0.32886351017E+03  0.34287934844E+03  0.00000000000E+00 0. -1.
          2    1    1    2  501    0  0.11638048266E+03  0.29586254092E+03  0.21329180397E+03  0.38284782029E+03  0.00000000000E+00 0. -1.
<mgrwt>
<rscale>  4 0.32343860E+03</rscale>
<asrwt>0</asrwt>
<pdfrwt beam="1">  1       21 0.80031664E-01 0.32343860E+03</pdfrwt>
<pdfrwt beam="2">  1        2 0.83828757E-01 0.32343860E+03</pdfrwt>
<totfact> 0.91923035E+02</totfact>
</mgrwt>
</event>
<event>
 5    0  0.2306346E+000  0.2428141E+03  0.7546771E-02  0.1117932E+00
         21   -1    0    0  503  502  0.00000000000E+00  0.00000000000E+00  0.21345622685E+03  0.21345622685E+03  0.00000000000E+00 0.  1.
          2   -1    0    0  502    0 -0.00000000000E+00 -0.00000000000E+00 -0.95184820790E+03  0.95184820790E+03  0.00000000000E+00 0.  1.
         25    1    1    2    0    0 -0.23121513964E+03  0.53794502390E+02 -0.29070334891E+03  0.39558529593E+03  0.12500000000E+03 0.  0.
         21    1    1    2  503  501  0.35064190704E+02 -0.19462394994E+02  0.14187481995E+03  0.14743387272E+03  0.00000000000E+00 0.  1.
          2    1    1    2  501    0  0.19615094894E+03 -0.34332107396E+02 -0.58956345209E+03  0.62228526611E+03  0.00000000000E+00 0.  1.
<mgrwt>
<rscale>  4 0.24281412E+03</rscale>
<asrwt>0</asrwt>
<pdfrwt beam="1">  1       21 0.32839420E-01 0.24281412E+03</pdfrwt>
<pdfrwt beam="2">  1        2 0.14643818E+00 0.24281412E+03</pdfrwt>
<totfact> 0.31252469E+03</totfact>
</mgrwt>
</event>
<event>
 5    0  0.2306346E+000  0.2789325E+03  0.7546771E-02  0.1096273E+00
          1   -1    0    0  502    0 -0.00000000000E+00  0.00000000000E+00  0.21700552963E+03  0.21700552963E+03  0.00000000000E+00 0. -1.
         21   -1    0    0  503  502  0.00000000000E+00 -0.00000000000E+00 -0.62033668690E+03  0.62033668690E+03  0.00000000000E+00 0. -1.
         25    1    1    2    0    0  0.22735997719E+03  0.13292252753E+02 -0.26525571519E+03  0.37128807906E+03  0.12500000000E+03 0.  0.
         21    1    1    2  503  501  0.28745860852E+02 -0.31416918733E+02 -0.19790030948E+03  0.20242993799E+03  0.00000000000E+00 0. -1.
          1    1    1    2  501    0 -0.25610583804E+03  0.18124665980E+02  0.59824867406E+02  0.26362419949E+03  0.00000000000E+00 0. -1.
<mgrwt>
<rscale>  4 0.27893247E+03</rscale>
<asrwt>0</asrwt>
<pdfrwt beam="1">  1       21 0.95436412E-01 0.27893247E+03</pdfrwt>
<pdfrwt beam="2">  1        1 0.33385467E-01 0.27893247E+03</pdfrwt>
<totfact> 0.12708660E+03</totfact>
</mgrwt>
</event>
<event>
 5    0  0.2306346E+000  0.3579032E+03  0.7546771E-02  0.1059417E+00
         21   -1    0    0  503  502  0.00000000000E+00  0.00000000000E+00  0.34102509094E+03  0.34102509094E+03  0.00000000000E+00 0. -1.
          2   -1    0    0  502    0 -0.00000000000E+00 -0.00000000000E+00 -0.10076288915E+04  0.10076288915E+04  0.00000000000E+00 0. -1.
         25    1    1    2    0    0  0.33794235135E+03 -0.24563716025E+01  0.19320722973E+03  0.40885828867E+03  0.12500000000E+03 0.  0.
         21    1    1    2  503  501 -0.23733896948E+02 -0.31064297387E+02 -0.23108941865E+02  0.45412681385E+02  0.00000000000E+00 0. -1.
          2    1    1    2  501    0 -0.31420845440E+03  0.33520668989E+02 -0.83670208845E+03  0.89438301240E+03  0.00000000000E+00 0. -1.
<mgrwt>
<rscale>  4 0.35790324E+03</rscale>
<asrwt>0</asrwt>
<pdfrwt beam="1">  1       21 0.52465399E-01 0.35790324E+03</pdfrwt>
<pdfrwt beam="2">  1        2 0.15501983E+00 0.35790324E+03</pdfrwt>
<totfact> 0.10600766E+03</totfact>
</mgrwt>
</event>
<event>
 5    0  0.2306346E+000  0.4411619E+03  0.7546771E-02  0.1030391E+00
         21   -1    0    0  503  502  0.00000000000E+00  0.00000000000E+00  0.77415068968E+03  0.77415068968E+03  0.00000000000E+00 0. -1.
          2   -1    0    0  502    0 -0.00000000000E+00 -0.00000000000E+00 -0.11448959157E+04  0.11448959157E+04  0.00000000000E+00 0. -1.
         25    1    1    2    0    0 -0.42408864316E+03  0.13535365202E+03  0.63938058969E+03  0.78905280358E+03  0.12500000000E+03 0.  0.
         21    1    1    2  503  501  0.14588414202E+02 -0.34117920467E+02 -0.19845826942E+01  0.37159021710E+02  0.00000000000E+00 0. -1.
          2    1    1    2  501    0  0.40950022896E+03 -0.10123573155E+03 -0.10081412330E+04  0.10928347801E+04  0.00000000000E+00 0. -1.
<mgrwt>
<rscale>  4 0.44116191E+03</rscale>
<asrwt>0</asrwt>
<pdfrwt beam="1">  1       21 0.11910011E+00 0.44116191E+03</pdfrwt>
<pdfrwt beam="2">  1        2 0.17613783E+00 0.44116191E+03</pdfrwt>
<totfact> 0.12809877E+02</totfact>
</mgrwt>
</event>
<event>
 5    0  0.2306346E+000  0.3429578E+03  0.7546771E-02  0.1065543E+00
         21   -1    0    0  503  502  0.00000000000E+00  0.00000000000E+00  0.45202626714E+03  0.45202626714E+03  0.00000000000E+00 0.  1.
          2   -1    0    0  502    0 -0.00000000000E+00 -0.00000000000E+00 -0.85439107599E+03  0.85439107599E+03  0.00000000000E+00 0.  1.
         25    1    1    2    0    0 -0.33446620797E+03 -0.64610308970E+02 -0.60081436434E+03  0.70188676914E+03  0.12500000000E+03 0.  0.
         21    1    1    2  503  501  0.19715622751E+03  0.26365474236E+03  0.11398966085E+03  0.34839351888E+03  0.00000000000E+00 0.  1.
          2    1    1    2  501    0  0.13730998046E+03 -0.19904443339E+03  0.84459894641E+02  0.25613705511E+03  0.00000000000E+00 0.  1.
<mgrwt>
<rscale>  4 0.34295783E+03</rscale>
<asrwt>0</asrwt>
<pdfrwt beam="1">  1       21 0.69542502E-01 0.34295783E+03</pdfrwt>
<pdfrwt beam="2">  1        2 0.13144478E+00 0.34295783E+03</pdfrwt>
<totfact> 0.72313607E+02</totfact>
</mgrwt>
</event>
<event>
 5    0  0.2306346E+000  0.3083962E+03  0.7546771E-02  0.1081117E+00
         21   -1    0    0  503  502  0.00000000000E+00  0.00000000000E+00  0.20232469863E+03  0.20232469863E+03  0.00000000000E+00 0.  1.
          2   -1    0    0  502    0 -0.00000000000E+00 -0.00000000000E+00 -0.20051930350E+04  0.20051930350E+04  0.00000000000E+00 0. -1.
         25    1    1    2    0    0  0.16302177788E+02 -0.24116904828E+03  0.27965674423E+02  0.27356050482E+03  0.12500000000E+03 0.  0.
         21    1    1    2  503  501 -0.41302866786E+02 -0.42770036931E+02  0.18900935074E+02  0.62389487981E+02  0.00000000000E+00 0. -1.
          2    1    1    2  501    0  0.25000688998E+02  0.28393908521E+03 -0.18497349458E+04  0.18715677408E+04  0.00000000000E+00 0. -1.
<mgrwt>
<rscale>  4 0.30839619E+03</rscale>
<asrwt>0</asrwt>
<pdfrwt beam="1">  1       21 0.31126876E-01 0.30839619E+03</pdfrwt>
<pdfrwt beam="2">  1        2 0.30849124E+00 0.30839619E+03</pdfrwt>
<totfact> 0.88895423E+02</totfact>
</mgrwt>
</event>
<event>
 5    0  0.2306346E+000  0.2606331E+03  0.7546771E-02  0.1106763E+00
         21   -1    0    0  503  502  0.00000000000E+00  0.00000000000E+00  0.21399748813E+04  0.21399748813E+04  0.00000000000E+00 0. -1.
          4   -1    0    0  502    0 -0.00000000000E+00 -0.00000000000E+00 -0.75253288267E+02  0.75253288267E+02  0.00000000000E+00 0. -1.
         25    1    1    2    0    0  0.10175879663E+03  0.22937494119E+03  0.17141580210E+04  0.17369313277E+04  0.12500000000E+03 0.  0.
         21    1    1    2  503  501 -0.38743071029E+02 -0.18248576506E+03  0.35348916860E+03  0.39969572467E+03  0.00000000000E+00 0. -1.
          4    1    1    2  501    0 -0.63015725599E+02 -0.46889176126E+02 -0.29255965174E+01  0.78601117203E+02  0.00000000000E+00 0. -1.
<mgrwt>
<rscale>  4 0.26063307E+03</rscale>
<asrwt>0</asrwt>
<pdfrwt beam="1">  1       21 0.32922686E+00 0.26063307E+03</pdfrwt>
<pdfrwt beam="2">  1        4 0.11577431E-01 0.26063307E+03</pdfrwt>
<totfact> 0.54732432E+01</totfact>
</mgrwt>
</event>
<event>
 5    0  0.2306346E+000  0.3925467E+03  0.7546771E-02  0.1046391E+00
          2   -1    0    0  502    0 -0.00000000000E+00  0.00000000000E+00  0.70395780862E+03  0.70395780862E+03  0.00000000000E+00 0.  1.
         21   -1    0    0  503  502  0.00000000000E+00 -0.00000000000E+00 -0.24753118362E+03  0.24753118362E+03  0.00000000000E+00 0.  1.
         25    1    1    2    0    0  0.33143949829E+03  0.15172345047E+03  0.12731316216E+03  0.40583960836E+03  0.12500000000E+03 0.  0.
         21    1    1    2  503  501 -0.35405086767E+03 -0.14358136298E+03  0.23506539904E+03  0.44857927562E+03  0.00000000000E+00 0.  1.
          2    1    1    2  501    0  0.22611369375E+02 -0.81420874846E+01  0.94048063795E+02  0.97070108258E+02  0.00000000000E+00 0.  1.
<mgrwt>
<rscale>  4 0.39254667E+03</rscale>
<asrwt>0</asrwt>
<pdfrwt beam="1">  1       21 0.38081721E-01 0.39254667E+03</pdfrwt>
<pdfrwt beam="2">  1        2 0.10830120E+00 0.39254667E+03</pdfrwt>
<totfact> 0.32981097E+03</totfact>
</mgrwt>
</event>
<event>
 5    0  0.2306346E+000  0.2175272E+03  0.7546771E-02  0.1135740E+00
         21   -1    0    0  503  502  0.00000000000E+00  0.00000000000E+00  0.31143853427E+02  0.31143853427E+02  0.00000000000E+00 0. -1.
          2   -1    0    0  502    0 -0.00000000000E+00 -0.00000000000E+00 -0.29304843924E+04  0.29304843924E+04  0.00000000000E+00 0. -1.
         25    1    1    2    0    0  0.12412734163E+03  0.16552367322E+03 -0.18360212138E+04  0.18518651627E+04  0.12500000000E+03 0.  0.
         21    1    1    2  503  501 -0.97917839792E+02 -0.14252875804E+03 -0.30474725569E+03  0.35039012554E+03  0.00000000000E+00 0. -1.
          2    1    1    2  501    0 -0.26209501840E+02 -0.22994915179E+02 -0.75857206955E+03  0.75937295765E+03  0.00000000000E+00 0. -1.
<mgrwt>
<rscale>  4 0.21752717E+03</rscale>
<asrwt>0</asrwt>
<pdfrwt beam="1">  1       21 0.47913639E-02 0.21752717E+03</pdfrwt>
<pdfrwt beam="2">  1        2 0.45084358E+00 0.21752717E+03</pdfrwt>
<totfact> 0.86060412E+03</totfact>
</mgrwt>
</event>
<event>
 5    0  0.2306346E+000  0.2772357E+03  0.7546771E-02  0.1097208E+00
         21   -1    0    0  503  502  0.00000000000E+00  0.00000000000E+00  0.95075176164E+03  0.95075176164E+03  0.00000000000E+00 0.  1.
          4   -1    0    0  502    0 -0.00000000000E+00 -0.00000000000E+00 -0.10249122331E+03  0.10249122331E+03  0.00000000000E+00 0.  1.
         25    1    1    2    0    0  0.24544859790E+02 -0.24623606606E+03  0.17378850529E+03  0.32720344580E+03  0.12500000000E+03 0.  0.
         21    1    1    2  503  501 -0.47222275199E+02  0.18507101181E+03  0.58443879020E+03  0.61485764383E+03  0.00000000000E+00 0.  1.
          4    1    1    2  501    0  0.22677415408E+02  0.61165054246E+02  0.90033242837E+02  0.11118189532E+03  0.00000000000E+00 0.  1.
<mgrwt>
<rscale>  4 0.27723573E+03</rscale>
<asrwt>0</asrwt>
<pdfrwt beam="1">  1       21 0.14626950E+00 0.27723573E+03</pdfrwt>
<pdfrwt beam="2">  1        4 0.15767881E-01 0.27723573E+03</pdfrwt>
<totfact> 0.45621629E+02</totfact>
</mgrwt>
</event>
<event>
 5    0  0.2306346E+000  0.2577515E+03  0.7546771E-02  0.1108502E+00
         21   -1    0    0  503  502  0.00000000000E+00  0.00000000000E+00  0.59160247547E+03  0.59160247547E+03  0.00000000000E+00 0.  1.
          4   -1    0    0  502    0 -0.00000000000E+00 -0.00000000000E+00 -0.11563125551E+03  0.11563125551E+03  0.00000000000E+00 0.  1.
         25    1    1    2    0    0  0.20984318910E+03  0.37202318969E+02  0.14210835901E+03  0.28502273988E+03  0.12500000000E+03 0.  0.
         21    1    1    2  503  501 -0.23114912155E+03 -0.26721865588E+02  0.28532787753E+03  0.36817926637E+03  0.00000000000E+00 0.  1.
          4    1    1    2  501    0  0.21305932453E+02 -0.10480453381E+02  0.48534983423E+02  0.54031724724E+02  0.00000000000E+00 0.  1.
<mgrwt>
<rscale>  4 0.25775146E+03</rscale>
<asrwt>0</asrwt>
<pdfrwt beam="1">  1       21 0.91015764E-01 0.25775146E+03</pdfrwt>
<pdfrwt beam="2">  1        4 0.17789424E-01 0.25775146E+03</pdfrwt>
<totfact> 0.11959036E+03</totfact>
</mgrwt>
</event>
<event>
 5    0  0.2306346E+000  0.6263798E+03  0.7546771E-02  0.9852139E-01
         21   -1    0    0  503  502  0.00000000000E+00  0.00000000000E+00  0.42867444155E+03  0.42867444155E+03  0.00000000000E+00 0.  1.
          2   -1    0    0  502    0 -0.00000000000E+00 -0.00000000000E+00 -0.20412179611E+04  0.20412179611E+04  0.00000000000E+00 0.  1.
         25    1    1    2    0    0  0.42791044986E+03  0.46651602729E+03  0.72340964906E+02  0.64930945783E+03  0.12500000000E+03 0.  0.
         21    1    1    2  503  501 -0.14011720552E+02 -0.17164380274E+02  0.58016786333E+01  0.22904229696E+02  0.00000000000E+00 0. -1.
          2    1    1    2  501    0 -0.41389872930E+03 -0.44935164702E+03 -0.16906861631E+04  0.17976787152E+04  0.00000000000E+00 0.  1.
<mgrwt>
<rscale>  4 0.62637975E+03</rscale>
<asrwt>0</asrwt>
<pdfrwt beam="1">  1       21 0.65949913E-01 0.62637975E+03</pdfrwt>
<pdfrwt beam="2">  1        2 0.31403354E+00 0.62637975E+03</pdfrwt>
<totfact> 0.15754288E+02</totfact>
</mgrwt>
</event>
<event>
 5    0  0.2306346E+000  0.2858018E+03  0.7546771E-02  0.1092562E+00
         21   -1    0    0  503  502  0.00000000000E+00  0.00000000000E+00  0.83143059768E+03  0.83143059768E+03  0.00000000000E+00 0. -1.
          2   -1    0    0  502    0 -0.00000000000E+00 -0.00000000000E+00 -0.32803836012E+03  0.32803836012E+03  0.00000000000E+00 0. -1.
         25    1    1    2    0    0 -0.20507632889E+03 -0.13180326053E+03  0.55344093929E+03  0.61753564548E+03  0.12500000000E+03 0.  0.
         21    1    1    2  503  501  0.11936837217E+02 -0.40110586910E+02  0.18671169792E+03  0.19134420662E+03  0.00000000000E+00 0.  1.
          2    1    1    2  501    0  0.19313949167E+03  0.17191384744E+03 -0.23676039966E+03  0.35058910570E+03  0.00000000000E+00 0. -1.
<mgrwt>
<rscale>  4 0.28580177E+03</rscale>
<asrwt>0</asrwt>
<pdfrwt beam="1">  1       21 0.12791240E+00 0.28580177E+03</pdfrwt>
<pdfrwt beam="2">  1        2 0.50467440E-01 0.28580177E+03</pdfrwt>
<totfact> 0.52817385E+02</totfact>
</mgrwt>
</event>
<event>
 5    0  0.2306346E+000  0.2964165E+03  0.7546771E-02  0.1087046E+00
         21   -1    0    0  503  502  0.00000000000E+00  0.00000000000E+00  0.57882193038E+03  0.57882193038E+03  0.00000000000E+00 0.  1.
          1   -1    0    0  502    0 -0.00000000000E+00 -0.00000000000E+00 -0.20514197299E+04  0.20514197299E+04  0.00000000000E+00 0. -1.
         25    1    1    2    0    0 -0.24383549488E+03  0.85326794431E+02  0.40565567808E+03  0.49690838147E+03  0.12500000000E+03 0.  0.
         21    1    1    2  503  501  0.53094559969E+01  0.39107134734E+02  0.11521804092E+03  0.12178979951E+03  0.00000000000E+00 0.  1.
          1    1    1    2  501    0  0.23852603889E+03 -0.12443392916E+03 -0.19934715185E+04  0.20115434793E+04  0.00000000000E+00 0. -1.
<mgrwt>
<rscale>  4 0.29641651E+03</rscale>
<asrwt>0</asrwt>
<pdfrwt beam="1">  1       21 0.89049528E-01 0.29641651E+03</pdfrwt>
<pdfrwt beam="2">  1        1 0.31560304E+00 0.29641651E+03</pdfrwt>
<totfact> 0.35196260E+01</totfact>
</mgrwt>
</event>
<event>
 5    0  0.2306346E+000  0.2796659E+03  0.7546771E-02  0.1095872E+00
          2   -1    0    0  502    0 -0.00000000000E+00  0.00000000000E+00  0.99279292320E+03  0.99279292320E+03  0.00000000000E+00 0.  1.
         21   -1    0    0  503  502  0.00000000000E+00 -0.00000000000E+00 -0.90159089039E+02  0.90159089039E+02  0.00000000000E+00 0.  1.
         25    1    1    2    0    0 -0.24763614118E+03  0.76419024390E+02  0.27928410747E+03  0.40098396276E+03  0.12500000000E+03 0.  0.
         21    1    1    2  503  501  0.15237081446E+02 -0.35604587453E+02  0.62801624270E+02  0.73782784643E+02  0.00000000000E+00 0. -1.
          2    1    1    2  501    0  0.23239905974E+03 -0.40814436937E+02  0.56054810243E+03  0.60818526484E+03  0.00000000000E+00 0.  1.
<mgrwt>
<rscale>  4 0.27966592E+03</rscale>
<asrwt>0</asrwt>
<pdfrwt beam="1">  1       21 0.13870630E-01 0.27966592E+03</pdfrwt>
<pdfrwt beam="2">  1        2 0.15273737E+00 0.27966592E+03</pdfrwt>
<totfact> 0.14950949E+04</totfact>
</mgrwt>
</event>
<event>
 5    0  0.2306346E+000  0.3367643E+03  0.7546771E-02  0.1068182E+00
          2   -1    0    0  502    0 -0.00000000000E+00  0.00000000000E+00  0.18349613825E+04  0.18349613825E+04  0.00000000000E+00 0. -1.
         21   -1    0    0  503  502  0.00000000000E+00 -0.00000000000E+00 -0.57211662340E+03  0.57211662340E+03  0.00000000000E+00 0. -1.
         25    1    1    2    0    0  0.24033022917E+03 -0.27735757338E+03  0.27919503162E+03  0.47776637413E+03  0.12500000000E+03 0.  0.
         21    1    1    2  503  501 -0.34373639995E+02  0.53702002994E+02 -0.45471539823E+03  0.45916396379E+03  0.00000000000E+00 0. -1.
          2    1    1    2  501    0 -0.20595658917E+03  0.22365557039E+03  0.14383651257E+04  0.14701476679E+04  0.00000000000E+00 0. -1.
<mgrwt>
<rscale>  4 0.33676428E+03</rscale>
<asrwt>0</asrwt>
<pdfrwt beam="1">  1       21 0.88017943E-01 0.33676428E+03</pdfrwt>
<pdfrwt beam="2">  1        2 0.28230175E+00 0.33676428E+03</pdfrwt>
<totfact> 0.11694776E+02</totfact>
</mgrwt>
</event>
<event>
 5    0  0.2306346E+000  0.3323281E+03  0.7546771E-02  0.1070111E+00
          1   -1    0    0  502    0 -0.00000000000E+00  0.00000000000E+00  0.10531670042E+04  0.10531670042E+04  0.00000000000E+00 0.  1.
         21   -1    0    0  503  502  0.00000000000E+00 -0.00000000000E+00 -0.24333767182E+03  0.24333767182E+03  0.00000000000E+00 0.  1.
         25    1    1    2    0    0  0.20700712028E+03  0.68463553696E+02  0.17309790936E+03  0.30516731846E+03  0.12500000000E+03 0.  0.
         21    1    1    2  503  501  0.85570456953E+02  0.18326912984E+03 -0.45662649306E+02  0.20735224763E+03  0.00000000000E+00 0.  1.
          1    1    1    2  501    0 -0.29257757723E+03 -0.25173268354E+03  0.68239407235E+03  0.78398510996E+03  0.00000000000E+00 0.  1.
<mgrwt>
<rscale>  4 0.33232808E+03</rscale>
<asrwt>0</asrwt>
<pdfrwt beam="1">  1       21 0.37436565E-01 0.33232808E+03</pdfrwt>
<pdfrwt beam="2">  1        1 0.16202569E+00 0.33232808E+03</pdfrwt>
<totfact> 0.10634480E+03</totfact>
</mgrwt>
</event>
<event>
 5    0  0.2306346E+000  0.2930689E+03  0.7546771E-02  0.1088758E+00
         21   -1    0    0  503  502  0.00000000000E+00  0.00000000000E+00  0.22560604869E+04  0.22560604869E+04  0.00000000000E+00 0.  1.
          1   -1    0    0  502    0 -0.00000000000E+00 -0.00000000000E+00 -0.26863001913E+03  0.26863001913E+03  0.00000000000E+00 0. -1.
         25    1    1    2    0    0 -0.25935827515E+03  0.62533510560E+02  0.21123134918E+04  0.21327612249E+04  0.12500000000E+03 0.  0.
         21    1    1    2  503  501  0.33533642747E+02 -0.46553739429E+02  0.71888968450E+02  0.91977060377E+02  0.00000000000E+00 0.  1.
          1    1    1    2  501    0  0.22582463240E+03 -0.15979771131E+02 -0.19677199250E+03  0.29995222072E+03  0.00000000000E+00 0. -1.
<mgrwt>
<rscale>  4 0.29306887E+03</rscale>
<asrwt>0</asrwt>
<pdfrwt beam="1">  1       21 0.34708622E+00 0.29306887E+03</pdfrwt>
<pdfrwt beam="2">  1        1 0.41327697E-01 0.29306887E+03</pdfrwt>
<totfact> 0.17793383E+01</totfact>
</mgrwt>
</event>
<event>
 5    0  0.2306346E+000  0.2531766E+03  0.7546771E-02  0.1111314E+00
         21   -1    0    0  503  502  0.00000000000E+00  0.00000000000E+00  0.41157577762E+03  0.41157577762E+03  0.00000000000E+00 0. -1.
          1   -1    0    0  502    0 -0.00000000000E+00 -0.00000000000E+00 -0.34559076346E+03  0.34559076346E+03  0.00000000000E+00 0. -1.
         25    1    1    2    0    0 -0.20049284508E+03 -0.32327304447E+02 -0.72120165882E+02  0.24913601480E+03  0.12500000000E+03 0.  0.
         21    1    1    2  503  501 -0.31350824854E+02 -0.35743249570E+01  0.24726585877E+03  0.24927104712E+03  0.00000000000E+00 0. -1.
          1    1    1    2  501    0  0.23184366993E+03  0.35901629404E+02 -0.10916067873E+03  0.25875947917E+03  0.00000000000E+00 0. -1.
<mgrwt>
<rscale>  4 0.25317660E+03</rscale>
<asrwt>0</asrwt>
<pdfrwt beam="1">  1       21 0.63319350E-01 0.25317660E+03</pdfrwt>
<pdfrwt beam="2">  1        1 0.53167810E-01 0.25317660E+03</pdfrwt>
<totfact> 0.18073098E+03</totfact>
</mgrwt>
</event>
<event>
 5    0  0.2306346E+000  0.2325072E+03  0.7546771E-02  0.1124887E+00
          2   -1    0    0  502    0 -0.00000000000E+00  0.00000000000E+00  0.30945531753E+04  0.30945531753E+04  0.00000000000E+00 0. -1.
         21   -1    0    0  503  502  0.00000000000E+00 -0.00000000000E+00 -0.14770222102E+03  0.14770222102E+03  0.00000000000E+00 0. -1.
         25    1    1    2    0    0 -0.12795540292E+03 -0.23579079454E+03  0.20445431066E+03  0.35971717929E+03  0.12500000000E+03 0.  0.
         21    1    1    2  503  501  0.11869204921E+03  0.42035334992E+02 -0.71870790842E+01  0.12612068045E+03  0.00000000000E+00 0. -1.
          2    1    1    2  501    0  0.92633537186E+01  0.19375545955E+03  0.27495837227E+04  0.27564175366E+04  0.00000000000E+00 0. -1.
<mgrwt>
<rscale>  4 0.23250722E+03</rscale>
<asrwt>0</asrwt>
<pdfrwt beam="1">  1       21 0.22723421E-01 0.23250722E+03</pdfrwt>
<pdfrwt beam="2">  1        2 0.47608505E+00 0.23250722E+03</pdfrwt>
<totfact> 0.42412526E+02</totfact>
</mgrwt>
</event>
<event>
 5    0  0.2306346E+000  0.4741486E+03  0.7546771E-02  0.1020756E+00
         21   -1    0    0  503  502  0.00000000000E+00  0.00000000000E+00  0.49780078516E+03  0.49780078516E+03  0.00000000000E+00 0. -1.
          1   -1    0    0  502    0 -0.00000000000E+00 -0.00000000000E+00 -0.97600639973E+03  0.97600639973E+03  0.00000000000E+00 0. -1.
         25    1    1    2    0    0 -0.31160893320E+03 -0.37997559457E+03  0.25387081595E+03  0.56705993591E+03  0.12500000000E+03 0.  0.
         21    1    1    2  503  501  0.33924271238E+02  0.23191653806E+02  0.56749558319E+01  0.41483901806E+02  0.00000000000E+00 0. -1.
          1    1    1    2  501    0  0.27768466196E+03  0.35678394077E+03 -0.73775138636E+03  0.86526334717E+03  0.00000000000E+00 0. -1.
<mgrwt>
<rscale>  4 0.47414865E+03</rscale>
<asrwt>0</asrwt>
<pdfrwt beam="1">  1       21 0.76584738E-01 0.47414865E+03</pdfrwt>
<pdfrwt beam="2">  1        1 0.15015483E+00 0.47414865E+03</pdfrwt>
<totfact> 0.24971095E+02</totfact>
</mgrwt>
</event>
<event>
 5    0  0.2306346E+000  0.2305530E+03  0.7546771E-02  0.1126251E+00
         -3   -1    0    0    0  501 -0.00000000000E+00  0.00000000000E+00  0.91296568970E+02  0.91296568970E+02  0.00000000000E+00 0. -1.
         21   -1    0    0  501  502  0.00000000000E+00 -0.00000000000E+00 -0.83775077859E+03  0.83775077859E+03  0.00000000000E+00 0.  1.
         25    1    1    2    0    0  0.19024427925E+03  0.12434250043E+03 -0.45663260126E+03  0.52515928606E+03  0.12500000000E+03 0.  0.
         21    1    1    2  503  502 -0.16497043265E+02 -0.63790912356E+02 -0.17502727867E+03  0.18701866542E+03  0.00000000000E+00 0.  1.
         -3    1    1    2    0  503 -0.17374723598E+03 -0.60551588070E+02 -0.11479432969E+03  0.21686939609E+03  0.00000000000E+00 0. -1.
<mgrwt>
<rscale>  4 0.23055304E+03</rscale>
<asrwt>0</asrwt>
<pdfrwt beam="1">  1       21 0.12888474E+00 0.23055304E+03</pdfrwt>
<pdfrwt beam="2">  1       -3 0.14045626E-01 0.23055304E+03</pdfrwt>
<totfact> 0.89718352E+02</totfact>
</mgrwt>
</event>
<event>
 5    0  0.2306346E+000  0.3139940E+03  0.7546771E-02  0.1078447E+00
          2   -1    0    0  502    0 -0.00000000000E+00  0.00000000000E+00  0.41939794492E+03  0.41939794492E+03  0.00000000000E+00 0. -1.
         21   -1    0    0  503  502  0.00000000000E+00 -0.00000000000E+00 -0.56369772824E+03  0.56369772824E+03  0.00000000000E+00 0.  1.
         25    1    1    2    0    0  0.15825654584E+03  0.25998231089E+03 -0.14144910451E+03  0.35814631848E+03  0.12500000000E+03 0.  0.
         21    1    1    2  503  501 -0.13003713049E+02 -0.16162172068E+02 -0.24864024591E+03  0.24950407661E+03  0.00000000000E+00 0.  1.
          2    1    1    2  501    0 -0.14525283279E+03 -0.24382013882E+03  0.24578956710E+03  0.37544527807E+03  0.00000000000E+00 0. -1.
<mgrwt>
<rscale>  4 0.31399398E+03</rscale>
<asrwt>0</asrwt>
<pdfrwt beam="1">  1       21 0.86722727E-01 0.31399398E+03</pdfrwt>
<pdfrwt beam="2">  1        2 0.64522761E-01 0.31399398E+03</pdfrwt>
<totfact> 0.10282402E+03</totfact>
</mgrwt>
</event>
<event>
 5    0  0.2306346E+000  0.2416566E+03  0.7546771E-02  0.1118694E+00
         21   -1    0    0  503  502  0.00000000000E+00  0.00000000000E+00  0.97925386026E+03  0.97925386026E+03  0.00000000000E+00 0. -1.
          1   -1    0    0  502    0 -0.00000000000E+00 -0.00000000000E+00 -0.64119801428E+03  0.64119801428E+03  0.00000000000E+00 0. -1.
         25    1    1    2    0    0  0.64544346319E+02  0.21482837091E+03 -0.15868605464E+03  0.30186663533E+03  0.12500000000E+03 0.  0.
         21    1    1    2  503  501 -0.10451799885E+02 -0.21424001212E+02  0.88295603304E+03  0.88327775033E+03  0.00000000000E+00 0. -1.
          1    1    1    2  501    0 -0.54092546434E+02 -0.19340436970E+03 -0.38621413242E+03  0.43530748889E+03  0.00000000000E+00 0. -1.
<mgrwt>
<rscale>  4 0.24165663E+03</rscale>
<asrwt>0</asrwt>
<pdfrwt beam="1">  1       21 0.15065444E+00 0.24165663E+03</pdfrwt>
<pdfrwt beam="2">  1        1 0.98645848E-01 0.24165663E+03</pdfrwt>
<totfact> 0.10106285E+02</totfact>
</mgrwt>
</event>
<event>
 5    0  0.2306346E+000  0.4429189E+03  0.7546771E-02  0.1029855E+00
         21   -1    0    0  503  502  0.00000000000E+00  0.00000000000E+00  0.31799442829E+03  0.31799442829E+03  0.00000000000E+00 0. -1.
          2   -1    0    0  502    0 -0.00000000000E+00 -0.00000000000E+00 -0.22270597208E+04  0.22270597208E+04  0.00000000000E+00 0.  1.
         25    1    1    2    0    0 -0.20903133011E+03  0.34850479491E+03  0.12833091176E+03  0.44412105552E+03  0.12500000000E+03 0.  0.
         21    1    1    2  503  501 -0.26854046563E+02  0.66836578302E+01 -0.10377022941E+02  0.29554926897E+02  0.00000000000E+00 0. -1.
          2    1    1    2  501    0  0.23588537667E+03 -0.35518845274E+03 -0.20270191814E+04  0.20713781667E+04  0.00000000000E+00 0.  1.
<mgrwt>
<rscale>  4 0.44291889E+03</rscale>
<asrwt>0</asrwt>
<pdfrwt beam="1">  1       21 0.48922218E-01 0.44291889E+03</pdfrwt>
<pdfrwt beam="2">  1        2 0.34262459E+00 0.44291889E+03</pdfrwt>
<totfact> 0.25371324E+02</totfact>
</mgrwt>
</event>
<event>
 5    0  0.2306346E+000  0.3251587E+03  0.7546771E-02  0.1073299E+00
         21   -1    0    0  501  502  0.00000000000E+00  0.00000000000E+00  0.59132477503E+03  0.59132477503E+03  0.00000000000E+00 0. -1.
         -1   -1    0    0    0  501 -0.00000000000E+00 -0.00000000000E+00 -0.20836042883E+03  0.20836042883E+03  0.00000000000E+00 0. -1.
         25    1    1    2    0    0 -0.28321640624E+03 -0.40754057627E+02  0.23609647501E+03  0.39145749640E+03  0.12500000000E+03 0.  0.
         21    1    1    2  503  502 -0.20223578343E+02 -0.14925421616E+02  0.91376847293E+02  0.94770720967E+02  0.00000000000E+00 0. -1.
         -1    1    1    2    0  503  0.30343998458E+03  0.55679479243E+02  0.55491023898E+02  0.31345698650E+03  0.00000000000E+00 0. -1.
<mgrwt>
<rscale>  4 0.32515867E+03</rscale>
<asrwt>0</asrwt>
<pdfrwt beam="1">  1       21 0.90973041E-01 0.32515867E+03</pdfrwt>
<pdfrwt beam="2">  1       -1 0.32055451E-01 0.32515867E+03</pdfrwt>
<totfact> 0.81556848E+02</totfact>
</mgrwt>
</event>
<event>
 5    0  0.2306346E+000  0.2826802E+03  0.7546771E-02  0.1094234E+00
          1   -1    0    0  502    0 -0.00000000000E+00  0.00000000000E+00  0.45160781714E+03  0.45160781714E+03  0.00000000000E+00 0.  1.
         21   -1    0    0  503  502  0.00000000000E+00 -0.00000000000E+00 -0.49216705989E+03  0.49216705989E+03  0.00000000000E+00 0. -1.
         25    1    1    2    0    0  0.29576501033E+03  0.78141176573E+02  0.17046534880E+03  0.37184192872E+03  0.12500000000E+03 0.  0.
         21    1    1    2  503  501 -0.91029996526E+02 -0.20851276387E+01 -0.31653933304E+03  0.32937510135E+03  0.00000000000E+00 0. -1.
          1    1    1    2  501    0 -0.20473501380E+03 -0.76056048935E+02  0.10551474149E+03  0.24255784697E+03  0.00000000000E+00 0.  1.
<mgrwt>
<rscale>  4 0.28268019E+03</rscale>
<asrwt>0</asrwt>
<pdfrwt beam="1">  1       21 0.75718009E-01 0.28268019E+03</pdfrwt>
<pdfrwt beam="2">  1        1 0.69478126E-01 0.28268019E+03</pdfrwt>
<totfact> 0.85169645E+02</totfact>
</mgrwt>
</event>
<event>
 5    0  0.2306346E+000  0.3198592E+03  0.7546771E-02  0.1075714E+00
          2   -1    0    0  502    0 -0.00000000000E+00  0.00000000000E+00  0.20511915407E+04  0.20511915407E+04  0.00000000000E+00 0. -1.
         21   -1    0    0  503  502  0.00000000000E+00 -0.00000000000E+00 -0.10552572765E+03  0.10552572765E+03  0.00000000000E+00 0. -1.
         25    1    1    2    0    0  0.12771732620E+03 -0.23638745579E+03  0.11288051788E+04  0.11670547872E+04  0.12500000000E+03 0.  0.
         21    1    1    2  503  501  0.41449712646E+02 -0.56478274382E+02 -0.31169076411E+02  0.76677150964E+02  0.00000000000E+00 0. -1.
          2    1    1    2  501    0 -0.16916703884E+03  0.29286573018E+03  0.84802971067E+03  0.91298533018E+03  0.00000000000E+00 0. -1.
<mgrwt>
<rscale>  4 0.31985917E+03</rscale>
<asrwt>0</asrwt>
<pdfrwt beam="1">  1       21 0.16234729E-01 0.31985917E+03</pdfrwt>
<pdfrwt beam="2">  1        2 0.31556790E+00 0.31985917E+03</pdfrwt>
<totfact> 0.29046553E+03</totfact>
</mgrwt>
</event>
<event>
 5    0  0.2306346E+000  0.2060456E+03  0.7546771E-02  0.1144736E+00
          4   -1    0    0  502    0 -0.00000000000E+00  0.00000000000E+00  0.75747192158E+03  0.75747192158E+03  0.00000000000E+00 0. -1.
         21   -1    0    0  503  502  0.00000000000E+00 -0.00000000000E+00 -0.11494449826E+04  0.11494449826E+04  0.00000000000E+00 0. -1.
         25    1    1    2    0    0  0.30726369028E+02  0.22014201621E+03 -0.11225229334E+03  0.27862554516E+03  0.12500000000E+03 0.  0.
         21    1    1    2  503  501 -0.39247084049E+02 -0.59266502396E+02 -0.94302669469E+03  0.94570196088E+03  0.00000000000E+00 0. -1.
          4    1    1    2  501    0  0.85207150209E+01 -0.16087551382E+03  0.66330592705E+03  0.68258939810E+03  0.00000000000E+00 0. -1.
<mgrwt>
<rscale>  4 0.20604557E+03</rscale>
<asrwt>0</asrwt>
<pdfrwt beam="1">  1       21 0.17683769E+00 0.20604557E+03</pdfrwt>
<pdfrwt beam="2">  1        4 0.11653414E+00 0.20604557E+03</pdfrwt>
<totfact> 0.47395626E+00</totfact>
</mgrwt>
</event>
<event>
 5    0  0.2306346E+000  0.5340304E+03  0.7546771E-02  0.1005259E+00
          2   -1    0    0  502    0 -0.00000000000E+00  0.00000000000E+00  0.13424936550E+04  0.13424936550E+04  0.00000000000E+00 0. -1.
         21   -1    0    0  503  502  0.00000000000E+00 -0.00000000000E+00 -0.35664044432E+03  0.35664044432E+03  0.00000000000E+00 0. -1.
         25    1    1    2    0    0 -0.10528946360E+03 -0.50556675581E+03  0.10015829814E+04  0.11337888182E+04  0.12500000000E+03 0.  0.
         21    1    1    2  503  501 -0.32500562664E+02 -0.77275249595E+01  0.30586858837E+01  0.33546337726E+02  0.00000000000E+00 0.  1.
          2    1    1    2  501    0  0.13779002627E+03  0.51329428077E+03 -0.18788456637E+02  0.53179894332E+03  0.00000000000E+00 0. -1.
<mgrwt>
<rscale>  4 0.53403044E+03</rscale>
<asrwt>0</asrwt>
<pdfrwt beam="1">  1       21 0.54867761E-01 0.53403044E+03</pdfrwt>
<pdfrwt beam="2">  1        2 0.20653748E+00 0.53403044E+03</pdfrwt>
<totfact> 0.58303553E+02</totfact>
</mgrwt>
</event>
<event>
 5    0  0.2306346E+000  0.2172379E+03  0.7546771E-02  0.1135959E+00
          2   -1    0    0  502    0 -0.00000000000E+00  0.00000000000E+00  0.57176786099E+03  0.57176786099E+03  0.00000000000E+00 0.  1.
         21   -1    0    0  503  502  0.00000000000E+00 -0.00000000000E+00 -0.15310680536E+03  0.15310680536E+03  0.00000000000E+00 0. -1.
         25    1    1    2    0    0  0.21541437827E+03 -0.71929041611E+02  0.16065840458E+03  0.30498076063E+03  0.12500000000E+03 0.  0.
         21    1    1    2  503  501 -0.53843276704E+02  0.44900314738E+02 -0.39354613459E+02  0.80398521817E+02  0.00000000000E+00 0. -1.
          2    1    1    2  501    0 -0.16157110157E+03  0.27028726873E+02  0.29735726451E+03  0.33949538391E+03  0.00000000000E+00 0.  1.
<mgrwt>
<rscale>  4 0.21723793E+03</rscale>
<asrwt>0</asrwt>
<pdfrwt beam="1">  1       21 0.23554893E-01 0.21723793E+03</pdfrwt>
<pdfrwt beam="2">  1        2 0.87964285E-01 0.21723793E+03</pdfrwt>
<totfact> 0.11304841E+04</totfact>
</mgrwt>
</event>
<event>
 5    0  0.2306346E+000  0.2343346E+03  0.7546771E-02  0.1123626E+00
         21   -1    0    0  503  502  0.00000000000E+00  0.00000000000E+00  0.25001816107E+03  0.25001816107E+03  0.00000000000E+00 0. -1.
          2   -1    0    0  502    0 -0.00000000000E+00 -0.00000000000E+00 -0.36600103160E+03  0.36600103160E+03  0.00000000000E+00 0. -1.
         25    1    1    2    0    0  0.18111953691E+03 -0.17084433233E+03 -0.43427474159E+02  0.28196279551E+03  0.12500000000E+03 0.  0.
         21    1    1    2  503  501 -0.15213509622E+03  0.93452467480E+02  0.50750491228E+02  0.18561805823E+03  0.00000000000E+00 0. -1.
          2    1    1    2  501    0 -0.28984440687E+02  0.77391864847E+02 -0.12330588760E+03  0.14843833893E+03  0.00000000000E+00 0. -1.
<mgrwt>
<rscale>  4 0.23433458E+03</rscale>
<asrwt>0</asrwt>
<pdfrwt beam="1">  1       21 0.38464333E-01 0.23433458E+03</pdfrwt>
<pdfrwt beam="2">  1        2 0.56307851E-01 0.23433458E+03</pdfrwt>
<totfact> 0.70632775E+03</totfact>
</mgrwt>
</event>
<event>
 5    0  0.2306346E+000  0.2239449E+03  0.7546771E-02  0.1130976E+00
         -1   -1    0    0    0  501 -0.00000000000E+00  0.00000000000E+00  0.49069768561E+03  0.49069768561E+03  0.00000000000E+00 0.  1.
         21   -1    0    0  501  502  0.00000000000E+00 -0.00000000000E+00 -0.10235537361E+04  0.10235537361E+04  0.00000000000E+00 0. -1.
         25    1    1    2    0    0 -0.86877271969E+02 -0.21033522079E+03 -0.89647609150E+03  0.93331824589E+03  0.12500000000E+03 0.  0.
         21    1    1    2  503  502 -0.66603167831E+01  0.50706302515E+02 -0.83009458495E+02  0.97499021196E+02  0.00000000000E+00 0. -1.
         -1    1    1    2    0  503  0.93537588752E+02  0.15962891828E+03  0.44662949949E+03  0.48343415464E+03  0.00000000000E+00 0.  1.
<mgrwt>
<rscale>  4 0.22394489E+03</rscale>
<asrwt>0</asrwt>
<pdfrwt beam="1">  1       21 0.15746981E+00 0.22394489E+03</pdfrwt>
<pdfrwt beam="2">  1       -1 0.75491952E-01 0.22394489E+03</pdfrwt>
<totfact> 0.43925817E+01</totfact>
</mgrwt>
</event>
