<event>
 5    0  0.2629946E-001  0.7056505E+03  0.7546771E-02  0.9707618E-01
         21   -1    0    0  504  501  0.00000000000E+00  0.00000000000E+00  0.25524168568E+03  0.25524168568E+03  0.00000000000E+00 0.  1.
         21   -1    0    0  501  502 -0.00000000000E+00 -0.00000000000E+00 -0.48771685459E+03  0.48771685459E+03  0.00000000000E+00 0.  1.
         25    1    1    2    0    0 -0.31222634127E+03 -0.11802402468E+03 -0.16102437948E+03  0.39111227208E+03  0.12500000000E+03 0.  0.
         21    1    1    2  503  502  0.26951543688E+02  0.37412930124E+02  0.29596894810E+01  0.46204683848E+02  0.00000000000E+00 0.  1.
         21    1    1    2  504  503  0.28527479759E+03  0.80611094560E+02 -0.74410478910E+02  0.30564158434E+03  0.00000000000E+00 0.  1.
<mgrwt>
<rscale>  4 0.70565054E+03</rscale>
<asrwt>0</asrwt>
<pdfrwt beam="1">  1       21 0.39267952E-01 0.70565054E+03</pdfrwt>
<pdfrwt beam="2">  1       21 0.75033361E-01 0.70565054E+03</pdfrwt>
<totfact> 0.83187567E+03</totfact>
</mgrwt>
</event>
<event>
 5    0  0.2629946E-001  0.5118197E+03  0.7546771E-02  0.1010739E+00
         21   -1    0    0  502  501  0.00000000000E+00  0.00000000000E+00  0.13788935410E+04  0.13788935410E+04  0.00000000000E+00 0. -1.
         21   -1    0    0  504  502 -0.00000000000E+00 -0.00000000000E+00 -0.47494499452E+02  0.47494499452E+02  0.00000000000E+00 0. -1.
         25    1    1    2    0    0 -0.20976315141E+03 -0.11225170806E+03  0.70976393489E+03  0.75894062279E+03  0.12500000000E+03 0.  0.
         21    1    1    2  503  501  0.18182290104E+03  0.10222288066E+03  0.57956472565E+03  0.61595807965E+03  0.00000000000E+00 0.  1.
         21    1    1    2  504  503  0.27940250369E+02  0.10028827403E+02  0.42070380979E+02  0.51489337978E+02  0.00000000000E+00 0. -1.
<mgrwt>
<rscale>  4 0.51181973E+03</rscale>
<asrwt>0</asrwt>
<pdfrwt beam="1">  1       21 0.21213744E+00 0.51181973E+03</pdfrwt>
<pdfrwt beam="2">  1       21 0.73068471E-02 0.51181973E+03</pdfrwt>
<totfact> 0.13515391E+04</totfact>
</mgrwt>
</event>
<event>
 5    0  0.2629946E-001  0.5170455E+03  0.7546771E-02  0.1009423E+00
         21   -1    0    0  504  501  0.00000000000E+00  0.00000000000E+00  0.11412139570E+03  0.11412139570E+03  0.00000000000E+00 0. -1.
         21   -1    0    0  501  502 -0.00000000000E+00 -0.00000000000E+00 -0.58563957634E+03  0.58563957634E+03  0.00000000000E+00 0. -1.
         25    1    1    2    0    0 -0.17532629619E+03  0.12686406430E+03 -0.31678344378E+03  0.40349789492E+03  0.12500000000E+03 0.  0.
         21    1    1    2  503  502  0.55854442514E+02 -0.11927939489E+03 -0.66485136377E+02  0.14753835485E+03  0.00000000000E+00 0. -1.
         21    1    1    2  504  503  0.11947185368E+03 -0.75846694052E+01 -0.88249600470E+02  0.14872472227E+03  0.00000000000E+00 0. -1.
<mgrwt>
<rscale>  4 0.51704548E+03</rscale>
<asrwt>0</asrwt>
<pdfrwt beam="1">  1       21 0.17557138E-01 0.51704548E+03</pdfrwt>
<pdfrwt beam="2">  1       21 0.90098396E-01 0.51704548E+03</pdfrwt>
<totfact> 0.27545669E+04</totfact>
</mgrwt>
</event>
<event>
 5    0  0.2629946E-001  0.6140481E+03  0.7546771E-02  0.9876682E-01
         21   -1    0    0  504  501  0.00000000000E+00  0.00000000000E+00  0.13964483320E+03  0.13964483320E+03  0.00000000000E+00 0.  1.
         21   -1    0    0  501  502 -0.00000000000E+00 -0.00000000000E+00 -0.67502510274E+03  0.67502510274E+03  0.00000000000E+00 0.  1.
         25    1    1    2    0    0  0.25295342194E+03 -0.11720699294E+03 -0.34828025524E+03  0.46330017166E+03  0.12500000000E+03 0.  0.
         21    1    1    2  503  502 -0.13139532746E+03  0.11559507993E+03 -0.97344001859E+02  0.20025685826E+03  0.00000000000E+00 0.  1.
         21    1    1    2  504  503 -0.12155809448E+03  0.16119130087E+01 -0.89756012435E+02  0.15111290602E+03  0.00000000000E+00 0.  1.
<mgrwt>
<rscale>  4 0.61404810E+03</rscale>
<asrwt>0</asrwt>
<pdfrwt beam="1">  1       21 0.21483820E-01 0.61404810E+03</pdfrwt>
<pdfrwt beam="2">  1       21 0.10385002E+00 0.61404810E+03</pdfrwt>
<totfact> 0.13013075E+04</totfact>
</mgrwt>
</event>
<event>
 5    0  0.2629946E-001  0.7035111E+03  0.7546771E-02  0.9711247E-01
         21   -1    0    0  502  501  0.00000000000E+00  0.00000000000E+00  0.33549754853E+03  0.33549754853E+03  0.00000000000E+00 0.  1.
         21   -1    0    0  504  502 -0.00000000000E+00 -0.00000000000E+00 -0.36880138180E+03  0.36880138180E+03  0.00000000000E+00 0.  1.
         25    1    1    2    0    0 -0.15348349667E+02  0.30298459177E+03 -0.83013467915E+02  0.33845453246E+03  0.12500000000E+03 0.  0.
         21    1    1    2  503  501 -0.54580739594E+02 -0.26724456203E+03  0.75788270327E+02  0.28309463963E+03  0.00000000000E+00 0.  1.
         21    1    1    2  504  503  0.69929089260E+02 -0.35740029746E+02 -0.26078635682E+02  0.82749758248E+02  0.00000000000E+00 0.  1.
<mgrwt>
<rscale>  4 0.70351108E+03</rscale>
<asrwt>0</asrwt>
<pdfrwt beam="1">  1       21 0.51615007E-01 0.70351108E+03</pdfrwt>
<pdfrwt beam="2">  1       21 0.56738674E-01 0.70351108E+03</pdfrwt>
<totfact> 0.87454042E+03</totfact>
</mgrwt>
</event>
<event>
 5    0  0.2629946E-001  0.6217287E+03  0.7546771E-02  0.9861324E-01
         21   -1    0    0  504  501  0.00000000000E+00  0.00000000000E+00  0.10856866825E+04  0.10856866825E+04  0.00000000000E+00 0. -1.
         21   -1    0    0  501  502 -0.00000000000E+00 -0.00000000000E+00 -0.89009701988E+02  0.89009701988E+02  0.00000000000E+00 0. -1.
         25    1    1    2    0    0 -0.17764116480E+03  0.19079448189E+03  0.27874385602E+03  0.40159937129E+03  0.12500000000E+03 0.  0.
         21    1    1    2  503  502  0.16171792015E+03 -0.20567787354E+03  0.62332122700E+03  0.67600697141E+03  0.00000000000E+00 0. -1.
         21    1    1    2  504  503  0.15923244653E+02  0.14883391649E+02  0.94611897495E+02  0.97090041791E+02  0.00000000000E+00 0. -1.
<mgrwt>
<rscale>  4 0.62172871E+03</rscale>
<asrwt>0</asrwt>
<pdfrwt beam="1">  1       21 0.16702871E+00 0.62172871E+03</pdfrwt>
<pdfrwt beam="2">  1       21 0.13693801E-01 0.62172871E+03</pdfrwt>
<totfact> 0.86625857E+03</totfact>
</mgrwt>
</event>
<event>
 5    0  0.2629946E-001  0.4942669E+03  0.7546771E-02  0.1015286E+00
         21   -1    0    0  504  501  0.00000000000E+00  0.00000000000E+00  0.11320309125E+03  0.11320309125E+03  0.00000000000E+00 0.  1.
         21   -1    0    0  501  502 -0.00000000000E+00 -0.00000000000E+00 -0.53951647251E+03  0.53951647251E+03  0.00000000000E+00 0.  1.
         25    1    1    2    0    0 -0.10384718111E+03 -0.17181816207E+03 -0.77883022731E+02  0.24899092970E+03  0.12500000000E+03 0.  0.
         21    1    1    2  503  502  0.10076739950E+03  0.14291826824E+03 -0.29737866994E+03  0.34498372938E+03  0.00000000000E+00 0.  1.
         21    1    1    2  504  503  0.30797816098E+01  0.28899893834E+02 -0.51051688587E+02  0.58744904681E+02  0.00000000000E+00 0.  1.
<mgrwt>
<rscale>  4 0.49426686E+03</rscale>
<asrwt>0</asrwt>
<pdfrwt beam="1">  1       21 0.17415860E-01 0.49426686E+03</pdfrwt>
<pdfrwt beam="2">  1       21 0.83002534E-01 0.49426686E+03</pdfrwt>
<totfact> 0.34096880E+04</totfact>
</mgrwt>
</event>
<event>
 5    0  0.2629946E-001  0.4486995E+03  0.7546771E-02  0.1028111E+00
         21   -1    0    0  504  501  0.00000000000E+00  0.00000000000E+00  0.19589185920E+03  0.19589185920E+03  0.00000000000E+00 0.  1.
         21   -1    0    0  501  502 -0.00000000000E+00 -0.00000000000E+00 -0.25694181585E+03  0.25694181585E+03  0.00000000000E+00 0.  1.
         25    1    1    2    0    0 -0.37296111160E+02  0.19723821539E+03 -0.50485560772E+02  0.24180096229E+03  0.12500000000E+03 0.  0.
         21    1    1    2  503  502  0.49828149145E+02 -0.10831101946E+03 -0.19408333409E+02  0.12079240369E+03  0.00000000000E+00 0.  1.
         21    1    1    2  504  503 -0.12532037985E+02 -0.88927195923E+02  0.88439375308E+01  0.90240309074E+02  0.00000000000E+00 0.  1.
<mgrwt>
<rscale>  4 0.44869950E+03</rscale>
<asrwt>0</asrwt>
<pdfrwt beam="1">  1       21 0.30137209E-01 0.44869950E+03</pdfrwt>
<pdfrwt beam="2">  1       21 0.39529510E-01 0.44869950E+03</pdfrwt>
<totfact> 0.60248080E+04</totfact>
</mgrwt>
</event>
<event>
 5    0  0.2629946E-001  0.5426183E+03  0.7546771E-02  0.1003217E+00
         21   -1    0    0  502  501  0.00000000000E+00  0.00000000000E+00  0.38670339129E+03  0.38670339129E+03  0.00000000000E+00 0. -1.
         21   -1    0    0  504  502 -0.00000000000E+00 -0.00000000000E+00 -0.19034912108E+03  0.19034912108E+03  0.00000000000E+00 0. -1.
         25    1    1    2    0    0  0.22739585347E+03 -0.58283965169E+02  0.17138666321E+03  0.31639260911E+03  0.12500000000E+03 0.  0.
         21    1    1    2  503  501 -0.18437146876E+03  0.32093728218E+02  0.63088350992E+02  0.19749173632E+03  0.00000000000E+00 0. -1.
         21    1    1    2  504  503 -0.43024384713E+02  0.26190236950E+02 -0.38120744001E+02  0.63168166940E+02  0.00000000000E+00 0. -1.
<mgrwt>
<rscale>  4 0.54261828E+03</rscale>
<asrwt>0</asrwt>
<pdfrwt beam="1">  1       21 0.59492830E-01 0.54261828E+03</pdfrwt>
<pdfrwt beam="2">  1       21 0.29284480E-01 0.54261828E+03</pdfrwt>
<totfact> 0.26260494E+04</totfact>
</mgrwt>
</event>
<event>
 5    0  0.2629946E-001  0.5054335E+03  0.7546771E-02  0.1012370E+00
         21   -1    0    0  504  501  0.00000000000E+00  0.00000000000E+00  0.61201739891E+02  0.61201739891E+02  0.00000000000E+00 0.  1.
         21   -1    0    0  501  502 -0.00000000000E+00 -0.00000000000E+00 -0.10435284004E+04  0.10435284004E+04  0.00000000000E+00 0.  1.
         25    1    1    2    0    0 -0.38257897462E+02  0.21511082806E+03 -0.32898921876E+03  0.41424055949E+03  0.12500000000E+03 0.  0.
         21    1    1    2  503  502 -0.35202887167E+01 -0.76840672229E+02 -0.27362810601E+03  0.28423444854E+03  0.00000000000E+00 0.  1.
         21    1    1    2  504  503  0.41778186179E+02 -0.13827015583E+03 -0.37970933576E+03  0.40625513227E+03  0.00000000000E+00 0.  1.
<mgrwt>
<rscale>  4 0.50543349E+03</rscale>
<asrwt>0</asrwt>
<pdfrwt beam="1">  1       21 0.94156534E-02 0.50543349E+03</pdfrwt>
<pdfrwt beam="2">  1       21 0.16054281E+00 0.50543349E+03</pdfrwt>
<totfact> 0.19754831E+04</totfact>
</mgrwt>
</event>
<event>
 5    0  0.2629946E-001  0.5534788E+03  0.7546771E-02  0.1000692E+00
         21   -1    0    0  504  501  0.00000000000E+00  0.00000000000E+00  0.99159749923E+03  0.99159749923E+03  0.00000000000E+00 0.  1.
         21   -1    0    0  501  502 -0.00000000000E+00 -0.00000000000E+00 -0.77233640206E+02  0.77233640206E+02  0.00000000000E+00 0.  1.
         25    1    1    2    0    0 -0.20143225789E+03  0.12783766298E+03  0.58978122967E+03  0.64837051249E+03  0.12500000000E+03 0.  0.
         21    1    1    2  503  502  0.81597536004E+02 -0.44962125222E+02  0.41308473862E+02  0.10191241632E+03  0.00000000000E+00 0. -1.
         21    1    1    2  504  503  0.11983472189E+03 -0.82875537754E+02  0.28327415549E+03  0.31854821063E+03  0.00000000000E+00 0.  1.
<mgrwt>
<rscale>  4 0.55347876E+03</rscale>
<asrwt>0</asrwt>
<pdfrwt beam="1">  1       21 0.15255345E+00 0.55347876E+03</pdfrwt>
<pdfrwt beam="2">  1       21 0.11882099E-01 0.55347876E+03</pdfrwt>
<totfact> 0.14752177E+04</totfact>
</mgrwt>
</event>
<event>
 5    0  0.2629946E-001  0.5632015E+03  0.7546771E-02  0.9984837E-01
         21   -1    0    0  502  501  0.00000000000E+00  0.00000000000E+00  0.69893038830E+03  0.69893038830E+03  0.00000000000E+00 0.  1.
         21   -1    0    0  504  502 -0.00000000000E+00 -0.00000000000E+00 -0.11345761136E+03  0.11345761136E+03  0.00000000000E+00 0.  1.
         25    1    1    2    0    0  0.25099130017E+03 -0.30503683684E+02  0.21508446782E+03  0.35470189706E+03  0.12500000000E+03 0.  0.
         21    1    1    2  503  501 -0.19796362014E+03  0.37398129897E+02  0.34254331612E+03  0.39739670159E+03  0.00000000000E+00 0. -1.
         21    1    1    2  504  503 -0.53027680033E+02 -0.68944462128E+01  0.27844993000E+02  0.60289401004E+02  0.00000000000E+00 0.  1.
<mgrwt>
<rscale>  4 0.56320146E+03</rscale>
<asrwt>0</asrwt>
<pdfrwt beam="1">  1       21 0.10752775E+00 0.56320146E+03</pdfrwt>
<pdfrwt beam="2">  1       21 0.17455018E-01 0.56320146E+03</pdfrwt>
<totfact> 0.17933474E+04</totfact>
</mgrwt>
</event>
<event>
 5    0  0.2629946E-001  0.9526947E+03  0.7546771E-02  0.9362006E-01
         21   -1    0    0  504  501  0.00000000000E+00  0.00000000000E+00  0.25757287414E+03  0.25757287414E+03  0.00000000000E+00 0. -1.
         21   -1    0    0  501  502 -0.00000000000E+00 -0.00000000000E+00 -0.88094213230E+03  0.88094213230E+03  0.00000000000E+00 0. -1.
         25    1    1    2    0    0 -0.45833465823E+03 -0.12418061761E+02 -0.24401270374E+03  0.53422099058E+03  0.12500000000E+03 0.  0.
         21    1    1    2  503  502  0.21350665455E+03 -0.17141284239E+02 -0.23740903002E+03  0.31975297137E+03  0.00000000000E+00 0. -1.
         21    1    1    2  504  503  0.24482800368E+03  0.29559346000E+02 -0.14194752440E+03  0.28454104450E+03  0.00000000000E+00 0. -1.
<mgrwt>
<rscale>  4 0.95269470E+03</rscale>
<asrwt>0</asrwt>
<pdfrwt beam="1">  1       21 0.39626596E-01 0.95269470E+03</pdfrwt>
<pdfrwt beam="2">  1       21 0.13552956E+00 0.95269470E+03</pdfrwt>
<totfact> 0.18044270E+03</totfact>
</mgrwt>
</event>
<event>
 5    0  0.2629946E-001  0.5672614E+03  0.7546771E-02  0.9975757E-01
         21   -1    0    0  502  501  0.00000000000E+00  0.00000000000E+00  0.12363248863E+03  0.12363248863E+03  0.00000000000E+00 0.  1.
         21   -1    0    0  504  502 -0.00000000000E+00 -0.00000000000E+00 -0.65068948474E+03  0.65068948474E+03  0.00000000000E+00 0.  1.
         25    1    1    2    0    0  0.21251954458E+03 -0.12927124382E+03 -0.39215576633E+03  0.48092281748E+03  0.12500000000E+03 0.  0.
         21    1    1    2  503  501 -0.88612268116E+01  0.32804175178E+02 -0.27751188672E+02  0.43872129222E+02  0.00000000000E+00 0. -1.
         21    1    1    2  504  503 -0.20365831776E+03  0.96467068643E+02 -0.10715004111E+03  0.24952702667E+03  0.00000000000E+00 0.  1.
<mgrwt>
<rscale>  4 0.56726135E+03</rscale>
<asrwt>0</asrwt>
<pdfrwt beam="1">  1       21 0.19020383E-01 0.56726135E+03</pdfrwt>
<pdfrwt beam="2">  1       21 0.10010607E+00 0.56726135E+03</pdfrwt>
<totfact> 0.18168941E+04</totfact>
</mgrwt>
</event>
<event>
 5    0  0.2629946E-001  0.5227114E+03  0.7546771E-02  0.1008015E+00
         21   -1    0    0  504  501  0.00000000000E+00  0.00000000000E+00  0.13136754087E+03  0.13136754087E+03  0.00000000000E+00 0. -1.
         21   -1    0    0  501  502 -0.00000000000E+00 -0.00000000000E+00 -0.51996705616E+03  0.51996705616E+03  0.00000000000E+00 0. -1.
         25    1    1    2    0    0 -0.21838681959E+03 -0.63596667783E+02 -0.31137857895E+03  0.40536274935E+03  0.12500000000E+03 0.  0.
         21    1    1    2  503  502  0.19054454220E+03  0.69864636699E+02 -0.78000533178E+02  0.21742210835E+03  0.00000000000E+00 0. -1.
         21    1    1    2  504  503  0.27842277397E+02 -0.62679689161E+01  0.77959684825E+00  0.28549739337E+02  0.00000000000E+00 0.  1.
<mgrwt>
<rscale>  4 0.52271137E+03</rscale>
<asrwt>0</asrwt>
<pdfrwt beam="1">  1       21 0.20210391E-01 0.52271137E+03</pdfrwt>
<pdfrwt beam="2">  1       21 0.79994933E-01 0.52271137E+03</pdfrwt>
<totfact> 0.27847402E+04</totfact>
</mgrwt>
</event>
<event>
 5    0  0.2629946E-001  0.5276237E+03  0.7546771E-02  0.1006810E+00
         21   -1    0    0  504  501  0.00000000000E+00  0.00000000000E+00  0.18721960280E+03  0.18721960280E+03  0.00000000000E+00 0.  1.
         21   -1    0    0  501  502 -0.00000000000E+00 -0.00000000000E+00 -0.37173829802E+03  0.37173829802E+03  0.00000000000E+00 0.  1.
         25    1    1    2    0    0  0.46302720473E+02  0.21306236966E+03  0.21806289622E+02  0.25226975553E+03  0.12500000000E+03 0.  0.
         21    1    1    2  503  502 -0.39161157565E+01 -0.25418936775E+02 -0.16085030827E+01  0.25769082086E+02  0.00000000000E+00 0.  1.
         21    1    1    2  504  503 -0.42386604716E+02 -0.18764343288E+03 -0.20471648177E+03  0.28091906320E+03  0.00000000000E+00 0.  1.
<mgrwt>
<rscale>  4 0.52762372E+03</rscale>
<asrwt>0</asrwt>
<pdfrwt beam="1">  1       21 0.28803016E-01 0.52762372E+03</pdfrwt>
<pdfrwt beam="2">  1       21 0.57190507E-01 0.52762372E+03</pdfrwt>
<totfact> 0.29680495E+04</totfact>
</mgrwt>
</event>
<event>
 5    0  0.2629946E-001  0.9853777E+03  0.7546771E-02  0.9324729E-01
         21   -1    0    0  502  501  0.00000000000E+00  0.00000000000E+00  0.58175621129E+03  0.58175621129E+03  0.00000000000E+00 0.  1.
         21   -1    0    0  504  502 -0.00000000000E+00 -0.00000000000E+00 -0.41725777728E+03  0.41725777728E+03  0.00000000000E+00 0.  1.
         25    1    1    2    0    0 -0.40433751988E+03  0.15755519436E+03  0.28416149364E+03  0.53355901616E+03  0.12500000000E+03 0.  0.
         21    1    1    2  503  501  0.23999569588E+02  0.17410989280E+02  0.12963288416E+01  0.29678314585E+02  0.00000000000E+00 0.  1.
         21    1    1    2  504  503  0.38033795029E+03 -0.17496618364E+03 -0.12095938848E+03  0.43577665783E+03  0.00000000000E+00 0.  1.
<mgrwt>
<rscale>  4 0.98537770E+03</rscale>
<asrwt>0</asrwt>
<pdfrwt beam="1">  1       21 0.89500956E-01 0.98537770E+03</pdfrwt>
<pdfrwt beam="2">  1       21 0.64193504E-01 0.98537770E+03</pdfrwt>
<totfact> 0.18095014E+03</totfact>
</mgrwt>
</event>
<event>
 5    0  0.2629946E-001  0.5094488E+03  0.7546771E-02  0.1011342E+00
         21   -1    0    0  502  501  0.00000000000E+00  0.00000000000E+00  0.70276393111E+03  0.70276393111E+03  0.00000000000E+00 0.  1.
         21   -1    0    0  504  502 -0.00000000000E+00 -0.00000000000E+00 -0.92327631776E+02  0.92327631776E+02  0.00000000000E+00 0.  1.
         25    1    1    2    0    0  0.26678096949E+02 -0.22201969756E+03  0.44444006901E+03  0.51298775999E+03  0.12500000000E+03 0.  0.
         21    1    1    2  503  501  0.96729424138E+01  0.24685227995E+02  0.28102507882E+02  0.38635181446E+02  0.00000000000E+00 0. -1.
         21    1    1    2  504  503 -0.36351039363E+02  0.19733446956E+03  0.13789372244E+03  0.24346862145E+03  0.00000000000E+00 0. -1.
<mgrwt>
<rscale>  4 0.50944884E+03</rscale>
<asrwt>0</asrwt>
<pdfrwt beam="1">  1       21 0.10811752E+00 0.50944884E+03</pdfrwt>
<pdfrwt beam="2">  1       21 0.14204251E-01 0.50944884E+03</pdfrwt>
<totfact> 0.26318555E+04</totfact>
</mgrwt>
</event>
<event>
 5    0  0.2629946E-001  0.4814539E+03  0.7546771E-02  0.1018736E+00
         21   -1    0    0  502  501  0.00000000000E+00  0.00000000000E+00  0.53344442932E+03  0.53344442932E+03  0.00000000000E+00 0.  1.
         21   -1    0    0  504  502 -0.00000000000E+00 -0.00000000000E+00 -0.10863262415E+03  0.10863262415E+03  0.00000000000E+00 0.  1.
         25    1    1    2    0    0  0.11993230668E+02  0.21346984173E+03  0.28838841708E+03  0.38013956650E+03  0.12500000000E+03 0.  0.
         21    1    1    2  503  501  0.21840881793E+02 -0.13705244336E+03  0.98371820401E+02  0.17010999793E+03  0.00000000000E+00 0.  1.
         21    1    1    2  504  503 -0.33834112461E+02 -0.76417398376E+02  0.38051567682E+02  0.91827489041E+02  0.00000000000E+00 0.  1.
<mgrwt>
<rscale>  4 0.48145392E+03</rscale>
<asrwt>0</asrwt>
<pdfrwt beam="1">  1       21 0.82068372E-01 0.48145392E+03</pdfrwt>
<pdfrwt beam="2">  1       21 0.16712712E-01 0.48145392E+03</pdfrwt>
<totfact> 0.37931914E+04</totfact>
</mgrwt>
</event>
<event>
 5    0  0.2629946E-001  0.5503048E+03  0.7546771E-02  0.1001423E+00
         21   -1    0    0  504  501  0.00000000000E+00  0.00000000000E+00  0.55808978623E+03  0.55808978623E+03  0.00000000000E+00 0.  1.
         21   -1    0    0  501  502 -0.00000000000E+00 -0.00000000000E+00 -0.13565709843E+03  0.13565709843E+03  0.00000000000E+00 0.  1.
         25    1    1    2    0    0  0.94070224927E+02  0.23461276868E+03  0.17850380880E+03  0.33373787348E+03  0.12500000000E+03 0.  0.
         21    1    1    2  503  502 -0.58200054001E+02 -0.17859054794E+03  0.13120824594E+03  0.22912318499E+03  0.00000000000E+00 0.  1.
         21    1    1    2  504  503 -0.35870170926E+02 -0.56022220738E+02  0.11272063306E+03  0.13088582619E+03  0.00000000000E+00 0.  1.
<mgrwt>
<rscale>  4 0.55030479E+03</rscale>
<asrwt>0</asrwt>
<pdfrwt beam="1">  1       21 0.85859966E-01 0.55030479E+03</pdfrwt>
<pdfrwt beam="2">  1       21 0.20870323E-01 0.55030479E+03</pdfrwt>
<totfact> 0.22064993E+04</totfact>
</mgrwt>
</event>
