<event>
 5    0  0.1531977E+001  0.2986275E+03  0.7546771E-02  0.1085929E+00
         21   -1    0    0  502  501  0.00000000000E+00  0.00000000000E+00  0.77061677005E+03  0.77061677005E+03  0.00000000000E+00 0.  1.
         21   -1    0    0  504  502 -0.00000000000E+00 -0.00000000000E+00 -0.30429436392E+04  0.30429436392E+04  0.00000000000E+00 0. -1.
         25    1    1    2    0    0 -0.22316884411E+03  0.29665536237E+01  0.26665440334E+03  0.36951685245E+03  0.12500000000E+03 0.  0.
         21    1    1    2  503  501 -0.17153668553E+02  0.12576968488E+03  0.43727532687E+03  0.45532622752E+03  0.00000000000E+00 0.  1.
         21    1    1    2  504  503  0.24032251267E+03 -0.12873623850E+03 -0.29762565993E+04  0.29887173293E+04  0.00000000000E+00 0. -1.
<mgrwt>
<rscale>  4 0.29862752E+03</rscale>
<asrwt>0</asrwt>
<pdfrwt beam="1">  1       21 0.11855643E+00 0.29862752E+03</pdfrwt>
<pdfrwt beam="2">  1       21 0.46814518E+00 0.29862752E+03</pdfrwt>
<totfact> 0.13984519E+00</totfact>
</mgrwt>
</event>
<event>
 5    0  0.1531977E+001  0.2206877E+03  0.7546771E-02  0.1133371E+00
         21   -1    0    0  502  501  0.00000000000E+00  0.00000000000E+00  0.46717655817E+02  0.46717655817E+02  0.00000000000E+00 0.  1.
         21   -1    0    0  504  502 -0.00000000000E+00 -0.00000000000E+00 -0.17891787044E+04  0.17891787044E+04  0.00000000000E+00 0.  1.
         25    1    1    2    0    0  0.12741643712E+03  0.20435229956E+03 -0.60037774459E+03  0.65884235367E+03  0.12500000000E+03 0.  0.
         21    1    1    2  503  501 -0.87391994606E+02 -0.11868245946E+03 -0.35599613882E+03  0.38530006197E+03  0.00000000000E+00 0.  1.
         21    1    1    2  504  503 -0.40024442512E+02 -0.85669840105E+02 -0.78608716516E+03  0.79175394456E+03  0.00000000000E+00 0.  1.
<mgrwt>
<rscale>  4 0.22068766E+03</rscale>
<asrwt>0</asrwt>
<pdfrwt beam="1">  1       21 0.71873311E-02 0.22068766E+03</pdfrwt>
<pdfrwt beam="2">  1       21 0.27525829E+00 0.22068766E+03</pdfrwt>
<totfact> 0.66583076E+03</totfact>
</mgrwt>
</event>
<event>
 5    0  0.1531977E+001  0.2297183E+03  0.7546771E-02  0.1126838E+00
         21   -1    0    0  502  501  0.00000000000E+00  0.00000000000E+00  0.35559234670E+03  0.35559234670E+03  0.00000000000E+00 0. -1.
         21   -1    0    0  504  502 -0.00000000000E+00 -0.00000000000E+00 -0.55291766733E+03  0.55291766733E+03  0.00000000000E+00 0. -1.
         25    1    1    2    0    0 -0.32818797696E+03  0.91677521912E+02 -0.15935348311E+03  0.39639708479E+03  0.12500000000E+03 0.  0.
         21    1    1    2  503  501  0.16760667743E+03 -0.44643631935E+02  0.17156291198E+03  0.24396492567E+03  0.00000000000E+00 0. -1.
         21    1    1    2  504  503  0.16058129954E+03 -0.47033889977E+02 -0.20953474951E+03  0.26814800357E+03  0.00000000000E+00 0. -1.
<mgrwt>
<rscale>  4 0.22971829E+03</rscale>
<asrwt>0</asrwt>
<pdfrwt beam="1">  1       21 0.54706515E-01 0.22971829E+03</pdfrwt>
<pdfrwt beam="2">  1       21 0.85064256E-01 0.22971829E+03</pdfrwt>
<totfact> 0.36663465E+03</totfact>
</mgrwt>
</event>
<event>
 5    0  0.1531977E+001  0.2496635E+03  0.7546771E-02  0.1113518E+00
         21   -1    0    0  502  501  0.00000000000E+00  0.00000000000E+00  0.12323589270E+03  0.12323589270E+03  0.00000000000E+00 0.  1.
         21   -1    0    0  504  502 -0.00000000000E+00 -0.00000000000E+00 -0.70515560527E+03  0.70515560527E+03  0.00000000000E+00 0. -1.
         25    1    1    2    0    0 -0.15255383503E+03  0.17775730132E+03 -0.38132502991E+03  0.46465482801E+03  0.12500000000E+03 0.  0.
         21    1    1    2  503  501  0.54622529615E+02 -0.19520867860E+03 -0.11881630968E+03  0.23496247442E+03  0.00000000000E+00 0.  1.
         21    1    1    2  504  503  0.97931305416E+02  0.17451377281E+02 -0.81778372972E+02  0.12877419553E+03  0.00000000000E+00 0.  1.
<mgrwt>
<rscale>  4 0.24966354E+03</rscale>
<asrwt>0</asrwt>
<pdfrwt beam="1">  1       21 0.18959368E-01 0.24966354E+03</pdfrwt>
<pdfrwt beam="2">  1       21 0.10848548E+00 0.24966354E+03</pdfrwt>
<totfact> 0.16652111E+04</totfact>
</mgrwt>
</event>
<event>
 5    0  0.1531977E+001  0.3835326E+03  0.7546771E-02  0.1049980E+00
         21   -1    0    0  503  501  0.00000000000E+00  0.00000000000E+00  0.11328904298E+03  0.11328904298E+03  0.00000000000E+00 0.  1.
         21   -1    0    0  504  502 -0.00000000000E+00 -0.00000000000E+00 -0.13388836519E+04  0.13388836519E+04  0.00000000000E+00 0.  1.
         25    1    1    2    0    0  0.31405290888E+03  0.17315067120E+03 -0.46528109472E+03  0.60060126674E+03  0.12500000000E+03 0.  0.
         21    1    1    2  503  502 -0.25686229836E+03 -0.13931865113E+03 -0.71135606379E+03  0.76903535443E+03  0.00000000000E+00 0.  1.
         21    1    1    2  504  501 -0.57190610521E+02 -0.33832020076E+02 -0.48957450448E+02  0.82536073741E+02  0.00000000000E+00 0.  1.
<mgrwt>
<rscale>  4 0.38259183E+03</rscale>
<asrwt>0</asrwt>
<pdfrwt beam="1">  1       21 0.17429085E-01 0.38353260E+03</pdfrwt>
<pdfrwt beam="2">  1       21 0.20598209E+00 0.38353260E+03</pdfrwt>
<totfact> 0.32133060E+03</totfact>
</mgrwt>
</event>
<event>
 5    0  0.1531977E+001  0.4085979E+03  0.7546771E-02  0.1040843E+00
         21   -1    0    0  504  501  0.00000000000E+00  0.00000000000E+00  0.13997884817E+03  0.13997884817E+03  0.00000000000E+00 0. -1.
         21   -1    0    0  501  502 -0.00000000000E+00 -0.00000000000E+00 -0.14040768568E+04  0.14040768568E+04  0.00000000000E+00 0. -1.
         25    1    1    2    0    0 -0.34050680104E+03  0.48830229528E+02 -0.64275321135E+03  0.73965259654E+03  0.12500000000E+03 0.  0.
         21    1    1    2  503  502 -0.80373457263E+02  0.19945467799E+02 -0.12590439101E+03  0.15069714660E+03  0.00000000000E+00 0. -1.
         21    1    1    2  504  503  0.42088025830E+03 -0.68775697327E+02 -0.49544040632E+03  0.65370596187E+03  0.00000000000E+00 0. -1.
<mgrwt>
<rscale>  4 0.40859793E+03</rscale>
<asrwt>0</asrwt>
<pdfrwt beam="1">  1       21 0.21535207E-01 0.40859793E+03</pdfrwt>
<pdfrwt beam="2">  1       21 0.21601183E+00 0.40859793E+03</pdfrwt>
<totfact> 0.18312427E+03</totfact>
</mgrwt>
</event>
<event>
 5    0  0.1531977E+001  0.1881939E+03  0.7546771E-02  0.1160100E+00
         21   -1    0    0  502  501  0.00000000000E+00  0.00000000000E+00  0.16717896453E+03  0.16717896453E+03  0.00000000000E+00 0. -1.
         21   -1    0    0  504  502 -0.00000000000E+00 -0.00000000000E+00 -0.11666684029E+04  0.11666684029E+04  0.00000000000E+00 0. -1.
         25    1    1    2    0    0  0.13737182433E+03  0.20637236318E+03 -0.14261019864E+03  0.31212696000E+03  0.12500000000E+03 0.  0.
         21    1    1    2  503  501 -0.77146271545E+02 -0.86213259754E+02  0.34138532189E+02  0.12062219013E+03  0.00000000000E+00 0. -1.
         21    1    1    2  504  503 -0.60225552782E+02 -0.12015910342E+03 -0.89101777187E+03  0.90109821725E+03  0.00000000000E+00 0. -1.
<mgrwt>
<rscale>  4 0.18819392E+03</rscale>
<asrwt>0</asrwt>
<pdfrwt beam="1">  1       21 0.25719840E-01 0.18819392E+03</pdfrwt>
<pdfrwt beam="2">  1       21 0.17948745E+00 0.18819392E+03</pdfrwt>
<totfact> 0.26431071E+03</totfact>
</mgrwt>
</event>
<event>
 5    0  0.1531977E+001  0.5151192E+03  0.7546771E-02  0.1009906E+00
         21   -1    0    0  502  501  0.00000000000E+00  0.00000000000E+00  0.40535139968E+03  0.40535139968E+03  0.00000000000E+00 0. -1.
         21   -1    0    0  504  502 -0.00000000000E+00 -0.00000000000E+00 -0.91604286332E+03  0.91604286332E+03  0.00000000000E+00 0.  1.
         25    1    1    2    0    0 -0.34181111002E+03 -0.36155754120E+03  0.71372279902E+02  0.51795530007E+03  0.12500000000E+03 0.  0.
         21    1    1    2  503  501 -0.23105592456E+02  0.18853575529E+02  0.67535663412E+01  0.30576729244E+02  0.00000000000E+00 0. -1.
         21    1    1    2  504  503  0.36491670248E+03  0.34270396568E+03 -0.58881730988E+03  0.77286223368E+03  0.00000000000E+00 0.  1.
<mgrwt>
<rscale>  4 0.51511915E+03</rscale>
<asrwt>0</asrwt>
<pdfrwt beam="1">  1       21 0.62361753E-01 0.51511915E+03</pdfrwt>
<pdfrwt beam="2">  1       21 0.14092967E+00 0.51511915E+03</pdfrwt>
<totfact> 0.68598387E+02</totfact>
</mgrwt>
</event>
<event>
 5    0  0.1531977E+001  0.2624413E+03  0.7546771E-02  0.1105685E+00
         21   -1    0    0  502  501  0.00000000000E+00  0.00000000000E+00  0.15022551194E+03  0.15022551194E+03  0.00000000000E+00 0. -1.
         21   -1    0    0  504  502 -0.00000000000E+00 -0.00000000000E+00 -0.13917858830E+04  0.13917858830E+04  0.00000000000E+00 0.  1.
         25    1    1    2    0    0  0.23824700872E+02 -0.20350663494E+03 -0.48871725272E+03  0.54447416830E+03  0.12500000000E+03 0.  0.
         21    1    1    2  503  501 -0.97002930675E+02  0.21782339632E+03  0.25628795520E+01  0.23845999433E+03  0.00000000000E+00 0. -1.
         21    1    1    2  504  503  0.73178229803E+02 -0.14316761379E+02 -0.75540599793E+03  0.75907723235E+03  0.00000000000E+00 0.  1.
<mgrwt>
<rscale>  4 0.26244131E+03</rscale>
<asrwt>0</asrwt>
<pdfrwt beam="1">  1       21 0.23111618E-01 0.26244131E+03</pdfrwt>
<pdfrwt beam="2">  1       21 0.21412090E+00 0.26244131E+03</pdfrwt>
<totfact> 0.18019413E+03</totfact>
</mgrwt>
</event>
<event>
 5    0  0.1531977E+001  0.3423189E+03  0.7546771E-02  0.1065813E+00
         21   -1    0    0  503  501  0.00000000000E+00  0.00000000000E+00  0.27785746707E+04  0.27785746707E+04  0.00000000000E+00 0. -1.
         21   -1    0    0  504  502 -0.00000000000E+00 -0.00000000000E+00 -0.10268354716E+03  0.10268354716E+03  0.00000000000E+00 0.  1.
         25    1    1    2    0    0  0.12729508241E+03 -0.32193503626E+03  0.61925738010E+03  0.72038247368E+03  0.12500000000E+03 0.  0.
         21    1    1    2  503  502  0.31968880555E+01  0.38038653877E+02 -0.31502266252E+02  0.49492949609E+02  0.00000000000E+00 0. -1.
         21    1    1    2  504  501 -0.13049197046E+03  0.28389638238E+03  0.20881360097E+04  0.21113827946E+04  0.00000000000E+00 0. -1.
<mgrwt>
<rscale>  4 0.34231892E+03</rscale>
<asrwt>0</asrwt>
<pdfrwt beam="1">  1       21 0.42747297E+00 0.34231892E+03</pdfrwt>
<pdfrwt beam="2">  1       21 0.15797471E-01 0.34231892E+03</pdfrwt>
<totfact> 0.17187380E+02</totfact>
</mgrwt>
</event>
<event>
 5    0  0.1531977E+001  0.2534293E+03  0.7546771E-02  0.1111157E+00
         21   -1    0    0  503  501  0.00000000000E+00  0.00000000000E+00  0.52119482364E+03  0.52119482364E+03  0.00000000000E+00 0. -1.
         21   -1    0    0  504  502 -0.00000000000E+00 -0.00000000000E+00 -0.36689537684E+03  0.36689537684E+03  0.00000000000E+00 0. -1.
         25    1    1    2    0    0  0.18881158514E+03  0.95388974923E+02  0.36469854389E+03  0.43974867724E+03  0.12500000000E+03 0.  0.
         21    1    1    2  503  502 -0.16431969132E+03 -0.14925889975E+03 -0.27978137254E+03  0.35715094362E+03  0.00000000000E+00 0. -1.
         21    1    1    2  504  501 -0.24491893819E+02  0.53869924825E+02  0.69382275458E+02  0.91190579618E+02  0.00000000000E+00 0.  1.
<mgrwt>
<rscale>  4 0.25342930E+03</rscale>
<asrwt>0</asrwt>
<pdfrwt beam="1">  1       21 0.80183819E-01 0.25342930E+03</pdfrwt>
<pdfrwt beam="2">  1       21 0.56445443E-01 0.25342930E+03</pdfrwt>
<totfact> 0.38646229E+03</totfact>
</mgrwt>
</event>
<event>
 5    0  0.1531977E+001  0.2798919E+03  0.7546771E-02  0.1095748E+00
         21   -1    0    0  502  501  0.00000000000E+00  0.00000000000E+00  0.62261331745E+03  0.62261331745E+03  0.00000000000E+00 0. -1.
         21   -1    0    0  504  502 -0.00000000000E+00 -0.00000000000E+00 -0.16693523515E+03  0.16693523515E+03  0.00000000000E+00 0. -1.
         25    1    1    2    0    0 -0.22295462956E+03 -0.13944995097E+03  0.94893724455E+02  0.30624316255E+03  0.12500000000E+03 0.  0.
         21    1    1    2  503  501  0.18530094256E+03  0.16304737772E+03  0.36282705670E+03  0.43882155801E+03  0.00000000000E+00 0. -1.
         21    1    1    2  504  503  0.37653687002E+02 -0.23597426754E+02 -0.20426988591E+01  0.44483832039E+02  0.00000000000E+00 0. -1.
<mgrwt>
<rscale>  4 0.27989190E+03</rscale>
<asrwt>0</asrwt>
<pdfrwt beam="1">  1       21 0.95786663E-01 0.27989190E+03</pdfrwt>
<pdfrwt beam="2">  1       21 0.25682344E-01 0.27989190E+03</pdfrwt>
<totfact> 0.12431951E+04</totfact>
</mgrwt>
</event>
<event>
 5    0  0.1531977E+001  0.3564077E+03  0.7546771E-02  0.1060015E+00
         21   -1    0    0  502  501  0.00000000000E+00  0.00000000000E+00  0.24559721292E+03  0.24559721292E+03  0.00000000000E+00 0.  1.
         21   -1    0    0  504  502 -0.00000000000E+00 -0.00000000000E+00 -0.80474783618E+03  0.80474783618E+03  0.00000000000E+00 0.  1.
         25    1    1    2    0    0  0.27055050049E+03  0.10661578420E+03  0.64950592610E+01  0.31659387952E+03  0.12500000000E+03 0.  0.
         21    1    1    2  503  501  0.55717387983E+02  0.10133614087E+02  0.14077503943E+02  0.58354893329E+02  0.00000000000E+00 0. -1.
         21    1    1    2  504  503 -0.32626788847E+03 -0.11674939828E+03 -0.57972318647E+03  0.67539627625E+03  0.00000000000E+00 0.  1.
<mgrwt>
<rscale>  4 0.35640774E+03</rscale>
<asrwt>0</asrwt>
<pdfrwt beam="1">  1       21 0.37784187E-01 0.35640774E+03</pdfrwt>
<pdfrwt beam="2">  1       21 0.12380736E+00 0.35640774E+03</pdfrwt>
<totfact> 0.29719444E+03</totfact>
</mgrwt>
</event>
<event>
 5    0  0.1531977E+001  0.3850360E+03  0.7546771E-02  0.1049088E+00
         21   -1    0    0  502  501  0.00000000000E+00  0.00000000000E+00  0.30729971151E+03  0.30729971151E+03  0.00000000000E+00 0. -1.
         21   -1    0    0  504  502 -0.00000000000E+00 -0.00000000000E+00 -0.70528983774E+03  0.70528983774E+03  0.00000000000E+00 0.  1.
         25    1    1    2    0    0  0.33210695382E+03  0.95825869142E+02 -0.37692987343E+03  0.52647768752E+03  0.12500000000E+03 0.  0.
         21    1    1    2  503  501 -0.35536530213E+03 -0.10397727229E+03  0.82764734731E+02  0.37940186138E+03  0.00000000000E+00 0. -1.
         21    1    1    2  504  503  0.23258348303E+02  0.81514031454E+01 -0.10382498753E+03  0.10671000034E+03  0.00000000000E+00 0. -1.
<mgrwt>
<rscale>  4 0.38503603E+03</rscale>
<asrwt>0</asrwt>
<pdfrwt beam="1">  1       21 0.47276879E-01 0.38503603E+03</pdfrwt>
<pdfrwt beam="2">  1       21 0.10850613E+00 0.38503603E+03</pdfrwt>
<totfact> 0.25669224E+03</totfact>
</mgrwt>
</event>
<event>
 5    0  0.1531977E+001  0.5719900E+03  0.7546771E-02  0.9965285E-01
         21   -1    0    0  503  501  0.00000000000E+00  0.00000000000E+00  0.11610109224E+04  0.11610109224E+04  0.00000000000E+00 0.  1.
         21   -1    0    0  504  502 -0.00000000000E+00 -0.00000000000E+00 -0.20488293436E+04  0.20488293436E+04  0.00000000000E+00 0. -1.
         25    1    1    2    0    0 -0.19106557338E+03  0.56974393364E+03  0.79737323664E+03  0.10062520965E+04  0.12500000000E+03 0.  0.
         21    1    1    2  503  502  0.20072090026E+03 -0.51882741824E+03 -0.19014758977E+04  0.19811818088E+04  0.00000000000E+00 0. -1.
         21    1    1    2  504  501 -0.96553268869E+01 -0.50916515402E+02  0.21628423988E+03  0.22240636074E+03  0.00000000000E+00 0. -1.
<mgrwt>
<rscale>  4 0.57199000E+03</rscale>
<asrwt>0</asrwt>
<pdfrwt beam="1">  1       21 0.17861707E+00 0.57199000E+03</pdfrwt>
<pdfrwt beam="2">  1       21 0.31520451E+00 0.57199000E+03</pdfrwt>
<totfact> 0.33574923E+00</totfact>
</mgrwt>
</event>
<event>
 5    0  0.1531977E+001  0.1944818E+03  0.7546771E-02  0.1154480E+00
         21   -1    0    0  502  501  0.00000000000E+00  0.00000000000E+00  0.23831328439E+03  0.23831328439E+03  0.00000000000E+00 0. -1.
         21   -1    0    0  504  502 -0.00000000000E+00 -0.00000000000E+00 -0.78205672817E+03  0.78205672817E+03  0.00000000000E+00 0. -1.
         25    1    1    2    0    0  0.15686192072E+03 -0.12972988948E+03 -0.19171818910E+03  0.30629458112E+03  0.12500000000E+03 0.  0.
         21    1    1    2  503  501 -0.10653585525E+03  0.95047104898E+02  0.15073299479E+03  0.20761569382E+03  0.00000000000E+00 0. -1.
         21    1    1    2  504  503 -0.50326065471E+02  0.34682784578E+02 -0.50275824947E+03  0.50645973762E+03  0.00000000000E+00 0. -1.
<mgrwt>
<rscale>  4 0.19448182E+03</rscale>
<asrwt>0</asrwt>
<pdfrwt beam="1">  1       21 0.36663582E-01 0.19448182E+03</pdfrwt>
<pdfrwt beam="2">  1       21 0.12031642E+00 0.19448182E+03</pdfrwt>
<totfact> 0.37585501E+03</totfact>
</mgrwt>
</event>
<event>
 5    0  0.1531977E+001  0.2749867E+03  0.7546771E-02  0.1098459E+00
         21   -1    0    0  503  501  0.00000000000E+00  0.00000000000E+00  0.31277543692E+03  0.31277543692E+03  0.00000000000E+00 0. -1.
         21   -1    0    0  504  502 -0.00000000000E+00 -0.00000000000E+00 -0.41215609072E+03  0.41215609072E+03  0.00000000000E+00 0. -1.
         25    1    1    2    0    0 -0.11261708030E+03  0.17554492129E+03 -0.21734339891E+03  0.32613153668E+03  0.12500000000E+03 0.  0.
         21    1    1    2  503  502  0.37514562247E+02  0.68987928186E+02 -0.49709629746E+02  0.92939356064E+02  0.00000000000E+00 0. -1.
         21    1    1    2  504  501  0.75102518050E+02 -0.24453284948E+03  0.16767237485E+03  0.30586063490E+03  0.00000000000E+00 0. -1.
<mgrwt>
<rscale>  4 0.27498668E+03</rscale>
<asrwt>0</asrwt>
<pdfrwt beam="1">  1       21 0.48119298E-01 0.27498668E+03</pdfrwt>
<pdfrwt beam="2">  1       21 0.63408629E-01 0.27498668E+03</pdfrwt>
<totfact> 0.90322174E+03</totfact>
</mgrwt>
</event>
<event>
 5    0  0.1531977E+001  0.3228724E+03  0.7546771E-02  0.1074335E+00
         21   -1    0    0  504  501  0.00000000000E+00  0.00000000000E+00  0.30258095725E+03  0.30258095725E+03  0.00000000000E+00 0.  1.
         21   -1    0    0  503  502 -0.00000000000E+00 -0.00000000000E+00 -0.44721319162E+03  0.44721319162E+03  0.00000000000E+00 0.  1.
         25    1    1    2    0    0 -0.10598701043E+03 -0.22103454199E+03  0.63599100482E+02  0.28241699792E+03  0.12500000000E+03 0.  0.
         21    1    1    2  503  501  0.17199561660E+03  0.27766008165E+03 -0.19211636257E+03  0.37892784252E+03  0.00000000000E+00 0.  1.
         21    1    1    2  504  502 -0.66008606167E+02 -0.56625539659E+02 -0.16114972284E+02  0.88449308429E+02  0.00000000000E+00 0.  1.
<mgrwt>
<rscale>  4 0.32287235E+03</rscale>
<asrwt>0</asrwt>
<pdfrwt beam="1">  1       21 0.46550917E-01 0.32287235E+03</pdfrwt>
<pdfrwt beam="2">  1       21 0.68802029E-01 0.32287235E+03</pdfrwt>
<totfact> 0.79051406E+03</totfact>
</mgrwt>
</event>
<event>
 5    0  0.1531977E+001  0.3091775E+03  0.7546771E-02  0.1080741E+00
         21   -1    0    0  503  501  0.00000000000E+00  0.00000000000E+00  0.15448272771E+04  0.15448272771E+04  0.00000000000E+00 0. -1.
         21   -1    0    0  504  502 -0.00000000000E+00 -0.00000000000E+00 -0.96833066403E+02  0.96833066403E+02  0.00000000000E+00 0. -1.
         25    1    1    2    0    0  0.30096968313E+03  0.94650100006E+01  0.82004511276E+03  0.88248021141E+03  0.12500000000E+03 0.  0.
         21    1    1    2  503  502 -0.33683056855E+02 -0.29149761856E+02 -0.26602690448E+02  0.51884102329E+02  0.00000000000E+00 0.  1.
         21    1    1    2  504  501 -0.26728662627E+03  0.19684751856E+02  0.65455178841E+03  0.70729602978E+03  0.00000000000E+00 0. -1.
<mgrwt>
<rscale>  4 0.30917753E+03</rscale>
<asrwt>0</asrwt>
<pdfrwt beam="1">  1       21 0.23766572E+00 0.30917753E+03</pdfrwt>
<pdfrwt beam="2">  1       21 0.14897396E-01 0.30917753E+03</pdfrwt>
<totfact> 0.28314753E+03</totfact>
</mgrwt>
</event>
<event>
 5    0  0.1531977E+001  0.4307827E+03  0.7546771E-02  0.1033613E+00
         21   -1    0    0  503  501  0.00000000000E+00  0.00000000000E+00  0.44792394696E+03  0.44792394696E+03  0.00000000000E+00 0.  1.
         21   -1    0    0  504  502 -0.00000000000E+00 -0.00000000000E+00 -0.52864470299E+03  0.52864470299E+03  0.00000000000E+00 0.  1.
         25    1    1    2    0    0  0.69809455674E+02 -0.41286623374E+03 -0.97935822040E+02  0.44782620770E+03  0.12500000000E+03 0.  0.
         21    1    1    2  503  502  0.37663345397E+02  0.17953622144E+02 -0.95511050003E+02  0.10422677587E+03  0.00000000000E+00 0.  1.
         21    1    1    2  504  501 -0.10747280107E+03  0.39491261160E+03  0.11272611601E+03  0.42451566638E+03  0.00000000000E+00 0.  1.
<mgrwt>
<rscale>  4 0.43078274E+03</rscale>
<asrwt>0</asrwt>
<pdfrwt beam="1">  1       21 0.68911377E-01 0.43078274E+03</pdfrwt>
<pdfrwt beam="2">  1       21 0.81329954E-01 0.43078274E+03</pdfrwt>
<totfact> 0.22145636E+03</totfact>
</mgrwt>
</event>
<event>
 5    0  0.1531977E+001  0.2963535E+03  0.7546771E-02  0.1087078E+00
         21   -1    0    0  502  501  0.00000000000E+00  0.00000000000E+00  0.46431415472E+03  0.46431415472E+03  0.00000000000E+00 0.  1.
         21   -1    0    0  504  502 -0.00000000000E+00 -0.00000000000E+00 -0.60714065719E+03  0.60714065719E+03  0.00000000000E+00 0.  1.
         25    1    1    2    0    0 -0.23559198163E+03  0.61083277636E+02 -0.43712490726E+03  0.51569170360E+03  0.12500000000E+03 0.  0.
         21    1    1    2  503  501  0.23520510123E+03 -0.13639031956E+03  0.36319810212E+03  0.45369220877E+03  0.00000000000E+00 0.  1.
         21    1    1    2  504  503  0.38688039566E+00  0.75307041929E+02 -0.68899697331E+02  0.10207089954E+03  0.00000000000E+00 0.  1.
<mgrwt>
<rscale>  4 0.29635355E+03</rscale>
<asrwt>0</asrwt>
<pdfrwt beam="1">  1       21 0.71432947E-01 0.29635355E+03</pdfrwt>
<pdfrwt beam="2">  1       21 0.93406255E-01 0.29635355E+03</pdfrwt>
<totfact> 0.15776238E+03</totfact>
</mgrwt>
</event>
<event>
 5    0  0.1531977E+001  0.4296286E+03  0.7546771E-02  0.1033977E+00
         21   -1    0    0  504  501  0.00000000000E+00  0.00000000000E+00  0.71051360920E+03  0.71051360920E+03  0.00000000000E+00 0.  1.
         21   -1    0    0  503  502 -0.00000000000E+00 -0.00000000000E+00 -0.92816716710E+03  0.92816716710E+03  0.00000000000E+00 0.  1.
         25    1    1    2    0    0 -0.19549190729E+03  0.34102117753E+03  0.33338955594E+03  0.53036414411E+03  0.12500000000E+03 0.  0.
         21    1    1    2  503  501  0.21317099631E+03 -0.35395828204E+03 -0.77767488988E+03  0.88062851047E+03  0.00000000000E+00 0.  1.
         21    1    1    2  504  502 -0.17679089023E+02  0.12937104510E+02  0.22663177605E+03  0.22768812173E+03  0.00000000000E+00 0.  1.
<mgrwt>
<rscale>  4 0.42962856E+03</rscale>
<asrwt>0</asrwt>
<pdfrwt beam="1">  1       21 0.10930979E+00 0.42962856E+03</pdfrwt>
<pdfrwt beam="2">  1       21 0.14279495E+00 0.42962856E+03</pdfrwt>
<totfact> 0.18575901E+02</totfact>
</mgrwt>
</event>
<event>
 5    0  0.1531977E+001  0.2093877E+03  0.7546771E-02  0.1142052E+00
         21   -1    0    0  504  501  0.00000000000E+00  0.00000000000E+00  0.12401679175E+03  0.12401679175E+03  0.00000000000E+00 0.  1.
         21   -1    0    0  503  502 -0.00000000000E+00 -0.00000000000E+00 -0.84431860833E+03  0.84431860833E+03  0.00000000000E+00 0.  1.
         25    1    1    2    0    0  0.22637483026E+03  0.75117318725E+02 -0.30298223790E+03  0.40535344063E+03  0.12500000000E+03 0.  0.
         21    1    1    2  503  501 -0.15039964885E+03 -0.17486348876E+02 -0.43969237849E+03  0.46503248755E+03  0.00000000000E+00 0.  1.
         21    1    1    2  504  502 -0.75975181401E+02 -0.57630969849E+02  0.22372799815E+02  0.97949471904E+02  0.00000000000E+00 0.  1.
<mgrwt>
<rscale>  4 0.20938775E+03</rscale>
<asrwt>0</asrwt>
<pdfrwt beam="1">  1       21 0.19079507E-01 0.20938775E+03</pdfrwt>
<pdfrwt beam="2">  1       21 0.12989517E+00 0.20938775E+03</pdfrwt>
<totfact> 0.10786135E+04</totfact>
</mgrwt>
</event>
<event>
 5    0  0.1531977E+001  0.2853037E+03  0.7546771E-02  0.1092827E+00
         21   -1    0    0  502  501  0.00000000000E+00  0.00000000000E+00  0.98723969328E+03  0.98723969328E+03  0.00000000000E+00 0. -1.
         21   -1    0    0  504  502 -0.00000000000E+00 -0.00000000000E+00 -0.63383903462E+03  0.63383903462E+03  0.00000000000E+00 0.  1.
         25    1    1    2    0    0 -0.24875748842E+01 -0.27380720069E+03 -0.54880546150E+03  0.62593051192E+03  0.12500000000E+03 0.  0.
         21    1    1    2  503  501  0.30373075138E+02  0.99235253788E+02  0.76329189456E+03  0.77031466011E+03  0.00000000000E+00 0. -1.
         21    1    1    2  504  503 -0.27885500254E+02  0.17457194690E+03  0.13891422560E+03  0.22483355587E+03  0.00000000000E+00 0.  1.
<mgrwt>
<rscale>  4 0.28530367E+03</rscale>
<asrwt>0</asrwt>
<pdfrwt beam="1">  1       21 0.15188303E+00 0.28530367E+03</pdfrwt>
<pdfrwt beam="2">  1       21 0.97513698E-01 0.28530367E+03</pdfrwt>
<totfact> 0.22903246E+02</totfact>
</mgrwt>
</event>
<event>
 5    0  0.1531977E+001  0.2484465E+03  0.7546771E-02  0.1114291E+00
         21   -1    0    0  503  501  0.00000000000E+00  0.00000000000E+00  0.40073144902E+03  0.40073144902E+03  0.00000000000E+00 0.  1.
         21   -1    0    0  504  502 -0.00000000000E+00 -0.00000000000E+00 -0.15117147558E+03  0.15117147558E+03  0.00000000000E+00 0.  1.
         25    1    1    2    0    0  0.65940686047E+02 -0.20433429237E+03  0.21321941600E+03  0.32739608500E+03  0.12500000000E+03 0.  0.
         21    1    1    2  503  502 -0.75052270453E+02  0.18504637226E+03  0.28172839496E+02  0.20166485086E+03  0.00000000000E+00 0.  1.
         21    1    1    2  504  501  0.91115844065E+01  0.19287920115E+02  0.81677179417E+01  0.22841988730E+02  0.00000000000E+00 0.  1.
<mgrwt>
<rscale>  4 0.24844653E+03</rscale>
<asrwt>0</asrwt>
<pdfrwt beam="1">  1       21 0.61650992E-01 0.24844653E+03</pdfrwt>
<pdfrwt beam="2">  1       21 0.23257150E-01 0.24844653E+03</pdfrwt>
<totfact> 0.41377513E+04</totfact>
</mgrwt>
</event>
<event>
 5    0  0.1531977E+001  0.2957349E+03  0.7546771E-02  0.1087392E+00
         21   -1    0    0  504  501  0.00000000000E+00  0.00000000000E+00  0.57566732473E+03  0.57566732473E+03  0.00000000000E+00 0. -1.
         21   -1    0    0  503  502 -0.00000000000E+00 -0.00000000000E+00 -0.37484626830E+03  0.37484626830E+03  0.00000000000E+00 0. -1.
         25    1    1    2    0    0 -0.10381249479E+03 -0.27785771821E+03  0.37461861267E+03  0.49390894971E+03  0.12500000000E+03 0.  0.
         21    1    1    2  503  501  0.81522906058E+02  0.25147619697E+03 -0.25565612864E+03  0.36775850495E+03  0.00000000000E+00 0. -1.
         21    1    1    2  504  502  0.22289588733E+02  0.26381521241E+02  0.81858572399E+02  0.88846138374E+02  0.00000000000E+00 0. -1.
<mgrwt>
<rscale>  4 0.29573490E+03</rscale>
<asrwt>0</asrwt>
<pdfrwt beam="1">  1       21 0.88564203E-01 0.29573490E+03</pdfrwt>
<pdfrwt beam="2">  1       21 0.57668657E-01 0.29573490E+03</pdfrwt>
<totfact> 0.28613794E+03</totfact>
</mgrwt>
</event>
<event>
 5    0  0.1531977E+001  0.4520990E+03  0.7546771E-02  0.1027098E+00
         21   -1    0    0  502  501  0.00000000000E+00  0.00000000000E+00  0.12019943770E+04  0.12019943770E+04  0.00000000000E+00 0.  1.
         21   -1    0    0  504  502 -0.00000000000E+00 -0.00000000000E+00 -0.37269001426E+03  0.37269001426E+03  0.00000000000E+00 0. -1.
         25    1    1    2    0    0  0.94696001595E+02  0.47006106986E+03 -0.31617861277E+02  0.49653744196E+03  0.12500000000E+03 0.  0.
         21    1    1    2  503  501 -0.71504457376E+02 -0.42037257263E+03  0.90974969516E+03  0.10047240890E+04  0.00000000000E+00 0.  1.
         21    1    1    2  504  503 -0.23191544219E+02 -0.49688497228E+02 -0.48827471108E+02  0.73422860301E+02  0.00000000000E+00 0. -1.
<mgrwt>
<rscale>  4 0.45209903E+03</rscale>
<asrwt>0</asrwt>
<pdfrwt beam="1">  1       21 0.18492221E+00 0.45209903E+03</pdfrwt>
<pdfrwt beam="2">  1       21 0.57336926E-01 0.45209903E+03</pdfrwt>
<totfact> 0.39562563E+02</totfact>
</mgrwt>
</event>
<event>
 5    0  0.1531977E+001  0.2110718E+03  0.7546771E-02  0.1140720E+00
         21   -1    0    0  502  501  0.00000000000E+00  0.00000000000E+00  0.42964481306E+02  0.42964481306E+02  0.00000000000E+00 0.  1.
         21   -1    0    0  504  502 -0.00000000000E+00 -0.00000000000E+00 -0.23690728266E+04  0.23690728266E+04  0.00000000000E+00 0.  1.
         25    1    1    2    0    0  0.57204210181E+02 -0.20228345129E+03 -0.64149838148E+03  0.68653921212E+03  0.12500000000E+03 0.  0.
         21    1    1    2  503  501 -0.10391043291E+03  0.11713460871E+03 -0.30847376470E+03  0.34593924052E+03  0.00000000000E+00 0.  1.
         21    1    1    2  504  503  0.46706222731E+02  0.85148842584E+02 -0.13761361992E+04  0.13795588553E+04  0.00000000000E+00 0.  1.
<mgrwt>
<rscale>  4 0.21107183E+03</rscale>
<asrwt>0</asrwt>
<pdfrwt beam="1">  1       21 0.66099187E-02 0.21107183E+03</pdfrwt>
<pdfrwt beam="2">  1       21 0.36447283E+00 0.21107183E+03</pdfrwt>
<totfact> 0.23377270E+03</totfact>
</mgrwt>
</event>
<event>
 5    0  0.1531977E+001  0.2034348E+03  0.7546771E-02  0.1146873E+00
         21   -1    0    0  502  501  0.00000000000E+00  0.00000000000E+00  0.35553194894E+03  0.35553194894E+03  0.00000000000E+00 0. -1.
         21   -1    0    0  504  502 -0.00000000000E+00 -0.00000000000E+00 -0.16214517123E+03  0.16214517123E+03  0.00000000000E+00 0. -1.
         25    1    1    2    0    0 -0.13968739692E+03  0.15406626608E+03  0.14807268392E+03  0.28425253372E+03  0.12500000000E+03 0.  0.
         21    1    1    2  503  501  0.41054097471E+02 -0.46352240703E+02  0.60521496850E+02  0.86584182841E+02  0.00000000000E+00 0. -1.
         21    1    1    2  504  503  0.98633299451E+02 -0.10771402538E+03 -0.15207403068E+02  0.14684040361E+03  0.00000000000E+00 0. -1.
<mgrwt>
<rscale>  4 0.20343482E+03</rscale>
<asrwt>0</asrwt>
<pdfrwt beam="1">  1       21 0.54697223E-01 0.20343482E+03</pdfrwt>
<pdfrwt beam="2">  1       21 0.24945411E-01 0.20343482E+03</pdfrwt>
<totfact> 0.47744453E+04</totfact>
</mgrwt>
</event>
<event>
 5    0  0.1531977E+001  0.3244085E+03  0.7546771E-02  0.1073638E+00
         21   -1    0    0  502  501  0.00000000000E+00  0.00000000000E+00  0.56419247824E+03  0.56419247824E+03  0.00000000000E+00 0. -1.
         21   -1    0    0  504  502 -0.00000000000E+00 -0.00000000000E+00 -0.89687729210E+03  0.89687729210E+03  0.00000000000E+00 0. -1.
         25    1    1    2    0    0 -0.22931977797E+03  0.14809242747E+03  0.43959529914E+03  0.53234195276E+03  0.12500000000E+03 0.  0.
         21    1    1    2  503  501  0.33881825140E+02  0.81503080056E+02  0.11445498279E+02  0.89004098581E+02  0.00000000000E+00 0.  1.
         21    1    1    2  504  503  0.19543795283E+03 -0.22959550752E+03 -0.78372561127E+03  0.83972371900E+03  0.00000000000E+00 0. -1.
<mgrwt>
<rscale>  4 0.32440849E+03</rscale>
<asrwt>0</asrwt>
<pdfrwt beam="1">  1       21 0.86798843E-01 0.32440849E+03</pdfrwt>
<pdfrwt beam="2">  1       21 0.13798112E+00 0.32440849E+03</pdfrwt>
<totfact> 0.37733856E+02</totfact>
</mgrwt>
</event>
<event>
 5    0  0.1531977E+001  0.3724258E+03  0.7546771E-02  0.1053769E+00
         21   -1    0    0  502  501  0.00000000000E+00  0.00000000000E+00  0.40562295294E+03  0.40562295294E+03  0.00000000000E+00 0. -1.
         21   -1    0    0  504  502 -0.00000000000E+00 -0.00000000000E+00 -0.41176360309E+03  0.41176360309E+03  0.00000000000E+00 0. -1.
         25    1    1    2    0    0  0.33195776684E+03  0.84874861836E+02 -0.20412492916E+02  0.36529627839E+03  0.12500000000E+03 0.  0.
         21    1    1    2  503  501  0.11135566892E+02  0.17091449803E+02  0.84854839275E+02  0.87272345304E+02  0.00000000000E+00 0.  1.
         21    1    1    2  504  503 -0.34309333373E+03 -0.10196631164E+03 -0.70582996517E+02  0.36481793234E+03  0.00000000000E+00 0. -1.
<mgrwt>
<rscale>  4 0.37242576E+03</rscale>
<asrwt>0</asrwt>
<pdfrwt beam="1">  1       21 0.62403531E-01 0.37242576E+03</pdfrwt>
<pdfrwt beam="2">  1       21 0.63348247E-01 0.37242576E+03</pdfrwt>
<totfact> 0.49644718E+03</totfact>
</mgrwt>
</event>
<event>
 5    0  0.1531977E+001  0.2988197E+03  0.7546771E-02  0.1085832E+00
         21   -1    0    0  502  501  0.00000000000E+00  0.00000000000E+00  0.37250629074E+03  0.37250629074E+03  0.00000000000E+00 0. -1.
         21   -1    0    0  504  502 -0.00000000000E+00 -0.00000000000E+00 -0.50768740000E+03  0.50768740000E+03  0.00000000000E+00 0.  1.
         25    1    1    2    0    0  0.24902772834E+03  0.94487907163E+02  0.19470109094E+03  0.35281197386E+03  0.12500000000E+03 0.  0.
         21    1    1    2  503  501 -0.12576051551E+02  0.41378899656E+02  0.45906072749E+02  0.63069310481E+02  0.00000000000E+00 0.  1.
         21    1    1    2  504  503 -0.23645167679E+03 -0.13586680682E+03 -0.37578827295E+03  0.46431240641E+03  0.00000000000E+00 0.  1.
<mgrwt>
<rscale>  4 0.29881969E+03</rscale>
<asrwt>0</asrwt>
<pdfrwt beam="1">  1       21 0.57308660E-01 0.29881969E+03</pdfrwt>
<pdfrwt beam="2">  1       21 0.78105754E-01 0.29881969E+03</pdfrwt>
<totfact> 0.38680827E+03</totfact>
</mgrwt>
</event>
<event>
 5    0  0.1531977E+001  0.4290097E+03  0.7546771E-02  0.1034173E+00
         21   -1    0    0  502  501  0.00000000000E+00  0.00000000000E+00  0.14086377677E+04  0.14086377677E+04  0.00000000000E+00 0. -1.
         21   -1    0    0  504  502 -0.00000000000E+00 -0.00000000000E+00 -0.18184252498E+03  0.18184252498E+03  0.00000000000E+00 0. -1.
         25    1    1    2    0    0 -0.39206333663E+03  0.74345327588E+02  0.81000910384E+03  0.91158139294E+03  0.12500000000E+03 0.  0.
         21    1    1    2  503  501 -0.98168468353E+01  0.29163799657E+02  0.21545986454E+03  0.21764615990E+03  0.00000000000E+00 0.  1.
         21    1    1    2  504  503  0.40188018346E+03 -0.10350912724E+03  0.20132627438E+03  0.46125273987E+03  0.00000000000E+00 0. -1.
<mgrwt>
<rscale>  4 0.42900968E+03</rscale>
<asrwt>0</asrwt>
<pdfrwt beam="1">  1       21 0.21671350E+00 0.42900968E+03</pdfrwt>
<pdfrwt beam="2">  1       21 0.27975774E-01 0.42900968E+03</pdfrwt>
<totfact> 0.10802030E+03</totfact>
</mgrwt>
</event>
<event>
 5    0  0.1531977E+001  0.2184501E+03  0.7546771E-02  0.1135044E+00
         21   -1    0    0  503  501  0.00000000000E+00  0.00000000000E+00  0.46959098552E+02  0.46959098552E+02  0.00000000000E+00 0.  1.
         21   -1    0    0  501  502 -0.00000000000E+00 -0.00000000000E+00 -0.11764240956E+04  0.11764240956E+04  0.00000000000E+00 0.  1.
         25    1    1    2    0    0 -0.18900627066E+03 -0.71986798947E+02 -0.45175879444E+03  0.51050609979E+03  0.12500000000E+03 0.  0.
         21    1    1    2  503  504  0.37322773453E+02  0.20927008872E+02 -0.29449060432E+03  0.29758300548E+03  0.00000000000E+00 0.  1.
         21    1    1    2  504  502  0.15168349720E+03  0.51059790075E+02 -0.38321559827E+03  0.41529408886E+03  0.00000000000E+00 0.  1.
<mgrwt>
<rscale>  4 0.21845007E+03</rscale>
<asrwt>0</asrwt>
<pdfrwt beam="1">  1       21 0.72244768E-02 0.21845007E+03</pdfrwt>
<pdfrwt beam="2">  1       21 0.18098832E+00 0.21845007E+03</pdfrwt>
<totfact> 0.25218996E+04</totfact>
</mgrwt>
</event>
<event>
 5    0  0.1531977E+001  0.3267145E+03  0.7546771E-02  0.1072600E+00
         21   -1    0    0  503  501  0.00000000000E+00  0.00000000000E+00  0.50582600495E+03  0.50582600495E+03  0.00000000000E+00 0. -1.
         21   -1    0    0  504  502 -0.00000000000E+00 -0.00000000000E+00 -0.35449966714E+03  0.35449966714E+03  0.00000000000E+00 0. -1.
         25    1    1    2    0    0  0.20790389284E+03  0.20947408393E+03 -0.10761775372E+03  0.33809762113E+03  0.12500000000E+03 0.  0.
         21    1    1    2  503  502  0.32907597510E+02 -0.23575851434E+02 -0.65795565520E+02  0.77251454270E+02  0.00000000000E+00 0. -1.
         21    1    1    2  504  501 -0.24081149035E+03 -0.18589823250E+03  0.32473965706E+03  0.44497659669E+03  0.00000000000E+00 0. -1.
<mgrwt>
<rscale>  4 0.32671451E+03</rscale>
<asrwt>0</asrwt>
<pdfrwt beam="1">  1       21 0.77819385E-01 0.32671451E+03</pdfrwt>
<pdfrwt beam="2">  1       21 0.54538410E-01 0.32671451E+03</pdfrwt>
<totfact> 0.42778629E+03</totfact>
</mgrwt>
</event>
<event>
 5    0  0.1531977E+001  0.3038046E+03  0.7546771E-02  0.1083354E+00
         21   -1    0    0  502  501  0.00000000000E+00  0.00000000000E+00  0.51457800057E+03  0.51457800057E+03  0.00000000000E+00 0.  1.
         21   -1    0    0  504  502 -0.00000000000E+00 -0.00000000000E+00 -0.51736152879E+03  0.51736152879E+03  0.00000000000E+00 0. -1.
         25    1    1    2    0    0 -0.24450412156E+03 -0.12220934180E+03 -0.39835252316E+03  0.49902617305E+03  0.12500000000E+03 0.  0.
         21    1    1    2  503  501  0.28244734410E+03  0.12353655348E+03  0.38555190232E+03  0.49364769990E+03  0.00000000000E+00 0.  1.
         21    1    1    2  504  503 -0.37943222537E+02 -0.13272116831E+01  0.10017092617E+02  0.39265656392E+02  0.00000000000E+00 0.  1.
<mgrwt>
<rscale>  4 0.30380463E+03</rscale>
<asrwt>0</asrwt>
<pdfrwt beam="1">  1       21 0.79165846E-01 0.30380463E+03</pdfrwt>
<pdfrwt beam="2">  1       21 0.79594081E-01 0.30380463E+03</pdfrwt>
<totfact> 0.18055625E+03</totfact>
</mgrwt>
</event>
