<event>
 5    0  0.5993533E-001  0.2871329E+03  0.7546771E-02  0.1091856E+00
         21   -1    0    0  503  502  0.00000000000E+00  0.00000000000E+00  0.70434507119E+02  0.70434507119E+02  0.00000000000E+00 0. -1.
          1   -1    0    0  502    0 -0.00000000000E+00 -0.00000000000E+00 -0.13227692777E+04  0.13227692777E+04  0.00000000000E+00 0. -1.
         25    1    1    2    0    0  0.19815324937E+03 -0.16599874347E+03 -0.93836885919E+03  0.98131616157E+03  0.12500000000E+03 0.  0.
         21    1    1    2  503  501 -0.22404597188E+02  0.44006069631E+02 -0.35932133913E+02  0.61070601659E+02  0.00000000000E+00 0. -1.
          1    1    1    2  501    0 -0.17574865218E+03  0.12199267384E+03 -0.27803377745E+03  0.35081702156E+03  0.00000000000E+00 0. -1.
<mgrwt>
<rscale>  4 0.28713288E+03</rscale>
<asrwt>0</asrwt>
<pdfrwt beam="1">  1       21 0.10836078E-01 0.28713288E+03</pdfrwt>
<pdfrwt beam="2">  1        1 0.20350296E+00 0.28713288E+03</pdfrwt>
<totfact> 0.72865416E+03</totfact>
</mgrwt>
</event>
<event>
 5    0  0.5993533E-001  0.2664826E+03  0.7546771E-02  0.1103310E+00
         21   -1    0    0  503  502  0.00000000000E+00  0.00000000000E+00  0.21587019795E+03  0.21587019795E+03  0.00000000000E+00 0.  1.
          1   -1    0    0  502    0 -0.00000000000E+00 -0.00000000000E+00 -0.38353674663E+03  0.38353674663E+03  0.00000000000E+00 0.  1.
         25    1    1    2    0    0 -0.17265200769E+03  0.15993524085E+03 -0.22775164052E+03  0.35054786661E+03  0.12500000000E+03 0.  0.
         21    1    1    2  503  501  0.39733630785E+02 -0.37711232371E+02  0.38600409357E+02  0.67014103477E+02  0.00000000000E+00 0.  1.
          1    1    1    2  501    0  0.13291837690E+03 -0.12222400848E+03  0.21484682482E+02  0.18184497449E+03  0.00000000000E+00 0.  1.
<mgrwt>
<rscale>  4 0.26648264E+03</rscale>
<asrwt>0</asrwt>
<pdfrwt beam="1">  1       21 0.33210800E-01 0.26648264E+03</pdfrwt>
<pdfrwt beam="2">  1        1 0.59005653E-01 0.26648264E+03</pdfrwt>
<totfact> 0.60241684E+03</totfact>
</mgrwt>
</event>
<event>
 5    0  0.5993533E-001  0.2541566E+03  0.7546771E-02  0.1110706E+00
         21   -1    0    0  503  502  0.00000000000E+00  0.00000000000E+00  0.64915656903E+03  0.64915656903E+03  0.00000000000E+00 0.  1.
          2   -1    0    0  502    0 -0.00000000000E+00 -0.00000000000E+00 -0.10711319005E+04  0.10711319005E+04  0.00000000000E+00 0. -1.
         25    1    1    2    0    0  0.21859219364E+03 -0.34468105903E+02  0.61179414345E+03  0.66248597826E+03  0.12500000000E+03 0.  0.
         21    1    1    2  503  501 -0.28559446779E+02 -0.37257500290E+01 -0.96807247137E+02  0.10100082332E+03  0.00000000000E+00 0.  1.
          2    1    1    2  501    0 -0.19003274686E+03  0.38193855932E+02 -0.93696222775E+03  0.95680166793E+03  0.00000000000E+00 0. -1.
<mgrwt>
<rscale>  4 0.25415664E+03</rscale>
<asrwt>0</asrwt>
<pdfrwt beam="1">  1       21 0.99870242E-01 0.25415664E+03</pdfrwt>
<pdfrwt beam="2">  1        2 0.16478952E+00 0.25415664E+03</pdfrwt>
<totfact> 0.23872274E+02</totfact>
</mgrwt>
</event>
<event>
 5    0  0.5993533E-001  0.2292809E+03  0.7546771E-02  0.1127147E+00
         -2   -1    0    0    0  501 -0.00000000000E+00  0.00000000000E+00  0.24004573487E+03  0.24004573487E+03  0.00000000000E+00 0. -1.
         21   -1    0    0  501  502  0.00000000000E+00 -0.00000000000E+00 -0.59104859915E+03  0.59104859915E+03  0.00000000000E+00 0.  1.
         25    1    1    2    0    0 -0.89358815980E+02 -0.18899671209E+03 -0.49428396402E+03  0.55104118926E+03  0.12500000000E+03 0.  0.
         21    1    1    2  501  501  0.15267792867E+02  0.67884105811E+02  0.11631359447E+03  0.13553674623E+03  0.00000000000E+00 0. -1.
         -2    1    1    2    0  502  0.74091023112E+02  0.12111260628E+03  0.26967505275E+02  0.14451639854E+03  0.00000000000E+00 0. -1.
<mgrwt>
<rscale>  4 0.22928091E+03</rscale>
<asrwt>0</asrwt>
<pdfrwt beam="1">  1       21 0.90930554E-01 0.22928091E+03</pdfrwt>
<pdfrwt beam="2">  1       -2 0.36930113E-01 0.22928091E+03</pdfrwt>
<totfact> 0.56472546E+02</totfact>
</mgrwt>
</event>
<event>
 5    0  0.5993533E-001  0.3161014E+03  0.7546771E-02  0.1077458E+00
          2   -1    0    0  502    0 -0.00000000000E+00  0.00000000000E+00  0.16280315115E+04  0.16280315115E+04  0.00000000000E+00 0. -1.
         21   -1    0    0  503  502  0.00000000000E+00 -0.00000000000E+00 -0.33345641604E+03  0.33345641604E+03  0.00000000000E+00 0.  1.
         25    1    1    2    0    0  0.29032325949E+03 -0.27398248965E+01 -0.24020373943E+03  0.39701125687E+03  0.12500000000E+03 0.  0.
         21    1    1    2  503  501 -0.48811092620E+02 -0.17221702320E+02  0.44953758894E+03  0.45250762829E+03  0.00000000000E+00 0.  1.
          2    1    1    2  501    0 -0.24151216687E+03  0.19961527216E+02  0.10852412459E+04  0.11119690424E+04  0.00000000000E+00 0. -1.
<mgrwt>
<rscale>  4 0.31610141E+03</rscale>
<asrwt>0</asrwt>
<pdfrwt beam="1">  1       21 0.51300988E-01 0.31610141E+03</pdfrwt>
<pdfrwt beam="2">  1        2 0.25046638E+00 0.31610141E+03</pdfrwt>
<totfact> 0.50493886E+02</totfact>
</mgrwt>
</event>
<event>
 5    0  0.5993533E-001  0.3103044E+03  0.7546771E-02  0.1080200E+00
         21   -1    0    0  503  502  0.00000000000E+00  0.00000000000E+00  0.86755816467E+02  0.86755816467E+02  0.00000000000E+00 0.  1.
          2   -1    0    0  502    0 -0.00000000000E+00 -0.00000000000E+00 -0.15923891418E+04  0.15923891418E+04  0.00000000000E+00 0. -1.
         25    1    1    2    0    0 -0.23382024551E+03  0.16122009578E+03 -0.28034444753E+03  0.41818875614E+03  0.12500000000E+03 0.  0.
         21    1    1    2  503  501  0.42177762422E+02 -0.28680429468E+02 -0.10551592370E+03  0.11719701716E+03  0.00000000000E+00 0. -1.
          2    1    1    2  501    0  0.19164248309E+03 -0.13253966631E+03 -0.11197729541E+04  0.11437591850E+04  0.00000000000E+00 0. -1.
<mgrwt>
<rscale>  4 0.31030441E+03</rscale>
<asrwt>0</asrwt>
<pdfrwt beam="1">  1       21 0.13347050E-01 0.31030441E+03</pdfrwt>
<pdfrwt beam="2">  1        2 0.24498293E+00 0.31030441E+03</pdfrwt>
<totfact> 0.73094524E+03</totfact>
</mgrwt>
</event>
<event>
 5    0  0.5993533E-001  0.2641994E+03  0.7546771E-02  0.1104646E+00
          2   -1    0    0  502    0 -0.00000000000E+00  0.00000000000E+00  0.24101253591E+04  0.24101253591E+04  0.00000000000E+00 0.  1.
         21   -1    0    0  503  502  0.00000000000E+00 -0.00000000000E+00 -0.12878818118E+03  0.12878818118E+03  0.00000000000E+00 0. -1.
         25    1    1    2    0    0 -0.22899238761E+03  0.41699015520E+02  0.21383973451E+02  0.26506338072E+03  0.12500000000E+03 0.  0.
         21    1    1    2  503  501  0.66134964291E+02 -0.38028681207E+02  0.43481549132E+03  0.44145727493E+03  0.00000000000E+00 0.  1.
          2    1    1    2  501    0  0.16285742332E+03 -0.36703343132E+01  0.18251377132E+04  0.18323928847E+04  0.00000000000E+00 0.  1.
<mgrwt>
<rscale>  4 0.26419940E+03</rscale>
<asrwt>0</asrwt>
<pdfrwt beam="1">  1       21 0.19813568E-01 0.26419940E+03</pdfrwt>
<pdfrwt beam="2">  1        2 0.37078848E+00 0.26419940E+03</pdfrwt>
<totfact> 0.13179598E+03</totfact>
</mgrwt>
</event>
<event>
 5    0  0.5993533E-001  0.2490322E+03  0.7546771E-02  0.1113918E+00
         -3   -1    0    0    0  501 -0.00000000000E+00  0.00000000000E+00  0.45182429128E+02  0.45182429128E+02  0.00000000000E+00 0.  1.
         21   -1    0    0  501  502  0.00000000000E+00 -0.00000000000E+00 -0.14009947048E+04  0.14009947048E+04  0.00000000000E+00 0. -1.
         25    1    1    2    0    0 -0.68189620725E+02 -0.20430910982E+03 -0.56581369457E+03  0.61819266713E+03  0.12500000000E+03 0.  0.
         21    1    1    2  501  501  0.45400189105E+02  0.21486406060E+03 -0.65985489539E+03  0.69543959096E+03  0.00000000000E+00 0.  1.
         -3    1    1    2    0  502  0.22789431620E+02 -0.10554950783E+02 -0.13014368570E+03  0.13254487582E+03  0.00000000000E+00 0.  1.
<mgrwt>
<rscale>  4 0.24903220E+03</rscale>
<asrwt>0</asrwt>
<pdfrwt beam="1">  1       21 0.21553765E+00 0.24903220E+03</pdfrwt>
<pdfrwt beam="2">  1       -3 0.69511430E-02 0.24903220E+03</pdfrwt>
<totfact> 0.69328488E+02</totfact>
</mgrwt>
</event>
<event>
 5    0  0.5993533E-001  0.2586246E+03  0.7546771E-02  0.1107972E+00
         21   -1    0    0  503  502  0.00000000000E+00  0.00000000000E+00  0.50251218875E+03  0.50251218875E+03  0.00000000000E+00 0. -1.
          2   -1    0    0  502    0 -0.00000000000E+00 -0.00000000000E+00 -0.29794448251E+04  0.29794448251E+04  0.00000000000E+00 0.  1.
         25    1    1    2    0    0  0.16076254144E+02 -0.22590684040E+03  0.46223783928E+03  0.52969912833E+03  0.12500000000E+03 0.  0.
         21    1    1    2  503  501 -0.23379969190E+02  0.42237762562E+01 -0.59647675835E+02  0.64205206002E+02  0.00000000000E+00 0.  1.
          2    1    1    2  501    0  0.73037150469E+01  0.22168306415E+03 -0.28795227998E+04  0.28880526796E+04  0.00000000000E+00 0.  1.
<mgrwt>
<rscale>  4 0.25862457E+03</rscale>
<asrwt>0</asrwt>
<pdfrwt beam="1">  1       21 0.77309566E-01 0.25862457E+03</pdfrwt>
<pdfrwt beam="2">  1        2 0.45837614E+00 0.25862457E+03</pdfrwt>
<totfact> 0.39164711E+01</totfact>
</mgrwt>
</event>
<event>
 5    0  0.5993533E-001  0.2567272E+03  0.7546771E-02  0.1109126E+00
         21   -1    0    0  503  502  0.00000000000E+00  0.00000000000E+00  0.50925748096E+03  0.50925748096E+03  0.00000000000E+00 0.  1.
          1   -1    0    0  502    0 -0.00000000000E+00 -0.00000000000E+00 -0.10138404711E+04  0.10138404711E+04  0.00000000000E+00 0.  1.
         25    1    1    2    0    0 -0.16789863413E+03 -0.14691644517E+03  0.45427765402E+03  0.52131332243E+03  0.12500000000E+03 0.  0.
         21    1    1    2  503  501 -0.35758714992E+02 -0.48408944399E+01 -0.12449250163E+03  0.12961675401E+03  0.00000000000E+00 0.  1.
          1    1    1    2  501    0  0.20365734912E+03  0.15175733961E+03 -0.83436814253E+03  0.87216787561E+03  0.00000000000E+00 0.  1.
<mgrwt>
<rscale>  4 0.25672723E+03</rscale>
<asrwt>0</asrwt>
<pdfrwt beam="1">  1       21 0.78347305E-01 0.25672723E+03</pdfrwt>
<pdfrwt beam="2">  1        1 0.15597546E+00 0.25672723E+03</pdfrwt>
<totfact> 0.24243472E+02</totfact>
</mgrwt>
</event>
<event>
 5    0  0.5993533E-001  0.3904077E+03  0.7546771E-02  0.1047153E+00
         21   -1    0    0  503  502  0.00000000000E+00  0.00000000000E+00  0.85852455811E+03  0.85852455811E+03  0.00000000000E+00 0. -1.
          2   -1    0    0  502    0 -0.00000000000E+00 -0.00000000000E+00 -0.79897824247E+03  0.79897824247E+03  0.00000000000E+00 0. -1.
         25    1    1    2    0    0 -0.34287158150E+03  0.14281202265E+03  0.75330376981E+03  0.84914531432E+03  0.12500000000E+03 0.  0.
         21    1    1    2  503  501  0.57690693926E+01 -0.50661145269E+02 -0.32594609350E+02  0.60516463548E+02  0.00000000000E+00 0. -1.
          2    1    1    2  501    0  0.33710251211E+03 -0.92150877385E+02 -0.66116284482E+03  0.74784102271E+03  0.00000000000E+00 0. -1.
<mgrwt>
<rscale>  4 0.39040774E+03</rscale>
<asrwt>0</asrwt>
<pdfrwt beam="1">  1       21 0.13208070E+00 0.39040774E+03</pdfrwt>
<pdfrwt beam="2">  1        2 0.12291973E+00 0.39040774E+03</pdfrwt>
<totfact> 0.16655850E+02</totfact>
</mgrwt>
</event>
<event>
 5    0  0.5993533E-001  0.2974234E+03  0.7546771E-02  0.1086536E+00
         -4   -1    0    0    0  501 -0.00000000000E+00  0.00000000000E+00  0.44392754107E+03  0.44392754107E+03  0.00000000000E+00 0.  1.
         21   -1    0    0  501  502  0.00000000000E+00 -0.00000000000E+00 -0.23212284065E+03  0.23212284065E+03  0.00000000000E+00 0.  1.
         25    1    1    2    0    0 -0.26786883116E+03  0.32893608880E+02  0.24154705294E+03  0.38315229217E+03  0.12500000000E+03 0.  0.
         21    1    1    2  501  501  0.10149373895E+03  0.20137664006E+02 -0.53805307905E+02  0.11662553630E+03  0.00000000000E+00 0. -1.
         -4    1    1    2    0  502  0.16637509220E+03 -0.53031272885E+02  0.24062955388E+02  0.17627255326E+03  0.00000000000E+00 0.  1.
<mgrwt>
<rscale>  4 0.29742344E+03</rscale>
<asrwt>0</asrwt>
<pdfrwt beam="1">  1       21 0.35711206E-01 0.29742344E+03</pdfrwt>
<pdfrwt beam="2">  1       -4 0.68296545E-01 0.29742344E+03</pdfrwt>
<totfact> 0.63646224E+02</totfact>
</mgrwt>
</event>
<event>
 5    0  0.5993533E-001  0.2524100E+03  0.7546771E-02  0.1111791E+00
         21   -1    0    0  503  502  0.00000000000E+00  0.00000000000E+00  0.49822964076E+03  0.49822964076E+03  0.00000000000E+00 0. -1.
          2   -1    0    0  502    0 -0.00000000000E+00 -0.00000000000E+00 -0.37352668153E+03  0.37352668153E+03  0.00000000000E+00 0. -1.
         25    1    1    2    0    0  0.56467882864E+02 -0.21188953521E+03  0.42667745638E+03  0.49574635522E+03  0.12500000000E+03 0.  0.
         21    1    1    2  503  501 -0.18340765166E+02  0.33895761377E+02 -0.81099969918E+02  0.89791488611E+02  0.00000000000E+00 0.  1.
          2    1    1    2  501    0 -0.38127117698E+02  0.17799377384E+03 -0.22087452724E+03  0.28621847846E+03  0.00000000000E+00 0. -1.
<mgrwt>
<rscale>  4 0.25240998E+03</rscale>
<asrwt>0</asrwt>
<pdfrwt beam="1">  1       21 0.76650714E-01 0.25240998E+03</pdfrwt>
<pdfrwt beam="2">  1        2 0.57465643E-01 0.25240998E+03</pdfrwt>
<totfact> 0.15826712E+03</totfact>
</mgrwt>
</event>
<event>
 5    0  0.5993533E-001  0.2267596E+03  0.7546771E-02  0.1128942E+00
          1   -1    0    0  502    0 -0.00000000000E+00  0.00000000000E+00  0.62059864264E+03  0.62059864264E+03  0.00000000000E+00 0. -1.
         21   -1    0    0  503  502  0.00000000000E+00 -0.00000000000E+00 -0.31563733164E+03  0.31563733164E+03  0.00000000000E+00 0. -1.
         25    1    1    2    0    0 -0.22309205041E+03 -0.14451433264E+03 -0.15275963126E+03  0.33108150090E+03  0.12500000000E+03 0.  0.
         21    1    1    2  503  501  0.92803689610E+02  0.14415885130E+02 -0.17480857169E+02  0.95529696518E+02  0.00000000000E+00 0. -1.
          1    1    1    2  501    0  0.13028836080E+03  0.13009844751E+03  0.47520179944E+03  0.50962477686E+03  0.00000000000E+00 0. -1.
<mgrwt>
<rscale>  4 0.22675958E+03</rscale>
<asrwt>0</asrwt>
<pdfrwt beam="1">  1       21 0.48559590E-01 0.22675958E+03</pdfrwt>
<pdfrwt beam="2">  1        1 0.95476714E-01 0.22675958E+03</pdfrwt>
<totfact> 0.14848620E+03</totfact>
</mgrwt>
</event>
<event>
 5    0  0.5993533E-001  0.2684042E+03  0.7546771E-02  0.1102196E+00
         21   -1    0    0  501  502  0.00000000000E+00  0.00000000000E+00  0.69565049372E+03  0.69565049372E+03  0.00000000000E+00 0. -1.
         -4   -1    0    0    0  501 -0.00000000000E+00 -0.00000000000E+00 -0.16556985628E+03  0.16556985628E+03  0.00000000000E+00 0. -1.
         25    1    1    2    0    0  0.51528411249E+02 -0.23186344099E+03 -0.62204349954E+01  0.26847630482E+03  0.12500000000E+03 0.  0.
         21    1    1    2  501  501 -0.40227881676E+02  0.30363734749E+02  0.97461313535E+02  0.10972213308E+03  0.00000000000E+00 0. -1.
         -4    1    1    2    0  502 -0.11300529573E+02  0.20149970625E+03  0.43883975890E+03  0.48302191211E+03  0.00000000000E+00 0. -1.
<mgrwt>
<rscale>  4 0.26840423E+03</rscale>
<asrwt>0</asrwt>
<pdfrwt beam="1">  1       21 0.10702315E+00 0.26840423E+03</pdfrwt>
<pdfrwt beam="2">  1       -4 0.25472286E-01 0.26840423E+03</pdfrwt>
<totfact> 0.41985694E+02</totfact>
</mgrwt>
</event>
<event>
 5    0  0.5993533E-001  0.3111945E+03  0.7546771E-02  0.1079775E+00
         -2   -1    0    0    0  501 -0.00000000000E+00  0.00000000000E+00  0.43373733864E+03  0.43373733864E+03  0.00000000000E+00 0. -1.
         21   -1    0    0  501  502  0.00000000000E+00 -0.00000000000E+00 -0.13083651019E+04  0.13083651019E+04  0.00000000000E+00 0.  1.
         25    1    1    2    0    0  0.18664707104E+03 -0.21535997073E+03 -0.12378460875E+04  0.12763639694E+04  0.12500000000E+03 0.  0.
         21    1    1    2  501  501 -0.64498803374E+02  0.97854374910E+02  0.10804216371E+03  0.15940101463E+03  0.00000000000E+00 0.  1.
         -2    1    1    2    0  502 -0.12214826766E+03  0.11750559582E+03  0.25517616052E+03  0.30633745648E+03  0.00000000000E+00 0. -1.
<mgrwt>
<rscale>  4 0.31119455E+03</rscale>
<asrwt>0</asrwt>
<pdfrwt beam="1">  1       21 0.20128694E+00 0.31119455E+03</pdfrwt>
<pdfrwt beam="2">  1       -2 0.66728822E-01 0.31119455E+03</pdfrwt>
<totfact> 0.20742963E+01</totfact>
</mgrwt>
</event>
<event>
 5    0  0.5993533E-001  0.2422966E+03  0.7546771E-02  0.1118272E+00
         -4   -1    0    0    0  501 -0.00000000000E+00  0.00000000000E+00  0.41393739816E+03  0.41393739816E+03  0.00000000000E+00 0.  1.
         21   -1    0    0  501  502  0.00000000000E+00 -0.00000000000E+00 -0.66511700628E+03  0.66511700628E+03  0.00000000000E+00 0.  1.
         25    1    1    2    0    0 -0.69649938526E+02  0.19508071403E+03 -0.59976232003E+03  0.64672052655E+03  0.12500000000E+03 0.  0.
         21    1    1    2  501  501  0.30515170484E+02  0.17929043460E+02  0.26527450966E+02  0.44230440692E+02  0.00000000000E+00 0.  1.
         -4    1    1    2    0  502  0.39134768042E+02 -0.21300975749E+03  0.32205526095E+03  0.38810343719E+03  0.00000000000E+00 0.  1.
<mgrwt>
<rscale>  4 0.24229659E+03</rscale>
<asrwt>0</asrwt>
<pdfrwt beam="1">  1       21 0.10232569E+00 0.24229659E+03</pdfrwt>
<pdfrwt beam="2">  1       -4 0.63682677E-01 0.24229659E+03</pdfrwt>
<totfact> 0.75263729E+01</totfact>
</mgrwt>
</event>
<event>
 5    0  0.5993533E-001  0.4180507E+03  0.7546771E-02  0.1037703E+00
         21   -1    0    0  503  502  0.00000000000E+00  0.00000000000E+00  0.40201906092E+03  0.40201906092E+03  0.00000000000E+00 0.  1.
          2   -1    0    0  502    0 -0.00000000000E+00 -0.00000000000E+00 -0.22340398742E+04  0.22340398742E+04  0.00000000000E+00 0. -1.
         25    1    1    2    0    0 -0.40510077577E+03  0.55610035900E+01  0.25108123199E+03  0.49275181212E+03  0.12500000000E+03 0.  0.
         21    1    1    2  503  501  0.10709090381E+03  0.59031280258E+01 -0.13456017776E+03  0.17207483848E+03  0.00000000000E+00 0.  1.
          2    1    1    2  501    0  0.29800987195E+03 -0.11464131616E+02 -0.19485418676E+04  0.19712322846E+04  0.00000000000E+00 0. -1.
<mgrwt>
<rscale>  4 0.41805071E+03</rscale>
<asrwt>0</asrwt>
<pdfrwt beam="1">  1       21 0.61849086E-01 0.41805071E+03</pdfrwt>
<pdfrwt beam="2">  1        2 0.34369844E+00 0.41805071E+03</pdfrwt>
<totfact> 0.15314264E+02</totfact>
</mgrwt>
</event>
<event>
 5    0  0.5993533E-001  0.2539712E+03  0.7546771E-02  0.1110821E+00
          2   -1    0    0  502    0 -0.00000000000E+00  0.00000000000E+00  0.21747611522E+04  0.21747611522E+04  0.00000000000E+00 0. -1.
         21   -1    0    0  503  502  0.00000000000E+00 -0.00000000000E+00 -0.20456974718E+03  0.20456974718E+03  0.00000000000E+00 0.  1.
         25    1    1    2    0    0 -0.53348430757E+02  0.21454679186E+03 -0.11682967867E+03  0.27955420723E+03  0.12500000000E+03 0.  0.
         21    1    1    2  503  501  0.36644974529E+02 -0.10017984015E+03  0.71737660531E+03  0.72526412318E+03  0.00000000000E+00 0. -1.
          2    1    1    2  501    0  0.16703456228E+02 -0.11436695171E+03  0.13696444784E+04  0.13745125690E+04  0.00000000000E+00 0. -1.
<mgrwt>
<rscale>  4 0.25397122E+03</rscale>
<asrwt>0</asrwt>
<pdfrwt beam="1">  1       21 0.31472270E-01 0.25397122E+03</pdfrwt>
<pdfrwt beam="2">  1        2 0.33457862E+00 0.25397122E+03</pdfrwt>
<totfact> 0.72738483E+02</totfact>
</mgrwt>
</event>
<event>
 5    0  0.5993533E-001  0.3801164E+03  0.7546771E-02  0.1050891E+00
          2   -1    0    0  502    0 -0.00000000000E+00  0.00000000000E+00  0.27395711492E+04  0.27395711492E+04  0.00000000000E+00 0.  1.
         21   -1    0    0  503  502  0.00000000000E+00 -0.00000000000E+00 -0.65841592534E+02  0.65841592534E+02  0.00000000000E+00 0.  1.
         25    1    1    2    0    0 -0.15479313528E+03 -0.32388663154E+03  0.71068145481E+03  0.80595073983E+03  0.12500000000E+03 0.  0.
         21    1    1    2  503  501  0.88524241320E+02  0.58256678323E+02  0.56973428028E+03  0.57950628297E+03  0.00000000000E+00 0.  1.
          2    1    1    2  501    0  0.66268893964E+02  0.26562995322E+03  0.13933138216E+04  0.14199557190E+04  0.00000000000E+00 0.  1.
<mgrwt>
<rscale>  4 0.38011638E+03</rscale>
<asrwt>0</asrwt>
<pdfrwt beam="1">  1       21 0.10129478E-01 0.38011638E+03</pdfrwt>
<pdfrwt beam="2">  1        2 0.42147240E+00 0.38011638E+03</pdfrwt>
<totfact> 0.28193412E+03</totfact>
</mgrwt>
</event>
<event>
 5    0  0.5993533E-001  0.4614010E+03  0.7546771E-02  0.1024376E+00
          1   -1    0    0  502    0 -0.00000000000E+00  0.00000000000E+00  0.22509330253E+04  0.22509330253E+04  0.00000000000E+00 0.  1.
         21   -1    0    0  503  502  0.00000000000E+00 -0.00000000000E+00 -0.32615178670E+03  0.32615178670E+03  0.00000000000E+00 0.  1.
         25    1    1    2    0    0 -0.29058060142E+03  0.33590004296E+03 -0.12463014482E+03  0.47793681358E+03  0.12500000000E+03 0.  0.
         21    1    1    2  503  501  0.90381834559E+02 -0.13788625978E+03  0.95297973275E+03  0.96713590963E+03  0.00000000000E+00 0.  1.
          1    1    1    2  501    0  0.20019876686E+03 -0.19801378318E+03  0.10964316507E+04  0.11320120888E+04  0.00000000000E+00 0.  1.
<mgrwt>
<rscale>  4 0.46140105E+03</rscale>
<asrwt>0</asrwt>
<pdfrwt beam="1">  1       21 0.50177199E-01 0.46140105E+03</pdfrwt>
<pdfrwt beam="2">  1        1 0.34629738E+00 0.46140105E+03</pdfrwt>
<totfact> 0.85713863E+01</totfact>
</mgrwt>
</event>
<event>
 5    0  0.5993533E-001  0.1889652E+03  0.7546771E-02  0.1159398E+00
         21   -1    0    0  503  502  0.00000000000E+00  0.00000000000E+00  0.87431838243E+02  0.87431838243E+02  0.00000000000E+00 0. -1.
          1   -1    0    0  502    0 -0.00000000000E+00 -0.00000000000E+00 -0.84980995540E+03  0.84980995540E+03  0.00000000000E+00 0. -1.
         25    1    1    2    0    0 -0.40464678675E+02 -0.19998785593E+03 -0.18475143120E+03  0.30230882235E+03  0.12500000000E+03 0.  0.
         21    1    1    2  503  501 -0.13771668484E+02  0.78147536045E+02 -0.57538112106E+02  0.98016991320E+02  0.00000000000E+00 0. -1.
          1    1    1    2  501    0  0.54236347159E+02  0.12184031988E+03 -0.52008857385E+03  0.53691597998E+03  0.00000000000E+00 0. -1.
<mgrwt>
<rscale>  4 0.18896521E+03</rscale>
<asrwt>0</asrwt>
<pdfrwt beam="1">  1       21 0.13451052E-01 0.18896521E+03</pdfrwt>
<pdfrwt beam="2">  1        1 0.13073999E+00 0.18896521E+03</pdfrwt>
<totfact> 0.11221113E+04</totfact>
</mgrwt>
</event>
<event>
 5    0  0.5993533E-001  0.2616477E+03  0.7546771E-02  0.1106157E+00
         21   -1    0    0  503  502  0.00000000000E+00  0.00000000000E+00  0.58370105800E+02  0.58370105800E+02  0.00000000000E+00 0. -1.
          1   -1    0    0  502    0 -0.00000000000E+00 -0.00000000000E+00 -0.15003626249E+04  0.15003626249E+04  0.00000000000E+00 0. -1.
         25    1    1    2    0    0 -0.16009928854E+02 -0.22929940068E+03 -0.33529304399E+03  0.42530102083E+03  0.12500000000E+03 0.  0.
         21    1    1    2  503  501 -0.20211629228E+02  0.87102243923E+02 -0.28384400740E+03  0.29759491156E+03  0.00000000000E+00 0. -1.
          1    1    1    2  501    0  0.36221558082E+02  0.14219715675E+03 -0.82285546772E+03  0.83583679832E+03  0.00000000000E+00 0. -1.
<mgrwt>
<rscale>  4 0.26164773E+03</rscale>
<asrwt>0</asrwt>
<pdfrwt beam="1">  1       21 0.89800165E-02 0.26164773E+03</pdfrwt>
<pdfrwt beam="2">  1        1 0.23082501E+00 0.26164773E+03</pdfrwt>
<totfact> 0.77857499E+03</totfact>
</mgrwt>
</event>
<event>
 5    0  0.5993533E-001  0.2973460E+03  0.7546771E-02  0.1086575E+00
         21   -1    0    0  503  502  0.00000000000E+00  0.00000000000E+00  0.41748803827E+02  0.41748803827E+02  0.00000000000E+00 0. -1.
          2   -1    0    0  502    0 -0.00000000000E+00 -0.00000000000E+00 -0.24964873734E+04  0.24964873734E+04  0.00000000000E+00 0. -1.
         25    1    1    2    0    0 -0.10253605731E+02 -0.28556355451E+03 -0.10395192524E+04  0.10853003991E+04  0.12500000000E+03 0.  0.
         21    1    1    2  503  501  0.18442758679E+02  0.29114032185E+02 -0.53430910920E+03  0.53541944902E+03  0.00000000000E+00 0.  1.
          2    1    1    2  501    0 -0.81891529474E+01  0.25644952233E+03 -0.88091020792E+03  0.91751632909E+03  0.00000000000E+00 0. -1.
<mgrwt>
<rscale>  4 0.29734604E+03</rscale>
<asrwt>0</asrwt>
<pdfrwt beam="1">  1       21 0.64228923E-02 0.29734604E+03</pdfrwt>
<pdfrwt beam="2">  1        2 0.38407502E+00 0.29734604E+03</pdfrwt>
<totfact> 0.88585146E+03</totfact>
</mgrwt>
</event>
<event>
 5    0  0.5993533E-001  0.3668921E+03  0.7546771E-02  0.1055888E+00
          1   -1    0    0  502    0 -0.00000000000E+00  0.00000000000E+00  0.14983777814E+04  0.14983777814E+04  0.00000000000E+00 0. -1.
         21   -1    0    0  503  502  0.00000000000E+00 -0.00000000000E+00 -0.24118926171E+03  0.24118926171E+03  0.00000000000E+00 0. -1.
         25    1    1    2    0    0 -0.30472579193E+03 -0.16163846482E+03 -0.61526438313E+02  0.37201519349E+03  0.12500000000E+03 0.  0.
         21    1    1    2  503  501  0.11686099854E+03  0.12069197775E+02  0.33687183983E+03  0.35676994686E+03  0.00000000000E+00 0. -1.
          1    1    1    2  501    0  0.18786479340E+03  0.14956926704E+03  0.98184311822E+03  0.10107819028E+04  0.00000000000E+00 0. -1.
<mgrwt>
<rscale>  4 0.36689208E+03</rscale>
<asrwt>0</asrwt>
<pdfrwt beam="1">  1       21 0.37106041E-01 0.36689208E+03</pdfrwt>
<pdfrwt beam="2">  1        1 0.23051965E+00 0.36689208E+03</pdfrwt>
<totfact> 0.52301940E+02</totfact>
</mgrwt>
</event>
<event>
 5    0  0.5993533E-001  0.3548939E+03  0.7546771E-02  0.1060624E+00
          2   -1    0    0  502    0 -0.00000000000E+00  0.00000000000E+00  0.10091184228E+04  0.10091184228E+04  0.00000000000E+00 0. -1.
         21   -1    0    0  503  502  0.00000000000E+00 -0.00000000000E+00 -0.25406602329E+03  0.25406602329E+03  0.00000000000E+00 0.  1.
         25    1    1    2    0    0 -0.19838177910E+03 -0.26971917453E+03 -0.72413979811E+02  0.36465401117E+03  0.12500000000E+03 0.  0.
         21    1    1    2  503  501  0.28274294432E+02  0.12587208264E+01  0.37137002604E+02  0.46692366251E+02  0.00000000000E+00 0. -1.
          2    1    1    2  501    0  0.17010748467E+03  0.26846045370E+03  0.79032937672E+03  0.85183806868E+03  0.00000000000E+00 0. -1.
<mgrwt>
<rscale>  4 0.35489390E+03</rscale>
<asrwt>0</asrwt>
<pdfrwt beam="1">  1       21 0.39087081E-01 0.35489390E+03</pdfrwt>
<pdfrwt beam="2">  1        2 0.15524899E+00 0.35489390E+03</pdfrwt>
<totfact> 0.19567609E+03</totfact>
</mgrwt>
</event>
<event>
 5    0  0.5993533E-001  0.2666655E+03  0.7546771E-02  0.1103203E+00
         21   -1    0    0  503  502  0.00000000000E+00  0.00000000000E+00  0.84008940329E+02  0.84008940329E+02  0.00000000000E+00 0. -1.
          2   -1    0    0  502    0 -0.00000000000E+00 -0.00000000000E+00 -0.13522451887E+04  0.13522451887E+04  0.00000000000E+00 0. -1.
         25    1    1    2    0    0  0.24000512726E+03 -0.38104776876E+02 -0.21260737595E+03  0.34623883584E+03  0.12500000000E+03 0.  0.
         21    1    1    2  503  501 -0.20376419625E+03  0.75471931128E+02 -0.79027788647E+03  0.81960661168E+03  0.00000000000E+00 0. -1.
          2    1    1    2  501    0 -0.36240931006E+02 -0.37367154252E+02 -0.26535098596E+03  0.27040868153E+03  0.00000000000E+00 0. -1.
<mgrwt>
<rscale>  4 0.26666554E+03</rscale>
<asrwt>0</asrwt>
<pdfrwt beam="1">  1       21 0.12924453E-01 0.26666554E+03</pdfrwt>
<pdfrwt beam="2">  1        2 0.20803772E+00 0.26666554E+03</pdfrwt>
<totfact> 0.10571003E+04</totfact>
</mgrwt>
</event>
<event>
 5    0  0.5993533E-001  0.2280827E+03  0.7546771E-02  0.1127997E+00
          2   -1    0    0  502    0 -0.00000000000E+00  0.00000000000E+00  0.22344807432E+03  0.22344807432E+03  0.00000000000E+00 0.  1.
         21   -1    0    0  503  502  0.00000000000E+00 -0.00000000000E+00 -0.27054037890E+03  0.27054037890E+03  0.00000000000E+00 0. -1.
         25    1    1    2    0    0 -0.19845033567E+03  0.73210706887E+02 -0.49151679593E+02  0.25056582157E+03  0.12500000000E+03 0.  0.
         21    1    1    2  503  501  0.40991917000E+02  0.17158797276E+02 -0.36876145378E+02  0.57746096675E+02  0.00000000000E+00 0.  1.
          2    1    1    2  501    0  0.15745841867E+03 -0.90369504163E+02  0.38935520396E+02  0.18567653498E+03  0.00000000000E+00 0.  1.
<mgrwt>
<rscale>  4 0.22808273E+03</rscale>
<asrwt>0</asrwt>
<pdfrwt beam="1">  1       21 0.41621597E-01 0.22808273E+03</pdfrwt>
<pdfrwt beam="2">  1        2 0.34376627E-01 0.22808273E+03</pdfrwt>
<totfact> 0.10272377E+04</totfact>
</mgrwt>
</event>
<event>
 5    0  0.5993533E-001  0.2927034E+03  0.7546771E-02  0.1088946E+00
         -2   -1    0    0    0  501 -0.00000000000E+00  0.00000000000E+00  0.12656805268E+04  0.12656805268E+04  0.00000000000E+00 0. -1.
         21   -1    0    0  501  502  0.00000000000E+00 -0.00000000000E+00 -0.68747840222E+03  0.68747840222E+03  0.00000000000E+00 0.  1.
         25    1    1    2    0    0  0.18125170339E+03 -0.19286809866E+03 -0.64113978403E+03  0.70479465529E+03  0.12500000000E+03 0.  0.
         21    1    1    2  501  501 -0.23028793403E+02  0.24678653894E+02  0.10299647010E+03  0.10838650348E+03  0.00000000000E+00 0. -1.
         -2    1    1    2    0  502 -0.15822290999E+03  0.16818944477E+03  0.11163454385E+04  0.11399777702E+04  0.00000000000E+00 0. -1.
<mgrwt>
<rscale>  4 0.29270341E+03</rscale>
<asrwt>0</asrwt>
<pdfrwt beam="1">  1       21 0.10576591E+00 0.29270341E+03</pdfrwt>
<pdfrwt beam="2">  1       -2 0.19472008E+00 0.29270341E+03</pdfrwt>
<totfact> 0.86467008E+00</totfact>
</mgrwt>
</event>
<event>
 5    0  0.5993533E-001  0.4584693E+03  0.7546771E-02  0.1025226E+00
         21   -1    0    0  503  502  0.00000000000E+00  0.00000000000E+00  0.25439482538E+03  0.25439482538E+03  0.00000000000E+00 0. -1.
          2   -1    0    0  502    0 -0.00000000000E+00 -0.00000000000E+00 -0.13150685847E+04  0.13150685847E+04  0.00000000000E+00 0. -1.
         25    1    1    2    0    0  0.14299042496E+03  0.41728029364E+03 -0.45170246416E+02  0.46068911019E+03  0.12500000000E+03 0.  0.
         21    1    1    2  503  501 -0.21370716949E+02 -0.22576506650E+02 -0.53833730648E+02  0.62164915756E+02  0.00000000000E+00 0. -1.
          2    1    1    2  501    0 -0.12161970801E+03 -0.39470378699E+03 -0.96166978227E+03  0.10466093841E+04  0.00000000000E+00 0. -1.
<mgrwt>
<rscale>  4 0.45846931E+03</rscale>
<asrwt>0</asrwt>
<pdfrwt beam="1">  1       21 0.39137666E-01 0.45846931E+03</pdfrwt>
<pdfrwt beam="2">  1        2 0.20231824E+00 0.45846931E+03</pdfrwt>
<totfact> 0.12550885E+03</totfact>
</mgrwt>
</event>
<event>
 5    0  0.5993533E-001  0.2402711E+03  0.7546771E-02  0.1119612E+00
         21   -1    0    0  503  502  0.00000000000E+00  0.00000000000E+00  0.10009677924E+04  0.10009677924E+04  0.00000000000E+00 0. -1.
          2   -1    0    0  502    0 -0.00000000000E+00 -0.00000000000E+00 -0.39570125867E+03  0.39570125867E+03  0.00000000000E+00 0. -1.
         25    1    1    2    0    0 -0.11969438872E+03  0.16666873353E+03  0.95381453164E+03  0.98361190222E+03  0.12500000000E+03 0.  0.
         21    1    1    2  503  501  0.69364011535E+02 -0.36607452746E+02 -0.90676904564E+02  0.11989066984E+03  0.00000000000E+00 0. -1.
          2    1    1    2  501    0  0.50330377186E+02 -0.13006128078E+03 -0.25787109335E+03  0.29316647900E+03  0.00000000000E+00 0. -1.
<mgrwt>
<rscale>  4 0.24027112E+03</rscale>
<asrwt>0</asrwt>
<pdfrwt beam="1">  1       21 0.15399504E+00 0.24027112E+03</pdfrwt>
<pdfrwt beam="2">  1        2 0.60877117E-01 0.24027112E+03</pdfrwt>
<totfact> 0.27172017E+02</totfact>
</mgrwt>
</event>
<event>
 5    0  0.5993533E-001  0.3429282E+03  0.7546771E-02  0.1065556E+00
         21   -1    0    0  503  502  0.00000000000E+00  0.00000000000E+00  0.98438967445E+02  0.98438967445E+02  0.00000000000E+00 0.  1.
          2   -1    0    0  502    0 -0.00000000000E+00 -0.00000000000E+00 -0.31441508074E+04  0.31441508074E+04  0.00000000000E+00 0.  1.
         25    1    1    2    0    0  0.31072080126E+03 -0.79690023058E+02 -0.24698783044E+03  0.42370497341E+03  0.12500000000E+03 0.  0.
         21    1    1    2  503  501 -0.17401463241E+02 -0.14905662838E+02 -0.98519944035E+02  0.10114924162E+03  0.00000000000E+00 0.  1.
          2    1    1    2  501    0 -0.29331933801E+03  0.94595685896E+02 -0.27002040655E+04  0.27177355598E+04  0.00000000000E+00 0.  1.
<mgrwt>
<rscale>  4 0.34292822E+03</rscale>
<asrwt>0</asrwt>
<pdfrwt beam="1">  1       21 0.15144458E-01 0.34292822E+03</pdfrwt>
<pdfrwt beam="2">  1        2 0.48371546E+00 0.34292822E+03</pdfrwt>
<totfact> 0.79231086E+02</totfact>
</mgrwt>
</event>
<event>
 5    0  0.5993533E-001  0.3239016E+03  0.7546771E-02  0.1073868E+00
         21   -1    0    0  501  502  0.00000000000E+00  0.00000000000E+00  0.37996057836E+03  0.37996057836E+03  0.00000000000E+00 0. -1.
         -4   -1    0    0    0  501 -0.00000000000E+00 -0.00000000000E+00 -0.78463472807E+03  0.78463472807E+03  0.00000000000E+00 0. -1.
         25    1    1    2    0    0 -0.10386906999E+03 -0.32167173193E+03  0.21287746790E+03  0.41857293649E+03  0.12500000000E+03 0.  0.
         21    1    1    2  501  501  0.12596893974E+03  0.17975949390E+03 -0.17492784213E+03  0.28068024401E+03  0.00000000000E+00 0. -1.
         -4    1    1    2    0  502 -0.22099869751E+02  0.14191223803E+03 -0.44262377548E+03  0.46534212593E+03  0.00000000000E+00 0. -1.
<mgrwt>
<rscale>  4 0.32390162E+03</rscale>
<asrwt>0</asrwt>
<pdfrwt beam="1">  1       21 0.58455475E-01 0.32390162E+03</pdfrwt>
<pdfrwt beam="2">  1       -4 0.12071303E+00 0.32390162E+03</pdfrwt>
<totfact> 0.60900148E+01</totfact>
</mgrwt>
</event>
<event>
 5    0  0.5993533E-001  0.2665106E+03  0.7546771E-02  0.1103293E+00
         21   -1    0    0  503  502  0.00000000000E+00  0.00000000000E+00  0.13115462461E+03  0.13115462461E+03  0.00000000000E+00 0.  1.
          2   -1    0    0  502    0 -0.00000000000E+00 -0.00000000000E+00 -0.27474747385E+04  0.27474747385E+04  0.00000000000E+00 0. -1.
         25    1    1    2    0    0 -0.34864710165E+01 -0.23535236382E+03 -0.16811802295E+02  0.26704031032E+03  0.12500000000E+03 0.  0.
         21    1    1    2  503  501 -0.21760671745E+01  0.59074775252E+02 -0.33118372712E+03  0.33641822996E+03  0.00000000000E+00 0.  1.
          2    1    1    2  501    0  0.56625381910E+01  0.17627758857E+03 -0.22683245845E+04  0.22751708228E+04  0.00000000000E+00 0. -1.
<mgrwt>
<rscale>  4 0.26651058E+03</rscale>
<asrwt>0</asrwt>
<pdfrwt beam="1">  1       21 0.20177635E-01 0.26651058E+03</pdfrwt>
<pdfrwt beam="2">  1        2 0.42268842E+00 0.26651058E+03</pdfrwt>
<totfact> 0.82731444E+02</totfact>
</mgrwt>
</event>
<event>
 5    0  0.5993533E-001  0.3067502E+03  0.7546771E-02  0.1081914E+00
         21   -1    0    0  503  502  0.00000000000E+00  0.00000000000E+00  0.38723284931E+03  0.38723284931E+03  0.00000000000E+00 0. -1.
          2   -1    0    0  502    0 -0.00000000000E+00 -0.00000000000E+00 -0.16790468534E+04  0.16790468534E+04  0.00000000000E+00 0. -1.
         25    1    1    2    0    0 -0.92337382576E+02 -0.26447021900E+03  0.31037583186E+03  0.43638153715E+03  0.12500000000E+03 0.  0.
         21    1    1    2  503  501  0.32342449233E+02  0.38294149412E+02 -0.13187756282E+03  0.14108213025E+03  0.00000000000E+00 0. -1.
          2    1    1    2  501    0  0.59994933343E+02  0.22617606959E+03 -0.14703122731E+04  0.14888160353E+04  0.00000000000E+00 0. -1.
<mgrwt>
<rscale>  4 0.30675021E+03</rscale>
<asrwt>0</asrwt>
<pdfrwt beam="1">  1       21 0.59574283E-01 0.30675021E+03</pdfrwt>
<pdfrwt beam="2">  1        2 0.25831491E+00 0.30675021E+03</pdfrwt>
<totfact> 0.34586176E+02</totfact>
</mgrwt>
</event>
<event>
 5    0  0.5993533E-001  0.2611303E+03  0.7546771E-02  0.1106466E+00
         21   -1    0    0  503  502  0.00000000000E+00  0.00000000000E+00  0.14088025693E+03  0.14088025693E+03  0.00000000000E+00 0.  1.
          1   -1    0    0  502    0 -0.00000000000E+00 -0.00000000000E+00 -0.18419996560E+04  0.18419996560E+04  0.00000000000E+00 0.  1.
         25    1    1    2    0    0  0.50808483990E+02 -0.22231029006E+03 -0.61668209323E+01  0.26012765480E+03  0.12500000000E+03 0.  0.
         21    1    1    2  503  501 -0.29293357144E+02  0.23832786377E+03 -0.10444463733E+04  0.10716932855E+04  0.00000000000E+00 0.  1.
          1    1    1    2  501    0 -0.21515126847E+02 -0.16017573708E+02 -0.65050620484E+03  0.65105897266E+03  0.00000000000E+00 0.  1.
<mgrwt>
<rscale>  4 0.26113026E+03</rscale>
<asrwt>0</asrwt>
<pdfrwt beam="1">  1       21 0.21673886E-01 0.26113026E+03</pdfrwt>
<pdfrwt beam="2">  1        1 0.28338456E+00 0.26113026E+03</pdfrwt>
<totfact> 0.93162804E+02</totfact>
</mgrwt>
</event>
<event>
 5    0  0.5993533E-001  0.2575988E+03  0.7546771E-02  0.1108595E+00
         21   -1    0    0  503  502  0.00000000000E+00  0.00000000000E+00  0.91745234640E+02  0.91745234640E+02  0.00000000000E+00 0.  1.
          2   -1    0    0  502    0 -0.00000000000E+00 -0.00000000000E+00 -0.10972474172E+04  0.10972474172E+04  0.00000000000E+00 0. -1.
         25    1    1    2    0    0 -0.11499169575E+02 -0.22592493316E+03 -0.32014451808E+03  0.41145087044E+03  0.12500000000E+03 0.  0.
         21    1    1    2  503  501  0.11542419341E+03  0.10421912522E+02 -0.32450447162E+03  0.34457874686E+03  0.00000000000E+00 0. -1.
          2    1    1    2  501    0 -0.10392502384E+03  0.21550302064E+03 -0.36085319284E+03  0.43296303453E+03  0.00000000000E+00 0. -1.
<mgrwt>
<rscale>  4 0.25759878E+03</rscale>
<asrwt>0</asrwt>
<pdfrwt beam="1">  1       21 0.14114651E-01 0.25759878E+03</pdfrwt>
<pdfrwt beam="2">  1        2 0.16880730E+00 0.25759878E+03</pdfrwt>
<totfact> 0.12587769E+04</totfact>
</mgrwt>
</event>
<event>
 5    0  0.5993533E-001  0.2260273E+03  0.7546771E-02  0.1129468E+00
         -1   -1    0    0    0  501 -0.00000000000E+00  0.00000000000E+00  0.24252591825E+03  0.24252591825E+03  0.00000000000E+00 0. -1.
         21   -1    0    0  501  502  0.00000000000E+00 -0.00000000000E+00 -0.25863346151E+03  0.25863346151E+03  0.00000000000E+00 0. -1.
         25    1    1    2    0    0  0.19144805352E+03 -0.76350297057E+02 -0.99288785862E+02  0.26070095522E+03  0.12500000000E+03 0.  0.
         21    1    1    2  501  501 -0.30790677169E+02  0.29957439400E+02  0.56725635144E+02  0.71156950879E+02  0.00000000000E+00 0. -1.
         -1    1    1    2    0  502 -0.16065737635E+03  0.46392857658E+02  0.26455607449E+02  0.16930147366E+03  0.00000000000E+00 0. -1.
<mgrwt>
<rscale>  4 0.22602730E+03</rscale>
<asrwt>0</asrwt>
<pdfrwt beam="1">  1       21 0.39789763E-01 0.22602730E+03</pdfrwt>
<pdfrwt beam="2">  1       -1 0.37311680E-01 0.22602730E+03</pdfrwt>
<totfact> 0.38774516E+03</totfact>
</mgrwt>
</event>
<event>
 5    0  0.5993533E-001  0.3946225E+03  0.7546771E-02  0.1045658E+00
          2   -1    0    0  502    0 -0.00000000000E+00  0.00000000000E+00  0.16935372462E+04  0.16935372462E+04  0.00000000000E+00 0. -1.
         21   -1    0    0  503  502  0.00000000000E+00 -0.00000000000E+00 -0.15937135085E+03  0.15937135085E+03  0.00000000000E+00 0.  1.
         25    1    1    2    0    0  0.37499170783E+03 -0.50374940868E+02  0.18088907662E+03  0.43760972755E+03  0.12500000000E+03 0.  0.
         21    1    1    2  503  501 -0.27067506254E+02 -0.45790928784E+02  0.15890290065E+03  0.16756965981E+03  0.00000000000E+00 0. -1.
          2    1    1    2  501    0 -0.34792420157E+03  0.96165869651E+02  0.11943739181E+04  0.12477292097E+04  0.00000000000E+00 0. -1.
<mgrwt>
<rscale>  4 0.39462251E+03</rscale>
<asrwt>0</asrwt>
<pdfrwt beam="1">  1       21 0.24518671E-01 0.39462251E+03</pdfrwt>
<pdfrwt beam="2">  1        2 0.26054418E+00 0.39462251E+03</pdfrwt>
<totfact> 0.20127023E+03</totfact>
</mgrwt>
</event>
<event>
 5    0  0.5993533E-001  0.2828798E+03  0.7546771E-02  0.1094126E+00
         21   -1    0    0  503  502  0.00000000000E+00  0.00000000000E+00  0.16065890569E+03  0.16065890569E+03  0.00000000000E+00 0. -1.
          2   -1    0    0  502    0 -0.00000000000E+00 -0.00000000000E+00 -0.63833161478E+03  0.63833161478E+03  0.00000000000E+00 0. -1.
         25    1    1    2    0    0  0.40512510209E+02 -0.26236639314E+03 -0.66543346297E+02  0.30088270916E+03  0.12500000000E+03 0.  0.
         21    1    1    2  503  501  0.10852040260E+02  0.17388869476E+02 -0.50947141268E+01  0.21120977048E+02  0.00000000000E+00 0.  1.
          2    1    1    2  501    0 -0.51364550468E+02  0.24497752367E+03 -0.40603464866E+03  0.47698683427E+03  0.00000000000E+00 0. -1.
<mgrwt>
<rscale>  4 0.28287977E+03</rscale>
<asrwt>0</asrwt>
<pdfrwt beam="1">  1       21 0.24716755E-01 0.28287977E+03</pdfrwt>
<pdfrwt beam="2">  1        2 0.98204864E-01 0.28287977E+03</pdfrwt>
<totfact> 0.89401656E+03</totfact>
</mgrwt>
</event>
<event>
 5    0  0.5993533E-001  0.2593398E+03  0.7546771E-02  0.1107541E+00
          3   -1    0    0  502    0 -0.00000000000E+00  0.00000000000E+00  0.66381593283E+02  0.66381593283E+02  0.00000000000E+00 0.  1.
         21   -1    0    0  503  502  0.00000000000E+00 -0.00000000000E+00 -0.19638550986E+04  0.19638550986E+04  0.00000000000E+00 0.  1.
         25    1    1    2    0    0 -0.86602496372E+02  0.21007646618E+03 -0.17034911158E+04  0.17231190022E+04  0.12500000000E+03 0.  0.
         21    1    1    2  503  501  0.41918175615E+02 -0.27719685520E+02 -0.37464523003E+02  0.62682572507E+02  0.00000000000E+00 0.  1.
          3    1    1    2  501    0  0.44684320757E+02 -0.18235678066E+03 -0.15651786644E+03  0.24443511714E+03  0.00000000000E+00 0.  1.
<mgrwt>
<rscale>  4 0.25933977E+03</rscale>
<asrwt>0</asrwt>
<pdfrwt beam="1">  1       21 0.30213157E+00 0.25933977E+03</pdfrwt>
<pdfrwt beam="2">  1        3 0.10212552E-01 0.25933977E+03</pdfrwt>
<totfact> 0.11103487E+02</totfact>
</mgrwt>
</event>
<event>
 5    0  0.5993533E-001  0.2624554E+03  0.7546771E-02  0.1105677E+00
          2   -1    0    0  502    0 -0.00000000000E+00  0.00000000000E+00  0.17166574563E+04  0.17166574563E+04  0.00000000000E+00 0. -1.
         21   -1    0    0  503  502  0.00000000000E+00 -0.00000000000E+00 -0.13964514624E+03  0.13964514624E+03  0.00000000000E+00 0.  1.
         25    1    1    2    0    0 -0.22618374133E+03 -0.80271035425E+02  0.16870588935E+02  0.27113122421E+03  0.12500000000E+03 0.  0.
         21    1    1    2  503  501  0.16152758177E+03  0.88779695775E+02  0.74641657329E+03  0.76883723566E+03  0.00000000000E+00 0.  1.
          2    1    1    2  501    0  0.64656159560E+02 -0.85086603502E+01  0.81372514779E+03  0.81633414263E+03  0.00000000000E+00 0. -1.
<mgrwt>
<rscale>  4 0.26245544E+03</rscale>
<asrwt>0</asrwt>
<pdfrwt beam="1">  1       21 0.21483870E-01 0.26245544E+03</pdfrwt>
<pdfrwt beam="2">  1        2 0.26410113E+00 0.26245544E+03</pdfrwt>
<totfact> 0.26372156E+03</totfact>
</mgrwt>
</event>
<event>
 5    0  0.5993533E-001  0.2975639E+03  0.7546771E-02  0.1086465E+00
         -1   -1    0    0    0  501 -0.00000000000E+00  0.00000000000E+00  0.17221546935E+03  0.17221546935E+03  0.00000000000E+00 0.  1.
         21   -1    0    0  501  502  0.00000000000E+00 -0.00000000000E+00 -0.48807877405E+03  0.48807877405E+03  0.00000000000E+00 0.  1.
         25    1    1    2    0    0  0.25854969343E+03  0.77918712120E+02 -0.22209733472E+03  0.37131051124E+03  0.12500000000E+03 0.  0.
         21    1    1    2  501  501 -0.24123942065E+02  0.12057786396E+01 -0.18325842830E+02  0.30319218300E+02  0.00000000000E+00 0. -1.
         -1    1    1    2    0  502 -0.23442575136E+03 -0.79124490760E+02 -0.75440127155E+02  0.25866451385E+03  0.00000000000E+00 0.  1.
<mgrwt>
<rscale>  4 0.29756389E+03</rscale>
<asrwt>0</asrwt>
<pdfrwt beam="1">  1       21 0.75089041E-01 0.29756389E+03</pdfrwt>
<pdfrwt beam="2">  1       -1 0.26494688E-01 0.29756389E+03</pdfrwt>
<totfact> 0.17697983E+03</totfact>
</mgrwt>
</event>
<event>
 5    0  0.5993533E-001  0.2407077E+03  0.7546771E-02  0.1119322E+00
          2   -1    0    0  502    0 -0.00000000000E+00  0.00000000000E+00  0.11359837983E+03  0.11359837983E+03  0.00000000000E+00 0.  1.
         21   -1    0    0  503  502  0.00000000000E+00 -0.00000000000E+00 -0.10846131139E+04  0.10846131139E+04  0.00000000000E+00 0.  1.
         25    1    1    2    0    0  0.10679555241E+03 -0.21964551523E+03 -0.82496612518E+03  0.86939263286E+03  0.12500000000E+03 0.  0.
         21    1    1    2  503  501  0.19294096502E+02  0.13190766573E+03 -0.30913788915E+02  0.13684866380E+03  0.00000000000E+00 0.  1.
          2    1    1    2  501    0 -0.12608964892E+03  0.87737849499E+02 -0.11513482002E+03  0.19197019711E+03  0.00000000000E+00 0.  1.
<mgrwt>
<rscale>  4 0.24070768E+03</rscale>
<asrwt>0</asrwt>
<pdfrwt beam="1">  1       21 0.16686356E+00 0.24070768E+03</pdfrwt>
<pdfrwt beam="2">  1        2 0.17476674E-01 0.24070768E+03</pdfrwt>
<totfact> 0.86759945E+02</totfact>
</mgrwt>
</event>
<event>
 5    0  0.5993533E-001  0.2391000E+03  0.7546771E-02  0.1120394E+00
         21   -1    0    0  503  502  0.00000000000E+00  0.00000000000E+00  0.25986110646E+03  0.25986110646E+03  0.00000000000E+00 0.  1.
          2   -1    0    0  502    0 -0.00000000000E+00 -0.00000000000E+00 -0.18854990487E+04  0.18854990487E+04  0.00000000000E+00 0. -1.
         25    1    1    2    0    0 -0.15373039493E+03 -0.13383115017E+03  0.19760512289E+03  0.31018800053E+03  0.12500000000E+03 0.  0.
         21    1    1    2  503  501  0.93179835404E+02  0.72150799586E+02 -0.85587949550E+03  0.86395481967E+03  0.00000000000E+00 0. -1.
          2    1    1    2  501    0  0.60550559531E+02  0.61680350579E+02 -0.96736356964E+03  0.97121733498E+03  0.00000000000E+00 0. -1.
<mgrwt>
<rscale>  4 0.23910000E+03</rscale>
<asrwt>0</asrwt>
<pdfrwt beam="1">  1       21 0.39978630E-01 0.23910000E+03</pdfrwt>
<pdfrwt beam="2">  1        2 0.29007679E+00 0.23910000E+03</pdfrwt>
<totfact> 0.64534222E+02</totfact>
</mgrwt>
</event>
<event>
 5    0  0.5993533E-001  0.4118644E+03  0.7546771E-02  0.1039747E+00
         21   -1    0    0  503  502  0.00000000000E+00  0.00000000000E+00  0.10740478371E+03  0.10740478371E+03  0.00000000000E+00 0.  1.
          2   -1    0    0  502    0 -0.00000000000E+00 -0.00000000000E+00 -0.21017800187E+04  0.21017800187E+04  0.00000000000E+00 0.  1.
         25    1    1    2    0    0  0.28732505361E+03 -0.26667608773E+03 -0.44828012558E+03  0.60848327273E+03  0.12500000000E+03 0.  0.
         21    1    1    2  503  501 -0.12687593247E+02 -0.15888789538E+02 -0.66893461127E+02  0.69915404575E+02  0.00000000000E+00 0. -1.
          2    1    1    2  501    0 -0.27463746036E+03  0.28256487727E+03 -0.14792016483E+04  0.15307861251E+04  0.00000000000E+00 0.  1.
<mgrwt>
<rscale>  4 0.41186436E+03</rscale>
<asrwt>0</asrwt>
<pdfrwt beam="1">  1       21 0.16523812E-01 0.41186436E+03</pdfrwt>
<pdfrwt beam="2">  1        2 0.32335079E+00 0.41186436E+03</pdfrwt>
<totfact> 0.25660712E+03</totfact>
</mgrwt>
</event>
<event>
 5    0  0.5993533E-001  0.3136289E+03  0.7546771E-02  0.1078619E+00
          2   -1    0    0  502    0 -0.00000000000E+00  0.00000000000E+00  0.93516091261E+03  0.93516091261E+03  0.00000000000E+00 0. -1.
         21   -1    0    0  503  502  0.00000000000E+00 -0.00000000000E+00 -0.97690626863E+02  0.97690626863E+02  0.00000000000E+00 0.  1.
         25    1    1    2    0    0  0.13698777827E+03  0.25292773957E+03  0.45615232409E+03  0.55356845612E+03  0.12500000000E+03 0.  0.
         21    1    1    2  503  501 -0.38114760510E+01 -0.22309402141E+02  0.18572685843E+02  0.29277660989E+02  0.00000000000E+00 0.  1.
          2    1    1    2  501    0 -0.13317630221E+03 -0.23061833743E+03  0.36274527581E+03  0.45000542236E+03  0.00000000000E+00 0. -1.
<mgrwt>
<rscale>  4 0.31362891E+03</rscale>
<asrwt>0</asrwt>
<pdfrwt beam="1">  1       21 0.15029328E-01 0.31362891E+03</pdfrwt>
<pdfrwt beam="2">  1        2 0.14387090E+00 0.31362891E+03</pdfrwt>
<totfact> 0.13940338E+04</totfact>
</mgrwt>
</event>
<event>
 5    0  0.5993533E-001  0.2625893E+03  0.7546771E-02  0.1105597E+00
         21   -1    0    0  503  502  0.00000000000E+00  0.00000000000E+00  0.14023896516E+03  0.14023896516E+03  0.00000000000E+00 0. -1.
          2   -1    0    0  502    0 -0.00000000000E+00 -0.00000000000E+00 -0.69815666894E+03  0.69815666894E+03  0.00000000000E+00 0. -1.
         25    1    1    2    0    0  0.22184287944E+03  0.20467839876E+02 -0.74773546541E+02  0.26617527851E+03  0.12500000000E+03 0.  0.
         21    1    1    2  503  501  0.30218635659E+02 -0.40264041565E+02 -0.11584196225E+03  0.12630803301E+03  0.00000000000E+00 0. -1.
          2    1    1    2  501    0 -0.25206151510E+03  0.19796201688E+02 -0.36730219499E+03  0.44591232259E+03  0.00000000000E+00 0. -1.
<mgrwt>
<rscale>  4 0.26258934E+03</rscale>
<asrwt>0</asrwt>
<pdfrwt beam="1">  1       21 0.21575225E-01 0.26258934E+03</pdfrwt>
<pdfrwt beam="2">  1        2 0.10740872E+00 0.26258934E+03</pdfrwt>
<totfact> 0.10449386E+04</totfact>
</mgrwt>
</event>
<event>
 5    0  0.5993533E-001  0.5356383E+03  0.7546771E-02  0.1004874E+00
          2   -1    0    0  502    0 -0.00000000000E+00  0.00000000000E+00  0.17458078128E+04  0.17458078128E+04  0.00000000000E+00 0.  1.
         21   -1    0    0  503  502  0.00000000000E+00 -0.00000000000E+00 -0.62119536977E+03  0.62119536977E+03  0.00000000000E+00 0. -1.
         25    1    1    2    0    0 -0.51628966622E+03  0.68762831516E+02 -0.45351592626E+03  0.70184402955E+03  0.12500000000E+03 0.  0.
         21    1    1    2  503  501  0.10651251041E+03  0.14636178237E+02  0.23475878456E+03  0.25820693158E+03  0.00000000000E+00 0. -1.
          2    1    1    2  501    0  0.40977715581E+03 -0.83399009753E+02  0.13433695847E+04  0.14069522214E+04  0.00000000000E+00 0.  1.
<mgrwt>
<rscale>  4 0.53563826E+03</rscale>
<asrwt>0</asrwt>
<pdfrwt beam="1">  1       21 0.95568519E-01 0.53563826E+03</pdfrwt>
<pdfrwt beam="2">  1        2 0.26858582E+00 0.53563826E+03</pdfrwt>
<totfact> 0.98759166E+01</totfact>
</mgrwt>
</event>
<event>
 5    0  0.5993533E-001  0.3088546E+03  0.7546771E-02  0.1080896E+00
         21   -1    0    0  503  502  0.00000000000E+00  0.00000000000E+00  0.14102777602E+03  0.14102777602E+03  0.00000000000E+00 0. -1.
          1   -1    0    0  502    0 -0.00000000000E+00 -0.00000000000E+00 -0.88806263328E+03  0.88806263328E+03  0.00000000000E+00 0. -1.
         25    1    1    2    0    0  0.16518281173E+03  0.22908694262E+03 -0.10632864728E+03  0.32664502109E+03  0.12500000000E+03 0.  0.
         21    1    1    2  503  501  0.17715110245E+01 -0.19952508960E+02 -0.36621893305E+02  0.41742112241E+02  0.00000000000E+00 0. -1.
          1    1    1    2  501    0 -0.16695432276E+03 -0.20913443366E+03 -0.60408431667E+03  0.66070327597E+03  0.00000000000E+00 0. -1.
<mgrwt>
<rscale>  4 0.30885464E+03</rscale>
<asrwt>0</asrwt>
<pdfrwt beam="1">  1       21 0.21696581E-01 0.30885464E+03</pdfrwt>
<pdfrwt beam="2">  1        1 0.13662502E+00 0.30885464E+03</pdfrwt>
<totfact> 0.41784391E+03</totfact>
</mgrwt>
</event>
<event>
 5    0  0.5993533E-001  0.2499059E+03  0.7546771E-02  0.1113364E+00
         21   -1    0    0  503  502  0.00000000000E+00  0.00000000000E+00  0.16422700710E+04  0.16422700710E+04  0.00000000000E+00 0.  1.
          1   -1    0    0  502    0 -0.00000000000E+00 -0.00000000000E+00 -0.34282277545E+02  0.34282277545E+02  0.00000000000E+00 0. -1.
         25    1    1    2    0    0  0.12209314788E+03 -0.17866505005E+03  0.73755283149E+03  0.77874072457E+03  0.12500000000E+03 0.  0.
         21    1    1    2  503  501 -0.33862101470E+02  0.38409774516E+02  0.27622568662E+03  0.28093163339E+03  0.00000000000E+00 0. -1.
          1    1    1    2  501    0 -0.88231046410E+02  0.14025527553E+03  0.59420927531E+03  0.61687999054E+03  0.00000000000E+00 0. -1.
<mgrwt>
<rscale>  4 0.24990586E+03</rscale>
<asrwt>0</asrwt>
<pdfrwt beam="1">  1       21 0.25265687E+00 0.24990586E+03</pdfrwt>
<pdfrwt beam="2">  1        1 0.52741978E-02 0.24990586E+03</pdfrwt>
<totfact> 0.10064984E+03</totfact>
</mgrwt>
</event>
<event>
 5    0  0.5993533E-001  0.4044230E+03  0.7546771E-02  0.1042259E+00
          2   -1    0    0  502    0 -0.00000000000E+00  0.00000000000E+00  0.21348285460E+04  0.21348285460E+04  0.00000000000E+00 0. -1.
         21   -1    0    0  503  502  0.00000000000E+00 -0.00000000000E+00 -0.35706380244E+03  0.35706380244E+03  0.00000000000E+00 0. -1.
         25    1    1    2    0    0 -0.35878227261E+03  0.15157248838E+03 -0.20535669127E+03  0.45770657524E+03  0.12500000000E+03 0.  0.
         21    1    1    2  503  501  0.56427653697E+02 -0.63571556345E+02  0.13574525216E+03  0.16016303057E+03  0.00000000000E+00 0.  1.
          2    1    1    2  501    0  0.30235461891E+03 -0.88000932030E+02  0.18473761827E+04  0.18740227426E+04  0.00000000000E+00 0. -1.
<mgrwt>
<rscale>  4 0.40442298E+03</rscale>
<asrwt>0</asrwt>
<pdfrwt beam="1">  1       21 0.54932894E-01 0.40442298E+03</pdfrwt>
<pdfrwt beam="2">  1        2 0.32843515E+00 0.40442298E+03</pdfrwt>
<totfact> 0.22553254E+02</totfact>
</mgrwt>
</event>
<event>
 5    0  0.5993533E-001  0.2125537E+03  0.7546771E-02  0.1139560E+00
          2   -1    0    0  502    0 -0.00000000000E+00  0.00000000000E+00  0.14194550166E+03  0.14194550166E+03  0.00000000000E+00 0. -1.
         21   -1    0    0  503  502  0.00000000000E+00 -0.00000000000E+00 -0.53474898675E+03  0.53474898675E+03  0.00000000000E+00 0. -1.
         25    1    1    2    0    0  0.19268453305E+03 -0.64617976262E+02 -0.38867239484E+03  0.45606363881E+03  0.12500000000E+03 0.  0.
         21    1    1    2  503  501 -0.38784276185E+02  0.30772981625E+00 -0.33522249687E+02  0.51264568670E+02  0.00000000000E+00 0. -1.
          2    1    1    2  501    0 -0.15390025687E+03  0.64310246446E+02  0.29391159436E+02  0.16936628093E+03  0.00000000000E+00 0. -1.
<mgrwt>
<rscale>  4 0.21255367E+03</rscale>
<asrwt>0</asrwt>
<pdfrwt beam="1">  1       21 0.82269076E-01 0.21255367E+03</pdfrwt>
<pdfrwt beam="2">  1        2 0.21837769E-01 0.21255367E+03</pdfrwt>
<totfact> 0.39419886E+03</totfact>
</mgrwt>
</event>
<event>
 5    0  0.5993533E-001  0.2686078E+03  0.7546771E-02  0.1102079E+00
          2   -1    0    0  502    0 -0.00000000000E+00  0.00000000000E+00  0.32008418737E+04  0.32008418737E+04  0.00000000000E+00 0. -1.
         21   -1    0    0  503  502  0.00000000000E+00 -0.00000000000E+00 -0.23293510656E+02  0.23293510656E+02  0.00000000000E+00 0.  1.
         25    1    1    2    0    0 -0.23326234643E+03  0.45976255079E+02  0.11866689790E+04  0.12166895266E+04  0.12500000000E+03 0.  0.
         21    1    1    2  503  501  0.77793033634E+02  0.18218024699E+02  0.41546317694E+03  0.42307600251E+03  0.00000000000E+00 0. -1.
          2    1    1    2  501    0  0.15546931279E+03 -0.64194279777E+02  0.15754162071E+04  0.15843698553E+04  0.00000000000E+00 0. -1.
<mgrwt>
<rscale>  4 0.26860778E+03</rscale>
<asrwt>0</asrwt>
<pdfrwt beam="1">  1       21 0.35836196E-02 0.26860778E+03</pdfrwt>
<pdfrwt beam="2">  1        2 0.49243686E+00 0.26860778E+03</pdfrwt>
<totfact> 0.94633255E+03</totfact>
</mgrwt>
</event>
<event>
 5    0  0.5993533E-001  0.2444342E+03  0.7546771E-02  0.1116874E+00
         21   -1    0    0  503  502  0.00000000000E+00  0.00000000000E+00  0.90251179683E+03  0.90251179683E+03  0.00000000000E+00 0.  1.
          2   -1    0    0  502    0 -0.00000000000E+00 -0.00000000000E+00 -0.27761852102E+04  0.27761852102E+04  0.00000000000E+00 0.  1.
         25    1    1    2    0    0 -0.17393111859E+03  0.11807525530E+03  0.87308706806E+03  0.90669720875E+03  0.12500000000E+03 0.  0.
         21    1    1    2  503  501 -0.46023021427E+01 -0.54869760134E+02 -0.72488960449E+02  0.91030330929E+02  0.00000000000E+00 0.  1.
          2    1    1    2  501    0  0.17853342073E+03 -0.63205495168E+02 -0.26742715209E+04  0.26809694673E+04  0.00000000000E+00 0.  1.
<mgrwt>
<rscale>  4 0.24443422E+03</rscale>
<asrwt>0</asrwt>
<pdfrwt beam="1">  1       21 0.13884797E+00 0.24443422E+03</pdfrwt>
<pdfrwt beam="2">  1        2 0.42710542E+00 0.24443422E+03</pdfrwt>
<totfact> 0.12664928E+01</totfact>
</mgrwt>
</event>
<event>
 5    0  0.5993533E-001  0.2465369E+03  0.7546771E-02  0.1115513E+00
          2   -1    0    0  502    0 -0.00000000000E+00  0.00000000000E+00  0.17382260526E+04  0.17382260526E+04  0.00000000000E+00 0. -1.
         21   -1    0    0  503  502  0.00000000000E+00 -0.00000000000E+00 -0.36553906217E+02  0.36553906217E+02  0.00000000000E+00 0. -1.
         25    1    1    2    0    0 -0.22377851765E+03 -0.37325023814E+02  0.84099282851E+03  0.87997949975E+03  0.12500000000E+03 0.  0.
         21    1    1    2  503  501  0.21169093835E+02  0.17555152827E+02  0.35637528932E+02  0.45014968543E+02  0.00000000000E+00 0. -1.
          2    1    1    2  501    0  0.20260942381E+03  0.19769870987E+02  0.82504178896E+03  0.84978549055E+03  0.00000000000E+00 0. -1.
<mgrwt>
<rscale>  4 0.24653689E+03</rscale>
<asrwt>0</asrwt>
<pdfrwt beam="1">  1       21 0.56236792E-02 0.24653689E+03</pdfrwt>
<pdfrwt beam="2">  1        2 0.26741933E+00 0.24653689E+03</pdfrwt>
<totfact> 0.28612124E+04</totfact>
</mgrwt>
</event>
<event>
 5    0  0.5993533E-001  0.2497766E+03  0.7546771E-02  0.1113446E+00
         21   -1    0    0  503  502  0.00000000000E+00  0.00000000000E+00  0.22836347271E+02  0.22836347271E+02  0.00000000000E+00 0.  1.
          2   -1    0    0  502    0 -0.00000000000E+00 -0.00000000000E+00 -0.26324247736E+04  0.26324247736E+04  0.00000000000E+00 0.  1.
         25    1    1    2    0    0 -0.21085569239E+03  0.47991786135E+02 -0.17251838153E+04  0.17431716872E+04  0.12500000000E+03 0.  0.
         21    1    1    2  503  501  0.24807349863E+02 -0.15855474220E+02 -0.67342469911E+02  0.73496999420E+02  0.00000000000E+00 0.  1.
          2    1    1    2  501    0  0.18604834252E+03 -0.32136311915E+02 -0.81706214104E+03  0.83859243415E+03  0.00000000000E+00 0.  1.
<mgrwt>
<rscale>  4 0.24977657E+03</rscale>
<asrwt>0</asrwt>
<pdfrwt beam="1">  1       21 0.35132835E-02 0.24977657E+03</pdfrwt>
<pdfrwt beam="2">  1        2 0.40498851E+00 0.24977657E+03</pdfrwt>
<totfact> 0.21161214E+04</totfact>
</mgrwt>
</event>
<event>
 5    0  0.5993533E-001  0.2415369E+03  0.7546771E-02  0.1118773E+00
         21   -1    0    0  503  502  0.00000000000E+00  0.00000000000E+00  0.23550336518E+03  0.23550336518E+03  0.00000000000E+00 0.  1.
          3   -1    0    0  502    0 -0.00000000000E+00 -0.00000000000E+00 -0.34197343329E+03  0.34197343329E+03  0.00000000000E+00 0.  1.
         25    1    1    2    0    0 -0.64175000979E+02 -0.19646023332E+03 -0.22165189067E+03  0.32782558574E+03  0.12500000000E+03 0.  0.
         21    1    1    2  503  501  0.23954492665E+02  0.17353711412E+03  0.92302506327E+02  0.19801186927E+03  0.00000000000E+00 0.  1.
          3    1    1    2  501    0  0.40220508314E+02  0.22923119199E+02  0.22879316231E+02  0.51639343470E+02  0.00000000000E+00 0.  1.
<mgrwt>
<rscale>  4 0.24153686E+03</rscale>
<asrwt>0</asrwt>
<pdfrwt beam="1">  1       21 0.36231287E-01 0.24153686E+03</pdfrwt>
<pdfrwt beam="2">  1        3 0.52611297E-01 0.24153686E+03</pdfrwt>
<totfact> 0.13030176E+03</totfact>
</mgrwt>
</event>
<event>
 5    0  0.5993533E-001  0.2182926E+03  0.7546771E-02  0.1135162E+00
          2   -1    0    0  502    0 -0.00000000000E+00  0.00000000000E+00  0.14761428355E+04  0.14761428355E+04  0.00000000000E+00 0.  1.
         21   -1    0    0  503  502  0.00000000000E+00 -0.00000000000E+00 -0.10329984902E+03  0.10329984902E+03  0.00000000000E+00 0.  1.
         25    1    1    2    0    0  0.13710717597E+03  0.14829525010E+03  0.63082189225E+02  0.24575235808E+03  0.12500000000E+03 0.  0.
         21    1    1    2  503  501 -0.65204821742E+01 -0.28133638989E+02  0.29841985131E+02  0.41527850981E+02  0.00000000000E+00 0.  1.
          2    1    1    2  501    0 -0.13058669380E+03 -0.12016161111E+03  0.12799188122E+04  0.12921624755E+04  0.00000000000E+00 0.  1.
<mgrwt>
<rscale>  4 0.21829262E+03</rscale>
<asrwt>0</asrwt>
<pdfrwt beam="1">  1       21 0.15892285E-01 0.21829262E+03</pdfrwt>
<pdfrwt beam="2">  1        2 0.22709888E+00 0.21829262E+03</pdfrwt>
<totfact> 0.63116306E+03</totfact>
</mgrwt>
</event>
<event>
 5    0  0.5993533E-001  0.2806592E+03  0.7546771E-02  0.1095329E+00
          1   -1    0    0  502    0 -0.00000000000E+00  0.00000000000E+00  0.12148198632E+04  0.12148198632E+04  0.00000000000E+00 0. -1.
         21   -1    0    0  503  502  0.00000000000E+00 -0.00000000000E+00 -0.43346829077E+03  0.43346829077E+03  0.00000000000E+00 0.  1.
         25    1    1    2    0    0 -0.87640261206E+02  0.23923690369E+03 -0.36663528422E+03  0.46363945379E+03  0.12500000000E+03 0.  0.
         21    1    1    2  503  501  0.23149859830E+02 -0.20586138739E+03  0.67356545398E+03  0.70470224040E+03  0.00000000000E+00 0. -1.
          1    1    1    2  501    0  0.64490401376E+02 -0.33375516304E+02  0.47442140270E+03  0.47994645982E+03  0.00000000000E+00 0. -1.
<mgrwt>
<rscale>  4 0.28065923E+03</rscale>
<asrwt>0</asrwt>
<pdfrwt beam="1">  1       21 0.66687430E-01 0.28065923E+03</pdfrwt>
<pdfrwt beam="2">  1        1 0.18689536E+00 0.28065923E+03</pdfrwt>
<totfact> 0.24582419E+02</totfact>
</mgrwt>
</event>
<event>
 5    0  0.5993533E-001  0.2493485E+03  0.7546771E-02  0.1113717E+00
          2   -1    0    0  502    0 -0.00000000000E+00  0.00000000000E+00  0.21475815660E+04  0.21475815660E+04  0.00000000000E+00 0. -1.
         21   -1    0    0  503  502  0.00000000000E+00 -0.00000000000E+00 -0.63314545689E+02  0.63314545689E+02  0.00000000000E+00 0.  1.
         25    1    1    2    0    0  0.83964352133E+02  0.19412037392E+03  0.24425945756E+03  0.34643962621E+03  0.12500000000E+03 0.  0.
         21    1    1    2  503  501  0.54876528177E+02  0.48201088601E+00  0.52837160490E+03  0.53121391035E+03  0.00000000000E+00 0.  1.
          2    1    1    2  501    0 -0.13884088031E+03 -0.19460238481E+03  0.13116359579E+04  0.13332425751E+04  0.00000000000E+00 0. -1.
<mgrwt>
<rscale>  4 0.24934847E+03</rscale>
<asrwt>0</asrwt>
<pdfrwt beam="1">  1       21 0.97407010E-02 0.24934847E+03</pdfrwt>
<pdfrwt beam="2">  1        2 0.33039711E+00 0.24934847E+03</pdfrwt>
<totfact> 0.66908018E+03</totfact>
</mgrwt>
</event>
<event>
 5    0  0.5993533E-001  0.2399147E+03  0.7546771E-02  0.1119850E+00
          2   -1    0    0  502    0 -0.00000000000E+00  0.00000000000E+00  0.43440244887E+04  0.43440244887E+04  0.00000000000E+00 0. -1.
         21   -1    0    0  503  502  0.00000000000E+00 -0.00000000000E+00 -0.49736545276E+02  0.49736545276E+02  0.00000000000E+00 0. -1.
         25    1    1    2    0    0  0.20110901703E+03 -0.38590481221E+02  0.25911185642E+03  0.35312606263E+03  0.12500000000E+03 0.  0.
         21    1    1    2  503  501 -0.22880367055E+02  0.13248438478E+02  0.31579965493E+03  0.31690448777E+03  0.00000000000E+00 0. -1.
          2    1    1    2  501    0 -0.17822864997E+03  0.25342042743E+02  0.37193764320E+04  0.37237304835E+04  0.00000000000E+00 0. -1.
<mgrwt>
<rscale>  4 0.23991470E+03</rscale>
<asrwt>0</asrwt>
<pdfrwt beam="1">  1       21 0.76517796E-02 0.23991470E+03</pdfrwt>
<pdfrwt beam="2">  1        2 0.66831116E+00 0.23991470E+03</pdfrwt>
<totfact> 0.39319416E+02</totfact>
</mgrwt>
</event>
<event>
 5    0  0.5993533E-001  0.2273775E+03  0.7546771E-02  0.1128499E+00
         -1   -1    0    0    0  501 -0.00000000000E+00  0.00000000000E+00  0.58138637994E+03  0.58138637994E+03  0.00000000000E+00 0.  1.
         21   -1    0    0  501  502  0.00000000000E+00 -0.00000000000E+00 -0.16746962260E+03  0.16746962260E+03  0.00000000000E+00 0. -1.
         25    1    1    2    0    0 -0.19797068674E+03  0.48651553647E+02  0.10272811002E+02  0.23935308046E+03  0.12500000000E+03 0.  0.
         21    1    1    2  501  501  0.29707631171E+02 -0.12010444321E+03  0.12217697350E+03  0.17388166516E+03  0.00000000000E+00 0.  1.
         -1    1    1    2    0  502  0.16826305557E+03  0.71452889559E+02  0.28146697284E+03  0.33562125692E+03  0.00000000000E+00 0.  1.
<mgrwt>
<rscale>  4 0.22737748E+03</rscale>
<asrwt>0</asrwt>
<pdfrwt beam="1">  1       21 0.25764558E-01 0.22737748E+03</pdfrwt>
<pdfrwt beam="2">  1       -1 0.89444058E-01 0.22737748E+03</pdfrwt>
<totfact> 0.17047947E+03</totfact>
</mgrwt>
</event>
<event>
 5    0  0.5993533E-001  0.2583439E+03  0.7546771E-02  0.1108142E+00
         21   -1    0    0  503  502  0.00000000000E+00  0.00000000000E+00  0.35569995565E+03  0.35569995565E+03  0.00000000000E+00 0.  1.
          2   -1    0    0  502    0 -0.00000000000E+00 -0.00000000000E+00 -0.21026005555E+03  0.21026005555E+03  0.00000000000E+00 0.  1.
         25    1    1    2    0    0 -0.37231653590E+02  0.22300310134E+03  0.20410387891E+03  0.32924151109E+03  0.12500000000E+03 0.  0.
         21    1    1    2  503  501  0.12956369562E+02 -0.23103150575E+02  0.15688737175E+01  0.26534589566E+02  0.00000000000E+00 0.  1.
          2    1    1    2  501    0  0.24275284029E+02 -0.19989995077E+03 -0.60232852522E+02  0.21018391055E+03  0.00000000000E+00 0.  1.
<mgrwt>
<rscale>  4 0.25834392E+03</rscale>
<asrwt>0</asrwt>
<pdfrwt beam="1">  1       21 0.54723070E-01 0.25834392E+03</pdfrwt>
<pdfrwt beam="2">  1        2 0.32347701E-01 0.25834392E+03</pdfrwt>
<totfact> 0.61689701E+03</totfact>
</mgrwt>
</event>
<event>
 5    0  0.5993533E-001  0.3965653E+03  0.7546771E-02  0.1045931E+00
         -2   -1    0    0    0  501 -0.00000000000E+00  0.00000000000E+00  0.61329168866E+03  0.61329168866E+03  0.00000000000E+00 0.  1.
         21   -1    0    0  501  502  0.00000000000E+00 -0.00000000000E+00 -0.25712214931E+03  0.25712214931E+03  0.00000000000E+00 0.  1.
         25    1    1    2    0    0  0.30291731815E+02  0.36374021049E+03  0.10087747447E+03  0.39878038392E+03  0.12500000000E+03 0.  0.
         21    1    1    2  501  501  0.92725638601E+01 -0.17619075153E+03  0.35442880977E+02  0.17995932645E+03  0.00000000000E+00 0.  1.
         -2    1    1    2    0  502 -0.39564295675E+02 -0.18754945895E+03  0.21984918391E+03  0.29167412760E+03  0.00000000000E+00 0.  1.
<mgrwt>
<rscale>  4 0.39384878E+03</rscale>
<asrwt>0</asrwt>
<pdfrwt beam="1">  1       21 0.39557254E-01 0.39656535E+03</pdfrwt>
<pdfrwt beam="2">  1       -2 0.94352567E-01 0.39656535E+03</pdfrwt>
<totfact> 0.46781255E+02</totfact>
</mgrwt>
</event>
