<event>
 4    0  0.1264838E-002  0.4554817E+03  0.7546771E-02  0.1026100E+00
         -2   -1    0    0    0  501 -0.00000000000E+00  0.00000000000E+00  0.12472569367E+03  0.12472569367E+03  0.00000000000E+00 0.  1.
          2   -1    0    0  502    0  0.00000000000E+00 -0.00000000000E+00 -0.41583962943E+03  0.41583962943E+03  0.00000000000E+00 0. -1.
         25    1    1    2    0    0  0.60771876148E+00 -0.20092044843E+03 -0.81664666450E+02  0.25032681371E+03  0.12500000000E+03 0.  0.
         21    1    1    2  502  501 -0.60771876148E+00  0.20092044843E+03 -0.20944926931E+03  0.29023850939E+03  0.00000000000E+00 0. -1.
<mgrwt>
<rscale>  3 0.45548166E+03</rscale>
<asrwt>0</asrwt>
<pdfrwt beam="1">  1        2 0.63975329E-01 0.45548166E+03</pdfrwt>
<pdfrwt beam="2">  1       -2 0.19188568E-01 0.45548166E+03</pdfrwt>
<totfact> 0.17376776E+03</totfact>
</mgrwt>
</event>
<event>
 4    0  0.1264838E-002  0.1396014E+04  0.7546771E-02  0.8956709E-01
         -2   -1    0    0    0  501 -0.00000000000E+00  0.00000000000E+00  0.26343363026E+03  0.26343363026E+03  0.00000000000E+00 0. -1.
          2   -1    0    0  502    0  0.00000000000E+00 -0.00000000000E+00 -0.18494747173E+04  0.18494747173E+04  0.00000000000E+00 0.  1.
         25    1    1    2    0    0 -0.14484753564E+03 -0.66294129845E+03 -0.59096894438E+03  0.90848294811E+03  0.12500000000E+03 0.  0.
         21    1    1    2  502  501  0.14484753564E+03  0.66294129845E+03 -0.99507214269E+03  0.12044253995E+04  0.00000000000E+00 0.  1.
<mgrwt>
<rscale>  3 0.13960141E+04</rscale>
<asrwt>0</asrwt>
<pdfrwt beam="1">  1        2 0.28453458E+00 0.13960141E+04</pdfrwt>
<pdfrwt beam="2">  1       -2 0.40528250E-01 0.13960141E+04</pdfrwt>
<totfact> 0.45461302E+01</totfact>
</mgrwt>
</event>
<event>
 4    0  0.1264838E-002  0.8290147E+03  0.7546771E-02  0.9518944E-01
          2   -1    0    0  502    0  0.00000000000E+00  0.00000000000E+00  0.12724828235E+04  0.12724828235E+04  0.00000000000E+00 0.  1.
         -2   -1    0    0    0  501 -0.00000000000E+00 -0.00000000000E+00 -0.13502447469E+03  0.13502447469E+03  0.00000000000E+00 0. -1.
         25    1    1    2    0    0 -0.32600486419E+03  0.40536323152E+02  0.98404417230E+03  0.10449355473E+04  0.12500000000E+03 0.  0.
         21    1    1    2  502  501  0.32600486419E+03 -0.40536323152E+02  0.15341417647E+03  0.36257175085E+03  0.00000000000E+00 0. -1.
<mgrwt>
<rscale>  3 0.82901466E+03</rscale>
<asrwt>0</asrwt>
<pdfrwt beam="1">  1        2 0.19576658E+00 0.82901466E+03</pdfrwt>
<pdfrwt beam="2">  1       -2 0.20772997E-01 0.82901466E+03</pdfrwt>
<totfact> 0.34433915E+02</totfact>
</mgrwt>
</event>
<event>
 4    0  0.1264838E-002  0.8360721E+03  0.7546771E-02  0.9509224E-01
         -2   -1    0    0    0  501 -0.00000000000E+00  0.00000000000E+00  0.68726179565E+03  0.68726179565E+03  0.00000000000E+00 0.  1.
          2   -1    0    0  502    0  0.00000000000E+00 -0.00000000000E+00 -0.25427592930E+03  0.25427592930E+03  0.00000000000E+00 0. -1.
         25    1    1    2    0    0  0.85031105388E+02 -0.35057695973E+03  0.43764114253E+03  0.58076610027E+03  0.12500000000E+03 0.  0.
         21    1    1    2  502  501 -0.85031105388E+02  0.35057695973E+03 -0.46552761838E+01  0.36077162468E+03  0.00000000000E+00 0. -1.
<mgrwt>
<rscale>  3 0.83607208E+03</rscale>
<asrwt>0</asrwt>
<pdfrwt beam="1">  1        2 0.39119374E-01 0.83607208E+03</pdfrwt>
<pdfrwt beam="2">  1       -2 0.10573258E+00 0.83607208E+03</pdfrwt>
<totfact> 0.96012102E+01</totfact>
</mgrwt>
</event>
<event>
 4    0  0.1264838E-002  0.5798128E+03  0.7546771E-02  0.9948196E-01
         -2   -1    0    0    0  501 -0.00000000000E+00  0.00000000000E+00  0.22349653433E+03  0.22349653433E+03  0.00000000000E+00 0.  1.
          2   -1    0    0  502    0  0.00000000000E+00 -0.00000000000E+00 -0.37604935652E+03  0.37604935652E+03  0.00000000000E+00 0. -1.
         25    1    1    2    0    0 -0.23174154202E+03  0.88863458078E+02  0.46033209247E+02  0.28168229059E+03  0.12500000000E+03 0.  0.
         21    1    1    2  502  501  0.23174154202E+03 -0.88863458078E+02 -0.19858603144E+03  0.31786360025E+03  0.00000000000E+00 0. -1.
<mgrwt>
<rscale>  3 0.57981282E+03</rscale>
<asrwt>0</asrwt>
<pdfrwt beam="1">  1        2 0.57853747E-01 0.57981282E+03</pdfrwt>
<pdfrwt beam="2">  1       -2 0.34384082E-01 0.57981282E+03</pdfrwt>
<totfact> 0.67962701E+02</totfact>
</mgrwt>
</event>
<event>
 4    0  0.1264838E-002  0.7629099E+03  0.7546771E-02  0.9615312E-01
          4   -1    0    0  502    0  0.00000000000E+00  0.00000000000E+00  0.46030728268E+03  0.46030728268E+03  0.00000000000E+00 0.  1.
         -4   -1    0    0    0  501 -0.00000000000E+00 -0.00000000000E+00 -0.31611030064E+03  0.31611030064E+03  0.00000000000E+00 0. -1.
         25    1    1    2    0    0 -0.28436567725E+03  0.23519123692E+03  0.33053420521E+02  0.39101954546E+03  0.12500000000E+03 0.  0.
         21    1    1    2  502  501  0.28436567725E+03 -0.23519123692E+03  0.11114356151E+03  0.38539803786E+03  0.00000000000E+00 0.  1.
<mgrwt>
<rscale>  3 0.76290989E+03</rscale>
<asrwt>0</asrwt>
<pdfrwt beam="1">  1        4 0.70816505E-01 0.76290989E+03</pdfrwt>
<pdfrwt beam="2">  1       -4 0.48632354E-01 0.76290989E+03</pdfrwt>
<totfact> 0.14826260E+01</totfact>
</mgrwt>
</event>
<event>
 4    0  0.1264838E-002  0.5009700E+03  0.7546771E-02  0.1013526E+00
          2   -1    0    0  502    0  0.00000000000E+00  0.00000000000E+00  0.24387391825E+04  0.24387391825E+04  0.00000000000E+00 0.  1.
         -2   -1    0    0    0  501 -0.00000000000E+00 -0.00000000000E+00 -0.25727531595E+02  0.25727531595E+02  0.00000000000E+00 0. -1.
         25    1    1    2    0    0  0.13692203247E+03 -0.17166119649E+03  0.87126498614E+03  0.90716199515E+03  0.12500000000E+03 0.  0.
         21    1    1    2  502  501 -0.13692203247E+03  0.17166119649E+03  0.15417466647E+04  0.15573047189E+04  0.00000000000E+00 0.  1.
<mgrwt>
<rscale>  3 0.50097002E+03</rscale>
<asrwt>0</asrwt>
<pdfrwt beam="1">  1        2 0.37519046E+00 0.50097002E+03</pdfrwt>
<pdfrwt beam="2">  1       -2 0.39580837E-02 0.50097002E+03</pdfrwt>
<totfact> 0.11808533E+03</totfact>
</mgrwt>
</event>
<event>
 4    0  0.1264838E-002  0.4771548E+03  0.7546771E-02  0.1019920E+00
         -1   -1    0    0    0  501 -0.00000000000E+00  0.00000000000E+00  0.37929051661E+02  0.37929051661E+02  0.00000000000E+00 0.  1.
          1   -1    0    0  502    0  0.00000000000E+00 -0.00000000000E+00 -0.15006751317E+04  0.15006751317E+04  0.00000000000E+00 0. -1.
         25    1    1    2    0    0 -0.15471613558E+03  0.15649184862E+03 -0.68228440228E+03  0.72771133486E+03  0.12500000000E+03 0.  0.
         21    1    1    2  502  501  0.15471613558E+03 -0.15649184862E+03 -0.78046167778E+03  0.81089284852E+03  0.00000000000E+00 0.  1.
<mgrwt>
<rscale>  3 0.47715484E+03</rscale>
<asrwt>0</asrwt>
<pdfrwt beam="1">  1        1 0.23087309E+00 0.47715484E+03</pdfrwt>
<pdfrwt beam="2">  1       -1 0.58352389E-02 0.47715484E+03</pdfrwt>
<totfact> 0.98504525E+02</totfact>
</mgrwt>
</event>
<event>
 4    0  0.1264838E-002  0.4422439E+03  0.7546771E-02  0.1030061E+00
         -1   -1    0    0    0  501 -0.00000000000E+00  0.00000000000E+00  0.74463437452E+02  0.74463437452E+02  0.00000000000E+00 0.  1.
          1   -1    0    0  502    0  0.00000000000E+00 -0.00000000000E+00 -0.65662993095E+03  0.65662993095E+03  0.00000000000E+00 0. -1.
         25    1    1    2    0    0 -0.14087798190E+03 -0.14511166905E+03 -0.27772577808E+03  0.36559623916E+03  0.12500000000E+03 0.  0.
         21    1    1    2  502  501  0.14087798190E+03  0.14511166905E+03 -0.30444071542E+03  0.36549712924E+03  0.00000000000E+00 0. -1.
<mgrwt>
<rscale>  3 0.44224392E+03</rscale>
<asrwt>0</asrwt>
<pdfrwt beam="1">  1        1 0.10101999E+00 0.44224392E+03</pdfrwt>
<pdfrwt beam="2">  1       -1 0.11455913E-01 0.44224392E+03</pdfrwt>
<totfact> 0.15282097E+03</totfact>
</mgrwt>
</event>
<event>
 4    0  0.1264838E-002  0.5528907E+03  0.7546771E-02  0.1000827E+00
         -1   -1    0    0    0  501 -0.00000000000E+00  0.00000000000E+00  0.29674243705E+02  0.29674243705E+02  0.00000000000E+00 0.  1.
          1   -1    0    0  502    0  0.00000000000E+00 -0.00000000000E+00 -0.25753658462E+04  0.25753658462E+04  0.00000000000E+00 0. -1.
         25    1    1    2    0    0 -0.42179263402E+02  0.25884181340E+03 -0.13116626794E+04  0.13434515843E+04  0.12500000000E+03 0.  0.
         21    1    1    2  502  501  0.42179263402E+02 -0.25884181340E+03 -0.12340289231E+04  0.12615885056E+04  0.00000000000E+00 0.  1.
<mgrwt>
<rscale>  3 0.55289071E+03</rscale>
<asrwt>0</asrwt>
<pdfrwt beam="1">  1        1 0.39621026E+00 0.55289071E+03</pdfrwt>
<pdfrwt beam="2">  1       -1 0.45652668E-02 0.55289071E+03</pdfrwt>
<totfact> 0.27298516E+02</totfact>
</mgrwt>
</event>
<event>
 4    0  0.1264838E-002  0.5173450E+03  0.7546771E-02  0.1009348E+00
         -1   -1    0    0    0  501 -0.00000000000E+00  0.00000000000E+00  0.27382633920E+02  0.27382633920E+02  0.00000000000E+00 0.  1.
          1   -1    0    0  502    0  0.00000000000E+00 -0.00000000000E+00 -0.24435724464E+04  0.24435724464E+04  0.00000000000E+00 0. -1.
         25    1    1    2    0    0  0.69730339697E+02  0.19755170523E+03 -0.18720672738E+04  0.18878956205E+04  0.12500000000E+03 0.  0.
         21    1    1    2  502  501 -0.69730339697E+02 -0.19755170523E+03 -0.54412253874E+03  0.58305945982E+03  0.00000000000E+00 0.  1.
<mgrwt>
<rscale>  3 0.51734495E+03</rscale>
<asrwt>0</asrwt>
<pdfrwt beam="1">  1        1 0.37593424E+00 0.51734495E+03</pdfrwt>
<pdfrwt beam="2">  1       -1 0.42127127E-02 0.51734495E+03</pdfrwt>
<totfact> 0.38029369E+02</totfact>
</mgrwt>
</event>
<event>
 4    0  0.1264838E-002  0.6506376E+03  0.7546771E-02  0.9805583E-01
         -2   -1    0    0    0  501 -0.00000000000E+00  0.00000000000E+00  0.50637452269E+03  0.50637452269E+03  0.00000000000E+00 0. -1.
          2   -1    0    0  502    0  0.00000000000E+00 -0.00000000000E+00 -0.20900011861E+03  0.20900011861E+03  0.00000000000E+00 0.  1.
         25    1    1    2    0    0 -0.25612924082E+03 -0.12620393298E+03  0.12368160381E+02  0.31194164854E+03  0.12500000000E+03 0.  0.
         21    1    1    2  502  501  0.25612924082E+03  0.12620393298E+03  0.28500624371E+03  0.40343299277E+03  0.00000000000E+00 0. -1.
<mgrwt>
<rscale>  3 0.65063764E+03</rscale>
<asrwt>0</asrwt>
<pdfrwt beam="1">  1        2 0.32153864E-01 0.65063764E+03</pdfrwt>
<pdfrwt beam="2">  1       -2 0.77903773E-01 0.65063764E+03</pdfrwt>
<totfact> 0.24399395E+02</totfact>
</mgrwt>
</event>
<event>
 4    0  0.1264838E-002  0.6967395E+03  0.7546771E-02  0.9722824E-01
          2   -1    0    0  502    0  0.00000000000E+00  0.00000000000E+00  0.21569732379E+04  0.21569732379E+04  0.00000000000E+00 0.  1.
         -2   -1    0    0    0  501 -0.00000000000E+00 -0.00000000000E+00 -0.56264706811E+02  0.56264706811E+02  0.00000000000E+00 0. -1.
         25    1    1    2    0    0  0.23139669549E+03 -0.23307864212E+03  0.84214577730E+03  0.91252648965E+03  0.12500000000E+03 0.  0.
         21    1    1    2  502  501 -0.23139669549E+03  0.23307864212E+03  0.12585627538E+04  0.13007114551E+04  0.00000000000E+00 0. -1.
<mgrwt>
<rscale>  3 0.69673945E+03</rscale>
<asrwt>0</asrwt>
<pdfrwt beam="1">  1        2 0.33184197E+00 0.69673945E+03</pdfrwt>
<pdfrwt beam="2">  1       -2 0.86561104E-02 0.69673945E+03</pdfrwt>
<totfact> 0.48847321E+02</totfact>
</mgrwt>
</event>
<event>
 4    0  0.1264838E-002  0.4968725E+03  0.7546771E-02  0.1014598E+00
          2   -1    0    0  502    0  0.00000000000E+00  0.00000000000E+00  0.43492575075E+03  0.43492575075E+03  0.00000000000E+00 0.  1.
         -2   -1    0    0    0  501 -0.00000000000E+00 -0.00000000000E+00 -0.14191056567E+03  0.14191056567E+03  0.00000000000E+00 0. -1.
         25    1    1    2    0    0 -0.14584251822E+03 -0.18112887510E+03  0.16600498217E+03  0.31186593854E+03  0.12500000000E+03 0.  0.
         21    1    1    2  502  501  0.14584251822E+03  0.18112887510E+03  0.12701020291E+03  0.26497037789E+03  0.00000000000E+00 0.  1.
<mgrwt>
<rscale>  3 0.49687246E+03</rscale>
<asrwt>0</asrwt>
<pdfrwt beam="1">  1        2 0.66911653E-01 0.49687246E+03</pdfrwt>
<pdfrwt beam="2">  1       -2 0.21832395E-01 0.49687246E+03</pdfrwt>
<totfact> 0.13208733E+03</totfact>
</mgrwt>
</event>
<event>
 4    0  0.1264838E-002  0.8532654E+03  0.7546771E-02  0.9485965E-01
          2   -1    0    0  502    0  0.00000000000E+00  0.00000000000E+00  0.21390911431E+04  0.21390911431E+04  0.00000000000E+00 0.  1.
         -2   -1    0    0    0  501 -0.00000000000E+00 -0.00000000000E+00 -0.85090085019E+02  0.85090085019E+02  0.00000000000E+00 0. -1.
         25    1    1    2    0    0  0.37641033987E+03  0.18050182473E+03  0.10610223872E+04  0.11470218650E+04  0.12500000000E+03 0.  0.
         21    1    1    2  502  501 -0.37641033987E+03 -0.18050182473E+03  0.99297867082E+03  0.10771593630E+04  0.00000000000E+00 0. -1.
<mgrwt>
<rscale>  3 0.85326537E+03</rscale>
<asrwt>0</asrwt>
<pdfrwt beam="1">  1        2 0.32909091E+00 0.85326537E+03</pdfrwt>
<pdfrwt beam="2">  1       -2 0.13090784E-01 0.85326537E+03</pdfrwt>
<totfact> 0.25065277E+02</totfact>
</mgrwt>
</event>
<event>
 4    0  0.1264838E-002  0.5000384E+03  0.7546771E-02  0.1013769E+00
         -1   -1    0    0    0  501 -0.00000000000E+00  0.00000000000E+00  0.38525585860E+02  0.38525585860E+02  0.00000000000E+00 0. -1.
          1   -1    0    0  502    0  0.00000000000E+00 -0.00000000000E+00 -0.16225479372E+04  0.16225479372E+04  0.00000000000E+00 0.  1.
         25    1    1    2    0    0  0.10234392160E+03  0.20675768676E+03 -0.70380820237E+03  0.75112848770E+03  0.12500000000E+03 0.  0.
         21    1    1    2  502  501 -0.10234392160E+03 -0.20675768676E+03 -0.88021414902E+03  0.90994503540E+03  0.00000000000E+00 0. -1.
<mgrwt>
<rscale>  3 0.50003844E+03</rscale>
<asrwt>0</asrwt>
<pdfrwt beam="1">  1        1 0.24962274E+00 0.50003844E+03</pdfrwt>
<pdfrwt beam="2">  1       -1 0.59270136E-02 0.50003844E+03</pdfrwt>
<totfact> 0.79546832E+02</totfact>
</mgrwt>
</event>
<event>
 4    0  0.1264838E-002  0.5477294E+03  0.7546771E-02  0.1002021E+00
          3   -1    0    0  502    0  0.00000000000E+00  0.00000000000E+00  0.25848797899E+04  0.25848797899E+04  0.00000000000E+00 0. -1.
         -3   -1    0    0    0  501 -0.00000000000E+00 -0.00000000000E+00 -0.29015611537E+02  0.29015611537E+02  0.00000000000E+00 0.  1.
         25    1    1    2    0    0 -0.13403961701E+03  0.17117906723E+03  0.66750528514E+03  0.71306184702E+03  0.12500000000E+03 0.  0.
         21    1    1    2  502  501  0.13403961701E+03 -0.17117906723E+03  0.18883588932E+04  0.19008335544E+04  0.00000000000E+00 0. -1.
<mgrwt>
<rscale>  3 0.54772938E+03</rscale>
<asrwt>0</asrwt>
<pdfrwt beam="1">  1        3 0.39767363E+00 0.54772938E+03</pdfrwt>
<pdfrwt beam="2">  1       -3 0.44639423E-02 0.54772938E+03</pdfrwt>
<totfact> 0.93299802E+00</totfact>
</mgrwt>
</event>
<event>
 4    0  0.1264838E-002  0.5197862E+03  0.7546771E-02  0.1008740E+00
          2   -1    0    0  502    0  0.00000000000E+00  0.00000000000E+00  0.85985273295E+03  0.85985273295E+03  0.00000000000E+00 0. -1.
         -2   -1    0    0    0  501 -0.00000000000E+00 -0.00000000000E+00 -0.78553483720E+02  0.78553483720E+02  0.00000000000E+00 0.  1.
         25    1    1    2    0    0 -0.12635511353E+02 -0.24390176574E+03  0.38144946446E+03  0.46986851503E+03  0.12500000000E+03 0.  0.
         21    1    1    2  502  501  0.12635511353E+02  0.24390176574E+03  0.39984978477E+03  0.46853770164E+03  0.00000000000E+00 0. -1.
<mgrwt>
<rscale>  3 0.51978622E+03</rscale>
<asrwt>0</asrwt>
<pdfrwt beam="1">  1        2 0.13228503E+00 0.51978622E+03</pdfrwt>
<pdfrwt beam="2">  1       -2 0.12085152E-01 0.51978622E+03</pdfrwt>
<totfact> 0.15781988E+03</totfact>
</mgrwt>
</event>
<event>
 4    0  0.1264838E-002  0.4487386E+03  0.7546771E-02  0.1028099E+00
         -2   -1    0    0    0  501 -0.00000000000E+00  0.00000000000E+00  0.18592295980E+03  0.18592295980E+03  0.00000000000E+00 0. -1.
          2   -1    0    0  502    0  0.00000000000E+00 -0.00000000000E+00 -0.27076587912E+03  0.27076587912E+03  0.00000000000E+00 0.  1.
         25    1    1    2    0    0 -0.19764340094E+03 -0.60836056286E+02 -0.54121421503E+02  0.24762485324E+03  0.12500000000E+03 0.  0.
         21    1    1    2  502  501  0.19764340094E+03  0.60836056286E+02 -0.30721497813E+02  0.20906398568E+03  0.00000000000E+00 0. -1.
<mgrwt>
<rscale>  3 0.44873865E+03</rscale>
<asrwt>0</asrwt>
<pdfrwt beam="1">  1        2 0.41656289E-01 0.44873865E+03</pdfrwt>
<pdfrwt beam="2">  1       -2 0.28603532E-01 0.44873865E+03</pdfrwt>
<totfact> 0.13736297E+03</totfact>
</mgrwt>
</event>
<event>
 4    0  0.1264838E-002  0.5359151E+03  0.7546771E-02  0.1004808E+00
          1   -1    0    0  502    0  0.00000000000E+00  0.00000000000E+00  0.25828345996E+03  0.25828345996E+03  0.00000000000E+00 0. -1.
         -1   -1    0    0    0  501 -0.00000000000E+00 -0.00000000000E+00 -0.27799395050E+03  0.27799395050E+03  0.00000000000E+00 0.  1.
         25    1    1    2    0    0  0.66258896182E+02  0.22289420093E+03 -0.11110331924E+03  0.28642802530E+03  0.12500000000E+03 0.  0.
         21    1    1    2  502  501 -0.66258896182E+02 -0.22289420093E+03  0.91392828691E+02  0.24984938516E+03  0.00000000000E+00 0.  1.
<mgrwt>
<rscale>  3 0.53591507E+03</rscale>
<asrwt>0</asrwt>
<pdfrwt beam="1">  1        1 0.39735917E-01 0.53591507E+03</pdfrwt>
<pdfrwt beam="2">  1       -1 0.42768300E-01 0.53591507E+03</pdfrwt>
<totfact> 0.57939580E+02</totfact>
</mgrwt>
</event>
<event>
 4    0  0.1264838E-002  0.9061458E+03  0.7546771E-02  0.9417931E-01
         -1   -1    0    0    0  501 -0.00000000000E+00  0.00000000000E+00  0.45524363029E+03  0.45524363029E+03  0.00000000000E+00 0. -1.
          1   -1    0    0  502    0  0.00000000000E+00 -0.00000000000E+00 -0.45091249420E+03  0.45091249420E+03  0.00000000000E+00 0.  1.
         25    1    1    2    0    0  0.38326977634E+03 -0.51476969056E+02 -0.21686483372E+03  0.46065274981E+03  0.12500000000E+03 0.  0.
         21    1    1    2  502  501 -0.38326977634E+03  0.51476969056E+02  0.22119596981E+03  0.44550337469E+03  0.00000000000E+00 0.  1.
<mgrwt>
<rscale>  3 0.90614577E+03</rscale>
<asrwt>0</asrwt>
<pdfrwt beam="1">  1        1 0.69371153E-01 0.90614577E+03</pdfrwt>
<pdfrwt beam="2">  1       -1 0.70037482E-01 0.90614577E+03</pdfrwt>
<totfact> 0.10609129E+02</totfact>
</mgrwt>
</event>
<event>
 4    0  0.1264838E-002  0.5943665E+03  0.7546771E-02  0.9917163E-01
          2   -1    0    0  502    0  0.00000000000E+00  0.00000000000E+00  0.30636512815E+03  0.30636512815E+03  0.00000000000E+00 0.  1.
         -2   -1    0    0    0  501 -0.00000000000E+00 -0.00000000000E+00 -0.28827658613E+03  0.28827658613E+03  0.00000000000E+00 0. -1.
         25    1    1    2    0    0  0.21280798857E+03 -0.17453906363E+03 -0.60781079589E+02  0.30833498726E+03  0.12500000000E+03 0.  0.
         21    1    1    2  502  501 -0.21280798857E+03  0.17453906363E+03  0.78869621606E+02  0.28630672703E+03  0.00000000000E+00 0.  1.
<mgrwt>
<rscale>  3 0.59436653E+03</rscale>
<asrwt>0</asrwt>
<pdfrwt beam="1">  1        2 0.47133096E-01 0.59436653E+03</pdfrwt>
<pdfrwt beam="2">  1       -2 0.44350244E-01 0.59436653E+03</pdfrwt>
<totfact> 0.52127332E+02</totfact>
</mgrwt>
</event>
<event>
 4    0  0.1264838E-002  0.5920939E+03  0.7546771E-02  0.9921946E-01
         -2   -1    0    0    0  501 -0.00000000000E+00  0.00000000000E+00  0.49547132992E+03  0.49547132992E+03  0.00000000000E+00 0.  1.
          2   -1    0    0  502    0  0.00000000000E+00 -0.00000000000E+00 -0.17688973446E+03  0.17688973446E+03  0.00000000000E+00 0. -1.
         25    1    1    2    0    0 -0.27311086014E+03  0.38578351818E+02  0.95224181769E+02  0.31744365792E+03  0.12500000000E+03 0.  0.
         21    1    1    2  502  501  0.27311086014E+03 -0.38578351818E+02  0.22335741370E+03  0.35491740646E+03  0.00000000000E+00 0.  1.
<mgrwt>
<rscale>  3 0.59209388E+03</rscale>
<asrwt>0</asrwt>
<pdfrwt beam="1">  1        2 0.27213806E-01 0.59209388E+03</pdfrwt>
<pdfrwt beam="2">  1       -2 0.76226358E-01 0.59209388E+03</pdfrwt>
<totfact> 0.30954428E+02</totfact>
</mgrwt>
</event>
<event>
 4    0  0.1264838E-002  0.7284516E+03  0.7546771E-02  0.9669776E-01
          1   -1    0    0  502    0  0.00000000000E+00  0.00000000000E+00  0.20862347867E+04  0.20862347867E+04  0.00000000000E+00 0. -1.
         -1   -1    0    0    0  501 -0.00000000000E+00 -0.00000000000E+00 -0.63588450501E+02  0.63588450501E+02  0.00000000000E+00 0.  1.
         25    1    1    2    0    0  0.18966796499E+03 -0.20201137652E+03  0.16888967183E+04  0.17160360306E+04  0.12500000000E+03 0.  0.
         21    1    1    2  502  501 -0.18966796499E+03  0.20201137652E+03  0.33374961795E+03  0.43378720667E+03  0.00000000000E+00 0.  1.
<mgrwt>
<rscale>  3 0.72845161E+03</rscale>
<asrwt>0</asrwt>
<pdfrwt beam="1">  1        1 0.32095915E+00 0.72845161E+03</pdfrwt>
<pdfrwt beam="2">  1       -1 0.97828401E-02 0.72845161E+03</pdfrwt>
<totfact> 0.17580936E+02</totfact>
</mgrwt>
</event>
<event>
 4    0  0.1264838E-002  0.5428997E+03  0.7546771E-02  0.1003151E+00
          2   -1    0    0  502    0  0.00000000000E+00  0.00000000000E+00  0.94122436766E+03  0.94122436766E+03  0.00000000000E+00 0.  1.
         -2   -1    0    0    0  501 -0.00000000000E+00 -0.00000000000E+00 -0.78286345391E+02  0.78286345391E+02  0.00000000000E+00 0. -1.
         25    1    1    2    0    0 -0.24590316447E+03 -0.74902150887E+02  0.45612267840E+03  0.53828579421E+03  0.12500000000E+03 0.  0.
         21    1    1    2  502  501  0.24590316447E+03  0.74902150887E+02  0.40681534387E+03  0.48122491883E+03  0.00000000000E+00 0.  1.
<mgrwt>
<rscale>  3 0.54289968E+03</rscale>
<asrwt>0</asrwt>
<pdfrwt beam="1">  1        2 0.14480374E+00 0.54289968E+03</pdfrwt>
<pdfrwt beam="2">  1       -2 0.12044054E-01 0.54289968E+03</pdfrwt>
<totfact> 0.14007822E+03</totfact>
</mgrwt>
</event>
<event>
 4    0  0.1264838E-002  0.5571306E+03  0.7546771E-02  0.9998568E-01
          2   -1    0    0  502    0  0.00000000000E+00  0.00000000000E+00  0.15081065781E+04  0.15081065781E+04  0.00000000000E+00 0. -1.
         -2   -1    0    0    0  501 -0.00000000000E+00 -0.00000000000E+00 -0.51454346092E+02  0.51454346092E+02  0.00000000000E+00 0.  1.
         25    1    1    2    0    0 -0.13640816850E+03  0.18519487786E+03  0.11308111269E+04  0.11607166476E+04  0.12500000000E+03 0.  0.
         21    1    1    2  502  501  0.13640816850E+03 -0.18519487786E+03  0.32584110512E+03  0.39884427664E+03  0.00000000000E+00 0.  1.
<mgrwt>
<rscale>  3 0.55713064E+03</rscale>
<asrwt>0</asrwt>
<pdfrwt beam="1">  1        2 0.23201636E+00 0.55713064E+03</pdfrwt>
<pdfrwt beam="2">  1       -2 0.79160544E-02 0.55713064E+03</pdfrwt>
<totfact> 0.12817339E+03</totfact>
</mgrwt>
</event>
<event>
 4    0  0.1264838E-002  0.5788386E+03  0.7546771E-02  0.9950309E-01
          1   -1    0    0  502    0  0.00000000000E+00  0.00000000000E+00  0.19676551606E+04  0.19676551606E+04  0.00000000000E+00 0.  1.
         -1   -1    0    0    0  501 -0.00000000000E+00 -0.00000000000E+00 -0.42570232674E+02  0.42570232674E+02  0.00000000000E+00 0. -1.
         25    1    1    2    0    0 -0.16524759210E+03 -0.21509081214E+03  0.11832258874E+04  0.12203357426E+04  0.12500000000E+03 0.  0.
         21    1    1    2  502  501  0.16524759210E+03  0.21509081214E+03  0.74185904052E+03  0.78988965062E+03  0.00000000000E+00 0.  1.
<mgrwt>
<rscale>  3 0.57883862E+03</rscale>
<asrwt>0</asrwt>
<pdfrwt beam="1">  1        1 0.30271611E+00 0.57883862E+03</pdfrwt>
<pdfrwt beam="2">  1       -1 0.65492681E-02 0.57883862E+03</pdfrwt>
<totfact> 0.39992012E+02</totfact>
</mgrwt>
</event>
<event>
 4    0  0.1264838E-002  0.5967366E+03  0.7546771E-02  0.9912200E-01
          2   -1    0    0  502    0  0.00000000000E+00  0.00000000000E+00  0.57602399543E+03  0.57602399543E+03  0.00000000000E+00 0. -1.
         -2   -1    0    0    0  501 -0.00000000000E+00 -0.00000000000E+00 -0.15454847970E+03  0.15454847970E+03  0.00000000000E+00 0.  1.
         25    1    1    2    0    0  0.14944921239E+03  0.24061901962E+03  0.17846815119E+03  0.35736320555E+03  0.12500000000E+03 0.  0.
         21    1    1    2  502  501 -0.14944921239E+03 -0.24061901962E+03  0.24300736453E+03  0.37320926959E+03  0.00000000000E+00 0.  1.
<mgrwt>
<rscale>  3 0.59673657E+03</rscale>
<asrwt>0</asrwt>
<pdfrwt beam="1">  1        2 0.88619075E-01 0.59673657E+03</pdfrwt>
<pdfrwt beam="2">  1       -2 0.23776689E-01 0.59673657E+03</pdfrwt>
<totfact> 0.82132278E+02</totfact>
</mgrwt>
</event>
<event>
 4    0  0.1264838E-002  0.4839993E+03  0.7546771E-02  0.1018042E+00
         -4   -1    0    0    0  501 -0.00000000000E+00  0.00000000000E+00  0.20405649458E+03  0.20405649458E+03  0.00000000000E+00 0. -1.
          4   -1    0    0  502    0  0.00000000000E+00 -0.00000000000E+00 -0.28699810417E+03  0.28699810417E+03  0.00000000000E+00 0.  1.
         25    1    1    2    0    0  0.30049676409E+01  0.21699675325E+03  0.19247188607E+02  0.25118135883E+03  0.12500000000E+03 0.  0.
         21    1    1    2  502  501 -0.30049676409E+01 -0.21699675325E+03 -0.10218879820E+03  0.23987323992E+03  0.00000000000E+00 0.  1.
<mgrwt>
<rscale>  3 0.48399929E+03</rscale>
<asrwt>0</asrwt>
<pdfrwt beam="1">  1        4 0.44153554E-01 0.48399929E+03</pdfrwt>
<pdfrwt beam="2">  1       -4 0.31393307E-01 0.48399929E+03</pdfrwt>
<totfact> 0.95354480E+01</totfact>
</mgrwt>
</event>
<event>
 4    0  0.1264838E-002  0.6634306E+03  0.7546771E-02  0.9781899E-01
          1   -1    0    0  502    0  0.00000000000E+00  0.00000000000E+00  0.32085390809E+03  0.32085390809E+03  0.00000000000E+00 0. -1.
         -1   -1    0    0    0  501 -0.00000000000E+00 -0.00000000000E+00 -0.34294439459E+03  0.34294439459E+03  0.00000000000E+00 0.  1.
         25    1    1    2    0    0 -0.30851836462E+03  0.78097932140E+02  0.21419135103E+02  0.34258816042E+03  0.12500000000E+03 0.  0.
         21    1    1    2  502  501  0.30851836462E+03 -0.78097932140E+02 -0.43509621600E+02  0.32121014225E+03  0.00000000000E+00 0.  1.
<mgrwt>
<rscale>  3 0.66343063E+03</rscale>
<asrwt>0</asrwt>
<pdfrwt beam="1">  1        1 0.49362140E-01 0.66343063E+03</pdfrwt>
<pdfrwt beam="2">  1       -1 0.52760676E-01 0.66343063E+03</pdfrwt>
<totfact> 0.29480130E+02</totfact>
</mgrwt>
</event>
<event>
 4    0  0.1264838E-002  0.5090283E+03  0.7546771E-02  0.1011449E+00
         -1   -1    0    0    0  501 -0.00000000000E+00  0.00000000000E+00  0.23375149296E+04  0.23375149296E+04  0.00000000000E+00 0.  1.
          1   -1    0    0  502    0  0.00000000000E+00 -0.00000000000E+00 -0.27712098663E+02  0.27712098663E+02  0.00000000000E+00 0. -1.
         25    1    1    2    0    0 -0.22729762404E+03 -0.74919855097E+01  0.88056941615E+03  0.91801298270E+03  0.12500000000E+03 0.  0.
         21    1    1    2  502  501  0.22729762404E+03  0.74919855097E+01  0.14292334147E+04  0.14472140455E+04  0.00000000000E+00 0. -1.
<mgrwt>
<rscale>  3 0.50902827E+03</rscale>
<asrwt>0</asrwt>
<pdfrwt beam="1">  1        1 0.42634016E-02 0.50902827E+03</pdfrwt>
<pdfrwt beam="2">  1       -1 0.35961753E+00 0.50902827E+03</pdfrwt>
<totfact> 0.32345171E+01</totfact>
</mgrwt>
</event>
<event>
 4    0  0.1264838E-002  0.5496508E+03  0.7546771E-02  0.1001575E+00
         -2   -1    0    0    0  501 -0.00000000000E+00  0.00000000000E+00  0.45753910600E+02  0.45753910600E+02  0.00000000000E+00 0. -1.
          2   -1    0    0  502    0  0.00000000000E+00 -0.00000000000E+00 -0.16507658783E+04  0.16507658783E+04  0.00000000000E+00 0.  1.
         25    1    1    2    0    0 -0.22626608793E+03  0.11540218469E+03 -0.10241045745E+04  0.10625107935E+04  0.12500000000E+03 0.  0.
         21    1    1    2  502  501  0.22626608793E+03 -0.11540218469E+03 -0.58090739318E+03  0.63400899538E+03  0.00000000000E+00 0. -1.
<mgrwt>
<rscale>  3 0.54965078E+03</rscale>
<asrwt>0</asrwt>
<pdfrwt beam="1">  1        2 0.25396394E+00 0.54965078E+03</pdfrwt>
<pdfrwt beam="2">  1       -2 0.70390642E-02 0.54965078E+03</pdfrwt>
<totfact> 0.12906039E+03</totfact>
</mgrwt>
</event>
<event>
 4    0  0.1264838E-002  0.5051734E+03  0.7546771E-02  0.1012437E+00
         -2   -1    0    0    0  501 -0.00000000000E+00  0.00000000000E+00  0.16689957633E+03  0.16689957633E+03  0.00000000000E+00 0.  1.
          2   -1    0    0  502    0  0.00000000000E+00 -0.00000000000E+00 -0.38226598032E+03  0.38226598032E+03  0.00000000000E+00 0. -1.
         25    1    1    2    0    0 -0.16272118243E+03  0.15355782295E+03 -0.28896899781E+02  0.25791126191E+03  0.12500000000E+03 0.  0.
         21    1    1    2  502  501  0.16272118243E+03 -0.15355782295E+03 -0.18646950421E+03  0.29125429474E+03  0.00000000000E+00 0. -1.
<mgrwt>
<rscale>  3 0.50517336E+03</rscale>
<asrwt>0</asrwt>
<pdfrwt beam="1">  1        2 0.58810150E-01 0.50517336E+03</pdfrwt>
<pdfrwt beam="2">  1       -2 0.25676858E-01 0.50517336E+03</pdfrwt>
<totfact> 0.11434633E+03</totfact>
</mgrwt>
</event>
<event>
 4    0  0.1264838E-002  0.5395381E+03  0.7546771E-02  0.1003945E+00
          2   -1    0    0  502    0  0.00000000000E+00  0.00000000000E+00  0.27394462036E+04  0.27394462036E+04  0.00000000000E+00 0. -1.
         -2   -1    0    0    0  501 -0.00000000000E+00 -0.00000000000E+00 -0.26565709553E+02  0.26565709553E+02  0.00000000000E+00 0.  1.
         25    1    1    2    0    0 -0.15037807495E+03 -0.20076824456E+03  0.11860137563E+04  0.12186775963E+04  0.12500000000E+03 0.  0.
         21    1    1    2  502  501  0.15037807495E+03  0.20076824456E+03  0.15268667377E+04  0.15473343168E+04  0.00000000000E+00 0. -1.
<mgrwt>
<rscale>  3 0.53953807E+03</rscale>
<asrwt>0</asrwt>
<pdfrwt beam="1">  1        2 0.42145304E+00 0.53953807E+03</pdfrwt>
<pdfrwt beam="2">  1       -2 0.40870344E-02 0.53953807E+03</pdfrwt>
<totfact> 0.75652492E+02</totfact>
</mgrwt>
</event>
<event>
 4    0  0.1264838E-002  0.5526096E+03  0.7546771E-02  0.1000892E+00
          1   -1    0    0  502    0  0.00000000000E+00  0.00000000000E+00  0.42805309394E+03  0.42805309394E+03  0.00000000000E+00 0.  1.
         -1   -1    0    0    0  501 -0.00000000000E+00 -0.00000000000E+00 -0.17835247640E+03  0.17835247640E+03  0.00000000000E+00 0. -1.
         25    1    1    2    0    0 -0.11865927847E+03 -0.23343242171E+03  0.14516125021E+03  0.32444954683E+03  0.12500000000E+03 0.  0.
         21    1    1    2  502  501  0.11865927847E+03  0.23343242171E+03  0.10453936732E+03  0.28195602351E+03  0.00000000000E+00 0.  1.
<mgrwt>
<rscale>  3 0.55260955E+03</rscale>
<asrwt>0</asrwt>
<pdfrwt beam="1">  1        1 0.65854322E-01 0.55260955E+03</pdfrwt>
<pdfrwt beam="2">  1       -1 0.27438843E-01 0.55260955E+03</pdfrwt>
<totfact> 0.65869282E+02</totfact>
</mgrwt>
</event>
<event>
 4    0  0.1264838E-002  0.4936072E+03  0.7546771E-02  0.1015461E+00
          2   -1    0    0  502    0  0.00000000000E+00  0.00000000000E+00  0.15622833883E+04  0.15622833883E+04  0.00000000000E+00 0.  1.
         -2   -1    0    0    0  501 -0.00000000000E+00 -0.00000000000E+00 -0.38989088577E+02  0.38989088577E+02  0.00000000000E+00 0. -1.
         25    1    1    2    0    0 -0.20470207968E+03  0.10021439972E+03  0.93205079883E+03  0.96762056558E+03  0.12500000000E+03 0.  0.
         21    1    1    2  502  501  0.20470207968E+03 -0.10021439972E+03  0.59124350089E+03  0.63365191129E+03  0.00000000000E+00 0.  1.
<mgrwt>
<rscale>  3 0.49360715E+03</rscale>
<asrwt>0</asrwt>
<pdfrwt beam="1">  1        2 0.24035124E+00 0.49360715E+03</pdfrwt>
<pdfrwt beam="2">  1       -2 0.59983225E-02 0.49360715E+03</pdfrwt>
<totfact> 0.18574401E+03</totfact>
</mgrwt>
</event>
<event>
 4    0  0.1264838E-002  0.7139228E+03  0.7546771E-02  0.9693714E-01
         -1   -1    0    0    0  501 -0.00000000000E+00  0.00000000000E+00  0.20039973118E+03  0.20039973118E+03  0.00000000000E+00 0. -1.
          1   -1    0    0  502    0  0.00000000000E+00 -0.00000000000E+00 -0.63583638832E+03  0.63583638832E+03  0.00000000000E+00 0.  1.
         25    1    1    2    0    0  0.19923915133E+03  0.27760382971E+03 -0.16057357986E+03  0.39770466460E+03  0.12500000000E+03 0.  0.
         21    1    1    2  502  501 -0.19923915133E+03 -0.27760382971E+03 -0.27486307728E+03  0.43853145490E+03  0.00000000000E+00 0.  1.
<mgrwt>
<rscale>  3 0.71392280E+03</rscale>
<asrwt>0</asrwt>
<pdfrwt beam="1">  1        1 0.97820982E-01 0.71392280E+03</pdfrwt>
<pdfrwt beam="2">  1       -1 0.30830728E-01 0.71392280E+03</pdfrwt>
<totfact> 0.30947134E+02</totfact>
</mgrwt>
</event>
<event>
 4    0  0.1264838E-002  0.6672202E+03  0.7546771E-02  0.9774993E-01
          1   -1    0    0  502    0  0.00000000000E+00  0.00000000000E+00  0.25412069508E+04  0.25412069508E+04  0.00000000000E+00 0.  1.
         -1   -1    0    0    0  501 -0.00000000000E+00 -0.00000000000E+00 -0.43796399232E+02  0.43796399232E+02  0.00000000000E+00 0. -1.
         25    1    1    2    0    0  0.78708493330E+02  0.29924172777E+03  0.16364432809E+04  0.16701234237E+04  0.12500000000E+03 0.  0.
         21    1    1    2  502  501 -0.78708493330E+02 -0.29924172777E+03  0.86096727058E+03  0.91487992632E+03  0.00000000000E+00 0.  1.
<mgrwt>
<rscale>  3 0.66722025E+03</rscale>
<asrwt>0</asrwt>
<pdfrwt beam="1">  1        1 0.39095480E+00 0.66722025E+03</pdfrwt>
<pdfrwt beam="2">  1       -1 0.67379096E-02 0.66722025E+03</pdfrwt>
<totfact> 0.15645483E+02</totfact>
</mgrwt>
</event>
<event>
 4    0  0.1264838E-002  0.7092968E+03  0.7546771E-02  0.9701464E-01
          2   -1    0    0  502    0  0.00000000000E+00  0.00000000000E+00  0.33282503104E+03  0.33282503104E+03  0.00000000000E+00 0.  1.
         -2   -1    0    0    0  501 -0.00000000000E+00 -0.00000000000E+00 -0.37790275634E+03  0.37790275634E+03  0.00000000000E+00 0. -1.
         25    1    1    2    0    0  0.19539197915E+03 -0.27609417513E+03 -0.84010165499E+02  0.37025494860E+03  0.12500000000E+03 0.  0.
         21    1    1    2  502  501 -0.19539197915E+03  0.27609417513E+03  0.38932440198E+02  0.34047283879E+03  0.00000000000E+00 0.  1.
<mgrwt>
<rscale>  3 0.70929683E+03</rscale>
<asrwt>0</asrwt>
<pdfrwt beam="1">  1        2 0.51203851E-01 0.70929683E+03</pdfrwt>
<pdfrwt beam="2">  1       -2 0.58138886E-01 0.70929683E+03</pdfrwt>
<totfact> 0.27320712E+02</totfact>
</mgrwt>
</event>
<event>
 4    0  0.1264838E-002  0.5138783E+03  0.7546771E-02  0.1010219E+00
          2   -1    0    0  502    0  0.00000000000E+00  0.00000000000E+00  0.14557077617E+04  0.14557077617E+04  0.00000000000E+00 0.  1.
         -2   -1    0    0    0  501 -0.00000000000E+00 -0.00000000000E+00 -0.45350951226E+02  0.45350951226E+02  0.00000000000E+00 0. -1.
         25    1    1    2    0    0 -0.12913812307E+03 -0.20364037929E+03  0.79667321778E+03  0.84170022861E+03  0.12500000000E+03 0.  0.
         21    1    1    2  502  501  0.12913812307E+03  0.20364037929E+03  0.61368359271E+03  0.65935848433E+03  0.00000000000E+00 0.  1.
<mgrwt>
<rscale>  3 0.51387832E+03</rscale>
<asrwt>0</asrwt>
<pdfrwt beam="1">  1        2 0.22395500E+00 0.51387832E+03</pdfrwt>
<pdfrwt beam="2">  1       -2 0.69770705E-02 0.51387832E+03</pdfrwt>
<totfact> 0.16757067E+03</totfact>
</mgrwt>
</event>
<event>
 4    0  0.1264838E-002  0.1313801E+04  0.7546771E-02  0.9018692E-01
          2   -1    0    0  502    0  0.00000000000E+00  0.00000000000E+00  0.16653414215E+04  0.16653414215E+04  0.00000000000E+00 0. -1.
         -2   -1    0    0    0  501 -0.00000000000E+00 -0.00000000000E+00 -0.25911717091E+03  0.25911717091E+03  0.00000000000E+00 0.  1.
         25    1    1    2    0    0  0.22403164591E+03 -0.45051473700E+03  0.13144732168E+04  0.14130175315E+04  0.12500000000E+03 0.  0.
         21    1    1    2  502  501 -0.22403164591E+03  0.45051473700E+03  0.91751033847E+02  0.51144106096E+03  0.00000000000E+00 0.  1.
<mgrwt>
<rscale>  3 0.13138014E+04</rscale>
<asrwt>0</asrwt>
<pdfrwt beam="1">  1        2 0.25620637E+00 0.13138014E+04</pdfrwt>
<pdfrwt beam="2">  1       -2 0.39864181E-01 0.13138014E+04</pdfrwt>
<totfact> 0.59763698E+01</totfact>
</mgrwt>
</event>
<event>
 4    0  0.1264838E-002  0.7840932E+03  0.7546771E-02  0.9583331E-01
          1   -1    0    0  502    0  0.00000000000E+00  0.00000000000E+00  0.56775370402E+03  0.56775370402E+03  0.00000000000E+00 0. -1.
         -1   -1    0    0    0  501 -0.00000000000E+00 -0.00000000000E+00 -0.27071691378E+03  0.27071691378E+03  0.00000000000E+00 0.  1.
         25    1    1    2    0    0 -0.16544446034E+03 -0.21072076320E+03  0.44360456673E+03  0.53309016229E+03  0.12500000000E+03 0.  0.
         21    1    1    2  502  501  0.16544446034E+03  0.21072076320E+03 -0.14656777650E+03  0.30538045551E+03  0.00000000000E+00 0.  1.
<mgrwt>
<rscale>  3 0.78409318E+03</rscale>
<asrwt>0</asrwt>
<pdfrwt beam="1">  1        1 0.87346723E-01 0.78409318E+03</pdfrwt>
<pdfrwt beam="2">  1       -1 0.41648756E-01 0.78409318E+03</pdfrwt>
<totfact> 0.21202933E+02</totfact>
</mgrwt>
</event>
<event>
 4    0  0.1264838E-002  0.4916140E+03  0.7546771E-02  0.1015991E+00
         -2   -1    0    0    0  501 -0.00000000000E+00  0.00000000000E+00  0.24464661043E+02  0.24464661043E+02  0.00000000000E+00 0.  1.
          2   -1    0    0  502    0  0.00000000000E+00 -0.00000000000E+00 -0.24697293507E+04  0.24697293507E+04  0.00000000000E+00 0. -1.
         25    1    1    2    0    0  0.13674644327E+03 -0.15229120108E+03 -0.18330351774E+04  0.18486576647E+04  0.12500000000E+03 0.  0.
         21    1    1    2  502  501 -0.13674644327E+03  0.15229120108E+03 -0.61222951228E+03  0.64553634706E+03  0.00000000000E+00 0.  1.
<mgrwt>
<rscale>  3 0.49161404E+03</rscale>
<asrwt>0</asrwt>
<pdfrwt beam="1">  1        2 0.37995843E+00 0.49161404E+03</pdfrwt>
<pdfrwt beam="2">  1       -2 0.37637933E-02 0.49161404E+03</pdfrwt>
<totfact> 0.12264854E+03</totfact>
</mgrwt>
</event>
<event>
 4    0  0.1264838E-002  0.4471617E+03  0.7546771E-02  0.1028572E+00
          2   -1    0    0  502    0  0.00000000000E+00  0.00000000000E+00  0.17839515384E+04  0.17839515384E+04  0.00000000000E+00 0.  1.
         -2   -1    0    0    0  501 -0.00000000000E+00 -0.00000000000E+00 -0.28021161018E+02  0.28021161018E+02  0.00000000000E+00 0. -1.
         25    1    1    2    0    0  0.15440516752E+03  0.13351193739E+03  0.83090809750E+03  0.86469628175E+03  0.12500000000E+03 0.  0.
         21    1    1    2  502  501 -0.15440516752E+03 -0.13351193739E+03  0.92502227984E+03  0.94727641762E+03  0.00000000000E+00 0.  1.
<mgrwt>
<rscale>  3 0.44716169E+03</rscale>
<asrwt>0</asrwt>
<pdfrwt beam="1">  1        2 0.27445399E+00 0.44716169E+03</pdfrwt>
<pdfrwt beam="2">  1       -2 0.43109493E-02 0.44716169E+03</pdfrwt>
<totfact> 0.23530562E+03</totfact>
</mgrwt>
</event>
<event>
 4    0  0.1264838E-002  0.4916731E+03  0.7546771E-02  0.1015975E+00
          2   -1    0    0  502    0  0.00000000000E+00  0.00000000000E+00  0.16913769587E+04  0.16913769587E+04  0.00000000000E+00 0. -1.
         -2   -1    0    0    0  501 -0.00000000000E+00 -0.00000000000E+00 -0.35731601590E+02  0.35731601590E+02  0.00000000000E+00 0.  1.
         25    1    1    2    0    0  0.19828851738E+03  0.11638724179E+03  0.86954085554E+03  0.90806972509E+03  0.12500000000E+03 0.  0.
         21    1    1    2  502  501 -0.19828851738E+03 -0.11638724179E+03  0.78610450157E+03  0.81903883520E+03  0.00000000000E+00 0.  1.
<mgrwt>
<rscale>  3 0.49167309E+03</rscale>
<asrwt>0</asrwt>
<pdfrwt beam="1">  1        2 0.26021178E+00 0.49167309E+03</pdfrwt>
<pdfrwt beam="2">  1       -2 0.54971708E-02 0.49167309E+03</pdfrwt>
<totfact> 0.18110934E+03</totfact>
</mgrwt>
</event>
<event>
 4    0  0.1264838E-002  0.7104702E+03  0.7546771E-02  0.9699492E-01
          2   -1    0    0  502    0  0.00000000000E+00  0.00000000000E+00  0.99459757314E+03  0.99459757314E+03  0.00000000000E+00 0.  1.
         -2   -1    0    0    0  501 -0.00000000000E+00 -0.00000000000E+00 -0.12687743869E+03  0.12687743869E+03  0.00000000000E+00 0. -1.
         25    1    1    2    0    0 -0.20335911331E+03  0.73513016594E+02  0.87008370212E+03  0.90522358634E+03  0.12500000000E+03 0.  0.
         21    1    1    2  502  501  0.20335911331E+03 -0.73513016594E+02 -0.23635676729E+01  0.21625142549E+03  0.00000000000E+00 0. -1.
<mgrwt>
<rscale>  3 0.71047025E+03</rscale>
<asrwt>0</asrwt>
<pdfrwt beam="1">  1        2 0.15301501E+00 0.71047025E+03</pdfrwt>
<pdfrwt beam="2">  1       -2 0.19519607E-01 0.71047025E+03</pdfrwt>
<totfact> 0.56926918E+02</totfact>
</mgrwt>
</event>
<event>
 4    0  0.1264838E-002  0.8385712E+03  0.7546771E-02  0.9505806E-01
          1   -1    0    0  502    0  0.00000000000E+00  0.00000000000E+00  0.28034901386E+03  0.28034901386E+03  0.00000000000E+00 0. -1.
         -1   -1    0    0    0  501 -0.00000000000E+00 -0.00000000000E+00 -0.62707699891E+03  0.62707699891E+03  0.00000000000E+00 0.  1.
         25    1    1    2    0    0 -0.37113050890E+03 -0.90412290684E+02 -0.33831050060E+03  0.52534867637E+03  0.12500000000E+03 0.  0.
         21    1    1    2  502  501  0.37113050890E+03  0.90412290684E+02 -0.84174844395E+01  0.38207733640E+03  0.00000000000E+00 0. -1.
<mgrwt>
<rscale>  3 0.83857121E+03</rscale>
<asrwt>0</asrwt>
<pdfrwt beam="1">  1        1 0.43130617E-01 0.83857121E+03</pdfrwt>
<pdfrwt beam="2">  1       -1 0.96473385E-01 0.83857121E+03</pdfrwt>
<totfact> 0.10017221E+02</totfact>
</mgrwt>
</event>
<event>
 4    0  0.1264838E-002  0.6237358E+03  0.7546771E-02  0.9857350E-01
         -2   -1    0    0    0  501 -0.00000000000E+00  0.00000000000E+00  0.70374857922E+03  0.70374857922E+03  0.00000000000E+00 0.  1.
          2   -1    0    0  502    0  0.00000000000E+00 -0.00000000000E+00 -0.13820500598E+03  0.13820500598E+03  0.00000000000E+00 0. -1.
         25    1    1    2    0    0 -0.26652829456E+03  0.86179603586E+02  0.43661164613E+03  0.53359065341E+03  0.12500000000E+03 0.  0.
         21    1    1    2  502  501  0.26652829456E+03 -0.86179603586E+02  0.12893192711E+03  0.30836293179E+03  0.00000000000E+00 0.  1.
<mgrwt>
<rscale>  3 0.62373577E+03</rscale>
<asrwt>0</asrwt>
<pdfrwt beam="1">  1        2 0.21262309E-01 0.62373577E+03</pdfrwt>
<pdfrwt beam="2">  1       -2 0.10826901E+00 0.62373577E+03</pdfrwt>
<totfact> 0.18278127E+02</totfact>
</mgrwt>
</event>
<event>
 4    0  0.1264838E-002  0.6297752E+03  0.7546771E-02  0.9845488E-01
         -1   -1    0    0    0  501 -0.00000000000E+00  0.00000000000E+00  0.17940977981E+03  0.17940977981E+03  0.00000000000E+00 0. -1.
          1   -1    0    0  502    0  0.00000000000E+00 -0.00000000000E+00 -0.55266892865E+03  0.55266892865E+03  0.00000000000E+00 0.  1.
         25    1    1    2    0    0 -0.18543828604E+03  0.18661144405E+03 -0.20452691130E+02  0.29198373509E+03  0.12500000000E+03 0.  0.
         21    1    1    2  502  501  0.18543828604E+03 -0.18661144405E+03 -0.35280645771E+03  0.44009497337E+03  0.00000000000E+00 0.  1.
<mgrwt>
<rscale>  3 0.62977523E+03</rscale>
<asrwt>0</asrwt>
<pdfrwt beam="1">  1        1 0.85025989E-01 0.62977523E+03</pdfrwt>
<pdfrwt beam="2">  1       -1 0.27601504E-01 0.62977523E+03</pdfrwt>
<totfact> 0.45964786E+02</totfact>
</mgrwt>
</event>
<event>
 4    0  0.1264838E-002  0.4553846E+03  0.7546771E-02  0.1026128E+00
         -2   -1    0    0    0  501 -0.00000000000E+00  0.00000000000E+00  0.28552676845E+02  0.28552676845E+02  0.00000000000E+00 0. -1.
          2   -1    0    0  502    0  0.00000000000E+00 -0.00000000000E+00 -0.18157243494E+04  0.18157243494E+04  0.00000000000E+00 0.  1.
         25    1    1    2    0    0 -0.15050361372E+03  0.14122717213E+03 -0.11293235177E+04  0.11548129977E+04  0.12500000000E+03 0.  0.
         21    1    1    2  502  501  0.15050361372E+03 -0.14122717213E+03 -0.65784815486E+03  0.68946402861E+03  0.00000000000E+00 0.  1.
<mgrwt>
<rscale>  3 0.45538463E+03</rscale>
<asrwt>0</asrwt>
<pdfrwt beam="1">  1        2 0.27934220E+00 0.45538463E+03</pdfrwt>
<pdfrwt beam="2">  1       -2 0.43927197E-02 0.45538463E+03</pdfrwt>
<totfact> 0.21977434E+03</totfact>
</mgrwt>
</event>
<event>
 4    0  0.1264838E-002  0.6605086E+03  0.7546771E-02  0.9787258E-01
         -1   -1    0    0    0  501 -0.00000000000E+00  0.00000000000E+00  0.35747175053E+03  0.35747175053E+03  0.00000000000E+00 0. -1.
          1   -1    0    0  502    0  0.00000000000E+00 -0.00000000000E+00 -0.30510918090E+03  0.30510918090E+03  0.00000000000E+00 0.  1.
         25    1    1    2    0    0 -0.15223473178E+03  0.26616882312E+03  0.11326072182E+03  0.34996320816E+03  0.12500000000E+03 0.  0.
         21    1    1    2  502  501  0.15223473178E+03 -0.26616882312E+03 -0.60898152185E+02  0.31261772327E+03  0.00000000000E+00 0.  1.
<mgrwt>
<rscale>  3 0.66050863E+03</rscale>
<asrwt>0</asrwt>
<pdfrwt beam="1">  1        1 0.46939874E-01 0.66050863E+03</pdfrwt>
<pdfrwt beam="2">  1       -1 0.54995654E-01 0.66050863E+03</pdfrwt>
<totfact> 0.29062687E+02</totfact>
</mgrwt>
</event>
<event>
 4    0  0.1264838E-002  0.7872730E+03  0.7546771E-02  0.9578624E-01
         -2   -1    0    0    0  501 -0.00000000000E+00  0.00000000000E+00  0.14330302650E+03  0.14330302650E+03  0.00000000000E+00 0. -1.
          2   -1    0    0  502    0  0.00000000000E+00 -0.00000000000E+00 -0.10812731381E+04  0.10812731381E+04  0.00000000000E+00 0.  1.
         25    1    1    2    0    0 -0.12131525261E+03 -0.35468054066E+03 -0.60831842722E+03  0.72539091898E+03  0.12500000000E+03 0.  0.
         21    1    1    2  502  501  0.12131525261E+03  0.35468054066E+03 -0.32965168440E+03  0.49918524564E+03  0.00000000000E+00 0. -1.
<mgrwt>
<rscale>  3 0.78727305E+03</rscale>
<asrwt>0</asrwt>
<pdfrwt beam="1">  1        2 0.16634972E+00 0.78727305E+03</pdfrwt>
<pdfrwt beam="2">  1       -2 0.22046619E-01 0.78727305E+03</pdfrwt>
<totfact> 0.40417450E+02</totfact>
</mgrwt>
</event>
<event>
 4    0  0.1264838E-002  0.5011414E+03  0.7546771E-02  0.1013481E+00
         -2   -1    0    0    0  501 -0.00000000000E+00  0.00000000000E+00  0.36506253894E+03  0.36506253894E+03  0.00000000000E+00 0. -1.
          2   -1    0    0  502    0  0.00000000000E+00 -0.00000000000E+00 -0.17198610489E+03  0.17198610489E+03  0.00000000000E+00 0.  1.
         25    1    1    2    0    0  0.63900934628E+02 -0.20066803942E+03  0.21424940419E+03  0.32539022525E+03  0.12500000000E+03 0.  0.
         21    1    1    2  502  501 -0.63900934628E+02  0.20066803942E+03 -0.21172970144E+02  0.21165841858E+03  0.00000000000E+00 0.  1.
<mgrwt>
<rscale>  3 0.50114143E+03</rscale>
<asrwt>0</asrwt>
<pdfrwt beam="1">  1        2 0.26459401E-01 0.50114143E+03</pdfrwt>
<pdfrwt beam="2">  1       -2 0.56163468E-01 0.50114143E+03</pdfrwt>
<totfact> 0.61522101E+02</totfact>
</mgrwt>
</event>
<event>
 4    0  0.1264838E-002  0.4506153E+03  0.7546771E-02  0.1027539E+00
         -2   -1    0    0    0  501 -0.00000000000E+00  0.00000000000E+00  0.48472290033E+02  0.48472290033E+02  0.00000000000E+00 0.  1.
          2   -1    0    0  502    0  0.00000000000E+00 -0.00000000000E+00 -0.10472690132E+04  0.10472690132E+04  0.00000000000E+00 0. -1.
         25    1    1    2    0    0 -0.17773527626E+03 -0.10777873638E+03 -0.52141946424E+03  0.57507333631E+03  0.12500000000E+03 0.  0.
         21    1    1    2  502  501  0.17773527626E+03  0.10777873638E+03 -0.47737725896E+03  0.52066796696E+03  0.00000000000E+00 0. -1.
<mgrwt>
<rscale>  3 0.45061526E+03</rscale>
<asrwt>0</asrwt>
<pdfrwt beam="1">  1        2 0.16111829E+00 0.45061526E+03</pdfrwt>
<pdfrwt beam="2">  1       -2 0.74572764E-02 0.45061526E+03</pdfrwt>
<totfact> 0.25988008E+03</totfact>
</mgrwt>
</event>
<event>
 4    0  0.1264838E-002  0.7514827E+03  0.7546771E-02  0.9633027E-01
         -1   -1    0    0    0  501 -0.00000000000E+00  0.00000000000E+00  0.28983450584E+03  0.28983450584E+03  0.00000000000E+00 0. -1.
          1   -1    0    0  502    0  0.00000000000E+00 -0.00000000000E+00 -0.48711099469E+03  0.48711099469E+03  0.00000000000E+00 0.  1.
         25    1    1    2    0    0  0.25192717273E+03 -0.14819276135E+03 -0.32799490885E+03  0.45676477000E+03  0.12500000000E+03 0.  0.
         21    1    1    2  502  501 -0.25192717273E+03  0.14819276135E+03  0.13071842000E+03  0.32018073053E+03  0.00000000000E+00 0. -1.
<mgrwt>
<rscale>  3 0.75148273E+03</rscale>
<asrwt>0</asrwt>
<pdfrwt beam="1">  1        1 0.74940152E-01 0.75148273E+03</pdfrwt>
<pdfrwt beam="2">  1       -1 0.44589925E-01 0.75148273E+03</pdfrwt>
<totfact> 0.23174583E+02</totfact>
</mgrwt>
</event>
<event>
 4    0  0.1264838E-002  0.4899920E+03  0.7546771E-02  0.1016425E+00
         -2   -1    0    0    0  501 -0.00000000000E+00  0.00000000000E+00  0.40732707881E+03  0.40732707881E+03  0.00000000000E+00 0.  1.
          2   -1    0    0  502    0  0.00000000000E+00 -0.00000000000E+00 -0.14735836026E+03  0.14735836026E+03  0.00000000000E+00 0. -1.
         25    1    1    2    0    0 -0.11408659506E+03 -0.19660801627E+03  0.10653922043E+03  0.28043906419E+03  0.12500000000E+03 0.  0.
         21    1    1    2  502  501  0.11408659506E+03  0.19660801627E+03  0.15342949812E+03  0.27424637487E+03  0.00000000000E+00 0. -1.
<mgrwt>
<rscale>  3 0.48999204E+03</rscale>
<asrwt>0</asrwt>
<pdfrwt beam="1">  1        2 0.22670517E-01 0.48999204E+03</pdfrwt>
<pdfrwt beam="2">  1       -2 0.62665704E-01 0.48999204E+03</pdfrwt>
<totfact> 0.58364259E+02</totfact>
</mgrwt>
</event>
<event>
 4    0  0.1264838E-002  0.4513931E+03  0.7546771E-02  0.1027307E+00
         -2   -1    0    0    0  501 -0.00000000000E+00  0.00000000000E+00  0.31927005099E+02  0.31927005099E+02  0.00000000000E+00 0.  1.
          2   -1    0    0  502    0  0.00000000000E+00 -0.00000000000E+00 -0.15954808817E+04  0.15954808817E+04  0.00000000000E+00 0. -1.
         25    1    1    2    0    0  0.19657242160E+03  0.66968351413E+02 -0.77922982972E+03  0.81605735371E+03  0.12500000000E+03 0.  0.
         21    1    1    2  502  501 -0.19657242160E+03 -0.66968351413E+02 -0.78432404690E+03  0.81135053311E+03  0.00000000000E+00 0. -1.
<mgrwt>
<rscale>  3 0.45139307E+03</rscale>
<asrwt>0</asrwt>
<pdfrwt beam="1">  1        2 0.24545855E+00 0.45139307E+03</pdfrwt>
<pdfrwt beam="2">  1       -2 0.49118478E-02 0.45139307E+03</pdfrwt>
<totfact> 0.24318300E+03</totfact>
</mgrwt>
</event>
<event>
 4    0  0.1264838E-002  0.5279314E+03  0.7546771E-02  0.1006735E+00
          2   -1    0    0  502    0  0.00000000000E+00  0.00000000000E+00  0.22682542097E+04  0.22682542097E+04  0.00000000000E+00 0. -1.
         -2   -1    0    0    0  501 -0.00000000000E+00 -0.00000000000E+00 -0.30718732581E+02  0.30718732581E+02  0.00000000000E+00 0.  1.
         25    1    1    2    0    0  0.13353360161E+03 -0.16453173971E+03  0.17523075205E+04  0.17694938719E+04  0.12500000000E+03 0.  0.
         21    1    1    2  502  501 -0.13353360161E+03  0.16453173971E+03  0.48522795658E+03  0.52947907039E+03  0.00000000000E+00 0.  1.
<mgrwt>
<rscale>  3 0.52793141E+03</rscale>
<asrwt>0</asrwt>
<pdfrwt beam="1">  1        2 0.34896206E+00 0.52793141E+03</pdfrwt>
<pdfrwt beam="2">  1       -2 0.47259606E-02 0.52793141E+03</pdfrwt>
<totfact> 0.11143956E+03</totfact>
</mgrwt>
</event>
<event>
 4    0  0.1264838E-002  0.8752342E+03  0.7546771E-02  0.9457081E-01
          2   -1    0    0  502    0  0.00000000000E+00  0.00000000000E+00  0.10835806075E+03  0.10835806075E+03  0.00000000000E+00 0. -1.
         -2   -1    0    0    0  501 -0.00000000000E+00 -0.00000000000E+00 -0.17673693219E+04  0.17673693219E+04  0.00000000000E+00 0.  1.
         25    1    1    2    0    0  0.97899427442E+01  0.42285756392E+03 -0.99600679953E+03  0.10892928472E+04  0.12500000000E+03 0.  0.
         21    1    1    2  502  501 -0.97899427442E+01 -0.42285756392E+03 -0.66300446161E+03  0.78643453539E+03  0.00000000000E+00 0. -1.
<mgrwt>
<rscale>  3 0.87523417E+03</rscale>
<asrwt>0</asrwt>
<pdfrwt beam="1">  1        2 0.16670472E-01 0.87523417E+03</pdfrwt>
<pdfrwt beam="2">  1       -2 0.27190295E+00 0.87523417E+03</pdfrwt>
<totfact> 0.17011091E+01</totfact>
</mgrwt>
</event>
<event>
 4    0  0.1264838E-002  0.6324743E+03  0.7546771E-02  0.9840232E-01
         -1   -1    0    0    0  501 -0.00000000000E+00  0.00000000000E+00  0.12168209100E+03  0.12168209100E+03  0.00000000000E+00 0. -1.
          1   -1    0    0  502    0  0.00000000000E+00 -0.00000000000E+00 -0.82186230273E+03  0.82186230273E+03  0.00000000000E+00 0.  1.
         25    1    1    2    0    0 -0.12896980965E+03 -0.26263609065E+03 -0.24133389247E+03  0.39934693635E+03  0.12500000000E+03 0.  0.
         21    1    1    2  502  501  0.12896980965E+03  0.26263609065E+03 -0.45884631927E+03  0.54419745738E+03  0.00000000000E+00 0.  1.
<mgrwt>
<rscale>  3 0.63247426E+03</rscale>
<asrwt>0</asrwt>
<pdfrwt beam="1">  1        1 0.12644036E+00 0.63247426E+03</pdfrwt>
<pdfrwt beam="2">  1       -1 0.18720321E-01 0.63247426E+03</pdfrwt>
<totfact> 0.48898523E+02</totfact>
</mgrwt>
</event>
<event>
 4    0  0.1264838E-002  0.4731535E+03  0.7546771E-02  0.1021034E+00
         -1   -1    0    0    0  501 -0.00000000000E+00  0.00000000000E+00  0.22103366360E+03  0.22103366360E+03  0.00000000000E+00 0. -1.
          1   -1    0    0  502    0  0.00000000000E+00 -0.00000000000E+00 -0.25321278662E+03  0.25321278662E+03  0.00000000000E+00 0.  1.
         25    1    1    2    0    0 -0.75989280092E+02 -0.19543300542E+03 -0.84151896171E+02  0.25821497231E+03  0.12500000000E+03 0.  0.
         21    1    1    2  502  501  0.75989280092E+02  0.19543300542E+03  0.51972773158E+02  0.21603147791E+03  0.00000000000E+00 0.  1.
<mgrwt>
<rscale>  3 0.47315346E+03</rscale>
<asrwt>0</asrwt>
<pdfrwt beam="1">  1        1 0.38955813E-01 0.47315346E+03</pdfrwt>
<pdfrwt beam="2">  1       -1 0.34005179E-01 0.47315346E+03</pdfrwt>
<totfact> 0.89676375E+02</totfact>
</mgrwt>
</event>
<event>
 4    0  0.1264838E-002  0.4797940E+03  0.7546771E-02  0.1019192E+00
          1   -1    0    0  502    0  0.00000000000E+00  0.00000000000E+00  0.37324076858E+03  0.37324076858E+03  0.00000000000E+00 0.  1.
         -1   -1    0    0    0  501 -0.00000000000E+00 -0.00000000000E+00 -0.15419157506E+03  0.15419157506E+03  0.00000000000E+00 0. -1.
         25    1    1    2    0    0  0.62305194107E+02  0.19733785919E+03  0.21010055819E+03  0.32029894229E+03  0.12500000000E+03 0.  0.
         21    1    1    2  502  501 -0.62305194107E+02 -0.19733785919E+03  0.89486353302E+01  0.20713340135E+03  0.00000000000E+00 0. -1.
<mgrwt>
<rscale>  3 0.47979405E+03</rscale>
<asrwt>0</asrwt>
<pdfrwt beam="1">  1        1 0.57421657E-01 0.47979405E+03</pdfrwt>
<pdfrwt beam="2">  1       -1 0.23721781E-01 0.47979405E+03</pdfrwt>
<totfact> 0.10103100E+03</totfact>
</mgrwt>
</event>
<event>
 4    0  0.1264838E-002  0.6619983E+03  0.7546771E-02  0.9784522E-01
          1   -1    0    0  502    0  0.00000000000E+00  0.00000000000E+00  0.57052609687E+03  0.57052609687E+03  0.00000000000E+00 0. -1.
         -1   -1    0    0    0  501 -0.00000000000E+00 -0.00000000000E+00 -0.19203407525E+03  0.19203407525E+03  0.00000000000E+00 0.  1.
         25    1    1    2    0    0  0.12270568304E+03  0.29248847474E+03  0.15476489251E+03  0.37441068957E+03  0.12500000000E+03 0.  0.
         21    1    1    2  502  501 -0.12270568304E+03 -0.29248847474E+03  0.22372712910E+03  0.38814948255E+03  0.00000000000E+00 0.  1.
<mgrwt>
<rscale>  3 0.66199834E+03</rscale>
<asrwt>0</asrwt>
<pdfrwt beam="1">  1        1 0.87773245E-01 0.66199834E+03</pdfrwt>
<pdfrwt beam="2">  1       -1 0.29543704E-01 0.66199834E+03</pdfrwt>
<totfact> 0.39034567E+02</totfact>
</mgrwt>
</event>
<event>
 4    0  0.1264838E-002  0.5399220E+03  0.7546771E-02  0.1003854E+00
          2   -1    0    0  502    0  0.00000000000E+00  0.00000000000E+00  0.24394098399E+03  0.24394098399E+03  0.00000000000E+00 0.  1.
         -2   -1    0    0    0  501 -0.00000000000E+00 -0.00000000000E+00 -0.29875645325E+03  0.29875645325E+03  0.00000000000E+00 0. -1.
         25    1    1    2    0    0 -0.21499570880E+03 -0.26889526549E+02  0.10720608352E+03  0.27214765438E+03  0.12500000000E+03 0.  0.
         21    1    1    2  502  501  0.21499570880E+03  0.26889526549E+02 -0.16202155278E+03  0.27054978286E+03  0.00000000000E+00 0. -1.
<mgrwt>
<rscale>  3 0.53992201E+03</rscale>
<asrwt>0</asrwt>
<pdfrwt beam="1">  1        2 0.37529382E-01 0.53992201E+03</pdfrwt>
<pdfrwt beam="2">  1       -2 0.45962531E-01 0.53992201E+03</pdfrwt>
<totfact> 0.62496790E+02</totfact>
</mgrwt>
</event>
<event>
 4    0  0.1264838E-002  0.4964536E+03  0.7546771E-02  0.1014709E+00
          2   -1    0    0  502    0  0.00000000000E+00  0.00000000000E+00  0.10672932952E+04  0.10672932952E+04  0.00000000000E+00 0.  1.
         -2   -1    0    0    0  501 -0.00000000000E+00 -0.00000000000E+00 -0.57731598157E+02  0.57731598157E+02  0.00000000000E+00 0. -1.
         25    1    1    2    0    0 -0.84448422306E+02  0.18329509454E+03  0.79835050885E+03  0.83289684997E+03  0.12500000000E+03 0.  0.
         21    1    1    2  502  501  0.84448422306E+02 -0.18329509454E+03  0.21121118817E+03  0.29212804336E+03  0.00000000000E+00 0. -1.
<mgrwt>
<rscale>  3 0.49645361E+03</rscale>
<asrwt>0</asrwt>
<pdfrwt beam="1">  1        2 0.16419895E+00 0.49645361E+03</pdfrwt>
<pdfrwt beam="2">  1       -2 0.88817851E-02 0.49645361E+03</pdfrwt>
<totfact> 0.19136017E+03</totfact>
</mgrwt>
</event>
<event>
 4    0  0.1264838E-002  0.8556799E+03  0.7546771E-02  0.9482745E-01
          2   -1    0    0  502    0  0.00000000000E+00  0.00000000000E+00  0.88627771746E+03  0.88627771746E+03  0.00000000000E+00 0. -1.
         -2   -1    0    0    0  501 -0.00000000000E+00 -0.00000000000E+00 -0.20653459210E+03  0.20653459210E+03  0.00000000000E+00 0.  1.
         25    1    1    2    0    0 -0.77214305871E+02 -0.28184439295E+03 -0.35842520125E+02  0.31985621320E+03  0.12500000000E+03 0.  0.
         21    1    1    2  502  501  0.77214305871E+02  0.28184439295E+03  0.71558564549E+03  0.77295609636E+03  0.00000000000E+00 0. -1.
<mgrwt>
<rscale>  3 0.85567986E+03</rscale>
<asrwt>0</asrwt>
<pdfrwt beam="1">  1        2 0.13635042E+00 0.85567986E+03</pdfrwt>
<pdfrwt beam="2">  1       -2 0.31774553E-01 0.85567986E+03</pdfrwt>
<totfact> 0.27659669E+02</totfact>
</mgrwt>
</event>
<event>
 4    0  0.1264838E-002  0.5168775E+03  0.7546771E-02  0.1009465E+00
          2   -1    0    0  502    0  0.00000000000E+00  0.00000000000E+00  0.43496818467E+03  0.43496818467E+03  0.00000000000E+00 0.  1.
         -2   -1    0    0    0  501 -0.00000000000E+00 -0.00000000000E+00 -0.15355279572E+03  0.15355279572E+03  0.00000000000E+00 0. -1.
         25    1    1    2    0    0 -0.36519919881E+02 -0.23948947198E+03  0.12303205565E+03  0.29908326342E+03  0.12500000000E+03 0.  0.
         21    1    1    2  502  501  0.36519919881E+02  0.23948947198E+03  0.15838333330E+03  0.28943771697E+03  0.00000000000E+00 0.  1.
<mgrwt>
<rscale>  3 0.51687747E+03</rscale>
<asrwt>0</asrwt>
<pdfrwt beam="1">  1        2 0.66918182E-01 0.51687747E+03</pdfrwt>
<pdfrwt beam="2">  1       -2 0.23623507E-01 0.51687747E+03</pdfrwt>
<totfact> 0.11490285E+03</totfact>
</mgrwt>
</event>
<event>
 4    0  0.1264838E-002  0.5483875E+03  0.7546771E-02  0.1001868E+00
         -2   -1    0    0    0  501 -0.00000000000E+00  0.00000000000E+00  0.17581028079E+02  0.17581028079E+02  0.00000000000E+00 0. -1.
          2   -1    0    0  502    0  0.00000000000E+00 -0.00000000000E+00 -0.42763259106E+04  0.42763259106E+04  0.00000000000E+00 0.  1.
         25    1    1    2    0    0  0.31109128702E+02  0.24605133656E+03 -0.16302873024E+04  0.16537746904E+04  0.12500000000E+03 0.  0.
         21    1    1    2  502  501 -0.31109128702E+02 -0.24605133656E+03 -0.26284575801E+04  0.26401322483E+04  0.00000000000E+00 0. -1.
<mgrwt>
<rscale>  3 0.54838748E+03</rscale>
<asrwt>0</asrwt>
<pdfrwt beam="1">  1        2 0.65789637E+00 0.54838748E+03</pdfrwt>
<pdfrwt beam="2">  1       -2 0.27047733E-02 0.54838748E+03</pdfrwt>
<totfact> 0.12244102E+02</totfact>
</mgrwt>
</event>
<event>
 4    0  0.1264838E-002  0.4898265E+03  0.7546771E-02  0.1016469E+00
         -1   -1    0    0    0  501 -0.00000000000E+00  0.00000000000E+00  0.39641658925E+03  0.39641658925E+03  0.00000000000E+00 0. -1.
          1   -1    0    0  502    0  0.00000000000E+00 -0.00000000000E+00 -0.15131175589E+03  0.15131175589E+03  0.00000000000E+00 0.  1.
         25    1    1    2    0    0  0.15545401407E+03  0.15607698944E+03  0.60715612427E+02  0.26045606677E+03  0.12500000000E+03 0.  0.
         21    1    1    2  502  501 -0.15545401407E+03 -0.15607698944E+03  0.18438922093E+03  0.28727227837E+03  0.00000000000E+00 0. -1.
<mgrwt>
<rscale>  3 0.48982646E+03</rscale>
<asrwt>0</asrwt>
<pdfrwt beam="1">  1        1 0.23278732E-01 0.48982646E+03</pdfrwt>
<pdfrwt beam="2">  1       -1 0.60987167E-01 0.48982646E+03</pdfrwt>
<totfact> 0.59083926E+02</totfact>
</mgrwt>
</event>
<event>
 4    0  0.1264838E-002  0.5857034E+03  0.7546771E-02  0.9935519E-01
          1   -1    0    0  502    0  0.00000000000E+00  0.00000000000E+00  0.34519289852E+03  0.34519289852E+03  0.00000000000E+00 0. -1.
         -1   -1    0    0    0  501 -0.00000000000E+00 -0.00000000000E+00 -0.24844691511E+03  0.24844691511E+03  0.00000000000E+00 0.  1.
         25    1    1    2    0    0  0.17346867655E+03 -0.21123208986E+03  0.10982478198E+03  0.31999509414E+03  0.12500000000E+03 0.  0.
         21    1    1    2  502  501 -0.17346867655E+03  0.21123208986E+03 -0.13078798572E+02  0.27364471949E+03  0.00000000000E+00 0.  1.
<mgrwt>
<rscale>  3 0.58570337E+03</rscale>
<asrwt>0</asrwt>
<pdfrwt beam="1">  1        1 0.53106600E-01 0.58570337E+03</pdfrwt>
<pdfrwt beam="2">  1       -1 0.38222602E-01 0.58570337E+03</pdfrwt>
<totfact> 0.48812308E+02</totfact>
</mgrwt>
</event>
<event>
 4    0  0.1264838E-002  0.4777530E+03  0.7546771E-02  0.1019755E+00
          2   -1    0    0  502    0  0.00000000000E+00  0.00000000000E+00  0.93915439463E+03  0.93915439463E+03  0.00000000000E+00 0.  1.
         -2   -1    0    0    0  501 -0.00000000000E+00 -0.00000000000E+00 -0.60758884144E+02  0.60758884144E+02  0.00000000000E+00 0. -1.
         25    1    1    2    0    0 -0.21689543211E+03  0.10281818046E+02  0.36742620793E+03  0.44472054431E+03  0.12500000000E+03 0.  0.
         21    1    1    2  502  501  0.21689543211E+03 -0.10281818046E+02  0.51096930256E+03  0.55519273447E+03  0.00000000000E+00 0. -1.
<mgrwt>
<rscale>  3 0.47775296E+03</rscale>
<asrwt>0</asrwt>
<pdfrwt beam="1">  1        2 0.14448528E+00 0.47775296E+03</pdfrwt>
<pdfrwt beam="2">  1       -2 0.93475213E-02 0.47775296E+03</pdfrwt>
<totfact> 0.21221200E+03</totfact>
</mgrwt>
</event>
<event>
 4    0  0.1264838E-002  0.7544141E+03  0.7546771E-02  0.9628451E-01
         -2   -1    0    0    0  501 -0.00000000000E+00  0.00000000000E+00  0.13148932849E+03  0.13148932849E+03  0.00000000000E+00 0. -1.
          2   -1    0    0  502    0  0.00000000000E+00 -0.00000000000E+00 -0.10821042979E+04  0.10821042979E+04  0.00000000000E+00 0.  1.
         25    1    1    2    0    0  0.27451787980E+03  0.20988549173E+03 -0.68647560131E+03  0.77864352380E+03  0.12500000000E+03 0.  0.
         21    1    1    2  502  501 -0.27451787980E+03 -0.20988549173E+03 -0.26413936814E+03  0.43495010262E+03  0.00000000000E+00 0. -1.
<mgrwt>
<rscale>  3 0.75441412E+03</rscale>
<asrwt>0</asrwt>
<pdfrwt beam="1">  1        2 0.16647759E+00 0.75441412E+03</pdfrwt>
<pdfrwt beam="2">  1       -2 0.20229127E-01 0.75441412E+03</pdfrwt>
<totfact> 0.47051868E+02</totfact>
</mgrwt>
</event>
<event>
 4    0  0.1264838E-002  0.4779454E+03  0.7546771E-02  0.1019701E+00
         -2   -1    0    0    0  501 -0.00000000000E+00  0.00000000000E+00  0.11143474524E+03  0.11143474524E+03  0.00000000000E+00 0.  1.
          2   -1    0    0  502    0  0.00000000000E+00 -0.00000000000E+00 -0.51247876603E+03  0.51247876603E+03  0.00000000000E+00 0. -1.
         25    1    1    2    0    0  0.14597039405E+03  0.16776435428E+03 -0.20052195500E+03  0.32447848764E+03  0.12500000000E+03 0.  0.
         21    1    1    2  502  501 -0.14597039405E+03 -0.16776435428E+03 -0.20052206579E+03  0.29943502363E+03  0.00000000000E+00 0.  1.
<mgrwt>
<rscale>  3 0.47794536E+03</rscale>
<asrwt>0</asrwt>
<pdfrwt beam="1">  1        2 0.78842889E-01 0.47794536E+03</pdfrwt>
<pdfrwt beam="2">  1       -2 0.17143807E-01 0.47794536E+03</pdfrwt>
<totfact> 0.16648019E+03</totfact>
</mgrwt>
</event>
<event>
 4    0  0.1264838E-002  0.5930381E+03  0.7546771E-02  0.9919956E-01
          2   -1    0    0  502    0  0.00000000000E+00  0.00000000000E+00  0.43430680378E+02  0.43430680378E+02  0.00000000000E+00 0. -1.
         -2   -1    0    0    0  501 -0.00000000000E+00 -0.00000000000E+00 -0.20244573791E+04  0.20244573791E+04  0.00000000000E+00 0.  1.
         25    1    1    2    0    0  0.26884479382E+03 -0.73455247443E+02 -0.85633021822E+03  0.90917525218E+03  0.12500000000E+03 0.  0.
         21    1    1    2  502  501 -0.26884479382E+03  0.73455247443E+02 -0.11246964805E+04  0.11587128073E+04  0.00000000000E+00 0.  1.
<mgrwt>
<rscale>  3 0.59303815E+03</rscale>
<asrwt>0</asrwt>
<pdfrwt beam="1">  1        2 0.66816435E-02 0.59303815E+03</pdfrwt>
<pdfrwt beam="2">  1       -2 0.31145497E+00 0.59303815E+03</pdfrwt>
<totfact> 0.32181756E+01</totfact>
</mgrwt>
</event>
<event>
 4    0  0.1264838E-002  0.5177332E+03  0.7546771E-02  0.1009251E+00
         -2   -1    0    0    0  501 -0.00000000000E+00  0.00000000000E+00  0.15655614609E+03  0.15655614609E+03  0.00000000000E+00 0.  1.
          2   -1    0    0  502    0  0.00000000000E+00 -0.00000000000E+00 -0.42803764969E+03  0.42803764969E+03  0.00000000000E+00 0. -1.
         25    1    1    2    0    0 -0.27757089540E+02 -0.23941215578E+03 -0.18496339995E+03  0.32851955144E+03  0.12500000000E+03 0.  0.
         21    1    1    2  502  501  0.27757089540E+02  0.23941215578E+03 -0.86518103648E+02  0.25607424434E+03  0.00000000000E+00 0. -1.
<mgrwt>
<rscale>  3 0.51773323E+03</rscale>
<asrwt>0</asrwt>
<pdfrwt beam="1">  1        2 0.65851945E-01 0.51773323E+03</pdfrwt>
<pdfrwt beam="2">  1       -2 0.24085561E-01 0.51773323E+03</pdfrwt>
<totfact> 0.11302996E+03</totfact>
</mgrwt>
</event>
<event>
 4    0  0.1264838E-002  0.6703270E+03  0.7546771E-02  0.9769367E-01
         -2   -1    0    0    0  501 -0.00000000000E+00  0.00000000000E+00  0.30749673032E+02  0.30749673032E+02  0.00000000000E+00 0.  1.
          2   -1    0    0  502    0  0.00000000000E+00 -0.00000000000E+00 -0.36531953094E+04  0.36531953094E+04  0.00000000000E+00 0. -1.
         25    1    1    2    0    0 -0.28571658486E+03 -0.64026343512E+02 -0.11181746763E+04  0.11626147024E+04  0.12500000000E+03 0.  0.
         21    1    1    2  502  501  0.28571658486E+03  0.64026343512E+02 -0.25042709601E+04  0.25213302801E+04  0.00000000000E+00 0. -1.
<mgrwt>
<rscale>  3 0.67032697E+03</rscale>
<asrwt>0</asrwt>
<pdfrwt beam="1">  1        2 0.56202969E+00 0.67032697E+03</pdfrwt>
<pdfrwt beam="2">  1       -2 0.47307219E-02 0.67032697E+03</pdfrwt>
<totfact> 0.15580212E+02</totfact>
</mgrwt>
</event>
<event>
 4    0  0.1264838E-002  0.6498857E+03  0.7546771E-02  0.9806994E-01
         -2   -1    0    0    0  501 -0.00000000000E+00  0.00000000000E+00  0.10453003892E+03  0.10453003892E+03  0.00000000000E+00 0.  1.
          2   -1    0    0  502    0  0.00000000000E+00 -0.00000000000E+00 -0.10101197030E+04  0.10101197030E+04  0.00000000000E+00 0. -1.
         25    1    1    2    0    0  0.43163204778E+02 -0.26570603729E+03 -0.19588948229E+03  0.35561278066E+03  0.12500000000E+03 0.  0.
         21    1    1    2  502  501 -0.43163204778E+02  0.26570603729E+03 -0.70970018176E+03  0.75903696122E+03  0.00000000000E+00 0. -1.
<mgrwt>
<rscale>  3 0.64988569E+03</rscale>
<asrwt>0</asrwt>
<pdfrwt beam="1">  1        2 0.15540303E+00 0.64988569E+03</pdfrwt>
<pdfrwt beam="2">  1       -2 0.16081544E-01 0.64988569E+03</pdfrwt>
<totfact> 0.77837115E+02</totfact>
</mgrwt>
</event>
<event>
 4    0  0.1264838E-002  0.5777401E+03  0.7546771E-02  0.9952696E-01
         -1   -1    0    0    0  501 -0.00000000000E+00  0.00000000000E+00  0.38341100658E+03  0.38341100658E+03  0.00000000000E+00 0.  1.
          1   -1    0    0  502    0  0.00000000000E+00 -0.00000000000E+00 -0.21764085346E+03  0.21764085346E+03  0.00000000000E+00 0. -1.
         25    1    1    2    0    0  0.14590721874E+03 -0.22441250105E+03  0.19613163103E+02  0.29607357747E+03  0.12500000000E+03 0.  0.
         21    1    1    2  502  501 -0.14590721874E+03  0.22441250105E+03  0.14615699002E+03  0.30497828257E+03  0.00000000000E+00 0.  1.
<mgrwt>
<rscale>  3 0.57774008E+03</rscale>
<asrwt>0</asrwt>
<pdfrwt beam="1">  1        1 0.33483208E-01 0.57774008E+03</pdfrwt>
<pdfrwt beam="2">  1       -1 0.58986309E-01 0.57774008E+03</pdfrwt>
<totfact> 0.39327158E+02</totfact>
</mgrwt>
</event>
<event>
 4    0  0.1264838E-002  0.5904547E+03  0.7546771E-02  0.9925410E-01
          2   -1    0    0  502    0  0.00000000000E+00  0.00000000000E+00  0.20676243537E+04  0.20676243537E+04  0.00000000000E+00 0. -1.
         -2   -1    0    0    0  501 -0.00000000000E+00 -0.00000000000E+00 -0.42154264634E+02  0.42154264634E+02  0.00000000000E+00 0.  1.
         25    1    1    2    0    0  0.66687673798E+02  0.22231789601E+03  0.48587067982E+03  0.55278188305E+03  0.12500000000E+03 0.  0.
         21    1    1    2  502  501 -0.66687673798E+02 -0.22231789601E+03  0.15395994093E+04  0.15569967353E+04  0.00000000000E+00 0. -1.
<mgrwt>
<rscale>  3 0.59045469E+03</rscale>
<asrwt>0</asrwt>
<pdfrwt beam="1">  1        2 0.31809597E+00 0.59045469E+03</pdfrwt>
<pdfrwt beam="2">  1       -2 0.64852731E-02 0.59045469E+03</pdfrwt>
<totfact> 0.87168007E+02</totfact>
</mgrwt>
</event>
<event>
 4    0  0.1264838E-002  0.7429602E+03  0.7546771E-02  0.9646460E-01
          2   -1    0    0  502    0  0.00000000000E+00  0.00000000000E+00  0.22392800883E+04  0.22392800883E+04  0.00000000000E+00 0. -1.
         -2   -1    0    0    0  501 -0.00000000000E+00 -0.00000000000E+00 -0.61625820867E+02  0.61625820867E+02  0.00000000000E+00 0.  1.
         25    1    1    2    0    0 -0.16999372465E+03 -0.28535158088E+03  0.68197923477E+03  0.76879390463E+03  0.12500000000E+03 0.  0.
         21    1    1    2  502  501  0.16999372465E+03  0.28535158088E+03  0.14956750327E+04  0.15321120046E+04  0.00000000000E+00 0. -1.
<mgrwt>
<rscale>  3 0.74296022E+03</rscale>
<asrwt>0</asrwt>
<pdfrwt beam="1">  1        2 0.34450457E+00 0.74296022E+03</pdfrwt>
<pdfrwt beam="2">  1       -2 0.94808972E-02 0.74296022E+03</pdfrwt>
<totfact> 0.37854813E+02</totfact>
</mgrwt>
</event>
<event>
 4    0  0.1264838E-002  0.6598681E+03  0.7546771E-02  0.9788437E-01
          2   -1    0    0  502    0  0.00000000000E+00  0.00000000000E+00  0.21719410130E+03  0.21719410130E+03  0.00000000000E+00 0. -1.
         -2   -1    0    0    0  501 -0.00000000000E+00 -0.00000000000E+00 -0.50119443187E+03  0.50119443187E+03  0.00000000000E+00 0.  1.
         25    1    1    2    0    0 -0.28895348022E+03  0.85002188997E+02 -0.25846489614E+03  0.41611126926E+03  0.12500000000E+03 0.  0.
         21    1    1    2  502  501  0.28895348022E+03 -0.85002188997E+02 -0.25535434428E+02  0.30227726391E+03  0.00000000000E+00 0. -1.
<mgrwt>
<rscale>  3 0.65986809E+03</rscale>
<asrwt>0</asrwt>
<pdfrwt beam="1">  1        2 0.33414477E-01 0.65986809E+03</pdfrwt>
<pdfrwt beam="2">  1       -2 0.77106835E-01 0.65986809E+03</pdfrwt>
<totfact> 0.23905377E+02</totfact>
</mgrwt>
</event>
<event>
 4    0  0.1264838E-002  0.4397649E+03  0.7546771E-02  0.1030819E+00
          2   -1    0    0  502    0  0.00000000000E+00  0.00000000000E+00  0.35044040874E+03  0.35044040874E+03  0.00000000000E+00 0.  1.
         -2   -1    0    0    0  501 -0.00000000000E+00 -0.00000000000E+00 -0.13796434786E+03  0.13796434786E+03  0.00000000000E+00 0. -1.
         25    1    1    2    0    0 -0.69426605200E+02 -0.18980578663E+03  0.11732799091E+03  0.26502291901E+03  0.12500000000E+03 0.  0.
         21    1    1    2  502  501  0.69426605200E+02  0.18980578663E+03  0.95148069960E+02  0.22338183759E+03  0.00000000000E+00 0. -1.
<mgrwt>
<rscale>  3 0.43976486E+03</rscale>
<asrwt>0</asrwt>
<pdfrwt beam="1">  1        2 0.53913909E-01 0.43976486E+03</pdfrwt>
<pdfrwt beam="2">  1       -2 0.21225284E-01 0.43976486E+03</pdfrwt>
<totfact> 0.17619242E+03</totfact>
</mgrwt>
</event>
<event>
 4    0  0.1532280E-002  0.6048452E+03  0.7546771E-02  0.9895404E-01
          2   -1    0    0  502    0  0.00000000000E+00  0.00000000000E+00  0.13211850356E+04  0.13211850356E+04  0.00000000000E+00 0. -1.
         -2   -1    0    0    0  501 -0.00000000000E+00 -0.00000000000E+00 -0.69225306365E+02  0.69225306365E+02  0.00000000000E+00 0.  1.
         25    1    1    2    0    0  0.14317951283E+03  0.17206863709E+03  0.23067816099E+03  0.34488462233E+03  0.12500000000E+03 0.  0.
         21    1    1    2  502  501 -0.14317951283E+03 -0.17206863709E+03  0.10212815682E+04  0.10455257196E+04  0.00000000000E+00 0. -1.
<mgrwt>
<rscale>  3 0.60484523E+03</rscale>
<asrwt>0</asrwt>
<pdfrwt beam="1">  1        2 0.20325922E+00 0.60484523E+03</pdfrwt>
<pdfrwt beam="2">  1       -2 0.10650048E-01 0.60484523E+03</pdfrwt>
<totfact> 0.10093957E+03</totfact>
</mgrwt>
</event>
<event>
 4    0  0.1264838E-002  0.4599203E+03  0.7546771E-02  0.1024804E+00
         -2   -1    0    0    0  501 -0.00000000000E+00  0.00000000000E+00  0.85397404788E+02  0.85397404788E+02  0.00000000000E+00 0. -1.
          2   -1    0    0  502    0  0.00000000000E+00 -0.00000000000E+00 -0.61924226076E+03  0.61924226076E+03  0.00000000000E+00 0.  1.
         25    1    1    2    0    0  0.47595170811E+02 -0.20081797259E+03 -0.20608332358E+03  0.31731450432E+03  0.12500000000E+03 0.  0.
         21    1    1    2  502  501 -0.47595170811E+02  0.20081797259E+03 -0.32776153239E+03  0.38732516122E+03  0.00000000000E+00 0.  1.
<mgrwt>
<rscale>  3 0.45992035E+03</rscale>
<asrwt>0</asrwt>
<pdfrwt beam="1">  1        2 0.95268040E-01 0.45992035E+03</pdfrwt>
<pdfrwt beam="2">  1       -2 0.13138062E-01 0.45992035E+03</pdfrwt>
<totfact> 0.20830563E+03</totfact>
</mgrwt>
</event>
<event>
 4    0  0.1264838E-002  0.4664834E+03  0.7546771E-02  0.1022917E+00
          2   -1    0    0  502    0  0.00000000000E+00  0.00000000000E+00  0.95211696488E+03  0.95211696488E+03  0.00000000000E+00 0. -1.
         -2   -1    0    0    0  501 -0.00000000000E+00 -0.00000000000E+00 -0.57137610866E+02  0.57137610866E+02  0.00000000000E+00 0.  1.
         25    1    1    2    0    0 -0.31239164296E+02 -0.20121287664E+03  0.32052877875E+03  0.39978269737E+03  0.12500000000E+03 0.  0.
         21    1    1    2  502  501  0.31239164296E+02  0.20121287664E+03  0.57445057526E+03  0.60947187837E+03  0.00000000000E+00 0. -1.
<mgrwt>
<rscale>  3 0.46648339E+03</rscale>
<asrwt>0</asrwt>
<pdfrwt beam="1">  1        2 0.14647952E+00 0.46648339E+03</pdfrwt>
<pdfrwt beam="2">  1       -2 0.87904024E-02 0.46648339E+03</pdfrwt>
<totfact> 0.22968565E+03</totfact>
</mgrwt>
</event>
<event>
 4    0  0.1264838E-002  0.8484544E+03  0.7546771E-02  0.9492414E-01
          2   -1    0    0  502    0  0.00000000000E+00  0.00000000000E+00  0.79288722388E+03  0.79288722388E+03  0.00000000000E+00 0.  1.
         -2   -1    0    0    0  501 -0.00000000000E+00 -0.00000000000E+00 -0.22697893918E+03  0.22697893918E+03  0.00000000000E+00 0. -1.
         25    1    1    2    0    0 -0.17120066472E+03 -0.31234927743E+03  0.54512843824E+03  0.66306994570E+03  0.12500000000E+03 0.  0.
         21    1    1    2  502  501  0.17120066472E+03  0.31234927743E+03  0.20779846463E+02  0.35679621737E+03  0.00000000000E+00 0. -1.
<mgrwt>
<rscale>  3 0.84845436E+03</rscale>
<asrwt>0</asrwt>
<pdfrwt beam="1">  1        2 0.12198265E+00 0.84845436E+03</pdfrwt>
<pdfrwt beam="2">  1       -2 0.34919837E-01 0.84845436E+03</pdfrwt>
<totfact> 0.26917662E+02</totfact>
</mgrwt>
</event>
<event>
 4    0  0.1264838E-002  0.4897523E+03  0.7546771E-02  0.1016489E+00
         -2   -1    0    0    0  501 -0.00000000000E+00  0.00000000000E+00  0.24307884594E+02  0.24307884594E+02  0.00000000000E+00 0. -1.
          2   -1    0    0  502    0  0.00000000000E+00 -0.00000000000E+00 -0.24668672539E+04  0.24668672539E+04  0.00000000000E+00 0.  1.
         25    1    1    2    0    0 -0.86692424526E+02 -0.20321332319E+03 -0.16058239649E+04  0.16257634630E+04  0.12500000000E+03 0.  0.
         21    1    1    2  502  501  0.86692424526E+02  0.20321332319E+03 -0.83673540440E+03  0.86541167555E+03  0.00000000000E+00 0. -1.
<mgrwt>
<rscale>  3 0.48975228E+03</rscale>
<asrwt>0</asrwt>
<pdfrwt beam="1">  1        2 0.37951802E+00 0.48975228E+03</pdfrwt>
<pdfrwt beam="2">  1       -2 0.37396747E-02 0.48975228E+03</pdfrwt>
<totfact> 0.12433253E+03</totfact>
</mgrwt>
</event>
<event>
 4    0  0.1264838E-002  0.8017321E+03  0.7546771E-02  0.9557513E-01
         -2   -1    0    0    0  501 -0.00000000000E+00  0.00000000000E+00  0.90585844816E+02  0.90585844816E+02  0.00000000000E+00 0.  1.
          2   -1    0    0  502    0  0.00000000000E+00 -0.00000000000E+00 -0.17739370417E+04  0.17739370417E+04  0.00000000000E+00 0. -1.
         25    1    1    2    0    0  0.21737347079E+03  0.19131824100E+03 -0.25070518213E+03  0.40290443468E+03  0.12500000000E+03 0.  0.
         21    1    1    2  502  501 -0.21737347079E+03 -0.19131824100E+03 -0.14326460147E+04  0.14616184518E+04  0.00000000000E+00 0. -1.
<mgrwt>
<rscale>  3 0.80173209E+03</rscale>
<asrwt>0</asrwt>
<pdfrwt beam="1">  1        2 0.27291340E+00 0.80173209E+03</pdfrwt>
<pdfrwt beam="2">  1       -2 0.13936283E-01 0.80173209E+03</pdfrwt>
<totfact> 0.35901579E+02</totfact>
</mgrwt>
</event>
<event>
 4    0  0.1264838E-002  0.5000326E+03  0.7546771E-02  0.1013770E+00
          1   -1    0    0  502    0  0.00000000000E+00  0.00000000000E+00  0.41165977063E+03  0.41165977063E+03  0.00000000000E+00 0. -1.
         -1   -1    0    0    0  501 -0.00000000000E+00 -0.00000000000E+00 -0.15184423324E+03  0.15184423324E+03  0.00000000000E+00 0.  1.
         25    1    1    2    0    0  0.23117946954E+03 -0.42978994518E+01  0.18134117376E+03  0.31933061297E+03  0.12500000000E+03 0.  0.
         21    1    1    2  502  501 -0.23117946954E+03  0.42978994518E+01  0.78474363632E+02  0.24417339090E+03  0.00000000000E+00 0.  1.
<mgrwt>
<rscale>  3 0.50003265E+03</rscale>
<asrwt>0</asrwt>
<pdfrwt beam="1">  1        1 0.63332272E-01 0.50003265E+03</pdfrwt>
<pdfrwt beam="2">  1       -1 0.23360651E-01 0.50003265E+03</pdfrwt>
<totfact> 0.91190631E+02</totfact>
</mgrwt>
</event>
<event>
 4    0  0.1264838E-002  0.5658620E+03  0.7546771E-02  0.9978878E-01
         -2   -1    0    0    0  501 -0.00000000000E+00  0.00000000000E+00  0.66566537473E+03  0.66566537473E+03  0.00000000000E+00 0.  1.
          2   -1    0    0  502    0  0.00000000000E+00 -0.00000000000E+00 -0.12025552174E+03  0.12025552174E+03  0.00000000000E+00 0. -1.
         25    1    1    2    0    0  0.18904800096E+03  0.18785572538E+03  0.23406082730E+03  0.37608295774E+03  0.12500000000E+03 0.  0.
         21    1    1    2  502  501 -0.18904800096E+03 -0.18785572538E+03  0.31134902570E+03  0.40983793873E+03  0.00000000000E+00 0.  1.
<mgrwt>
<rscale>  3 0.56586195E+03</rscale>
<asrwt>0</asrwt>
<pdfrwt beam="1">  1        2 0.18500850E-01 0.56586195E+03</pdfrwt>
<pdfrwt beam="2">  1       -2 0.10241006E+00 0.56586195E+03</pdfrwt>
<totfact> 0.24619815E+02</totfact>
</mgrwt>
</event>
<event>
 4    0  0.1264838E-002  0.6067833E+03  0.7546771E-02  0.9891432E-01
         -2   -1    0    0    0  501 -0.00000000000E+00  0.00000000000E+00  0.19365910934E+03  0.19365910934E+03  0.00000000000E+00 0. -1.
          2   -1    0    0  502    0  0.00000000000E+00 -0.00000000000E+00 -0.47530163537E+03  0.47530163537E+03  0.00000000000E+00 0.  1.
         25    1    1    2    0    0 -0.55499922517E+02  0.25770628712E+03 -0.28140266649E+03  0.40534581844E+03  0.12500000000E+03 0.  0.
         21    1    1    2  502  501  0.55499922517E+02 -0.25770628712E+03 -0.23985953630E+00  0.26361492627E+03  0.00000000000E+00 0.  1.
<mgrwt>
<rscale>  3 0.60678329E+03</rscale>
<asrwt>0</asrwt>
<pdfrwt beam="1">  1        2 0.73123329E-01 0.60678329E+03</pdfrwt>
<pdfrwt beam="2">  1       -2 0.29793709E-01 0.60678329E+03</pdfrwt>
<totfact> 0.68203174E+02</totfact>
</mgrwt>
</event>
<event>
 4    0  0.1264838E-002  0.5578377E+03  0.7546771E-02  0.9996959E-01
         -3   -1    0    0    0  501 -0.00000000000E+00  0.00000000000E+00  0.46073086722E+02  0.46073086722E+02  0.00000000000E+00 0. -1.
          3   -1    0    0  502    0  0.00000000000E+00 -0.00000000000E+00 -0.16885283401E+04  0.16885283401E+04  0.00000000000E+00 0.  1.
         25    1    1    2    0    0  0.18564182451E+03 -0.10712436882E+03 -0.13465968886E+04  0.13692650210E+04  0.12500000000E+03 0.  0.
         21    1    1    2  502  501 -0.18564182451E+03  0.10712436882E+03 -0.29585836483E+03  0.36533640585E+03  0.00000000000E+00 0. -1.
<mgrwt>
<rscale>  3 0.55783766E+03</rscale>
<asrwt>0</asrwt>
<pdfrwt beam="1">  1        3 0.25977360E+00 0.55783766E+03</pdfrwt>
<pdfrwt beam="2">  1       -3 0.70881670E-02 0.55783766E+03</pdfrwt>
<totfact> 0.24029454E+01</totfact>
</mgrwt>
</event>
<event>
 4    0  0.1264838E-002  0.6447962E+03  0.7546771E-02  0.9816593E-01
         -1   -1    0    0    0  501 -0.00000000000E+00  0.00000000000E+00  0.15757839411E+03  0.15757839411E+03  0.00000000000E+00 0. -1.
          1   -1    0    0  502    0  0.00000000000E+00 -0.00000000000E+00 -0.65961163831E+03  0.65961163831E+03  0.00000000000E+00 0.  1.
         25    1    1    2    0    0  0.21601625888E+03  0.50247726854E+02 -0.53546183385E+03  0.59290153792E+03  0.12500000000E+03 0.  0.
         21    1    1    2  502  501 -0.21601625888E+03 -0.50247726854E+02  0.33428589657E+02  0.22428849450E+03  0.00000000000E+00 0. -1.
<mgrwt>
<rscale>  3 0.64479622E+03</rscale>
<asrwt>0</asrwt>
<pdfrwt beam="1">  1        1 0.10147871E+00 0.64479622E+03</pdfrwt>
<pdfrwt beam="2">  1       -1 0.24242830E-01 0.64479622E+03</pdfrwt>
<totfact> 0.44470710E+02</totfact>
</mgrwt>
</event>
<event>
 4    0  0.1264838E-002  0.6712250E+03  0.7546771E-02  0.9767747E-01
          1   -1    0    0  502    0  0.00000000000E+00  0.00000000000E+00  0.40462990249E+04  0.40462990249E+04  0.00000000000E+00 0. -1.
         -1   -1    0    0    0  501 -0.00000000000E+00 -0.00000000000E+00 -0.27836736427E+02  0.27836736427E+02  0.00000000000E+00 0.  1.
         25    1    1    2    0    0  0.12180960722E+03 -0.16036027530E+03  0.36192982064E+04  0.36270507999E+04  0.12500000000E+03 0.  0.
         21    1    1    2  502  501 -0.12180960722E+03  0.16036027530E+03  0.39916408209E+03  0.44708496143E+03  0.00000000000E+00 0.  1.
<mgrwt>
<rscale>  3 0.67122503E+03</rscale>
<asrwt>0</asrwt>
<pdfrwt beam="1">  1        1 0.62250708E+00 0.67122503E+03</pdfrwt>
<pdfrwt beam="2">  1       -1 0.42825780E-02 0.67122503E+03</pdfrwt>
<totfact> 0.22885026E+01</totfact>
</mgrwt>
</event>
<event>
 4    0  0.1264838E-002  0.7244573E+03  0.7546771E-02  0.9676298E-01
          2   -1    0    0  502    0  0.00000000000E+00  0.00000000000E+00  0.64550519759E+03  0.64550519759E+03  0.00000000000E+00 0. -1.
         -2   -1    0    0    0  501 -0.00000000000E+00 -0.00000000000E+00 -0.20326651040E+03  0.20326651040E+03  0.00000000000E+00 0.  1.
         25    1    1    2    0    0  0.68662034495E+02 -0.33767282438E+03  0.14673513558E+03  0.39483365019E+03  0.12500000000E+03 0.  0.
         21    1    1    2  502  501 -0.68662034495E+02  0.33767282438E+03  0.29550355161E+03  0.45393805780E+03  0.00000000000E+00 0. -1.
<mgrwt>
<rscale>  3 0.72445728E+03</rscale>
<asrwt>0</asrwt>
<pdfrwt beam="1">  1        2 0.99308491E-01 0.72445728E+03</pdfrwt>
<pdfrwt beam="2">  1       -2 0.31271771E-01 0.72445728E+03</pdfrwt>
<totfact> 0.43281807E+02</totfact>
</mgrwt>
</event>
<event>
 4    0  0.1264838E-002  0.4684807E+03  0.7546771E-02  0.1022350E+00
          2   -1    0    0  502    0  0.00000000000E+00  0.00000000000E+00  0.20019610293E+03  0.20019610293E+03  0.00000000000E+00 0. -1.
         -2   -1    0    0    0  501 -0.00000000000E+00 -0.00000000000E+00 -0.27407395213E+03  0.27407395213E+03  0.00000000000E+00 0.  1.
         25    1    1    2    0    0 -0.16971012653E+03  0.13561778593E+03 -0.27572232614E+02  0.25214864449E+03  0.12500000000E+03 0.  0.
         21    1    1    2  502  501  0.16971012653E+03 -0.13561778593E+03 -0.46305616588E+02  0.22212141057E+03  0.00000000000E+00 0.  1.
<mgrwt>
<rscale>  3 0.46848068E+03</rscale>
<asrwt>0</asrwt>
<pdfrwt beam="1">  1        2 0.30799400E-01 0.46848068E+03</pdfrwt>
<pdfrwt beam="2">  1       -2 0.42165223E-01 0.46848068E+03</pdfrwt>
<totfact> 0.92273044E+02</totfact>
</mgrwt>
</event>
<event>
 4    0  0.1264838E-002  0.4552942E+03  0.7546771E-02  0.1026155E+00
         -1   -1    0    0    0  501 -0.00000000000E+00  0.00000000000E+00  0.34825417370E+03  0.34825417370E+03  0.00000000000E+00 0. -1.
          1   -1    0    0  502    0  0.00000000000E+00 -0.00000000000E+00 -0.14880854708E+03  0.14880854708E+03  0.00000000000E+00 0.  1.
         25    1    1    2    0    0 -0.65268026572E+02  0.19057641071E+03  0.17387910473E+03  0.29400378683E+03  0.12500000000E+03 0.  0.
         21    1    1    2  502  501  0.65268026572E+02 -0.19057641071E+03  0.25566521894E+02  0.20305893394E+03  0.00000000000E+00 0. -1.
<mgrwt>
<rscale>  3 0.45529418E+03</rscale>
<asrwt>0</asrwt>
<pdfrwt beam="1">  1        1 0.22893623E-01 0.45529418E+03</pdfrwt>
<pdfrwt beam="2">  1       -1 0.53577565E-01 0.45529418E+03</pdfrwt>
<totfact> 0.77561677E+02</totfact>
</mgrwt>
</event>
<event>
 4    0  0.1264838E-002  0.5203262E+03  0.7546771E-02  0.1008606E+00
         -2   -1    0    0    0  501 -0.00000000000E+00  0.00000000000E+00  0.11233307309E+03  0.11233307309E+03  0.00000000000E+00 0.  1.
          2   -1    0    0  502    0  0.00000000000E+00 -0.00000000000E+00 -0.60253701540E+03  0.60253701540E+03  0.00000000000E+00 0. -1.
         25    1    1    2    0    0 -0.10372759187E+03  0.20014464933E+03 -0.39160125064E+03  0.46882175021E+03  0.12500000000E+03 0.  0.
         21    1    1    2  502  501  0.10372759187E+03 -0.20014464933E+03 -0.98602691665E+02  0.24604833828E+03  0.00000000000E+00 0.  1.
<mgrwt>
<rscale>  3 0.52032618E+03</rscale>
<asrwt>0</asrwt>
<pdfrwt beam="1">  1        2 0.92698002E-01 0.52032618E+03</pdfrwt>
<pdfrwt beam="2">  1       -2 0.17282011E-01 0.52032618E+03</pdfrwt>
<totfact> 0.13589193E+03</totfact>
</mgrwt>
</event>
<event>
 4    0  0.1264838E-002  0.5616574E+03  0.7546771E-02  0.9988311E-01
         -2   -1    0    0    0  501 -0.00000000000E+00  0.00000000000E+00  0.13493873821E+03  0.13493873821E+03  0.00000000000E+00 0.  1.
          2   -1    0    0  502    0  0.00000000000E+00 -0.00000000000E+00 -0.58444863028E+03  0.58444863028E+03  0.00000000000E+00 0. -1.
         25    1    1    2    0    0  0.25771127792E+03  0.30182824111E+02 -0.15569839970E+03  0.32740356948E+03  0.12500000000E+03 0.  0.
         21    1    1    2  502  501 -0.25771127792E+03 -0.30182824111E+02 -0.29381149238E+03  0.39198379901E+03  0.00000000000E+00 0. -1.
<mgrwt>
<rscale>  3 0.56165741E+03</rscale>
<asrwt>0</asrwt>
<pdfrwt beam="1">  1        2 0.89915171E-01 0.56165741E+03</pdfrwt>
<pdfrwt beam="2">  1       -2 0.20759807E-01 0.56165741E+03</pdfrwt>
<totfact> 0.10263621E+03</totfact>
</mgrwt>
</event>
<event>
 4    0  0.1264838E-002  0.4820421E+03  0.7546771E-02  0.1018575E+00
          2   -1    0    0  502    0  0.00000000000E+00  0.00000000000E+00  0.17648591799E+04  0.17648591799E+04  0.00000000000E+00 0. -1.
         -2   -1    0    0    0  501 -0.00000000000E+00 -0.00000000000E+00 -0.32915453387E+02  0.32915453387E+02  0.00000000000E+00 0.  1.
         25    1    1    2    0    0 -0.36087317403E+02 -0.21852172541E+03  0.10680314500E+04  0.10978935363E+04  0.12500000000E+03 0.  0.
         21    1    1    2  502  501  0.36087317403E+02  0.21852172541E+03  0.66391227655E+03  0.69988109698E+03  0.00000000000E+00 0.  1.
<mgrwt>
<rscale>  3 0.48204207E+03</rscale>
<asrwt>0</asrwt>
<pdfrwt beam="1">  1        2 0.27151672E+00 0.48204207E+03</pdfrwt>
<pdfrwt beam="2">  1       -2 0.50639173E-02 0.48204207E+03</pdfrwt>
<totfact> 0.18782858E+03</totfact>
</mgrwt>
</event>
<event>
 4    0  0.1264838E-002  0.5580029E+03  0.7546771E-02  0.9996584E-01
         -2   -1    0    0    0  501 -0.00000000000E+00  0.00000000000E+00  0.31614798121E+02  0.31614798121E+02  0.00000000000E+00 0.  1.
          2   -1    0    0  502    0  0.00000000000E+00 -0.00000000000E+00 -0.24621954427E+04  0.24621954427E+04  0.00000000000E+00 0. -1.
         25    1    1    2    0    0 -0.16748734051E+03 -0.20315231127E+03 -0.14105344354E+04  0.14403316508E+04  0.12500000000E+03 0.  0.
         21    1    1    2  502  501  0.16748734051E+03  0.20315231127E+03 -0.10200462092E+04  0.10534785900E+04  0.00000000000E+00 0.  1.
<mgrwt>
<rscale>  3 0.55800291E+03</rscale>
<asrwt>0</asrwt>
<pdfrwt beam="1">  1        2 0.37879904E+00 0.55800291E+03</pdfrwt>
<pdfrwt beam="2">  1       -2 0.48638184E-02 0.55800291E+03</pdfrwt>
<totfact> 0.83060969E+02</totfact>
</mgrwt>
</event>
<event>
 4    0  0.1264838E-002  0.5055970E+03  0.7546771E-02  0.1012328E+00
         -2   -1    0    0    0  501 -0.00000000000E+00  0.00000000000E+00  0.66092251343E+02  0.66092251343E+02  0.00000000000E+00 0. -1.
          2   -1    0    0  502    0  0.00000000000E+00 -0.00000000000E+00 -0.96693748492E+03  0.96693748492E+03  0.00000000000E+00 0.  1.
         25    1    1    2    0    0  0.22682432524E+03  0.66099215254E+02 -0.43158870010E+03  0.50765360911E+03  0.12500000000E+03 0.  0.
         21    1    1    2  502  501 -0.22682432524E+03 -0.66099215254E+02 -0.46925653347E+03  0.52537612716E+03  0.00000000000E+00 0. -1.
<mgrwt>
<rscale>  3 0.50559698E+03</rscale>
<asrwt>0</asrwt>
<pdfrwt beam="1">  1        2 0.14875960E+00 0.50559698E+03</pdfrwt>
<pdfrwt beam="2">  1       -2 0.10168039E-01 0.50559698E+03</pdfrwt>
<totfact> 0.17780433E+03</totfact>
</mgrwt>
</event>
<event>
 4    0  0.1264838E-002  0.5429273E+03  0.7546771E-02  0.1003144E+00
          1   -1    0    0  502    0  0.00000000000E+00  0.00000000000E+00  0.29142484899E+03  0.29142484899E+03  0.00000000000E+00 0. -1.
         -1   -1    0    0    0  501 -0.00000000000E+00 -0.00000000000E+00 -0.25286970097E+03  0.25286970097E+03  0.00000000000E+00 0.  1.
         25    1    1    2    0    0 -0.20530679033E+03 -0.90012947813E+02  0.14644900043E+03  0.29550891468E+03  0.12500000000E+03 0.  0.
         21    1    1    2  502  501  0.20530679033E+03  0.90012947813E+02 -0.10789385241E+03  0.24878563527E+03  0.00000000000E+00 0.  1.
<mgrwt>
<rscale>  3 0.54292730E+03</rscale>
<asrwt>0</asrwt>
<pdfrwt beam="1">  1        1 0.44834592E-01 0.54292730E+03</pdfrwt>
<pdfrwt beam="2">  1       -1 0.38903031E-01 0.54292730E+03</pdfrwt>
<totfact> 0.58911789E+02</totfact>
</mgrwt>
</event>
<event>
 4    0  0.1264838E-002  0.5327475E+03  0.7546771E-02  0.1005568E+00
          2   -1    0    0  502    0  0.00000000000E+00  0.00000000000E+00  0.26292464247E+04  0.26292464247E+04  0.00000000000E+00 0.  1.
         -2   -1    0    0    0  501 -0.00000000000E+00 -0.00000000000E+00 -0.26986806880E+02  0.26986806880E+02  0.00000000000E+00 0. -1.
         25    1    1    2    0    0  0.31473509109E+02  0.19999056887E+03  0.21184955003E+04  0.21318149531E+04  0.12500000000E+03 0.  0.
         21    1    1    2  502  501 -0.31473509109E+02 -0.19999056887E+03  0.48376411746E+03  0.52441827844E+03  0.00000000000E+00 0. -1.
<mgrwt>
<rscale>  3 0.53274747E+03</rscale>
<asrwt>0</asrwt>
<pdfrwt beam="1">  1        2 0.40449925E+00 0.53274747E+03</pdfrwt>
<pdfrwt beam="2">  1       -2 0.41518185E-02 0.53274747E+03</pdfrwt>
<totfact> 0.85504186E+02</totfact>
</mgrwt>
</event>
<event>
 4    0  0.1264838E-002  0.7158050E+03  0.7546771E-02  0.9690579E-01
          2   -1    0    0  502    0  0.00000000000E+00  0.00000000000E+00  0.48933069236E+03  0.48933069236E+03  0.00000000000E+00 0.  1.
         -2   -1    0    0    0  501 -0.00000000000E+00 -0.00000000000E+00 -0.26177432707E+03  0.26177432707E+03  0.00000000000E+00 0. -1.
         25    1    1    2    0    0 -0.12422961940E+02  0.26610375054E+03 -0.11605737692E+03  0.31632238424E+03  0.12500000000E+03 0.  0.
         21    1    1    2  502  501  0.12422961940E+02 -0.26610375054E+03  0.34361374221E+03  0.43478263520E+03  0.00000000000E+00 0.  1.
<mgrwt>
<rscale>  3 0.71580504E+03</rscale>
<asrwt>0</asrwt>
<pdfrwt beam="1">  1        2 0.75281645E-01 0.71580504E+03</pdfrwt>
<pdfrwt beam="2">  1       -2 0.40272974E-01 0.71580504E+03</pdfrwt>
<totfact> 0.37138703E+02</totfact>
</mgrwt>
</event>
<event>
 4    0  0.1264838E-002  0.5478827E+03  0.7546771E-02  0.1001985E+00
         -2   -1    0    0    0  501 -0.00000000000E+00  0.00000000000E+00  0.17034376229E+03  0.17034376229E+03  0.00000000000E+00 0.  1.
          2   -1    0    0  502    0  0.00000000000E+00 -0.00000000000E+00 -0.44054364425E+03  0.44054364425E+03  0.00000000000E+00 0. -1.
         25    1    1    2    0    0  0.22914189870E+03 -0.10180433061E+03 -0.66801385980E+02  0.28802353487E+03  0.12500000000E+03 0.  0.
         21    1    1    2  502  501 -0.22914189870E+03  0.10180433061E+03 -0.20339849598E+03  0.32286387168E+03  0.00000000000E+00 0. -1.
<mgrwt>
<rscale>  3 0.54788269E+03</rscale>
<asrwt>0</asrwt>
<pdfrwt beam="1">  1        2 0.67775945E-01 0.54788269E+03</pdfrwt>
<pdfrwt beam="2">  1       -2 0.26206733E-01 0.54788269E+03</pdfrwt>
<totfact> 0.94040750E+02</totfact>
</mgrwt>
</event>
<event>
 4    0  0.1264838E-002  0.5101491E+03  0.7546771E-02  0.1011163E+00
         -1   -1    0    0    0  501 -0.00000000000E+00  0.00000000000E+00  0.20829546669E+03  0.20829546669E+03  0.00000000000E+00 0.  1.
          1   -1    0    0  502    0  0.00000000000E+00 -0.00000000000E+00 -0.31235928770E+03  0.31235928770E+03  0.00000000000E+00 0. -1.
         25    1    1    2    0    0 -0.23033672061E+03  0.61591533718E+02 -0.80904803058E+02  0.28110337786E+03  0.12500000000E+03 0.  0.
         21    1    1    2  502  501  0.23033672061E+03 -0.61591533718E+02 -0.23159017952E+02  0.23955137654E+03  0.00000000000E+00 0.  1.
<mgrwt>
<rscale>  3 0.51014909E+03</rscale>
<asrwt>0</asrwt>
<pdfrwt beam="1">  1        1 0.48055275E-01 0.51014909E+03</pdfrwt>
<pdfrwt beam="2">  1       -1 0.32045456E-01 0.51014909E+03</pdfrwt>
<totfact> 0.76004951E+02</totfact>
</mgrwt>
</event>
<event>
 4    0  0.1264838E-002  0.6042670E+03  0.7546771E-02  0.9896593E-01
          2   -1    0    0  502    0  0.00000000000E+00  0.00000000000E+00  0.31748154868E+04  0.31748154868E+04  0.00000000000E+00 0. -1.
         -2   -1    0    0    0  501 -0.00000000000E+00 -0.00000000000E+00 -0.28752740419E+02  0.28752740419E+02  0.00000000000E+00 0.  1.
         25    1    1    2    0    0  0.15373251719E+03 -0.21345454673E+03  0.22774779035E+04  0.22960242009E+04  0.12500000000E+03 0.  0.
         21    1    1    2  502  501 -0.15373251719E+03  0.21345454673E+03  0.86858484291E+03  0.90754402632E+03  0.00000000000E+00 0.  1.
<mgrwt>
<rscale>  3 0.60426698E+03</rscale>
<asrwt>0</asrwt>
<pdfrwt beam="1">  1        2 0.48843288E+00 0.60426698E+03</pdfrwt>
<pdfrwt beam="2">  1       -2 0.44235010E-02 0.60426698E+03</pdfrwt>
<totfact> 0.36328232E+02</totfact>
</mgrwt>
</event>
<event>
 4    0  0.1264838E-002  0.5019573E+03  0.7546771E-02  0.1013269E+00
          1   -1    0    0  502    0  0.00000000000E+00  0.00000000000E+00  0.16612633943E+03  0.16612633943E+03  0.00000000000E+00 0. -1.
         -1   -1    0    0    0  501 -0.00000000000E+00 -0.00000000000E+00 -0.37917092717E+03  0.37917092717E+03  0.00000000000E+00 0.  1.
         25    1    1    2    0    0  0.25092067741E+02 -0.23316501322E+03 -0.13551001321E+03  0.29830102067E+03  0.12500000000E+03 0.  0.
         21    1    1    2  502  501 -0.25092067741E+02  0.23316501322E+03 -0.77534574538E+02  0.24699624593E+03  0.00000000000E+00 0.  1.
<mgrwt>
<rscale>  3 0.50195728E+03</rscale>
<asrwt>0</asrwt>
<pdfrwt beam="1">  1        1 0.25557899E-01 0.50195728E+03</pdfrwt>
<pdfrwt beam="2">  1       -1 0.58333987E-01 0.50195728E+03</pdfrwt>
<totfact> 0.57066237E+02</totfact>
</mgrwt>
</event>
<event>
 4    0  0.1264838E-002  0.4388534E+03  0.7546771E-02  0.1031099E+00
         -2   -1    0    0    0  501 -0.00000000000E+00  0.00000000000E+00  0.18253639166E+03  0.18253639166E+03  0.00000000000E+00 0.  1.
          2   -1    0    0  502    0  0.00000000000E+00 -0.00000000000E+00 -0.26377244791E+03  0.26377244791E+03  0.00000000000E+00 0. -1.
         25    1    1    2    0    0 -0.90138828876E+02  0.18035281339E+03 -0.44505416461E+02  0.24136668756E+03  0.12500000000E+03 0.  0.
         21    1    1    2  502  501  0.90138828876E+02 -0.18035281339E+03 -0.36730639792E+02  0.20494215200E+03  0.00000000000E+00 0. -1.
<mgrwt>
<rscale>  3 0.43885337E+03</rscale>
<asrwt>0</asrwt>
<pdfrwt beam="1">  1        2 0.40580377E-01 0.43885337E+03</pdfrwt>
<pdfrwt beam="2">  1       -2 0.28082522E-01 0.43885337E+03</pdfrwt>
<totfact> 0.14614502E+03</totfact>
</mgrwt>
</event>
<event>
 4    0  0.1264838E-002  0.4912707E+03  0.7546771E-02  0.1016083E+00
         -2   -1    0    0    0  501 -0.00000000000E+00  0.00000000000E+00  0.27218151362E+02  0.27218151362E+02  0.00000000000E+00 0. -1.
          2   -1    0    0  502    0  0.00000000000E+00 -0.00000000000E+00 -0.22167826515E+04  0.22167826515E+04  0.00000000000E+00 0.  1.
         25    1    1    2    0    0 -0.12841007083E+03 -0.16477573122E+03 -0.16022780678E+04  0.16206665896E+04  0.12500000000E+03 0.  0.
         21    1    1    2  502  501  0.12841007083E+03  0.16477573122E+03 -0.58728643226E+03  0.62333421324E+03  0.00000000000E+00 0. -1.
<mgrwt>
<rscale>  3 0.49127070E+03</rscale>
<asrwt>0</asrwt>
<pdfrwt beam="1">  1        2 0.34104346E+00 0.49127070E+03</pdfrwt>
<pdfrwt beam="2">  1       -2 0.41874082E-02 0.49127070E+03</pdfrwt>
<totfact> 0.14357097E+03</totfact>
</mgrwt>
</event>
<event>
 4    0  0.1264838E-002  0.5538578E+03  0.7546771E-02  0.1000605E+00
         -2   -1    0    0    0  501 -0.00000000000E+00  0.00000000000E+00  0.26839032349E+02  0.26839032349E+02  0.00000000000E+00 0.  1.
          2   -1    0    0  502    0  0.00000000000E+00 -0.00000000000E+00 -0.28573915888E+04  0.28573915888E+04  0.00000000000E+00 0. -1.
         25    1    1    2    0    0  0.20419779414E+03  0.95713600506E+01 -0.23475963503E+04  0.23597927820E+04  0.12500000000E+03 0.  0.
         21    1    1    2  502  501 -0.20419779414E+03 -0.95713600506E+01 -0.48295620615E+03  0.52443783915E+03  0.00000000000E+00 0.  1.
<mgrwt>
<rscale>  3 0.55385783E+03</rscale>
<asrwt>0</asrwt>
<pdfrwt beam="1">  1        2 0.43959826E+00 0.55385783E+03</pdfrwt>
<pdfrwt beam="2">  1       -2 0.41290860E-02 0.55385783E+03</pdfrwt>
<totfact> 0.63432271E+02</totfact>
</mgrwt>
</event>
<event>
 4    0  0.1264838E-002  0.5198437E+03  0.7546771E-02  0.1008725E+00
         -2   -1    0    0    0  501 -0.00000000000E+00  0.00000000000E+00  0.56534105242E+02  0.56534105242E+02  0.00000000000E+00 0. -1.
          2   -1    0    0  502    0  0.00000000000E+00 -0.00000000000E+00 -0.11950198011E+04  0.11950198011E+04  0.00000000000E+00 0.  1.
         25    1    1    2    0    0 -0.19272878123E+03  0.10923232157E+03 -0.85347398677E+03  0.89057224822E+03  0.12500000000E+03 0.  0.
         21    1    1    2  502  501  0.19272878123E+03 -0.10923232157E+03 -0.28501170911E+03  0.36098165815E+03  0.00000000000E+00 0. -1.
<mgrwt>
<rscale>  3 0.51984373E+03</rscale>
<asrwt>0</asrwt>
<pdfrwt beam="1">  1        2 0.18384918E+00 0.51984373E+03</pdfrwt>
<pdfrwt beam="2">  1       -2 0.86975557E-02 0.51984373E+03</pdfrwt>
<totfact> 0.16595618E+03</totfact>
</mgrwt>
</event>
<event>
 4    0  0.1264838E-002  0.1133478E+04  0.7546771E-02  0.9173162E-01
         -2   -1    0    0    0  501 -0.00000000000E+00  0.00000000000E+00  0.29066255116E+03  0.29066255116E+03  0.00000000000E+00 0. -1.
          2   -1    0    0  502    0  0.00000000000E+00 -0.00000000000E+00 -0.11050380682E+04  0.11050380682E+04  0.00000000000E+00 0.  1.
         25    1    1    2    0    0 -0.12861800020E+03 -0.47427672378E+03 -0.74242270489E+03  0.89905365437E+03  0.12500000000E+03 0.  0.
         21    1    1    2  502  501  0.12861800020E+03  0.47427672378E+03 -0.71952812189E+02  0.49664696503E+03  0.00000000000E+00 0.  1.
<mgrwt>
<rscale>  3 0.11334782E+04</rscale>
<asrwt>0</asrwt>
<pdfrwt beam="1">  1        2 0.17000586E+00 0.11334782E+04</pdfrwt>
<pdfrwt beam="2">  1       -2 0.44717315E-01 0.11334782E+04</pdfrwt>
<totfact> 0.10159931E+02</totfact>
</mgrwt>
</event>
<event>
 4    0  0.1264838E-002  0.6876771E+03  0.7546771E-02  0.9738541E-01
         -2   -1    0    0    0  501 -0.00000000000E+00  0.00000000000E+00  0.16931616327E+03  0.16931616327E+03  0.00000000000E+00 0.  1.
          2   -1    0    0  502    0  0.00000000000E+00 -0.00000000000E+00 -0.69824968778E+03  0.69824968778E+03  0.00000000000E+00 0. -1.
         25    1    1    2    0    0 -0.31359634426E+03 -0.60108329367E+02 -0.15630633700E+03  0.37684525920E+03  0.12500000000E+03 0.  0.
         21    1    1    2  502  501  0.31359634426E+03  0.60108329367E+02 -0.37262718751E+03  0.49072059185E+03  0.00000000000E+00 0. -1.
<mgrwt>
<rscale>  3 0.68767713E+03</rscale>
<asrwt>0</asrwt>
<pdfrwt beam="1">  1        2 0.10742303E+00 0.68767713E+03</pdfrwt>
<pdfrwt beam="2">  1       -2 0.26048641E-01 0.68767713E+03</pdfrwt>
<totfact> 0.54999879E+02</totfact>
</mgrwt>
</event>
<event>
 4    0  0.1264838E-002  0.5493613E+03  0.7546771E-02  0.1001642E+00
         -1   -1    0    0    0  501 -0.00000000000E+00  0.00000000000E+00  0.15039826859E+03  0.15039826859E+03  0.00000000000E+00 0. -1.
          1   -1    0    0  502    0  0.00000000000E+00 -0.00000000000E+00 -0.50166442786E+03  0.50166442786E+03  0.00000000000E+00 0.  1.
         25    1    1    2    0    0 -0.11783143695E+03  0.17927267906E+03 -0.36004209208E+03  0.43735368875E+03  0.12500000000E+03 0.  0.
         21    1    1    2  502  501  0.11783143695E+03 -0.17927267906E+03  0.87759328106E+01  0.21470900770E+03  0.00000000000E+00 0.  1.
<mgrwt>
<rscale>  3 0.54936131E+03</rscale>
<asrwt>0</asrwt>
<pdfrwt beam="1">  1        1 0.77179142E-01 0.54936131E+03</pdfrwt>
<pdfrwt beam="2">  1       -1 0.23138195E-01 0.54936131E+03</pdfrwt>
<totfact> 0.71069869E+02</totfact>
</mgrwt>
</event>
<event>
 4    0  0.1264838E-002  0.4563304E+03  0.7546771E-02  0.1025851E+00
         -1   -1    0    0    0  501 -0.00000000000E+00  0.00000000000E+00  0.11058235862E+03  0.11058235862E+03  0.00000000000E+00 0. -1.
          1   -1    0    0  502    0  0.00000000000E+00 -0.00000000000E+00 -0.47077451655E+03  0.47077451655E+03  0.00000000000E+00 0.  1.
         25    1    1    2    0    0  0.10494346050E+03 -0.18266589620E+03 -0.17749473341E+03  0.30250510727E+03  0.12500000000E+03 0.  0.
         21    1    1    2  502  501 -0.10494346050E+03  0.18266589620E+03 -0.18269742452E+03  0.27885176790E+03  0.00000000000E+00 0.  1.
<mgrwt>
<rscale>  3 0.45633039E+03</rscale>
<asrwt>0</asrwt>
<pdfrwt beam="1">  1        1 0.72426850E-01 0.45633039E+03</pdfrwt>
<pdfrwt beam="2">  1       -1 0.17012670E-01 0.45633039E+03</pdfrwt>
<totfact> 0.12885386E+03</totfact>
</mgrwt>
</event>
<event>
 4    0  0.1264838E-002  0.4604161E+03  0.7546771E-02  0.1024661E+00
          4   -1    0    0  502    0  0.00000000000E+00  0.00000000000E+00  0.37325723586E+03  0.37325723586E+03  0.00000000000E+00 0.  1.
         -4   -1    0    0    0  501 -0.00000000000E+00 -0.00000000000E+00 -0.14198186042E+03  0.14198186042E+03  0.00000000000E+00 0. -1.
         25    1    1    2    0    0 -0.34339033968E+02 -0.20070661900E+03  0.53306440322E+02  0.24480378417E+03  0.12500000000E+03 0.  0.
         21    1    1    2  502  501  0.34339033968E+02  0.20070661900E+03  0.17796893512E+03  0.27043531210E+03  0.00000000000E+00 0.  1.
<mgrwt>
<rscale>  3 0.46041615E+03</rscale>
<asrwt>0</asrwt>
<pdfrwt beam="1">  1        4 0.57424190E-01 0.46041615E+03</pdfrwt>
<pdfrwt beam="2">  1       -4 0.21843363E-01 0.46041615E+03</pdfrwt>
<totfact> 0.10924979E+02</totfact>
</mgrwt>
</event>
<event>
 4    0  0.1264838E-002  0.5759059E+03  0.7546771E-02  0.9956694E-01
          1   -1    0    0  502    0  0.00000000000E+00  0.00000000000E+00  0.11346645956E+04  0.11346645956E+04  0.00000000000E+00 0. -1.
         -1   -1    0    0    0  501 -0.00000000000E+00 -0.00000000000E+00 -0.73076129257E+02  0.73076129257E+02  0.00000000000E+00 0.  1.
         25    1    1    2    0    0  0.15188778812E+03  0.15431996309E+03  0.90923631559E+03  0.94298474472E+03  0.12500000000E+03 0.  0.
         21    1    1    2  502  501 -0.15188778812E+03 -0.15431996309E+03  0.15235215079E+03  0.26475598017E+03  0.00000000000E+00 0.  1.
<mgrwt>
<rscale>  3 0.57590588E+03</rscale>
<asrwt>0</asrwt>
<pdfrwt beam="1">  1        1 0.17456377E+00 0.57590588E+03</pdfrwt>
<pdfrwt beam="2">  1       -1 0.11242482E-01 0.57590588E+03</pdfrwt>
<totfact> 0.63660704E+02</totfact>
</mgrwt>
</event>
<event>
 4    0  0.1264838E-002  0.4957757E+03  0.7546771E-02  0.1014887E+00
         -1   -1    0    0    0  501 -0.00000000000E+00  0.00000000000E+00  0.11085257402E+03  0.11085257402E+03  0.00000000000E+00 0.  1.
          1   -1    0    0  502    0  0.00000000000E+00 -0.00000000000E+00 -0.55432522272E+03  0.55432522272E+03  0.00000000000E+00 0. -1.
         25    1    1    2    0    0  0.19153259628E+03 -0.71979822696E+02 -0.38291934517E+03  0.45179426204E+03  0.12500000000E+03 0.  0.
         21    1    1    2  502  501 -0.19153259628E+03  0.71979822696E+02 -0.60553303528E+02  0.21338353470E+03  0.00000000000E+00 0.  1.
<mgrwt>
<rscale>  3 0.49577567E+03</rscale>
<asrwt>0</asrwt>
<pdfrwt beam="1">  1        1 0.85280804E-01 0.49577567E+03</pdfrwt>
<pdfrwt beam="2">  1       -1 0.17054242E-01 0.49577567E+03</pdfrwt>
<totfact> 0.10269540E+03</totfact>
</mgrwt>
</event>
<event>
 4    0  0.1264838E-002  0.4630559E+03  0.7546771E-02  0.1023899E+00
         -2   -1    0    0    0  501 -0.00000000000E+00  0.00000000000E+00  0.11052656635E+03  0.11052656635E+03  0.00000000000E+00 0.  1.
          2   -1    0    0  502    0  0.00000000000E+00 -0.00000000000E+00 -0.48499817242E+03  0.48499817242E+03  0.00000000000E+00 0. -1.
         25    1    1    2    0    0  0.11644237463E+03  0.17169966507E+03 -0.12999696497E+03  0.27488872748E+03  0.12500000000E+03 0.  0.
         21    1    1    2  502  501 -0.11644237463E+03 -0.17169966507E+03 -0.24447464109E+03  0.32063601128E+03  0.00000000000E+00 0. -1.
<mgrwt>
<rscale>  3 0.46305586E+03</rscale>
<asrwt>0</asrwt>
<pdfrwt beam="1">  1        2 0.74615103E-01 0.46305586E+03</pdfrwt>
<pdfrwt beam="2">  1       -2 0.17004087E-01 0.46305586E+03</pdfrwt>
<totfact> 0.17975634E+03</totfact>
</mgrwt>
</event>
<event>
 4    0  0.1264838E-002  0.5150085E+03  0.7546771E-02  0.1009934E+00
         -2   -1    0    0    0  501 -0.00000000000E+00  0.00000000000E+00  0.31035281407E+02  0.31035281407E+02  0.00000000000E+00 0. -1.
          2   -1    0    0  502    0  0.00000000000E+00 -0.00000000000E+00 -0.21365499895E+04  0.21365499895E+04  0.00000000000E+00 0.  1.
         25    1    1    2    0    0 -0.51276935502E+02 -0.21883804406E+03 -0.14960559242E+04  0.15180012326E+04  0.12500000000E+03 0.  0.
         21    1    1    2  502  501  0.51276935502E+02  0.21883804406E+03 -0.60945878386E+03  0.64958403834E+03  0.00000000000E+00 0. -1.
<mgrwt>
<rscale>  3 0.51500847E+03</rscale>
<asrwt>0</asrwt>
<pdfrwt beam="1">  1        2 0.32870004E+00 0.51500847E+03</pdfrwt>
<pdfrwt beam="2">  1       -2 0.47746581E-02 0.51500847E+03</pdfrwt>
<totfact> 0.12951399E+03</totfact>
</mgrwt>
</event>
<event>
 4    0  0.1264838E-002  0.6366705E+03  0.7546771E-02  0.9832118E-01
          1   -1    0    0  502    0  0.00000000000E+00  0.00000000000E+00  0.82758631412E+03  0.82758631412E+03  0.00000000000E+00 0. -1.
         -1   -1    0    0    0  501 -0.00000000000E+00 -0.00000000000E+00 -0.12244926260E+03  0.12244926260E+03  0.00000000000E+00 0.  1.
         25    1    1    2    0    0 -0.11445791528E+02 -0.26205056613E+03  0.60149971727E+03  0.66800330480E+03  0.12500000000E+03 0.  0.
         21    1    1    2  502  501  0.11445791528E+02  0.26205056613E+03  0.10363733425E+03  0.28203227192E+03  0.00000000000E+00 0.  1.
<mgrwt>
<rscale>  3 0.63667051E+03</rscale>
<asrwt>0</asrwt>
<pdfrwt beam="1">  1        1 0.12732097E+00 0.63667051E+03</pdfrwt>
<pdfrwt beam="2">  1       -1 0.18838349E-01 0.63667051E+03</pdfrwt>
<totfact> 0.47847435E+02</totfact>
</mgrwt>
</event>
<event>
 4    0  0.1264838E-002  0.6365085E+03  0.7546771E-02  0.9832430E-01
         -2   -1    0    0    0  501 -0.00000000000E+00  0.00000000000E+00  0.84631103620E+02  0.84631103620E+02  0.00000000000E+00 0.  1.
          2   -1    0    0  502    0  0.00000000000E+00 -0.00000000000E+00 -0.11967911140E+04  0.11967911140E+04  0.00000000000E+00 0. -1.
         25    1    1    2    0    0  0.13981722595E+03 -0.26848736751E+03 -0.48772768815E+03  0.58748414529E+03  0.12500000000E+03 0.  0.
         21    1    1    2  502  501 -0.13981722595E+03  0.26848736751E+03 -0.62443232225E+03  0.69393807235E+03  0.00000000000E+00 0. -1.
<mgrwt>
<rscale>  3 0.63650845E+03</rscale>
<asrwt>0</asrwt>
<pdfrwt beam="1">  1        2 0.18412170E+00 0.63650845E+03</pdfrwt>
<pdfrwt beam="2">  1       -2 0.13020171E-01 0.63650845E+03</pdfrwt>
<totfact> 0.85490265E+02</totfact>
</mgrwt>
</event>
<event>
 4    0  0.1264838E-002  0.4733813E+03  0.7546771E-02  0.1020970E+00
         -1   -1    0    0    0  501 -0.00000000000E+00  0.00000000000E+00  0.16991352855E+03  0.16991352855E+03  0.00000000000E+00 0.  1.
          1   -1    0    0  502    0  0.00000000000E+00 -0.00000000000E+00 -0.32971164554E+03  0.32971164554E+03  0.00000000000E+00 0. -1.
         25    1    1    2    0    0 -0.20655964228E+03 -0.71275236457E+02 -0.11408973014E+03  0.27638471679E+03  0.12500000000E+03 0.  0.
         21    1    1    2  502  501  0.20655964228E+03  0.71275236457E+02 -0.45708386837E+02  0.22324045730E+03  0.00000000000E+00 0. -1.
<mgrwt>
<rscale>  3 0.47338132E+03</rscale>
<asrwt>0</asrwt>
<pdfrwt beam="1">  1        1 0.50724867E-01 0.47338132E+03</pdfrwt>
<pdfrwt beam="2">  1       -1 0.26140543E-01 0.47338132E+03</pdfrwt>
<totfact> 0.10068153E+03</totfact>
</mgrwt>
</event>
<event>
 4    0  0.1264838E-002  0.1454489E+04  0.7546771E-02  0.8915294E-01
          1   -1    0    0  502    0  0.00000000000E+00  0.00000000000E+00  0.46531907622E+03  0.46531907622E+03  0.00000000000E+00 0.  1.
         -1   -1    0    0    0  501 -0.00000000000E+00 -0.00000000000E+00 -0.11366058502E+04  0.11366058502E+04  0.00000000000E+00 0. -1.
         25    1    1    2    0    0 -0.55211388375E+03  0.31534312801E+03 -0.71457337318E+03  0.96463005067E+03  0.12500000000E+03 0.  0.
         21    1    1    2  502  501  0.55211388375E+03 -0.31534312801E+03  0.43286599180E+02  0.63729487576E+03  0.00000000000E+00 0.  1.
<mgrwt>
<rscale>  3 0.14544888E+04</rscale>
<asrwt>0</asrwt>
<pdfrwt beam="1">  1        1 0.71587551E-01 0.14544888E+04</pdfrwt>
<pdfrwt beam="2">  1       -1 0.17486244E+00 0.14544888E+04</pdfrwt>
<totfact> 0.10767263E+01</totfact>
</mgrwt>
</event>
<event>
 4    0  0.1264838E-002  0.5824162E+03  0.7546771E-02  0.9942574E-01
         -2   -1    0    0    0  501 -0.00000000000E+00  0.00000000000E+00  0.69880172084E+02  0.69880172084E+02  0.00000000000E+00 0. -1.
          2   -1    0    0  502    0  0.00000000000E+00 -0.00000000000E+00 -0.12135367803E+04  0.12135367803E+04  0.00000000000E+00 0.  1.
         25    1    1    2    0    0  0.42951251770E+02 -0.23930104420E+03 -0.30203282586E+03  0.40738020040E+03  0.12500000000E+03 0.  0.
         21    1    1    2  502  501 -0.42951251770E+02  0.23930104420E+03 -0.84162378236E+03  0.87603675198E+03  0.00000000000E+00 0.  1.
<mgrwt>
<rscale>  3 0.58241621E+03</rscale>
<asrwt>0</asrwt>
<pdfrwt beam="1">  1        2 0.18669794E+00 0.58241621E+03</pdfrwt>
<pdfrwt beam="2">  1       -2 0.10750797E-01 0.58241621E+03</pdfrwt>
<totfact> 0.11476542E+03</totfact>
</mgrwt>
</event>
<event>
 4    0  0.1264838E-002  0.6070904E+03  0.7546771E-02  0.9890804E-01
         -4   -1    0    0    0  501 -0.00000000000E+00  0.00000000000E+00  0.20533451790E+03  0.20533451790E+03  0.00000000000E+00 0.  1.
          4   -1    0    0  502    0  0.00000000000E+00 -0.00000000000E+00 -0.44872964711E+03  0.44872964711E+03  0.00000000000E+00 0. -1.
         25    1    1    2    0    0  0.24275769251E+03 -0.15203245258E+03 -0.73555396691E+02  0.32106161448E+03  0.12500000000E+03 0.  0.
         21    1    1    2  502  501 -0.24275769251E+03  0.15203245258E+03 -0.16983973251E+03  0.33300255052E+03  0.00000000000E+00 0. -1.
<mgrwt>
<rscale>  3 0.60709039E+03</rscale>
<asrwt>0</asrwt>
<pdfrwt beam="1">  1        4 0.69035330E-01 0.60709039E+03</pdfrwt>
<pdfrwt beam="2">  1       -4 0.31589926E-01 0.60709039E+03</pdfrwt>
<totfact> 0.37062117E+01</totfact>
</mgrwt>
</event>
<event>
 4    0  0.1264838E-002  0.5448504E+03  0.7546771E-02  0.1002693E+00
         -2   -1    0    0    0  501 -0.00000000000E+00  0.00000000000E+00  0.71808785620E+03  0.71808785620E+03  0.00000000000E+00 0.  1.
          2   -1    0    0  502    0  0.00000000000E+00 -0.00000000000E+00 -0.10335153723E+03  0.10335153723E+03  0.00000000000E+00 0. -1.
         25    1    1    2    0    0 -0.25525993554E+03  0.18483463396E+01  0.38090660467E+03  0.47526402405E+03  0.12500000000E+03 0.  0.
         21    1    1    2  502  501  0.25525993554E+03 -0.18483463396E+01  0.23382971430E+03  0.34617536938E+03  0.00000000000E+00 0. -1.
<mgrwt>
<rscale>  3 0.54485038E+03</rscale>
<asrwt>0</asrwt>
<pdfrwt beam="1">  1        2 0.15900237E-01 0.54485038E+03</pdfrwt>
<pdfrwt beam="2">  1       -2 0.11047505E+00 0.54485038E+03</pdfrwt>
<totfact> 0.24611358E+02</totfact>
</mgrwt>
</event>
<event>
 4    0  0.1264838E-002  0.4469782E+03  0.7546771E-02  0.1028627E+00
          2   -1    0    0  502    0  0.00000000000E+00  0.00000000000E+00  0.10988793732E+04  0.10988793732E+04  0.00000000000E+00 0.  1.
         -2   -1    0    0    0  501 -0.00000000000E+00 -0.00000000000E+00 -0.45453013303E+02  0.45453013303E+02  0.00000000000E+00 0. -1.
         25    1    1    2    0    0  0.17054379345E+03  0.11554590198E+03  0.56257552214E+03  0.61200674756E+03  0.12500000000E+03 0.  0.
         21    1    1    2  502  501 -0.17054379345E+03 -0.11554590198E+03  0.49085083777E+03  0.53232563896E+03  0.00000000000E+00 0.  1.
<mgrwt>
<rscale>  3 0.44697820E+03</rscale>
<asrwt>0</asrwt>
<pdfrwt beam="1">  1        2 0.16905835E+00 0.44697820E+03</pdfrwt>
<pdfrwt beam="2">  1       -2 0.69927721E-02 0.44697820E+03</pdfrwt>
<totfact> 0.26755559E+03</totfact>
</mgrwt>
</event>
<event>
 4    0  0.1264838E-002  0.4530832E+03  0.7546771E-02  0.1026807E+00
         -1   -1    0    0    0  501 -0.00000000000E+00  0.00000000000E+00  0.27552453584E+02  0.27552453584E+02  0.00000000000E+00 0.  1.
          1   -1    0    0  502    0  0.00000000000E+00 -0.00000000000E+00 -0.18626686318E+04  0.18626686318E+04  0.00000000000E+00 0. -1.
         25    1    1    2    0    0 -0.12612300772E+03  0.16448051143E+03 -0.86612009063E+03  0.89930521132E+03  0.12500000000E+03 0.  0.
         21    1    1    2  502  501  0.12612300772E+03 -0.16448051143E+03 -0.96899608760E+03  0.99091587408E+03  0.00000000000E+00 0. -1.
<mgrwt>
<rscale>  3 0.45308318E+03</rscale>
<asrwt>0</asrwt>
<pdfrwt beam="1">  1        1 0.28656446E+00 0.45308318E+03</pdfrwt>
<pdfrwt beam="2">  1       -1 0.42388382E-02 0.45308318E+03</pdfrwt>
<totfact> 0.92097835E+02</totfact>
</mgrwt>
</event>
<event>
 4    0  0.1264838E-002  0.4532985E+03  0.7546771E-02  0.1026743E+00
         -1   -1    0    0    0  501 -0.00000000000E+00  0.00000000000E+00  0.86211718179E+02  0.86211718179E+02  0.00000000000E+00 0. -1.
          1   -1    0    0  502    0  0.00000000000E+00 -0.00000000000E+00 -0.59585740376E+03  0.59585740376E+03  0.00000000000E+00 0.  1.
         25    1    1    2    0    0  0.15867678227E+03 -0.13636135358E+03 -0.28779950987E+03  0.37712902018E+03  0.12500000000E+03 0.  0.
         21    1    1    2  502  501 -0.15867678227E+03  0.13636135358E+03 -0.22184617571E+03  0.30494010176E+03  0.00000000000E+00 0.  1.
<mgrwt>
<rscale>  3 0.45329854E+03</rscale>
<asrwt>0</asrwt>
<pdfrwt beam="1">  1        1 0.91670371E-01 0.45329854E+03</pdfrwt>
<pdfrwt beam="2">  1       -1 0.13263341E-01 0.45329854E+03</pdfrwt>
<totfact> 0.13920667E+03</totfact>
</mgrwt>
</event>
<event>
 4    0  0.1325800E-002  0.5391159E+03  0.7546771E-02  0.1004045E+00
         -2   -1    0    0    0  501 -0.00000000000E+00  0.00000000000E+00  0.94804755712E+02  0.94804755712E+02  0.00000000000E+00 0.  1.
          2   -1    0    0  502    0  0.00000000000E+00 -0.00000000000E+00 -0.76643303215E+03  0.76643303215E+03  0.00000000000E+00 0. -1.
         25    1    1    2    0    0  0.21295912027E+03  0.39950105719E+02 -0.13887803859E+03  0.28611135499E+03  0.12500000000E+03 0.  0.
         21    1    1    2  502  501 -0.21295912027E+03 -0.39950105719E+02 -0.53275023785E+03  0.57512643287E+03  0.00000000000E+00 0. -1.
<mgrwt>
<rscale>  3 0.53911593E+03</rscale>
<asrwt>0</asrwt>
<pdfrwt beam="1">  1        2 0.11791277E+00 0.53911593E+03</pdfrwt>
<pdfrwt beam="2">  1       -2 0.14585347E-01 0.53911593E+03</pdfrwt>
<totfact> 0.13439322E+03</totfact>
</mgrwt>
</event>
<event>
 4    0  0.1264838E-002  0.5309261E+03  0.7546771E-02  0.1006008E+00
          1   -1    0    0  502    0  0.00000000000E+00  0.00000000000E+00  0.27390990866E+03  0.27390990866E+03  0.00000000000E+00 0.  1.
         -1   -1    0    0    0  501 -0.00000000000E+00 -0.00000000000E+00 -0.25727666190E+03  0.25727666190E+03  0.00000000000E+00 0. -1.
         25    1    1    2    0    0  0.20172119288E+03 -0.23568858363E+02 -0.13835820222E+03  0.27570803917E+03  0.12500000000E+03 0.  0.
         21    1    1    2  502  501 -0.20172119288E+03  0.23568858363E+02  0.15499144898E+03  0.25547853138E+03  0.00000000000E+00 0.  1.
<mgrwt>
<rscale>  3 0.53092609E+03</rscale>
<asrwt>0</asrwt>
<pdfrwt beam="1">  1        1 0.42139986E-01 0.53092609E+03</pdfrwt>
<pdfrwt beam="2">  1       -1 0.39581025E-01 0.53092609E+03</pdfrwt>
<totfact> 0.61853631E+02</totfact>
</mgrwt>
</event>
<event>
 4    0  0.1264838E-002  0.8548557E+03  0.7546771E-02  0.9483843E-01
         -1   -1    0    0    0  501 -0.00000000000E+00  0.00000000000E+00  0.24124077869E+03  0.24124077869E+03  0.00000000000E+00 0.  1.
          1   -1    0    0  502    0  0.00000000000E+00 -0.00000000000E+00 -0.75731220820E+03  0.75731220820E+03  0.00000000000E+00 0. -1.
         25    1    1    2    0    0 -0.31327041832E+03  0.26786352303E+03 -0.18032751624E+03  0.46693921990E+03  0.12500000000E+03 0.  0.
         21    1    1    2  502  501  0.31327041832E+03 -0.26786352303E+03 -0.33574391326E+03  0.53161376699E+03  0.00000000000E+00 0. -1.
<mgrwt>
<rscale>  3 0.85485575E+03</rscale>
<asrwt>0</asrwt>
<pdfrwt beam="1">  1        1 0.11650957E+00 0.85485575E+03</pdfrwt>
<pdfrwt beam="2">  1       -1 0.37113965E-01 0.85485575E+03</pdfrwt>
<totfact> 0.16982345E+02</totfact>
</mgrwt>
</event>
<event>
 4    0  0.1264838E-002  0.4630632E+03  0.7546771E-02  0.1023897E+00
         -1   -1    0    0    0  501 -0.00000000000E+00  0.00000000000E+00  0.59249589949E+02  0.59249589949E+02  0.00000000000E+00 0.  1.
          1   -1    0    0  502    0  0.00000000000E+00 -0.00000000000E+00 -0.90476385701E+03  0.90476385701E+03  0.00000000000E+00 0. -1.
         25    1    1    2    0    0 -0.10549353477E+03  0.17425221229E+03 -0.31257725913E+03  0.39347460184E+03  0.12500000000E+03 0.  0.
         21    1    1    2  502  501  0.10549353477E+03 -0.17425221229E+03 -0.53293700793E+03  0.57053884512E+03  0.00000000000E+00 0. -1.
<mgrwt>
<rscale>  3 0.46306322E+03</rscale>
<asrwt>0</asrwt>
<pdfrwt beam="1">  1        1 0.13919444E+00 0.46306322E+03</pdfrwt>
<pdfrwt beam="2">  1       -1 0.91153217E-02 0.46306322E+03</pdfrwt>
<totfact> 0.13307715E+03</totfact>
</mgrwt>
</event>
<event>
 4    0  0.1264838E-002  0.5235013E+03  0.7546771E-02  0.1007820E+00
         -2   -1    0    0    0  501 -0.00000000000E+00  0.00000000000E+00  0.15150145845E+03  0.15150145845E+03  0.00000000000E+00 0. -1.
          2   -1    0    0  502    0  0.00000000000E+00 -0.00000000000E+00 -0.45222934511E+03  0.45222934511E+03  0.00000000000E+00 0.  1.
         25    1    1    2    0    0  0.20693644091E+03  0.12233920144E+03 -0.22349905107E+03  0.35123552869E+03  0.12500000000E+03 0.  0.
         21    1    1    2  502  501 -0.20693644091E+03 -0.12233920144E+03 -0.77228835600E+02  0.25249527487E+03  0.00000000000E+00 0. -1.
<mgrwt>
<rscale>  3 0.52350131E+03</rscale>
<asrwt>0</asrwt>
<pdfrwt beam="1">  1        2 0.69573745E-01 0.52350131E+03</pdfrwt>
<pdfrwt beam="2">  1       -2 0.23307917E-01 0.52350131E+03</pdfrwt>
<totfact> 0.11262887E+03</totfact>
</mgrwt>
</event>
<event>
 4    0  0.1264838E-002  0.4488764E+03  0.7546771E-02  0.1028058E+00
          3   -1    0    0  502    0  0.00000000000E+00  0.00000000000E+00  0.14655855941E+03  0.14655855941E+03  0.00000000000E+00 0. -1.
         -3   -1    0    0    0  501 -0.00000000000E+00 -0.00000000000E+00 -0.34370220541E+03  0.34370220541E+03  0.00000000000E+00 0.  1.
         25    1    1    2    0    0 -0.20321100768E+03  0.37704777435E+02 -0.11943791828E+03  0.26945645326E+03  0.12500000000E+03 0.  0.
         21    1    1    2  502  501  0.20321100768E+03 -0.37704777435E+02 -0.77705727711E+02  0.22080431155E+03  0.00000000000E+00 0. -1.
<mgrwt>
<rscale>  3 0.44887638E+03</rscale>
<asrwt>0</asrwt>
<pdfrwt beam="1">  1        3 0.22547471E-01 0.44887638E+03</pdfrwt>
<pdfrwt beam="2">  1       -3 0.52877262E-01 0.44887638E+03</pdfrwt>
<totfact> 0.16876391E+02</totfact>
</mgrwt>
</event>
<event>
 4    0  0.1264838E-002  0.5602891E+03  0.7546771E-02  0.9991401E-01
          2   -1    0    0  502    0  0.00000000000E+00  0.00000000000E+00  0.27881143729E+04  0.27881143729E+04  0.00000000000E+00 0. -1.
         -2   -1    0    0    0  501 -0.00000000000E+00 -0.00000000000E+00 -0.28148402941E+02  0.28148402941E+02  0.00000000000E+00 0.  1.
         25    1    1    2    0    0  0.10037271941E+03  0.19881274456E+03  0.21815950134E+04  0.21964933400E+04  0.12500000000E+03 0.  0.
         21    1    1    2  502  501 -0.10037271941E+03 -0.19881274456E+03  0.57837095657E+03  0.61976943584E+03  0.00000000000E+00 0.  1.
<mgrwt>
<rscale>  3 0.56028909E+03</rscale>
<asrwt>0</asrwt>
<pdfrwt beam="1">  1        2 0.42894045E+00 0.56028909E+03</pdfrwt>
<pdfrwt beam="2">  1       -2 0.43305257E-02 0.56028909E+03</pdfrwt>
<totfact> 0.64706474E+02</totfact>
</mgrwt>
</event>
<event>
 4    0  0.1264838E-002  0.5394247E+03  0.7546771E-02  0.1003972E+00
         -2   -1    0    0    0  501 -0.00000000000E+00  0.00000000000E+00  0.41006244201E+02  0.41006244201E+02  0.00000000000E+00 0. -1.
          2   -1    0    0  502    0  0.00000000000E+00 -0.00000000000E+00 -0.17739923628E+04  0.17739923628E+04  0.00000000000E+00 0.  1.
         25    1    1    2    0    0 -0.16419572269E+03  0.13186008746E+03 -0.13982231508E+04  0.14195070614E+04  0.12500000000E+03 0.  0.
         21    1    1    2  502  501  0.16419572269E+03 -0.13186008746E+03 -0.33476296787E+03  0.39549154564E+03  0.00000000000E+00 0. -1.
<mgrwt>
<rscale>  3 0.53942475E+03</rscale>
<asrwt>0</asrwt>
<pdfrwt beam="1">  1        2 0.27292191E+00 0.53942475E+03</pdfrwt>
<pdfrwt beam="2">  1       -2 0.63086528E-02 0.53942475E+03</pdfrwt>
<totfact> 0.13157541E+03</totfact>
</mgrwt>
</event>
<event>
 4    0  0.1264838E-002  0.1243877E+04  0.7546771E-02  0.9075295E-01
          2   -1    0    0  502    0  0.00000000000E+00  0.00000000000E+00  0.17544728394E+04  0.17544728394E+04  0.00000000000E+00 0.  1.
         -2   -1    0    0    0  501 -0.00000000000E+00 -0.00000000000E+00 -0.22046937416E+03  0.22046937416E+03  0.00000000000E+00 0. -1.
         25    1    1    2    0    0 -0.17147943516E+03 -0.40566120113E+03  0.91712506116E+02  0.46690726120E+03  0.12500000000E+03 0.  0.
         21    1    1    2  502  501  0.17147943516E+03  0.40566120113E+03  0.14422909591E+04  0.15080349524E+04  0.00000000000E+00 0.  1.
<mgrwt>
<rscale>  3 0.12438771E+04</rscale>
<asrwt>0</asrwt>
<pdfrwt beam="1">  1        2 0.26991889E+00 0.12438771E+04</pdfrwt>
<pdfrwt beam="2">  1       -2 0.33918366E-01 0.12438771E+04</pdfrwt>
<totfact> 0.73199572E+01</totfact>
</mgrwt>
</event>
<event>
 4    0  0.1264838E-002  0.5315951E+03  0.7546771E-02  0.1005846E+00
          2   -1    0    0  502    0  0.00000000000E+00  0.00000000000E+00  0.37457511576E+03  0.37457511576E+03  0.00000000000E+00 0.  1.
         -2   -1    0    0    0  501 -0.00000000000E+00 -0.00000000000E+00 -0.18860927828E+03  0.18860927828E+03  0.00000000000E+00 0. -1.
         25    1    1    2    0    0  0.14198295604E+03  0.19680111943E+03  0.29777020272E+02  0.27459335635E+03  0.12500000000E+03 0.  0.
         21    1    1    2  502  501 -0.14198295604E+03 -0.19680111943E+03  0.15618881721E+03  0.28859103769E+03  0.00000000000E+00 0.  1.
<mgrwt>
<rscale>  3 0.53159512E+03</rscale>
<asrwt>0</asrwt>
<pdfrwt beam="1">  1        2 0.57626941E-01 0.53159512E+03</pdfrwt>
<pdfrwt beam="2">  1       -2 0.29016812E-01 0.53159512E+03</pdfrwt>
<totfact> 0.93660511E+02</totfact>
</mgrwt>
</event>
<event>
 4    0  0.1264838E-002  0.4954676E+03  0.7546771E-02  0.1014969E+00
         -1   -1    0    0    0  501 -0.00000000000E+00  0.00000000000E+00  0.20192905047E+03  0.20192905047E+03  0.00000000000E+00 0.  1.
          1   -1    0    0  502    0  0.00000000000E+00 -0.00000000000E+00 -0.30392874858E+03  0.30392874858E+03  0.00000000000E+00 0. -1.
         25    1    1    2    0    0 -0.21049321222E+03 -0.94626846437E+02 -0.78114342758E+02  0.27384025088E+03  0.12500000000E+03 0.  0.
         21    1    1    2  502  501  0.21049321222E+03  0.94626846437E+02 -0.23885355349E+02  0.23201754817E+03  0.00000000000E+00 0.  1.
<mgrwt>
<rscale>  3 0.49546763E+03</rscale>
<asrwt>0</asrwt>
<pdfrwt beam="1">  1        1 0.46758269E-01 0.49546763E+03</pdfrwt>
<pdfrwt beam="2">  1       -1 0.31066008E-01 0.49546763E+03</pdfrwt>
<totfact> 0.83112791E+02</totfact>
</mgrwt>
</event>
<event>
 4    0  0.1264838E-002  0.6738319E+03  0.7546771E-02  0.9763060E-01
          1   -1    0    0  502    0  0.00000000000E+00  0.00000000000E+00  0.12503685070E+03  0.12503685070E+03  0.00000000000E+00 0.  1.
         -1   -1    0    0    0  501 -0.00000000000E+00 -0.00000000000E+00 -0.90783115518E+03  0.90783115518E+03  0.00000000000E+00 0. -1.
         25    1    1    2    0    0  0.34816636279E+02 -0.31792186822E+03 -0.49616604977E+03  0.60340058120E+03  0.12500000000E+03 0.  0.
         21    1    1    2  502  501 -0.34816636279E+02  0.31792186822E+03 -0.28662825471E+03  0.42946742467E+03  0.00000000000E+00 0. -1.
<mgrwt>
<rscale>  3 0.67383187E+03</rscale>
<asrwt>0</asrwt>
<pdfrwt beam="1">  1        1 0.19236439E-01 0.67383187E+03</pdfrwt>
<pdfrwt beam="2">  1       -1 0.13966633E+00 0.67383187E+03</pdfrwt>
<totfact> 0.11882253E+02</totfact>
</mgrwt>
</event>
<event>
 4    0  0.1264838E-002  0.5073733E+03  0.7546771E-02  0.1011872E+00
          2   -1    0    0  502    0  0.00000000000E+00  0.00000000000E+00  0.77818325500E+02  0.77818325500E+02  0.00000000000E+00 0. -1.
         -2   -1    0    0    0  501 -0.00000000000E+00 -0.00000000000E+00 -0.82701492834E+03  0.82701492834E+03  0.00000000000E+00 0.  1.
         25    1    1    2    0    0  0.12615855010E+03  0.17376190190E+03 -0.21310079293E+03  0.32733182898E+03  0.12500000000E+03 0.  0.
         21    1    1    2  502  501 -0.12615855010E+03 -0.17376190190E+03 -0.53609580991E+03  0.57750142486E+03  0.00000000000E+00 0.  1.
<mgrwt>
<rscale>  3 0.50737330E+03</rscale>
<asrwt>0</asrwt>
<pdfrwt beam="1">  1        2 0.11972051E-01 0.50737330E+03</pdfrwt>
<pdfrwt beam="2">  1       -2 0.12723306E+00 0.50737330E+03</pdfrwt>
<totfact> 0.24638708E+02</totfact>
</mgrwt>
</event>
<event>
 4    0  0.1264838E-002  0.4945291E+03  0.7546771E-02  0.1015217E+00
          2   -1    0    0  502    0  0.00000000000E+00  0.00000000000E+00  0.82733426594E+03  0.82733426594E+03  0.00000000000E+00 0. -1.
         -2   -1    0    0    0  501 -0.00000000000E+00 -0.00000000000E+00 -0.73899705224E+02  0.73899705224E+02  0.00000000000E+00 0.  1.
         25    1    1    2    0    0 -0.12113247718E+03  0.16331472848E+03  0.60234177345E+03  0.64790847317E+03  0.12500000000E+03 0.  0.
         21    1    1    2  502  501  0.12113247718E+03 -0.16331472848E+03  0.15109278726E+03  0.25332549798E+03  0.00000000000E+00 0.  1.
<mgrwt>
<rscale>  3 0.49452910E+03</rscale>
<asrwt>0</asrwt>
<pdfrwt beam="1">  1        2 0.12728219E+00 0.49452910E+03</pdfrwt>
<pdfrwt beam="2">  1       -2 0.11369186E-01 0.49452910E+03</pdfrwt>
<totfact> 0.18367021E+03</totfact>
</mgrwt>
</event>
<event>
 4    0  0.1264838E-002  0.4407475E+03  0.7546771E-02  0.1030518E+00
          1   -1    0    0  502    0  0.00000000000E+00  0.00000000000E+00  0.36853661328E+03  0.36853661328E+03  0.00000000000E+00 0.  1.
         -1   -1    0    0    0  501 -0.00000000000E+00 -0.00000000000E+00 -0.13177685806E+03  0.13177685806E+03  0.00000000000E+00 0. -1.
         25    1    1    2    0    0 -0.11797896816E+03 -0.16312331022E+03  0.10157109275E+03  0.25781764514E+03  0.12500000000E+03 0.  0.
         21    1    1    2  502  501  0.11797896816E+03  0.16312331022E+03  0.13518866247E+03  0.24249582620E+03  0.00000000000E+00 0. -1.
<mgrwt>
<rscale>  3 0.44074753E+03</rscale>
<asrwt>0</asrwt>
<pdfrwt beam="1">  1        1 0.56697940E-01 0.44074753E+03</pdfrwt>
<pdfrwt beam="2">  1       -1 0.20273363E-01 0.44074753E+03</pdfrwt>
<totfact> 0.13339491E+03</totfact>
</mgrwt>
</event>
<event>
 4    0  0.1264838E-002  0.4985949E+03  0.7546771E-02  0.1014146E+00
         -2   -1    0    0    0  501 -0.00000000000E+00  0.00000000000E+00  0.19264419741E+03  0.19264419741E+03  0.00000000000E+00 0. -1.
          2   -1    0    0  502    0  0.00000000000E+00 -0.00000000000E+00 -0.32261143204E+03  0.32261143204E+03  0.00000000000E+00 0.  1.
         25    1    1    2    0    0  0.19460798472E+03 -0.57949363072E+02  0.50343305724E+02  0.24370031766E+03  0.12500000000E+03 0.  0.
         21    1    1    2  502  501 -0.19460798472E+03  0.57949363072E+02 -0.18031054035E+03  0.27155531178E+03  0.00000000000E+00 0.  1.
<mgrwt>
<rscale>  3 0.49859491E+03</rscale>
<asrwt>0</asrwt>
<pdfrwt beam="1">  1        2 0.49632528E-01 0.49859491E+03</pdfrwt>
<pdfrwt beam="2">  1       -2 0.29637569E-01 0.49859491E+03</pdfrwt>
<totfact> 0.10625541E+03</totfact>
</mgrwt>
</event>
<event>
 4    0  0.1264838E-002  0.5842939E+03  0.7546771E-02  0.9938538E-01
          2   -1    0    0  502    0  0.00000000000E+00  0.00000000000E+00  0.24738746086E+04  0.24738746086E+04  0.00000000000E+00 0.  1.
         -2   -1    0    0    0  501 -0.00000000000E+00 -0.00000000000E+00 -0.34500472776E+02  0.34500472776E+02  0.00000000000E+00 0. -1.
         25    1    1    2    0    0  0.27837868283E+03  0.13582477906E+02  0.13016041277E+04  0.13369657737E+04  0.12500000000E+03 0.  0.
         21    1    1    2  502  501 -0.27837868283E+03 -0.13582477906E+02  0.11377700082E+04  0.11714093077E+04  0.00000000000E+00 0.  1.
<mgrwt>
<rscale>  3 0.58429391E+03</rscale>
<asrwt>0</asrwt>
<pdfrwt beam="1">  1        2 0.38059596E+00 0.58429391E+03</pdfrwt>
<pdfrwt beam="2">  1       -2 0.53077670E-02 0.58429391E+03</pdfrwt>
<totfact> 0.71285882E+02</totfact>
</mgrwt>
</event>
<event>
 4    0  0.1264838E-002  0.5072305E+03  0.7546771E-02  0.1011909E+00
         -2   -1    0    0    0  501 -0.00000000000E+00  0.00000000000E+00  0.12372556513E+03  0.12372556513E+03  0.00000000000E+00 0.  1.
          2   -1    0    0  502    0  0.00000000000E+00 -0.00000000000E+00 -0.51986583753E+03  0.51986583753E+03  0.00000000000E+00 0. -1.
         25    1    1    2    0    0  0.14964216991E+03  0.15115309404E+03 -0.34619828036E+03  0.42510973428E+03  0.12500000000E+03 0.  0.
         21    1    1    2  502  501 -0.14964216991E+03 -0.15115309404E+03 -0.49941992043E+02  0.21848166839E+03  0.00000000000E+00 0.  1.
<mgrwt>
<rscale>  3 0.50723050E+03</rscale>
<asrwt>0</asrwt>
<pdfrwt beam="1">  1        2 0.79979358E-01 0.50723050E+03</pdfrwt>
<pdfrwt beam="2">  1       -2 0.19034703E-01 0.50723050E+03</pdfrwt>
<totfact> 0.13690716E+03</totfact>
</mgrwt>
</event>
<event>
 4    0  0.1264838E-002  0.5205291E+03  0.7546771E-02  0.1008555E+00
         -2   -1    0    0    0  501 -0.00000000000E+00  0.00000000000E+00  0.12073874852E+03  0.12073874852E+03  0.00000000000E+00 0.  1.
          2   -1    0    0  502    0  0.00000000000E+00 -0.00000000000E+00 -0.56102640516E+03  0.56102640516E+03  0.00000000000E+00 0. -1.
         25    1    1    2    0    0  0.13382490710E+03 -0.20355666399E+03 -0.27002230779E+03  0.38455359564E+03  0.12500000000E+03 0.  0.
         21    1    1    2  502  501 -0.13382490710E+03  0.20355666399E+03 -0.17026534885E+03  0.29721155804E+03  0.00000000000E+00 0.  1.
<mgrwt>
<rscale>  3 0.52052906E+03</rscale>
<asrwt>0</asrwt>
<pdfrwt beam="1">  1        2 0.86311753E-01 0.52052906E+03</pdfrwt>
<pdfrwt beam="2">  1       -2 0.18575192E-01 0.52052906E+03</pdfrwt>
<totfact> 0.13067423E+03</totfact>
</mgrwt>
</event>
<event>
 4    0  0.1264838E-002  0.5055813E+03  0.7546771E-02  0.1012332E+00
         -3   -1    0    0    0  501 -0.00000000000E+00  0.00000000000E+00  0.33535540474E+02  0.33535540474E+02  0.00000000000E+00 0.  1.
          3   -1    0    0  502    0  0.00000000000E+00 -0.00000000000E+00 -0.19055341825E+04  0.19055341825E+04  0.00000000000E+00 0. -1.
         25    1    1    2    0    0  0.23388436172E+03 -0.52132212761E+01 -0.83978606753E+03  0.88067855177E+03  0.12500000000E+03 0.  0.
         21    1    1    2  502  501 -0.23388436172E+03  0.52132212761E+01 -0.10322125745E+04  0.10583911712E+04  0.00000000000E+00 0. -1.
<mgrwt>
<rscale>  3 0.50558132E+03</rscale>
<asrwt>0</asrwt>
<pdfrwt beam="1">  1        3 0.29315914E+00 0.50558132E+03</pdfrwt>
<pdfrwt beam="2">  1       -3 0.51593133E-02 0.50558132E+03</pdfrwt>
<totfact> 0.26516323E+01</totfact>
</mgrwt>
</event>
<event>
 4    0  0.1264838E-002  0.4543853E+03  0.7546771E-02  0.1026422E+00
          3   -1    0    0  502    0  0.00000000000E+00  0.00000000000E+00  0.12684985490E+03  0.12684985490E+03  0.00000000000E+00 0.  1.
         -3   -1    0    0    0  501 -0.00000000000E+00 -0.00000000000E+00 -0.40691011765E+03  0.40691011765E+03  0.00000000000E+00 0. -1.
         25    1    1    2    0    0  0.67252231211E+02  0.19733919133E+03 -0.12104980248E+03  0.27155786440E+03  0.12500000000E+03 0.  0.
         21    1    1    2  502  501 -0.67252231211E+02 -0.19733919133E+03 -0.15901046028E+03  0.26220210815E+03  0.00000000000E+00 0. -1.
<mgrwt>
<rscale>  3 0.45438525E+03</rscale>
<asrwt>0</asrwt>
<pdfrwt beam="1">  1        3 0.19515362E-01 0.45438525E+03</pdfrwt>
<pdfrwt beam="2">  1       -3 0.62601557E-01 0.45438525E+03</pdfrwt>
<totfact> 0.15414283E+02</totfact>
</mgrwt>
</event>
<event>
 4    0  0.1264838E-002  0.5558047E+03  0.7546771E-02  0.1000159E+00
          2   -1    0    0  502    0  0.00000000000E+00  0.00000000000E+00  0.85326891835E+03  0.85326891835E+03  0.00000000000E+00 0. -1.
         -2   -1    0    0    0  501 -0.00000000000E+00 -0.00000000000E+00 -0.90510396209E+02  0.90510396209E+02  0.00000000000E+00 0.  1.
         25    1    1    2    0    0  0.18894887469E+03 -0.11759840066E+03  0.64131070135E+03  0.69024305628E+03  0.12500000000E+03 0.  0.
         21    1    1    2  502  501 -0.18894887469E+03  0.11759840066E+03  0.12144782079E+03  0.25353625827E+03  0.00000000000E+00 0.  1.
<mgrwt>
<rscale>  3 0.55580467E+03</rscale>
<asrwt>0</asrwt>
<pdfrwt beam="1">  1        2 0.13127214E+00 0.55580467E+03</pdfrwt>
<pdfrwt beam="2">  1       -2 0.13924677E-01 0.55580467E+03</pdfrwt>
<totfact> 0.12605704E+03</totfact>
</mgrwt>
</event>
<event>
 4    0  0.1264838E-002  0.4596115E+03  0.7546771E-02  0.1024894E+00
         -1   -1    0    0    0  501 -0.00000000000E+00  0.00000000000E+00  0.52807000811E+03  0.52807000811E+03  0.00000000000E+00 0.  1.
          1   -1    0    0  502    0  0.00000000000E+00 -0.00000000000E+00 -0.10000697207E+03  0.10000697207E+03  0.00000000000E+00 0. -1.
         25    1    1    2    0    0  0.11293062787E+03  0.17892617187E+03  0.19872445712E+03  0.31604479358E+03  0.12500000000E+03 0.  0.
         21    1    1    2  502  501 -0.11293062787E+03 -0.17892617187E+03  0.22933857892E+03  0.31203218660E+03  0.00000000000E+00 0. -1.
<mgrwt>
<rscale>  3 0.45961150E+03</rscale>
<asrwt>0</asrwt>
<pdfrwt beam="1">  1        1 0.15385688E-01 0.45961150E+03</pdfrwt>
<pdfrwt beam="2">  1       -1 0.81241538E-01 0.45961150E+03</pdfrwt>
<totfact> 0.56932372E+02</totfact>
</mgrwt>
</event>
<event>
 4    0  0.1264838E-002  0.5569720E+03  0.7546771E-02  0.9998929E-01
          1   -1    0    0  502    0  0.00000000000E+00  0.00000000000E+00  0.33600876343E+03  0.33600876343E+03  0.00000000000E+00 0. -1.
         -1   -1    0    0    0  501 -0.00000000000E+00 -0.00000000000E+00 -0.23081084166E+03  0.23081084166E+03  0.00000000000E+00 0.  1.
         25    1    1    2    0    0  0.77469735143E+02  0.24380867520E+03 -0.12977981478E+02  0.28502220610E+03  0.12500000000E+03 0.  0.
         21    1    1    2  502  501 -0.77469735143E+02 -0.24380867520E+03  0.11817590325E+03  0.28179739899E+03  0.00000000000E+00 0.  1.
<mgrwt>
<rscale>  3 0.55697205E+03</rscale>
<asrwt>0</asrwt>
<pdfrwt beam="1">  1        1 0.51693656E-01 0.55697205E+03</pdfrwt>
<pdfrwt beam="2">  1       -1 0.35509360E-01 0.55697205E+03</pdfrwt>
<totfact> 0.57692031E+02</totfact>
</mgrwt>
</event>
<event>
 4    0  0.1264838E-002  0.7324087E+03  0.7546771E-02  0.9663360E-01
          2   -1    0    0  502    0  0.00000000000E+00  0.00000000000E+00  0.82468065761E+03  0.82468065761E+03  0.00000000000E+00 0. -1.
         -2   -1    0    0    0  501 -0.00000000000E+00 -0.00000000000E+00 -0.16261521650E+03  0.16261521650E+03  0.00000000000E+00 0.  1.
         25    1    1    2    0    0 -0.13915276124E+03  0.31260572411E+03  0.21053028485E+03  0.42075388358E+03  0.12500000000E+03 0.  0.
         21    1    1    2  502  501  0.13915276124E+03 -0.31260572411E+03  0.45153515626E+03  0.56654199054E+03  0.00000000000E+00 0.  1.
<mgrwt>
<rscale>  3 0.73240869E+03</rscale>
<asrwt>0</asrwt>
<pdfrwt beam="1">  1        2 0.12687394E+00 0.73240869E+03</pdfrwt>
<pdfrwt beam="2">  1       -2 0.25017726E-01 0.73240869E+03</pdfrwt>
<totfact> 0.47609384E+02</totfact>
</mgrwt>
</event>
<event>
 4    0  0.1264838E-002  0.4713814E+03  0.7546771E-02  0.1021531E+00
          2   -1    0    0  502    0  0.00000000000E+00  0.00000000000E+00  0.10757099240E+04  0.10757099240E+04  0.00000000000E+00 0. -1.
         -2   -1    0    0    0  501 -0.00000000000E+00 -0.00000000000E+00 -0.51640415904E+02  0.51640415904E+02  0.00000000000E+00 0.  1.
         25    1    1    2    0    0 -0.14340637357E+03  0.14649354176E+03  0.36299687725E+03  0.43522118359E+03  0.12500000000E+03 0.  0.
         21    1    1    2  502  501  0.14340637357E+03 -0.14649354176E+03  0.66107263087E+03  0.69212915633E+03  0.00000000000E+00 0. -1.
<mgrwt>
<rscale>  3 0.47138141E+03</rscale>
<asrwt>0</asrwt>
<pdfrwt beam="1">  1        2 0.16549382E+00 0.47138141E+03</pdfrwt>
<pdfrwt beam="2">  1       -2 0.79446802E-02 0.47138141E+03</pdfrwt>
<totfact> 0.22590707E+03</totfact>
</mgrwt>
</event>
<event>
 4    0  0.1264838E-002  0.5427475E+03  0.7546771E-02  0.1003187E+00
          2   -1    0    0  502    0  0.00000000000E+00  0.00000000000E+00  0.27195357248E+04  0.27195357248E+04  0.00000000000E+00 0. -1.
         -2   -1    0    0    0  501 -0.00000000000E+00 -0.00000000000E+00 -0.27079516532E+02  0.27079516532E+02  0.00000000000E+00 0.  1.
         25    1    1    2    0    0  0.15884281943E+03  0.19035324168E+03  0.17598521477E+04  0.17816200436E+04  0.12500000000E+03 0.  0.
         21    1    1    2  502  501 -0.15884281943E+03 -0.19035324168E+03  0.93260406055E+03  0.96499519774E+03  0.00000000000E+00 0.  1.
<mgrwt>
<rscale>  3 0.54274750E+03</rscale>
<asrwt>0</asrwt>
<pdfrwt beam="1">  1        2 0.41838990E+00 0.54274750E+03</pdfrwt>
<pdfrwt beam="2">  1       -2 0.41660816E-02 0.54274750E+03</pdfrwt>
<totfact> 0.75412584E+02</totfact>
</mgrwt>
</event>
<event>
 4    0  0.1264838E-002  0.4962175E+03  0.7546771E-02  0.1014771E+00
         -1   -1    0    0    0  501 -0.00000000000E+00  0.00000000000E+00  0.52596164812E+03  0.52596164812E+03  0.00000000000E+00 0.  1.
          1   -1    0    0  502    0  0.00000000000E+00 -0.00000000000E+00 -0.11703888245E+03  0.11703888245E+03  0.00000000000E+00 0. -1.
         25    1    1    2    0    0 -0.37321270206E+02 -0.22695695510E+03  0.26023661820E+03  0.36912116457E+03  0.12500000000E+03 0.  0.
         21    1    1    2  502  501  0.37321270206E+02  0.22695695510E+03  0.14868614747E+03  0.27387936601E+03  0.00000000000E+00 0.  1.
<mgrwt>
<rscale>  3 0.49621755E+03</rscale>
<asrwt>0</asrwt>
<pdfrwt beam="1">  1        1 0.18005982E-01 0.49621755E+03</pdfrwt>
<pdfrwt beam="2">  1       -1 0.80917175E-01 0.49621755E+03</pdfrwt>
<totfact> 0.46566873E+02</totfact>
</mgrwt>
</event>
<event>
 4    0  0.1264838E-002  0.6450803E+03  0.7546771E-02  0.9816055E-01
         -2   -1    0    0    0  501 -0.00000000000E+00  0.00000000000E+00  0.11540123013E+03  0.11540123013E+03  0.00000000000E+00 0. -1.
          2   -1    0    0  502    0  0.00000000000E+00 -0.00000000000E+00 -0.90148209829E+03  0.90148209829E+03  0.00000000000E+00 0.  1.
         25    1    1    2    0    0 -0.12689387437E+03 -0.27875214997E+03 -0.48758044599E+03  0.58920667662E+03  0.12500000000E+03 0.  0.
         21    1    1    2  502  501  0.12689387437E+03  0.27875214997E+03 -0.29850042217E+03  0.42767665180E+03  0.00000000000E+00 0. -1.
<mgrwt>
<rscale>  3 0.64508028E+03</rscale>
<asrwt>0</asrwt>
<pdfrwt beam="1">  1        2 0.13868955E+00 0.64508028E+03</pdfrwt>
<pdfrwt beam="2">  1       -2 0.17754035E-01 0.64508028E+03</pdfrwt>
<totfact> 0.77330643E+02</totfact>
</mgrwt>
</event>
<event>
 4    0  0.1264838E-002  0.5467331E+03  0.7546771E-02  0.1002253E+00
          2   -1    0    0  502    0  0.00000000000E+00  0.00000000000E+00  0.15171839504E+04  0.15171839504E+04  0.00000000000E+00 0.  1.
         -2   -1    0    0    0  501 -0.00000000000E+00 -0.00000000000E+00 -0.49255245986E+02  0.49255245986E+02  0.00000000000E+00 0. -1.
         25    1    1    2    0    0 -0.23502870434E+03  0.99575396395E+02  0.89940598832E+03  0.94324433910E+03  0.12500000000E+03 0.  0.
         21    1    1    2  502  501  0.23502870434E+03 -0.99575396395E+02  0.56852271614E+03  0.62319485733E+03  0.00000000000E+00 0. -1.
<mgrwt>
<rscale>  3 0.54673309E+03</rscale>
<asrwt>0</asrwt>
<pdfrwt beam="1">  1        2 0.23341288E+00 0.54673309E+03</pdfrwt>
<pdfrwt beam="2">  1       -2 0.75777313E-02 0.54673309E+03</pdfrwt>
<totfact> 0.13586812E+03</totfact>
</mgrwt>
</event>
<event>
 4    0  0.1264838E-002  0.6045257E+03  0.7546771E-02  0.9896061E-01
         -1   -1    0    0    0  501 -0.00000000000E+00  0.00000000000E+00  0.14459789840E+03  0.14459789840E+03  0.00000000000E+00 0.  1.
          1   -1    0    0  502    0  0.00000000000E+00 -0.00000000000E+00 -0.63184065240E+03  0.63184065240E+03  0.00000000000E+00 0. -1.
         25    1    1    2    0    0  0.26779341891E+03  0.10894342793E+03 -0.23909462356E+03  0.39544054510E+03  0.12500000000E+03 0.  0.
         21    1    1    2  502  501 -0.26779341891E+03 -0.10894342793E+03 -0.24814813045E+03  0.38099800570E+03  0.00000000000E+00 0. -1.
<mgrwt>
<rscale>  3 0.60452570E+03</rscale>
<asrwt>0</asrwt>
<pdfrwt beam="1">  1        1 0.97206252E-01 0.60452570E+03</pdfrwt>
<pdfrwt beam="2">  1       -1 0.22245831E-01 0.60452570E+03</pdfrwt>
<totfact> 0.54824906E+02</totfact>
</mgrwt>
</event>
<event>
 4    0  0.1264838E-002  0.9244690E+03  0.7546771E-02  0.9395500E-01
         -2   -1    0    0    0  501 -0.00000000000E+00  0.00000000000E+00  0.80886007350E+02  0.80886007350E+02  0.00000000000E+00 0.  1.
          2   -1    0    0  502    0  0.00000000000E+00 -0.00000000000E+00 -0.26415044469E+04  0.26415044469E+04  0.00000000000E+00 0. -1.
         25    1    1    2    0    0 -0.28409804786E+03 -0.29194632276E+03 -0.18924976840E+04  0.19398754703E+04  0.12500000000E+03 0.  0.
         21    1    1    2  502  501  0.28409804786E+03  0.29194632276E+03 -0.66812075554E+03  0.78251498398E+03  0.00000000000E+00 0.  1.
<mgrwt>
<rscale>  3 0.92446903E+03</rscale>
<asrwt>0</asrwt>
<pdfrwt beam="1">  1        2 0.40638521E+00 0.92446903E+03</pdfrwt>
<pdfrwt beam="2">  1       -2 0.12444004E-01 0.92446903E+03</pdfrwt>
<totfact> 0.14118100E+02</totfact>
</mgrwt>
</event>
<event>
 4    0  0.1264838E-002  0.9008166E+03  0.7546771E-02  0.9424561E-01
          2   -1    0    0  502    0  0.00000000000E+00  0.00000000000E+00  0.38290986694E+03  0.38290986694E+03  0.00000000000E+00 0.  1.
         -2   -1    0    0    0  501 -0.00000000000E+00 -0.00000000000E+00 -0.52980523009E+03  0.52980523009E+03  0.00000000000E+00 0. -1.
         25    1    1    2    0    0  0.11424926948E+03 -0.41633180200E+03 -0.16961345471E+03  0.48039440978E+03  0.12500000000E+03 0.  0.
         21    1    1    2  502  501 -0.11424926948E+03  0.41633180200E+03  0.22718091556E+02  0.43232068724E+03  0.00000000000E+00 0.  1.
<mgrwt>
<rscale>  3 0.90081663E+03</rscale>
<asrwt>0</asrwt>
<pdfrwt beam="1">  1        2 0.58909210E-01 0.90081663E+03</pdfrwt>
<pdfrwt beam="2">  1       -2 0.81508497E-01 0.90081663E+03</pdfrwt>
<totfact> 0.11113291E+02</totfact>
</mgrwt>
</event>
<event>
 4    0  0.1264838E-002  0.7240664E+03  0.7546771E-02  0.9676938E-01
          2   -1    0    0  502    0  0.00000000000E+00  0.00000000000E+00  0.33256272664E+04  0.33256272664E+04  0.00000000000E+00 0.  1.
         -2   -1    0    0    0  501 -0.00000000000E+00 -0.00000000000E+00 -0.39411520400E+02  0.39411520400E+02  0.00000000000E+00 0. -1.
         25    1    1    2    0    0 -0.31920944870E+03 -0.13621505114E+03  0.14408276552E+04  0.14872990770E+04  0.12500000000E+03 0.  0.
         21    1    1    2  502  501  0.31920944870E+03  0.13621505114E+03  0.18453880908E+04  0.18777397098E+04  0.00000000000E+00 0.  1.
<mgrwt>
<rscale>  3 0.72406637E+03</rscale>
<asrwt>0</asrwt>
<pdfrwt beam="1">  1        2 0.51163474E+00 0.72406637E+03</pdfrwt>
<pdfrwt beam="2">  1       -2 0.60633134E-02 0.72406637E+03</pdfrwt>
<totfact> 0.17528880E+02</totfact>
</mgrwt>
</event>
<event>
 4    0  0.1264838E-002  0.7561510E+03  0.7546771E-02  0.9625749E-01
          2   -1    0    0  502    0  0.00000000000E+00  0.00000000000E+00  0.17079217167E+04  0.17079217167E+04  0.00000000000E+00 0.  1.
         -2   -1    0    0    0  501 -0.00000000000E+00 -0.00000000000E+00 -0.83693002896E+02  0.83693002896E+02  0.00000000000E+00 0. -1.
         25    1    1    2    0    0  0.98035833174E+02  0.30886491772E+03  0.12462457424E+04  0.12937395459E+04  0.12500000000E+03 0.  0.
         21    1    1    2  502  501 -0.98035833174E+02 -0.30886491772E+03  0.37798297139E+03  0.49787517375E+03  0.00000000000E+00 0. -1.
<mgrwt>
<rscale>  3 0.75615104E+03</rscale>
<asrwt>0</asrwt>
<pdfrwt beam="1">  1        2 0.26275716E+00 0.75615104E+03</pdfrwt>
<pdfrwt beam="2">  1       -2 0.12875848E-01 0.75615104E+03</pdfrwt>
<totfact> 0.44668770E+02</totfact>
</mgrwt>
</event>
<event>
 4    0  0.1264838E-002  0.4619919E+03  0.7546771E-02  0.1024205E+00
          2   -1    0    0  502    0  0.00000000000E+00  0.00000000000E+00  0.16163153791E+04  0.16163153791E+04  0.00000000000E+00 0. -1.
         -2   -1    0    0    0  501 -0.00000000000E+00 -0.00000000000E+00 -0.33012816316E+02  0.33012816316E+02  0.00000000000E+00 0.  1.
         25    1    1    2    0    0 -0.17453238277E+03 -0.10466003288E+03  0.10868804112E+04  0.11128114411E+04  0.12500000000E+03 0.  0.
         21    1    1    2  502  501  0.17453238277E+03  0.10466003288E+03  0.49642215164E+03  0.53651675440E+03  0.00000000000E+00 0.  1.
<mgrwt>
<rscale>  3 0.46199187E+03</rscale>
<asrwt>0</asrwt>
<pdfrwt beam="1">  1        2 0.24866384E+00 0.46199187E+03</pdfrwt>
<pdfrwt beam="2">  1       -2 0.50788961E-02 0.46199187E+03</pdfrwt>
<totfact> 0.22497502E+03</totfact>
</mgrwt>
</event>
<event>
 4    0  0.1264838E-002  0.8850486E+03  0.7546771E-02  0.9444467E-01
          1   -1    0    0  502    0  0.00000000000E+00  0.00000000000E+00  0.15064270014E+03  0.15064270014E+03  0.00000000000E+00 0. -1.
         -1   -1    0    0    0  501 -0.00000000000E+00 -0.00000000000E+00 -0.12999484732E+04  0.12999484732E+04  0.00000000000E+00 0.  1.
         25    1    1    2    0    0  0.39393556334E+03 -0.14153428516E+03 -0.77209652533E+03  0.88711624175E+03  0.12500000000E+03 0.  0.
         21    1    1    2  502  501 -0.39393556334E+03  0.14153428516E+03 -0.37720924768E+03  0.56347493154E+03  0.00000000000E+00 0. -1.
<mgrwt>
<rscale>  3 0.88504858E+03</rscale>
<asrwt>0</asrwt>
<pdfrwt beam="1">  1        1 0.23175801E-01 0.88504858E+03</pdfrwt>
<pdfrwt beam="2">  1       -1 0.19999207E+00 0.88504858E+03</pdfrwt>
<totfact> 0.32905911E+01</totfact>
</mgrwt>
</event>
<event>
 4    0  0.1264838E-002  0.5781130E+03  0.7546771E-02  0.9951885E-01
         -2   -1    0    0    0  501 -0.00000000000E+00  0.00000000000E+00  0.12775715982E+03  0.12775715982E+03  0.00000000000E+00 0. -1.
          2   -1    0    0  502    0  0.00000000000E+00 -0.00000000000E+00 -0.65400368968E+03  0.65400368968E+03  0.00000000000E+00 0.  1.
         25    1    1    2    0    0 -0.22330097419E+03  0.13229852478E+03 -0.15033079275E+03  0.32494702950E+03  0.12500000000E+03 0.  0.
         21    1    1    2  502  501  0.22330097419E+03 -0.13229852478E+03 -0.37591573711E+03  0.45681381999E+03  0.00000000000E+00 0. -1.
<mgrwt>
<rscale>  3 0.57811298E+03</rscale>
<asrwt>0</asrwt>
<pdfrwt beam="1">  1        2 0.10061595E+00 0.57811298E+03</pdfrwt>
<pdfrwt beam="2">  1       -2 0.19654948E-01 0.57811298E+03</pdfrwt>
<totfact> 0.98563900E+02</totfact>
</mgrwt>
</event>
<event>
 4    0  0.1264838E-002  0.6020148E+03  0.7546771E-02  0.9901235E-01
          1   -1    0    0  502    0  0.00000000000E+00  0.00000000000E+00  0.11987248953E+04  0.11987248953E+04  0.00000000000E+00 0.  1.
         -1   -1    0    0    0  501 -0.00000000000E+00 -0.00000000000E+00 -0.75584859527E+02  0.75584859527E+02  0.00000000000E+00 0. -1.
         25    1    1    2    0    0  0.10008306613E+03  0.25169829242E+03  0.37846211644E+03  0.48189959962E+03  0.12500000000E+03 0.  0.
         21    1    1    2  502  501 -0.10008306613E+03 -0.25169829242E+03  0.74467791937E+03  0.79241015524E+03  0.00000000000E+00 0.  1.
<mgrwt>
<rscale>  3 0.60201479E+03</rscale>
<asrwt>0</asrwt>
<pdfrwt beam="1">  1        1 0.18441920E+00 0.60201479E+03</pdfrwt>
<pdfrwt beam="2">  1       -1 0.11628441E-01 0.60201479E+03</pdfrwt>
<totfact> 0.54140480E+02</totfact>
</mgrwt>
</event>
<event>
 4    0  0.1264838E-002  0.4479140E+03  0.7546771E-02  0.1028346E+00
         -2   -1    0    0    0  501 -0.00000000000E+00  0.00000000000E+00  0.27572649991E+03  0.27572649991E+03  0.00000000000E+00 0. -1.
          2   -1    0    0  502    0  0.00000000000E+00 -0.00000000000E+00 -0.18190753865E+03  0.18190753865E+03  0.00000000000E+00 0.  1.
         25    1    1    2    0    0 -0.25072179267E+02  0.20359154961E+03  0.74962404160E+02  0.25163961390E+03  0.12500000000E+03 0.  0.
         21    1    1    2  502  501  0.25072179267E+02 -0.20359154961E+03  0.18856557101E+02  0.20599442467E+03  0.00000000000E+00 0.  1.
<mgrwt>
<rscale>  3 0.44791396E+03</rscale>
<asrwt>0</asrwt>
<pdfrwt beam="1">  1        2 0.27985775E-01 0.44791396E+03</pdfrwt>
<pdfrwt beam="2">  1       -2 0.42419462E-01 0.44791396E+03</pdfrwt>
<totfact> 0.10149541E+03</totfact>
</mgrwt>
</event>
<event>
 4    0  0.1604588E-002  0.7855808E+03  0.7546771E-02  0.9581126E-01
          4   -1    0    0  502    0  0.00000000000E+00  0.00000000000E+00  0.42837476504E+03  0.42837476504E+03  0.00000000000E+00 0.  1.
         -4   -1    0    0    0  501 -0.00000000000E+00 -0.00000000000E+00 -0.36016192543E+03  0.36016192543E+03  0.00000000000E+00 0. -1.
         25    1    1    2    0    0  0.19172744738E+03 -0.11885232692E+03 -0.27552453962E+03  0.37739112553E+03  0.12500000000E+03 0.  0.
         21    1    1    2  502  501 -0.19172744738E+03  0.11885232692E+03  0.34373737923E+03  0.41114556494E+03  0.00000000000E+00 0.  1.
<mgrwt>
<rscale>  3 0.78558075E+03</rscale>
<asrwt>0</asrwt>
<pdfrwt beam="1">  1        4 0.65903810E-01 0.78558075E+03</pdfrwt>
<pdfrwt beam="2">  1       -4 0.55409527E-01 0.78558075E+03</pdfrwt>
<totfact> 0.13213725E+01</totfact>
</mgrwt>
</event>
<event>
 4    0  0.1264838E-002  0.5128909E+03  0.7546771E-02  0.1010468E+00
          2   -1    0    0  502    0  0.00000000000E+00  0.00000000000E+00  0.85933545880E+03  0.85933545880E+03  0.00000000000E+00 0. -1.
         -2   -1    0    0    0  501 -0.00000000000E+00 -0.00000000000E+00 -0.76529201766E+02  0.76529201766E+02  0.00000000000E+00 0.  1.
         25    1    1    2    0    0  0.21905690567E+03  0.93090489849E+02  0.48607149095E+03  0.55546580591E+03  0.12500000000E+03 0.  0.
         21    1    1    2  502  501 -0.21905690567E+03 -0.93090489849E+02  0.29673476608E+03  0.38039885466E+03  0.00000000000E+00 0.  1.
<mgrwt>
<rscale>  3 0.51289085E+03</rscale>
<asrwt>0</asrwt>
<pdfrwt beam="1">  1        2 0.13220545E+00 0.51289085E+03</pdfrwt>
<pdfrwt beam="2">  1       -2 0.11773724E-01 0.51289085E+03</pdfrwt>
<totfact> 0.16487204E+03</totfact>
</mgrwt>
</event>
<event>
 4    0  0.1264838E-002  0.6764204E+03  0.7546771E-02  0.9758428E-01
          2   -1    0    0  502    0  0.00000000000E+00  0.00000000000E+00  0.12333619423E+04  0.12333619423E+04  0.00000000000E+00 0.  1.
         -2   -1    0    0    0  501 -0.00000000000E+00 -0.00000000000E+00 -0.92743375907E+02  0.92743375907E+02  0.00000000000E+00 0. -1.
         25    1    1    2    0    0 -0.27587291604E+03  0.11609645161E+03  0.84632134710E+03  0.90634931149E+03  0.12500000000E+03 0.  0.
         21    1    1    2  502  501  0.27587291604E+03 -0.11609645161E+03  0.29429721926E+03  0.41975600668E+03  0.00000000000E+00 0. -1.
<mgrwt>
<rscale>  3 0.67642043E+03</rscale>
<asrwt>0</asrwt>
<pdfrwt beam="1">  1        2 0.18974798E+00 0.67642043E+03</pdfrwt>
<pdfrwt beam="2">  1       -2 0.14268213E-01 0.67642043E+03</pdfrwt>
<totfact> 0.69716656E+02</totfact>
</mgrwt>
</event>
<event>
 4    0  0.1264838E-002  0.6869870E+03  0.7546771E-02  0.9739749E-01
          2   -1    0    0  502    0  0.00000000000E+00  0.00000000000E+00  0.25974044713E+04  0.25974044713E+04  0.00000000000E+00 0.  1.
         -2   -1    0    0    0  501 -0.00000000000E+00 -0.00000000000E+00 -0.45425261306E+02  0.45425261306E+02  0.00000000000E+00 0. -1.
         25    1    1    2    0    0  0.29459387609E+02  0.27765186886E+03  0.20101164029E+04  0.20332612644E+04  0.12500000000E+03 0.  0.
         21    1    1    2  502  501 -0.29459387609E+02 -0.27765186886E+03  0.54186280701E+03  0.60956846820E+03  0.00000000000E+00 0. -1.
<mgrwt>
<rscale>  3 0.68698698E+03</rscale>
<asrwt>0</asrwt>
<pdfrwt beam="1">  1        2 0.39960057E+00 0.68698698E+03</pdfrwt>
<pdfrwt beam="2">  1       -2 0.69885038E-02 0.68698698E+03</pdfrwt>
<totfact> 0.39030979E+02</totfact>
</mgrwt>
</event>
<event>
 4    0  0.1264838E-002  0.5355018E+03  0.7546771E-02  0.1004907E+00
          2   -1    0    0  502    0  0.00000000000E+00  0.00000000000E+00  0.14486708015E+04  0.14486708015E+04  0.00000000000E+00 0. -1.
         -2   -1    0    0    0  501 -0.00000000000E+00 -0.00000000000E+00 -0.49487113762E+02  0.49487113762E+02  0.00000000000E+00 0.  1.
         25    1    1    2    0    0 -0.38377207600E+02 -0.22036561648E+03  0.40601209746E+03  0.48010898583E+03  0.12500000000E+03 0.  0.
         21    1    1    2  502  501  0.38377207600E+02  0.22036561648E+03  0.99317159024E+03  0.10180489294E+04  0.00000000000E+00 0. -1.
<mgrwt>
<rscale>  3 0.53550177E+03</rscale>
<asrwt>0</asrwt>
<pdfrwt beam="1">  1        2 0.22287240E+00 0.53550177E+03</pdfrwt>
<pdfrwt beam="2">  1       -2 0.76134032E-02 0.53550177E+03</pdfrwt>
<totfact> 0.14718784E+03</totfact>
</mgrwt>
</event>
<event>
 4    0  0.1264838E-002  0.4891865E+03  0.7546771E-02  0.1016641E+00
          2   -1    0    0  502    0  0.00000000000E+00  0.00000000000E+00  0.22269076131E+04  0.22269076131E+04  0.00000000000E+00 0.  1.
         -2   -1    0    0    0  501 -0.00000000000E+00 -0.00000000000E+00 -0.26864992459E+02  0.26864992459E+02  0.00000000000E+00 0. -1.
         25    1    1    2    0    0 -0.19206509218E+03  0.57392053254E+02  0.16783336368E+04  0.16948780616E+04  0.12500000000E+03 0.  0.
         21    1    1    2  502  501  0.19206509218E+03 -0.57392053254E+02  0.52170898393E+03  0.55889454401E+03  0.00000000000E+00 0. -1.
<mgrwt>
<rscale>  3 0.48918649E+03</rscale>
<asrwt>0</asrwt>
<pdfrwt beam="1">  1        2 0.34260103E+00 0.48918649E+03</pdfrwt>
<pdfrwt beam="2">  1       -2 0.41330775E-02 0.48918649E+03</pdfrwt>
<totfact> 0.14464573E+03</totfact>
</mgrwt>
</event>
<event>
 4    0  0.1264838E-002  0.5301957E+03  0.7546771E-02  0.1006185E+00
         -2   -1    0    0    0  501 -0.00000000000E+00  0.00000000000E+00  0.62588879832E+02  0.62588879832E+02  0.00000000000E+00 0.  1.
          2   -1    0    0  502    0  0.00000000000E+00 -0.00000000000E+00 -0.11228329769E+04  0.11228329769E+04  0.00000000000E+00 0. -1.
         25    1    1    2    0    0  0.81551263901E+02 -0.23135066110E+03 -0.44762419399E+03  0.52551513402E+03  0.12500000000E+03 0.  0.
         21    1    1    2  502  501 -0.81551263901E+02  0.23135066110E+03 -0.61261990305E+03  0.65990672269E+03  0.00000000000E+00 0. -1.
<mgrwt>
<rscale>  3 0.53019566E+03</rscale>
<asrwt>0</asrwt>
<pdfrwt beam="1">  1        2 0.17274352E+00 0.53019566E+03</pdfrwt>
<pdfrwt beam="2">  1       -2 0.96290592E-02 0.53019566E+03</pdfrwt>
<totfact> 0.15547479E+03</totfact>
</mgrwt>
</event>
<event>
 4    0  0.1264838E-002  0.5938901E+03  0.7546771E-02  0.9918164E-01
          2   -1    0    0  502    0  0.00000000000E+00  0.00000000000E+00  0.40481085350E+03  0.40481085350E+03  0.00000000000E+00 0.  1.
         -2   -1    0    0    0  501 -0.00000000000E+00 -0.00000000000E+00 -0.21782117937E+03  0.21782117937E+03  0.00000000000E+00 0. -1.
         25    1    1    2    0    0 -0.12742064188E+03 -0.25341164398E+03  0.88059799921E+02  0.32223129836E+03  0.12500000000E+03 0.  0.
         21    1    1    2  502  501  0.12742064188E+03  0.25341164398E+03  0.98929874211E+02  0.30040073451E+03  0.00000000000E+00 0. -1.
<mgrwt>
<rscale>  3 0.59389015E+03</rscale>
<asrwt>0</asrwt>
<pdfrwt beam="1">  1        2 0.62278593E-01 0.59389015E+03</pdfrwt>
<pdfrwt beam="2">  1       -2 0.33510951E-01 0.59389015E+03</pdfrwt>
<totfact> 0.65696674E+02</totfact>
</mgrwt>
</event>
<event>
 4    0  0.1264838E-002  0.4603080E+03  0.7546771E-02  0.1024692E+00
          4   -1    0    0  502    0  0.00000000000E+00  0.00000000000E+00  0.13358866794E+04  0.13358866794E+04  0.00000000000E+00 0. -1.
         -4   -1    0    0    0  501 -0.00000000000E+00 -0.00000000000E+00 -0.39652211351E+02  0.39652211351E+02  0.00000000000E+00 0.  1.
         25    1    1    2    0    0 -0.21036491011E+03  0.33162130102E+02  0.66704720631E+03  0.71128763361E+03  0.12500000000E+03 0.  0.
         21    1    1    2  502  501  0.21036491011E+03 -0.33162130102E+02  0.62918726178E+03  0.66425125718E+03  0.00000000000E+00 0.  1.
<mgrwt>
<rscale>  3 0.46030799E+03</rscale>
<asrwt>0</asrwt>
<pdfrwt beam="1">  1        4 0.20552099E+00 0.46030799E+03</pdfrwt>
<pdfrwt beam="2">  1       -4 0.61003413E-02 0.46030799E+03</pdfrwt>
<totfact> 0.43971713E+01</totfact>
</mgrwt>
</event>
<event>
 4    0  0.1264838E-002  0.4805553E+03  0.7546771E-02  0.1018983E+00
          1   -1    0    0  502    0  0.00000000000E+00  0.00000000000E+00  0.14271186611E+04  0.14271186611E+04  0.00000000000E+00 0. -1.
         -1   -1    0    0    0  501 -0.00000000000E+00 -0.00000000000E+00 -0.40454479770E+02  0.40454479770E+02  0.00000000000E+00 0.  1.
         25    1    1    2    0    0  0.22287324278E+03  0.11567223828E+02  0.79968522644E+03  0.83959975251E+03  0.12500000000E+03 0.  0.
         21    1    1    2  502  501 -0.22287324278E+03 -0.11567223828E+02  0.58697895488E+03  0.62797338836E+03  0.00000000000E+00 0. -1.
<mgrwt>
<rscale>  3 0.48055527E+03</rscale>
<asrwt>0</asrwt>
<pdfrwt beam="1">  1        1 0.21955668E+00 0.48055527E+03</pdfrwt>
<pdfrwt beam="2">  1       -1 0.62237672E-02 0.48055527E+03</pdfrwt>
<totfact> 0.10009439E+03</totfact>
</mgrwt>
</event>
