<event>
 5    0  0.1856407E+000  0.3047380E+03  0.7546771E-02  0.1082896E+00
         21   -1    0    0  502  501  0.00000000000E+00  0.00000000000E+00  0.32321979356E+03  0.32321979356E+03  0.00000000000E+00 0.  1.
         21   -1    0    0  503  502 -0.00000000000E+00 -0.00000000000E+00 -0.30945654892E+03  0.30945654892E+03  0.00000000000E+00 0. -1.
         25    1    1    2    0    0  0.50486745367E+02  0.27329720476E+03  0.10942315803E+03  0.32378804966E+03  0.12500000000E+03 0.  0.
         21    1    1    2  503  504 -0.53068634001E+02 -0.21841534461E+03 -0.11259568444E+03  0.25139477089E+03  0.00000000000E+00 0. -1.
         21    1    1    2  504  501  0.25818886338E+01 -0.54881860154E+02  0.16935771044E+02  0.57493521929E+02  0.00000000000E+00 0.  1.
<mgrwt>
<rscale>  4 0.30473804E+03</rscale>
<asrwt>0</asrwt>
<pdfrwt beam="1">  1       21 0.49726122E-01 0.30473804E+03</pdfrwt>
<pdfrwt beam="2">  1       21 0.47608700E-01 0.30473804E+03</pdfrwt>
<totfact> 0.15349935E+04</totfact>
</mgrwt>
</event>
<event>
 5    0  0.1856407E+000  0.2485700E+03  0.7546771E-02  0.1114212E+00
         21   -1    0    0  502  501  0.00000000000E+00  0.00000000000E+00  0.49039968729E+03  0.49039968729E+03  0.00000000000E+00 0. -1.
         21   -1    0    0  503  502 -0.00000000000E+00 -0.00000000000E+00 -0.13386751950E+04  0.13386751950E+04  0.00000000000E+00 0.  1.
         25    1    1    2    0    0  0.15293296951E+02 -0.24528131057E+03  0.42930460753E+03  0.51021980782E+03  0.12500000000E+03 0.  0.
         21    1    1    2  503  504 -0.93312945129E+01  0.31099883207E+02 -0.11004209976E+02  0.34283646684E+02  0.00000000000E+00 0.  1.
         21    1    1    2  504  501 -0.59620024381E+01  0.21418142737E+03 -0.12665759053E+04  0.12845714278E+04  0.00000000000E+00 0.  1.
<mgrwt>
<rscale>  4 0.24857004E+03</rscale>
<asrwt>0</asrwt>
<pdfrwt beam="1">  1       21 0.75446107E-01 0.24857004E+03</pdfrwt>
<pdfrwt beam="2">  1       21 0.20595003E+00 0.24857004E+03</pdfrwt>
<totfact> 0.18045194E+02</totfact>
</mgrwt>
</event>
<event>
 5    0  0.1856407E+000  0.3514905E+03  0.7546771E-02  0.1062005E+00
         21   -1    0    0  502  501  0.00000000000E+00  0.00000000000E+00  0.11149141153E+03  0.11149141153E+03  0.00000000000E+00 0.  1.
         21   -1    0    0  503  502 -0.00000000000E+00 -0.00000000000E+00 -0.17304586153E+04  0.17304586153E+04  0.00000000000E+00 0.  1.
         25    1    1    2    0    0 -0.28720524130E+03 -0.15947958088E+03 -0.24643854413E+03  0.42927560306E+03  0.12500000000E+03 0.  0.
         21    1    1    2  503  504  0.27009340897E+03  0.13510968427E+03 -0.11894794847E+04  0.12272190191E+04  0.00000000000E+00 0.  1.
         21    1    1    2  504  501  0.17111832336E+02  0.24369896616E+02 -0.18304917495E+03  0.18545540466E+03  0.00000000000E+00 0.  1.
<mgrwt>
<rscale>  4 0.35149052E+03</rscale>
<asrwt>0</asrwt>
<pdfrwt beam="1">  1       21 0.17152525E-01 0.35149052E+03</pdfrwt>
<pdfrwt beam="2">  1       21 0.26622440E+00 0.35149052E+03</pdfrwt>
<totfact> 0.14250846E+03</totfact>
</mgrwt>
</event>
<event>
 5    0  0.1856407E+000  0.3258045E+03  0.7546771E-02  0.1073008E+00
         21   -1    0    0  502  501  0.00000000000E+00  0.00000000000E+00  0.21051703006E+03  0.21051703006E+03  0.00000000000E+00 0.  1.
         21   -1    0    0  503  502 -0.00000000000E+00 -0.00000000000E+00 -0.48663753234E+03  0.48663753234E+03  0.00000000000E+00 0. -1.
         25    1    1    2    0    0  0.26522099561E+03 -0.14206129830E+03 -0.15864532535E+03  0.36237677663E+03  0.12500000000E+03 0.  0.
         21    1    1    2  503  504 -0.13700444499E+02  0.25612012450E+02  0.85842237667E+01  0.30288054722E+02  0.00000000000E+00 0.  1.
         21    1    1    2  504  501 -0.25152055111E+03  0.11644928585E+03 -0.12605940070E+03  0.30448973105E+03  0.00000000000E+00 0. -1.
<mgrwt>
<rscale>  4 0.32580453E+03</rscale>
<asrwt>0</asrwt>
<pdfrwt beam="1">  1       21 0.32387235E-01 0.32580453E+03</pdfrwt>
<pdfrwt beam="2">  1       21 0.74867313E-01 0.32580453E+03</pdfrwt>
<totfact> 0.13680777E+04</totfact>
</mgrwt>
</event>
<event>
 5    0  0.1856407E+000  0.2500328E+03  0.7546771E-02  0.1113284E+00
         21   -1    0    0  502  501  0.00000000000E+00  0.00000000000E+00  0.22641626165E+04  0.22641626165E+04  0.00000000000E+00 0.  1.
         21   -1    0    0  503  502 -0.00000000000E+00 -0.00000000000E+00 -0.29268590509E+02  0.29268590509E+02  0.00000000000E+00 0. -1.
         25    1    1    2    0    0 -0.17632743501E+03  0.12569815388E+03  0.16020509380E+04  0.16214449106E+04  0.12500000000E+03 0.  0.
         21    1    1    2  503  504  0.70786427123E+01 -0.28626562868E+02  0.11136804760E+03  0.11520602984E+03  0.00000000000E+00 0. -1.
         21    1    1    2  504  501  0.16924879230E+03 -0.97071591010E+02  0.52147504041E+03  0.55678026657E+03  0.00000000000E+00 0. -1.
<mgrwt>
<rscale>  4 0.25003278E+03</rscale>
<asrwt>0</asrwt>
<pdfrwt beam="1">  1       21 0.34833257E+00 0.25003278E+03</pdfrwt>
<pdfrwt beam="2">  1       21 0.45028618E-02 0.25003278E+03</pdfrwt>
<totfact> 0.53903573E+03</totfact>
</mgrwt>
</event>
<event>
 5    0  0.1856407E+000  0.2743028E+03  0.7546771E-02  0.1098842E+00
         21   -1    0    0  502  501  0.00000000000E+00  0.00000000000E+00  0.84686914082E+02  0.84686914082E+02  0.00000000000E+00 0.  1.
         21   -1    0    0  503  502 -0.00000000000E+00 -0.00000000000E+00 -0.10725048686E+04  0.10725048686E+04  0.00000000000E+00 0. -1.
         25    1    1    2    0    0  0.25528669253E+02 -0.24282772879E+03 -0.22314996571E+03  0.35360702201E+03  0.12500000000E+03 0.  0.
         21    1    1    2  503  504 -0.31194591570E+02  0.21217232553E+03 -0.63553603330E+03  0.67074305653E+03  0.00000000000E+00 0. -1.
         21    1    1    2  504  501  0.56659223167E+01  0.30655403260E+02 -0.12913195556E+03  0.13284170419E+03  0.00000000000E+00 0. -1.
<mgrwt>
<rscale>  4 0.27430279E+03</rscale>
<asrwt>0</asrwt>
<pdfrwt beam="1">  1       21 0.13028756E-01 0.27430279E+03</pdfrwt>
<pdfrwt beam="2">  1       21 0.16500075E+00 0.27430279E+03</pdfrwt>
<totfact> 0.11109975E+04</totfact>
</mgrwt>
</event>
<event>
 5    0  0.1856407E+000  0.2865105E+03  0.7546771E-02  0.1092185E+00
         21   -1    0    0  502  501  0.00000000000E+00  0.00000000000E+00  0.15949552786E+04  0.15949552786E+04  0.00000000000E+00 0.  1.
         21   -1    0    0  503  502 -0.00000000000E+00 -0.00000000000E+00 -0.13722167345E+03  0.13722167345E+03  0.00000000000E+00 0. -1.
         25    1    1    2    0    0 -0.26208675386E+03  0.44405910733E+02  0.13959797546E+04  0.14265503239E+04  0.12500000000E+03 0.  0.
         21    1    1    2  503  504  0.60803640922E+02 -0.31740771201E+02  0.77304620673E+02  0.10334681264E+03  0.00000000000E+00 0.  1.
         21    1    1    2  504  501  0.20128311294E+03 -0.12665139532E+02 -0.15550770088E+02  0.20227981551E+03  0.00000000000E+00 0. -1.
<mgrwt>
<rscale>  4 0.28651048E+03</rscale>
<asrwt>0</asrwt>
<pdfrwt beam="1">  1       21 0.24537772E+00 0.28651048E+03</pdfrwt>
<pdfrwt beam="2">  1       21 0.21111028E-01 0.28651048E+03</pdfrwt>
<totfact> 0.13481570E+03</totfact>
</mgrwt>
</event>
<event>
 5    0  0.2026763E+000  0.2027773E+03  0.7546771E-02  0.1147417E+00
         21   -1    0    0  502  501  0.00000000000E+00  0.00000000000E+00  0.17066122403E+03  0.17066122403E+03  0.00000000000E+00 0. -1.
         21   -1    0    0  503  502 -0.00000000000E+00 -0.00000000000E+00 -0.41782542727E+03  0.41782542727E+03  0.00000000000E+00 0. -1.
         25    1    1    2    0    0 -0.15960046512E+03  0.12919978197E+03  0.30024687267E+01  0.24041403234E+03  0.12500000000E+03 0.  0.
         21    1    1    2  503  504  0.12016790652E+03 -0.21373228824E+02 -0.93050096129E+02  0.15347788459E+03  0.00000000000E+00 0. -1.
         21    1    1    2  504  501  0.39432558598E+02 -0.10782655315E+03 -0.15711657584E+03  0.19459473437E+03  0.00000000000E+00 0. -1.
<mgrwt>
<rscale>  4 0.20277733E+03</rscale>
<asrwt>0</asrwt>
<pdfrwt beam="1">  1       21 0.26255573E-01 0.20277733E+03</pdfrwt>
<pdfrwt beam="2">  1       21 0.64280834E-01 0.20277733E+03</pdfrwt>
<totfact> 0.30621141E+04</totfact>
</mgrwt>
</event>
<event>
 5    0  0.2037966E+000  0.2358992E+03  0.7546771E-02  0.1122555E+00
         21   -1    0    0  502  501  0.00000000000E+00  0.00000000000E+00  0.60614838026E+03  0.60614838026E+03  0.00000000000E+00 0.  1.
         21   -1    0    0  503  502 -0.00000000000E+00 -0.00000000000E+00 -0.81133725313E+02  0.81133725313E+02  0.00000000000E+00 0.  1.
         25    1    1    2    0    0 -0.16124527347E+03  0.11842049966E+03  0.30559256551E+03  0.38605086330E+03  0.12500000000E+03 0.  0.
         21    1    1    2  503  504  0.13363693740E+03 -0.81838403108E+02  0.19196816423E+03  0.24780664103E+03  0.00000000000E+00 0.  1.
         21    1    1    2  504  501  0.27608336072E+02 -0.36582096554E+02  0.27453925209E+02  0.53424601246E+02  0.00000000000E+00 0.  1.
<mgrwt>
<rscale>  4 0.23589924E+03</rscale>
<asrwt>0</asrwt>
<pdfrwt beam="1">  1       21 0.93253594E-01 0.23589924E+03</pdfrwt>
<pdfrwt beam="2">  1       21 0.12482112E-01 0.23589924E+03</pdfrwt>
<totfact> 0.51827437E+04</totfact>
</mgrwt>
</event>
<event>
 5    0  0.1856407E+000  0.2489017E+03  0.7546771E-02  0.1114001E+00
         21   -1    0    0  502  501  0.00000000000E+00  0.00000000000E+00  0.18014766216E+04  0.18014766216E+04  0.00000000000E+00 0. -1.
         21   -1    0    0  503  502 -0.00000000000E+00 -0.00000000000E+00 -0.14997070224E+03  0.14997070224E+03  0.00000000000E+00 0.  1.
         25    1    1    2    0    0 -0.21313340692E+03 -0.30020132756E+02  0.16957600402E+04  0.17139294535E+04  0.12500000000E+03 0.  0.
         21    1    1    2  503  504  0.11588377055E+03  0.40839879475E+02 -0.62702923635E+02  0.13794419402E+03  0.00000000000E+00 0.  1.
         21    1    1    2  504  501  0.97249636368E+02 -0.10819746719E+02  0.18448802778E+02  0.99573676324E+02  0.00000000000E+00 0. -1.
<mgrwt>
<rscale>  4 0.24890170E+03</rscale>
<asrwt>0</asrwt>
<pdfrwt beam="1">  1       21 0.27715023E+00 0.24890170E+03</pdfrwt>
<pdfrwt beam="2">  1       21 0.23072417E-01 0.24890170E+03</pdfrwt>
<totfact> 0.76326377E+02</totfact>
</mgrwt>
</event>
<event>
 5    0  0.1856407E+000  0.2231376E+03  0.7546771E-02  0.1131565E+00
         21   -1    0    0  502  501  0.00000000000E+00  0.00000000000E+00  0.21231520407E+03  0.21231520407E+03  0.00000000000E+00 0.  1.
         21   -1    0    0  503  502 -0.00000000000E+00 -0.00000000000E+00 -0.62421187679E+03  0.62421187679E+03  0.00000000000E+00 0.  1.
         25    1    1    2    0    0 -0.26087754899E+03  0.34575248342E+02 -0.42830839152E+03  0.51800156526E+03  0.12500000000E+03 0.  0.
         21    1    1    2  503  504  0.84778477298E+02 -0.43742331481E+02 -0.73650229533E+02  0.12052028081E+03  0.00000000000E+00 0.  1.
         21    1    1    2  504  501  0.17609907169E+03  0.91670831393E+01  0.90061948334E+02  0.19800523478E+03  0.00000000000E+00 0.  1.
<mgrwt>
<rscale>  4 0.22313765E+03</rscale>
<asrwt>0</asrwt>
<pdfrwt beam="1">  1       21 0.32663878E-01 0.22313765E+03</pdfrwt>
<pdfrwt beam="2">  1       21 0.96032596E-01 0.22313765E+03</pdfrwt>
<totfact> 0.79747457E+03</totfact>
</mgrwt>
</event>
<event>
 5    0  0.2002924E+000  0.2721379E+03  0.7546771E-02  0.1100062E+00
         21   -1    0    0  502  501  0.00000000000E+00  0.00000000000E+00  0.32693780284E+03  0.32693780284E+03  0.00000000000E+00 0. -1.
         21   -1    0    0  503  502 -0.00000000000E+00 -0.00000000000E+00 -0.23050814979E+03  0.23050814979E+03  0.00000000000E+00 0. -1.
         25    1    1    2    0    0 -0.14964063068E+03  0.18984657431E+03  0.12758397447E+03  0.30056066055E+03  0.12500000000E+03 0.  0.
         21    1    1    2  503  504  0.48061207091E+02 -0.62905068079E+02 -0.49354745829E+02  0.93288896193E+02  0.00000000000E+00 0. -1.
         21    1    1    2  504  501  0.10157942359E+03 -0.12694150623E+03  0.18200424409E+02  0.16359639589E+03  0.00000000000E+00 0. -1.
<mgrwt>
<rscale>  4 0.27213791E+03</rscale>
<asrwt>0</asrwt>
<pdfrwt beam="1">  1       21 0.50298123E-01 0.27213791E+03</pdfrwt>
<pdfrwt beam="2">  1       21 0.35462792E-01 0.27213791E+03</pdfrwt>
<totfact> 0.27759534E+04</totfact>
</mgrwt>
</event>
<event>
 5    0  0.1856407E+000  0.2605484E+03  0.7546771E-02  0.1106814E+00
         21   -1    0    0  502  501  0.00000000000E+00  0.00000000000E+00  0.24549178534E+03  0.24549178534E+03  0.00000000000E+00 0.  1.
         21   -1    0    0  503  502 -0.00000000000E+00 -0.00000000000E+00 -0.28768020991E+03  0.28768020991E+03  0.00000000000E+00 0.  1.
         25    1    1    2    0    0  0.66405481280E+02  0.21874818759E+03 -0.12257578248E+03  0.28794145233E+03  0.12500000000E+03 0.  0.
         21    1    1    2  503  504 -0.21644808416E+02 -0.32815713114E+02  0.23074641637E+02  0.45582977582E+02  0.00000000000E+00 0.  1.
         21    1    1    2  504  501 -0.44760672864E+02 -0.18593247448E+03  0.57312716280E+02  0.19964756534E+03  0.00000000000E+00 0.  1.
<mgrwt>
<rscale>  4 0.26054838E+03</rscale>
<asrwt>0</asrwt>
<pdfrwt beam="1">  1       21 0.37767967E-01 0.26054838E+03</pdfrwt>
<pdfrwt beam="2">  1       21 0.44258494E-01 0.26054838E+03</pdfrwt>
<totfact> 0.32082826E+04</totfact>
</mgrwt>
</event>
<event>
 5    0  0.1856407E+000  0.2937121E+03  0.7546771E-02  0.1088427E+00
         21   -1    0    0  502  501  0.00000000000E+00  0.00000000000E+00  0.12852159241E+03  0.12852159241E+03  0.00000000000E+00 0.  1.
         21   -1    0    0  503  502 -0.00000000000E+00 -0.00000000000E+00 -0.21095402142E+04  0.21095402142E+04  0.00000000000E+00 0.  1.
         25    1    1    2    0    0  0.97996011608E+02 -0.25593464633E+03 -0.81144101724E+02  0.31195372530E+03  0.12500000000E+03 0.  0.
         21    1    1    2  503  504  0.16783515127E+02  0.88384469922E+02 -0.29440928428E+03  0.30784789681E+03  0.00000000000E+00 0.  1.
         21    1    1    2  504  501 -0.11477952673E+03  0.16755017641E+03 -0.16054652358E+04  0.16182601845E+04  0.00000000000E+00 0.  1.
<mgrwt>
<rscale>  4 0.29371209E+03</rscale>
<asrwt>0</asrwt>
<pdfrwt beam="1">  1       21 0.19772553E-01 0.29371209E+03</pdfrwt>
<pdfrwt beam="2">  1       21 0.32454465E+00 0.29371209E+03</pdfrwt>
<totfact> 0.51523054E+02</totfact>
</mgrwt>
</event>
<event>
 5    0  0.1856407E+000  0.3456747E+03  0.7546771E-02  0.1064404E+00
         21   -1    0    0  502  501  0.00000000000E+00  0.00000000000E+00  0.12158614681E+03  0.12158614681E+03  0.00000000000E+00 0.  1.
         21   -1    0    0  503  502 -0.00000000000E+00 -0.00000000000E+00 -0.13343507076E+04  0.13343507076E+04  0.00000000000E+00 0. -1.
         25    1    1    2    0    0  0.34815223456E+02 -0.32039652328E+03 -0.21883551836E+03  0.40912102856E+03  0.12500000000E+03 0.  0.
         21    1    1    2  503  504 -0.47497117141E+02  0.30399298808E+03 -0.92431708992E+03  0.97418160302E+03  0.00000000000E+00 0. -1.
         21    1    1    2  504  501  0.12681893685E+02  0.16403535203E+02 -0.69611952473E+02  0.72634222800E+02  0.00000000000E+00 0.  1.
<mgrwt>
<rscale>  4 0.34567475E+03</rscale>
<asrwt>0</asrwt>
<pdfrwt beam="1">  1       21 0.18705562E-01 0.34567475E+03</pdfrwt>
<pdfrwt beam="2">  1       21 0.20528471E+00 0.34567475E+03</pdfrwt>
<totfact> 0.28999705E+03</totfact>
</mgrwt>
</event>
<event>
 5    0  0.1856407E+000  0.2574866E+03  0.7546771E-02  0.1108663E+00
         21   -1    0    0  502  501  0.00000000000E+00  0.00000000000E+00  0.22291834082E+03  0.22291834082E+03  0.00000000000E+00 0. -1.
         21   -1    0    0  503  502 -0.00000000000E+00 -0.00000000000E+00 -0.29023854230E+03  0.29023854230E+03  0.00000000000E+00 0. -1.
         25    1    1    2    0    0 -0.19079761629E+03  0.11945968201E+03 -0.86111118653E+02  0.27150408977E+03  0.12500000000E+03 0.  0.
         21    1    1    2  503  504  0.75944491273E+02 -0.65087789904E+02  0.48491688468E+02  0.11115498189E+03  0.00000000000E+00 0. -1.
         21    1    1    2  504  501  0.11485312502E+03 -0.54371892108E+02 -0.29700771298E+02  0.13049781145E+03  0.00000000000E+00 0. -1.
<mgrwt>
<rscale>  4 0.25748659E+03</rscale>
<asrwt>0</asrwt>
<pdfrwt beam="1">  1       21 0.34295130E-01 0.25748659E+03</pdfrwt>
<pdfrwt beam="2">  1       21 0.44652083E-01 0.25748659E+03</pdfrwt>
<totfact> 0.38274902E+04</totfact>
</mgrwt>
</event>
<event>
 5    0  0.1931100E+000  0.2675182E+03  0.7546771E-02  0.1102708E+00
         21   -1    0    0  502  501  0.00000000000E+00  0.00000000000E+00  0.36192038842E+03  0.36192038842E+03  0.00000000000E+00 0. -1.
         21   -1    0    0  503  502 -0.00000000000E+00 -0.00000000000E+00 -0.37443177197E+03  0.37443177197E+03  0.00000000000E+00 0. -1.
         25    1    1    2    0    0  0.23222640154E+03 -0.82270346277E+02  0.23401518196E+03  0.36205747725E+03  0.12500000000E+03 0.  0.
         21    1    1    2  503  504 -0.62738573846E+02 -0.38391626952E+02 -0.67019906937E+02  0.99507354472E+02  0.00000000000E+00 0. -1.
         21    1    1    2  504  501 -0.16948782769E+03  0.12066197323E+03 -0.17950665857E+03  0.27478732866E+03  0.00000000000E+00 0. -1.
<mgrwt>
<rscale>  4 0.26751824E+03</rscale>
<asrwt>0</asrwt>
<pdfrwt beam="1">  1       21 0.55680060E-01 0.26751824E+03</pdfrwt>
<pdfrwt beam="2">  1       21 0.57604888E-01 0.26751824E+03</pdfrwt>
<totfact> 0.82016970E+03</totfact>
</mgrwt>
</event>
<event>
 5    0  0.1856407E+000  0.2901557E+03  0.7546771E-02  0.1090268E+00
         21   -1    0    0  502  501  0.00000000000E+00  0.00000000000E+00  0.35485753660E+03  0.35485753660E+03  0.00000000000E+00 0.  1.
         21   -1    0    0  503  502 -0.00000000000E+00 -0.00000000000E+00 -0.24307900686E+03  0.24307900686E+03  0.00000000000E+00 0.  1.
         25    1    1    2    0    0 -0.18506417674E+03 -0.18524734149E+03 -0.33485164330E+02  0.29208146684E+03  0.12500000000E+03 0.  0.
         21    1    1    2  503  504  0.75154841985E+02  0.11701486110E+03  0.86414050312E+02  0.16373184199E+03  0.00000000000E+00 0.  1.
         21    1    1    2  504  501  0.10990933476E+03  0.68232480395E+02  0.58849643757E+02  0.14212323462E+03  0.00000000000E+00 0.  1.
<mgrwt>
<rscale>  4 0.29015569E+03</rscale>
<asrwt>0</asrwt>
<pdfrwt beam="1">  1       21 0.54593468E-01 0.29015569E+03</pdfrwt>
<pdfrwt beam="2">  1       21 0.37396770E-01 0.29015569E+03</pdfrwt>
<totfact> 0.20813839E+04</totfact>
</mgrwt>
</event>
