<event>
 5    0  0.1856407E+000  0.2282890E+03  0.7546771E-02  0.1127850E+00
         21   -1    0    0  502  501  0.00000000000E+00  0.00000000000E+00  0.16260459286E+04  0.16260459286E+04  0.00000000000E+00 0. -1.
         21   -1    0    0  503  502 -0.00000000000E+00 -0.00000000000E+00 -0.34096037268E+02  0.34096037268E+02  0.00000000000E+00 0. -1.
         25    1    1    2    0    0  0.91928264020E+02 -0.17813960930E+03  0.61874160476E+03  0.66230710368E+03  0.12500000000E+03 0.  0.
         21    1    1    2  503  504 -0.11014171494E+03  0.14367185450E+03  0.77996752309E+03  0.80070102798E+03  0.00000000000E+00 0. -1.
         21    1    1    2  504  501  0.18213450919E+02  0.34467754795E+02  0.19324076344E+03  0.19713383415E+03  0.00000000000E+00 0. -1.
<mgrwt>
<rscale>  4 0.22828905E+03</rscale>
<asrwt>0</asrwt>
<pdfrwt beam="1">  1       21 0.25016085E+00 0.22828905E+03</pdfrwt>
<pdfrwt beam="2">  1       21 0.52455455E-02 0.22828905E+03</pdfrwt>
<totfact> 0.15962414E+04</totfact>
</mgrwt>
</event>
<event>
 5    0  0.2319572E+000  0.2366371E+03  0.7546771E-02  0.1122054E+00
         21   -1    0    0  502  501  0.00000000000E+00  0.00000000000E+00  0.67433697268E+03  0.67433697268E+03  0.00000000000E+00 0. -1.
         21   -1    0    0  503  502 -0.00000000000E+00 -0.00000000000E+00 -0.20089727200E+03  0.20089727200E+03  0.00000000000E+00 0.  1.
         25    1    1    2    0    0 -0.48014172499E+02  0.20513479454E+03  0.56836833938E+03  0.61891292918E+03  0.12500000000E+03 0.  0.
         21    1    1    2  503  504  0.78775794384E+02 -0.13424393777E+03 -0.87824180146E+02  0.17871806631E+03  0.00000000000E+00 0.  1.
         21    1    1    2  504  501 -0.30761621885E+02 -0.70890856773E+02 -0.71044585577E+01  0.77603249200E+02  0.00000000000E+00 0. -1.
<mgrwt>
<rscale>  4 0.23663711E+03</rscale>
<asrwt>0</asrwt>
<pdfrwt beam="1">  1       21 0.10374415E+00 0.23663711E+03</pdfrwt>
<pdfrwt beam="2">  1       21 0.30907273E-01 0.23663711E+03</pdfrwt>
<totfact> 0.73328704E+03</totfact>
</mgrwt>
</event>
<event>
 5    0  0.1957471E+000  0.2531030E+03  0.7546771E-02  0.1111359E+00
         21   -1    0    0  502  501  0.00000000000E+00  0.00000000000E+00  0.12756681159E+03  0.12756681159E+03  0.00000000000E+00 0. -1.
         21   -1    0    0  503  502 -0.00000000000E+00 -0.00000000000E+00 -0.46718180036E+03  0.46718180036E+03  0.00000000000E+00 0. -1.
         25    1    1    2    0    0 -0.86022099871E+02  0.20257419870E+03 -0.16513830645E+03  0.30221146223E+03  0.12500000000E+03 0.  0.
         21    1    1    2  503  504  0.60058404259E+02 -0.13892050348E+03 -0.16371604274E+03  0.22295484040E+03  0.00000000000E+00 0. -1.
         21    1    1    2  504  501  0.25963695612E+02 -0.63653695223E+02 -0.10760639576E+02  0.69582309314E+02  0.00000000000E+00 0. -1.
<mgrwt>
<rscale>  4 0.25310296E+03</rscale>
<asrwt>0</asrwt>
<pdfrwt beam="1">  1       21 0.19625663E-01 0.25310296E+03</pdfrwt>
<pdfrwt beam="2">  1       21 0.71874123E-01 0.25310296E+03</pdfrwt>
<totfact> 0.40620954E+04</totfact>
</mgrwt>
</event>
<event>
 5    0  0.1856407E+000  0.2577559E+03  0.7546771E-02  0.1108499E+00
         21   -1    0    0  502  501  0.00000000000E+00  0.00000000000E+00  0.55234513355E+03  0.55234513355E+03  0.00000000000E+00 0.  1.
         21   -1    0    0  503  502 -0.00000000000E+00 -0.00000000000E+00 -0.10742077720E+03  0.10742077720E+03  0.00000000000E+00 0.  1.
         25    1    1    2    0    0 -0.99969432420E+02  0.20203768574E+03  0.25907699326E+03  0.36545725101E+03  0.12500000000E+03 0.  0.
         21    1    1    2  503  504  0.72218732661E+02 -0.17473748349E+03  0.14930707477E+03  0.24091769562E+03  0.00000000000E+00 0.  1.
         21    1    1    2  504  501  0.27750699758E+02 -0.27300202252E+02  0.36540288318E+02  0.53390964127E+02  0.00000000000E+00 0.  1.
<mgrwt>
<rscale>  4 0.25775592E+03</rscale>
<asrwt>0</asrwt>
<pdfrwt beam="1">  1       21 0.84976173E-01 0.25775592E+03</pdfrwt>
<pdfrwt beam="2">  1       21 0.16526274E-01 0.25775592E+03</pdfrwt>
<totfact> 0.38191694E+04</totfact>
</mgrwt>
</event>
<event>
 5    0  0.1956559E+000  0.3468522E+03  0.7546771E-02  0.1063914E+00
         21   -1    0    0  502  501  0.00000000000E+00  0.00000000000E+00  0.11078744796E+04  0.11078744796E+04  0.00000000000E+00 0. -1.
         21   -1    0    0  503  502 -0.00000000000E+00 -0.00000000000E+00 -0.12273695065E+03  0.12273695065E+03  0.00000000000E+00 0.  1.
         25    1    1    2    0    0 -0.30330594520E+03 -0.11263638919E+03  0.73086696688E+03  0.80899504067E+03  0.12500000000E+03 0.  0.
         21    1    1    2  503  504  0.28024964871E+02  0.42444186763E+02  0.52986656235E+02  0.73447214958E+02  0.00000000000E+00 0.  1.
         21    1    1    2  504  501  0.27528098033E+03  0.70192202422E+02  0.20128390586E+03  0.34816917464E+03  0.00000000000E+00 0.  1.
<mgrwt>
<rscale>  4 0.34685221E+03</rscale>
<asrwt>0</asrwt>
<pdfrwt beam="1">  1       21 0.17044222E+00 0.34685221E+03</pdfrwt>
<pdfrwt beam="2">  1       21 0.18882608E-01 0.34685221E+03</pdfrwt>
<totfact> 0.49237117E+03</totfact>
</mgrwt>
</event>
<event>
 5    0  0.2658944E+000  0.2767241E+03  0.7546771E-02  0.1097492E+00
         21   -1    0    0  502  501  0.00000000000E+00  0.00000000000E+00  0.27498918259E+03  0.27498918259E+03  0.00000000000E+00 0.  1.
         21   -1    0    0  503  502 -0.00000000000E+00 -0.00000000000E+00 -0.36844898222E+03  0.36844898222E+03  0.00000000000E+00 0.  1.
         25    1    1    2    0    0  0.19705327063E+03 -0.14873208044E+03  0.13276617451E+03  0.30692520312E+03  0.12500000000E+03 0.  0.
         21    1    1    2  503  504 -0.17082842715E+03  0.13465138429E+03 -0.18430640050E+03  0.28510032634E+03  0.00000000000E+00 0.  1.
         21    1    1    2  504  501 -0.26224843478E+02  0.14080696151E+02 -0.41919573633E+02  0.51412635345E+02  0.00000000000E+00 0.  1.
<mgrwt>
<rscale>  4 0.27672409E+03</rscale>
<asrwt>0</asrwt>
<pdfrwt beam="1">  1       21 0.42306028E-01 0.27672409E+03</pdfrwt>
<pdfrwt beam="2">  1       21 0.56684459E-01 0.27672409E+03</pdfrwt>
<totfact> 0.15024441E+04</totfact>
</mgrwt>
</event>
<event>
 5    0  0.1856407E+000  0.3366997E+03  0.7546771E-02  0.1068210E+00
         21   -1    0    0  502  501  0.00000000000E+00  0.00000000000E+00  0.75856945812E+03  0.75856945812E+03  0.00000000000E+00 0.  1.
         21   -1    0    0  503  502 -0.00000000000E+00 -0.00000000000E+00 -0.74678141665E+03  0.74678141665E+03  0.00000000000E+00 0.  1.
         25    1    1    2    0    0  0.18498192879E+03  0.25203840257E+03  0.68397405139E+03  0.76235632963E+03  0.12500000000E+03 0.  0.
         21    1    1    2  503  504 -0.15797791198E+03 -0.23865811849E+03 -0.59983332044E+03  0.66461622798E+03  0.00000000000E+00 0.  1.
         21    1    1    2  504  501 -0.27004016810E+02 -0.13380284083E+02 -0.72352689478E+02  0.78378317160E+02  0.00000000000E+00 0.  1.
<mgrwt>
<rscale>  4 0.33669967E+03</rscale>
<asrwt>0</asrwt>
<pdfrwt beam="1">  1       21 0.11670299E+00 0.33669967E+03</pdfrwt>
<pdfrwt beam="2">  1       21 0.11488945E+00 0.33669967E+03</pdfrwt>
<totfact> 0.29226230E+02</totfact>
</mgrwt>
</event>
<event>
 5    0  0.1478597E+001  0.2464686E+03  0.7546771E-02  0.1115557E+00
         21   -1    0    0  502  501  0.00000000000E+00  0.00000000000E+00  0.17460823602E+03  0.17460823602E+03  0.00000000000E+00 0. -1.
         21   -1    0    0  503  502 -0.00000000000E+00 -0.00000000000E+00 -0.43725608825E+03  0.43725608825E+03  0.00000000000E+00 0. -1.
         25    1    1    2    0    0  0.20854973367E+03  0.40358404958E+02 -0.29596328802E+03  0.38515069794E+03  0.12500000000E+03 0.  0.
         21    1    1    2  503  504 -0.18541130777E+03 -0.24486759317E+02  0.53489883718E+01  0.18709774480E+03  0.00000000000E+00 0. -1.
         21    1    1    2  504  501 -0.23138425901E+02 -0.15871645642E+02  0.27966447414E+02  0.39615881532E+02  0.00000000000E+00 0.  1.
<mgrwt>
<rscale>  4 0.24646864E+03</rscale>
<asrwt>0</asrwt>
<pdfrwt beam="1">  1       21 0.26862806E-01 0.24646864E+03</pdfrwt>
<pdfrwt beam="2">  1       21 0.67270167E-01 0.24646864E+03</pdfrwt>
<totfact> 0.25946231E+04</totfact>
</mgrwt>
</event>
<event>
 5    0  0.2129218E+000  0.2689082E+03  0.7546771E-02  0.1101906E+00
         21   -1    0    0  502  501  0.00000000000E+00  0.00000000000E+00  0.27539683787E+03  0.27539683787E+03  0.00000000000E+00 0.  1.
         21   -1    0    0  503  502 -0.00000000000E+00 -0.00000000000E+00 -0.30393761601E+03  0.30393761601E+03  0.00000000000E+00 0. -1.
         25    1    1    2    0    0 -0.18905650189E+03  0.14472126820E+03  0.11798105094E+03  0.29365138304E+03  0.12500000000E+03 0.  0.
         21    1    1    2  503  504  0.37558846156E+02 -0.13431686524E+02 -0.47994952906E+01  0.40176016260E+02  0.00000000000E+00 0. -1.
         21    1    1    2  504  501  0.15149765574E+03 -0.13128958168E+03 -0.14172233380E+03  0.24550705458E+03  0.00000000000E+00 0. -1.
<mgrwt>
<rscale>  4 0.26890817E+03</rscale>
<asrwt>0</asrwt>
<pdfrwt beam="1">  1       21 0.42368745E-01 0.26890817E+03</pdfrwt>
<pdfrwt beam="2">  1       21 0.46759633E-01 0.26890817E+03</pdfrwt>
<totfact> 0.22573701E+04</totfact>
</mgrwt>
</event>
<event>
 5    0  0.1862736E+000  0.3390632E+03  0.7546771E-02  0.1067196E+00
         21   -1    0    0  502  501  0.00000000000E+00  0.00000000000E+00  0.48995612903E+03  0.48995612903E+03  0.00000000000E+00 0. -1.
         21   -1    0    0  503  502 -0.00000000000E+00 -0.00000000000E+00 -0.26691248910E+03  0.26691248910E+03  0.00000000000E+00 0. -1.
         25    1    1    2    0    0  0.94243492571E+02 -0.31142796497E+03  0.60570462095E+02  0.35378382401E+03  0.12500000000E+03 0.  0.
         21    1    1    2  503  504 -0.98220945368E+02  0.28938500698E+03  0.77589238783E+02  0.31529530023E+03  0.00000000000E+00 0. -1.
         21    1    1    2  504  501  0.39774527979E+01  0.22042957991E+02  0.84883939049E+02  0.87789493883E+02  0.00000000000E+00 0. -1.
<mgrwt>
<rscale>  4 0.33906319E+03</rscale>
<asrwt>0</asrwt>
<pdfrwt beam="1">  1       21 0.75377866E-01 0.33906319E+03</pdfrwt>
<pdfrwt beam="2">  1       21 0.41063460E-01 0.33906319E+03</pdfrwt>
<totfact> 0.82927706E+03</totfact>
</mgrwt>
</event>
<event>
 5    0  0.1856407E+000  0.3128345E+03  0.7546771E-02  0.1079333E+00
         21   -1    0    0  502  501  0.00000000000E+00  0.00000000000E+00  0.13892830479E+04  0.13892830479E+04  0.00000000000E+00 0. -1.
         21   -1    0    0  503  502 -0.00000000000E+00 -0.00000000000E+00 -0.47698563901E+03  0.47698563901E+03  0.00000000000E+00 0.  1.
         25    1    1    2    0    0 -0.13193095502E+03  0.25112975192E+03  0.13179973339E+04  0.13539622969E+04  0.12500000000E+03 0.  0.
         21    1    1    2  503  504  0.39304649828E+02 -0.15117194042E+03 -0.12421114733E+03  0.19956507759E+03  0.00000000000E+00 0.  1.
         21    1    1    2  504  501  0.92626305196E+02 -0.99957811501E+02 -0.28148877772E+03  0.31274131240E+03  0.00000000000E+00 0.  1.
<mgrwt>
<rscale>  4 0.31212219E+03</rscale>
<asrwt>0</asrwt>
<pdfrwt beam="1">  1       21 0.21373585E+00 0.31283447E+03</pdfrwt>
<pdfrwt beam="2">  1       21 0.73382407E-01 0.31283447E+03</pdfrwt>
<totfact> 0.16127711E+02</totfact>
</mgrwt>
</event>
<event>
 5    0  0.1856407E+000  0.2632125E+03  0.7546771E-02  0.1105228E+00
         21   -1    0    0  502  501  0.00000000000E+00  0.00000000000E+00  0.13374644589E+03  0.13374644589E+03  0.00000000000E+00 0.  1.
         21   -1    0    0  503  502 -0.00000000000E+00 -0.00000000000E+00 -0.13778915092E+04  0.13778915092E+04  0.00000000000E+00 0.  1.
         25    1    1    2    0    0 -0.23003724773E+02 -0.23892525821E+03 -0.48930316442E+02  0.27501568361E+03  0.12500000000E+03 0.  0.
         21    1    1    2  503  504 -0.72208343028E+02  0.18963548170E+03 -0.89858119631E+03  0.92120780885E+03  0.00000000000E+00 0.  1.
         21    1    1    2  504  501  0.95212067801E+02  0.49289776506E+02 -0.29663355052E+03  0.31541446260E+03  0.00000000000E+00 0.  1.
<mgrwt>
<rscale>  4 0.26321248E+03</rscale>
<asrwt>0</asrwt>
<pdfrwt beam="1">  1       21 0.20576375E-01 0.26321248E+03</pdfrwt>
<pdfrwt beam="2">  1       21 0.21198332E+00 0.26321248E+03</pdfrwt>
<totfact> 0.23159593E+03</totfact>
</mgrwt>
</event>
<event>
 5    0  0.1856407E+000  0.2295050E+03  0.7546771E-02  0.1126989E+00
         21   -1    0    0  502  501  0.00000000000E+00  0.00000000000E+00  0.46354427802E+02  0.46354427802E+02  0.00000000000E+00 0.  1.
         21   -1    0    0  503  502 -0.00000000000E+00 -0.00000000000E+00 -0.13826548636E+04  0.13826548636E+04  0.00000000000E+00 0.  1.
         25    1    1    2    0    0  0.12269616979E+03  0.16670752445E+03 -0.94404998566E+03  0.97452610238E+03  0.12500000000E+03 0.  0.
         21    1    1    2  503  504 -0.77925133020E+01 -0.35348126825E+02 -0.15700122501E+02  0.39455128692E+02  0.00000000000E+00 0.  1.
         21    1    1    2  504  501 -0.11490365649E+03 -0.13135939762E+03 -0.37655032761E+03  0.41502806031E+03  0.00000000000E+00 0.  1.
<mgrwt>
<rscale>  4 0.22950501E+03</rscale>
<asrwt>0</asrwt>
<pdfrwt beam="1">  1       21 0.71314515E-02 0.22950501E+03</pdfrwt>
<pdfrwt beam="2">  1       21 0.21271610E+00 0.22950501E+03</pdfrwt>
<totfact> 0.15889372E+04</totfact>
</mgrwt>
</event>
<event>
 5    0  0.1856407E+000  0.2395486E+03  0.7546771E-02  0.1120094E+00
         21   -1    0    0  502  501  0.00000000000E+00  0.00000000000E+00  0.30221117960E+03  0.30221117960E+03  0.00000000000E+00 0.  1.
         21   -1    0    0  503  502 -0.00000000000E+00 -0.00000000000E+00 -0.19473884298E+03  0.19473884298E+03  0.00000000000E+00 0.  1.
         25    1    1    2    0    0  0.18959633711E+03  0.76234758986E+02  0.15410912602E+03  0.28483878290E+03  0.12500000000E+03 0.  0.
         21    1    1    2  503  504 -0.15491930258E+03 -0.75133395003E+02 -0.37084504849E+02  0.17612574445E+03  0.00000000000E+00 0.  1.
         21    1    1    2  504  501 -0.34677034528E+02 -0.11013639839E+01 -0.95522845543E+01  0.35985495223E+02  0.00000000000E+00 0.  1.
<mgrwt>
<rscale>  4 0.23954855E+03</rscale>
<asrwt>0</asrwt>
<pdfrwt beam="1">  1       21 0.46494028E-01 0.23954855E+03</pdfrwt>
<pdfrwt beam="2">  1       21 0.29959822E-01 0.23954855E+03</pdfrwt>
<totfact> 0.46319616E+04</totfact>
</mgrwt>
</event>
