<LesHouchesEvents version="3.0">
  <!--
  <scalesfunctionalform>
    muR  H_T/2 := sum_i mT(i)/2, i=final state
    muF1 H_T/2 := sum_i mT(i)/2, i=final state
    muF2 H_T/2 := sum_i mT(i)/2, i=final state
    QES  H_T/2 := sum_i mT(i)/2, i=final state
  </scalesfunctionalform>
HERWIG6   
  -->
  <header>
      297
  </header>
  <init>
   2212   2212 0.65000000D+04 0.65000000D+04 -1 -1   247000   247000 -3   1
 0.58077041D-01 0.13990130D-02 0.43135346D-03     66
  </init>
  <event>
  5     66 0.43135346E-03 0.13235234E+03 0.75467711E-02 0.11413727E+00
       -1 -1    0    0    0  501 0.00000000E+00 0.00000000E+00 0.46622522E+02 0.46623620E+02 0.32000000E+00 0.0000E+00 0.9000E+01
        2 -1    0    0  502    0 -.00000000E+00 -.00000000E+00 -.12180513E+04 0.12180513E+04 0.32000000E+00 0.0000E+00 0.9000E+01
       25  1    1    2    0    0 0.30985266E+02 0.22590828E+02 -.32438983E+03 0.34974876E+03 0.12500000E+03 0.0000E+00 0.9000E+01
       24  1    1    2    0    0 -.30210271E+02 0.12003828E+03 -.67738076E+03 0.69327755E+03 0.80419002E+02 0.0000E+00 0.9000E+01
       21  1    1    2  502  501 -.77499474E+00 -.14262910E+03 -.16965817E+03 0.22164864E+03 0.75000000E+00 0.0000E+00 0.9000E+01
#aMCatNLO 1  0  0  5  1 0.94927107D+01 0.00000000D+00  -5  6  0 0.00000000D+00 0.00000000D+00 0.00000000D+00 0.00000000D+00 0.00000000D+00
  <mgrwgt>
 0.1335799165D+00   25    2    0
 0.238305148947630D+03 0.000000000000000D+00 0.000000000000000D+00 0.238305148947630D+03
 0.238305148947630D+03 -.000000000000000D+00 -.000000000000000D+00 -.238305148947630D+03
 0.130754513398178D+03 0.309852677520011D+02 0.225912035855847D+02 -.113731125286062D+01
 0.174708121254708D+03 -.302102682451801D+02 0.120038778816159D+03 -.934544966861348D+02
 0.171147663242374D+03 -.774999506821017D+00 -.142629982401744D+03 0.945918079389954D+02
 0.000000000000000D+00 0.000000000000000D+00 0.000000000000000D+00 0.000000000000000D+00
 0.238305148947630D+03 0.000000000000000D+00 0.000000000000000D+00 0.238305148947630D+03
 0.238305148947630D+03 -.000000000000000D+00 -.000000000000000D+00 -.238305148947630D+03
 0.130552781430653D+03 0.309789523658430D+02 0.214289274697273D+02 -.366492962961462D+00
 0.173100287342363D+03 -.302186742271514D+02 0.118491751947003D+03 -.924285127659272D+02
 0.161142402914483D+03 -.545578603855669D+01 -.138590515890825D+03 0.820352200025710D+02
 0.118148262077617D+02 0.469550789986499D+01 -.133016352590546D+01 0.107597857263177D+02
0.596276571482D-04 0.000000000000D+00 0.000000000000D+00 0.134419031184D-05 0.000000000000D+00  6 -1 2 25 24 21 21 2 0.71727834D-02 0.18739259D+00 0.44308830D+05 0.44308830D+05 0.44308830D+05 0.11975144D+01  1  2  2  3  6  5       21 0.193041224505D-01 0.100000000000D+01
-.532631720767D-05 0.314663791670D-05 -.228985903772D-06 0.134419031184D-05 0.000000000000D+00  6 -1 2 25 24 21 21 4 0.71727834D-02 0.18739259D+00 0.44308830D+05 0.44308830D+05 0.44308830D+05 0.11975144D+01  1  2  3  3  6  5       21 -.247281034931D-02 0.100000000000D+01
0.278953174302D-05 0.000000000000D+00 0.000000000000D+00 0.134419031184D-05 0.000000000000D+00  6 -1 2 25 24 21 21 4 0.71727834D-02 0.18739259D+00 0.44308830D+05 0.44308830D+05 0.44308830D+05 0.11975144D+01  1  2 15  3  6  5       21 0.129507550807D-02 0.100000000000D+01
0.136587067910D-03 0.000000000000D+00 0.000000000000D+00 0.134442520285D-05 0.000000000000D+00  6 -1 2 25 24 21 21 4 0.71727834D-02 0.18739259D+00 0.44202636D+05 0.44202636D+05 0.44202636D+05 0.11976190D+01  1  2 12  3  6  5       21 0.634341379561D-01 0.100000000000D+01
0.179304157955D-03 0.000000000000D+00 0.000000000000D+00 0.134442520285D-05 0.000000000000D+00  6 -1 2 25 24 21 21 4 0.71727834D-02 0.18739259D+00 0.44202636D+05 0.44202636D+05 0.44202636D+05 0.11976190D+01  1  2 12  3  6  5       21 0.832729252177D-01 0.100000000000D+01
-.109799675022D-03 0.000000000000D+00 0.000000000000D+00 0.134419031184D-05 0.000000000000D+00  6 -1 2 25 24 21 21 4 0.71727834D-02 0.18739259D+00 0.44308830D+05 0.44308830D+05 0.44308830D+05 0.11975144D+01  1  2  4  3  6  5       21 -.509758923773D-01 0.100000000000D+01
-.635432171008D-03 0.000000000000D+00 0.000000000000D+00 0.134419031184D-05 0.000000000000D+00  6 -1 2 25 24 21 21 4 0.71727834D-02 0.18739259D+00 0.44308830D+05 0.44308830D+05 0.44308830D+05 0.11975144D+01  1  2  5  3  6  5       21 -.295007448391D+00 0.100000000000D+01
0.677120650692D-03 0.000000000000D+00 -.000000000000D+00 0.134419031184D-05 0.000000000000D+00  6 -1 2 25 24 21 21 4 0.71727834D-02 0.18739259D+00 0.44308830D+05 0.44308830D+05 0.44308830D+05 0.11975144D+01  1  2  6  3  6  5       21 0.314361854069D+00 0.100000000000D+01
0.249848204777D-08 0.000000000000D+00 0.000000000000D+00 0.134419031184D-05 0.261110481049D-06  6 -1 2 25 24 21 21 4 0.71727834D-02 0.18739259D+00 0.44202636D+05 0.44202636D+05 0.44202636D+05 0.11976190D+01  1  2 11  3  6  5       21 0.116035183509D-05 0.100000000000D+01
0.163953922597D-05 0.000000000000D+00 0.000000000000D+00 0.134442520285D-05 0.000000000000D+00  6 -1 2 25 24 1 -1 4 0.71727834D-02 0.18739259D+00 0.44202636D+05 0.44202636D+05 0.44202636D+05 0.11976190D+01  1  2 12  6  6  5       21 0.761439271198D-03 0.100000000000D+01
0.175211009330D-05 0.000000000000D+00 0.000000000000D+00 0.134442520285D-05 0.000000000000D+00  6 -1 2 25 24 1 -1 4 0.71727834D-02 0.18739259D+00 0.44202636D+05 0.44202636D+05 0.44202636D+05 0.11976190D+01  1  2 12  6  6  5       21 0.813719739892D-03 0.100000000000D+01
-.319533585840D-05 0.000000000000D+00 0.000000000000D+00 0.134419031184D-05 0.000000000000D+00  6 -1 2 25 24 1 -1 4 0.71727834D-02 0.18739259D+00 0.44308830D+05 0.44308830D+05 0.44308830D+05 0.11975144D+01  1  2  5  6  6  5       21 -.148347521788D-02 0.100000000000D+01
0.140968708679D-10 0.000000000000D+00 0.000000000000D+00 0.134419031184D-05 0.290477546453D-08  6 -1 2 25 24 1 -1 4 0.71727834D-02 0.18739259D+00 0.44202636D+05 0.44202636D+05 0.44202636D+05 0.11976190D+01  1  2 11  6  6  5       21 0.654690714916D-08 0.100000000000D+01
0.163953922597D-05 0.000000000000D+00 0.000000000000D+00 0.134442520285D-05 0.000000000000D+00  6 -1 2 25 24 2 -2 4 0.71727834D-02 0.18739259D+00 0.44202636D+05 0.44202636D+05 0.44202636D+05 0.11976190D+01  1  2 12  7  6  5       21 0.761439271198D-03 0.100000000000D+01
0.175211009330D-05 0.000000000000D+00 0.000000000000D+00 0.134442520285D-05 0.000000000000D+00  6 -1 2 25 24 2 -2 4 0.71727834D-02 0.18739259D+00 0.44202636D+05 0.44202636D+05 0.44202636D+05 0.11976190D+01  1  2 12  7  6  5       21 0.813719739892D-03 0.100000000000D+01
-.319533585840D-05 0.000000000000D+00 0.000000000000D+00 0.134419031184D-05 0.000000000000D+00  6 -1 2 25 24 2 -2 4 0.71727834D-02 0.18739259D+00 0.44308830D+05 0.44308830D+05 0.44308830D+05 0.11975144D+01  1  2  5  7  6  5       21 -.148347521788D-02 0.100000000000D+01
0.361638794698D-10 0.000000000000D+00 0.000000000000D+00 0.134419031184D-05 0.101523669136D-08  6 -1 2 25 24 2 -2 4 0.71727834D-02 0.18739259D+00 0.44202636D+05 0.44202636D+05 0.44202636D+05 0.11976190D+01  1  2 11  7  6  5       21 0.167953273645D-07 0.100000000000D+01
0.163953922597D-05 0.000000000000D+00 0.000000000000D+00 0.134442520285D-05 0.000000000000D+00  6 -1 2 25 24 3 -3 4 0.71727834D-02 0.18739259D+00 0.44202636D+05 0.44202636D+05 0.44202636D+05 0.11976190D+01  1  2 12  8  6  5       21 0.761439271198D-03 0.100000000000D+01
0.163953922597D-05 0.000000000000D+00 0.000000000000D+00 0.134442520285D-05 0.000000000000D+00  6 -1 2 25 24 4 -4 4 0.71727834D-02 0.18739259D+00 0.44202636D+05 0.44202636D+05 0.44202636D+05 0.11976190D+01  1  2 12  8  6  5       21 0.761439271198D-03 0.100000000000D+01
0.175211009330D-05 0.000000000000D+00 0.000000000000D+00 0.134442520285D-05 0.000000000000D+00  6 -1 2 25 24 3 -3 4 0.71727834D-02 0.18739259D+00 0.44202636D+05 0.44202636D+05 0.44202636D+05 0.11976190D+01  1  2 12  8  6  5       21 0.813719739892D-03 0.100000000000D+01
0.175211009330D-05 0.000000000000D+00 0.000000000000D+00 0.134442520285D-05 0.000000000000D+00  6 -1 2 25 24 4 -4 4 0.71727834D-02 0.18739259D+00 0.44202636D+05 0.44202636D+05 0.44202636D+05 0.11976190D+01  1  2 12  8  6  5       21 0.813719739892D-03 0.100000000000D+01
-.319533585840D-05 0.000000000000D+00 0.000000000000D+00 0.134419031184D-05 0.000000000000D+00  6 -1 2 25 24 3 -3 4 0.71727834D-02 0.18739259D+00 0.44308830D+05 0.44308830D+05 0.44308830D+05 0.11975144D+01  1  2  5  8  6  5       21 -.148347521788D-02 0.100000000000D+01
-.319533585840D-05 0.000000000000D+00 0.000000000000D+00 0.134419031184D-05 0.000000000000D+00  6 -1 2 25 24 4 -4 4 0.71727834D-02 0.18739259D+00 0.44308830D+05 0.44308830D+05 0.44308830D+05 0.11975144D+01  1  2  5  8  6  5       21 -.148347521788D-02 0.100000000000D+01
0.360724104098D-10 0.000000000000D+00 0.000000000000D+00 0.134419031184D-05 0.101083358624D-08  6 -1 2 25 24 3 -3 4 0.71727834D-02 0.18739259D+00 0.44202636D+05 0.44202636D+05 0.44202636D+05 0.11976190D+01  1  2 11  8  6  5       21 0.167528470547D-07 0.100000000000D+01
0.360724104098D-10 0.000000000000D+00 0.000000000000D+00 0.134419031184D-05 0.101083358624D-08  6 -1 2 25 24 4 -4 4 0.71727834D-02 0.18739259D+00 0.44202636D+05 0.44202636D+05 0.44202636D+05 0.11976190D+01  1  2 11  8  6  5       21 0.167528470547D-07 0.100000000000D+01
  </mgrwgt>
  </event>
  <event>
  5     66 -.43135346E-03 0.28643044E+02 0.75467711E-02 0.11103473E+00
       -1 -1    0    0    0  501 0.00000000E+00 0.00000000E+00 0.17004005E+03 0.17004035E+03 0.32000000E+00 0.0000E+00 0.9000E+01
        2 -1    0    0  502    0 -.00000000E+00 -.00000000E+00 -.43286908E+03 0.43286920E+03 0.32000000E+00 0.0000E+00 0.9000E+01
       25  1    1    2    0    0 -.22790031E+03 0.86698711E+01 -.10902711E+03 0.28200288E+03 0.12500000E+03 0.0000E+00 0.9000E+01
       24  1    1    2    0    0 0.20410817E+03 -.24613875E+02 -.17786284E+03 0.28349320E+03 0.80419002E+02 0.0000E+00 0.9000E+01
       21  1    1    2  502  501 0.23792137E+02 0.15944004E+02 0.24060916E+02 0.37413463E+02 0.75000000E+00 0.0000E+00 0.9000E+01
#aMCatNLO 1  0  0  5  1 0.94927107D+01 0.00000000D+00  -5  6  0 0.00000000D+00 0.00000000D+00 0.00000000D+00 0.00000000D+00 0.00000000D+00
  <mgrwgt>
 -.1162877468D+00    1    2    0
 0.271302791407755D+03 0.000000000000000D+00 0.000000000000000D+00 0.271302791407755D+03
 0.271302791407755D+03 -.000000000000000D+00 -.000000000000000D+00 -.271302791407755D+03
 0.260533988678787D+03 -.227901440560916D+03 0.866911097999859D+01 0.154511864254519D+02
 0.228845898424216D+03 0.204107172995910D+03 -.246145424098052D+02 -.603126479669871D+02
 0.532256957125073D+02 0.237942675650064D+02 0.159454314298066D+02 0.448614615415352D+02
 0.000000000000000D+00 0.000000000000000D+00 -.000000000000000D+00 0.000000000000000D+00
 0.271302791407755D+03 0.000000000000000D+00 0.000000000000000D+00 0.271302791407755D+03
 0.271302791407755D+03 -.000000000000000D+00 -.000000000000000D+00 -.271302791407755D+03
 0.258615444610645D+03 -.225227894323046D+03 0.104607546224811D+02 0.204918623530482D+02
 0.229667886701158D+03 0.206468454212122D+03 -.230321592741726D+02 -.558607132234428D+02
 0.137751171544138D+02 0.533764532626130D+01 0.123652926107933D+02 -.289187372447784D+01
 0.405471343492939D+02 0.134217947846633D+02 0.206112040898121D+00 0.382607245948723D+02
-.555074333486D-03 0.000000000000D+00 0.000000000000D+00 0.187026535292D-04 0.000000000000D+00  6 -1 2 25 24 21 21 4 0.26160039D-01 0.66595275D-01 0.64890835D+05 0.64890835D+05 0.64890835D+05 0.11812297D+01  1  2 14  3  6  5       21 -.116287746816D+00 0.100000000000D+01
  </mgrwgt>
  </event>
  <event>
  6     66 0.43135346E-03 0.65018548E+02 0.75467711E-02 0.11340948E+00
       -1 -1    0    0    0  503 0.00000000E+00 0.00000000E+00 0.12177412E+04 0.12177412E+04 0.32000000E+00 0.0000E+00 0.9000E+01
        2 -1    0    0  502    0 0.00000000E+00 0.00000000E+00 -.66040861E+02 0.66041636E+02 0.32000000E+00 0.0000E+00 0.9000E+01
       25  1    1    2    0    0 -.68089172E+02 0.60473235E+02 0.93063392E+02 0.18049638E+03 0.12500000E+03 0.0000E+00 0.9000E+01
       24  1    1    2    0    0 0.13374591E+03 -.11943797E+03 0.54992578E+03 0.58398543E+03 0.80419002E+02 0.0000E+00 0.9000E+01
       21  1    1    2  502  501 -.54392930E+02 0.48329391E+02 0.25672813E+03 0.26684118E+03 0.75000000E+00 0.0000E+00 0.9000E+01
       21  1    1    2  501  503 -.11263812E+02 0.10635342E+02 0.25198303E+03 0.25245989E+03 0.75000000E+00 0.0000E+00 0.9000E+01
#aMCatNLO 2  0  0  1  5 0.15491416D+02 0.00000000D+00  -5  6  0 0.00000000D+00 0.00000000D+00 0.00000000D+00 0.00000000D+00 0.00000000D+00
  <mgrwgt>
 0.1615590329D+00    2    2    0
 0.251940415868900D+03 0.000000000000000D+00 0.000000000000000D+00 0.251940415868900D+03
 0.251940415868900D+03 0.000000000000000D+00 0.000000000000000D+00 -.251940415868900D+03
 0.206059407400523D+03 -.726612175022082D+02 0.647902238528448D+02 -.131749966764510D+03
 0.207833692043495D+03 0.129041441266679D+03 -.114995939771237D+03 0.827760102083213D+02
 0.899877322937830D+02 -.563802237644708D+02 0.502057159183920D+02 0.489739565561889D+02
 0.000000000000000D+00 -.000000000000000D+00 0.000000000000000D+00 0.000000000000000D+00
 0.317901952666090D+03 0.000000000000000D+00 0.000000000000000D+00 0.317901952666090D+03
 0.252970660218060D+03 0.000000000000000D+00 0.000000000000000D+00 -.252970660218060D+03
 0.203164973054857D+03 -.680883724423295D+02 0.604725232819488D+02 -.131749966764510D+03
 0.213243702563840D+03 0.133746736883754D+03 -.119438700745215D+03 0.827760102083213D+02
 0.877102355049889D+02 -.543945520571916D+02 0.483308358925293D+02 0.489739565561889D+02
 0.667537017604646D+02 -.112638123842324D+02 0.106353415707367D+02 0.649312924480302D+02
-.952206220426D-02 0.000000000000D+00 0.000000000000D+00 0.229903971422D-05 0.000000000000D+00  6 -1 2 25 24 21 21 4 0.19132843D+00 0.10118733D-01 0.48275177D+05 0.48275177D+05 0.48275177D+05 0.11937946D+01  1  2 13  1  6  1       -1 -.267756503372D+00 0.100000000000D+01
0.144173854596D-01 0.000000000000D+00 0.000000000000D+00 0.231054288142D-05 0.627051477471D-07  6 -1 2 25 24 21 21 4 0.18734331D+00 0.10160111D-01 0.48275177D+05 0.48275177D+05 0.48275177D+05 0.11937946D+01  1  2  1  1  6  1       -1 0.429315536236D+00 0.100000000000D+01
  </mgrwgt>
  </event>
  <event>
  5     66 0.43135346E-03 0.47008567E+02 0.75467711E-02 0.11239948E+00
       -1 -1    0    0    0  501 0.00000000E+00 0.00000000E+00 0.85019013E+02 0.85019616E+02 0.32000000E+00 0.0000E+00 0.9000E+01
        2 -1    0    0  502    0 0.00000000E+00 0.00000000E+00 -.36716243E+03 0.36716257E+03 0.32000000E+00 0.0000E+00 0.9000E+01
       25  1    1    2    0    0 0.82208520E+02 0.21695707E+02 -.13869771E+03 0.20516091E+03 0.12500000E+03 0.0000E+00 0.9000E+01
       24  1    1    2    0    0 -.12919313E+03 -.23028136E+02 -.11429124E+03 0.19170514E+03 0.80419002E+02 0.0000E+00 0.9000E+01
       21  1    1    2  502  501 0.46984607E+02 0.13324297E+01 -.29154466E+02 0.55316128E+02 0.75000000E+00 0.0000E+00 0.9000E+01
#aMCatNLO 1  0  0  2  1 0.37610768D+02 0.00000000D+00  -5  6  0 0.00000000D+00 0.00000000D+00 0.00000000D+00 0.00000000D+00 0.00000000D+00
  <mgrwgt>
 0.2291586033D+00    3    2    0
 0.176680375040257D+03 0.000000000000000D+00 0.000000000000000D+00 0.176680375040257D+03
 0.176680375040257D+03 0.000000000000000D+00 0.000000000000000D+00 -.176680375040257D+03
 0.151791022152836D+03 0.822060043553969D+02 0.216956353941408D+02 -.136743065260230D+02
 0.154063190673627D+03 -.129195679799068D+03 -.230282088801595D+02 0.681385964018655D+01
 0.475065372540515D+02 0.469896754436712D+02 0.133257348601875D+01 0.686044688583644D+01
 0.000000000000000D+00 -.000000000000000D+00 0.000000000000000D+00 0.000000000000000D+00
 0.384239702701890D+03 0.000000000000000D+00 0.000000000000000D+00 0.384239702701890D+03
 0.196533368544981D+03 0.000000000000000D+00 0.000000000000000D+00 -.196533368544981D+03
 0.175289261566522D+03 0.122120613385020D+03 -.945699759714266D+00 -.136743065260230D+02
 0.131336810278020D+03 -.943674433627401D+02 -.427843280842177D+02 0.681385964018655D+01
 0.609249848735179D+02 0.602219062678391D+02 -.617333425570077D+01 0.686044688583644D+01
 0.213222014528811D+03 -.879750762901191D+02 0.499033620996327D+02 0.187706334156909D+03
0.343774428353D-03 0.000000000000D+00 0.000000000000D+00 0.862046386469D-05 0.000000000000D+00  6 -1 2 25 24 21 21 2 0.13079905D-01 0.56486584D-01 0.30992693D+05 0.30992693D+05 0.30992693D+05 0.12134174D+01  1  2  2  2  6  2        2 0.197693099384D+00 0.100000000000D+01
0.264844736313D-04 0.181414749931D-04 -.132018432276D-05 0.862046386469D-05 0.000000000000D+00  6 -1 2 25 24 21 21 4 0.13079905D-01 0.56486584D-01 0.30992693D+05 0.30992693D+05 0.30992693D+05 0.12134174D+01  1  2  3  2  6  2        2 0.224248574024D-01 0.100000000000D+01
0.106772926667D-04 0.000000000000D+00 0.000000000000D+00 0.862046386469D-05 0.000000000000D+00  6 -1 2 25 24 21 21 4 0.13079905D-01 0.56486584D-01 0.30992693D+05 0.30992693D+05 0.30992693D+05 0.12134174D+01  1  2 15  2  6  2        2 0.904064656247D-02 0.100000000000D+01
  </mgrwgt>
  </event>
  <event>
  5     66 0.43135346E-03 0.26224833E+02 0.75467711E-02 0.11208815E+00
       -1 -1    0    0    0  501 0.00000000E+00 0.00000000E+00 0.61195399E+03 0.61195407E+03 0.32000000E+00 0.0000E+00 0.9000E+01
        2 -1    0    0  502    0 0.00000000E+00 0.00000000E+00 -.13218928E+03 0.13218967E+03 0.32000000E+00 0.0000E+00 0.9000E+01
       25  1    1    2    0    0 -.16372282E+03 -.88911203E+02 0.44328472E+02 0.22869276E+03 0.12500000E+03 0.0000E+00 0.9000E+01
       24  1    1    2    0    0 0.17977197E+03 0.10965006E+03 0.28811535E+03 0.36581248E+03 0.80419002E+02 0.0000E+00 0.9000E+01
       21  1    1    2  502  501 -.16049153E+02 -.20738861E+02 0.14732089E+03 0.14963851E+03 0.75000000E+00 0.0000E+00 0.9000E+01
#aMCatNLO 1  0  0  5  2 0.44553866D+01 0.00000000D+00  -5  6  0 0.00000000D+00 0.00000000D+00 0.00000000D+00 0.00000000D+00 0.00000000D+00
  <mgrwgt>
 0.7904358641D+00   25    2    0
 0.284418586046132D+03 0.000000000000000D+00 0.000000000000000D+00 0.284418586046132D+03
 0.284418586046132D+03 -.000000000000000D+00 -.000000000000000D+00 -.284418586046132D+03
 0.261785447296641D+03 -.163722411110912D+03 -.889106781814809D+02 -.134894343178805D+03
 0.235549868581299D+03 0.179772336414056D+03 0.109650537020216D+03 0.683753714849592D+02
 0.715018562143241D+02 -.160499253031442D+02 -.207398588387352D+02 0.665189716938461D+02
 0.000000000000000D+00 0.000000000000000D+00 0.000000000000000D+00 0.000000000000000D+00
 0.284418586046132D+03 0.000000000000000D+00 0.000000000000000D+00 0.284418586046132D+03
 0.284418586046132D+03 -.000000000000000D+00 -.000000000000000D+00 -.284418586046132D+03
 0.261696465001785D+03 -.163805700863316D+03 -.890183059538820D+02 -.134549148507931D+03
 0.235537987091576D+03 0.179697382934408D+03 0.109553681454971D+03 0.686860164441671D+02
 0.554481490621597D+02 -.163340552717532D+02 -.175741649259775D+02 0.499884446642755D+02
 0.161545709367436D+02 0.442373200661809D+00 -.296121057511140D+01 0.158746873994881D+02
0.150507378847D-02 0.000000000000D+00 0.000000000000D+00 0.198331608306D-04 0.000000000000D+00  6 -1 2 25 24 21 21 2 0.94146804D-01 0.20336848D-01 0.56640974D+05 0.56640974D+05 0.56640974D+05 0.11869549D+01  1  2  2  3  6  5       21 0.761296460115D-01 0.100000000000D+01
0.338073073874D-03 0.794249258942D-04 -.577987964276D-05 0.198331608306D-04 0.000000000000D+00  6 -1 2 25 24 21 21 4 0.94146804D-01 0.20336848D-01 0.56640974D+05 0.56640974D+05 0.56640974D+05 0.11869549D+01  1  2  3  3  6  5       21 0.240921195119D-01 0.100000000000D+01
0.176650727705D-04 0.000000000000D+00 0.000000000000D+00 0.198331608306D-04 0.000000000000D+00  6 -1 2 25 24 21 21 4 0.94146804D-01 0.20336848D-01 0.56640974D+05 0.56640974D+05 0.56640974D+05 0.11869549D+01  1  2 15  3  6  5       21 0.125886702391D-02 0.100000000000D+01
0.184736004282D-02 0.000000000000D+00 0.000000000000D+00 0.198286470311D-04 0.000000000000D+00  6 -1 2 25 24 21 21 4 0.94146804D-01 0.20336848D-01 0.56821651D+05 0.56821651D+05 0.56821651D+05 0.11868198D+01  1  2 12  3  6  5       21 0.131586035485D+00 0.100000000000D+01
0.201926711220D-02 0.000000000000D+00 0.000000000000D+00 0.198286470311D-04 0.000000000000D+00  6 -1 2 25 24 21 21 4 0.94146804D-01 0.20336848D-01 0.56821651D+05 0.56821651D+05 0.56821651D+05 0.11868198D+01  1  2 12  3  6  5       21 0.143830843864D+00 0.100000000000D+01
-.483572600508D-01 0.000000000000D+00 0.000000000000D+00 0.198331608306D-04 0.000000000000D+00  6 -1 2 25 24 21 21 4 0.94146804D-01 0.20336848D-01 0.56640974D+05 0.56640974D+05 0.56640974D+05 0.11869549D+01  1  2  4  3  6  5       21 -.344608600460D+01 0.100000000000D+01
-.302237888504D-01 0.000000000000D+00 0.000000000000D+00 0.198331608306D-04 0.000000000000D+00  6 -1 2 25 24 21 21 4 0.94146804D-01 0.20336848D-01 0.56640974D+05 0.56640974D+05 0.56640974D+05 0.11869549D+01  1  2  5  3  6  5       21 -.215383947838D+01 0.100000000000D+01
0.420034409552D-01 0.000000000000D+00 -.000000000000D+00 0.198331608306D-04 0.000000000000D+00  6 -1 2 25 24 21 21 4 0.94146804D-01 0.20336848D-01 0.56640974D+05 0.56640974D+05 0.56640974D+05 0.11869549D+01  1  2  6  3  6  5       21 0.299329345519D+01 0.100000000000D+01
0.420376363537D-01 0.000000000000D+00 0.000000000000D+00 0.198331608306D-04 0.161655065623D-04  6 -1 2 25 24 21 21 4 0.94146804D-01 0.20336848D-01 0.56821651D+05 0.56821651D+05 0.56821651D+05 0.11868198D+01  1  2 11  3  6  5       21 0.299430851634D+01 0.100000000000D+01
0.413426360684D-04 0.000000000000D+00 0.000000000000D+00 0.198286470311D-04 0.000000000000D+00  6 -1 2 25 24 1 -1 4 0.94146804D-01 0.20336848D-01 0.56821651D+05 0.56821651D+05 0.56821651D+05 0.11868198D+01  1  2 12  6  6  5       21 0.294480418038D-02 0.100000000000D+01
0.440414129476D-04 0.000000000000D+00 0.000000000000D+00 0.198286470311D-04 0.000000000000D+00  6 -1 2 25 24 1 -1 4 0.94146804D-01 0.20336848D-01 0.56821651D+05 0.56821651D+05 0.56821651D+05 0.11868198D+01  1  2 12  6  6  5       21 0.313703598249D-02 0.100000000000D+01
-.326406731311D-03 0.000000000000D+00 0.000000000000D+00 0.198331608306D-04 0.000000000000D+00  6 -1 2 25 24 1 -1 4 0.94146804D-01 0.20336848D-01 0.56640974D+05 0.56640974D+05 0.56640974D+05 0.11869549D+01  1  2  5  6  6  5       21 -.232607403190D-01 0.100000000000D+01
0.245783290305D-03 0.000000000000D+00 0.000000000000D+00 0.198331608306D-04 0.174268258283D-06  6 -1 2 25 24 1 -1 4 0.94146804D-01 0.20336848D-01 0.56821651D+05 0.56821651D+05 0.56821651D+05 0.11868198D+01  1  2 11  6  6  5       21 0.175069547950D-01 0.100000000000D+01
0.413426360684D-04 0.000000000000D+00 0.000000000000D+00 0.198286470311D-04 0.000000000000D+00  6 -1 2 25 24 2 -2 4 0.94146804D-01 0.20336848D-01 0.56821651D+05 0.56821651D+05 0.56821651D+05 0.11868198D+01  1  2 12  7  6  5       21 0.294480418038D-02 0.100000000000D+01
0.440414129476D-04 0.000000000000D+00 0.000000000000D+00 0.198286470311D-04 0.000000000000D+00  6 -1 2 25 24 2 -2 4 0.94146804D-01 0.20336848D-01 0.56821651D+05 0.56821651D+05 0.56821651D+05 0.11868198D+01  1  2 12  7  6  5       21 0.313703598249D-02 0.100000000000D+01
-.326406731311D-03 0.000000000000D+00 0.000000000000D+00 0.198331608306D-04 0.000000000000D+00  6 -1 2 25 24 2 -2 4 0.94146804D-01 0.20336848D-01 0.56640974D+05 0.56640974D+05 0.56640974D+05 0.11869549D+01  1  2  5  7  6  5       21 -.232607403190D-01 0.100000000000D+01
0.360807487363D-03 0.000000000000D+00 0.000000000000D+00 0.198331608306D-04 0.158722755867D-06  6 -1 2 25 24 2 -2 4 0.94146804D-01 0.20336848D-01 0.56821651D+05 0.56821651D+05 0.56821651D+05 0.11868198D+01  1  2 11  7  6  5       21 0.257000399137D-01 0.100000000000D+01
0.413426360684D-04 0.000000000000D+00 0.000000000000D+00 0.198286470311D-04 0.000000000000D+00  6 -1 2 25 24 3 -3 4 0.94146804D-01 0.20336848D-01 0.56821651D+05 0.56821651D+05 0.56821651D+05 0.11868198D+01  1  2 12  8  6  5       21 0.294480418038D-02 0.100000000000D+01
0.413426360684D-04 0.000000000000D+00 0.000000000000D+00 0.198286470311D-04 0.000000000000D+00  6 -1 2 25 24 4 -4 4 0.94146804D-01 0.20336848D-01 0.56821651D+05 0.56821651D+05 0.56821651D+05 0.11868198D+01  1  2 12  8  6  5       21 0.294480418038D-02 0.100000000000D+01
0.440414129476D-04 0.000000000000D+00 0.000000000000D+00 0.198286470311D-04 0.000000000000D+00  6 -1 2 25 24 3 -3 4 0.94146804D-01 0.20336848D-01 0.56821651D+05 0.56821651D+05 0.56821651D+05 0.11868198D+01  1  2 12  8  6  5       21 0.313703598249D-02 0.100000000000D+01
0.440414129476D-04 0.000000000000D+00 0.000000000000D+00 0.198286470311D-04 0.000000000000D+00  6 -1 2 25 24 4 -4 4 0.94146804D-01 0.20336848D-01 0.56821651D+05 0.56821651D+05 0.56821651D+05 0.11868198D+01  1  2 12  8  6  5       21 0.313703598249D-02 0.100000000000D+01
-.326406731311D-03 0.000000000000D+00 0.000000000000D+00 0.198331608306D-04 0.000000000000D+00  6 -1 2 25 24 3 -3 4 0.94146804D-01 0.20336848D-01 0.56640974D+05 0.56640974D+05 0.56640974D+05 0.11869549D+01  1  2  5  8  6  5       21 -.232607403190D-01 0.100000000000D+01
-.326406731311D-03 0.000000000000D+00 0.000000000000D+00 0.198331608306D-04 0.000000000000D+00  6 -1 2 25 24 4 -4 4 0.94146804D-01 0.20336848D-01 0.56640974D+05 0.56640974D+05 0.56640974D+05 0.11869549D+01  1  2  5  8  6  5       21 -.232607403190D-01 0.100000000000D+01
0.360599635486D-03 0.000000000000D+00 0.000000000000D+00 0.198331608306D-04 0.158618045431D-06  6 -1 2 25 24 3 -3 4 0.94146804D-01 0.20336848D-01 0.56821651D+05 0.56821651D+05 0.56821651D+05 0.11868198D+01  1  2 11  8  6  5       21 0.256852347843D-01 0.100000000000D+01
0.360599635486D-03 0.000000000000D+00 0.000000000000D+00 0.198331608306D-04 0.158618045431D-06  6 -1 2 25 24 4 -4 4 0.94146804D-01 0.20336848D-01 0.56821651D+05 0.56821651D+05 0.56821651D+05 0.11868198D+01  1  2 11  8  6  5       21 0.256852347843D-01 0.100000000000D+01
  </mgrwgt>
  </event>
  <event>
  6     66 -.43135346E-03 0.11274204E+02 0.75467711E-02 0.12128277E+00
       -1 -1    0    0    0  501 0.00000000E+00 0.00000000E+00 0.63963626E+01 0.64043622E+01 0.32000000E+00 0.0000E+00 0.9000E+01
        2 -1    0    0  502    0 -.00000000E+00 -.00000000E+00 -.45383341E+04 0.45383341E+04 0.32000000E+00 0.0000E+00 0.9000E+01
       25  1    1    2    0    0 -.59325366E+02 0.37941314E+02 -.24139985E+04 0.24182582E+04 0.12500000E+03 0.0000E+00 0.9000E+01
       24  1    1    2    0    0 0.55912132E+02 -.57045659E+02 -.18586999E+04 0.18621527E+04 0.80419002E+02 0.0000E+00 0.9000E+01
       21  1    1    2  502  503 -.58267414E+01 0.67548760E+01 -.63702256E+01 0.10987335E+02 0.75000000E+00 0.0000E+00 0.9000E+01
       21  1    1    2  503  501 0.92399748E+01 0.12349469E+02 -.25286911E+03 0.25334016E+03 0.75000000E+00 0.0000E+00 0.9000E+01
#aMCatNLO 2  0  0  5  2 0.15949987D+02 0.00000000D+00  -5  6  0 0.00000000D+00 0.00000000D+00 0.00000000D+00 0.00000000D+00 0.00000000D+00
  <mgrwgt>
 -.4273148954D-01    2    2    0
 0.170431904896144D+03 0.000000000000000D+00 0.000000000000000D+00 0.170431904896144D+03
 0.170431904896144D+03 -.000000000000000D+00 -.000000000000000D+00 -.170431904896144D+03
 0.148807557883882D+03 -.597359200901799D+02 0.356433842739144D+02 -.409860743649182D+02
 0.117835641151576D+03 0.555883063148033D+02 -.588581588568841D+02 -.293884281352698D+02
 0.742206107568292D+02 0.414761377537652D+01 0.232147745829696D+02 0.703745025001880D+02
 0.000000000000000D+00 0.000000000000000D+00 0.000000000000000D+00 -.000000000000000D+00
 0.170431904896144D+03 0.000000000000000D+00 0.000000000000000D+00 0.170431904896144D+03
 0.170431904896144D+03 -.000000000000000D+00 -.000000000000000D+00 -.170431904896144D+03
 0.147434610432586D+03 -.593201232754166D+02 0.379706572192285D+02 -.339310553672849D+02
 0.115814531497814D+03 0.559162508410962D+02 -.570226074613313D+02 -.238240399990042D+02
 0.616025051716426D+02 -.598505651743526D+01 0.648531455236023D+01 0.609671094694697D+02
 0.160121626902445D+02 0.938892895175570D+01 0.125666356897425D+02 -.321201410318059D+01
-.502601759047D-03 0.000000000000D+00 0.000000000000D+00 0.448514214031D-04 0.000000000000D+00  6 -1 2 25 24 21 21 4 0.98467201D-03 0.69820586D+00 0.19786122D+05 0.19786122D+05 0.19786122D+05 0.12343404D+01  1  2 13  3  6  5       21 -.425568831535D-01 0.100000000000D+01
-.206041347008D-05 0.000000000000D+00 0.000000000000D+00 0.448657873166D-04 0.000000000000D+00  6 -1 2 25 24 21 21 4 0.98467201D-03 0.69820586D+00 0.19704617D+05 0.19704617D+05 0.19704617D+05 0.12345381D+01  1  2  8  3  6  5       21 -.174606382406D-03 0.100000000000D+01
  </mgrwgt>
  </event>
  <event>
  5     66 0.43135346E-03 0.16611912E+03 0.75467711E-02 0.10878738E+00
       -3 -1    0    0    0  501 0.00000000E+00 0.00000000E+00 0.34913906E+04 0.34913906E+04 0.50000000E+00 0.0000E+00 0.9000E+01
        4 -1    0    0  502    0 0.00000000E+00 0.00000000E+00 -.37820835E+02 0.37852583E+02 0.15500000E+01 0.0000E+00 0.9000E+01
       25  1    1    2    0    0 -.58234713E+02 0.23817875E+03 0.10087537E+04 0.10456240E+04 0.12500000E+03 0.0000E+00 0.9000E+01
       24  1    1    2    0    0 0.75977725E+02 -.73010676E+02 0.20627122E+04 0.20669669E+04 0.80419002E+02 0.0000E+00 0.9000E+01
       21  1    1    2  502  501 -.17743012E+02 -.16516807E+03 0.38210378E+03 0.41665234E+03 0.75000000E+00 0.0000E+00 0.9000E+01
#aMCatNLO 1  0  0  5  2 0.17938916D+02 0.00000000D+00  -5  6  0 0.00000000D+00 0.00000000D+00 0.00000000D+00 0.00000000D+00 0.00000000D+00
  <mgrwgt>
 0.1684699203D-02    3    2    0
 0.363460304677161D+03 0.000000000000000D+00 0.000000000000000D+00 0.363460304677161D+03
 0.363460304677161D+03 -.000000000000000D+00 -.000000000000000D+00 -.363460304677161D+03
 0.284020164679370D+03 -.582346679752939D+02 0.238179167280077D+03 -.701559809572383D+02
 0.235387992136963D+03 0.759777626123729D+02 -.730103262516095D+02 0.194517769720280D+03
 0.207512452537989D+03 -.177430946370791D+02 -.165168841028468D+03 -.124361788763042D+03
 0.000000000000000D+00 0.000000000000000D+00 0.000000000000000D+00 0.000000000000000D+00
 0.363460304677161D+03 0.000000000000000D+00 0.000000000000000D+00 0.363460304677161D+03
 0.363460304677161D+03 -.000000000000000D+00 -.000000000000000D+00 -.363460304677161D+03
 0.276091213484125D+03 -.596485511961893D+02 0.225017458022389D+03 -.800659233911332D+02
 0.231959861965423D+03 0.747980413729948D+02 -.839922430947714D+02 0.186249074401244D+03
 0.243684106335831D+02 -.111733299954786D+02 0.216529219544299D+02 0.356517116614381D+00
 0.194501123271190D+03 -.397616018132697D+01 -.162678136882047D+03 -.106539668126726D+03
0.136900523020D-01 0.000000000000D+00 0.000000000000D+00 0.521213905276D-06 0.000000000000D+00  6 -3 4 25 24 21 21 2 0.53713946D+00 0.58210349D-02 0.82337855D+05 0.82337855D+05 0.82337855D+05 0.11714054D+01  1  2  2  3  6  5       21 0.184984704451D-02 0.100000000000D+01
-.108382910858D-02 0.722443908000D-03 -.525734055131D-04 0.521213905276D-06 0.000000000000D+00  6 -3 4 25 24 21 21 4 0.53713946D+00 0.58210349D-02 0.82337855D+05 0.82337855D+05 0.82337855D+05 0.11714054D+01  1  2  3  3  6  5       21 -.200958319171D-03 0.100000000000D+01
0.193136759060D-03 0.000000000000D+00 0.000000000000D+00 0.521213905276D-06 0.000000000000D+00  6 -3 4 25 24 21 21 4 0.53713946D+00 0.58210349D-02 0.82337855D+05 0.82337855D+05 0.82337855D+05 0.11714054D+01  1  2 15  3  6  5       21 0.358104780206D-04 0.100000000000D+01
  </mgrwgt>
  </event>
  <event>
  5     66 0.43135346E-03 0.65069889E+02 0.75467711E-02 0.11865214E+00
       -1 -1    0    0    0  501 0.00000000E+00 0.00000000E+00 0.14899330E+02 0.14902766E+02 0.32000000E+00 0.0000E+00 0.9000E+01
        2 -1    0    0  502    0 0.00000000E+00 0.00000000E+00 -.15884459E+04 0.15884459E+04 0.32000000E+00 0.0000E+00 0.9000E+01
       25  1    1    2    0    0 0.32900356E+02 0.86317807E+01 -.68267653E+03 0.69485911E+03 0.12500000E+03 0.0000E+00 0.9000E+01
       24  1    1    2    0    0 0.30809914E+02 0.45897428E+01 -.25270755E+03 0.26701805E+03 0.80419002E+02 0.0000E+00 0.9000E+01
       21  1    1    2  502  501 -.63710271E+02 -.13221524E+02 -.63816249E+03 0.64147153E+03 0.75000000E+00 0.0000E+00 0.9000E+01
#aMCatNLO 1  0  0  2  5 0.39419578D+02 0.00000000D+00  -5  6  0 0.00000000D+00 0.00000000D+00 0.00000000D+00 0.00000000D+00 0.00000000D+00
  <mgrwgt>
 0.3203629443D+00    7    4    0
 0.153849147185323D+03 0.000000000000000D+00 0.000000000000000D+00 0.153849147185323D+03
 0.153849147185323D+03 0.000000000000000D+00 0.000000000000000D+00 -.153849147185323D+03
 0.129601733959322D+03 0.329015642113075D+02 0.863203136246752D+01 -.381897267198456D+01
 0.990455010928634D+02 0.308108372115998D+02 0.458993435008802D+01 0.487074957819435D+02
 0.790510593184620D+02 -.637124014229073D+02 -.132219657125555D+02 -.448885231099590D+02
 0.000000000000000D+00 0.000000000000000D+00 0.000000000000000D+00 -.000000000000000D+00
 0.168620471622577D+03 0.000000000000000D+00 0.000000000000000D+00 0.168620471622577D+03
 0.183852829647371D+03 0.000000000000000D+00 0.000000000000000D+00 -.183852829647371D+03
 0.126838583265050D+03 0.210151707744552D+02 -.260849568449238D+01 -.381897267198456D+01
 0.965830299016612D+02 0.217431613014977D+02 -.398503474058352D+01 0.487074957819435D+02
 0.867914482876412D+02 -.713994504614388D+02 -.204913265231297D+02 -.448885231099590D+02
 0.422602398155958D+02 0.286411183854859D+02 0.270848569482056D+02 -.152323580247935D+02
 0.153849147185323D+03 0.000000000000000D+00 0.000000000000000D+00 0.153849147185323D+03
 0.153849147185323D+03 0.000000000000000D+00 0.000000000000000D+00 -.153849147185323D+03
 0.129601733959322D+03 0.329015642113075D+02 0.863203136246752D+01 -.381897267198456D+01
 0.990455010928634D+02 0.308108372115998D+02 0.458993435008802D+01 0.487074957819435D+02
 0.000000000000000D+00 0.000000000000000D+00 0.000000000000000D+00 -.000000000000000D+00
 0.790510593184620D+02 -.637124014229073D+02 -.132219657125555D+02 -.448885231099590D+02
 0.168620471622577D+03 0.000000000000000D+00 0.000000000000000D+00 0.168620471622577D+03
 0.183852829647371D+03 0.000000000000000D+00 0.000000000000000D+00 -.183852829647371D+03
 0.126838583265050D+03 0.210151707744552D+02 -.260849568449238D+01 -.381897267198456D+01
 0.965830299016612D+02 0.217431613014977D+02 -.398503474058352D+01 0.487074957819435D+02
 0.422602398155958D+02 0.286411183854859D+02 0.270848569482056D+02 -.152323580247935D+02
 0.867914482876412D+02 -.713994504614388D+02 -.204913265231297D+02 -.448885231099590D+02
0.111206480793D-03 0.000000000000D+00 0.000000000000D+00 0.656918412776D-05 0.000000000000D+00  6 -1 2 25 24 21 21 2 0.22924714D-02 0.24437656D+00 0.19720137D+05 0.19720137D+05 0.19720137D+05 0.12345004D+01  1  2  2  2  6  2        2 0.130052164495D+00 0.100000000000D+01
-.488629821979D-05 0.586852722010D-05 -.427062167582D-06 0.656918412776D-05 0.000000000000D+00  6 -1 2 25 24 21 21 4 0.22924714D-02 0.24437656D+00 0.19720137D+05 0.19720137D+05 0.19720137D+05 0.12345004D+01  1  2  3  2  6  2        2 -.870863145970D-02 0.100000000000D+01
0.497287706219D-05 0.000000000000D+00 0.000000000000D+00 0.656918412776D-05 0.000000000000D+00  6 -1 2 25 24 21 21 4 0.22924714D-02 0.24437656D+00 0.19720137D+05 0.19720137D+05 0.19720137D+05 0.12345004D+01  1  2 15  2  6  2        2 0.886293707035D-02 0.100000000000D+01
-.533682249939D-04 0.000000000000D+00 0.000000000000D+00 0.656918412776D-05 0.000000000000D+00  6 -1 2 25 24 21 21 4 0.22924714D-02 0.24437656D+00 0.19720137D+05 0.19720137D+05 0.19720137D+05 0.12345004D+01  1  2  4  2  6  2        2 -.951158079643D-01 0.100000000000D+01
-.390808104827D-03 0.000000000000D+00 -.109102147539D-03 0.656918412776D-05 0.000000000000D+00  6 -1 2 25 24 21 21 4 0.22924714D-02 0.30510939D+00 0.19720137D+05 0.19720137D+05 0.19720137D+05 0.12345004D+01  1  2  5  2  6  2        2 -.437094699193D+00 0.100000000000D+01
0.407576689392D-03 0.000000000000D+00 0.106468704359D-03 0.656918412776D-05 0.000000000000D+00  6 -1 2 25 24 21 21 4 0.22924714D-02 0.24437656D+00 0.19720137D+05 0.19720137D+05 0.19720137D+05 0.12345004D+01  1  2  6  2  6  2        2 0.726405761543D+00 0.100000000000D+01
-.106043013206D-04 0.000000000000D+00 -.337926885782D-05 0.656918412776D-05 0.000000000000D+00  6 -1 21 25 24 -2 21 4 0.22924714D-02 0.30510939D+00 0.19720137D+05 0.19720137D+05 0.19720137D+05 0.12345004D+01  3  4  5  5  5  2        2 -.403878021199D-02 0.100000000000D+01
  </mgrwgt>
  </event>
  <event>
  5     66 0.43135346E-03 0.37048562E+02 0.75467711E-02 0.12307384E+00
       -1 -1    0    0    0  501 0.00000000E+00 0.00000000E+00 0.11603407E+02 0.11607819E+02 0.32000000E+00 0.0000E+00 0.9000E+01
        2 -1    0    0  502    0 -.00000000E+00 -.00000000E+00 -.16602673E+04 0.16602673E+04 0.32000000E+00 0.0000E+00 0.9000E+01
       25  1    1    2    0    0 -.13683691E+02 -.75696850E+01 -.66799599E+03 0.67977069E+03 0.12500000E+03 0.0000E+00 0.9000E+01
       24  1    1    2    0    0 0.11172746E+02 0.44530252E+02 -.41415699E+03 0.42438309E+03 0.80419002E+02 0.0000E+00 0.9000E+01
       21  1    1    2  502  501 0.25109449E+01 -.36960567E+02 -.56651086E+03 0.56772133E+03 0.75000000E+00 0.0000E+00 0.9000E+01
#aMCatNLO 1  0  0  5  1 0.15981579D+02 0.00000000D+00  -5  6  0 0.00000000D+00 0.00000000D+00 0.00000000D+00 0.00000000D+00 0.00000000D+00
  <mgrwgt>
 0.5337299658D+00    9    2    0
 0.138810918536007D+03 0.000000000000000D+00 0.000000000000000D+00 0.138810918536007D+03
 0.138810918536007D+03 -.000000000000000D+00 -.000000000000000D+00 -.138810918536007D+03
 0.126758324500721D+03 -.136837989701412D+02 -.756809586678545D+01 0.140765905291767D+02
 0.962103977638183D+02 0.111726641571431D+02 0.445314579081951D+02 0.261025959571830D+02
 0.546531148074750D+02 0.251113481299812D+01 -.369633620414097D+02 -.401791864863597D+02
 0.000000000000000D+00 0.000000000000000D+00 0.000000000000000D+00 0.000000000000000D+00
 0.138810918536007D+03 0.000000000000000D+00 0.000000000000000D+00 0.138810918536007D+03
 0.138810918536007D+03 -.000000000000000D+00 -.000000000000000D+00 -.138810918536007D+03
 0.126828653827971D+03 -.130827632944488D+02 -.164152111890796D+02 0.445977331426646D+01
 0.916763131721872D+02 0.116179812511252D+02 0.379764864734126D+02 0.189773398888678D+02
 0.417792479856504D+02 0.928989855420681D+01 -.154968489377162D+02 -.376702936025275D+02
 0.173376220862063D+02 -.782511651088325D+01 -.606442634661687D+01 0.142331803993932D+02
0.159044864412D-03 0.000000000000D+00 0.000000000000D+00 0.200527313033D-04 0.000000000000D+00  6 -1 2 25 24 21 21 2 0.17854813D-02 0.25542607D+00 0.16335992D+05 0.16335992D+05 0.16335992D+05 0.12436203D+01  1  2  2  3  6  5       21 0.247777658283D+00 0.100000000000D+01
0.542555700139D-05 0.839302808043D-05 -.610774156815D-06 0.200527313033D-04 0.000000000000D+00  6 -1 2 25 24 21 21 4 0.17854813D-02 0.25542607D+00 0.16335992D+05 0.16335992D+05 0.16335992D+05 0.12436203D+01  1  2  3  3  6  5       21 0.130726139593D-01 0.100000000000D+01
0.236439141592D-05 0.000000000000D+00 0.000000000000D+00 0.200527313033D-04 0.000000000000D+00  6 -1 2 25 24 21 21 4 0.17854813D-02 0.25542607D+00 0.16335992D+05 0.16335992D+05 0.16335992D+05 0.12436203D+01  1  2 15  3  6  5       21 0.569688535596D-02 0.100000000000D+01
0.141486881770D-03 0.000000000000D+00 0.000000000000D+00 0.201955527709D-04 0.000000000000D+00  6 -1 2 25 24 21 21 4 0.17854813D-02 0.25542607D+00 0.14933925D+05 0.14933925D+05 0.14933925D+05 0.12480412D+01  1  2 12  3  6  5       21 0.345158634685D+00 0.100000000000D+01
-.394717917404D-04 0.000000000000D+00 0.000000000000D+00 0.200527313033D-04 0.000000000000D+00  6 -1 2 25 24 21 21 4 0.17854813D-02 0.25542607D+00 0.16335992D+05 0.16335992D+05 0.16335992D+05 0.12436203D+01  1  2  4  3  6  5       21 -.951053496580D-01 0.100000000000D+01
0.175542676180D-05 0.000000000000D+00 0.000000000000D+00 0.201955527709D-04 0.000000000000D+00  6 -1 2 25 24 1 -1 4 0.17854813D-02 0.25542607D+00 0.14933925D+05 0.14933925D+05 0.14933925D+05 0.12480412D+01  1  2 12  6  6  5       21 0.428238078906D-02 0.100000000000D+01
0.175542676180D-05 0.000000000000D+00 0.000000000000D+00 0.201955527709D-04 0.000000000000D+00  6 -1 2 25 24 2 -2 4 0.17854813D-02 0.25542607D+00 0.14933925D+05 0.14933925D+05 0.14933925D+05 0.12480412D+01  1  2 12  7  6  5       21 0.428238078906D-02 0.100000000000D+01
0.175542676180D-05 0.000000000000D+00 0.000000000000D+00 0.201955527709D-04 0.000000000000D+00  6 -1 2 25 24 3 -3 4 0.17854813D-02 0.25542607D+00 0.14933925D+05 0.14933925D+05 0.14933925D+05 0.12480412D+01  1  2 12  8  6  5       21 0.428238078906D-02 0.100000000000D+01
0.175542676180D-05 0.000000000000D+00 0.000000000000D+00 0.201955527709D-04 0.000000000000D+00  6 -1 2 25 24 4 -4 4 0.17854813D-02 0.25542607D+00 0.14933925D+05 0.14933925D+05 0.14933925D+05 0.12480412D+01  1  2 12  8  6  5       21 0.428238078906D-02 0.100000000000D+01
  </mgrwgt>
  </event>
  <event>
  5     66 0.43135346E-03 0.20626947E+02 0.75467711E-02 0.10614720E+00
       -3 -1    0    0    0  501 0.00000000E+00 0.00000000E+00 0.75092169E+03 0.75092185E+03 0.50000000E+00 0.0000E+00 0.9000E+01
        4 -1    0    0  502    0 0.00000000E+00 0.00000000E+00 -.49676133E+02 0.49700309E+02 0.15500000E+01 0.0000E+00 0.9000E+01
       25  1    1    2    0    0 0.27679845E+02 0.13414971E+03 0.24575767E+03 0.30787035E+03 0.12500000E+03 0.0000E+00 0.9000E+01
       24  1    1    2    0    0 -.47894555E+02 -.13819973E+03 0.39407854E+03 0.42796982E+03 0.80419002E+02 0.0000E+00 0.9000E+01
       21  1    1    2  502  501 0.20214710E+02 0.40500177E+01 0.61409339E+02 0.64781993E+02 0.75000000E+00 0.0000E+00 0.9000E+01
#aMCatNLO 1  0  0  1  2 0.25473708D+03 0.00000000D+00  -5  6  0 0.00000000D+00 0.00000000D+00 0.00000000D+00 0.00000000D+00 0.00000000D+00
  <mgrwgt>
 0.1132948549D+00    5    4    0
 0.193164774660197D+03 0.000000000000000D+00 0.000000000000000D+00 0.193164774660197D+03
 0.193164774660197D+03 0.000000000000000D+00 0.000000000000000D+00 -.193164774660197D+03
 0.191937200512111D+03 0.276743996713904D+02 0.134148620734239D+03 -.495294265902146D+02
 0.171607159660821D+03 -.478994228553343D+02 -.138200704697809D+03 0.398498657919794D+02
 0.227851891474619D+02 0.202250231839439D+02 0.405208396356977D+01 0.967956079823520D+01
 0.000000000000000D+00 0.000000000000000D+00 -.000000000000000D+00 0.000000000000000D+00
 0.473975789813564D+03 0.000000000000000D+00 0.000000000000000D+00 0.473975789813564D+03
 0.298247835187532D+03 0.000000000000000D+00 0.000000000000000D+00 -.298247835187532D+03
 0.278104962217755D+03 -.739215655735190D+02 0.231947856327544D+03 -.495294265902146D+02
 0.165111442794875D+03 -.120678535336917D+03 -.681414109975153D+02 0.398498657919794D+02
 0.195378481027613D+02 0.110772271722831D+02 0.128580188759185D+02 0.967956079823520D+01
 0.309469371885706D+03 0.183522873738153D+03 -.176664464205948D+03 0.175727954626032D+03
 0.193164774660197D+03 0.000000000000000D+00 0.000000000000000D+00 0.193164774660197D+03
 0.193164774660197D+03 0.000000000000000D+00 0.000000000000000D+00 -.193164774660197D+03
 0.191937200512111D+03 0.276743996713904D+02 0.134148620734239D+03 -.495294265902146D+02
 0.171607159660821D+03 -.478994228553343D+02 -.138200704697809D+03 0.398498657919794D+02
 0.000000000000000D+00 0.000000000000000D+00 -.000000000000000D+00 0.000000000000000D+00
 0.227851891474619D+02 0.202250231839439D+02 0.405208396356977D+01 0.967956079823520D+01
 0.473975789813564D+03 0.000000000000000D+00 0.000000000000000D+00 0.473975789813564D+03
 0.298247835187532D+03 0.000000000000000D+00 0.000000000000000D+00 -.298247835187532D+03
 0.278104962217755D+03 -.739215655735190D+02 0.231947856327544D+03 -.495294265902146D+02
 0.165111442794875D+03 -.120678535336917D+03 -.681414109975153D+02 0.398498657919794D+02
 0.309469371885706D+03 0.183522873738153D+03 -.176664464205948D+03 0.175727954626032D+03
 0.195378481027613D+02 0.110772271722831D+02 0.128580188759185D+02 0.967956079823520D+01
0.314835919879D-02 0.000000000000D+00 0.000000000000D+00 0.386625519383D-04 0.000000000000D+00  6 -3 4 25 24 21 21 2 0.11552829D+00 0.76443545D-02 0.34778462D+05 0.34778462D+05 0.34778462D+05 0.12082187D+01  1  2  2  1  6  1       -3 0.733902633515D-01 0.100000000000D+01
0.105882486884D-02 0.166143479454D-03 -.120905283054D-04 0.386625519383D-04 0.000000000000D+00  6 -3 4 25 24 21 21 4 0.11552829D+00 0.76443545D-02 0.34778462D+05 0.34778462D+05 0.34778462D+05 0.12082187D+01  1  2  3  1  6  1       -3 0.360304262834D-01 0.100000000000D+01
0.991572502195D-04 0.000000000000D+00 0.000000000000D+00 0.386625519383D-04 0.000000000000D+00  6 -3 4 25 24 21 21 4 0.11552829D+00 0.76443545D-02 0.34778462D+05 0.34778462D+05 0.34778462D+05 0.12082187D+01  1  2 15  1  6  1       -3 0.337419161527D-02 0.100000000000D+01
-.251735506288D-03 0.000000000000D+00 -.155118441110D-02 0.386625519383D-04 0.000000000000D+00  6 -3 4 25 24 21 21 4 0.35053034D+00 0.76443545D-02 0.34778462D+05 0.34778462D+05 0.34778462D+05 0.12082187D+01  1  2  5  1  6  1       -3 -.320466601641D-03 0.100000000000D+01
0.440010658307D-04 0.000000000000D+00 -.196316519378D-03 0.386625519383D-04 0.000000000000D+00  6 21 4 25 24 3 21 4 0.35053034D+00 0.76443545D-02 0.34778462D+05 0.34778462D+05 0.34778462D+05 0.12082187D+01  3  4  5  4  5  1       -3 0.820440246975D-03 0.100000000000D+01
  </mgrwgt>
  </event>
  <event>
  5     66 0.43135346E-03 0.14225873E+03 0.75467711E-02 0.11324902E+00
       -1 -1    0    0    0  501 0.00000000E+00 0.00000000E+00 0.20797217E+02 0.20799678E+02 0.32000000E+00 0.0000E+00 0.9000E+01
        2 -1    0    0  502    0 0.00000000E+00 0.00000000E+00 -.30203237E+04 0.30203237E+04 0.32000000E+00 0.0000E+00 0.9000E+01
       25  1    1    2    0    0 0.41272067E+02 -.52594297E+02 -.74743206E+03 0.76075570E+03 0.12500000E+03 0.0000E+00 0.9000E+01
       24  1    1    2    0    0 0.94123843E+02 0.89445308E+01 -.32289447E+03 0.34592970E+03 0.80419002E+02 0.0000E+00 0.9000E+01
       21  1    1    2  502  501 -.13539591E+03 0.43649766E+02 -.19291999E+04 0.19344380E+04 0.75000000E+00 0.0000E+00 0.9000E+01
#aMCatNLO 1  0  0  2  5 0.33117711D+02 0.00000000D+00  -5  6  0 0.00000000D+00 0.00000000D+00 0.00000000D+00 0.00000000D+00 0.00000000D+00
  <mgrwgt>
 0.5720134657D-01    7    4    0
 0.250635382922886D+03 0.000000000000000D+00 0.000000000000000D+00 0.250635382922886D+03
 0.250635382922886D+03 0.000000000000000D+00 0.000000000000000D+00 -.250635382922886D+03
 0.142856449912542D+03 0.412723613237446D+02 -.525943921297739D+02 0.177027508844371D+02
 0.166545903260873D+03 0.941241871263050D+02 0.894442003947193D+01 0.111044840882319D+03
 0.191868412672357D+03 -.135396548450050D+03 0.436499720903020D+02 -.128747591766756D+03
 0.000000000000000D+00 -.000000000000000D+00 -.000000000000000D+00 -.000000000000000D+00
 0.261218180962615D+03 0.000000000000000D+00 0.000000000000000D+00 0.261218180962615D+03
 0.278501933366606D+03 0.000000000000000D+00 0.000000000000000D+00 -.278501933366606D+03
 0.139724633025710D+03 0.413793825432677D+02 -.432704562678837D+02 0.177027508844371D+02
 0.167571256085076D+03 0.942507264738261D+02 0.199688202990580D+02 0.111044840882319D+03
 0.195067687870166D+03 -.135250005118391D+03 0.564171656568180D+02 -.128747591766756D+03
 0.373565373482683D+02 -.380103898703255D+00 -.331155296879923D+02 -.172837524039906D+02
 0.250635382922886D+03 0.000000000000000D+00 0.000000000000000D+00 0.250635382922886D+03
 0.250635382922886D+03 0.000000000000000D+00 0.000000000000000D+00 -.250635382922886D+03
 0.142856449912542D+03 0.412723613237446D+02 -.525943921297739D+02 0.177027508844371D+02
 0.166545903260873D+03 0.941241871263050D+02 0.894442003947193D+01 0.111044840882319D+03
 0.000000000000000D+00 -.000000000000000D+00 -.000000000000000D+00 -.000000000000000D+00
 0.191868412672357D+03 -.135396548450050D+03 0.436499720903020D+02 -.128747591766756D+03
 0.261218180962615D+03 0.000000000000000D+00 0.000000000000000D+00 0.261218180962615D+03
 0.278501933366606D+03 0.000000000000000D+00 0.000000000000000D+00 -.278501933366606D+03
 0.139724633025710D+03 0.413793825432677D+02 -.432704562678837D+02 0.177027508844371D+02
 0.167571256085076D+03 0.942507264738261D+02 0.199688202990580D+02 0.111044840882319D+03
 0.373565373482683D+02 -.380103898703255D+00 -.331155296879923D+02 -.172837524039906D+02
 0.195067687870166D+03 -.135250005118391D+03 0.564171656568180D+02 -.128747591766756D+03
0.162285000177D-03 0.000000000000D+00 0.000000000000D+00 0.171818295846D-05 0.000000000000D+00  6 -1 2 25 24 21 21 2 0.31997624D-02 0.46466538D+00 0.41644018D+05 0.41644018D+05 0.41644018D+05 0.12002279D+01  1  2  2  2  6  2        2 0.187707658277D-01 0.100000000000D+01
-.142168695039D-04 0.856401474235D-05 -.623217131301D-06 0.171818295846D-05 0.000000000000D+00  6 -1 2 25 24 21 21 4 0.31997624D-02 0.46466538D+00 0.41644018D+05 0.41644018D+05 0.41644018D+05 0.12002279D+01  1  2  3  2  6  2        2 -.236883629930D-02 0.100000000000D+01
0.798247512685D-05 0.000000000000D+00 0.000000000000D+00 0.171818295846D-05 0.000000000000D+00  6 -1 2 25 24 21 21 4 0.31997624D-02 0.46466538D+00 0.41644018D+05 0.41644018D+05 0.41644018D+05 0.12002279D+01  1  2 15  2  6  2        2 0.133005207887D-02 0.100000000000D+01
-.187715756413D-03 0.000000000000D+00 0.000000000000D+00 0.171818295846D-05 0.000000000000D+00  6 -1 2 25 24 21 21 4 0.31997624D-02 0.46466538D+00 0.41644018D+05 0.41644018D+05 0.41644018D+05 0.12002279D+01  1  2  4  2  6  2        2 -.312774832474D-01 0.100000000000D+01
-.994955913791D-03 0.000000000000D+00 -.200478091994D-03 0.171818295846D-05 0.000000000000D+00  6 -1 2 25 24 21 21 4 0.31997624D-02 0.52211715D+00 0.41644018D+05 0.41644018D+05 0.41644018D+05 0.12002279D+01  1  2  5  2  6  2        2 -.978638327105D-01 0.100000000000D+01
0.101279156267D-02 0.000000000000D+00 0.199123553697D-03 0.171818295846D-05 0.000000000000D+00  6 -1 2 25 24 21 21 4 0.31997624D-02 0.46466538D+00 0.41644018D+05 0.41644018D+05 0.41644018D+05 0.12002279D+01  1  2  6  2  6  2        2 0.168752861986D+00 0.100000000000D+01
-.175438451249D-04 0.000000000000D+00 -.371210836168D-05 0.171818295846D-05 0.000000000000D+00  6 -1 21 25 24 -2 21 4 0.31997624D-02 0.52211715D+00 0.41644018D+05 0.41644018D+05 0.41644018D+05 0.12002279D+01  3  4  5  5  5  2        2 -.142181066753D-03 0.100000000000D+01
  </mgrwgt>
  </event>
  <event>
  5     66 0.43135346E-03 0.42480231E+02 0.75467711E-02 0.10291260E+00
       -1 -1    0    0    0  501 0.00000000E+00 0.00000000E+00 0.31114255E+02 0.31115901E+02 0.32000000E+00 0.0000E+00 0.9000E+01
        2 -1    0    0  502    0 0.00000000E+00 0.00000000E+00 -.74279183E+03 0.74279190E+03 0.32000000E+00 0.0000E+00 0.9000E+01
       25  1    1    2    0    0 0.14060670E+02 0.89196259E+02 -.26789736E+03 0.30910786E+03 0.12500000E+03 0.0000E+00 0.9000E+01
       24  1    1    2    0    0 0.53775435E+01 -.51430260E+02 -.31548036E+03 0.32964991E+03 0.80419002E+02 0.0000E+00 0.9000E+01
       21  1    1    2  502  501 -.19438213E+02 -.37765998E+02 -.12829985E+03 0.13515003E+03 0.75000000E+00 0.0000E+00 0.9000E+01
#aMCatNLO 1  0  0  1  1 0.16255062D+02 0.00000000D+00  -5  6  0 0.00000000D+00 0.00000000D+00 0.00000000D+00 0.00000000D+00 0.00000000D+00
  <mgrwgt>
 0.2843807845D+00    5    4    0
 0.152026570227499D+03 0.000000000000000D+00 0.000000000000000D+00 0.152026570227499D+03
 0.152026570227499D+03 0.000000000000000D+00 0.000000000000000D+00 -.152026570227499D+03
 0.159725505050423D+03 0.140621741270578D+02 0.891991818237535D+02 0.416292947863170D+02
 0.100633793537001D+03 0.537849140560024D+01 -.514284185709992D+02 -.314027712274437D+02
 0.436938418675731D+02 -.194406655326581D+02 -.377707632527543D+02 -.102265235588734D+02
 0.000000000000000D+00 -.000000000000000D+00 0.000000000000000D+00 0.000000000000000D+00
 0.763436945677488D+03 0.000000000000000D+00 0.000000000000000D+00 0.763436945677488D+03
 0.327041403706030D+03 0.000000000000000D+00 0.000000000000000D+00 -.327041403706030D+03
 0.246670716646298D+03 0.206208138876513D+03 0.310909589346651D+02 0.416292947863170D+02
 0.191769769605678D+03 0.143628213565065D+03 -.932374967895909D+02 -.314027712274437D+02
 0.618676006802632D+02 0.304692601404078D+02 -.528643775743976D+02 -.102265235588734D+02
 0.590170262451280D+03 -.380305612581985D+03 0.115010915429323D+03 0.436395541971458D+03
 0.152026570227499D+03 0.000000000000000D+00 0.000000000000000D+00 0.152026570227499D+03
 0.152026570227499D+03 0.000000000000000D+00 0.000000000000000D+00 -.152026570227499D+03
 0.159725505050423D+03 0.140621741270578D+02 0.891991818237535D+02 0.416292947863170D+02
 0.100633793537001D+03 0.537849140560024D+01 -.514284185709992D+02 -.314027712274437D+02
 0.000000000000000D+00 -.000000000000000D+00 0.000000000000000D+00 0.000000000000000D+00
 0.436938418675731D+02 -.194406655326581D+02 -.377707632527543D+02 -.102265235588734D+02
 0.763436945677488D+03 0.000000000000000D+00 0.000000000000000D+00 0.763436945677488D+03
 0.327041403706030D+03 0.000000000000000D+00 0.000000000000000D+00 -.327041403706030D+03
 0.246670716646298D+03 0.206208138876513D+03 0.310909589346651D+02 0.416292947863170D+02
 0.191769769605678D+03 0.143628213565065D+03 -.932374967895909D+02 -.314027712274437D+02
 0.590170262451280D+03 -.380305612581985D+03 0.115010915429323D+03 0.436395541971458D+03
 0.618676006802632D+02 0.304692601404078D+02 -.528643775743976D+02 -.102265235588734D+02
0.168214703458D-03 0.000000000000D+00 0.000000000000D+00 0.113041888664D-04 0.000000000000D+00  6 -1 2 25 24 21 21 2 0.47869404D-02 0.11427580D+00 0.21358965D+05 0.21358965D+05 0.21358965D+05 0.12306952D+01  1  2  2  1  6  1       -1 0.205248653205D+00 0.100000000000D+01
0.887930985281D-05 0.887693378148D-05 -.645988753228D-06 0.113041888664D-04 0.000000000000D+00  6 -1 2 25 24 21 21 4 0.47869404D-02 0.11427580D+00 0.21358965D+05 0.21358965D+05 0.21358965D+05 0.12306952D+01  1  2  3  1  6  1       -1 0.164095480287D-01 0.100000000000D+01
0.770909764418D-05 0.000000000000D+00 0.000000000000D+00 0.113041888664D-04 0.000000000000D+00  6 -1 2 25 24 21 21 4 0.47869404D-02 0.11427580D+00 0.21358965D+05 0.21358965D+05 0.21358965D+05 0.12306952D+01  1  2 15  1  6  1       -1 0.142469189776D-01 0.100000000000D+01
0.410437060318D-03 0.000000000000D+00 -.222842121550D-03 0.113041888664D-04 0.000000000000D+00  6 -1 2 25 24 21 21 4 0.51627191D-01 0.11427580D+00 0.21358965D+05 0.21358965D+05 0.21358965D+05 0.12306952D+01  1  2  5  1  6  1       -1 0.167929107004D-01 0.100000000000D+01
0.767774876448D-04 0.000000000000D+00 -.625237876535D-04 0.113041888664D-04 0.000000000000D+00  6 21 2 25 24 1 21 4 0.51627191D-01 0.11427580D+00 0.21358965D+05 0.21358965D+05 0.21358965D+05 0.12306952D+01  3  4  5  4  5  1       -1 0.316827536164D-01 0.100000000000D+01
  </mgrwgt>
  </event>
  <event>
  5     66 0.43135346E-03 0.72740252E+02 0.75467711E-02 0.11675536E+00
       -1 -1    0    0    0  501 0.00000000E+00 0.00000000E+00 0.42628161E+03 0.42628173E+03 0.32000000E+00 0.0000E+00 0.9000E+01
        2 -1    0    0  502    0 0.00000000E+00 0.00000000E+00 -.12106393E+03 0.12106435E+03 0.32000000E+00 0.0000E+00 0.9000E+01
       25  1    1    2    0    0 0.10315331E+03 -.87915729E+02 0.23752751E+03 0.30068938E+03 0.12500000E+03 0.0000E+00 0.9000E+01
       24  1    1    2    0    0 -.39844818E+02 0.52095673E+02 0.11880924E+03 0.15774797E+03 0.80419002E+02 0.0000E+00 0.9000E+01
       21  1    1    2  502  501 -.63308494E+02 0.35820056E+02 -.51119075E+02 0.88908740E+02 0.75000000E+00 0.0000E+00 0.9000E+01
#aMCatNLO 1  0  0  5  1 0.24141070D+01 0.00000000D+00  -5  6  0 0.00000000D+00 0.00000000D+00 0.00000000D+00 0.00000000D+00 0.00000000D+00
  <mgrwgt>
 0.8017244152D-01   18    2    0
 0.227172787170198D+03 0.000000000000000D+00 0.000000000000000D+00 0.227172787170198D+03
 0.227172787170198D+03 -.000000000000000D+00 -.000000000000000D+00 -.227172787170198D+03
 0.202673558775013D+03 0.103153708590669D+03 -.879159539104898D+02 0.841526522370424D+02
 0.110224582840682D+03 -.398446020336614D+02 0.520955507914725D+02 0.371578253473486D+02
 0.141447432724700D+03 -.633091065570081D+02 0.358204031190173D+02 -.121310477584391D+03
 0.000000000000000D+00 0.000000000000000D+00 0.000000000000000D+00 -.000000000000000D+00
 0.227172787170198D+03 0.000000000000000D+00 0.000000000000000D+00 0.227172787170198D+03
 0.227172787170198D+03 -.000000000000000D+00 -.000000000000000D+00 -.227172787170198D+03
 0.202175901114307D+03 0.102832214965985D+03 -.877340522558516D+02 0.835366185055337D+02
 0.110222290869690D+03 -.400196603491618D+02 0.521945990922871D+02 0.368223853291049D+02
 0.262869278863354D+01 -.136192624292630D+01 0.224266971852666D+01 0.160047553706825D+00
 0.139318689567765D+03 -.614506283738970D+02 0.332967834450378D+02 -.120519051388345D+03
0.600073054132D-03 0.000000000000D+00 0.000000000000D+00 0.517787389260D-05 0.000000000000D+00  6 -1 2 25 24 21 21 2 0.65581828D-01 0.18625262D-01 0.32560385D+05 0.32560385D+05 0.32560385D+05 0.12111830D+01  1  2  2  3  6  5       21 0.736380241210D-01 0.100000000000D+01
-.786517505780D-05 0.316667250607D-04 -.230443853073D-05 0.517787389260D-05 0.000000000000D+00  6 -1 2 25 24 21 21 4 0.65581828D-01 0.18625262D-01 0.32560385D+05 0.32560385D+05 0.32560385D+05 0.12111830D+01  1  2  3  3  6  5       21 -.141587832595D-02 0.100000000000D+01
0.305334850638D-04 0.000000000000D+00 0.000000000000D+00 0.517787389260D-05 0.000000000000D+00  6 -1 2 25 24 21 21 4 0.65581828D-01 0.18625262D-01 0.32560385D+05 0.32560385D+05 0.32560385D+05 0.12111830D+01  1  2 15  3  6  5       21 0.549659726576D-02 0.100000000000D+01
0.438679827458D-08 0.000000000000D+00 0.000000000000D+00 0.517867469050D-05 0.000000000000D+00  6 -1 2 25 24 21 21 4 0.65581828D-01 0.18625262D-01 0.32492925D+05 0.32492925D+05 0.32492925D+05 0.12112767D+01  1  2 12  3  6  5       21 0.789940659440D-06 0.100000000000D+01
-.603516410589D-06 0.000000000000D+00 0.000000000000D+00 0.517787389260D-05 0.000000000000D+00  6 -1 2 25 24 21 21 4 0.65581828D-01 0.18625262D-01 0.32560385D+05 0.32560385D+05 0.32560385D+05 0.12111830D+01  1  2  5  3  6  5       21 -.108644219465D-03 0.100000000000D+01
0.118456506842D-05 0.000000000000D+00 0.000000000000D+00 0.517787389260D-05 0.543330862924D-05  6 -1 2 25 24 21 21 4 0.65581828D-01 0.18625262D-01 0.32492925D+05 0.32492925D+05 0.32492925D+05 0.12112767D+01  1  2 11  3  6  5       21 0.213307303579D-03 0.100000000000D+01
0.695605760919D-07 0.000000000000D+00 0.000000000000D+00 0.517867469050D-05 0.000000000000D+00  6 -1 2 25 24 1 -1 4 0.65581828D-01 0.18625262D-01 0.32492925D+05 0.32492925D+05 0.32492925D+05 0.12112767D+01  1  2 12  6  6  5       21 0.125259298262D-04 0.100000000000D+01
-.275189272237D-04 0.000000000000D+00 0.000000000000D+00 0.517787389260D-05 0.000000000000D+00  6 -1 2 25 24 1 -1 4 0.65581828D-01 0.18625262D-01 0.32560385D+05 0.32560385D+05 0.32560385D+05 0.12111830D+01  1  2  5  6  6  5       21 -.495392058320D-02 0.100000000000D+01
0.310776040104D-04 0.000000000000D+00 0.000000000000D+00 0.517787389260D-05 0.147645230977D-07  6 -1 2 25 24 1 -1 4 0.65581828D-01 0.18625262D-01 0.32492925D+05 0.32492925D+05 0.32492925D+05 0.12112767D+01  1  2 11  6  6  5       21 0.559621424766D-02 0.100000000000D+01
0.695605760919D-07 0.000000000000D+00 0.000000000000D+00 0.517867469050D-05 0.000000000000D+00  6 -1 2 25 24 2 -2 4 0.65581828D-01 0.18625262D-01 0.32492925D+05 0.32492925D+05 0.32492925D+05 0.12112767D+01  1  2 12  7  6  5       21 0.125259298262D-04 0.100000000000D+01
-.275189272237D-04 0.000000000000D+00 0.000000000000D+00 0.517787389260D-05 0.000000000000D+00  6 -1 2 25 24 2 -2 4 0.65581828D-01 0.18625262D-01 0.32560385D+05 0.32560385D+05 0.32560385D+05 0.12111830D+01  1  2  5  7  6  5       21 -.495392058320D-02 0.100000000000D+01
0.295462721261D-04 0.000000000000D+00 0.000000000000D+00 0.517787389260D-05 0.170466179890D-07  6 -1 2 25 24 2 -2 4 0.65581828D-01 0.18625262D-01 0.32492925D+05 0.32492925D+05 0.32492925D+05 0.12112767D+01  1  2 11  7  6  5       21 0.532046386143D-02 0.100000000000D+01
0.695605760919D-07 0.000000000000D+00 0.000000000000D+00 0.517867469050D-05 0.000000000000D+00  6 -1 2 25 24 3 -3 4 0.65581828D-01 0.18625262D-01 0.32492925D+05 0.32492925D+05 0.32492925D+05 0.12112767D+01  1  2 12  8  6  5       21 0.125259298262D-04 0.100000000000D+01
0.695605760919D-07 0.000000000000D+00 0.000000000000D+00 0.517867469050D-05 0.000000000000D+00  6 -1 2 25 24 4 -4 4 0.65581828D-01 0.18625262D-01 0.32492925D+05 0.32492925D+05 0.32492925D+05 0.12112767D+01  1  2 12  8  6  5       21 0.125259298262D-04 0.100000000000D+01
-.275189272237D-04 0.000000000000D+00 0.000000000000D+00 0.517787389260D-05 0.000000000000D+00  6 -1 2 25 24 3 -3 4 0.65581828D-01 0.18625262D-01 0.32560385D+05 0.32560385D+05 0.32560385D+05 0.12111830D+01  1  2  5  8  6  5       21 -.495392058320D-02 0.100000000000D+01
-.275189272237D-04 0.000000000000D+00 0.000000000000D+00 0.517787389260D-05 0.000000000000D+00  6 -1 2 25 24 4 -4 4 0.65581828D-01 0.18625262D-01 0.32560385D+05 0.32560385D+05 0.32560385D+05 0.12111830D+01  1  2  5  8  6  5       21 -.495392058320D-02 0.100000000000D+01
0.310907027620D-04 0.000000000000D+00 0.000000000000D+00 0.517787389260D-05 0.147672209585D-07  6 -1 2 25 24 3 -3 4 0.65581828D-01 0.18625262D-01 0.32492925D+05 0.32492925D+05 0.32492925D+05 0.12112767D+01  1  2 11  8  6  5       21 0.559857296940D-02 0.100000000000D+01
0.310907027620D-04 0.000000000000D+00 0.000000000000D+00 0.517787389260D-05 0.147672209585D-07  6 -1 2 25 24 4 -4 4 0.65581828D-01 0.18625262D-01 0.32492925D+05 0.32492925D+05 0.32492925D+05 0.12112767D+01  1  2 11  8  6  5       21 0.559857296940D-02 0.100000000000D+01
  </mgrwgt>
  </event>
  <event>
  5     66 -.43135346E-03 0.25811838E+02 0.75467711E-02 0.11756320E+00
       -1 -1    0    0    0  501 0.00000000E+00 0.00000000E+00 0.66847052E+02 0.66847818E+02 0.32000000E+00 0.0000E+00 0.9000E+01
        2 -1    0    0  502    0 0.00000000E+00 0.00000000E+00 -.53501634E+03 0.53501644E+03 0.32000000E+00 0.0000E+00 0.9000E+01
       25  1    1    2    0    0 0.16279904E+02 -.11947781E+03 -.11195424E+03 0.20663672E+03 0.12500000E+03 0.0000E+00 0.9000E+01
       24  1    1    2    0    0 -.41283089E+02 0.11310619E+03 -.31345017E+03 0.34527602E+03 0.80419002E+02 0.0000E+00 0.9000E+01
       21  1    1    2  502  501 0.25003185E+02 0.63716125E+01 -.42764881E+02 0.49951519E+02 0.75000000E+00 0.0000E+00 0.9000E+01
#aMCatNLO 1  0  0  1  1 0.13150621D+00 0.00000000D+00  -5  6  0 0.00000000D+00 0.00000000D+00 0.00000000D+00 0.00000000D+00 0.00000000D+00
  <mgrwgt>
 -.4314750341D-01    1    2    0
 0.189115109047692D+03 0.000000000000000D+00 0.000000000000000D+00 0.189115109047692D+03
 0.189115109047692D+03 0.000000000000000D+00 0.000000000000000D+00 -.189115109047692D+03
 0.190238770271207D+03 0.162748836929538D+02 -.119479085002993D+03 0.776251642312576D+02
 0.161440029896113D+03 -.412873486993014D+02 0.113105107679928D+03 -.714020780690683D+02
 0.265514179280643D+02 0.250124650063476D+02 0.637397732306458D+01 -.622308616218925D+01
 0.000000000000000D+00 -.000000000000000D+00 -.000000000000000D+00 0.000000000000000D+00
 0.204685754142122D+03 0.000000000000000D+00 0.000000000000000D+00 0.204685754142122D+03
 0.203485437742759D+03 0.000000000000000D+00 0.000000000000000D+00 -.203485437742759D+03
 0.184217581026694D+03 0.247624640237037D+02 -.108038286791635D+03 0.776251642312576D+02
 0.166955051143335D+03 -.338438119001939D+02 0.123138591803651D+03 -.714020780690683D+02
 0.281539655447391D+02 0.262524395324586D+02 0.804539577068319D+01 -.622308616218925D+01
 0.288445941701122D+02 -.171710916559685D+02 -.231457007826988D+02 0.120031639936215D+01
-.526514931789D-04 0.000000000000D+00 0.000000000000D+00 0.223382274256D-04 0.000000000000D+00  6 -1 2 25 24 21 21 4 0.10284228D-01 0.82310273D-01 0.29632972D+05 0.29632972D+05 0.29632972D+05 0.12154599D+01  1  2 14  1  6  1       -1 -.431475034068D-01 0.100000000000D+01
  </mgrwgt>
  </event>
  <event>
  5     66 0.43135346E-03 0.10527922E+03 0.75467711E-02 0.11527461E+00
       -1 -1    0    0    0  501 0.00000000E+00 0.00000000E+00 0.20573855E+03 0.20573880E+03 0.32000000E+00 0.0000E+00 0.9000E+01
        2 -1    0    0  502    0 -.00000000E+00 -.00000000E+00 -.20739238E+03 0.20739262E+03 0.32000000E+00 0.0000E+00 0.9000E+01
       25  1    1    2    0    0 -.12042128E+03 -.47536805E+02 -.29815221E+02 0.18241431E+03 0.12500000E+03 0.0000E+00 0.9000E+01
       24  1    1    2    0    0 0.12408704E+02 0.78198842E+02 0.35190947E+02 0.11821444E+03 0.80419002E+02 0.0000E+00 0.9000E+01
       21  1    1    2  502  501 0.10801257E+03 -.30662037E+02 -.70295493E+01 0.11250268E+03 0.75000000E+00 0.0000E+00 0.9000E+01
#aMCatNLO 1  0  0  5  1 0.16240361D+02 0.00000000D+00  -5  6  0 0.00000000D+00 0.00000000D+00 0.00000000D+00 0.00000000D+00 0.00000000D+00
  <mgrwgt>
 0.9225826429D-01   20    2    0
 0.206564057825247D+03 0.000000000000000D+00 0.000000000000000D+00 0.206564057825247D+03
 0.206564057825247D+03 -.000000000000000D+00 -.000000000000000D+00 -.206564057825247D+03
 0.182297023183434D+03 -.120422335545385D+03 -.475365044070765D+02 -.290851596538890D+02
 0.118356331065955D+03 0.124080158750328D+02 0.781990373292407D+02 0.356645040880742D+02
 0.112474761401105D+03 0.108014319670352D+03 -.306625329221642D+02 -.657934443418517D+01
 0.000000000000000D+00 0.000000000000000D+00 -.000000000000000D+00 0.000000000000000D+00
 0.206564057825247D+03 0.000000000000000D+00 0.000000000000000D+00 0.206564057825247D+03
 0.206564057825247D+03 -.000000000000000D+00 -.000000000000000D+00 -.206564057825247D+03
 0.179154992778994D+03 -.114862967651816D+03 -.491146683170397D+02 -.294237906457775D+02
 0.118048969770386D+03 0.160440836829257D+02 0.771668496599854D+02 0.354430247271229D+02
 0.987937770407868D+02 0.936169928491393D+02 -.230522846181129D+02 -.215560016179810D+02
 0.171303760603262D+02 0.520189111975106D+01 -.499989672483289D+01 0.155367675366357D+02
0.824774341129D-04 0.000000000000D+00 0.000000000000D+00 0.168878941779D-05 0.000000000000D+00  6 -1 2 25 24 21 21 2 0.31652123D-01 0.31906558D-01 0.41026309D+05 0.41026309D+05 0.41026309D+05 0.12008846D+01  1  2  2  3  6  5       21 0.205053661008D-01 0.100000000000D+01
-.555624557565D-05 0.435245377505D-05 -.316735063800D-06 0.168878941779D-05 0.000000000000D+00  6 -1 2 25 24 21 21 4 0.31652123D-01 0.31906558D-01 0.41026309D+05 0.41026309D+05 0.41026309D+05 0.12008846D+01  1  2  3  3  6  5       21 -.199212389989D-02 0.100000000000D+01
0.239797670556D-05 0.000000000000D+00 0.000000000000D+00 0.168878941779D-05 0.000000000000D+00  6 -1 2 25 24 21 21 4 0.31652123D-01 0.31906558D-01 0.41026309D+05 0.41026309D+05 0.41026309D+05 0.12008846D+01  1  2 15  3  6  5       21 0.859765221224D-03 0.100000000000D+01
0.123509232928D-03 0.000000000000D+00 0.000000000000D+00 0.169635400166D-05 0.000000000000D+00  6 -1 2 25 24 21 21 4 0.31652123D-01 0.31906558D-01 0.38603107D+05 0.38603107D+05 0.38603107D+05 0.12035711D+01  1  2 12  3  6  5       21 0.446488545937D-01 0.100000000000D+01
0.119430783411D-03 0.000000000000D+00 0.000000000000D+00 0.169635400166D-05 0.000000000000D+00  6 -1 2 25 24 21 21 4 0.31652123D-01 0.31906558D-01 0.38603107D+05 0.38603107D+05 0.38603107D+05 0.12035711D+01  1  2 12  3  6  5       21 0.431744862802D-01 0.100000000000D+01
-.713953563811D-04 0.000000000000D+00 0.000000000000D+00 0.168878941779D-05 0.000000000000D+00  6 -1 2 25 24 21 21 4 0.31652123D-01 0.31906558D-01 0.41026309D+05 0.41026309D+05 0.41026309D+05 0.12008846D+01  1  2  4  3  6  5       21 -.255979318861D-01 0.100000000000D+01
-.202005172893D-03 0.000000000000D+00 0.000000000000D+00 0.168878941779D-05 0.000000000000D+00  6 -1 2 25 24 21 21 4 0.31652123D-01 0.31906558D-01 0.41026309D+05 0.41026309D+05 0.41026309D+05 0.12008846D+01  1  2  5  3  6  5       21 -.724264842765D-01 0.100000000000D+01
0.228385154260D-03 0.000000000000D+00 -.000000000000D+00 0.168878941779D-05 0.000000000000D+00  6 -1 2 25 24 21 21 4 0.31652123D-01 0.31906558D-01 0.41026309D+05 0.41026309D+05 0.41026309D+05 0.12008846D+01  1  2  6  3  6  5       21 0.818847039762D-01 0.100000000000D+01
0.120146547144D-05 0.000000000000D+00 0.000000000000D+00 0.169635400166D-05 0.000000000000D+00  6 -1 2 25 24 1 -1 4 0.31652123D-01 0.31906558D-01 0.38603107D+05 0.38603107D+05 0.38603107D+05 0.12035711D+01  1  2 12  6  6  5       21 0.434332364163D-03 0.100000000000D+01
0.118469749456D-05 0.000000000000D+00 0.000000000000D+00 0.169635400166D-05 0.000000000000D+00  6 -1 2 25 24 1 -1 4 0.31652123D-01 0.31906558D-01 0.38603107D+05 0.38603107D+05 0.38603107D+05 0.12035711D+01  1  2 12  6  6  5       21 0.428270704286D-03 0.100000000000D+01
-.156802454109D-05 0.000000000000D+00 0.000000000000D+00 0.168878941779D-05 0.000000000000D+00  6 -1 2 25 24 1 -1 4 0.31652123D-01 0.31906558D-01 0.41026309D+05 0.41026309D+05 0.41026309D+05 0.12008846D+01  1  2  5  6  6  5       21 -.562196022727D-03 0.100000000000D+01
0.120146547144D-05 0.000000000000D+00 0.000000000000D+00 0.169635400166D-05 0.000000000000D+00  6 -1 2 25 24 2 -2 4 0.31652123D-01 0.31906558D-01 0.38603107D+05 0.38603107D+05 0.38603107D+05 0.12035711D+01  1  2 12  7  6  5       21 0.434332364163D-03 0.100000000000D+01
0.118469749456D-05 0.000000000000D+00 0.000000000000D+00 0.169635400166D-05 0.000000000000D+00  6 -1 2 25 24 2 -2 4 0.31652123D-01 0.31906558D-01 0.38603107D+05 0.38603107D+05 0.38603107D+05 0.12035711D+01  1  2 12  7  6  5       21 0.428270704286D-03 0.100000000000D+01
-.156802454109D-05 0.000000000000D+00 0.000000000000D+00 0.168878941779D-05 0.000000000000D+00  6 -1 2 25 24 2 -2 4 0.31652123D-01 0.31906558D-01 0.41026309D+05 0.41026309D+05 0.41026309D+05 0.12008846D+01  1  2  5  7  6  5       21 -.562196022727D-03 0.100000000000D+01
0.120146547144D-05 0.000000000000D+00 0.000000000000D+00 0.169635400166D-05 0.000000000000D+00  6 -1 2 25 24 3 -3 4 0.31652123D-01 0.31906558D-01 0.38603107D+05 0.38603107D+05 0.38603107D+05 0.12035711D+01  1  2 12  8  6  5       21 0.434332364163D-03 0.100000000000D+01
0.120146547144D-05 0.000000000000D+00 0.000000000000D+00 0.169635400166D-05 0.000000000000D+00  6 -1 2 25 24 4 -4 4 0.31652123D-01 0.31906558D-01 0.38603107D+05 0.38603107D+05 0.38603107D+05 0.12035711D+01  1  2 12  8  6  5       21 0.434332364163D-03 0.100000000000D+01
0.118469749456D-05 0.000000000000D+00 0.000000000000D+00 0.169635400166D-05 0.000000000000D+00  6 -1 2 25 24 3 -3 4 0.31652123D-01 0.31906558D-01 0.38603107D+05 0.38603107D+05 0.38603107D+05 0.12035711D+01  1  2 12  8  6  5       21 0.428270704286D-03 0.100000000000D+01
0.118469749456D-05 0.000000000000D+00 0.000000000000D+00 0.169635400166D-05 0.000000000000D+00  6 -1 2 25 24 4 -4 4 0.31652123D-01 0.31906558D-01 0.38603107D+05 0.38603107D+05 0.38603107D+05 0.12035711D+01  1  2 12  8  6  5       21 0.428270704286D-03 0.100000000000D+01
-.156802454109D-05 0.000000000000D+00 0.000000000000D+00 0.168878941779D-05 0.000000000000D+00  6 -1 2 25 24 3 -3 4 0.31652123D-01 0.31906558D-01 0.41026309D+05 0.41026309D+05 0.41026309D+05 0.12008846D+01  1  2  5  8  6  5       21 -.562196022727D-03 0.100000000000D+01
-.156802454109D-05 0.000000000000D+00 0.000000000000D+00 0.168878941779D-05 0.000000000000D+00  6 -1 2 25 24 4 -4 4 0.31652123D-01 0.31906558D-01 0.41026309D+05 0.41026309D+05 0.41026309D+05 0.12008846D+01  1  2  5  8  6  5       21 -.562196022727D-03 0.100000000000D+01
  </mgrwgt>
  </event>
  <event>
  5     66 0.43135346E-03 0.28357765E+02 0.75467711E-02 0.11709898E+00
       -1 -1    0    0    0  501 0.00000000E+00 0.00000000E+00 0.69019252E+02 0.69019994E+02 0.32000000E+00 0.0000E+00 0.9000E+01
        2 -1    0    0  502    0 0.00000000E+00 0.00000000E+00 -.52741700E+03 0.52741710E+03 0.32000000E+00 0.0000E+00 0.9000E+01
       25  1    1    2    0    0 -.33449177E+02 0.78570669E+02 -.89868141E+02 0.17604965E+03 0.12500000E+03 0.0000E+00 0.9000E+01
       24  1    1    2    0    0 0.10038170E+02 -.62568819E+02 -.78608601E+02 0.12908195E+03 0.80419002E+02 0.0000E+00 0.9000E+01
       21  1    1    2  502  501 0.23411007E+02 -.16001850E+02 -.28992101E+03 0.29130549E+03 0.75000000E+00 0.0000E+00 0.9000E+01
#aMCatNLO 1  0  0  1  5 0.35932152D+02 0.00000000D+00  -5  6  0 0.00000000D+00 0.00000000D+00 0.00000000D+00 0.00000000D+00 0.00000000D+00
  <mgrwgt>
 0.3647411170D+00    4    2    0
 0.190793546138196D+03 0.000000000000000D+00 0.000000000000000D+00 0.190793546138196D+03
 0.190793546138196D+03 0.000000000000000D+00 0.000000000000000D+00 -.190793546138196D+03
 0.167215875643670D+03 -.334494286975252D+02 0.785708415280282D+02 0.710204734472117D+02
 0.107328863816860D+03 0.100380083376705D+02 -.625687085326881D+02 0.321972693719817D+02
 0.107042352815862D+03 0.234114203598547D+02 -.160021329953401D+02 -.103217742819193D+03
 0.000000000000000D+00 -.000000000000000D+00 -.000000000000000D+00 -.000000000000000D+00
 0.204188204803756D+03 0.000000000000000D+00 0.000000000000000D+00 0.204188204803756D+03
 0.291509725042214D+03 0.000000000000000D+00 0.000000000000000D+00 -.291509725042214D+03
 0.180583863435921D+03 -.246067254086424D+02 0.106471278518861D+03 0.710204734472117D+02
 0.992638020144444D+02 0.152905644506798D+02 -.459958793780481D+02 0.321972693719817D+02
 0.107182495103266D+03 0.288580223966130D+02 0.118294853190787D+01 -.103217742819193D+03
 0.108667769292339D+03 -.195418614386504D+02 -.616583476727205D+02 -.873215202384580D+02
0.554144547567D-03 0.000000000000D+00 0.000000000000D+00 0.359724138914D-04 0.000000000000D+00  6 -1 2 25 24 21 21 2 0.10618411D-01 0.81141142D-01 0.19899028D+05 0.19899028D+05 0.19899028D+05 0.12340681D+01  1  2  2  1  6  1       -1 0.304227680577D+00 0.100000000000D+01
0.724095449058D-04 0.292430111815D-04 -.212806097227D-05 0.359724138914D-04 0.000000000000D+00  6 -1 2 25 24 21 21 4 0.10618411D-01 0.81141142D-01 0.19899028D+05 0.19899028D+05 0.19899028D+05 0.12340681D+01  1  2  3  1  6  1       -1 0.605410211763D-01 0.100000000000D+01
0.260318133437D-04 0.000000000000D+00 0.000000000000D+00 0.359724138914D-04 0.000000000000D+00  6 -1 2 25 24 21 21 4 0.10618411D-01 0.81141142D-01 0.19899028D+05 0.19899028D+05 0.19899028D+05 0.12340681D+01  1  2 15  1  6  1       -1 0.217649836765D-01 0.100000000000D+01
-.260648058155D-04 0.000000000000D+00 0.000000000000D+00 0.359724138914D-04 0.000000000000D+00  6 -1 2 25 24 21 21 4 0.10618411D-01 0.81141142D-01 0.19899028D+05 0.19899028D+05 0.19899028D+05 0.12340681D+01  1  2  4  1  6  1       -1 -.217925684091D-01 0.100000000000D+01
  </mgrwgt>
  </event>
  <event>
  5     66 0.43135346E-03 0.10654264E+03 0.75467711E-02 0.96563010E-01
       -1 -1    0    0    0  501 0.00000000E+00 0.00000000E+00 0.97904934E+02 0.97905457E+02 0.32000000E+00 0.0000E+00 0.9000E+01
        2 -1    0    0  502    0 0.00000000E+00 0.00000000E+00 -.16823492E+04 0.16823492E+04 0.32000000E+00 0.0000E+00 0.9000E+01
       25  1    1    2    0    0 0.21986966E+02 -.44468346E+02 -.93581421E+03 0.94542800E+03 0.12500000E+03 0.0000E+00 0.9000E+01
       24  1    1    2    0    0 -.11803215E+03 -.16470553E+01 -.70149396E+03 0.71588777E+03 0.80419002E+02 0.0000E+00 0.9000E+01
       21  1    1    2  502  501 0.96045182E+02 0.46115401E+02 0.52863922E+02 0.11893891E+03 0.75000000E+00 0.0000E+00 0.9000E+01
#aMCatNLO 1  0  0  1  5 0.35932152D+02 0.00000000D+00  -5  6  0 0.00000000D+00 0.00000000D+00 0.00000000D+00 0.00000000D+00 0.00000000D+00
  <mgrwgt>
 0.1532664228D+00    5    4    0
 0.405845757827435D+03 0.000000000000000D+00 0.000000000000000D+00 0.405845757827435D+03
 0.405845757827435D+03 0.000000000000000D+00 0.000000000000000D+00 -.405845757827435D+03
 0.246839239328582D+03 0.219869043811991D+02 -.444683759165888D+02 -.206987317610008D+03
 0.200796230444184D+03 -.118032198655820D+03 -.164707952333574D+01 -.141129718400272D+03
 0.364056045882104D+03 0.960452942746213D+02 0.461154554399246D+02 0.348117036010280D+03
 0.000000000000000D+00 -.000000000000000D+00 0.000000000000000D+00 0.000000000000000D+00
 0.158940015571535D+04 0.000000000000000D+00 0.000000000000000D+00 0.158940015571535D+04
 0.642457896342236D+03 0.000000000000000D+00 0.000000000000000D+00 -.642457896342236D+03
 0.362406432579041D+03 0.444187899940859D+02 -.266264236837662D+03 -.206987317610008D+03
 0.254225782830670D+03 -.101278691452121D+03 -.167297824084782D+03 -.141129718400272D+03
 0.446010149807192D+03 0.125871213568676D+03 -.248789108614505D+03 0.348117036010280D+03
 0.116921568684069D+04 -.690113121106405D+02 0.682351169536948D+03 0.946942259373117D+03
 0.405845757827435D+03 0.000000000000000D+00 0.000000000000000D+00 0.405845757827435D+03
 0.405845757827435D+03 0.000000000000000D+00 0.000000000000000D+00 -.405845757827435D+03
 0.246839239328582D+03 0.219869043811991D+02 -.444683759165888D+02 -.206987317610008D+03
 0.200796230444184D+03 -.118032198655820D+03 -.164707952333574D+01 -.141129718400272D+03
 0.000000000000000D+00 -.000000000000000D+00 0.000000000000000D+00 0.000000000000000D+00
 0.364056045882104D+03 0.960452942746213D+02 0.461154554399246D+02 0.348117036010280D+03
 0.158940015571535D+04 0.000000000000000D+00 0.000000000000000D+00 0.158940015571535D+04
 0.642457896342236D+03 0.000000000000000D+00 0.000000000000000D+00 -.642457896342236D+03
 0.362406432579041D+03 0.444187899940859D+02 -.266264236837662D+03 -.206987317610008D+03
 0.254225782830670D+03 -.101278691452121D+03 -.167297824084782D+03 -.141129718400272D+03
 0.116921568684069D+04 -.690113121106405D+02 0.682351169536948D+03 0.946942259373117D+03
 0.446010149807192D+03 0.125871213568676D+03 -.248789108614505D+03 0.348117036010280D+03
0.198475378959D-02 0.000000000000D+00 0.000000000000D+00 0.846103120613D-05 0.000000000000D+00  6 -1 2 25 24 21 21 2 0.15062340D-01 0.25882299D+00 0.36837171D+05 0.36837171D+05 0.36837171D+05 0.12056501D+01  1  2  2  1  6  1       -1 0.116872916970D+00 0.100000000000D+01
0.121783939478D-04 0.104738335000D-03 -.762197714968D-05 0.846103120613D-05 0.000000000000D+00  6 -1 2 25 24 21 21 4 0.15062340D-01 0.25882299D+00 0.36837171D+05 0.36837171D+05 0.36837171D+05 0.12056501D+01  1  2  3  1  6  1       -1 0.104241305370D-02 0.100000000000D+01
0.958920074353D-04 0.000000000000D+00 0.000000000000D+00 0.846103120613D-05 0.000000000000D+00  6 -1 2 25 24 21 21 4 0.15062340D-01 0.25882299D+00 0.36837171D+05 0.36837171D+05 0.36837171D+05 0.12056501D+01  1  2 15  1  6  1       -1 0.820790333476D-02 0.100000000000D+01
0.326621485024D-02 0.000000000000D+00 -.166961861612D-02 0.846103120613D-05 0.000000000000D+00  6 -1 2 25 24 21 21 4 0.95142445D-01 0.25882299D+00 0.36837171D+05 0.36837171D+05 0.36837171D+05 0.12056501D+01  1  2  5  1  6  1       -1 0.102627779410D-01 0.100000000000D+01
0.614086643229D-03 0.000000000000D+00 -.377092503762D-03 0.846103120613D-05 0.000000000000D+00  6 21 2 25 24 1 21 4 0.95142445D-01 0.25882299D+00 0.36837171D+05 0.36837171D+05 0.36837171D+05 0.12056501D+01  3  4  5  4  5  1       -1 0.168804115160D-01 0.100000000000D+01
  </mgrwgt>
  </event>
  <event>
  5     66 0.43135346E-03 0.23930862E+02 0.75467711E-02 0.11424939E+00
       -1 -1    0    0    0  501 0.00000000E+00 0.00000000E+00 0.73421225E+02 0.73421923E+02 0.32000000E+00 0.0000E+00 0.9000E+01
        2 -1    0    0  502    0 -.00000000E+00 -.00000000E+00 -.68781915E+03 0.68781922E+03 0.32000000E+00 0.0000E+00 0.9000E+01
       25  1    1    2    0    0 0.24535631E+02 0.17773877E+03 -.37277444E+03 0.43217919E+03 0.12500000E+03 0.0000E+00 0.9000E+01
       24  1    1    2    0    0 -.21205336E+02 -.15404300E+03 -.24866642E+03 0.30410708E+03 0.80419002E+02 0.0000E+00 0.9000E+01
       21  1    1    2  502  501 -.33302952E+01 -.23695769E+02 0.70429349E+01 0.24954875E+02 0.75000000E+00 0.0000E+00 0.9000E+01
#aMCatNLO 1  0  0  5  1 0.59955277D+01 0.00000000D+00  -5  6  0 0.00000000D+00 0.00000000D+00 0.00000000D+00 0.00000000D+00 0.00000000D+00
  <mgrwgt>
 0.2920312098D+00   20    2    0
 0.224723871313680D+03 0.000000000000000D+00 0.000000000000000D+00 0.224723871313680D+03
 0.224723871313680D+03 -.000000000000000D+00 -.000000000000000D+00 -.224723871313680D+03
 0.222409356220750D+03 0.245358031883111D+02 0.177739997846238D+03 -.405882897157805D+02
 0.175144565025568D+03 -.212052003143928D+02 -.154042039203930D+03 -.545823608379769D+01
 0.518938213810424D+02 -.333060287391832D+01 -.236979586423084D+02 0.460465257995782D+02
 0.000000000000000D+00 0.000000000000000D+00 -.000000000000000D+00 0.000000000000000D+00
 0.224723871313680D+03 0.000000000000000D+00 0.000000000000000D+00 0.224723871313680D+03
 0.224723871313680D+03 -.000000000000000D+00 -.000000000000000D+00 -.224723871313680D+03
 0.222017726340498D+03 0.244886250006160D+02 0.177404314853357D+03 -.399360379406174D+02
 0.175366705628195D+03 -.212424088625776D+02 -.154306786058900D+03 -.494381739180209D+01
 0.200344688815158D+02 -.423781907564868D+01 -.403433627229003D+01 0.191610272085966D+02
 0.320288417771518D+02 0.991602937610228D+00 -.190631925221669D+02 0.257188281238230D+02
0.216979532712D-03 0.000000000000D+00 0.000000000000D+00 0.296614397544D-04 0.000000000000D+00  6 -1 2 25 24 21 21 2 0.11295632D-01 0.10581839D+00 0.43610971D+05 0.43610971D+05 0.43610971D+05 0.11982071D+01  1  2  2  3  6  5       21 0.760589366514D-01 0.100000000000D+01
0.511404090219D-04 0.114503245211D-04 -.833258537638D-06 0.296614397544D-04 0.000000000000D+00  6 -1 2 25 24 21 21 4 0.11295632D-01 0.10581839D+00 0.43610971D+05 0.43610971D+05 0.43610971D+05 0.11982071D+01  1  2  3  3  6  5       21 0.257370900609D-01 0.100000000000D+01
0.709813764890D-05 0.000000000000D+00 0.000000000000D+00 0.296614397544D-04 0.000000000000D+00  6 -1 2 25 24 21 21 4 0.11295632D-01 0.10581839D+00 0.43610971D+05 0.43610971D+05 0.43610971D+05 0.11982071D+01  1  2 15  3  6  5       21 0.357223204563D-02 0.100000000000D+01
0.167076693258D-03 0.000000000000D+00 0.000000000000D+00 0.296514254651D-04 0.000000000000D+00  6 -1 2 25 24 21 21 4 0.11295632D-01 0.10581839D+00 0.43813487D+05 0.43813487D+05 0.43813487D+05 0.11980048D+01  1  2 12  3  6  5       21 0.840304950581D-01 0.100000000000D+01
0.178946401665D-03 0.000000000000D+00 0.000000000000D+00 0.296514254651D-04 0.000000000000D+00  6 -1 2 25 24 21 21 4 0.11295632D-01 0.10581839D+00 0.43813487D+05 0.43813487D+05 0.43813487D+05 0.11980048D+01  1  2 12  3  6  5       21 0.900003131952D-01 0.100000000000D+01
-.107966878244D-02 0.000000000000D+00 0.000000000000D+00 0.296614397544D-04 0.000000000000D+00  6 -1 2 25 24 21 21 4 0.11295632D-01 0.10581839D+00 0.43610971D+05 0.43610971D+05 0.43610971D+05 0.11982071D+01  1  2  4  3  6  5       21 -.543357654369D+00 0.100000000000D+01
-.449509108485D-03 0.000000000000D+00 0.000000000000D+00 0.296614397544D-04 0.000000000000D+00  6 -1 2 25 24 21 21 4 0.11295632D-01 0.10581839D+00 0.43610971D+05 0.43610971D+05 0.43610971D+05 0.11982071D+01  1  2  5  3  6  5       21 -.226221428994D+00 0.100000000000D+01
0.155306104981D-02 0.000000000000D+00 -.000000000000D+00 0.296614397544D-04 0.000000000000D+00  6 -1 2 25 24 21 21 4 0.11295632D-01 0.10581839D+00 0.43610971D+05 0.43610971D+05 0.43610971D+05 0.11982071D+01  1  2  6  3  6  5       21 0.781598600277D+00 0.100000000000D+01
0.107728971771D-04 0.000000000000D+00 0.000000000000D+00 0.296514254651D-04 0.000000000000D+00  6 -1 2 25 24 1 -1 4 0.11295632D-01 0.10581839D+00 0.43813487D+05 0.43813487D+05 0.43813487D+05 0.11980048D+01  1  2 12  6  6  5       21 0.541818170657D-02 0.100000000000D+01
0.114845333223D-04 0.000000000000D+00 0.000000000000D+00 0.296514254651D-04 0.000000000000D+00  6 -1 2 25 24 1 -1 4 0.11295632D-01 0.10581839D+00 0.43813487D+05 0.43813487D+05 0.43813487D+05 0.11980048D+01  1  2 12  6  6  5       21 0.577609600577D-02 0.100000000000D+01
-.219390558398D-04 0.000000000000D+00 0.000000000000D+00 0.296614397544D-04 0.000000000000D+00  6 -1 2 25 24 1 -1 4 0.11295632D-01 0.10581839D+00 0.43610971D+05 0.43610971D+05 0.43610971D+05 0.11982071D+01  1  2  5  6  6  5       21 -.110411212347D-01 0.100000000000D+01
0.107728971771D-04 0.000000000000D+00 0.000000000000D+00 0.296514254651D-04 0.000000000000D+00  6 -1 2 25 24 2 -2 4 0.11295632D-01 0.10581839D+00 0.43813487D+05 0.43813487D+05 0.43813487D+05 0.11980048D+01  1  2 12  7  6  5       21 0.541818170657D-02 0.100000000000D+01
0.114845333223D-04 0.000000000000D+00 0.000000000000D+00 0.296514254651D-04 0.000000000000D+00  6 -1 2 25 24 2 -2 4 0.11295632D-01 0.10581839D+00 0.43813487D+05 0.43813487D+05 0.43813487D+05 0.11980048D+01  1  2 12  7  6  5       21 0.577609600577D-02 0.100000000000D+01
-.219390558398D-04 0.000000000000D+00 0.000000000000D+00 0.296614397544D-04 0.000000000000D+00  6 -1 2 25 24 2 -2 4 0.11295632D-01 0.10581839D+00 0.43610971D+05 0.43610971D+05 0.43610971D+05 0.11982071D+01  1  2  5  7  6  5       21 -.110411212347D-01 0.100000000000D+01
0.107728971771D-04 0.000000000000D+00 0.000000000000D+00 0.296514254651D-04 0.000000000000D+00  6 -1 2 25 24 3 -3 4 0.11295632D-01 0.10581839D+00 0.43813487D+05 0.43813487D+05 0.43813487D+05 0.11980048D+01  1  2 12  8  6  5       21 0.541818170657D-02 0.100000000000D+01
0.107728971771D-04 0.000000000000D+00 0.000000000000D+00 0.296514254651D-04 0.000000000000D+00  6 -1 2 25 24 4 -4 4 0.11295632D-01 0.10581839D+00 0.43813487D+05 0.43813487D+05 0.43813487D+05 0.11980048D+01  1  2 12  8  6  5       21 0.541818170657D-02 0.100000000000D+01
0.114845333223D-04 0.000000000000D+00 0.000000000000D+00 0.296514254651D-04 0.000000000000D+00  6 -1 2 25 24 3 -3 4 0.11295632D-01 0.10581839D+00 0.43813487D+05 0.43813487D+05 0.43813487D+05 0.11980048D+01  1  2 12  8  6  5       21 0.577609600577D-02 0.100000000000D+01
0.114845333223D-04 0.000000000000D+00 0.000000000000D+00 0.296514254651D-04 0.000000000000D+00  6 -1 2 25 24 4 -4 4 0.11295632D-01 0.10581839D+00 0.43813487D+05 0.43813487D+05 0.43813487D+05 0.11980048D+01  1  2 12  8  6  5       21 0.577609600577D-02 0.100000000000D+01
-.219390558398D-04 0.000000000000D+00 0.000000000000D+00 0.296614397544D-04 0.000000000000D+00  6 -1 2 25 24 3 -3 4 0.11295632D-01 0.10581839D+00 0.43610971D+05 0.43610971D+05 0.43610971D+05 0.11982071D+01  1  2  5  8  6  5       21 -.110411212347D-01 0.100000000000D+01
-.219390558398D-04 0.000000000000D+00 0.000000000000D+00 0.296614397544D-04 0.000000000000D+00  6 -1 2 25 24 4 -4 4 0.11295632D-01 0.10581839D+00 0.43610971D+05 0.43610971D+05 0.43610971D+05 0.11982071D+01  1  2  5  8  6  5       21 -.110411212347D-01 0.100000000000D+01
  </mgrwgt>
  </event>
  <event>
  5     66 0.43135346E-03 0.29091627E+02 0.75467711E-02 0.12114264E+00
       -1 -1    0    0    0  501 0.00000000E+00 0.00000000E+00 0.58426624E+02 0.58427500E+02 0.32000000E+00 0.0000E+00 0.9000E+01
        2 -1    0    0  502    0 -.00000000E+00 -.00000000E+00 -.38512884E+03 0.38512897E+03 0.32000000E+00 0.0000E+00 0.9000E+01
       25  1    1    2    0    0 0.86192586E+02 0.62988739E+01 -.12219277E+03 0.19499977E+03 0.12500000E+03 0.0000E+00 0.9000E+01
       24  1    1    2    0    0 -.60664091E+02 -.20241143E+02 -.11392813E+03 0.15341666E+03 0.80419002E+02 0.0000E+00 0.9000E+01
       21  1    1    2  502  501 -.25528495E+02 0.13942269E+02 -.90581311E+02 0.95140040E+02 0.75000000E+00 0.0000E+00 0.9000E+01
#aMCatNLO 1  0  0  5  1 0.36566887D+01 0.00000000D+00  -5  6  0 0.00000000D+00 0.00000000D+00 0.00000000D+00 0.00000000D+00 0.00000000D+00
  <mgrwgt>
 0.4129570960D+00   25    2    0
 0.150006671180947D+03 0.000000000000000D+00 0.000000000000000D+00 0.150006671180947D+03
 0.150006671180947D+03 -.000000000000000D+00 -.000000000000000D+00 -.150006671180947D+03
 0.155237266285540D+03 0.861946901137661D+02 0.629772450025309D+01 0.316926317322878D+02
 0.102755996770414D+03 -.606626979764850D+02 -.202419039507496D+02 -.137161094090342D+01
 0.420200793059389D+02 -.255319921372811D+02 0.139441794504965D+02 -.303210207913844D+02
 0.000000000000000D+00 0.000000000000000D+00 0.000000000000000D+00 0.000000000000000D+00
 0.150006671180947D+03 0.000000000000000D+00 0.000000000000000D+00 0.150006671180947D+03
 0.150006671180947D+03 -.000000000000000D+00 -.000000000000000D+00 -.150006671180947D+03
 0.154886357520610D+03 0.857404087357070D+02 0.654582817436573D+01 0.311531409226711D+02
 0.102907298768958D+03 -.609639617246869D+02 -.200773701476578D+02 -.172938264644856D+01
 0.362772836339770D+02 -.196863675793738D+02 0.105853377558111D+02 -.285733943378310D+02
 0.594240243834838D+01 -.509007943164632D+01 0.294620421748102D+01 -.850363938391611D+00
0.133603768690D-03 0.000000000000D+00 0.000000000000D+00 0.261882622275D-04 0.000000000000D+00  6 -1 2 25 24 21 21 2 0.89887889D-02 0.59250668D-01 0.20136487D+05 0.20136487D+05 0.20136487D+05 0.12335010D+01  1  2  2  3  6  5       21 0.132960981303D+00 0.100000000000D+01
0.147121014176D-04 0.705046457435D-05 -.513073650450D-06 0.261882622275D-04 0.000000000000D+00  6 -1 2 25 24 21 21 4 0.89887889D-02 0.59250668D-01 0.20136487D+05 0.20136487D+05 0.20136487D+05 0.12335010D+01  1  2  3  3  6  5       21 0.222771292438D-01 0.100000000000D+01
0.364896134672D-05 0.000000000000D+00 0.000000000000D+00 0.261882622275D-04 0.000000000000D+00  6 -1 2 25 24 21 21 4 0.89887889D-02 0.59250668D-01 0.20136487D+05 0.20136487D+05 0.20136487D+05 0.12335010D+01  1  2 15  3  6  5       21 0.552527346154D-02 0.100000000000D+01
0.103861561513D-04 0.000000000000D+00 0.000000000000D+00 0.262020071901D-04 0.000000000000D+00  6 -1 2 25 24 21 21 4 0.89887889D-02 0.59250668D-01 0.20000580D+05 0.20000580D+05 0.20000580D+05 0.12338247D+01  1  2 12  3  6  5       21 0.157401854347D-01 0.100000000000D+01
0.925480049423D-05 0.000000000000D+00 0.000000000000D+00 0.262020071901D-04 0.000000000000D+00  6 -1 2 25 24 21 21 4 0.89887889D-02 0.59250668D-01 0.20000580D+05 0.20000580D+05 0.20000580D+05 0.12338247D+01  1  2 12  3  6  5       21 0.140256196631D-01 0.100000000000D+01
-.113314550571D-02 0.000000000000D+00 0.000000000000D+00 0.261882622275D-04 0.000000000000D+00  6 -1 2 25 24 21 21 4 0.89887889D-02 0.59250668D-01 0.20136487D+05 0.20136487D+05 0.20136487D+05 0.12335010D+01  1  2  4  3  6  5       21 -.171581395248D+01 0.100000000000D+01
-.107987957638D-02 0.000000000000D+00 0.000000000000D+00 0.261882622275D-04 0.000000000000D+00  6 -1 2 25 24 21 21 4 0.89887889D-02 0.59250668D-01 0.20136487D+05 0.20136487D+05 0.20136487D+05 0.12335010D+01  1  2  5  3  6  5       21 -.163515844595D+01 0.100000000000D+01
0.130668597435D-02 0.000000000000D+00 -.000000000000D+00 0.261882622275D-04 0.000000000000D+00  6 -1 2 25 24 21 21 4 0.89887889D-02 0.59250668D-01 0.20136487D+05 0.20136487D+05 0.20136487D+05 0.12335010D+01  1  2  6  3  6  5       21 0.197858970009D+01 0.100000000000D+01
0.106193406945D-02 0.000000000000D+00 0.000000000000D+00 0.261882622275D-04 0.140752690481D-04  6 -1 2 25 24 21 21 4 0.89887889D-02 0.59250668D-01 0.20000580D+05 0.20000580D+05 0.20000580D+05 0.12338247D+01  1  2 11  3  6  5       21 0.160935758417D+01 0.100000000000D+01
0.327837952441D-06 0.000000000000D+00 0.000000000000D+00 0.262020071901D-04 0.000000000000D+00  6 -1 2 25 24 1 -1 4 0.89887889D-02 0.59250668D-01 0.20000580D+05 0.20000580D+05 0.20000580D+05 0.12338247D+01  1  2 12  6  6  5       21 0.496837337007D-03 0.100000000000D+01
0.311702813274D-06 0.000000000000D+00 0.000000000000D+00 0.262020071901D-04 0.000000000000D+00  6 -1 2 25 24 1 -1 4 0.89887889D-02 0.59250668D-01 0.20000580D+05 0.20000580D+05 0.20000580D+05 0.12338247D+01  1  2 12  6  6  5       21 0.472384586750D-03 0.100000000000D+01
-.744747020201D-05 0.000000000000D+00 0.000000000000D+00 0.261882622275D-04 0.000000000000D+00  6 -1 2 25 24 1 -1 4 0.89887889D-02 0.59250668D-01 0.20136487D+05 0.20136487D+05 0.20136487D+05 0.12335010D+01  1  2  5  6  6  5       21 -.112769924241D-01 0.100000000000D+01
0.421158006180D-05 0.000000000000D+00 0.000000000000D+00 0.261882622275D-04 0.105498068818D-06  6 -1 2 25 24 1 -1 4 0.89887889D-02 0.59250668D-01 0.20000580D+05 0.20000580D+05 0.20000580D+05 0.12338247D+01  1  2 11  6  6  5       21 0.638263571046D-02 0.100000000000D+01
0.327837952441D-06 0.000000000000D+00 0.000000000000D+00 0.262020071901D-04 0.000000000000D+00  6 -1 2 25 24 2 -2 4 0.89887889D-02 0.59250668D-01 0.20000580D+05 0.20000580D+05 0.20000580D+05 0.12338247D+01  1  2 12  7  6  5       21 0.496837337007D-03 0.100000000000D+01
0.311702813274D-06 0.000000000000D+00 0.000000000000D+00 0.262020071901D-04 0.000000000000D+00  6 -1 2 25 24 2 -2 4 0.89887889D-02 0.59250668D-01 0.20000580D+05 0.20000580D+05 0.20000580D+05 0.12338247D+01  1  2 12  7  6  5       21 0.472384586750D-03 0.100000000000D+01
-.744747020201D-05 0.000000000000D+00 0.000000000000D+00 0.261882622275D-04 0.000000000000D+00  6 -1 2 25 24 2 -2 4 0.89887889D-02 0.59250668D-01 0.20136487D+05 0.20136487D+05 0.20136487D+05 0.12335010D+01  1  2  5  7  6  5       21 -.112769924241D-01 0.100000000000D+01
0.458609342205D-05 0.000000000000D+00 0.000000000000D+00 0.261882622275D-04 0.114601806535D-06  6 -1 2 25 24 2 -2 4 0.89887889D-02 0.59250668D-01 0.20000580D+05 0.20000580D+05 0.20000580D+05 0.12338247D+01  1  2 11  7  6  5       21 0.695020947424D-02 0.100000000000D+01
0.327837952441D-06 0.000000000000D+00 0.000000000000D+00 0.262020071901D-04 0.000000000000D+00  6 -1 2 25 24 3 -3 4 0.89887889D-02 0.59250668D-01 0.20000580D+05 0.20000580D+05 0.20000580D+05 0.12338247D+01  1  2 12  8  6  5       21 0.496837337007D-03 0.100000000000D+01
0.327837952441D-06 0.000000000000D+00 0.000000000000D+00 0.262020071901D-04 0.000000000000D+00  6 -1 2 25 24 4 -4 4 0.89887889D-02 0.59250668D-01 0.20000580D+05 0.20000580D+05 0.20000580D+05 0.12338247D+01  1  2 12  8  6  5       21 0.496837337007D-03 0.100000000000D+01
0.311702813274D-06 0.000000000000D+00 0.000000000000D+00 0.262020071901D-04 0.000000000000D+00  6 -1 2 25 24 3 -3 4 0.89887889D-02 0.59250668D-01 0.20000580D+05 0.20000580D+05 0.20000580D+05 0.12338247D+01  1  2 12  8  6  5       21 0.472384586750D-03 0.100000000000D+01
0.311702813274D-06 0.000000000000D+00 0.000000000000D+00 0.262020071901D-04 0.000000000000D+00  6 -1 2 25 24 4 -4 4 0.89887889D-02 0.59250668D-01 0.20000580D+05 0.20000580D+05 0.20000580D+05 0.12338247D+01  1  2 12  8  6  5       21 0.472384586750D-03 0.100000000000D+01
-.744747020201D-05 0.000000000000D+00 0.000000000000D+00 0.261882622275D-04 0.000000000000D+00  6 -1 2 25 24 3 -3 4 0.89887889D-02 0.59250668D-01 0.20136487D+05 0.20136487D+05 0.20136487D+05 0.12335010D+01  1  2  5  8  6  5       21 -.112769924241D-01 0.100000000000D+01
-.744747020201D-05 0.000000000000D+00 0.000000000000D+00 0.261882622275D-04 0.000000000000D+00  6 -1 2 25 24 4 -4 4 0.89887889D-02 0.59250668D-01 0.20136487D+05 0.20136487D+05 0.20136487D+05 0.12335010D+01  1  2  5  8  6  5       21 -.112769924241D-01 0.100000000000D+01
0.440491155696D-05 0.000000000000D+00 0.000000000000D+00 0.261882622275D-04 0.108790934443D-06  6 -1 2 25 24 3 -3 4 0.89887889D-02 0.59250668D-01 0.20000580D+05 0.20000580D+05 0.20000580D+05 0.12338247D+01  1  2 11  8  6  5       21 0.667562895452D-02 0.100000000000D+01
0.440491155696D-05 0.000000000000D+00 0.000000000000D+00 0.261882622275D-04 0.108790934443D-06  6 -1 2 25 24 4 -4 4 0.89887889D-02 0.59250668D-01 0.20000580D+05 0.20000580D+05 0.20000580D+05 0.12338247D+01  1  2 11  8  6  5       21 0.667562895452D-02 0.100000000000D+01
  </mgrwgt>
  </event>
  <event>
  5     66 0.43135346E-03 0.65363528E+02 0.75467711E-02 0.11541666E+00
       -1 -1    0    0    0  501 0.00000000E+00 0.00000000E+00 0.29906151E+03 0.29906168E+03 0.32000000E+00 0.0000E+00 0.9000E+01
        2 -1    0    0  502    0 0.00000000E+00 0.00000000E+00 -.15877995E+03 0.15878027E+03 0.32000000E+00 0.0000E+00 0.9000E+01
       25  1    1    2    0    0 0.10053142E+03 -.40067600E+02 -.45110357E+02 0.17138239E+03 0.12500000E+03 0.0000E+00 0.9000E+01
       24  1    1    2    0    0 -.11789432E+03 -.28555127E+02 0.10573360E+03 0.17989240E+03 0.80419002E+02 0.0000E+00 0.9000E+01
       21  1    1    2  502  501 0.17362906E+02 0.68622727E+02 0.79658316E+02 0.10656716E+03 0.75000000E+00 0.0000E+00 0.9000E+01
#aMCatNLO 1  0  0  5  2 0.29669415D+02 0.00000000D+00  -5  6  0 0.00000000D+00 0.00000000D+00 0.00000000D+00 0.00000000D+00 0.00000000D+00
  <mgrwgt>
 0.1447357197D+00   15    2    0
 0.217910723666501D+03 0.000000000000000D+00 0.000000000000000D+00 0.217910723666501D+03
 0.217910723666501D+03 -.000000000000000D+00 -.000000000000000D+00 -.217910723666501D+03
 0.194562307715505D+03 0.100531125850630D+03 -.400687564047883D+02 -.102554761366606D+03
 0.154948470186351D+03 -.117894557393487D+03 -.285560481243757D+02 0.531717773939537D+02
 0.863106694311465D+02 0.173634315428565D+02 0.686248045291640D+02 0.493829839726521D+02
 0.000000000000000D+00 0.000000000000000D+00 0.000000000000000D+00 0.000000000000000D+00
 0.217910723666501D+03 0.000000000000000D+00 0.000000000000000D+00 0.217910723666501D+03
 0.217910723666501D+03 -.000000000000000D+00 -.000000000000000D+00 -.217910723666501D+03
 0.190781709966674D+03 0.102796699526359D+03 -.311146190696916D+02 -.961112891623231D+02
 0.154277406574453D+03 -.116076509171388D+03 -.213706479597738D+02 0.583424515197332D+02
 0.554228296710762D+02 0.381396808118864D+02 0.297868839670028D+02 0.270147430091951D+02
 0.353395011207999D+02 -.248598711668568D+02 0.226983830624626D+02 0.107540946333948D+02
0.618394965133D-03 0.000000000000D+00 0.000000000000D+00 0.317507580729D-05 0.000000000000D+00  6 -1 2 25 24 21 21 2 0.46009500D-01 0.24427722D-01 0.36417255D+05 0.36417255D+05 0.36417255D+05 0.12061608D+01  1  2  2  3  6  5       21 0.107804134876D+00 0.100000000000D+01
-.732351850312D-05 0.326335988676D-04 -.237479949325D-05 0.317507580729D-05 0.000000000000D+00  6 -1 2 25 24 21 21 4 0.46009500D-01 0.24427722D-01 0.36417255D+05 0.36417255D+05 0.36417255D+05 0.12061608D+01  1  2  3  3  6  5       21 -.185737540807D-02 0.100000000000D+01
0.152202507977D-04 0.000000000000D+00 0.000000000000D+00 0.317507580729D-05 0.000000000000D+00  6 -1 2 25 24 21 21 4 0.46009500D-01 0.24427722D-01 0.36417255D+05 0.36417255D+05 0.36417255D+05 0.12061608D+01  1  2 15  3  6  5       21 0.386012809612D-02 0.100000000000D+01
0.269708374691D-03 0.000000000000D+00 0.000000000000D+00 0.316535222110D-05 0.000000000000D+00  6 -1 2 25 24 21 21 4 0.46009500D-01 0.24427722D-01 0.37962780D+05 0.37962780D+05 0.37962780D+05 0.12043125D+01  1  2 12  3  6  5       21 0.680091304640D-01 0.100000000000D+01
-.354431446640D-03 0.000000000000D+00 0.000000000000D+00 0.317507580729D-05 0.000000000000D+00  6 -1 2 25 24 21 21 4 0.46009500D-01 0.24427722D-01 0.36417255D+05 0.36417255D+05 0.36417255D+05 0.12061608D+01  1  2  4  3  6  5       21 -.898901603861D-01 0.100000000000D+01
-.324365756673D-03 0.000000000000D+00 0.000000000000D+00 0.317507580729D-05 0.000000000000D+00  6 -1 2 25 24 21 21 4 0.46009500D-01 0.24427722D-01 0.36417255D+05 0.36417255D+05 0.36417255D+05 0.12061608D+01  1  2  5  3  6  5       21 -.822649631332D-01 0.100000000000D+01
0.593108767594D-03 0.000000000000D+00 -.000000000000D+00 0.317507580729D-05 0.000000000000D+00  6 -1 2 25 24 21 21 4 0.46009500D-01 0.24427722D-01 0.36417255D+05 0.36417255D+05 0.36417255D+05 0.12061608D+01  1  2  6  3  6  5       21 0.150423002109D+00 0.100000000000D+01
0.658415764229D-05 0.000000000000D+00 0.000000000000D+00 0.316535222110D-05 0.000000000000D+00  6 -1 2 25 24 1 -1 4 0.46009500D-01 0.24427722D-01 0.37962780D+05 0.37962780D+05 0.37962780D+05 0.12043125D+01  1  2 12  6  6  5       21 0.166024817214D-02 0.100000000000D+01
-.177325509843D-04 0.000000000000D+00 0.000000000000D+00 0.317507580729D-05 0.000000000000D+00  6 -1 2 25 24 1 -1 4 0.46009500D-01 0.24427722D-01 0.36417255D+05 0.36417255D+05 0.36417255D+05 0.12061608D+01  1  2  5  6  6  5       21 -.449729240207D-02 0.100000000000D+01
0.658415764229D-05 0.000000000000D+00 0.000000000000D+00 0.316535222110D-05 0.000000000000D+00  6 -1 2 25 24 2 -2 4 0.46009500D-01 0.24427722D-01 0.37962780D+05 0.37962780D+05 0.37962780D+05 0.12043125D+01  1  2 12  7  6  5       21 0.166024817214D-02 0.100000000000D+01
-.177325509843D-04 0.000000000000D+00 0.000000000000D+00 0.317507580729D-05 0.000000000000D+00  6 -1 2 25 24 2 -2 4 0.46009500D-01 0.24427722D-01 0.36417255D+05 0.36417255D+05 0.36417255D+05 0.12061608D+01  1  2  5  7  6  5       21 -.449729240207D-02 0.100000000000D+01
0.658415764229D-05 0.000000000000D+00 0.000000000000D+00 0.316535222110D-05 0.000000000000D+00  6 -1 2 25 24 3 -3 4 0.46009500D-01 0.24427722D-01 0.37962780D+05 0.37962780D+05 0.37962780D+05 0.12043125D+01  1  2 12  8  6  5       21 0.166024817214D-02 0.100000000000D+01
0.658415764229D-05 0.000000000000D+00 0.000000000000D+00 0.316535222110D-05 0.000000000000D+00  6 -1 2 25 24 4 -4 4 0.46009500D-01 0.24427722D-01 0.37962780D+05 0.37962780D+05 0.37962780D+05 0.12043125D+01  1  2 12  8  6  5       21 0.166024817214D-02 0.100000000000D+01
-.177325509843D-04 0.000000000000D+00 0.000000000000D+00 0.317507580729D-05 0.000000000000D+00  6 -1 2 25 24 3 -3 4 0.46009500D-01 0.24427722D-01 0.36417255D+05 0.36417255D+05 0.36417255D+05 0.12061608D+01  1  2  5  8  6  5       21 -.449729240207D-02 0.100000000000D+01
-.177325509843D-04 0.000000000000D+00 0.000000000000D+00 0.317507580729D-05 0.000000000000D+00  6 -1 2 25 24 4 -4 4 0.46009500D-01 0.24427722D-01 0.36417255D+05 0.36417255D+05 0.36417255D+05 0.12061608D+01  1  2  5  8  6  5       21 -.449729240207D-02 0.100000000000D+01
  </mgrwgt>
  </event>
  <event>
  5     66 0.43135346E-03 0.58959246E+02 0.75467711E-02 0.12077289E+00
       -1 -1    0    0    0  501 0.00000000E+00 0.00000000E+00 0.29200369E+02 0.29202123E+02 0.32000000E+00 0.0000E+00 0.9000E+01
        2 -1    0    0  502    0 -.00000000E+00 -.00000000E+00 -.72107216E+03 0.72107223E+03 0.32000000E+00 0.0000E+00 0.9000E+01
       25  1    1    2    0    0 0.84701440E+01 -.24151871E+01 -.31494120E+03 0.33895507E+03 0.12500000E+03 0.0000E+00 0.9000E+01
       24  1    1    2    0    0 -.22788203E+02 0.60514089E+02 -.20993829E+03 0.23392854E+03 0.80419002E+02 0.0000E+00 0.9000E+01
       21  1    1    2  502  501 0.14318059E+02 -.58098902E+02 -.16699229E+03 0.17739074E+03 0.75000000E+00 0.0000E+00 0.9000E+01
#aMCatNLO 1  0  0  5  1 0.16922383D+02 0.00000000D+00  -5  6  0 0.00000000D+00 0.00000000D+00 0.00000000D+00 0.00000000D+00 0.00000000D+00
  <mgrwgt>
 0.1994631245D+00   20    2    0
 0.145107744963052D+03 0.000000000000000D+00 0.000000000000000D+00 0.145107744963052D+03
 0.145107744963052D+03 -.000000000000000D+00 -.000000000000000D+00 -.145107744963052D+03
 0.125459656928167D+03 0.846966812405766D+01 -.241325616636463D+01 -.612914619478674D+01
 0.104269085882215D+03 -.227885984452165D+02 0.605156935169959D+02 0.149451308258518D+02
 0.604867471157228D+02 0.143189303211588D+02 -.581024373506312D+02 -.881598463106511D+01
 0.000000000000000D+00 0.000000000000000D+00 0.000000000000000D+00 -.000000000000000D+00
 0.145107744963052D+03 0.000000000000000D+00 0.000000000000000D+00 0.145107744963052D+03
 0.145107744963052D+03 -.000000000000000D+00 -.000000000000000D+00 -.145107744963052D+03
 0.125770720088627D+03 0.966468182523763D+01 -.726230614067417D+01 -.686490104429161D+01
 0.101711865012177D+03 -.218088201977618D+02 0.565400121662652D+02 0.143418937279907D+02
 0.224294460676695D+02 0.199230873971222D+02 -.102311593350067D+02 -.121409148371626D+01
 0.403034587576305D+02 -.777894902459797D+01 -.390465466905843D+02 -.626290119998284D+01
0.918793271176D-04 0.000000000000D+00 0.000000000000D+00 0.715878431967D-05 0.000000000000D+00  6 -1 2 25 24 21 21 2 0.44925048D-02 0.11093432D+00 0.20785443D+05 0.20785443D+05 0.20785443D+05 0.12319885D+01  1  2  2  3  6  5       21 0.127800383384D+00 0.100000000000D+01
-.178901471528D-05 0.484860529990D-05 -.352840808514D-06 0.715878431967D-05 0.000000000000D+00  6 -1 2 25 24 21 21 4 0.44925048D-02 0.11093432D+00 0.20785443D+05 0.20785443D+05 0.20785443D+05 0.12319885D+01  1  2  3  3  6  5       21 -.377695315231D-02 0.100000000000D+01
0.460049211527D-05 0.000000000000D+00 0.000000000000D+00 0.715878431967D-05 0.000000000000D+00  6 -1 2 25 24 21 21 4 0.44925048D-02 0.11093432D+00 0.20785443D+05 0.20785443D+05 0.20785443D+05 0.12319885D+01  1  2 15  3  6  5       21 0.971252111482D-02 0.100000000000D+01
0.172863138829D-04 0.000000000000D+00 0.000000000000D+00 0.715822376010D-05 0.000000000000D+00  6 -1 2 25 24 21 21 4 0.44925048D-02 0.11093432D+00 0.20806521D+05 0.20806521D+05 0.20806521D+05 0.12319403D+01  1  2 12  3  6  5       21 0.364900737402D-01 0.100000000000D+01
0.166828879159D-04 0.000000000000D+00 0.000000000000D+00 0.715822376010D-05 0.000000000000D+00  6 -1 2 25 24 21 21 4 0.44925048D-02 0.11093432D+00 0.20806521D+05 0.20806521D+05 0.20806521D+05 0.12319403D+01  1  2 12  3  6  5       21 0.352162881210D-01 0.100000000000D+01
-.521381625048D-04 0.000000000000D+00 0.000000000000D+00 0.715878431967D-05 0.000000000000D+00  6 -1 2 25 24 21 21 4 0.44925048D-02 0.11093432D+00 0.20785443D+05 0.20785443D+05 0.20785443D+05 0.12319885D+01  1  2  4  3  6  5       21 -.110073659845D+00 0.100000000000D+01
-.222462461787D-04 0.000000000000D+00 0.000000000000D+00 0.715878431967D-05 0.000000000000D+00  6 -1 2 25 24 21 21 4 0.44925048D-02 0.11093432D+00 0.20785443D+05 0.20785443D+05 0.20785443D+05 0.12319885D+01  1  2  5  3  6  5       21 -.469660919576D-01 0.100000000000D+01
0.761371798075D-04 0.000000000000D+00 -.000000000000D+00 0.715878431967D-05 0.000000000000D+00  6 -1 2 25 24 21 21 4 0.44925048D-02 0.11093432D+00 0.20785443D+05 0.20785443D+05 0.20785443D+05 0.12319885D+01  1  2  6  3  6  5       21 0.160740187783D+00 0.100000000000D+01
0.127357400476D-05 0.000000000000D+00 0.000000000000D+00 0.715822376010D-05 0.000000000000D+00  6 -1 2 25 24 1 -1 4 0.44925048D-02 0.11093432D+00 0.20806521D+05 0.20806521D+05 0.20806521D+05 0.12319403D+01  1  2 12  6  6  5       21 0.268841637737D-02 0.100000000000D+01
0.123475801776D-05 0.000000000000D+00 0.000000000000D+00 0.715822376010D-05 0.000000000000D+00  6 -1 2 25 24 1 -1 4 0.44925048D-02 0.11093432D+00 0.20806521D+05 0.20806521D+05 0.20806521D+05 0.12319403D+01  1  2 12  6  6  5       21 0.260647882622D-02 0.100000000000D+01
-.365423997641D-05 0.000000000000D+00 0.000000000000D+00 0.715878431967D-05 0.000000000000D+00  6 -1 2 25 24 1 -1 4 0.44925048D-02 0.11093432D+00 0.20785443D+05 0.20785443D+05 0.20785443D+05 0.12319885D+01  1  2  5  6  6  5       21 -.771480138216D-02 0.100000000000D+01
0.127357400476D-05 0.000000000000D+00 0.000000000000D+00 0.715822376010D-05 0.000000000000D+00  6 -1 2 25 24 2 -2 4 0.44925048D-02 0.11093432D+00 0.20806521D+05 0.20806521D+05 0.20806521D+05 0.12319403D+01  1  2 12  7  6  5       21 0.268841637737D-02 0.100000000000D+01
0.123475801776D-05 0.000000000000D+00 0.000000000000D+00 0.715822376010D-05 0.000000000000D+00  6 -1 2 25 24 2 -2 4 0.44925048D-02 0.11093432D+00 0.20806521D+05 0.20806521D+05 0.20806521D+05 0.12319403D+01  1  2 12  7  6  5       21 0.260647882622D-02 0.100000000000D+01
-.365423997641D-05 0.000000000000D+00 0.000000000000D+00 0.715878431967D-05 0.000000000000D+00  6 -1 2 25 24 2 -2 4 0.44925048D-02 0.11093432D+00 0.20785443D+05 0.20785443D+05 0.20785443D+05 0.12319885D+01  1  2  5  7  6  5       21 -.771480138216D-02 0.100000000000D+01
0.127357400476D-05 0.000000000000D+00 0.000000000000D+00 0.715822376010D-05 0.000000000000D+00  6 -1 2 25 24 3 -3 4 0.44925048D-02 0.11093432D+00 0.20806521D+05 0.20806521D+05 0.20806521D+05 0.12319403D+01  1  2 12  8  6  5       21 0.268841637737D-02 0.100000000000D+01
0.127357400476D-05 0.000000000000D+00 0.000000000000D+00 0.715822376010D-05 0.000000000000D+00  6 -1 2 25 24 4 -4 4 0.44925048D-02 0.11093432D+00 0.20806521D+05 0.20806521D+05 0.20806521D+05 0.12319403D+01  1  2 12  8  6  5       21 0.268841637737D-02 0.100000000000D+01
0.123475801776D-05 0.000000000000D+00 0.000000000000D+00 0.715822376010D-05 0.000000000000D+00  6 -1 2 25 24 3 -3 4 0.44925048D-02 0.11093432D+00 0.20806521D+05 0.20806521D+05 0.20806521D+05 0.12319403D+01  1  2 12  8  6  5       21 0.260647882622D-02 0.100000000000D+01
0.123475801776D-05 0.000000000000D+00 0.000000000000D+00 0.715822376010D-05 0.000000000000D+00  6 -1 2 25 24 4 -4 4 0.44925048D-02 0.11093432D+00 0.20806521D+05 0.20806521D+05 0.20806521D+05 0.12319403D+01  1  2 12  8  6  5       21 0.260647882622D-02 0.100000000000D+01
-.365423997641D-05 0.000000000000D+00 0.000000000000D+00 0.715878431967D-05 0.000000000000D+00  6 -1 2 25 24 3 -3 4 0.44925048D-02 0.11093432D+00 0.20785443D+05 0.20785443D+05 0.20785443D+05 0.12319885D+01  1  2  5  8  6  5       21 -.771480138216D-02 0.100000000000D+01
-.365423997641D-05 0.000000000000D+00 0.000000000000D+00 0.715878431967D-05 0.000000000000D+00  6 -1 2 25 24 4 -4 4 0.44925048D-02 0.11093432D+00 0.20785443D+05 0.20785443D+05 0.20785443D+05 0.12319885D+01  1  2  5  8  6  5       21 -.771480138216D-02 0.100000000000D+01
  </mgrwgt>
  </event>
  <event>
  6     66 -.43135346E-03 0.38080737E+02 0.75467711E-02 0.11838924E+00
       -1 -1    0    0    0  501 0.00000000E+00 0.00000000E+00 0.41230282E+03 0.41230294E+03 0.32000000E+00 0.0000E+00 0.9000E+01
        2 -1    0    0  502    0 0.00000000E+00 0.00000000E+00 -.68824521E+02 0.68825265E+02 0.32000000E+00 0.0000E+00 0.9000E+01
       25  1    1    2    0    0 0.20717128E+02 -.58608639E+02 0.10945655E+03 0.17739760E+03 0.12500000E+03 0.0000E+00 0.9000E+01
       24  1    1    2    0    0 -.47978736E+02 0.51752189E+02 0.98892771E+02 0.14569573E+03 0.80419002E+02 0.0000E+00 0.9000E+01
       21  1    1    2  502  503 0.42125123E+02 0.31835367E+02 0.90078067E+02 0.10441569E+03 0.75000000E+00 0.0000E+00 0.9000E+01
       21  1    1    2  503  501 -.14863515E+02 -.24978916E+02 0.45050908E+02 0.53619186E+02 0.75000000E+00 0.0000E+00 0.9000E+01
#aMCatNLO 2  0  0  5  2 0.30472288D+02 0.00000000D+00  -5  6  0 0.00000000D+00 0.00000000D+00 0.00000000D+00 0.00000000D+00 0.00000000D+00
  <mgrwgt>
 -.5945725608D-01    2    2    0
 0.168454007111994D+03 0.000000000000000D+00 0.000000000000000D+00 0.168454007111994D+03
 0.168454007111994D+03 -.000000000000000D+00 -.000000000000000D+00 -.168454007111994D+03
 0.145352855529047D+03 0.739728634033522D+01 -.619586559327807D+02 -.401105686852048D+02
 0.112427686012867D+03 -.581702772852958D+02 0.491889576772187D+02 -.192206636466559D+02
 0.791274726820741D+02 0.507729909449606D+02 0.127696982555620D+02 0.593312323318606D+02
 0.000000000000000D+00 0.000000000000000D+00 -.000000000000000D+00 0.000000000000000D+00
 0.168454007111994D+03 0.000000000000000D+00 0.000000000000000D+00 0.168454007111994D+03
 0.168454007111994D+03 -.000000000000000D+00 -.000000000000000D+00 -.168454007111994D+03
 0.141723459630429D+03 0.208528105142818D+02 -.585745144754066D+02 -.243869956584196D+02
 0.107200805841859D+03 -.478760930374696D+02 0.517780040222410D+02 -.719130264373898D+01
 0.569312105958217D+02 0.418466996299636D+02 0.321178023551627D+02 0.214117547590129D+02
 0.310525381558782D+02 -.148234171067758D+02 -.253212919019970D+02 0.101665435431457D+02
-.191568196037D-03 0.000000000000D+00 0.000000000000D+00 0.918230975425D-05 0.000000000000D+00  6 -1 2 25 24 21 21 4 0.63431269D-01 0.10588455D-01 0.27004555D+05 0.27004555D+05 0.27004555D+05 0.12197226D+01  1  2 13  3  6  5       21 -.738749313966D-01 0.100000000000D+01
0.373870810954D-04 0.000000000000D+00 0.000000000000D+00 0.929747954439D-05 0.201841231050D-07  6 -1 2 25 24 21 21 4 0.63431269D-01 0.10588455D-01 0.27004555D+05 0.27004555D+05 0.27004555D+05 0.12197226D+01  1  2  1  3  6  5       21 0.144176753145D-01 0.100000000000D+01
  </mgrwgt>
  </event>
  <event>
  5     66 0.43135346E-03 0.10393058E+03 0.75467711E-02 0.11246845E+00
       -3 -1    0    0    0  501 0.00000000E+00 0.00000000E+00 0.24080099E+03 0.24080151E+03 0.50000000E+00 0.0000E+00 0.9000E+01
        4 -1    0    0  502    0 0.00000000E+00 0.00000000E+00 -.25008197E+03 0.25008678E+03 0.15500000E+01 0.0000E+00 0.9000E+01
       25  1    1    2    0    0 -.18467244E+00 -.41197984E+02 -.98852803E+02 0.16460311E+03 0.12500000E+03 0.0000E+00 0.9000E+01
       24  1    1    2    0    0 0.11703351E+02 0.14448751E+03 -.29345414E+02 0.16835076E+03 0.80419002E+02 0.0000E+00 0.9000E+01
       21  1    1    2  502  501 -.11518679E+02 -.10328953E+03 0.11891724E+03 0.15793441E+03 0.75000000E+00 0.0000E+00 0.9000E+01
#aMCatNLO 1  0  0  1  5 0.57073172D+02 0.00000000D+00  -5  6  0 0.00000000D+00 0.00000000D+00 0.00000000D+00 0.00000000D+00 0.00000000D+00
  <mgrwgt>
 0.1150805390D-02    7    4    0
 0.245400271952161D+03 0.000000000000000D+00 0.000000000000000D+00 0.245400271952161D+03
 0.245400271952161D+03 0.000000000000000D+00 0.000000000000000D+00 -.245400271952161D+03
 0.162763410498383D+03 -.184630587511109D+00 -.411976089688218D+02 -.957582932380438D+02
 0.167826348623398D+03 0.117033942787397D+02 0.144487900329290D+03 -.261676242460308D+02
 0.160210784782542D+03 -.115187636912286D+02 -.103290291360468D+03 0.121925917484075D+03
 0.000000000000000D+00 0.000000000000000D+00 0.000000000000000D+00 0.000000000000000D+00
 0.303375211637352D+03 0.000000000000000D+00 0.000000000000000D+00 0.303375211637352D+03
 0.261512669022468D+03 0.000000000000000D+00 0.000000000000000D+00 -.261512669022468D+03
 0.165595466844545D+03 -.179509093086002D+02 -.480101319576820D+02 -.957582932380438D+02
 0.161670889889258D+03 -.612447693526541D+01 0.137651759548515D+03 -.261676242460308D+02
 0.166841446116290D+03 -.292143446285283D+02 -.110075705111378D+03 0.121925917484075D+03
 0.707800778097258D+02 0.532897308723939D+02 0.204340775205456D+02 0.418625426148842D+02
 0.245400271952161D+03 0.000000000000000D+00 0.000000000000000D+00 0.245400271952161D+03
 0.245400271952161D+03 0.000000000000000D+00 0.000000000000000D+00 -.245400271952161D+03
 0.162763410498383D+03 -.184630587511109D+00 -.411976089688218D+02 -.957582932380438D+02
 0.167826348623398D+03 0.117033942787397D+02 0.144487900329290D+03 -.261676242460308D+02
 0.000000000000000D+00 0.000000000000000D+00 0.000000000000000D+00 0.000000000000000D+00
 0.160210784782542D+03 -.115187636912286D+02 -.103290291360468D+03 0.121925917484075D+03
 0.303375211637352D+03 0.000000000000000D+00 0.000000000000000D+00 0.303375211637352D+03
 0.261512669022468D+03 0.000000000000000D+00 0.000000000000000D+00 -.261512669022468D+03
 0.165595466844545D+03 -.179509093086002D+02 -.480101319576820D+02 -.957582932380438D+02
 0.161670889889258D+03 -.612447693526541D+01 0.137651759548515D+03 -.261676242460308D+02
 0.707800778097258D+02 0.532897308723939D+02 0.204340775205456D+02 0.418625426148842D+02
 0.166841446116290D+03 -.292143446285283D+02 -.110075705111378D+03 0.121925917484075D+03
0.351853833883D-03 0.000000000000D+00 0.000000000000D+00 0.250759249495D-05 0.000000000000D+00  6 -3 4 25 24 21 21 2 0.37046716D-01 0.38474559D-01 0.40264127D+05 0.40264127D+05 0.40264127D+05 0.12017101D+01  1  2  2  1  6  1       -3 0.500852006077D-02 0.100000000000D+01
-.188504295441D-04 0.185678369365D-04 -.135121136735D-05 0.250759249495D-05 0.000000000000D+00  6 -3 4 25 24 21 21 4 0.37046716D-01 0.38474559D-01 0.40264127D+05 0.40264127D+05 0.40264127D+05 0.12017101D+01  1  2  3  1  6  1       -3 -.387496523652D-03 0.100000000000D+01
0.201562234749D-04 0.000000000000D+00 0.000000000000D+00 0.250759249495D-05 0.000000000000D+00  6 -3 4 25 24 21 21 4 0.37046716D-01 0.38474559D-01 0.40264127D+05 0.40264127D+05 0.40264127D+05 0.12017101D+01  1  2 15  1  6  1       -3 0.414338915101D-03 0.100000000000D+01
-.314051630912D-03 0.000000000000D+00 0.000000000000D+00 0.250759249495D-05 0.000000000000D+00  6 -3 4 25 24 21 21 4 0.37046716D-01 0.38474559D-01 0.40264127D+05 0.40264127D+05 0.40264127D+05 0.12017101D+01  1  2  4  1  6  1       -3 -.645576351144D-02 0.100000000000D+01
-.123545388065D-02 0.000000000000D+00 -.334228031701D-03 0.250759249495D-05 0.000000000000D+00  6 -3 4 25 24 21 21 4 0.48305301D-01 0.38474559D-01 0.40264127D+05 0.40264127D+05 0.40264127D+05 0.12017101D+01  1  2  5  1  6  1       -3 -.150988679468D-01 0.100000000000D+01
0.128989489537D-02 0.000000000000D+00 0.322796055442D-03 0.250759249495D-05 0.000000000000D+00  6 -3 4 25 24 21 21 4 0.37046716D-01 0.38474559D-01 0.40264127D+05 0.40264127D+05 0.40264127D+05 0.12017101D+01  1  2  6  1  6  1       -3 0.265155648927D-01 0.100000000000D+01
-.375125011137D-04 0.000000000000D+00 -.118178339162D-04 0.250759249495D-05 0.000000000000D+00  6 21 4 25 24 3 21 4 0.48305301D-01 0.38474559D-01 0.40264127D+05 0.40264127D+05 0.40264127D+05 0.12017101D+01  3  4  5  4  5  1       -3 -.884549049639D-02 0.100000000000D+01
  </mgrwgt>
  </event>
  <event>
  5     66 0.43135346E-03 0.40823834E+02 0.75467711E-02 0.11682191E+00
       -1 -1    0    0    0  501 0.00000000E+00 0.00000000E+00 0.49569414E+02 0.49570447E+02 0.32000000E+00 0.0000E+00 0.9000E+01
        2 -1    0    0  502    0 0.00000000E+00 0.00000000E+00 -.82894729E+03 0.82894735E+03 0.32000000E+00 0.0000E+00 0.9000E+01
       25  1    1    2    0    0 0.86208196E+02 0.21496479E+02 -.36035307E+03 0.39162902E+03 0.12500000E+03 0.0000E+00 0.9000E+01
       24  1    1    2    0    0 -.10643828E+03 0.13961378E+02 -.42496373E+03 0.44562924E+03 0.80419002E+02 0.0000E+00 0.9000E+01
       21  1    1    2  502  501 0.20230088E+02 -.35457857E+02 0.59389309E+01 0.41259539E+02 0.75000000E+00 0.0000E+00 0.9000E+01
#aMCatNLO 1  0  0  2  5 0.26603207D+02 0.00000000D+00  -5  6  0 0.00000000D+00 0.00000000D+00 0.00000000D+00 0.00000000D+00 0.00000000D+00
  <mgrwgt>
 0.4465403080D-01    9    4    0
 0.202708934046314D+03 0.000000000000000D+00 0.000000000000000D+00 0.202708934046314D+03
 0.202708934046314D+03 0.000000000000000D+00 0.000000000000000D+00 -.202708934046314D+03
 0.155893216551211D+03 0.862079811911714D+02 0.214968560197574D+02 -.279957876633447D+02
 0.148701199736337D+03 -.106438490124444D+03 0.139617383162021D+02 -.641930567263636D+02
 0.100823451805080D+03 0.202305089332723D+02 -.354585943359596D+02 0.921888443897083D+02
 0.000000000000000D+00 -.000000000000000D+00 0.000000000000000D+00 -.000000000000000D+00
 0.204399295017495D+03 0.000000000000000D+00 0.000000000000000D+00 0.204399295017495D+03
 0.344193478141064D+03 0.000000000000000D+00 0.000000000000000D+00 -.344193478141064D+03
 0.158196122347109D+03 0.919234911271708D+02 0.129352532933548D+02 -.279957876633447D+02
 0.144381124728258D+03 -.101105246584823D+03 0.597275519121674D+01 -.641930567263636D+02
 0.103712524414698D+03 0.239524671775536D+02 -.410339372552478D+02 0.921888443897083D+02
 0.142303001668494D+03 -.147707117199014D+02 0.221259287706762D+02 -.139794183123569D+03
 0.202708934046314D+03 0.000000000000000D+00 0.000000000000000D+00 0.202708934046314D+03
 0.202708934046314D+03 0.000000000000000D+00 0.000000000000000D+00 -.202708934046314D+03
 0.155893216551211D+03 0.862079811911714D+02 0.214968560197574D+02 -.279957876633447D+02
 0.148701199736337D+03 -.106438490124444D+03 0.139617383162021D+02 -.641930567263636D+02
 0.000000000000000D+00 -.000000000000000D+00 0.000000000000000D+00 -.000000000000000D+00
 0.100823451805080D+03 0.202305089332723D+02 -.354585943359596D+02 0.921888443897083D+02
 0.204399295017495D+03 0.000000000000000D+00 0.000000000000000D+00 0.204399295017495D+03
 0.344193478141064D+03 0.000000000000000D+00 0.000000000000000D+00 -.344193478141064D+03
 0.158196122347109D+03 0.919234911271708D+02 0.129352532933548D+02 -.279957876633447D+02
 0.144381124728258D+03 -.101105246584823D+03 0.597275519121674D+01 -.641930567263636D+02
 0.142303001668494D+03 -.147707117199014D+02 0.221259287706762D+02 -.139794183123569D+03
 0.103712524414698D+03 0.239524671775536D+02 -.410339372552478D+02 0.921888443897083D+02
0.364137726589D-04 0.000000000000D+00 0.000000000000D+00 0.140162078531D-04 0.000000000000D+00  6 -1 2 25 24 21 21 2 0.76261479D-02 0.12753044D+00 0.26947571D+05 0.26947571D+05 0.26947571D+05 0.12198200D+01  1  2  2  2  6  2        2 0.190728887603D-01 0.100000000000D+01
0.240751633581D-05 0.192160757639D-05 -.139838474977D-06 0.140162078531D-04 0.000000000000D+00  6 -1 2 25 24 21 21 4 0.76261479D-02 0.12753044D+00 0.26947571D+05 0.26947571D+05 0.26947571D+05 0.12198200D+01  1  2  3  2  6  2        2 0.187634015082D-02 0.100000000000D+01
0.895596631108D-06 0.000000000000D+00 0.000000000000D+00 0.140162078531D-04 0.000000000000D+00  6 -1 2 25 24 21 21 4 0.76261479D-02 0.12753044D+00 0.26947571D+05 0.26947571D+05 0.26947571D+05 0.12198200D+01  1  2 15  2  6  2        2 0.697998968020D-03 0.100000000000D+01
0.744640862030D-03 0.000000000000D+00 0.000000000000D+00 0.138284396585D-04 0.000000000000D+00  6 -1 2 25 24 21 21 4 0.76261479D-02 0.21747631D+00 0.32245642D+05 0.32245642D+05 0.32245642D+05 0.12116218D+01  1  2 12  2  6  2        2 0.258194057487D+00 0.100000000000D+01
-.626742797567D-03 0.000000000000D+00 0.000000000000D+00 0.140162078531D-04 0.000000000000D+00  6 -1 2 25 24 21 21 4 0.76261479D-02 0.12753044D+00 0.26947571D+05 0.26947571D+05 0.26947571D+05 0.12198200D+01  1  2  4  2  6  2        2 -.488463009708D+00 0.100000000000D+01
-.753432512782D-03 0.000000000000D+00 -.222355249092D-04 0.140162078531D-04 0.000000000000D+00  6 -1 2 25 24 21 21 4 0.76261479D-02 0.21709117D+00 0.26947571D+05 0.26947571D+05 0.26947571D+05 0.12198200D+01  1  2  5  2  6  2        2 -.269360612032D+00 0.100000000000D+01
0.670889261091D-03 0.000000000000D+00 0.194220426686D-04 0.140162078531D-04 0.000000000000D+00  6 -1 2 25 24 21 21 4 0.76261479D-02 0.12753044D+00 0.26947571D+05 0.26947571D+05 0.26947571D+05 0.12198200D+01  1  2  6  2  6  2        2 0.522869331607D+00 0.100000000000D+01
0.442526181555D-04 0.000000000000D+00 0.000000000000D+00 0.138284396585D-04 0.000000000000D+00  6 -1 21 25 24 -2 21 4 0.76261479D-02 0.21747631D+00 0.32245642D+05 0.32245642D+05 0.32245642D+05 0.12116218D+01  3  4 12  5  5  2        2 0.826639353250D-02 0.100000000000D+01
-.435804188318D-04 0.000000000000D+00 -.131782035228D-05 0.140162078531D-04 0.000000000000D+00  6 -1 21 25 24 -2 21 4 0.76261479D-02 0.21709117D+00 0.26947571D+05 0.26947571D+05 0.26947571D+05 0.12198200D+01  3  4  5  5  5  2        2 -.849935796912D-02 0.100000000000D+01
  </mgrwgt>
  </event>
  <event>
  5     66 0.43135346E-03 0.26818005E+02 0.75467711E-02 0.10689302E+00
       -1 -1    0    0    0  501 0.00000000E+00 0.00000000E+00 0.37711539E+02 0.37712897E+02 0.32000000E+00 0.0000E+00 0.9000E+01
        2 -1    0    0  502    0 0.00000000E+00 0.00000000E+00 -.21458940E+04 0.21458940E+04 0.32000000E+00 0.0000E+00 0.9000E+01
       25  1    1    2    0    0 -.18283041E+03 -.15376409E+03 -.11982910E+04 0.12282494E+04 0.12500000E+03 0.0000E+00 0.9000E+01
       24  1    1    2    0    0 0.17495596E+03 0.17939143E+03 -.84818817E+03 0.88807728E+03 0.80419002E+02 0.0000E+00 0.9000E+01
       21  1    1    2  502  501 0.78744501E+01 -.25627333E+02 -.61703315E+02 0.67280225E+02 0.75000000E+00 0.0000E+00 0.9000E+01
#aMCatNLO 1  0  0  2  1 0.70193295D+02 0.00000000D+00  -5  6  0 0.00000000D+00 0.00000000D+00 0.00000000D+00 0.00000000D+00 0.00000000D+00
  <mgrwgt>
 0.5811576307D+00    5    4    0
 0.284475786825477D+03 0.000000000000000D+00 0.000000000000000D+00 0.284475786825477D+03
 0.284475786825477D+03 0.000000000000000D+00 0.000000000000000D+00 -.284475786825477D+03
 0.273832242896880D+03 -.182831629827125D+03 -.153760127228716D+03 -.478488835742468D+02
 0.265536077806204D+03 0.174954779603371D+03 0.179395271395711D+03 0.353603500707657D+02
 0.295832529478690D+02 0.787685022375400D+01 -.256351441669942D+02 0.124885335034811D+02
 0.000000000000000D+00 -.000000000000000D+00 0.000000000000000D+00 -.000000000000000D+00
 0.296715855832403D+03 0.000000000000000D+00 0.000000000000000D+00 0.296715855832403D+03
 0.615941989181447D+03 0.000000000000000D+00 0.000000000000000D+00 -.615941989181447D+03
 0.300625408508328D+03 -.175801572224256D+03 -.203850258241134D+03 -.478488835742468D+02
 0.242471743352625D+03 0.181171642128778D+03 0.135099267582491D+03 0.353603500707657D+02
 0.347453094593860D+02 0.866408579825893D+01 -.312443063235741D+02 0.124885335034811D+02
 0.334815383693511D+03 -.140341557027806D+02 0.999952969822168D+02 -.319226133349044D+03
 0.284475786825477D+03 0.000000000000000D+00 0.000000000000000D+00 0.284475786825477D+03
 0.284475786825477D+03 0.000000000000000D+00 0.000000000000000D+00 -.284475786825477D+03
 0.273832242896880D+03 -.182831629827125D+03 -.153760127228716D+03 -.478488835742468D+02
 0.265536077806204D+03 0.174954779603371D+03 0.179395271395711D+03 0.353603500707657D+02
 0.000000000000000D+00 -.000000000000000D+00 0.000000000000000D+00 -.000000000000000D+00
 0.295832529478690D+02 0.787685022375400D+01 -.256351441669942D+02 0.124885335034811D+02
 0.296715855832403D+03 0.000000000000000D+00 0.000000000000000D+00 0.296715855832403D+03
 0.615941989181447D+03 0.000000000000000D+00 0.000000000000000D+00 -.615941989181447D+03
 0.300625408508328D+03 -.175801572224256D+03 -.203850258241134D+03 -.478488835742468D+02
 0.242471743352625D+03 0.181171642128778D+03 0.135099267582491D+03 0.353603500707657D+02
 0.334815383693511D+03 -.140341557027806D+02 0.999952969822168D+02 -.319226133349044D+03
 0.347453094593860D+02 0.866408579825893D+01 -.312443063235741D+02 0.124885335034811D+02
0.294596663580D-02 0.000000000000D+00 0.000000000000D+00 0.203989520170D-04 0.000000000000D+00  6 -1 2 25 24 21 21 2 0.58018815D-02 0.33013764D+00 0.78290413D+05 0.78290413D+05 0.78290413D+05 0.11734640D+01  1  2  2  2  6  2        2 0.403180782250D+00 0.100000000000D+01
0.115696189806D-02 0.155462930474D-03 -.113132875723D-04 0.203989520170D-04 0.000000000000D+00  6 -1 2 25 24 21 21 4 0.58018815D-02 0.33013764D+00 0.78290413D+05 0.78290413D+05 0.78290413D+05 0.11734640D+01  1  2  3  2  6  2        2 0.218037195324D+00 0.100000000000D+01
0.189424710488D-04 0.000000000000D+00 0.000000000000D+00 0.203989520170D-04 0.000000000000D+00  6 -1 2 25 24 21 21 4 0.58018815D-02 0.33013764D+00 0.78290413D+05 0.78290413D+05 0.78290413D+05 0.11734640D+01  1  2 15  2  6  2        2 0.356983515783D-02 0.100000000000D+01
-.122520807230D-01 0.000000000000D+00 -.121378492444D-02 0.203989520170D-04 0.000000000000D+00  6 -1 2 25 24 21 21 4 0.58018815D-02 0.71772141D+00 0.78290413D+05 0.78290413D+05 0.78290413D+05 0.11734640D+01  1  2  5  2  6  2        2 -.435627115364D-01 0.100000000000D+01
-.954268383048D-03 0.000000000000D+00 -.102087674674D-03 0.203989520170D-04 0.000000000000D+00  6 -1 21 25 24 -2 21 4 0.58018815D-02 0.71772141D+00 0.78290413D+05 0.78290413D+05 0.78290413D+05 0.11734640D+01  3  4  5  5  5  2        2 -.674705301949D-04 0.100000000000D+01
  </mgrwgt>
  </event>
  <event>
  5     66 0.43135346E-03 0.77427071E+02 0.75467711E-02 0.11585465E+00
       -1 -1    0    0    0  501 0.00000000E+00 0.00000000E+00 0.25082482E+03 0.25082502E+03 0.32000000E+00 0.0000E+00 0.9000E+01
        2 -1    0    0  502    0 0.00000000E+00 0.00000000E+00 -.19857488E+03 0.19857514E+03 0.32000000E+00 0.0000E+00 0.9000E+01
       25  1    1    2    0    0 -.66983314E+02 0.98667690E+02 -.74229094E+02 0.18803467E+03 0.12500000E+03 0.0000E+00 0.9000E+01
       24  1    1    2    0    0 -.10434561E+02 -.97546360E+02 0.18052209E+02 0.12812990E+03 0.80419002E+02 0.0000E+00 0.9000E+01
       21  1    1    2  502  501 0.77417876E+02 -.11213302E+01 0.10842683E+03 0.13323560E+03 0.75000000E+00 0.0000E+00 0.9000E+01
#aMCatNLO 1  0  0  5  1 0.25053202D+01 0.00000000D+00  -5  6  0 0.00000000D+00 0.00000000D+00 0.00000000D+00 0.00000000D+00 0.00000000D+00
  <mgrwgt>
 0.6548499555D-01    9    2    0
 0.223176189880111D+03 0.000000000000000D+00 0.000000000000000D+00 0.223176189880111D+03
 0.223176189880111D+03 -.000000000000000D+00 -.000000000000000D+00 -.223176189880111D+03
 0.198008462638798D+03 -.669839691402680D+02 0.986676996192399D+02 -.967480449758200D+02
 0.126891621237782D+03 -.104349810707657D+02 -.975463538299992D+02 0.317609988943285D+01
 0.121452295883641D+03 0.774189502110338D+02 -.112134578924075D+01 0.935719450863871D+02
 0.000000000000000D+00 0.000000000000000D+00 0.000000000000000D+00 0.000000000000000D+00
 0.223176189880111D+03 0.000000000000000D+00 0.000000000000000D+00 0.223176189880111D+03
 0.223176189880111D+03 -.000000000000000D+00 -.000000000000000D+00 -.223176189880111D+03
 0.196222506140019D+03 -.650600405682515D+02 0.986398331963919D+02 -.944227003644537D+02
 0.126855902642518D+03 -.919664073240012D+01 -.975642901068447D+02 0.467281243621822D+01
 0.119431337019370D+03 0.773266511291040D+02 -.303948964258088D+01 0.909680976502469D+02
 0.384263395831353D+01 -.306996982845245D+01 0.196394655303366D+01 -.121820972201145D+01
0.309301129211D-03 0.000000000000D+00 0.000000000000D+00 0.362061074269D-05 0.000000000000D+00  6 -1 2 25 24 21 21 2 0.38588469D-01 0.30550017D-01 0.35540217D+05 0.35540217D+05 0.35540217D+05 0.12072490D+01  1  2  2  3  6  5       21 0.577377871202D-01 0.100000000000D+01
-.782695665165D-05 0.163222690175D-04 -.118779777703D-05 0.362061074269D-05 0.000000000000D+00  6 -1 2 25 24 21 21 4 0.38588469D-01 0.30550017D-01 0.35540217D+05 0.35540217D+05 0.35540217D+05 0.12072490D+01  1  2  3  3  6  5       21 -.212943926524D-02 0.100000000000D+01
0.131006856648D-04 0.000000000000D+00 0.000000000000D+00 0.362061074269D-05 0.000000000000D+00  6 -1 2 25 24 21 21 4 0.38588469D-01 0.30550017D-01 0.35540217D+05 0.35540217D+05 0.35540217D+05 0.12072490D+01  1  2 15  3  6  5       21 0.356423520632D-02 0.100000000000D+01
-.693426358614D-03 0.000000000000D+00 0.000000000000D+00 0.362061074269D-05 0.000000000000D+00  6 -1 2 25 24 21 21 4 0.38588469D-01 0.30550017D-01 0.35540217D+05 0.35540217D+05 0.35540217D+05 0.12072490D+01  1  2  4  3  6  5       21 -.188656891982D+00 0.100000000000D+01
0.700226290574D-03 0.000000000000D+00 0.000000000000D+00 0.362061074269D-05 0.715892728356D-06  6 -1 2 25 24 21 21 4 0.38588469D-01 0.30550017D-01 0.36064125D+05 0.36064125D+05 0.36064125D+05 0.12065954D+01  1  2 11  3  6  5       21 0.190121082032D+00 0.100000000000D+01
0.371389448404D-05 0.000000000000D+00 0.000000000000D+00 0.361669157508D-05 0.371111869149D-08  6 -1 2 25 24 1 -1 4 0.38588469D-01 0.30550017D-01 0.36064125D+05 0.36064125D+05 0.36064125D+05 0.12065954D+01  1  2 11  6  6  5       21 0.100837350349D-02 0.100000000000D+01
0.471140437288D-05 0.000000000000D+00 0.000000000000D+00 0.361669157508D-05 0.292931265297D-08  6 -1 2 25 24 2 -2 4 0.38588469D-01 0.30550017D-01 0.36064125D+05 0.36064125D+05 0.36064125D+05 0.12065954D+01  1  2 11  7  6  5       21 0.127921117690D-02 0.100000000000D+01
0.471548410101D-05 0.000000000000D+00 0.000000000000D+00 0.361669157508D-05 0.292518364572D-08  6 -1 2 25 24 3 -3 4 0.38588469D-01 0.30550017D-01 0.36064125D+05 0.36064125D+05 0.36064125D+05 0.12065954D+01  1  2 11  8  6  5       21 0.128031887928D-02 0.100000000000D+01
0.471548410101D-05 0.000000000000D+00 0.000000000000D+00 0.361669157508D-05 0.292518364572D-08  6 -1 2 25 24 4 -4 4 0.38588469D-01 0.30550017D-01 0.36064125D+05 0.36064125D+05 0.36064125D+05 0.12065954D+01  1  2 11  8  6  5       21 0.128031887928D-02 0.100000000000D+01
  </mgrwgt>
  </event>
  <event>
  5     66 0.43135346E-03 0.28216849E+02 0.75467711E-02 0.11583596E+00
       -1 -1    0    0    0  501 0.00000000E+00 0.00000000E+00 0.47289381E+02 0.47290464E+02 0.32000000E+00 0.0000E+00 0.9000E+01
        2 -1    0    0  502    0 -.00000000E+00 -.00000000E+00 -.96715668E+03 0.96715674E+03 0.32000000E+00 0.0000E+00 0.9000E+01
       25  1    1    2    0    0 -.10254015E+03 -.81157467E+02 -.28470855E+03 0.33732029E+03 0.12500000E+03 0.0000E+00 0.9000E+01
       24  1    1    2    0    0 0.10420361E+03 0.10932210E+03 -.62356555E+03 0.64661497E+03 0.80419002E+02 0.0000E+00 0.9000E+01
       21  1    1    2  502  501 -.16634655E+01 -.28164631E+02 -.11593197E+02 0.30511937E+02 0.75000000E+00 0.0000E+00 0.9000E+01
#aMCatNLO 1  0  0  5  2 0.15785328D+02 0.00000000D+00  -5  6  0 0.00000000D+00 0.00000000D+00 0.00000000D+00 0.00000000D+00 0.00000000D+00
  <mgrwgt>
 0.4677094446D+00    9    2    0
 0.213861677313885D+03 0.000000000000000D+00 0.000000000000000D+00 0.213861677313885D+03
 0.213861677313885D+03 -.000000000000000D+00 -.000000000000000D+00 -.213861677313885D+03
 0.187735798984650D+03 -.102540053810403D+03 -.811559218825401D+02 0.501894802559236D+02
 0.192554408407831D+03 0.104203704206934D+03 0.109323683946810D+03 -.883170674375620D+02
 0.474331472352894D+02 -.166365039653142D+01 -.281677620642699D+02 0.381275871816385D+02
 0.000000000000000D+00 0.000000000000000D+00 0.000000000000000D+00 0.000000000000000D+00
 0.213861677313885D+03 0.000000000000000D+00 0.000000000000000D+00 0.213861677313885D+03
 0.213861677313885D+03 -.000000000000000D+00 -.000000000000000D+00 -.213861677313885D+03
 0.191277004360954D+03 -.102786151748397D+03 -.853226796198517D+02 0.558295598096924D+02
 0.187517113244326D+03 0.103956918829387D+03 0.105145286964975D+03 -.826612331245310D+02
 0.166146237179937D+02 0.491400299091458D+01 -.152001875108055D+02 -.456646422652708D+01
 0.323146133044968D+02 -.608477007190443D+01 -.462241983431822D+01 0.313981375413657D+02
0.954041891186D-03 0.000000000000D+00 0.000000000000D+00 0.190603897969D-04 0.000000000000D+00  6 -1 2 25 24 21 21 2 0.72753768D-02 0.14879342D+00 0.36142864D+05 0.36142864D+05 0.36142864D+05 0.12064981D+01  1  2  2  3  6  5       21 0.429809980410D+00 0.100000000000D+01
0.166770981991D-03 0.503461737809D-04 -.366377206715D-05 0.190603897969D-04 0.000000000000D+00  6 -1 2 25 24 21 21 4 0.72753768D-02 0.14879342D+00 0.36142864D+05 0.36142864D+05 0.36142864D+05 0.12064981D+01  1  2  3  3  6  5       21 0.109366124093D+00 0.100000000000D+01
0.158664043274D-04 0.000000000000D+00 0.000000000000D+00 0.190603897969D-04 0.000000000000D+00  6 -1 2 25 24 21 21 4 0.72753768D-02 0.14879342D+00 0.36142864D+05 0.36142864D+05 0.36142864D+05 0.12064981D+01  1  2 15  3  6  5       21 0.104049704802D-01 0.100000000000D+01
0.141441524987D-03 0.000000000000D+00 0.000000000000D+00 0.191004023824D-04 0.000000000000D+00  6 -1 2 25 24 21 21 4 0.72753768D-02 0.14879342D+00 0.35133506D+05 0.35133506D+05 0.35133506D+05 0.12077638D+01  1  2 12  3  6  5       21 0.931190781899D-01 0.100000000000D+01
-.310023996078D-03 0.000000000000D+00 0.000000000000D+00 0.190603897969D-04 0.000000000000D+00  6 -1 2 25 24 21 21 4 0.72753768D-02 0.14879342D+00 0.36142864D+05 0.36142864D+05 0.36142864D+05 0.12064981D+01  1  2  4  3  6  5       21 -.203309487191D+00 0.100000000000D+01
0.107535730330D-04 0.000000000000D+00 0.000000000000D+00 0.191004023824D-04 0.000000000000D+00  6 -1 2 25 24 1 -1 4 0.72753768D-02 0.14879342D+00 0.35133506D+05 0.35133506D+05 0.35133506D+05 0.12077638D+01  1  2 12  6  6  5       21 0.707969465247D-02 0.100000000000D+01
0.107535730330D-04 0.000000000000D+00 0.000000000000D+00 0.191004023824D-04 0.000000000000D+00  6 -1 2 25 24 2 -2 4 0.72753768D-02 0.14879342D+00 0.35133506D+05 0.35133506D+05 0.35133506D+05 0.12077638D+01  1  2 12  7  6  5       21 0.707969465247D-02 0.100000000000D+01
0.107535730330D-04 0.000000000000D+00 0.000000000000D+00 0.191004023824D-04 0.000000000000D+00  6 -1 2 25 24 3 -3 4 0.72753768D-02 0.14879342D+00 0.35133506D+05 0.35133506D+05 0.35133506D+05 0.12077638D+01  1  2 12  8  6  5       21 0.707969465247D-02 0.100000000000D+01
0.107535730330D-04 0.000000000000D+00 0.000000000000D+00 0.191004023824D-04 0.000000000000D+00  6 -1 2 25 24 4 -4 4 0.72753768D-02 0.14879342D+00 0.35133506D+05 0.35133506D+05 0.35133506D+05 0.12077638D+01  1  2 12  8  6  5       21 0.707969465247D-02 0.100000000000D+01
  </mgrwgt>
  </event>
  <event>
  6     66 -.43135346E-03 0.52336042E+02 0.75467711E-02 0.11910287E+00
       -1 -1    0    0    0  501 0.00000000E+00 0.00000000E+00 0.48897395E+02 0.48898442E+02 0.32000000E+00 0.0000E+00 0.9000E+01
        2 -1    0    0  502    0 -.00000000E+00 -.00000000E+00 -.61397320E+03 0.61397329E+03 0.32000000E+00 0.0000E+00 0.9000E+01
       25  1    1    2    0    0 -.15346184E+02 -.27300644E+02 -.19315667E+03 0.23219674E+03 0.12500000E+03 0.0000E+00 0.9000E+01
       24  1    1    2    0    0 0.63405886E+02 0.58267343E+02 -.12340834E+03 0.17062304E+03 0.80419002E+02 0.0000E+00 0.9000E+01
       21  1    1    2  502  503 -.41870390E+02 -.40207973E+02 -.23708256E+03 0.24408711E+03 0.75000000E+00 0.0000E+00 0.9000E+01
       21  1    1    2  503  501 -.61893122E+01 0.92412739E+01 -.11428244E+02 0.15964836E+02 0.75000000E+00 0.0000E+00 0.9000E+01
#aMCatNLO 2  0  0  5  1 0.11734145D+02 0.00000000D+00  -5  6  0 0.00000000D+00 0.00000000D+00 0.00000000D+00 0.00000000D+00 0.00000000D+00
  <mgrwgt>
 -.2286221608D-01    3    2    0
 0.173268764744832D+03 0.000000000000000D+00 0.000000000000000D+00 0.173268764744832D+03
 0.173268764744832D+03 -.000000000000000D+00 -.000000000000000D+00 -.173268764744832D+03
 0.128662800730341D+03 -.116838248743146D+02 -.249408464094731D+02 0.130598127268697D+02
 0.129418869800247D+03 0.670215054435376D+02 0.605970241123779D+02 0.460233243346075D+02
 0.884558589590751D+02 -.553376805692230D+02 -.356561777029048D+02 -.590831370614773D+02
 0.000000000000000D+00 0.000000000000000D+00 0.000000000000000D+00 0.000000000000000D+00
 0.173268764744832D+03 0.000000000000000D+00 0.000000000000000D+00 0.173268764744832D+03
 0.173268764744832D+03 -.000000000000000D+00 -.000000000000000D+00 -.173268764744832D+03
 0.129195338490115D+03 -.153868877210526D+02 -.273268710051940D+02 0.910611305115969D+01
 0.125095239231150D+03 0.633664657229608D+02 0.582419426480395D+02 0.421208981657723D+02
 0.802154365390234D+02 -.416989444417801D+02 -.402710327876794D+02 -.554432882304169D+02
 0.120315152293754D+02 -.628063356012820D+01 0.935596114483396D+01 0.421627701348491D+01
-.577208816998D-04 0.000000000000D+00 0.000000000000D+00 0.580405970427D-05 0.000000000000D+00  6 -1 2 25 24 21 21 4 0.75227631D-02 0.94457503D-01 0.24948771D+05 0.24948771D+05 0.24948771D+05 0.12233932D+01  1  2 13  3  6  5       21 -.666350940691D-01 0.100000000000D+01
-.643205478042D-05 0.000000000000D+00 0.000000000000D+00 0.580718923357D-05 0.000000000000D+00  6 -1 2 25 24 21 21 4 0.75227631D-02 0.94457503D-01 0.24772808D+05 0.24772808D+05 0.24772808D+05 0.12237229D+01  1  2  8  3  6  5       21 -.743222140133D-02 0.100000000000D+01
0.443550583275D-04 0.000000000000D+00 0.000000000000D+00 0.580718923357D-05 0.202665001092D-06  6 -1 2 25 24 21 21 4 0.75227631D-02 0.94457503D-01 0.24948771D+05 0.24948771D+05 0.24948771D+05 0.12233932D+01  1  2  1  3  6  5       21 0.512050993861D-01 0.100000000000D+01
  </mgrwgt>
  </event>
  <event>
  5     66 0.43135346E-03 0.56259065E+02 0.75467711E-02 0.11962475E+00
       -1 -1    0    0    0  501 0.00000000E+00 0.00000000E+00 0.27224425E+03 0.27224444E+03 0.32000000E+00 0.0000E+00 0.9000E+01
        2 -1    0    0  502    0 0.00000000E+00 0.00000000E+00 -.14241160E+03 0.14241196E+03 0.32000000E+00 0.0000E+00 0.9000E+01
       25  1    1    2    0    0 0.91396634E+00 0.92114357E+02 0.97233959E+01 0.15558096E+03 0.12500000E+03 0.0000E+00 0.9000E+01
       24  1    1    2    0    0 -.27280409E+02 -.42418114E+02 0.16279781E+03 0.18845122E+03 0.80419002E+02 0.0000E+00 0.9000E+01
       21  1    1    2  502  501 0.26366443E+02 -.49696243E+02 -.42688558E+02 0.70624226E+02 0.75000000E+00 0.0000E+00 0.9000E+01
#aMCatNLO 1  0  0  5  1 0.15368825D+01 0.00000000D+00  -5  6  0 0.00000000D+00 0.00000000D+00 0.00000000D+00 0.00000000D+00 0.00000000D+00
  <mgrwgt>
 0.7486221584D-01   25    2    0
 0.196903157426166D+03 0.000000000000000D+00 0.000000000000000D+00 0.196903157426166D+03
 0.196903157426166D+03 -.000000000000000D+00 -.000000000000000D+00 -.196903157426166D+03
 0.160612683377730D+03 0.913579617581198D+00 0.921150861479328D+02 -.410537493785438D+02
 0.144757073708767D+03 -.272807575475718D+02 -.424174571976854D+02 0.109288215407096D+03
 0.884365577658356D+02 0.263671779299906D+02 -.496976289502474D+02 -.682344660285528D+02
 0.000000000000000D+00 0.000000000000000D+00 0.000000000000000D+00 -.000000000000000D+00
 0.196903157426166D+03 0.000000000000000D+00 0.000000000000000D+00 0.196903157426166D+03
 0.196903157426166D+03 -.000000000000000D+00 -.000000000000000D+00 -.196903157426166D+03
 0.160586095372622D+03 0.978175953935116D+00 0.919933330818980D+02 -.412209154108819D+02
 0.144664633068472D+03 -.272225519031050D+02 -.425271649005424D+02 0.109137587566658D+03
 0.860134504922407D+02 0.271007372301310D+02 -.479394917623408D+02 -.660732081613493D+02
 0.254213591899711D+01 -.856361280961087D+00 -.152667641901481D+01 -.184346399442736D+01
0.126250005696D-03 0.000000000000D+00 0.000000000000D+00 0.543536918050D-05 0.000000000000D+00  6 -1 2 25 24 21 21 2 0.41883773D-01 0.21909519D-01 0.23479586D+05 0.23479586D+05 0.23479586D+05 0.12262300D+01  1  2  2  3  6  5       21 0.302530499278D-01 0.100000000000D+01
-.233339389993D-05 0.666239583957D-05 -.484833264263D-06 0.543536918050D-05 0.000000000000D+00  6 -1 2 25 24 21 21 4 0.41883773D-01 0.21909519D-01 0.23479586D+05 0.23479586D+05 0.23479586D+05 0.12262300D+01  1  2  3  3  6  5       21 -.840755397100D-03 0.100000000000D+01
0.552517460525D-05 0.000000000000D+00 0.000000000000D+00 0.543536918050D-05 0.000000000000D+00  6 -1 2 25 24 21 21 4 0.41883773D-01 0.21909519D-01 0.23479586D+05 0.23479586D+05 0.23479586D+05 0.12262300D+01  1  2 15  3  6  5       21 0.199079991141D-02 0.100000000000D+01
0.186517944323D-07 0.000000000000D+00 0.000000000000D+00 0.543395572168D-05 0.000000000000D+00  6 -1 2 25 24 21 21 4 0.41883773D-01 0.21909519D-01 0.23559551D+05 0.23559551D+05 0.23559551D+05 0.12260705D+01  1  2 12  3  6  5       21 0.671734409974D-05 0.100000000000D+01
0.155170849878D-07 0.000000000000D+00 0.000000000000D+00 0.543395572168D-05 0.000000000000D+00  6 -1 2 25 24 21 21 4 0.41883773D-01 0.21909519D-01 0.23559551D+05 0.23559551D+05 0.23559551D+05 0.12260705D+01  1  2 12  3  6  5       21 0.558839524351D-05 0.100000000000D+01
-.524485778795D-02 0.000000000000D+00 0.000000000000D+00 0.543536918050D-05 0.000000000000D+00  6 -1 2 25 24 21 21 4 0.41883773D-01 0.21909519D-01 0.23479586D+05 0.23479586D+05 0.23479586D+05 0.12262300D+01  1  2  4  3  6  5       21 -.188979772869D+01 0.100000000000D+01
-.707158119009D-02 0.000000000000D+00 0.000000000000D+00 0.543536918050D-05 0.000000000000D+00  6 -1 2 25 24 21 21 4 0.41883773D-01 0.21909519D-01 0.23479586D+05 0.23479586D+05 0.23479586D+05 0.12262300D+01  1  2  5  3  6  5       21 -.254799245501D+01 0.100000000000D+01
0.729806910936D-02 0.000000000000D+00 -.000000000000D+00 0.543536918050D-05 0.000000000000D+00  6 -1 2 25 24 21 21 4 0.41883773D-01 0.21909519D-01 0.23479586D+05 0.23479586D+05 0.23479586D+05 0.12262300D+01  1  2  6  3  6  5       21 0.262959931123D+01 0.100000000000D+01
0.514138699151D-02 0.000000000000D+00 0.000000000000D+00 0.543536918050D-05 0.155762727175D-04  6 -1 2 25 24 21 21 4 0.41883773D-01 0.21909519D-01 0.23559551D+05 0.23559551D+05 0.23559551D+05 0.12260705D+01  1  2 11  3  6  5       21 0.185164305222D+01 0.100000000000D+01
0.186987666297D-08 0.000000000000D+00 0.000000000000D+00 0.543395572168D-05 0.000000000000D+00  6 -1 2 25 24 1 -1 4 0.41883773D-01 0.21909519D-01 0.23559551D+05 0.23559551D+05 0.23559551D+05 0.12260705D+01  1  2 12  6  6  5       21 0.673426088567D-06 0.100000000000D+01
0.183251262771D-08 0.000000000000D+00 0.000000000000D+00 0.543395572168D-05 0.000000000000D+00  6 -1 2 25 24 1 -1 4 0.41883773D-01 0.21909519D-01 0.23559551D+05 0.23559551D+05 0.23559551D+05 0.12260705D+01  1  2 12  6  6  5       21 0.659969630920D-06 0.100000000000D+01
-.171636411609D-04 0.000000000000D+00 0.000000000000D+00 0.543536918050D-05 0.000000000000D+00  6 -1 2 25 24 1 -1 4 0.41883773D-01 0.21909519D-01 0.23479586D+05 0.23479586D+05 0.23479586D+05 0.12262300D+01  1  2  5  6  6  5       21 -.618430687604D-02 0.100000000000D+01
0.171534632081D-04 0.000000000000D+00 0.000000000000D+00 0.543536918050D-05 0.867426315578D-07  6 -1 2 25 24 1 -1 4 0.41883773D-01 0.21909519D-01 0.23559551D+05 0.23559551D+05 0.23559551D+05 0.12260705D+01  1  2 11  6  6  5       21 0.617772811564D-02 0.100000000000D+01
0.186987666297D-08 0.000000000000D+00 0.000000000000D+00 0.543395572168D-05 0.000000000000D+00  6 -1 2 25 24 2 -2 4 0.41883773D-01 0.21909519D-01 0.23559551D+05 0.23559551D+05 0.23559551D+05 0.12260705D+01  1  2 12  7  6  5       21 0.673426088567D-06 0.100000000000D+01
0.183251262771D-08 0.000000000000D+00 0.000000000000D+00 0.543395572168D-05 0.000000000000D+00  6 -1 2 25 24 2 -2 4 0.41883773D-01 0.21909519D-01 0.23559551D+05 0.23559551D+05 0.23559551D+05 0.12260705D+01  1  2 12  7  6  5       21 0.659969630920D-06 0.100000000000D+01
-.171636411609D-04 0.000000000000D+00 0.000000000000D+00 0.543536918050D-05 0.000000000000D+00  6 -1 2 25 24 2 -2 4 0.41883773D-01 0.21909519D-01 0.23479586D+05 0.23479586D+05 0.23479586D+05 0.12262300D+01  1  2  5  7  6  5       21 -.618430687604D-02 0.100000000000D+01
0.172151270017D-04 0.000000000000D+00 0.000000000000D+00 0.543536918050D-05 0.860793905946D-07  6 -1 2 25 24 2 -2 4 0.41883773D-01 0.21909519D-01 0.23559551D+05 0.23559551D+05 0.23559551D+05 0.12260705D+01  1  2 11  7  6  5       21 0.619993600138D-02 0.100000000000D+01
0.186987666297D-08 0.000000000000D+00 0.000000000000D+00 0.543395572168D-05 0.000000000000D+00  6 -1 2 25 24 3 -3 4 0.41883773D-01 0.21909519D-01 0.23559551D+05 0.23559551D+05 0.23559551D+05 0.12260705D+01  1  2 12  8  6  5       21 0.673426088567D-06 0.100000000000D+01
0.186987666297D-08 0.000000000000D+00 0.000000000000D+00 0.543395572168D-05 0.000000000000D+00  6 -1 2 25 24 4 -4 4 0.41883773D-01 0.21909519D-01 0.23559551D+05 0.23559551D+05 0.23559551D+05 0.12260705D+01  1  2 12  8  6  5       21 0.673426088567D-06 0.100000000000D+01
0.183251262771D-08 0.000000000000D+00 0.000000000000D+00 0.543395572168D-05 0.000000000000D+00  6 -1 2 25 24 3 -3 4 0.41883773D-01 0.21909519D-01 0.23559551D+05 0.23559551D+05 0.23559551D+05 0.12260705D+01  1  2 12  8  6  5       21 0.659969630920D-06 0.100000000000D+01
0.183251262771D-08 0.000000000000D+00 0.000000000000D+00 0.543395572168D-05 0.000000000000D+00  6 -1 2 25 24 4 -4 4 0.41883773D-01 0.21909519D-01 0.23559551D+05 0.23559551D+05 0.23559551D+05 0.12260705D+01  1  2 12  8  6  5       21 0.659969630920D-06 0.100000000000D+01
-.171636411609D-04 0.000000000000D+00 0.000000000000D+00 0.543536918050D-05 0.000000000000D+00  6 -1 2 25 24 3 -3 4 0.41883773D-01 0.21909519D-01 0.23479586D+05 0.23479586D+05 0.23479586D+05 0.12262300D+01  1  2  5  8  6  5       21 -.618430687604D-02 0.100000000000D+01
-.171636411609D-04 0.000000000000D+00 0.000000000000D+00 0.543536918050D-05 0.000000000000D+00  6 -1 2 25 24 4 -4 4 0.41883773D-01 0.21909519D-01 0.23479586D+05 0.23479586D+05 0.23479586D+05 0.12262300D+01  1  2  5  8  6  5       21 -.618430687604D-02 0.100000000000D+01
0.171443133888D-04 0.000000000000D+00 0.000000000000D+00 0.543536918050D-05 0.856136286037D-07  6 -1 2 25 24 3 -3 4 0.41883773D-01 0.21909519D-01 0.23559551D+05 0.23559551D+05 0.23559551D+05 0.12260705D+01  1  2 11  8  6  5       21 0.617443285709D-02 0.100000000000D+01
0.171443133888D-04 0.000000000000D+00 0.000000000000D+00 0.543536918050D-05 0.856136286037D-07  6 -1 2 25 24 4 -4 4 0.41883773D-01 0.21909519D-01 0.23559551D+05 0.23559551D+05 0.23559551D+05 0.12260705D+01  1  2 11  8  6  5       21 0.617443285709D-02 0.100000000000D+01
  </mgrwgt>
  </event>
  <event>
  6     66 0.43135346E-03 0.50163723E+02 0.75467711E-02 0.11050741E+00
       -1 -1    0    0    0  501 0.00000000E+00 0.00000000E+00 0.24613649E+03 0.24613670E+03 0.32000000E+00 0.0000E+00 0.9000E+01
        2 -1    0    0  503    0 0.00000000E+00 0.00000000E+00 -.49068196E+03 0.49068206E+03 0.32000000E+00 0.0000E+00 0.9000E+01
       25  1    1    2    0    0 0.11064637E+03 -.11730723E+03 0.86998278E+02 0.22180466E+03 0.12500000E+03 0.0000E+00 0.9000E+01
       24  1    1    2    0    0 -.92116220E+02 0.16703223E+03 -.11309374E+03 0.23588678E+03 0.80419002E+02 0.0000E+00 0.9000E+01
       21  1    1    2  502  501 0.42374000E+02 -.11176551E+02 0.52104923E+01 0.44138225E+02 0.75000000E+00 0.0000E+00 0.9000E+01
       21  1    1    2  503  502 -.60904151E+02 -.38548445E+02 -.22366050E+03 0.23498910E+03 0.75000000E+00 0.0000E+00 0.9000E+01
#aMCatNLO 2  0  0  2  1 0.85783333D+02 0.00000000D+00  -5  6  0 0.00000000D+00 0.00000000D+00 0.00000000D+00 0.00000000D+00 0.00000000D+00
  <mgrwgt>
 0.2641117490D+00    1    2    0
 0.248093494612451D+03 0.000000000000000D+00 0.000000000000000D+00 0.248093494612451D+03
 0.248093494612451D+03 0.000000000000000D+00 0.000000000000000D+00 -.248093494612451D+03
 0.223519202827053D+03 0.832225827986086D+02 -.134661808801483D+03 0.963121643152256D+02
 0.232141741227231D+03 -.120417906338682D+03 0.149122108768426D+03 -.103366805963549D+03
 0.405260451706186D+02 0.371953235400737D+02 -.144602999669437D+02 0.705464164832381D+01
 0.000000000000000D+00 -.000000000000000D+00 -.000000000000000D+00 -.000000000000000D+00
 0.256601985122478D+03 0.000000000000000D+00 0.000000000000000D+00 0.256601985122478D+03
 0.470667748650724D+03 0.000000000000000D+00 0.000000000000000D+00 -.470667748650724D+03
 0.225618534772846D+03 0.110643241904608D+03 -.117306279707445D+03 0.963121643152256D+02
 0.231382841927927D+03 -.921189046785934D+02 0.167033572703166D+03 -.103366805963549D+03
 0.443935040128501D+02 0.423798133182838D+02 -.111788484585888D+02 0.705464164832381D+01
 0.225874853059578D+03 -.609041505442985D+02 -.385484445371327D+02 -.214065763528246D+03
0.276188250578D-02 0.000000000000D+00 0.000000000000D+00 0.816449695140D-05 0.545916319898D-08  6 -1 2 25 24 21 21 4 0.37867087D-01 0.75489377D-01 0.69418258D+05 0.69418258D+05 0.69418258D+05 0.11784214D+01  1  2  1  2  6  2        2 0.264111749050D+00 0.100000000000D+01
  </mgrwgt>
  </event>
  <event>
  5     66 -.43135346E-03 0.74750165E+02 0.75467711E-02 0.10985503E+00
       -1 -1    0    0    0  501 0.00000000E+00 0.00000000E+00 0.11791514E+03 0.11791558E+03 0.32000000E+00 0.0000E+00 0.9000E+01
        2 -1    0    0  502    0 0.00000000E+00 0.00000000E+00 -.11338280E+04 0.11338280E+04 0.32000000E+00 0.0000E+00 0.9000E+01
       25  1    1    2    0    0 0.19577942E+03 0.11708242E+03 -.13966044E+03 0.29524213E+03 0.12500000E+03 0.0000E+00 0.9000E+01
       24  1    1    2    0    0 -.18616401E+03 -.42953605E+02 -.24538761E+03 0.32122320E+03 0.80419002E+02 0.0000E+00 0.9000E+01
       21  1    1    2  502  501 -.96154114E+01 -.74128812E+02 -.63086479E+03 0.63527827E+03 0.75000000E+00 0.0000E+00 0.9000E+01
#aMCatNLO 1  0  0  2  5 0.87638659D+01 0.00000000D+00  -5  6  0 0.00000000D+00 0.00000000D+00 0.00000000D+00 0.00000000D+00 0.00000000D+00
  <mgrwgt>
 -.1214804718D+01   11    4    0
 0.365644346029488D+03 0.000000000000000D+00 0.000000000000000D+00 0.365644346029488D+03
 0.365644346029488D+03 0.000000000000000D+00 0.000000000000000D+00 -.365644346029488D+03
 0.311347477777164D+03 0.195779450582718D+03 0.117082616338329D+03 0.171097397990450D+03
 0.208941654731994D+03 -.186163995990581D+03 -.429534713796026D+02 0.262176471300162D+02
 0.210999559549817D+03 -.961545459213743D+01 -.741291449587261D+02 -.197315045120466D+03
 0.000000000000000D+00 -.000000000000000D+00 -.000000000000000D+00 -.000000000000000D+00
 0.365901835752640D+03 0.000000000000000D+00 0.000000000000000D+00 0.365901835752640D+03
 0.448709219655239D+03 0.000000000000000D+00 0.000000000000000D+00 -.448709219655239D+03
 0.312958178782144D+03 0.196082072529341D+03 0.120811104208729D+03 0.171097397990450D+03
 0.208263098684881D+03 -.185961762816344D+03 -.404618347169446D+02 0.262176471300162D+02
 0.210119926403990D+03 -.941132381539139D+01 -.716141286700364D+02 -.197315045120466D+03
 0.832698515368633D+02 -.708985897605605D+00 -.873514082174748D+01 -.828073839025995D+02
 0.365644346029488D+03 0.000000000000000D+00 0.000000000000000D+00 0.365644346029488D+03
 0.365644346029488D+03 0.000000000000000D+00 0.000000000000000D+00 -.365644346029488D+03
 0.311347477777164D+03 0.195779450582718D+03 0.117082616338329D+03 0.171097397990450D+03
 0.208941654731994D+03 -.186163995990581D+03 -.429534713796026D+02 0.262176471300162D+02
 0.000000000000000D+00 -.000000000000000D+00 -.000000000000000D+00 -.000000000000000D+00
 0.210999559549817D+03 -.961545459213743D+01 -.741291449587261D+02 -.197315045120466D+03
 0.365901835752640D+03 0.000000000000000D+00 0.000000000000000D+00 0.365901835752640D+03
 0.448709219655239D+03 0.000000000000000D+00 0.000000000000000D+00 -.448709219655239D+03
 0.312958178782144D+03 0.196082072529341D+03 0.120811104208729D+03 0.171097397990450D+03
 0.208263098684881D+03 -.185961762816344D+03 -.404618347169446D+02 0.262176471300162D+02
 0.832698515368633D+02 -.708985897605605D+00 -.873514082174748D+01 -.828073839025995D+02
 0.210119926403990D+03 -.941132381539139D+01 -.716141286700364D+02 -.197315045120466D+03
0.577855269057D-04 0.000000000000D+00 0.000000000000D+00 0.346251230457D-05 0.000000000000D+00  6 -1 2 25 24 21 21 2 0.18140828D-01 0.17443511D+00 0.73484750D+05 0.73484750D+05 0.73484750D+05 0.11760670D+01  1  2  2  2  6  2        2 0.471762603989D-02 0.100000000000D+01
0.324558298000D-05 0.304942603306D-05 -.221911638596D-06 0.346251230457D-05 0.000000000000D+00  6 -1 2 25 24 21 21 4 0.18140828D-01 0.17443511D+00 0.73484750D+05 0.73484750D+05 0.73484750D+05 0.11760670D+01  1  2  3  2  6  2        2 0.366489257637D-03 0.100000000000D+01
0.193836048544D-06 0.000000000000D+00 0.000000000000D+00 0.346251230457D-05 0.000000000000D+00  6 -1 2 25 24 21 21 4 0.18140828D-01 0.17443511D+00 0.73484750D+05 0.73484750D+05 0.73484750D+05 0.11760670D+01  1  2 15  2  6  2        2 0.218878488001D-04 0.100000000000D+01
0.884852274329D-02 0.000000000000D+00 0.000000000000D+00 0.345586727127D-05 0.000000000000D+00  6 -1 2 25 24 21 21 4 0.18140828D-01 0.21760483D+00 0.75527897D+05 0.75527897D+05 0.75527897D+05 0.11749379D+01  1  2 12  2  6  2        2 0.692751737850D+00 0.100000000000D+01
-.195412116772D-01 0.000000000000D+00 0.000000000000D+00 0.346251230457D-05 0.000000000000D+00  6 -1 2 25 24 21 21 4 0.18140828D-01 0.17443511D+00 0.73484750D+05 0.73484750D+05 0.73484750D+05 0.11760670D+01  1  2  4  2  6  2        2 -.220658174666D+01 0.100000000000D+01
-.986232687413D-02 0.000000000000D+00 -.662909392892D-04 0.346251230457D-05 0.000000000000D+00  6 -1 2 25 24 21 21 4 0.18140828D-01 0.21411572D+00 0.73484750D+05 0.73484750D+05 0.73484750D+05 0.11760670D+01  1  2  5  2  6  2        2 -.797889928450D+00 0.100000000000D+01
0.967338015297D-02 0.000000000000D+00 0.649224571667D-04 0.346251230457D-05 0.000000000000D+00  6 -1 2 25 24 21 21 4 0.18140828D-01 0.17443511D+00 0.73484750D+05 0.73484750D+05 0.73484750D+05 0.11760670D+01  1  2  6  2  6  2        2 0.109231220799D+01 0.100000000000D+01
0.873804494892D-05 0.000000000000D+00 0.000000000000D+00 0.346251230457D-05 0.379403012376D-06  6 -1 2 25 24 21 21 4 0.18153603D-01 0.21406223D+00 0.75527897D+05 0.75527897D+05 0.75527897D+05 0.11749379D+01  1  2 11  2  6  2        2 0.703334653125D-03 0.100000000000D+01
0.273295415207D-03 0.000000000000D+00 0.000000000000D+00 0.345586727127D-05 0.000000000000D+00  6 -1 21 25 24 -2 21 4 0.18140828D-01 0.21760483D+00 0.75527897D+05 0.75527897D+05 0.75527897D+05 0.11749379D+01  3  4 12  5  5  2        2 0.109652223322D-01 0.100000000000D+01
-.286776692813D-03 0.000000000000D+00 -.193295970843D-05 0.346251230457D-05 0.000000000000D+00  6 -1 21 25 24 -2 21 4 0.18140828D-01 0.21411572D+00 0.73484750D+05 0.73484750D+05 0.73484750D+05 0.11760670D+01  3  4  5  5  5  2        2 -.121762864387D-01 0.100000000000D+01
0.112282740172D-06 0.000000000000D+00 0.000000000000D+00 0.346251230457D-05 0.974900876400D-08  6 -1 21 25 24 -2 21 4 0.18153603D-01 0.21406223D+00 0.75527897D+05 0.75527897D+05 0.75527897D+05 0.11749379D+01  3  4 11  5  5  2        2 0.473732548683D-05 0.100000000000D+01
  </mgrwgt>
  </event>
  <event>
  5     66 0.43135346E-03 0.33074565E+02 0.75467711E-02 0.10403779E+00
       -1 -1    0    0    0  501 0.00000000E+00 0.00000000E+00 0.11483966E+03 0.11484011E+03 0.32000000E+00 0.0000E+00 0.9000E+01
        2 -1    0    0  502    0 0.00000000E+00 0.00000000E+00 -.97619733E+03 0.97619739E+03 0.32000000E+00 0.0000E+00 0.9000E+01
       25  1    1    2    0    0 -.11456608E+03 -.20088753E+03 -.53002914E+03 0.59163932E+03 0.12500000E+03 0.0000E+00 0.9000E+01
       24  1    1    2    0    0 0.12174647E+03 0.23317264E+03 -.36175532E+03 0.45445111E+03 0.80419002E+02 0.0000E+00 0.9000E+01
       21  1    1    2  502  501 -.71803934E+01 -.32285109E+02 0.30426795E+02 0.44947065E+02 0.75000000E+00 0.0000E+00 0.9000E+01
#aMCatNLO 1  0  0  1  5 0.14033861D+02 0.00000000D+00  -5  6  0 0.00000000D+00 0.00000000D+00 0.00000000D+00 0.00000000D+00 0.00000000D+00
  <mgrwgt>
 0.1438232014D+01    3    2    0
 0.334823002488222D+03 0.000000000000000D+00 0.000000000000000D+00 0.334823002488222D+03
 0.334823002488222D+03 0.000000000000000D+00 0.000000000000000D+00 -.334823002488222D+03
 0.282173099827813D+03 -.114566008953628D+03 -.200887229970929D+03 -.102545642001411D+03
 0.275104572906915D+03 0.121746535468613D+03 0.233172937376142D+03 -.484483814975022D+01
 0.112368332241714D+03 -.718052651498452D+01 -.322857074052134D+02 0.107390480151161D+03
 0.000000000000000D+00 -.000000000000000D+00 0.000000000000000D+00 -.000000000000000D+00
 0.384804178906048D+03 0.000000000000000D+00 0.000000000000000D+00 0.384804178906048D+03
 0.623142285416052D+03 0.000000000000000D+00 0.000000000000000D+00 -.623142285416052D+03
 0.342415550409776D+03 -.905491328529593D+02 -.287938630629038D+03 -.102545642001411D+03
 0.230030143734474D+03 0.141170131941440D+03 0.162770305839461D+03 -.484483814975022D+01
 0.125794164682097D+03 0.197737153242521D+01 -.654793604335930D+02 0.107390480151161D+03
 0.309706605495752D+03 -.525983706209057D+02 0.190647685223171D+03 -.238338106510004D+03
0.101260661457D-01 0.000000000000D+00 0.000000000000D+00 0.143192839945D-04 0.000000000000D+00  6 -1 2 25 24 21 21 2 0.17667679D-01 0.15018424D+00 0.81515038D+05 0.81515038D+05 0.81515038D+05 0.11718147D+01  1  2  2  1  6  1       -1 0.106424404439D+01 0.100000000000D+01
0.230471393964D-02 0.534367191421D-03 -.388867602541D-04 0.143192839945D-04 0.000000000000D+00  6 -1 2 25 24 21 21 4 0.17667679D-01 0.15018424D+00 0.81515038D+05 0.81515038D+05 0.81515038D+05 0.11718147D+01  1  2  3  1  6  1       -1 0.332610067538D+00 0.100000000000D+01
0.286714795576D-03 0.000000000000D+00 0.000000000000D+00 0.143192839945D-04 0.000000000000D+00  6 -1 2 25 24 21 21 4 0.17667679D-01 0.15018424D+00 0.81515038D+05 0.81515038D+05 0.81515038D+05 0.11718147D+01  1  2 15  1  6  1       -1 0.413779019949D-01 0.100000000000D+01
  </mgrwgt>
  </event>
  <event>
  6     66 0.43135346E-03 0.17132758E+02 0.75467711E-02 0.11975732E+00
       -1 -1    0    0    0  503 0.00000000E+00 0.00000000E+00 0.74228971E+02 0.74229660E+02 0.32000000E+00 0.0000E+00 0.9000E+01
        2 -1    0    0  502    0 0.00000000E+00 0.00000000E+00 -.45837886E+03 0.45837897E+03 0.32000000E+00 0.0000E+00 0.9000E+01
       25  1    1    2    0    0 -.68241630E+02 0.32479232E+02 -.15926196E+03 0.21610459E+03 0.12500000E+03 0.0000E+00 0.9000E+01
       24  1    1    2    0    0 0.79852838E+02 -.27747939E+02 -.18276382E+03 0.21683232E+03 0.80419002E+02 0.0000E+00 0.9000E+01
       21  1    1    2  502  501 0.25536745E+01 0.16386705E+02 -.64001033E+02 0.66119135E+02 0.75000000E+00 0.0000E+00 0.9000E+01
       21  1    1    2  501  503 -.14164883E+02 -.21117997E+02 0.21876928E+02 0.33552589E+02 0.75000000E+00 0.0000E+00 0.9000E+01
#aMCatNLO 2  0  0  1  5 0.14033861D+02 0.00000000D+00  -5  6  0 0.00000000D+00 0.00000000D+00 0.00000000D+00 0.00000000D+00 0.00000000D+00
  <mgrwgt>
 0.2911125098D+00    1    2    0
 0.144527284760040D+03 0.000000000000000D+00 0.000000000000000D+00 0.144527284760040D+03
 0.144527284760040D+03 0.000000000000000D+00 0.000000000000000D+00 -.144527284760040D+03
 0.150368031681306D+03 -.755586481622037D+02 0.215670071634365D+02 0.284833256770130D+02
 0.115754846306904D+03 0.741559689248004D+02 -.362439263467087D+02 -.109196412469882D+02
 0.229316915318701D+02 0.140267923740333D+01 0.146769191832722D+02 -.175636844300248D+02
 0.000000000000000D+00 -.000000000000000D+00 -.000000000000000D+00 0.000000000000000D+00
 0.231529108275013D+03 0.000000000000000D+00 0.000000000000000D+00 0.231529108275013D+03
 0.146955499704696D+03 0.000000000000000D+00 0.000000000000000D+00 -.146955499704696D+03
 0.148821731115262D+03 -.682420019659089D+02 0.324751747986875D+02 0.284833256770130D+02
 0.117187909470714D+03 0.798525533001609D+02 -.277510601279961D+02 -.109196412469882D+02
 0.241612709127081D+02 0.255433142403467D+01 0.163938827718136D+02 -.175636844300248D+02
 0.883136964810263D+02 -.141648827582866D+02 -.211179974425050D+02 0.845736085703169D+02
0.340743532774D-03 0.000000000000D+00 0.000000000000D+00 0.825119234508D-04 0.504549170699D-06  6 -1 2 25 24 21 21 4 0.11419781D-01 0.70519131D-01 0.23221020D+05 0.23221020D+05 0.23221020D+05 0.12267497D+01  1  2  1  1  6  1       -1 0.291112509843D+00 0.100000000000D+01
  </mgrwgt>
  </event>
  <event>
  5     66 -.43135346E-03 0.20941895E+02 0.75467711E-02 0.12007349E+00
       -1 -1    0    0    0  501 0.00000000E+00 0.00000000E+00 0.39265461E+02 0.39266765E+02 0.32000000E+00 0.0000E+00 0.9000E+01
        2 -1    0    0  502    0 -.00000000E+00 -.00000000E+00 -.83859392E+03 0.83859398E+03 0.32000000E+00 0.0000E+00 0.9000E+01
       25  1    1    2    0    0 0.38707181E+02 0.94912591E+02 -.37485168E+03 0.40822227E+03 0.12500000E+03 0.0000E+00 0.9000E+01
       24  1    1    2    0    0 -.22288983E+02 -.81914204E+02 -.13173554E+03 0.17614824E+03 0.80419002E+02 0.0000E+00 0.9000E+01
       21  1    1    2  502  501 -.16418197E+02 -.12998388E+02 -.29274125E+03 0.29349023E+03 0.75000000E+00 0.0000E+00 0.9000E+01
#aMCatNLO 1  0  0  5  1 0.13393719D+01 0.00000000D+00  -5  6  0 0.00000000D+00 0.00000000D+00 0.00000000D+00 0.00000000D+00 0.00000000D+00
  <mgrwgt>
 -.8480586574D+00   25    2    0
 0.181461775041852D+03 0.000000000000000D+00 0.000000000000000D+00 0.181461775041852D+03
 0.181461775041852D+03 -.000000000000000D+00 -.000000000000000D+00 -.181461775041852D+03
 0.161832401978639D+03 0.387076658391028D+02 0.949129754472873D+02 -.761380504128618D+01
 0.135934556586648D+03 -.222885759258770D+02 -.819138810763344D+02 0.693132252189050D+02
 0.651565915184172D+02 -.164190899132258D+02 -.129990943709529D+02 -.616994201776187D+02
 0.000000000000000D+00 0.000000000000000D+00 0.000000000000000D+00 -.000000000000000D+00
 0.181461775041852D+03 0.000000000000000D+00 0.000000000000000D+00 0.181461775041852D+03
 0.181461775041852D+03 -.000000000000000D+00 -.000000000000000D+00 -.181461775041852D+03
 0.161828479805508D+03 0.387002143414567D+02 0.949070760508154D+02 -.764180617208257D+01
 0.135926578138831D+03 -.222948348614465D+02 -.819188363140826D+02 0.692897054807459D+02
 0.459774894948762D+02 -.120050916136154D+02 -.103846209772387D+02 -.431505152085030D+02
 0.191910026444892D+02 -.440028786639477D+01 -.260361875949408D+01 -.184973841001603D+02
0.159131822171D-04 0.000000000000D+00 0.000000000000D+00 0.458381418053D-04 0.000000000000D+00  6 -1 2 25 24 21 21 2 0.60409451D-02 0.12901455D+00 0.22429624D+05 0.22429624D+05 0.22429624D+05 0.12283818D+01  1  2  2  3  6  5       21 0.117858382841D-01 0.100000000000D+01
0.283978858628D-05 0.839761696745D-06 -.611108097507D-07 0.458381418053D-04 0.000000000000D+00  6 -1 2 25 24 21 21 4 0.60409451D-02 0.12901455D+00 0.22429624D+05 0.22429624D+05 0.22429624D+05 0.12283818D+01  1  2  3  3  6  5       21 0.317362906629D-02 0.100000000000D+01
0.515506447790D-06 0.000000000000D+00 0.000000000000D+00 0.458381418053D-04 0.000000000000D+00  6 -1 2 25 24 21 21 4 0.60409451D-02 0.12901455D+00 0.22429624D+05 0.22429624D+05 0.22429624D+05 0.12283818D+01  1  2 15  3  6  5       21 0.576108466128D-03 0.100000000000D+01
0.134586645399D-06 0.000000000000D+00 0.000000000000D+00 0.458371145429D-04 0.000000000000D+00  6 -1 2 25 24 21 21 4 0.60409451D-02 0.12901455D+00 0.22436172D+05 0.22436172D+05 0.22436172D+05 0.12283680D+01  1  2 12  3  6  5       21 0.150402508541D-03 0.100000000000D+01
0.133145142543D-06 0.000000000000D+00 0.000000000000D+00 0.458371145429D-04 0.000000000000D+00  6 -1 2 25 24 21 21 4 0.60409451D-02 0.12901455D+00 0.22436172D+05 0.22436172D+05 0.22436172D+05 0.12283680D+01  1  2 12  3  6  5       21 0.148791608403D-03 0.100000000000D+01
-.575285496872D-02 0.000000000000D+00 0.000000000000D+00 0.458381418053D-04 0.000000000000D+00  6 -1 2 25 24 21 21 4 0.60409451D-02 0.12901455D+00 0.22429624D+05 0.22429624D+05 0.22429624D+05 0.12283818D+01  1  2  4  3  6  5       21 -.642915033573D+01 0.100000000000D+01
-.307678872326D-02 0.000000000000D+00 0.000000000000D+00 0.458381418053D-04 0.000000000000D+00  6 -1 2 25 24 21 21 4 0.60409451D-02 0.12901455D+00 0.22429624D+05 0.22429624D+05 0.22429624D+05 0.12283818D+01  1  2  5  3  6  5       21 -.343849051657D+01 0.100000000000D+01
0.430194226356D-02 0.000000000000D+00 -.000000000000D+00 0.458381418053D-04 0.000000000000D+00  6 -1 2 25 24 21 21 4 0.60409451D-02 0.12901455D+00 0.22429624D+05 0.22429624D+05 0.22429624D+05 0.12283818D+01  1  2  6  3  6  5       21 0.480767092139D+01 0.100000000000D+01
0.373132771941D-02 0.000000000000D+00 0.000000000000D+00 0.458381418053D-04 0.182509684282D-03  6 -1 2 25 24 21 21 4 0.60409451D-02 0.12901455D+00 0.22436172D+05 0.22436172D+05 0.22436172D+05 0.12283680D+01  1  2 11  3  6  5       21 0.416981229843D+01 0.100000000000D+01
0.197686732540D-08 0.000000000000D+00 0.000000000000D+00 0.458371145429D-04 0.000000000000D+00  6 -1 2 25 24 1 -1 4 0.60409451D-02 0.12901455D+00 0.22436172D+05 0.22436172D+05 0.22436172D+05 0.12283680D+01  1  2 12  6  6  5       21 0.220917761873D-05 0.100000000000D+01
0.195742226974D-08 0.000000000000D+00 0.000000000000D+00 0.458371145429D-04 0.000000000000D+00  6 -1 2 25 24 1 -1 4 0.60409451D-02 0.12901455D+00 0.22436172D+05 0.22436172D+05 0.22436172D+05 0.12283680D+01  1  2 12  6  6  5       21 0.218744748984D-05 0.100000000000D+01
-.387731112617D-04 0.000000000000D+00 0.000000000000D+00 0.458381418053D-04 0.000000000000D+00  6 -1 2 25 24 1 -1 4 0.60409451D-02 0.12901455D+00 0.22429624D+05 0.22429624D+05 0.22429624D+05 0.12283818D+01  1  2  5  6  6  5       21 -.433312090503D-01 0.100000000000D+01
0.447243225084D-04 0.000000000000D+00 0.000000000000D+00 0.458381418053D-04 0.372157500666D-05  6 -1 2 25 24 1 -1 4 0.60409451D-02 0.12901455D+00 0.22436172D+05 0.22436172D+05 0.22436172D+05 0.12283680D+01  1  2 11  6  6  5       21 0.499800725262D-01 0.100000000000D+01
0.197686732540D-08 0.000000000000D+00 0.000000000000D+00 0.458371145429D-04 0.000000000000D+00  6 -1 2 25 24 2 -2 4 0.60409451D-02 0.12901455D+00 0.22436172D+05 0.22436172D+05 0.22436172D+05 0.12283680D+01  1  2 12  7  6  5       21 0.220917761873D-05 0.100000000000D+01
0.195742226974D-08 0.000000000000D+00 0.000000000000D+00 0.458371145429D-04 0.000000000000D+00  6 -1 2 25 24 2 -2 4 0.60409451D-02 0.12901455D+00 0.22436172D+05 0.22436172D+05 0.22436172D+05 0.12283680D+01  1  2 12  7  6  5       21 0.218744748984D-05 0.100000000000D+01
-.387731112617D-04 0.000000000000D+00 0.000000000000D+00 0.458381418053D-04 0.000000000000D+00  6 -1 2 25 24 2 -2 4 0.60409451D-02 0.12901455D+00 0.22429624D+05 0.22429624D+05 0.22429624D+05 0.12283818D+01  1  2  5  7  6  5       21 -.433312090503D-01 0.100000000000D+01
0.445074803761D-04 0.000000000000D+00 0.000000000000D+00 0.458381418053D-04 0.370633353835D-05  6 -1 2 25 24 2 -2 4 0.60409451D-02 0.12901455D+00 0.22436172D+05 0.22436172D+05 0.22436172D+05 0.12283680D+01  1  2 11  7  6  5       21 0.497377483300D-01 0.100000000000D+01
0.197686732540D-08 0.000000000000D+00 0.000000000000D+00 0.458371145429D-04 0.000000000000D+00  6 -1 2 25 24 3 -3 4 0.60409451D-02 0.12901455D+00 0.22436172D+05 0.22436172D+05 0.22436172D+05 0.12283680D+01  1  2 12  8  6  5       21 0.220917761873D-05 0.100000000000D+01
0.197686732540D-08 0.000000000000D+00 0.000000000000D+00 0.458371145429D-04 0.000000000000D+00  6 -1 2 25 24 4 -4 4 0.60409451D-02 0.12901455D+00 0.22436172D+05 0.22436172D+05 0.22436172D+05 0.12283680D+01  1  2 12  8  6  5       21 0.220917761873D-05 0.100000000000D+01
0.195742226974D-08 0.000000000000D+00 0.000000000000D+00 0.458371145429D-04 0.000000000000D+00  6 -1 2 25 24 3 -3 4 0.60409451D-02 0.12901455D+00 0.22436172D+05 0.22436172D+05 0.22436172D+05 0.12283680D+01  1  2 12  8  6  5       21 0.218744748984D-05 0.100000000000D+01
0.195742226974D-08 0.000000000000D+00 0.000000000000D+00 0.458371145429D-04 0.000000000000D+00  6 -1 2 25 24 4 -4 4 0.60409451D-02 0.12901455D+00 0.22436172D+05 0.22436172D+05 0.22436172D+05 0.12283680D+01  1  2 12  8  6  5       21 0.218744748984D-05 0.100000000000D+01
-.387731112617D-04 0.000000000000D+00 0.000000000000D+00 0.458381418053D-04 0.000000000000D+00  6 -1 2 25 24 3 -3 4 0.60409451D-02 0.12901455D+00 0.22429624D+05 0.22429624D+05 0.22429624D+05 0.12283818D+01  1  2  5  8  6  5       21 -.433312090503D-01 0.100000000000D+01
-.387731112617D-04 0.000000000000D+00 0.000000000000D+00 0.458381418053D-04 0.000000000000D+00  6 -1 2 25 24 4 -4 4 0.60409451D-02 0.12901455D+00 0.22429624D+05 0.22429624D+05 0.22429624D+05 0.12283818D+01  1  2  5  8  6  5       21 -.433312090503D-01 0.100000000000D+01
0.446766671508D-04 0.000000000000D+00 0.000000000000D+00 0.458381418053D-04 0.371755053697D-05  6 -1 2 25 24 3 -3 4 0.60409451D-02 0.12901455D+00 0.22436172D+05 0.22436172D+05 0.22436172D+05 0.12283680D+01  1  2 11  8  6  5       21 0.499268169798D-01 0.100000000000D+01
0.446766671508D-04 0.000000000000D+00 0.000000000000D+00 0.458381418053D-04 0.371755053697D-05  6 -1 2 25 24 4 -4 4 0.60409451D-02 0.12901455D+00 0.22436172D+05 0.22436172D+05 0.22436172D+05 0.12283680D+01  1  2 11  8  6  5       21 0.499268169798D-01 0.100000000000D+01
  </mgrwgt>
  </event>
  <event>
  5     66 0.43135346E-03 0.58596389E+02 0.75467711E-02 0.11784619E+00
       -1 -1    0    0    0  501 0.00000000E+00 0.00000000E+00 0.20903794E+03 0.20903818E+03 0.32000000E+00 0.0000E+00 0.9000E+01
        2 -1    0    0  502    0 0.00000000E+00 0.00000000E+00 -.97060455E+03 0.97060460E+03 0.32000000E+00 0.0000E+00 0.9000E+01
       25  1    1    2    0    0 -.94856705E+02 -.79072933E+02 -.43813824E+03 0.47205978E+03 0.12500000E+03 0.0000E+00 0.9000E+01
       24  1    1    2    0    0 0.54883640E+02 0.34632816E+02 -.50549736E+03 0.51595198E+03 0.80419002E+02 0.0000E+00 0.9000E+01
       21  1    1    2  502  501 0.39973065E+02 0.44440117E+02 0.18206899E+03 0.19163102E+03 0.75000000E+00 0.0000E+00 0.9000E+01
#aMCatNLO 1  0  0  2  2 0.12421005D+02 0.00000000D+00  -5  6  0 0.00000000D+00 0.00000000D+00 0.00000000D+00 0.00000000D+00 0.00000000D+00
  <mgrwgt>
 0.7044597505D-02    1    2    0
 0.450436843303153D+03 0.000000000000000D+00 0.000000000000000D+00 0.450436843303153D+03
 0.450436843303153D+03 0.000000000000000D+00 0.000000000000000D+00 -.450436843303153D+03
 0.247749047036716D+03 -.948567235169296D+02 -.790729542532702D+02 -.174654688505330D+03
 0.248280384874620D+03 0.548836207945967D+02 0.346327953599934D+02 -.225752721385915D+03
 0.404844254694970D+03 0.399731027223329D+02 0.444401588932768D+02 0.400407409891245D+03
 0.000000000000000D+00 -.000000000000000D+00 -.000000000000000D+00 -.000000000000000D+00
 0.452313528695757D+03 0.000000000000000D+00 0.000000000000000D+00 0.452313528695757D+03
 0.664998814152012D+03 0.000000000000000D+00 0.000000000000000D+00 -.664998814152012D+03
 0.243116199345055D+03 -.888027009608821D+02 -.713463837145437D+02 -.174654688505330D+03
 0.250924097816587D+03 0.610404942350563D+02 0.424906314508422D+02 -.225752721385915D+03
 0.407554164291693D+03 0.499927127666288D+02 0.572278918528198D+02 0.400407409891245D+03
 0.215717881394434D+03 -.222305060408029D+02 -.283721395891183D+02 -.212685285456255D+03
0.110674249793D-03 0.000000000000D+00 0.000000000000D+00 0.262507996173D-04 0.000000000000D+00  6 -1 2 25 24 21 21 4 0.32159706D-01 0.14932380D+00 0.28700602D+05 0.28700602D+05 0.28700602D+05 0.12169219D+01  1  2 14  2  6  2        2 0.704459750534D-02 0.100000000000D+01
  </mgrwgt>
  </event>
  <event>
  5     66 -.43135346E-03 0.66358371E+02 0.75467711E-02 0.11555690E+00
       -1 -1    0    0    0  501 0.00000000E+00 0.00000000E+00 0.17228886E+02 0.17231858E+02 0.32000000E+00 0.0000E+00 0.9000E+01
        2 -1    0    0  502    0 -.00000000E+00 -.00000000E+00 -.23670425E+04 0.23670426E+04 0.32000000E+00 0.0000E+00 0.9000E+01
       25  1    1    2    0    0 -.14925771E+03 0.35619355E+02 -.10605442E+04 0.10788538E+04 0.12500000E+03 0.0000E+00 0.9000E+01
       24  1    1    2    0    0 0.90228498E+02 0.15381872E+01 -.10249082E+04 0.10320115E+04 0.80419002E+02 0.0000E+00 0.9000E+01
       21  1    1    2  502  501 0.59029215E+02 -.37157542E+02 -.26436121E+03 0.27340911E+03 0.75000000E+00 0.0000E+00 0.9000E+01
#aMCatNLO 1  0  0  5  2 0.74848002D+01 0.00000000D+00  -5  6  0 0.00000000D+00 0.00000000D+00 0.00000000D+00 0.00000000D+00 0.00000000D+00
  <mgrwgt>
 -.1470687108D+00   25    2    0
 0.201953150554545D+03 0.000000000000000D+00 0.000000000000000D+00 0.201953150554545D+03
 0.201953150554545D+03 -.000000000000000D+00 -.000000000000000D+00 -.201953150554545D+03
 0.198567926551909D+03 -.149259127096720D+03 0.356202454819880D+02 0.160353529818451D+02
 0.129373994545284D+03 0.902275764313487D+02 0.153876731839073D+01 -.461197480120777D+02
 0.759643800118984D+02 0.590315506653714D+02 -.371590128003787D+02 0.300843950302327D+02
 0.000000000000000D+00 0.000000000000000D+00 0.000000000000000D+00 0.000000000000000D+00
 0.201953150554545D+03 0.000000000000000D+00 0.000000000000000D+00 0.201953150554545D+03
 0.201953150554545D+03 -.000000000000000D+00 -.000000000000000D+00 -.201953150554545D+03
 0.197663837048847D+03 -.148157541832609D+03 0.349268227196104D+02 0.165967566019679D+02
 0.129742928207397D+03 0.909479613424225D+02 0.108530147122816D+01 -.457526164698044D+02
 0.637960027288732D+02 0.529333422152960D+02 -.303553195571032D+02 0.186157412070245D+02
 0.127035331239732D+02 0.427623827489040D+01 -.565680463373534D+01 0.105401186608120D+02
0.143951173836D-03 0.000000000000D+00 0.000000000000D+00 0.377194100337D-05 0.000000000000D+00  6 -1 2 25 24 21 21 2 0.26508281D-02 0.36416062D+00 0.37742186D+05 0.37742186D+05 0.37742186D+05 0.12045711D+01  1  2  2  3  6  5       21 0.512887423720D-01 0.100000000000D+01
0.508145503978D-06 0.759651214572D-05 -.552810410745D-06 0.377194100337D-05 0.000000000000D+00  6 -1 2 25 24 21 21 4 0.26508281D-02 0.36416062D+00 0.37742186D+05 0.37742186D+05 0.37742186D+05 0.12045711D+01  1  2  3  3  6  5       21 0.262699847006D-03 0.100000000000D+01
0.408567534108D-05 0.000000000000D+00 0.000000000000D+00 0.377194100337D-05 0.000000000000D+00  6 -1 2 25 24 21 21 4 0.26508281D-02 0.36416062D+00 0.37742186D+05 0.37742186D+05 0.37742186D+05 0.12045711D+01  1  2 15  3  6  5       21 0.211220266364D-02 0.100000000000D+01
0.379373720179D-03 0.000000000000D+00 0.000000000000D+00 0.377490258179D-05 0.000000000000D+00  6 -1 2 25 24 21 21 4 0.26508281D-02 0.36416062D+00 0.37342607D+05 0.37342607D+05 0.37342607D+05 0.12050439D+01  1  2 12  3  6  5       21 0.196452236056D+00 0.100000000000D+01
0.396799589925D-03 0.000000000000D+00 0.000000000000D+00 0.377490258179D-05 0.000000000000D+00  6 -1 2 25 24 21 21 4 0.26508281D-02 0.36416062D+00 0.37342607D+05 0.37342607D+05 0.37342607D+05 0.12050439D+01  1  2 12  3  6  5       21 0.205475926667D+00 0.100000000000D+01
-.140794607170D-02 0.000000000000D+00 0.000000000000D+00 0.377194100337D-05 0.000000000000D+00  6 -1 2 25 24 21 21 4 0.26508281D-02 0.36416062D+00 0.37742186D+05 0.37742186D+05 0.37742186D+05 0.12045711D+01  1  2  4  3  6  5       21 -.727876591906D+00 0.100000000000D+01
-.100306290709D-02 0.000000000000D+00 0.000000000000D+00 0.377194100337D-05 0.000000000000D+00  6 -1 2 25 24 21 21 4 0.26508281D-02 0.36416062D+00 0.37742186D+05 0.37742186D+05 0.37742186D+05 0.12045711D+01  1  2  5  3  6  5       21 -.518561062072D+00 0.100000000000D+01
0.120068101424D-02 0.000000000000D+00 -.000000000000D+00 0.377194100337D-05 0.000000000000D+00  6 -1 2 25 24 21 21 4 0.26508281D-02 0.36416062D+00 0.37742186D+05 0.37742186D+05 0.37742186D+05 0.12045711D+01  1  2  6  3  6  5       21 0.620725198342D+00 0.100000000000D+01
0.294613794820D-04 0.000000000000D+00 0.000000000000D+00 0.377194100337D-05 0.990116053519D-06  6 -1 2 25 24 21 21 4 0.26508281D-02 0.36416062D+00 0.37342607D+05 0.37342607D+05 0.37342607D+05 0.12050439D+01  1  2 11  3  6  5       21 0.152560748641D-01 0.100000000000D+01
0.582196111351D-05 0.000000000000D+00 0.000000000000D+00 0.377490258179D-05 0.000000000000D+00  6 -1 2 25 24 1 -1 4 0.26508281D-02 0.36416062D+00 0.37342607D+05 0.37342607D+05 0.37342607D+05 0.12050439D+01  1  2 12  6  6  5       21 0.301480365703D-02 0.100000000000D+01
0.595381016949D-05 0.000000000000D+00 0.000000000000D+00 0.377490258179D-05 0.000000000000D+00  6 -1 2 25 24 1 -1 4 0.26508281D-02 0.36416062D+00 0.37342607D+05 0.37342607D+05 0.37342607D+05 0.12050439D+01  1  2 12  6  6  5       21 0.308307945078D-02 0.100000000000D+01
-.818166912803D-05 0.000000000000D+00 0.000000000000D+00 0.377194100337D-05 0.000000000000D+00  6 -1 2 25 24 1 -1 4 0.26508281D-02 0.36416062D+00 0.37742186D+05 0.37742186D+05 0.37742186D+05 0.12045711D+01  1  2  5  6  6  5       21 -.422973973274D-02 0.100000000000D+01
0.125130942334D-06 0.000000000000D+00 0.000000000000D+00 0.377194100337D-05 0.802993277700D-08  6 -1 2 25 24 1 -1 4 0.26508281D-02 0.36416062D+00 0.37342607D+05 0.37342607D+05 0.37342607D+05 0.12050439D+01  1  2 11  6  6  5       21 0.647969327177D-04 0.100000000000D+01
0.582196111351D-05 0.000000000000D+00 0.000000000000D+00 0.377490258179D-05 0.000000000000D+00  6 -1 2 25 24 2 -2 4 0.26508281D-02 0.36416062D+00 0.37342607D+05 0.37342607D+05 0.37342607D+05 0.12050439D+01  1  2 12  7  6  5       21 0.301480365703D-02 0.100000000000D+01
0.595381016949D-05 0.000000000000D+00 0.000000000000D+00 0.377490258179D-05 0.000000000000D+00  6 -1 2 25 24 2 -2 4 0.26508281D-02 0.36416062D+00 0.37342607D+05 0.37342607D+05 0.37342607D+05 0.12050439D+01  1  2 12  7  6  5       21 0.308307945078D-02 0.100000000000D+01
-.818166912803D-05 0.000000000000D+00 0.000000000000D+00 0.377194100337D-05 0.000000000000D+00  6 -1 2 25 24 2 -2 4 0.26508281D-02 0.36416062D+00 0.37742186D+05 0.37742186D+05 0.37742186D+05 0.12045711D+01  1  2  5  7  6  5       21 -.422973973274D-02 0.100000000000D+01
0.167076789150D-06 0.000000000000D+00 0.000000000000D+00 0.377194100337D-05 0.796566033794D-08  6 -1 2 25 24 2 -2 4 0.26508281D-02 0.36416062D+00 0.37342607D+05 0.37342607D+05 0.37342607D+05 0.12050439D+01  1  2 11  7  6  5       21 0.865178768999D-04 0.100000000000D+01
0.582196111351D-05 0.000000000000D+00 0.000000000000D+00 0.377490258179D-05 0.000000000000D+00  6 -1 2 25 24 3 -3 4 0.26508281D-02 0.36416062D+00 0.37342607D+05 0.37342607D+05 0.37342607D+05 0.12050439D+01  1  2 12  8  6  5       21 0.301480365703D-02 0.100000000000D+01
0.582196111351D-05 0.000000000000D+00 0.000000000000D+00 0.377490258179D-05 0.000000000000D+00  6 -1 2 25 24 4 -4 4 0.26508281D-02 0.36416062D+00 0.37342607D+05 0.37342607D+05 0.37342607D+05 0.12050439D+01  1  2 12  8  6  5       21 0.301480365703D-02 0.100000000000D+01
0.595381016949D-05 0.000000000000D+00 0.000000000000D+00 0.377490258179D-05 0.000000000000D+00  6 -1 2 25 24 3 -3 4 0.26508281D-02 0.36416062D+00 0.37342607D+05 0.37342607D+05 0.37342607D+05 0.12050439D+01  1  2 12  8  6  5       21 0.308307945078D-02 0.100000000000D+01
0.595381016949D-05 0.000000000000D+00 0.000000000000D+00 0.377490258179D-05 0.000000000000D+00  6 -1 2 25 24 4 -4 4 0.26508281D-02 0.36416062D+00 0.37342607D+05 0.37342607D+05 0.37342607D+05 0.12050439D+01  1  2 12  8  6  5       21 0.308307945078D-02 0.100000000000D+01
-.818166912803D-05 0.000000000000D+00 0.000000000000D+00 0.377194100337D-05 0.000000000000D+00  6 -1 2 25 24 3 -3 4 0.26508281D-02 0.36416062D+00 0.37742186D+05 0.37742186D+05 0.37742186D+05 0.12045711D+01  1  2  5  8  6  5       21 -.422973973274D-02 0.100000000000D+01
-.818166912803D-05 0.000000000000D+00 0.000000000000D+00 0.377194100337D-05 0.000000000000D+00  6 -1 2 25 24 4 -4 4 0.26508281D-02 0.36416062D+00 0.37742186D+05 0.37742186D+05 0.37742186D+05 0.12045711D+01  1  2  5  8  6  5       21 -.422973973274D-02 0.100000000000D+01
0.166051661295D-06 0.000000000000D+00 0.000000000000D+00 0.377194100337D-05 0.790508561751D-08  6 -1 2 25 24 3 -3 4 0.26508281D-02 0.36416062D+00 0.37342607D+05 0.37342607D+05 0.37342607D+05 0.12050439D+01  1  2 11  8  6  5       21 0.859870318553D-04 0.100000000000D+01
0.166051661295D-06 0.000000000000D+00 0.000000000000D+00 0.377194100337D-05 0.790508561751D-08  6 -1 2 25 24 4 -4 4 0.26508281D-02 0.36416062D+00 0.37342607D+05 0.37342607D+05 0.37342607D+05 0.12050439D+01  1  2 11  8  6  5       21 0.859870318553D-04 0.100000000000D+01
  </mgrwgt>
  </event>
  <event>
  6     66 0.43135346E-03 0.99052902E+02 0.75467711E-02 0.11163063E+00
       21 -1    0    0  503  501 0.00000000E+00 0.00000000E+00 0.16940814E+03 0.16940980E+03 0.75000000E+00 0.0000E+00 0.9000E+01
        2 -1    0    0  502    0 0.00000000E+00 0.00000000E+00 -.17368295E+04 0.17368296E+04 0.32000000E+00 0.0000E+00 0.9000E+01
       25  1    1    2    0    0 -.46687764E+02 -.27399313E+02 -.12051025E+04 0.12127768E+04 0.12500000E+03 0.0000E+00 0.9000E+01
       24  1    1    2    0    0 -.58699136E+02 0.31003553E+01 -.41478472E+03 0.42657799E+03 0.80419002E+02 0.0000E+00 0.9000E+01
        1  1    1    2  503    0 0.83478550E+02 0.12578354E+03 0.91822042E+00 0.15096725E+03 0.32000000E+00 0.0000E+00 0.9000E+01
       21  1    1    2  502  501 0.21908350E+02 -.10148458E+03 0.51547665E+02 0.11591730E+03 0.75000000E+00 0.0000E+00 0.9000E+01
#aMCatNLO 2  0  0  1  1 0.22344965D+03 0.00000000D+00  -5  6  0 0.00000000D+00 0.00000000D+00 0.00000000D+00 0.00000000D+00 0.00000000D+00
  <mgrwgt>
 0.1912514302D+00    1    2    0
 0.386814197346949D+03 0.000000000000000D+00 0.000000000000000D+00 0.386814197346949D+03
 0.386814197346949D+03 0.000000000000000D+00 0.000000000000000D+00 -.386814197346949D+03
 0.299109601685445D+03 -.145118723020778D+02 0.210826883002911D+02 -.270529997665224D+03
 0.121152565291220D+03 -.455623534518771D+02 0.228946010884706D+02 -.749041875411439D+02
 0.000000000000000D+00 0.000000000000000D+00 0.000000000000000D+00 0.000000000000000D+00
 0.353366227717233D+03 0.600742257539549D+02 -.439772893887618D+02 0.345434185206368D+03
 0.714330349583051D+03 0.000000000000000D+00 0.000000000000000D+00 0.714330349583051D+03
 0.411902662781052D+03 0.000000000000000D+00 0.000000000000000D+00 -.411902662781052D+03
 0.302889348444247D+03 -.466878465485904D+02 -.273993202267772D+02 -.270529997665224D+03
 0.124631687998369D+03 -.586991667342597D+02 0.310035682735055D+01 -.749041875411439D+02
 0.338012827917501D+03 0.834785503339341D+02 0.125783535196475D+03 0.302427686801999D+03
 0.360699148003987D+03 0.219084629489159D+02 -.101484571797049D+03 0.345434185206368D+03
0.542085554453D-03 0.000000000000D+00 0.000000000000D+00 0.222346195391D-04 0.635803695554D-08  6 21 2 25 24 1 21 4 0.26062917D-01 0.26720463D+00 0.60176113D+05 0.60176113D+05 0.60176113D+05 0.11843952D+01  1  2  1  4  5  1       -1 0.191251430166D+00 0.100000000000D+01
  </mgrwgt>
  </event>
  <event>
  5     66 -.43135346E-03 0.74033438E+02 0.75467711E-02 0.11685724E+00
       -1 -1    0    0    0  501 0.00000000E+00 0.00000000E+00 0.11007792E+03 0.11007838E+03 0.32000000E+00 0.0000E+00 0.9000E+01
        2 -1    0    0  502    0 -.00000000E+00 -.00000000E+00 -.41180029E+03 0.41180042E+03 0.32000000E+00 0.0000E+00 0.9000E+01
       25  1    1    2    0    0 0.12944238E+03 0.20687445E+02 -.23401171E+02 0.18263602E+03 0.12500000E+03 0.0000E+00 0.9000E+01
       24  1    1    2    0    0 -.50706188E+02 -.26522336E+02 -.84406168E+02 0.12986982E+03 0.80419002E+02 0.0000E+00 0.9000E+01
       21  1    1    2  502  501 -.78736197E+02 0.58348901E+01 -.19391503E+03 0.20937296E+03 0.75000000E+00 0.0000E+00 0.9000E+01
#aMCatNLO 1  0  0  5  2 0.61677096D+01 0.00000000D+00  -5  6  0 0.00000000D+00 0.00000000D+00 0.00000000D+00 0.00000000D+00 0.00000000D+00
  <mgrwgt>
 -.1335750961D+00   25    2    0
 0.212909071125686D+03 0.000000000000000D+00 0.000000000000000D+00 0.212909071125686D+03
 0.212909071125686D+03 -.000000000000000D+00 -.000000000000000D+00 -.212909071125686D+03
 0.207256523384747D+03 0.129443143038651D+03 0.206873892819993D+02 0.100731182513175D+03
 0.993592651625828D+02 -.507058239859273D+02 -.265223625159276D+02 -.114250304052020D+02
 0.119202353704042D+03 -.787373190527234D+02 0.583497323392830D+01 -.893061521079732D+02
 0.000000000000000D+00 0.000000000000000D+00 0.000000000000000D+00 -.000000000000000D+00
 0.212909071125686D+03 0.000000000000000D+00 0.000000000000000D+00 0.212909071125686D+03
 0.212909071125686D+03 -.000000000000000D+00 -.000000000000000D+00 -.212909071125686D+03
 0.206930211273282D+03 0.129163716586317D+03 0.207080966910124D+02 0.100414248922403D+03
 0.994427215414337D+02 -.508399435248053D+02 -.265124233418623D+02 -.115771526781443D+02
 0.902022597768379D+02 -.636381879950803D+02 0.676811940597016D+01 -.635674543871115D+02
 0.292429496598186D+02 -.146855850664309D+02 -.963792755120280D+00 -.252696418571471D+02
0.179562922622D-04 0.000000000000D+00 0.000000000000D+00 0.344037821465D-05 0.000000000000D+00  6 -1 2 25 24 21 21 2 0.16935110D-01 0.63353936D-01 0.32181597D+05 0.32181597D+05 0.32181597D+05 0.12117117D+01  1  2  2  3  6  5       21 0.605936397438D-02 0.100000000000D+01
-.642912212153D-06 0.947579575954D-06 -.689568902871D-07 0.344037821465D-05 0.000000000000D+00  6 -1 2 25 24 21 21 4 0.16935110D-01 0.63353936D-01 0.32181597D+05 0.32181597D+05 0.32181597D+05 0.12117117D+01  1  2  3  3  6  5       21 -.318537567617D-03 0.100000000000D+01
0.636616330093D-06 0.000000000000D+00 0.000000000000D+00 0.344037821465D-05 0.000000000000D+00  6 -1 2 25 24 21 21 4 0.16935110D-01 0.63353936D-01 0.32181597D+05 0.32181597D+05 0.32181597D+05 0.12117117D+01  1  2 15  3  6  5       21 0.315418207121D-03 0.100000000000D+01
0.226730997157D-03 0.000000000000D+00 0.000000000000D+00 0.344090793666D-05 0.000000000000D+00  6 -1 2 25 24 21 21 4 0.16935110D-01 0.63353936D-01 0.32115277D+05 0.32115277D+05 0.32115277D+05 0.12118050D+01  1  2 12  3  6  5       21 0.112367643795D+00 0.100000000000D+01
0.220439130209D-03 0.000000000000D+00 0.000000000000D+00 0.344090793666D-05 0.000000000000D+00  6 -1 2 25 24 21 21 4 0.16935110D-01 0.63353936D-01 0.32115277D+05 0.32115277D+05 0.32115277D+05 0.12118050D+01  1  2 12  3  6  5       21 0.109249401151D+00 0.100000000000D+01
-.977423007320D-03 0.000000000000D+00 0.000000000000D+00 0.344037821465D-05 0.000000000000D+00  6 -1 2 25 24 21 21 4 0.16935110D-01 0.63353936D-01 0.32181597D+05 0.32181597D+05 0.32181597D+05 0.12117117D+01  1  2  4  3  6  5       21 -.484274433429D+00 0.100000000000D+01
-.548679260594D-03 0.000000000000D+00 0.000000000000D+00 0.344037821465D-05 0.000000000000D+00  6 -1 2 25 24 21 21 4 0.16935110D-01 0.63353936D-01 0.32181597D+05 0.32181597D+05 0.32181597D+05 0.12117117D+01  1  2  5  3  6  5       21 -.271848867960D+00 0.100000000000D+01
0.663012502984D-03 0.000000000000D+00 -.000000000000D+00 0.344037821465D-05 0.000000000000D+00  6 -1 2 25 24 21 21 4 0.16935110D-01 0.63353936D-01 0.32181597D+05 0.32181597D+05 0.32181597D+05 0.12117117D+01  1  2  6  3  6  5       21 0.328496466560D+00 0.100000000000D+01
0.128696400876D-03 0.000000000000D+00 0.000000000000D+00 0.344037821465D-05 0.769482615166D-06  6 -1 2 25 24 21 21 4 0.16935110D-01 0.63353936D-01 0.32115277D+05 0.32115277D+05 0.32115277D+05 0.12118050D+01  1  2 11  3  6  5       21 0.637818009562D-01 0.100000000000D+01
0.274230802426D-05 0.000000000000D+00 0.000000000000D+00 0.344090793666D-05 0.000000000000D+00  6 -1 2 25 24 1 -1 4 0.16935110D-01 0.63353936D-01 0.32115277D+05 0.32115277D+05 0.32115277D+05 0.12118050D+01  1  2 12  6  6  5       21 0.135908497342D-02 0.100000000000D+01
0.267520265881D-05 0.000000000000D+00 0.000000000000D+00 0.344090793666D-05 0.000000000000D+00  6 -1 2 25 24 1 -1 4 0.16935110D-01 0.63353936D-01 0.32115277D+05 0.32115277D+05 0.32115277D+05 0.12118050D+01  1  2 12  6  6  5       21 0.132582762486D-02 0.100000000000D+01
-.518162112651D-05 0.000000000000D+00 0.000000000000D+00 0.344037821465D-05 0.000000000000D+00  6 -1 2 25 24 1 -1 4 0.16935110D-01 0.63353936D-01 0.32181597D+05 0.32181597D+05 0.32181597D+05 0.12117117D+01  1  2  5  6  6  5       21 -.256728828408D-02 0.100000000000D+01
0.108337592924D-05 0.000000000000D+00 0.000000000000D+00 0.344037821465D-05 0.112736755499D-07  6 -1 2 25 24 1 -1 4 0.16935110D-01 0.63353936D-01 0.32115277D+05 0.32115277D+05 0.32115277D+05 0.12118050D+01  1  2 11  6  6  5       21 0.536919971416D-03 0.100000000000D+01
0.274230802426D-05 0.000000000000D+00 0.000000000000D+00 0.344090793666D-05 0.000000000000D+00  6 -1 2 25 24 2 -2 4 0.16935110D-01 0.63353936D-01 0.32115277D+05 0.32115277D+05 0.32115277D+05 0.12118050D+01  1  2 12  7  6  5       21 0.135908497342D-02 0.100000000000D+01
0.267520265881D-05 0.000000000000D+00 0.000000000000D+00 0.344090793666D-05 0.000000000000D+00  6 -1 2 25 24 2 -2 4 0.16935110D-01 0.63353936D-01 0.32115277D+05 0.32115277D+05 0.32115277D+05 0.12118050D+01  1  2 12  7  6  5       21 0.132582762486D-02 0.100000000000D+01
-.518162112651D-05 0.000000000000D+00 0.000000000000D+00 0.344037821465D-05 0.000000000000D+00  6 -1 2 25 24 2 -2 4 0.16935110D-01 0.63353936D-01 0.32181597D+05 0.32181597D+05 0.32181597D+05 0.12117117D+01  1  2  5  7  6  5       21 -.256728828408D-02 0.100000000000D+01
0.107196177998D-05 0.000000000000D+00 0.000000000000D+00 0.344037821465D-05 0.111729721974D-07  6 -1 2 25 24 2 -2 4 0.16935110D-01 0.63353936D-01 0.32115277D+05 0.32115277D+05 0.32115277D+05 0.12118050D+01  1  2 11  7  6  5       21 0.531263131046D-03 0.100000000000D+01
0.274230802426D-05 0.000000000000D+00 0.000000000000D+00 0.344090793666D-05 0.000000000000D+00  6 -1 2 25 24 3 -3 4 0.16935110D-01 0.63353936D-01 0.32115277D+05 0.32115277D+05 0.32115277D+05 0.12118050D+01  1  2 12  8  6  5       21 0.135908497342D-02 0.100000000000D+01
0.274230802426D-05 0.000000000000D+00 0.000000000000D+00 0.344090793666D-05 0.000000000000D+00  6 -1 2 25 24 4 -4 4 0.16935110D-01 0.63353936D-01 0.32115277D+05 0.32115277D+05 0.32115277D+05 0.12118050D+01  1  2 12  8  6  5       21 0.135908497342D-02 0.100000000000D+01
0.267520265881D-05 0.000000000000D+00 0.000000000000D+00 0.344090793666D-05 0.000000000000D+00  6 -1 2 25 24 3 -3 4 0.16935110D-01 0.63353936D-01 0.32115277D+05 0.32115277D+05 0.32115277D+05 0.12118050D+01  1  2 12  8  6  5       21 0.132582762486D-02 0.100000000000D+01
0.267520265881D-05 0.000000000000D+00 0.000000000000D+00 0.344090793666D-05 0.000000000000D+00  6 -1 2 25 24 4 -4 4 0.16935110D-01 0.63353936D-01 0.32115277D+05 0.32115277D+05 0.32115277D+05 0.12118050D+01  1  2 12  8  6  5       21 0.132582762486D-02 0.100000000000D+01
-.518162112651D-05 0.000000000000D+00 0.000000000000D+00 0.344037821465D-05 0.000000000000D+00  6 -1 2 25 24 3 -3 4 0.16935110D-01 0.63353936D-01 0.32181597D+05 0.32181597D+05 0.32181597D+05 0.12117117D+01  1  2  5  8  6  5       21 -.256728828408D-02 0.100000000000D+01
-.518162112651D-05 0.000000000000D+00 0.000000000000D+00 0.344037821465D-05 0.000000000000D+00  6 -1 2 25 24 4 -4 4 0.16935110D-01 0.63353936D-01 0.32181597D+05 0.32181597D+05 0.32181597D+05 0.12117117D+01  1  2  5  8  6  5       21 -.256728828408D-02 0.100000000000D+01
0.106736293501D-05 0.000000000000D+00 0.000000000000D+00 0.344037821465D-05 0.110977096230D-07  6 -1 2 25 24 3 -3 4 0.16935110D-01 0.63353936D-01 0.32115277D+05 0.32115277D+05 0.32115277D+05 0.12118050D+01  1  2 11  8  6  5       21 0.528983948313D-03 0.100000000000D+01
0.106736293501D-05 0.000000000000D+00 0.000000000000D+00 0.344037821465D-05 0.110977096230D-07  6 -1 2 25 24 4 -4 4 0.16935110D-01 0.63353936D-01 0.32115277D+05 0.32115277D+05 0.32115277D+05 0.12118050D+01  1  2 11  8  6  5       21 0.528983948313D-03 0.100000000000D+01
  </mgrwgt>
  </event>
  <event>
  5     66 0.43135346E-03 0.28178435E+02 0.75467711E-02 0.11498433E+00
       -1 -1    0    0    0  501 0.00000000E+00 0.00000000E+00 0.15142598E+02 0.15145979E+02 0.32000000E+00 0.0000E+00 0.9000E+01
        2 -1    0    0  502    0 0.00000000E+00 0.00000000E+00 -.25386228E+04 0.25386228E+04 0.32000000E+00 0.0000E+00 0.9000E+01
       25  1    1    2    0    0 0.16025399E+03 -.29835243E+02 -.12179990E+04 0.12351996E+04 0.12500000E+03 0.0000E+00 0.9000E+01
       24  1    1    2    0    0 -.13265487E+03 0.24195368E+02 -.10878821E+04 0.10991531E+04 0.80419002E+02 0.0000E+00 0.9000E+01
       21  1    1    2  502  501 -.27599117E+02 0.56398751E+01 -.21759909E+03 0.21941614E+03 0.75000000E+00 0.0000E+00 0.9000E+01
#aMCatNLO 1  0  0  2  5 0.90530719D+01 0.00000000D+00  -5  6  0 0.00000000D+00 0.00000000D+00 0.00000000D+00 0.00000000D+00 0.00000000D+00
  <mgrwgt>
 0.1613494957D+00    9    4    0
 0.196075718566767D+03 0.000000000000000D+00 0.000000000000000D+00 0.196075718566767D+03
 0.196075718566767D+03 0.000000000000000D+00 0.000000000000000D+00 -.196075718566767D+03
 0.206092409686286D+03 0.160258961827089D+03 -.298362601476849D+02 0.166115641889330D+02
 0.157420001047840D+03 -.132651068212263D+03 0.241945914875966D+02 -.114959393015611D+02
 0.286390263994095D+02 -.276078936148261D+02 0.564166866008832D+01 -.511562488737192D+01
 0.000000000000000D+00 -.000000000000000D+00 -.000000000000000D+00 -.000000000000000D+00
 0.197483977183880D+03 0.000000000000000D+00 0.000000000000000D+00 0.197483977183880D+03
 0.211238047248757D+03 0.000000000000000D+00 0.000000000000000D+00 -.211238047248757D+03
 0.208895410647981D+03 0.164296271770983D+03 -.272595599219986D+02 0.166115641889330D+02
 0.155181036766475D+03 -.129609852984735D+03 0.261355621021970D+02 -.114959393015611D+02
 0.281794738366227D+02 -.270551210158248D+02 0.599446032096987D+01 -.511562488737192D+01
 0.164661031815573D+02 -.763129777042254D+01 -.487046250116828D+01 -.137540700648771D+02
 0.196075718566767D+03 0.000000000000000D+00 0.000000000000000D+00 0.196075718566767D+03
 0.196075718566767D+03 0.000000000000000D+00 0.000000000000000D+00 -.196075718566767D+03
 0.206092409686286D+03 0.160258961827089D+03 -.298362601476849D+02 0.166115641889330D+02
 0.157420001047840D+03 -.132651068212263D+03 0.241945914875966D+02 -.114959393015611D+02
 0.000000000000000D+00 -.000000000000000D+00 -.000000000000000D+00 -.000000000000000D+00
 0.286390263994095D+02 -.276078936148261D+02 0.564166866008832D+01 -.511562488737192D+01
 0.197483977183880D+03 0.000000000000000D+00 0.000000000000000D+00 0.197483977183880D+03
 0.211238047248757D+03 0.000000000000000D+00 0.000000000000000D+00 -.211238047248757D+03
 0.208895410647981D+03 0.164296271770983D+03 -.272595599219986D+02 0.166115641889330D+02
 0.155181036766475D+03 -.129609852984735D+03 0.261355621021970D+02 -.114959393015611D+02
 0.164661031815573D+02 -.763129777042254D+01 -.487046250116828D+01 -.137540700648771D+02
 0.281794738366227D+02 -.270551210158248D+02 0.599446032096987D+01 -.511562488737192D+01
0.244682967012D-03 0.000000000000D+00 0.000000000000D+00 0.216443535678D-04 0.000000000000D+00  6 -1 2 25 24 21 21 2 0.23298921D-02 0.39055761D+00 0.38142084D+05 0.38142084D+05 0.38142084D+05 0.12041035D+01  1  2  2  2  6  2        2 0.850333991639D-01 0.100000000000D+01
0.635712741238D-04 0.129122749139D-04 -.939647019830D-06 0.216443535678D-04 0.000000000000D+00  6 -1 2 25 24 21 21 4 0.23298921D-02 0.39055761D+00 0.38142084D+05 0.38142084D+05 0.38142084D+05 0.12041035D+01  1  2  3  2  6  2        2 0.320312841923D-01 0.100000000000D+01
0.289000442094D-05 0.000000000000D+00 0.000000000000D+00 0.216443535678D-04 0.000000000000D+00  6 -1 2 25 24 21 21 4 0.23298921D-02 0.39055761D+00 0.38142084D+05 0.38142084D+05 0.38142084D+05 0.12041035D+01  1  2 15  2  6  2        2 0.145616953884D-02 0.100000000000D+01
-.110739646549D-02 0.000000000000D+00 0.000000000000D+00 0.216443535678D-04 0.000000000000D+00  6 -1 2 25 24 21 21 4 0.23298921D-02 0.39055761D+00 0.38142084D+05 0.38142084D+05 0.38142084D+05 0.12041035D+01  1  2  4  2  6  2        2 -.557977347291D+00 0.100000000000D+01
-.518875693452D-02 0.000000000000D+00 -.511572041240D-03 0.216443535678D-04 0.000000000000D+00  6 -1 2 25 24 21 21 4 0.23298921D-02 0.42164649D+00 0.38142084D+05 0.38142084D+05 0.38142084D+05 0.12041035D+01  1  2  5  2  6  2        2 -.202226425782D+01 0.100000000000D+01
0.521413468756D-02 0.000000000000D+00 0.510075182438D-03 0.216443535678D-04 0.000000000000D+00  6 -1 2 25 24 21 21 4 0.23298921D-02 0.39055761D+00 0.38142084D+05 0.38142084D+05 0.38142084D+05 0.12041035D+01  1  2  6  2  6  2        2 0.262721539399D+01 0.100000000000D+01
0.141430195382D-06 0.000000000000D+00 0.000000000000D+00 0.216443535678D-04 0.161675899677D-05  6 -1 2 25 24 21 21 4 0.23466259D-02 0.42075902D+00 0.39950582D+05 0.39950582D+05 0.39950582D+05 0.12020548D+01  1  2 11  2  6  2        2 0.545456440674D-04 0.100000000000D+01
-.656490473126D-04 0.000000000000D+00 -.657312464898D-05 0.216443535678D-04 0.000000000000D+00  6 -1 21 25 24 -2 21 4 0.23298921D-02 0.42164649D+00 0.38142084D+05 0.38142084D+05 0.38142084D+05 0.12041035D+01  3  4  5  5  5  2        2 -.419977073289D-02 0.100000000000D+01
0.124614631642D-08 0.000000000000D+00 0.000000000000D+00 0.216443535678D-04 0.283338361912D-07  6 -1 21 25 24 -2 21 4 0.23466259D-02 0.42075902D+00 0.39950582D+05 0.39950582D+05 0.39950582D+05 0.12020548D+01  3  4 11  5  5  2        2 0.789861805336D-07 0.100000000000D+01
  </mgrwgt>
  </event>
  <event>
  6     66 0.43135346E-03 0.17584192E+02 0.75467711E-02 0.12469930E+00
       -1 -1    0    0    0  501 0.00000000E+00 0.00000000E+00 0.16701723E+02 0.16704788E+02 0.32000000E+00 0.0000E+00 0.9000E+01
        2 -1    0    0  503    0 0.00000000E+00 0.00000000E+00 -.18684380E+04 0.18684380E+04 0.32000000E+00 0.0000E+00 0.9000E+01
       25  1    1    2    0    0 -.26950035E+02 -.30929507E+01 -.37458153E+03 0.39581838E+03 0.12500000E+03 0.0000E+00 0.9000E+01
       24  1    1    2    0    0 0.11611675E+02 0.57860061E+00 -.27450662E+03 0.28628005E+03 0.80419002E+02 0.0000E+00 0.9000E+01
       21  1    1    2  502  501 0.19352556E+02 0.65974006E+01 -.56536233E+03 0.56573242E+03 0.75000000E+00 0.0000E+00 0.9000E+01
       21  1    1    2  503  502 -.40141961E+01 -.40830505E+01 -.63728577E+03 0.63731194E+03 0.75000000E+00 0.0000E+00 0.9000E+01
#aMCatNLO 2  0  0  2  2 0.17726919D+03 0.00000000D+00  -5  6  0 0.00000000D+00 0.00000000D+00 0.00000000D+00 0.00000000D+00 0.00000000D+00
  <mgrwgt>
 0.1910508210D+01    1    2    0
 0.143317034943139D+03 0.000000000000000D+00 0.000000000000000D+00 0.143317034943139D+03
 0.143317034943139D+03 0.000000000000000D+00 0.000000000000000D+00 -.143317034943139D+03
 0.136497056038803D+03 -.288588268922544D+02 -.503409452636565D+01 0.463494585724862D+02
 0.830517721132432D+02 0.104472736196112D+02 -.605536597874856D+00 0.179128081585540D+02
 0.670852417342312D+02 0.184115532726433D+02 0.563963112424050D+01 -.642622667310402D+02
 0.000000000000000D+00 -.000000000000000D+00 -.000000000000000D+00 -.000000000000000D+00
 0.143456089006846D+03 0.000000000000000D+00 0.000000000000000D+00 0.143456089006846D+03
 0.217545493909305D+03 0.000000000000000D+00 0.000000000000000D+00 -.217545493909305D+03
 0.136048421313467D+03 -.269505717425530D+02 -.309310760780849D+01 0.463494585724862D+02
 0.832060252582052D+02 0.116113446623385D+02 0.578501431085015D+00 0.179128081585540D+02
 0.674368073788889D+02 0.193534232147253D+02 0.659765669899105D+01 -.642622667310402D+02
 0.743103289655896D+02 -.401419613451089D+01 -.408305052226758D+01 -.740894049024584D+02
0.166964230558D-02 0.000000000000D+00 0.000000000000D+00 0.760333819048D-04 0.825206479040D-05  6 -1 2 25 24 21 21 4 0.25696999D-02 0.28744845D+00 0.13845953D+05 0.13845953D+05 0.13845953D+05 0.12518058D+01  1  2  1  2  6  2        2 0.191050820972D+01 0.100000000000D+01
  </mgrwgt>
  </event>
  <event>
  6     66 -.43135346E-03 0.10059895E+02 0.75467711E-02 0.10229742E+00
       -1 -1    0    0    0  501 0.00000000E+00 0.00000000E+00 0.79131885E+03 0.79131891E+03 0.32000000E+00 0.0000E+00 0.9000E+01
        2 -1    0    0  502    0 0.00000000E+00 0.00000000E+00 -.28291250E+03 0.28291268E+03 0.32000000E+00 0.0000E+00 0.9000E+01
       25  1    1    2    0    0 0.30343333E+03 0.31516115E+03 0.30532802E+03 0.54794939E+03 0.12500000E+03 0.0000E+00 0.9000E+01
       24  1    1    2    0    0 -.30640021E+03 -.31905009E+03 0.17990530E+03 0.48425942E+03 0.80419002E+02 0.0000E+00 0.9000E+01
       21  1    1    2  503  501 -.44462802E+01 0.18030900E+02 0.15908168E+02 0.24464567E+02 0.75000000E+00 0.0000E+00 0.9000E+01
       21  1    1    2  502  503 0.74131622E+01 -.14141958E+02 0.72648592E+01 0.17558207E+02 0.75000000E+00 0.0000E+00 0.9000E+01
#aMCatNLO 2  0  0  5  1 0.16407095D+02 0.00000000D+00  -5  6  0 0.00000000D+00 0.00000000D+00 0.00000000D+00 0.00000000D+00 0.00000000D+00
  <mgrwgt>
 -.1328482654D+01    5    2    0
 0.473153383210517D+03 0.000000000000000D+00 0.000000000000000D+00 0.473153383210517D+03
 0.473153383210517D+03 -.000000000000000D+00 -.000000000000000D+00 -.473153383210517D+03
 0.446420367848516D+03 0.296620090768527D+03 0.306230463166199D+03 0.436528350910887D+02
 0.465269317105411D+03 -.313318419149250D+03 -.328118366627944D+03 -.646392078276815D+02
 0.346170814671068D+02 0.166983283807221D+02 0.218879034617451D+02 0.209863727365929D+02
 0.000000000000000D+00 0.000000000000000D+00 -.000000000000000D+00 0.000000000000000D+00
 0.473153383210517D+03 0.000000000000000D+00 0.000000000000000D+00 0.473153383210517D+03
 0.473153383210517D+03 -.000000000000000D+00 -.000000000000000D+00 -.473153383210517D+03
 0.458213404096343D+03 0.303567338567639D+03 0.315336805171506D+03 0.523841001902918D+02
 0.452836033749067D+03 -.306267714680895D+03 -.318876415264788D+03 -.557779189217042D+02
 0.185628309867540D+02 -.727633475927842D+01 0.168946265879399D+02 0.249103174764734D+01
 0.166944975888698D+02 0.997671087253389D+01 -.133550164946581D+02 0.902786983765121D+00
-.251983158537D-01 0.000000000000D+00 0.000000000000D+00 0.173415734740D-04 0.000000000000D+00  6 -1 2 25 24 21 21 4 0.12174138D+00 0.43525019D-01 0.22074112D+06 0.22074112D+06 0.22074112D+06 0.11332444D+01  1  2 13  3  6  5       21 -.346103382557D+00 0.100000000000D+01
-.281252520704D-01 0.000000000000D+00 0.000000000000D+00 0.173415734740D-04 0.000000000000D+00  6 -1 2 25 24 21 21 4 0.12174138D+00 0.43525019D-01 0.22074112D+06 0.22074112D+06 0.22074112D+06 0.11332444D+01  1  2 13  3  6  5       21 -.386305375858D+00 0.100000000000D+01
-.557160918037D-01 0.000000000000D+00 0.000000000000D+00 0.173586488983D-04 0.000000000000D+00  6 -1 2 25 24 21 21 4 0.12174138D+00 0.43525019D-01 0.21742102D+06 0.21742102D+06 0.21742102D+06 0.11338021D+01  1  2  8  3  6  5       21 -.767066184849D+00 0.100000000000D+01
-.136909261285D-01 0.000000000000D+00 0.000000000000D+00 0.173586488983D-04 0.000000000000D+00  6 -1 2 25 24 21 21 4 0.12174138D+00 0.43525019D-01 0.21742102D+06 0.21742102D+06 0.21742102D+06 0.11338021D+01  1  2  9  3  6  5       21 -.188488570043D+00 0.100000000000D+01
0.261110044508D-01 0.000000000000D+00 0.000000000000D+00 0.173586488983D-04 0.000000000000D+00  6 -1 2 25 24 21 21 4 0.12174138D+00 0.43525019D-01 0.21742102D+06 0.21742102D+06 0.21742102D+06 0.11338021D+01  1  2 10  3  6  5       21 0.359480859447D+00 0.100000000000D+01
  </mgrwgt>
  </event>
  <event>
  5     66 0.43135346E-03 0.32606914E+02 0.75467711E-02 0.10895247E+00
       -1 -1    0    0    0  501 0.00000000E+00 0.00000000E+00 0.38385874E+02 0.38387208E+02 0.32000000E+00 0.0000E+00 0.9000E+01
        2 -1    0    0  502    0 0.00000000E+00 0.00000000E+00 -.74475618E+03 0.74475625E+03 0.32000000E+00 0.0000E+00 0.9000E+01
       25  1    1    2    0    0 0.92572742E+02 0.87466031E+01 -.32104161E+03 0.35684581E+03 0.12500000E+03 0.0000E+00 0.9000E+01
       24  1    1    2    0    0 -.11983244E+03 0.91343667E+01 -.26802089E+03 0.30454173E+03 0.80419002E+02 0.0000E+00 0.9000E+01
       21  1    1    2  502  501 0.27259700E+02 -.17880970E+02 -.11730780E+03 0.12175592E+03 0.75000000E+00 0.0000E+00 0.9000E+01
#aMCatNLO 1  0  0  1  1 0.19884290D+03 0.00000000D+00  -5  6  0 0.00000000D+00 0.00000000D+00 0.00000000D+00 0.00000000D+00 0.00000000D+00
  <mgrwgt>
 0.2578757210D+00    3    2    0
 0.169081832845009D+03 0.000000000000000D+00 0.000000000000000D+00 0.169081832845009D+03
 0.169081832845009D+03 0.000000000000000D+00 0.000000000000000D+00 -.169081832845009D+03
 0.155802422587293D+03 0.925701520356669D+02 0.874830222749855D+01 0.190500506538916D+01
 0.145428475389231D+03 -.119834859810343D+03 0.913595265303055D+01 0.154391140621045D+02
 0.369327677134939D+02 0.272647077746760D+02 -.178842548805291D+02 -.173441191274936D+02
 0.000000000000000D+00 0.000000000000000D+00 -.000000000000000D+00 -.000000000000000D+00
 0.233931710782739D+03 0.000000000000000D+00 0.000000000000000D+00 0.233931710782739D+03
 0.457743658503974D+03 0.000000000000000D+00 0.000000000000000D+00 -.457743658503974D+03
 0.144869027476989D+03 0.332961599393900D+02 0.651902738997158D+02 0.190500506538916D+01
 0.223440752644162D+03 -.192553276215814D+03 0.783799946628799D+02 0.154391140621045D+02
 0.239824117257851D+02 0.152559657945007D+02 -.644927217237787D+01 -.173441191274936D+02
 0.299383177439777D+03 0.144001150481923D+03 -.137120996390218D+03 -.223811947721236D+03
0.228243353064D-03 0.000000000000D+00 0.000000000000D+00 0.181908621455D-04 0.000000000000D+00  6 -1 2 25 24 21 21 2 0.59056270D-02 0.11457798D+00 0.27722968D+05 0.27722968D+05 0.27722968D+05 0.12185129D+01  1  2  2  1  6  1       -1 0.200356503300D+00 0.100000000000D+01
0.334563821358D-04 0.120447326515D-04 -.876514573621D-06 0.181908621455D-04 0.000000000000D+00  6 -1 2 25 24 21 21 4 0.59056270D-02 0.11457798D+00 0.27722968D+05 0.27722968D+05 0.27722968D+05 0.12185129D+01  1  2  3  1  6  1       -1 0.436058297522D-01 0.100000000000D+01
0.106749860303D-04 0.000000000000D+00 0.000000000000D+00 0.181908621455D-04 0.000000000000D+00  6 -1 2 25 24 21 21 4 0.59056270D-02 0.11457798D+00 0.27722968D+05 0.27722968D+05 0.27722968D+05 0.12185129D+01  1  2 15  1  6  1       -1 0.139133879317D-01 0.100000000000D+01
  </mgrwgt>
  </event>
  <event>
  5     66 0.43135346E-03 0.10312318E+03 0.75467711E-02 0.10357190E+00
       -1 -1    0    0    0  501 0.00000000E+00 0.00000000E+00 0.19544727E+02 0.19547347E+02 0.32000000E+00 0.0000E+00 0.9000E+01
        2 -1    0    0  502    0 0.00000000E+00 0.00000000E+00 -.27350993E+04 0.27350993E+04 0.32000000E+00 0.0000E+00 0.9000E+01
       25  1    1    2    0    0 0.52035523E+02 0.65122043E+02 -.73709116E+03 0.75224793E+03 0.12500000E+03 0.0000E+00 0.9000E+01
       24  1    1    2    0    0 -.26023658E+02 0.34665933E+02 -.18854748E+03 0.20951450E+03 0.80419002E+02 0.0000E+00 0.9000E+01
       21  1    1    2  502  501 -.26011864E+02 -.99787976E+02 -.17899159E+04 0.17928842E+04 0.75000000E+00 0.0000E+00 0.9000E+01
#aMCatNLO 1  0  0  1  1 0.19884290D+03 0.00000000D+00  -5  6  0 0.00000000D+00 0.00000000D+00 0.00000000D+00 0.00000000D+00 0.00000000D+00
  <mgrwgt>
 0.7874102707D-02    5    4    0
 0.231215058351069D+03 0.000000000000000D+00 0.000000000000000D+00 0.231215058351069D+03
 0.231215058351069D+03 0.000000000000000D+00 0.000000000000000D+00 -.231215058351069D+03
 0.152598420174350D+03 0.520356070973123D+02 0.651223675122148D+02 0.266955180381563D+02
 0.140837749386821D+03 -.260235803127876D+02 0.346662318785825D+02 0.107187132310827D+03
 0.168993947140967D+03 -.260120267845247D+02 -.997885993907973D+02 -.133882650348983D+03
 0.000000000000000D+00 0.000000000000000D+00 0.000000000000000D+00 0.000000000000000D+00
 0.204165763610574D+04 0.000000000000000D+00 0.000000000000000D+00 0.204165763610574D+04
 0.306246192252296D+03 0.000000000000000D+00 0.000000000000000D+00 -.306246192252296D+03
 0.129983000650394D+03 0.121542783673734D+02 -.202534760503752D+02 0.266955180381563D+02
 0.160775287294836D+03 -.685908822607685D+02 -.564596013804317D+02 0.107187132310827D+03
 0.287383177604609D+03 -.904215201039416D+02 -.237673043081765D+03 -.133882650348983D+03
 0.176976236280820D+04 0.146858123997337D+03 0.314386120512572D+03 0.173541144385345D+04
 0.231215058351069D+03 0.000000000000000D+00 0.000000000000000D+00 0.231215058351069D+03
 0.231215058351069D+03 0.000000000000000D+00 0.000000000000000D+00 -.231215058351069D+03
 0.152598420174350D+03 0.520356070973123D+02 0.651223675122148D+02 0.266955180381563D+02
 0.140837749386821D+03 -.260235803127876D+02 0.346662318785825D+02 0.107187132310827D+03
 0.000000000000000D+00 0.000000000000000D+00 0.000000000000000D+00 0.000000000000000D+00
 0.168993947140967D+03 -.260120267845247D+02 -.997885993907973D+02 -.133882650348983D+03
 0.204165763610574D+04 0.000000000000000D+00 0.000000000000000D+00 0.204165763610574D+04
 0.306246192252296D+03 0.000000000000000D+00 0.000000000000000D+00 -.306246192252296D+03
 0.129983000650394D+03 0.121542783673734D+02 -.202534760503752D+02 0.266955180381563D+02
 0.160775287294836D+03 -.685908822607685D+02 -.564596013804317D+02 0.107187132310827D+03
 0.176976236280820D+04 0.146858123997337D+03 0.314386120512572D+03 0.173541144385345D+04
 0.287383177604609D+03 -.904215201039416D+02 -.237673043081765D+03 -.133882650348983D+03
0.153357308879D-03 0.000000000000D+00 0.000000000000D+00 0.336966068465D-05 0.000000000000D+00  6 -1 2 25 24 21 21 2 0.30070841D-02 0.42078470D+00 0.29708985D+05 0.29708985D+05 0.29708985D+05 0.12153430D+01  1  2  2  1  6  1       -1 0.292510895017D-01 0.100000000000D+01
-.101866647664D-04 0.809288752905D-05 -.588932446001D-06 0.336966068465D-05 0.000000000000D+00  6 -1 2 25 24 21 21 4 0.30070841D-02 0.42078470D+00 0.29708985D+05 0.29708985D+05 0.29708985D+05 0.12153430D+01  1  2  3  1  6  1       -1 -.286990344006D-02 0.100000000000D+01
0.759084017600D-05 0.000000000000D+00 0.000000000000D+00 0.336966068465D-05 0.000000000000D+00  6 -1 2 25 24 21 21 4 0.30070841D-02 0.42078470D+00 0.29708985D+05 0.29708985D+05 0.29708985D+05 0.12153430D+01  1  2 15  1  6  1       -1 0.213857811498D-02 0.100000000000D+01
-.880959979070D-03 0.000000000000D+00 -.245269606718D-03 0.336966068465D-05 0.000000000000D+00  6 -1 2 25 24 21 21 4 0.39951721D-01 0.42078470D+00 0.29708985D+05 0.29708985D+05 0.29708985D+05 0.12153430D+01  1  2  5  1  6  1       -1 -.432684912529D-02 0.100000000000D+01
-.311616965889D-03 0.000000000000D+00 -.728009442579D-04 0.336966068465D-05 0.000000000000D+00  6 21 2 25 24 1 21 4 0.39951721D-01 0.42078470D+00 0.29708985D+05 0.29708985D+05 0.29708985D+05 0.12153430D+01  3  4  5  4  5  1       -1 -.163188123446D-01 0.100000000000D+01
  </mgrwgt>
  </event>
  <event>
  6     66 0.43135346E-03 0.13623835E+02 0.75467711E-02 0.11891279E+00
       -1 -1    0    0    0  501 0.00000000E+00 0.00000000E+00 0.19226078E+03 0.19226104E+03 0.32000000E+00 0.0000E+00 0.9000E+01
        2 -1    0    0  503    0 0.00000000E+00 0.00000000E+00 -.20603812E+03 0.20603837E+03 0.32000000E+00 0.0000E+00 0.9000E+01
       25  1    1    2    0    0 0.33350797E+01 -.84429919E+02 0.96446511E+02 0.17907111E+03 0.12500000E+03 0.0000E+00 0.9000E+01
       24  1    1    2    0    0 0.27350283E+02 0.97585128E+02 -.39551237E+02 0.13528641E+03 0.80419002E+02 0.0000E+00 0.9000E+01
       21  1    1    2  502  501 -.86507860E+01 -.14513076E+02 -.10656176E+02 0.19989549E+02 0.75000000E+00 0.0000E+00 0.9000E+01
       21  1    1    2  503  502 -.22034577E+02 0.13578666E+01 -.60016447E+02 0.63952348E+02 0.75000000E+00 0.0000E+00 0.9000E+01
#aMCatNLO 2  0  0  2  1 0.18620225D+02 0.00000000D+00  -5  6  0 0.00000000D+00 0.00000000D+00 0.00000000D+00 0.00000000D+00 0.00000000D+00
  <mgrwgt>
 0.3726591387D+00    1    2    0
 0.165198774629744D+03 0.000000000000000D+00 0.000000000000000D+00 0.165198774629744D+03
 0.165198774629744D+03 0.000000000000000D+00 0.000000000000000D+00 -.165198774629744D+03
 0.167144084427701D+03 -.780318981571996D+01 -.837391970024757D+02 0.723809510386172D+02
 0.141017200587314D+03 0.179218721323708D+02 0.981698034040835D+02 -.588228791031762D+02
 0.222362642444729D+02 -.101186823166508D+02 -.144306064016079D+02 -.135580719354411D+02
 0.000000000000000D+00 -.000000000000000D+00 0.000000000000000D+00 -.000000000000000D+00
 0.167277470203789D+03 0.000000000000000D+00 0.000000000000000D+00 0.167277470203789D+03
 0.236805637078486D+03 0.000000000000000D+00 0.000000000000000D+00 -.236805637078486D+03
 0.167340531816643D+03 0.333796292825293D+01 -.844257633599587D+02 0.723809510386172D+02
 0.142123413804706D+03 0.273528375034641D+02 0.975886262412551D+02 -.588228791031762D+02
 0.216703276702053D+02 -.865622328794808D+01 -.145207294967111D+02 -.135580719354411D+02
 0.729488339907207D+02 -.220345771437689D+02 0.135786661541476D+01 -.695281668746974D+02
0.862325026422D-03 0.000000000000D+00 0.000000000000D+00 0.514181810397D-04 0.573485567600D-06  6 -1 2 25 24 21 21 4 0.29578283D-01 0.31697851D-01 0.25478134D+05 0.25478134D+05 0.25478134D+05 0.12224165D+01  1  2  1  2  6  2        2 0.372659138681D+00 0.100000000000D+01
  </mgrwgt>
  </event>
  <event>
  5     66 -.43135346E-03 0.41758497E+02 0.75467711E-02 0.12171602E+00
       -1 -1    0    0    0  501 0.00000000E+00 0.00000000E+00 0.41738563E+02 0.41739790E+02 0.32000000E+00 0.0000E+00 0.9000E+01
        2 -1    0    0  502    0 0.00000000E+00 0.00000000E+00 -.54061589E+03 0.54061599E+03 0.32000000E+00 0.0000E+00 0.9000E+01
       25  1    1    2    0    0 0.30166617E+02 -.42906125E+02 -.15411639E+03 0.20525063E+03 0.12500000E+03 0.0000E+00 0.9000E+01
       24  1    1    2    0    0 0.10195137E+02 0.32203416E+02 -.11917073E+03 0.14768168E+03 0.80419002E+02 0.0000E+00 0.9000E+01
       21  1    1    2  502  501 -.40361753E+02 0.10702709E+02 -.22559021E+03 0.22942346E+03 0.75000000E+00 0.0000E+00 0.9000E+01
#aMCatNLO 1  0  0  2  5 0.10511839D+02 0.00000000D+00  -5  6  0 0.00000000D+00 0.00000000D+00 0.00000000D+00 0.00000000D+00 0.00000000D+00
  <mgrwgt>
 -.4425257479D+00    9    4    0
 0.150216228452801D+03 0.000000000000000D+00 0.000000000000000D+00 0.150216228452801D+03
 0.150216228452801D+03 0.000000000000000D+00 0.000000000000000D+00 -.150216228452801D+03
 0.141941887612068D+03 0.301677077349760D+02 -.429064141469111D+02 0.420885791390946D+02
 0.883784528423701D+02 0.101958160968541D+02 0.322032356327842D+02 0.142313710280848D+02
 0.701121164511638D+02 -.403635238318301D+02 0.107031785141269D+02 -.563199501671794D+02
 0.000000000000000D+00 -.000000000000000D+00 0.000000000000000D+00 -.000000000000000D+00
 0.150976467281730D+03 0.000000000000000D+00 0.000000000000000D+00 0.150976467281730D+03
 0.191642850425956D+03 0.000000000000000D+00 0.000000000000000D+00 -.191642850425956D+03
 0.143763742375062D+03 0.342168902546291D+02 -.458341526488508D+02 0.420885791390946D+02
 0.880614238809992D+02 0.126964222789240D+02 0.303951864865922D+02 0.142313710280848D+02
 0.687911339120048D+02 -.383949080459988D+02 0.927978201280093D+01 -.563199501671794D+02
 0.420030175396189D+02 -.851840448755431D+01 0.615918414945772D+01 -.406663831442264D+02
 0.150216228452801D+03 0.000000000000000D+00 0.000000000000000D+00 0.150216228452801D+03
 0.150216228452801D+03 0.000000000000000D+00 0.000000000000000D+00 -.150216228452801D+03
 0.141941887612068D+03 0.301677077349760D+02 -.429064141469111D+02 0.420885791390946D+02
 0.883784528423701D+02 0.101958160968541D+02 0.322032356327842D+02 0.142313710280848D+02
 0.000000000000000D+00 -.000000000000000D+00 0.000000000000000D+00 -.000000000000000D+00
 0.701121164511638D+02 -.403635238318301D+02 0.107031785141269D+02 -.563199501671794D+02
 0.150976467281730D+03 0.000000000000000D+00 0.000000000000000D+00 0.150976467281730D+03
 0.191642850425956D+03 0.000000000000000D+00 0.000000000000000D+00 -.191642850425956D+03
 0.143763742375062D+03 0.342168902546291D+02 -.458341526488508D+02 0.420885791390946D+02
 0.880614238809992D+02 0.126964222789240D+02 0.303951864865922D+02 0.142313710280848D+02
 0.420030175396189D+02 -.851840448755431D+01 0.615918414945772D+01 -.406663831442264D+02
 0.687911339120048D+02 -.383949080459988D+02 0.927978201280093D+01 -.563199501671794D+02
0.144222489706D-04 0.000000000000D+00 0.000000000000D+00 0.165001228568D-04 0.000000000000D+00  6 -1 2 25 24 21 21 2 0.64214190D-02 0.83171777D-01 0.17495604D+05 0.17495604D+05 0.17495604D+05 0.12402742D+01  1  2  2  2  6  2        2 0.165913421947D-01 0.100000000000D+01
0.256659927639D-06 0.761082987755D-06 -.553852335126D-07 0.165001228568D-04 0.000000000000D+00  6 -1 2 25 24 21 21 4 0.64214190D-02 0.83171777D-01 0.17495604D+05 0.17495604D+05 0.17495604D+05 0.12402742D+01  1  2  3  2  6  2        2 0.454194661436D-03 0.100000000000D+01
0.533819408267D-06 0.000000000000D+00 0.000000000000D+00 0.165001228568D-04 0.000000000000D+00  6 -1 2 25 24 21 21 4 0.64214190D-02 0.83171777D-01 0.17495604D+05 0.17495604D+05 0.17495604D+05 0.12402742D+01  1  2 15  2  6  2        2 0.944666070922D-03 0.100000000000D+01
0.318978473907D-03 0.000000000000D+00 0.000000000000D+00 0.164062508535D-04 0.000000000000D+00  6 -1 2 25 24 21 21 4 0.64214190D-02 0.11095793D+00 0.18821221D+05 0.18821221D+05 0.18821221D+05 0.12367411D+01  1  2 12  2  6  2        2 0.401256366451D+00 0.100000000000D+01
-.578694472439D-03 0.000000000000D+00 0.000000000000D+00 0.165001228568D-04 0.000000000000D+00  6 -1 2 25 24 21 21 4 0.64214190D-02 0.83171777D-01 0.17495604D+05 0.17495604D+05 0.17495604D+05 0.12402742D+01  1  2  4  2  6  2        2 -.102407860238D+01 0.100000000000D+01
-.420946888315D-03 0.000000000000D+00 -.157731298299D-04 0.165001228568D-04 0.000000000000D+00  6 -1 2 25 24 21 21 4 0.64214190D-02 0.10633591D+00 0.17495604D+05 0.17495604D+05 0.17495604D+05 0.12402742D+01  1  2  5  2  6  2        2 -.562483503211D+00 0.100000000000D+01
0.412765364260D-03 0.000000000000D+00 0.153087371628D-04 0.165001228568D-04 0.000000000000D+00  6 -1 2 25 24 21 21 4 0.64214190D-02 0.83171777D-01 0.17495604D+05 0.17495604D+05 0.17495604D+05 0.12402742D+01  1  2  6  2  6  2        2 0.730444470226D+00 0.100000000000D+01
0.119785966468D-04 0.000000000000D+00 0.000000000000D+00 0.164062508535D-04 0.000000000000D+00  6 -1 21 25 24 -2 21 4 0.64214190D-02 0.11095793D+00 0.18821221D+05 0.18821221D+05 0.18821221D+05 0.12367411D+01  3  4 12  5  5  2        2 0.193799731397D-01 0.100000000000D+01
-.138076692862D-04 0.000000000000D+00 -.527007991373D-06 0.165001228568D-04 0.000000000000D+00  6 -1 21 25 24 -2 21 4 0.64214190D-02 0.10633591D+00 0.17495604D+05 0.17495604D+05 0.17495604D+05 0.12402742D+01  3  4  5  5  5  2        2 -.250346550547D-01 0.100000000000D+01
  </mgrwgt>
  </event>
  <event>
  5     66 0.43135346E-03 0.66579402E+02 0.75467711E-02 0.11535963E+00
       -1 -1    0    0    0  501 0.00000000E+00 0.00000000E+00 0.73392828E+02 0.73393525E+02 0.32000000E+00 0.0000E+00 0.9000E+01
        2 -1    0    0  502    0 -.00000000E+00 -.00000000E+00 -.65272150E+03 0.65272158E+03 0.32000000E+00 0.0000E+00 0.9000E+01
       25  1    1    2    0    0 -.92959997E+02 0.71931850E+02 -.24385069E+03 0.29816759E+03 0.12500000E+03 0.0000E+00 0.9000E+01
       24  1    1    2    0    0 0.12445604E+03 -.12081897E+02 -.32772412E+03 0.35986886E+03 0.80419002E+02 0.0000E+00 0.9000E+01
       21  1    1    2  502  501 -.31496048E+02 -.59849953E+02 -.77538540E+01 0.68078651E+02 0.75000000E+00 0.0000E+00 0.9000E+01
#aMCatNLO 1  0  0  5  1 0.11696688D+02 0.00000000D+00  -5  6  0 0.00000000D+00 0.00000000D+00 0.00000000D+00 0.00000000D+00 0.00000000D+00
  <mgrwgt>
 0.1607285836D+00   20    2    0
 0.218872926935830D+03 0.000000000000000D+00 0.000000000000000D+00 0.218872926935830D+03
 0.218872926935830D+03 -.000000000000000D+00 -.000000000000000D+00 -.218872926935830D+03
 0.171867648011455D+03 -.929596671083889D+02 0.719324768002015D+02 -.988471069255182D+01
 0.163214469060528D+03 0.124456358113051D+03 -.120813011078197D+02 -.673528324951357D+02
 0.102663736799677D+03 -.314966910046621D+02 -.598511756923818D+02 0.772375431876875D+02
 0.000000000000000D+00 0.000000000000000D+00 -.000000000000000D+00 0.000000000000000D+00
 0.218872926935830D+03 0.000000000000000D+00 0.000000000000000D+00 0.218872926935830D+03
 0.218872926935830D+03 -.000000000000000D+00 -.000000000000000D+00 -.218872926935830D+03
 0.171625346927339D+03 -.936044134396669D+02 0.707073060054463D+02 -.830363595045208D+01
 0.162225576836262D+03 0.123845497691632D+03 -.132420806449616D+02 -.658548542416727D+02
 0.173667298593826D+02 -.731857276456933D+01 0.199279331270173D+01 0.156227581915399D+02
 0.865282002486763D+02 -.229225114873953D+02 -.594580186731864D+02 0.585357320005848D+02
0.280673542763D-03 0.000000000000D+00 0.000000000000D+00 0.443832269763D-05 0.000000000000D+00  6 -1 2 25 24 21 21 2 0.11291264D-01 0.10041875D+00 0.37613756D+05 0.37613756D+05 0.37613756D+05 0.12047225D+01  1  2  2  3  6  5       21 0.105761005161D+00 0.100000000000D+01
0.126495852963D-07 0.148115497759D-04 -.107786030725D-05 0.443832269763D-05 0.000000000000D+00  6 -1 2 25 24 21 21 4 0.11291264D-01 0.10041875D+00 0.37613756D+05 0.37613756D+05 0.37613756D+05 0.12047225D+01  1  2  3  3  6  5       21 0.691790199058D-05 0.100000000000D+01
0.125719204955D-04 0.000000000000D+00 0.000000000000D+00 0.443832269763D-05 0.000000000000D+00  6 -1 2 25 24 21 21 4 0.11291264D-01 0.10041875D+00 0.37613756D+05 0.37613756D+05 0.37613756D+05 0.12047225D+01  1  2 15  3  6  5       21 0.687542807011D-02 0.100000000000D+01
0.235483551005D-04 0.000000000000D+00 0.000000000000D+00 0.443311061720D-05 0.000000000000D+00  6 -1 2 25 24 21 21 4 0.11291264D-01 0.10041875D+00 0.38218384D+05 0.38218384D+05 0.38218384D+05 0.12040149D+01  1  2 12  3  6  5       21 0.128502882481D-01 0.100000000000D+01
0.313862714593D-04 0.000000000000D+00 0.000000000000D+00 0.443311061720D-05 0.000000000000D+00  6 -1 2 25 24 21 21 4 0.11291264D-01 0.10041875D+00 0.38218384D+05 0.38218384D+05 0.38218384D+05 0.12040149D+01  1  2 12  3  6  5       21 0.171274228525D-01 0.100000000000D+01
-.273983720822D-03 0.000000000000D+00 0.000000000000D+00 0.443832269763D-05 0.000000000000D+00  6 -1 2 25 24 21 21 4 0.11291264D-01 0.10041875D+00 0.37613756D+05 0.37613756D+05 0.37613756D+05 0.12047225D+01  1  2  4  3  6  5       21 -.149838313530D+00 0.100000000000D+01
-.480607377862D-04 0.000000000000D+00 0.000000000000D+00 0.443832269763D-05 0.000000000000D+00  6 -1 2 25 24 21 21 4 0.11291264D-01 0.10041875D+00 0.37613756D+05 0.37613756D+05 0.37613756D+05 0.12047225D+01  1  2  5  3  6  5       21 -.262838239999D-01 0.100000000000D+01
0.347488256743D-03 0.000000000000D+00 -.000000000000D+00 0.443832269763D-05 0.000000000000D+00  6 -1 2 25 24 21 21 4 0.11291264D-01 0.10041875D+00 0.37613756D+05 0.37613756D+05 0.37613756D+05 0.12047225D+01  1  2  6  3  6  5       21 0.190037036528D+00 0.100000000000D+01
0.814134761387D-05 0.000000000000D+00 0.000000000000D+00 0.443311061720D-05 0.000000000000D+00  6 -1 2 25 24 1 -1 4 0.11291264D-01 0.10041875D+00 0.38218384D+05 0.38218384D+05 0.38218384D+05 0.12040149D+01  1  2 12  6  6  5       21 0.444271640715D-02 0.100000000000D+01
0.946573021535D-05 0.000000000000D+00 0.000000000000D+00 0.443311061720D-05 0.000000000000D+00  6 -1 2 25 24 1 -1 4 0.11291264D-01 0.10041875D+00 0.38218384D+05 0.38218384D+05 0.38218384D+05 0.12040149D+01  1  2 12  6  6  5       21 0.516542922965D-02 0.100000000000D+01
-.156521911520D-04 0.000000000000D+00 0.000000000000D+00 0.443832269763D-05 0.000000000000D+00  6 -1 2 25 24 1 -1 4 0.11291264D-01 0.10041875D+00 0.37613756D+05 0.37613756D+05 0.37613756D+05 0.12047225D+01  1  2  5  6  6  5       21 -.855999005428D-02 0.100000000000D+01
0.814134761387D-05 0.000000000000D+00 0.000000000000D+00 0.443311061720D-05 0.000000000000D+00  6 -1 2 25 24 2 -2 4 0.11291264D-01 0.10041875D+00 0.38218384D+05 0.38218384D+05 0.38218384D+05 0.12040149D+01  1  2 12  7  6  5       21 0.444271640715D-02 0.100000000000D+01
0.946573021535D-05 0.000000000000D+00 0.000000000000D+00 0.443311061720D-05 0.000000000000D+00  6 -1 2 25 24 2 -2 4 0.11291264D-01 0.10041875D+00 0.38218384D+05 0.38218384D+05 0.38218384D+05 0.12040149D+01  1  2 12  7  6  5       21 0.516542922965D-02 0.100000000000D+01
-.156521911520D-04 0.000000000000D+00 0.000000000000D+00 0.443832269763D-05 0.000000000000D+00  6 -1 2 25 24 2 -2 4 0.11291264D-01 0.10041875D+00 0.37613756D+05 0.37613756D+05 0.37613756D+05 0.12047225D+01  1  2  5  7  6  5       21 -.855999005428D-02 0.100000000000D+01
0.814134761387D-05 0.000000000000D+00 0.000000000000D+00 0.443311061720D-05 0.000000000000D+00  6 -1 2 25 24 3 -3 4 0.11291264D-01 0.10041875D+00 0.38218384D+05 0.38218384D+05 0.38218384D+05 0.12040149D+01  1  2 12  8  6  5       21 0.444271640715D-02 0.100000000000D+01
0.814134761387D-05 0.000000000000D+00 0.000000000000D+00 0.443311061720D-05 0.000000000000D+00  6 -1 2 25 24 4 -4 4 0.11291264D-01 0.10041875D+00 0.38218384D+05 0.38218384D+05 0.38218384D+05 0.12040149D+01  1  2 12  8  6  5       21 0.444271640715D-02 0.100000000000D+01
0.946573021535D-05 0.000000000000D+00 0.000000000000D+00 0.443311061720D-05 0.000000000000D+00  6 -1 2 25 24 3 -3 4 0.11291264D-01 0.10041875D+00 0.38218384D+05 0.38218384D+05 0.38218384D+05 0.12040149D+01  1  2 12  8  6  5       21 0.516542922965D-02 0.100000000000D+01
0.946573021535D-05 0.000000000000D+00 0.000000000000D+00 0.443311061720D-05 0.000000000000D+00  6 -1 2 25 24 4 -4 4 0.11291264D-01 0.10041875D+00 0.38218384D+05 0.38218384D+05 0.38218384D+05 0.12040149D+01  1  2 12  8  6  5       21 0.516542922965D-02 0.100000000000D+01
-.156521911520D-04 0.000000000000D+00 0.000000000000D+00 0.443832269763D-05 0.000000000000D+00  6 -1 2 25 24 3 -3 4 0.11291264D-01 0.10041875D+00 0.37613756D+05 0.37613756D+05 0.37613756D+05 0.12047225D+01  1  2  5  8  6  5       21 -.855999005428D-02 0.100000000000D+01
-.156521911520D-04 0.000000000000D+00 0.000000000000D+00 0.443832269763D-05 0.000000000000D+00  6 -1 2 25 24 4 -4 4 0.11291264D-01 0.10041875D+00 0.37613756D+05 0.37613756D+05 0.37613756D+05 0.12047225D+01  1  2  5  8  6  5       21 -.855999005428D-02 0.100000000000D+01
  </mgrwgt>
  </event>
  <event>
  5     66 0.43135346E-03 0.32670959E+02 0.75467711E-02 0.11706984E+00
       -1 -1    0    0    0  501 0.00000000E+00 0.00000000E+00 0.14883005E+02 0.14886444E+02 0.32000000E+00 0.0000E+00 0.9000E+01
        2 -1    0    0  502    0 0.00000000E+00 0.00000000E+00 -.19277516E+04 0.19277516E+04 0.32000000E+00 0.0000E+00 0.9000E+01
       25  1    1    2    0    0 -.74225051E+02 -.16807131E+02 -.74269544E+03 0.75697646E+03 0.12500000E+03 0.0000E+00 0.9000E+01
       24  1    1    2    0    0 0.97439242E+02 -.61779046E+01 -.11100394E+04 0.11172230E+04 0.80419002E+02 0.0000E+00 0.9000E+01
       21  1    1    2  502  501 -.23214191E+02 0.22985036E+02 -.60133701E+02 0.68438549E+02 0.75000000E+00 0.0000E+00 0.9000E+01
#aMCatNLO 1  0  0  1  5 0.35780636D+03 0.00000000D+00  -5  6  0 0.00000000D+00 0.00000000D+00 0.00000000D+00 0.00000000D+00 0.00000000D+00
  <mgrwgt>
 0.2704145871D+00    4    2    0
 0.169393336596705D+03 0.000000000000000D+00 0.000000000000000D+00 0.169393336596705D+03
 0.169393336596705D+03 0.000000000000000D+00 0.000000000000000D+00 -.169393336596705D+03
 0.147149529409181D+03 -.742240378521845D+02 -.168081345847401D+02 0.153708432443402D+02
 0.138733109279263D+03 0.974401975355713D+02 -.617885050580640D+01 -.569814826639064D+02
 0.529040345049664D+02 -.232161596833868D+02 0.229869850905465D+02 0.416106394195662D+02
 0.000000000000000D+00 0.000000000000000D+00 -.000000000000000D+00 -.000000000000000D+00
 0.178346274799244D+03 0.000000000000000D+00 0.000000000000000D+00 0.178346274799244D+03
 0.234505183570912D+03 0.000000000000000D+00 0.000000000000000D+00 -.234505183570912D+03
 0.148301294092416D+03 -.782867553807078D+02 0.178743934288088D+01 0.153708432443402D+02
 0.136417546655611D+03 0.936566257736018D+02 0.111390378081610D+02 -.569814826639064D+02
 0.568918134700089D+02 -.247259524497102D+02 0.298974982641659D+02 0.416106394195662D+02
 0.712408041521198D+02 0.935608205681629D+01 -.428239754152077D+02 -.561589087716677D+02
0.324602875221D-03 0.000000000000D+00 0.000000000000D+00 0.184306711356D-04 0.000000000000D+00  6 -1 2 25 24 21 21 2 0.22899597D-02 0.29657743D+00 0.23333561D+05 0.23333561D+05 0.23333561D+05 0.12265227D+01  1  2  2  1  6  1       -1 0.251731177740D+00 0.100000000000D+01
0.295187230426D-04 0.171297643391D-04 -.124656051075D-05 0.184306711356D-04 0.000000000000D+00  6 -1 2 25 24 21 21 4 0.22899597D-02 0.29657743D+00 0.23333561D+05 0.23333561D+05 0.23333561D+05 0.12265227D+01  1  2  3  1  6  1       -1 0.344376414729D-01 0.100000000000D+01
0.135257613134D-04 0.000000000000D+00 0.000000000000D+00 0.184306711356D-04 0.000000000000D+00  6 -1 2 25 24 21 21 4 0.22899597D-02 0.29657743D+00 0.23333561D+05 0.23333561D+05 0.23333561D+05 0.12265227D+01  1  2 15  1  6  1       -1 0.157796567991D-01 0.100000000000D+01
-.270297294949D-04 0.000000000000D+00 0.000000000000D+00 0.184306711356D-04 0.000000000000D+00  6 -1 2 25 24 21 21 4 0.22899597D-02 0.29657743D+00 0.23333561D+05 0.23333561D+05 0.23333561D+05 0.12265227D+01  1  2  4  1  6  1       -1 -.315338889189D-01 0.100000000000D+01
  </mgrwgt>
  </event>
  <event>
  5     66 -.43135346E-03 0.20183219E+02 0.75467711E-02 0.12439833E+00
       -1 -1    0    0    0  501 0.00000000E+00 0.00000000E+00 0.23802050E+03 0.23802071E+03 0.32000000E+00 0.0000E+00 0.9000E+01
        2 -1    0    0  502    0 0.00000000E+00 0.00000000E+00 -.93332963E+02 0.93333512E+02 0.32000000E+00 0.0000E+00 0.9000E+01
       25  1    1    2    0    0 -.24062949E+02 0.22313614E+01 0.81734108E+02 0.15129266E+03 0.12500000E+03 0.0000E+00 0.9000E+01
       24  1    1    2    0    0 0.41912034E+02 -.11651178E+02 0.10146089E+03 0.13657927E+03 0.80419002E+02 0.0000E+00 0.9000E+01
       21  1    1    2  502  501 -.17849085E+02 0.94198163E+01 -.38507464E+02 0.43482296E+02 0.75000000E+00 0.0000E+00 0.9000E+01
#aMCatNLO 1  0  0  5  1 0.20269957D+01 0.00000000D+00  -5  6  0 0.00000000D+00 0.00000000D+00 0.00000000D+00 0.00000000D+00 0.00000000D+00
  <mgrwgt>
 -.5028148876D+01   20    2    0
 0.149047928242155D+03 0.000000000000000D+00 0.000000000000000D+00 0.149047928242155D+03
 0.149047928242155D+03 -.000000000000000D+00 -.000000000000000D+00 -.149047928242155D+03
 0.128500937226178D+03 -.240624673163342D+02 0.223110709670661D+01 0.174215583625428D+02
 0.102571809912668D+03 0.419124189723020D+02 -.116513805551373D+02 0.464903721370291D+02
 0.670231093454647D+02 -.178499516559679D+02 0.942027345843071D+01 -.639119304995720D+02
 0.000000000000000D+00 0.000000000000000D+00 0.000000000000000D+00 -.000000000000000D+00
 0.149047928242155D+03 0.000000000000000D+00 0.000000000000000D+00 0.149047928242155D+03
 0.149047928242155D+03 -.000000000000000D+00 -.000000000000000D+00 -.149047928242155D+03
 0.128494503907271D+03 -.240848214110540D+02 0.224290442194511D+01 0.173415193027373D+02
 0.102534512724612D+03 0.418945783205626D+02 -.116419651896898D+02 0.464264935049738D+02
 0.538616433033161D+02 -.162667671687841D+02 0.778439510491494D+01 -.507530501355416D+02
 0.132051965491116D+02 -.154298974072454D+01 0.161466566282974D+01 -.130149626721695D+02
0.450155281650D-04 0.000000000000D+00 0.000000000000D+00 0.699849669790D-04 0.000000000000D+00  6 -1 2 25 24 21 21 2 0.36618597D-01 0.14358976D-01 0.14271728D+05 0.14271728D+05 0.14271728D+05 0.12502942D+01  1  2  2  3  6  5       21 0.227955550273D-01 0.100000000000D+01
0.670356095773D-05 0.237553468540D-05 -.172871481015D-06 0.699849669790D-04 0.000000000000D+00  6 -1 2 25 24 21 21 4 0.36618597D-01 0.14358976D-01 0.14271728D+05 0.14271728D+05 0.14271728D+05 0.12502942D+01  1  2  3  3  6  5       21 0.530661775769D-02 0.100000000000D+01
0.134081865803D-05 0.000000000000D+00 0.000000000000D+00 0.699849669790D-04 0.000000000000D+00  6 -1 2 25 24 21 21 4 0.36618597D-01 0.14358976D-01 0.14271728D+05 0.14271728D+05 0.14271728D+05 0.12502942D+01  1  2 15  3  6  5       21 0.106140783166D-02 0.100000000000D+01
0.248275192932D-05 0.000000000000D+00 0.000000000000D+00 0.699812967478D-04 0.000000000000D+00  6 -1 2 25 24 21 21 4 0.36618597D-01 0.14358976D-01 0.14281125D+05 0.14281125D+05 0.14281125D+05 0.12502614D+01  1  2 12  3  6  5       21 0.196520355685D-02 0.100000000000D+01
0.231176987350D-05 0.000000000000D+00 0.000000000000D+00 0.699812967478D-04 0.000000000000D+00  6 -1 2 25 24 21 21 4 0.36618597D-01 0.14358976D-01 0.14281125D+05 0.14281125D+05 0.14281125D+05 0.12502614D+01  1  2 12  3  6  5       21 0.182986400066D-02 0.100000000000D+01
-.698852001848D-02 0.000000000000D+00 0.000000000000D+00 0.699849669790D-04 0.000000000000D+00  6 -1 2 25 24 21 21 4 0.36618597D-01 0.14358976D-01 0.14271728D+05 0.14271728D+05 0.14271728D+05 0.12502942D+01  1  2  4  3  6  5       21 -.553219470426D+01 0.100000000000D+01
-.378507356673D-02 0.000000000000D+00 0.000000000000D+00 0.699849669790D-04 0.000000000000D+00  6 -1 2 25 24 21 21 4 0.36618597D-01 0.14358976D-01 0.14271728D+05 0.14271728D+05 0.14271728D+05 0.12502942D+01  1  2  5  3  6  5       21 -.299630878723D+01 0.100000000000D+01
0.451935189035D-02 0.000000000000D+00 -.000000000000D+00 0.699849669790D-04 0.000000000000D+00  6 -1 2 25 24 21 21 4 0.36618597D-01 0.14358976D-01 0.14271728D+05 0.14271728D+05 0.14271728D+05 0.12502942D+01  1  2  6  3  6  5       21 0.357757215095D+01 0.100000000000D+01
0.298575286667D-07 0.000000000000D+00 0.000000000000D+00 0.699812967478D-04 0.000000000000D+00  6 -1 2 25 24 1 -1 4 0.36618597D-01 0.14358976D-01 0.14281125D+05 0.14281125D+05 0.14281125D+05 0.12502614D+01  1  2 12  6  6  5       21 0.236335015358D-04 0.100000000000D+01
0.284286155392D-07 0.000000000000D+00 0.000000000000D+00 0.699812967478D-04 0.000000000000D+00  6 -1 2 25 24 1 -1 4 0.36618597D-01 0.14358976D-01 0.14281125D+05 0.14281125D+05 0.14281125D+05 0.12502614D+01  1  2 12  6  6  5       21 0.225024561311D-04 0.100000000000D+01
-.348531727670D-04 0.000000000000D+00 0.000000000000D+00 0.699849669790D-04 0.000000000000D+00  6 -1 2 25 24 1 -1 4 0.36618597D-01 0.14358976D-01 0.14271728D+05 0.14271728D+05 0.14271728D+05 0.12502942D+01  1  2  5  6  6  5       21 -.275901817980D-01 0.100000000000D+01
0.298575286667D-07 0.000000000000D+00 0.000000000000D+00 0.699812967478D-04 0.000000000000D+00  6 -1 2 25 24 2 -2 4 0.36618597D-01 0.14358976D-01 0.14281125D+05 0.14281125D+05 0.14281125D+05 0.12502614D+01  1  2 12  7  6  5       21 0.236335015358D-04 0.100000000000D+01
0.284286155392D-07 0.000000000000D+00 0.000000000000D+00 0.699812967478D-04 0.000000000000D+00  6 -1 2 25 24 2 -2 4 0.36618597D-01 0.14358976D-01 0.14281125D+05 0.14281125D+05 0.14281125D+05 0.12502614D+01  1  2 12  7  6  5       21 0.225024561311D-04 0.100000000000D+01
-.348531727670D-04 0.000000000000D+00 0.000000000000D+00 0.699849669790D-04 0.000000000000D+00  6 -1 2 25 24 2 -2 4 0.36618597D-01 0.14358976D-01 0.14271728D+05 0.14271728D+05 0.14271728D+05 0.12502942D+01  1  2  5  7  6  5       21 -.275901817980D-01 0.100000000000D+01
0.298575286667D-07 0.000000000000D+00 0.000000000000D+00 0.699812967478D-04 0.000000000000D+00  6 -1 2 25 24 3 -3 4 0.36618597D-01 0.14358976D-01 0.14281125D+05 0.14281125D+05 0.14281125D+05 0.12502614D+01  1  2 12  8  6  5       21 0.236335015358D-04 0.100000000000D+01
0.298575286667D-07 0.000000000000D+00 0.000000000000D+00 0.699812967478D-04 0.000000000000D+00  6 -1 2 25 24 4 -4 4 0.36618597D-01 0.14358976D-01 0.14281125D+05 0.14281125D+05 0.14281125D+05 0.12502614D+01  1  2 12  8  6  5       21 0.236335015358D-04 0.100000000000D+01
0.284286155392D-07 0.000000000000D+00 0.000000000000D+00 0.699812967478D-04 0.000000000000D+00  6 -1 2 25 24 3 -3 4 0.36618597D-01 0.14358976D-01 0.14281125D+05 0.14281125D+05 0.14281125D+05 0.12502614D+01  1  2 12  8  6  5       21 0.225024561311D-04 0.100000000000D+01
0.284286155392D-07 0.000000000000D+00 0.000000000000D+00 0.699812967478D-04 0.000000000000D+00  6 -1 2 25 24 4 -4 4 0.36618597D-01 0.14358976D-01 0.14281125D+05 0.14281125D+05 0.14281125D+05 0.12502614D+01  1  2 12  8  6  5       21 0.225024561311D-04 0.100000000000D+01
-.348531727670D-04 0.000000000000D+00 0.000000000000D+00 0.699849669790D-04 0.000000000000D+00  6 -1 2 25 24 3 -3 4 0.36618597D-01 0.14358976D-01 0.14271728D+05 0.14271728D+05 0.14271728D+05 0.12502942D+01  1  2  5  8  6  5       21 -.275901817980D-01 0.100000000000D+01
-.348531727670D-04 0.000000000000D+00 0.000000000000D+00 0.699849669790D-04 0.000000000000D+00  6 -1 2 25 24 4 -4 4 0.36618597D-01 0.14358976D-01 0.14271728D+05 0.14271728D+05 0.14271728D+05 0.12502942D+01  1  2  5  8  6  5       21 -.275901817980D-01 0.100000000000D+01
  </mgrwgt>
  </event>
  <event>
  5     66 0.43135346E-03 0.21513400E+02 0.75467711E-02 0.10990816E+00
       -1 -1    0    0    0  501 0.00000000E+00 0.00000000E+00 0.15672823E+02 0.15676089E+02 0.32000000E+00 0.0000E+00 0.9000E+01
        2 -1    0    0  502    0 0.00000000E+00 0.00000000E+00 -.13421842E+04 0.13421842E+04 0.32000000E+00 0.0000E+00 0.9000E+01
       25  1    1    2    0    0 0.37811028E+02 -.18083014E+02 -.61672860E+03 0.63066302E+03 0.12500000E+03 0.0000E+00 0.9000E+01
       24  1    1    2    0    0 -.54396183E+02 0.31781893E+02 -.30129658E+03 0.31814443E+03 0.80419002E+02 0.0000E+00 0.9000E+01
       21  1    1    2  502  501 0.16585156E+02 -.13698879E+02 -.40848618E+03 0.40905287E+03 0.75000000E+00 0.0000E+00 0.9000E+01
#aMCatNLO 1  0  0  2  5 0.10808873D+02 0.00000000D+00  -5  6  0 0.00000000D+00 0.00000000D+00 0.00000000D+00 0.00000000D+00 0.00000000D+00
  <mgrwgt>
 0.8209819302D+00    3    2    0
 0.145045022439880D+03 0.000000000000000D+00 0.000000000000000D+00 0.145045022439880D+03
 0.145045022439880D+03 0.000000000000000D+00 0.000000000000000D+00 -.145045022439880D+03
 0.131871646472803D+03 0.378100592216045D+02 -.180822138010954D+02 -.292644992408002D+01
 0.111423224078858D+03 -.543970015465228D+02 0.317825687119739D+02 0.444831817496581D+02
 0.467951743280994D+02 0.165869423249183D+02 -.137003549108785D+02 -.415567318255781D+02
 0.000000000000000D+00 -.000000000000000D+00 -.000000000000000D+00 0.000000000000000D+00
 0.380806728509678D+03 0.000000000000000D+00 0.000000000000000D+00 0.380806728509678D+03
 0.235945292087726D+03 0.000000000000000D+00 0.000000000000000D+00 -.235945292087726D+03
 0.183485126689346D+03 0.132227676266467D+03 0.234322264460221D+02 -.292644992408002D+01
 0.111012124198579D+03 0.122000000663175D+02 0.610645748738088D+02 0.444831817496581D+02
 0.650884808762401D+02 0.500848374382449D+02 0.102831976458632D+01 -.415567318255781D+02
 0.257166288833238D+03 -.194512513771030D+03 -.855251210844172D+02 0.144861436421952D+03
0.443717238966D-03 0.000000000000D+00 0.000000000000D+00 0.507744901621D-04 0.000000000000D+00  6 -1 2 25 24 21 21 2 0.24114577D-02 0.20649013D+00 0.16321491D+05 0.16321491D+05 0.16321491D+05 0.12436638D+01  1  2  2  2  6  2        2 0.656200668617D+00 0.100000000000D+01
0.606994551857D-04 0.234156020076D-04 -.170399103106D-05 0.507744901621D-04 0.000000000000D+00  6 -1 2 25 24 21 21 4 0.24114577D-02 0.20649013D+00 0.16321491D+05 0.16321491D+05 0.16321491D+05 0.12436638D+01  1  2  3  2  6  2        2 0.138842096746D+00 0.100000000000D+01
0.113401713945D-04 0.000000000000D+00 0.000000000000D+00 0.507744901621D-04 0.000000000000D+00  6 -1 2 25 24 21 21 4 0.24114577D-02 0.20649013D+00 0.16321491D+05 0.16321491D+05 0.16321491D+05 0.12436638D+01  1  2 15  2  6  2        2 0.259391648419D-01 0.100000000000D+01
  </mgrwgt>
  </event>
  <event>
  5     66 0.43135346E-03 0.83112073E+02 0.75467711E-02 0.11282945E+00
       -1 -1    0    0    0  501 0.00000000E+00 0.00000000E+00 0.44201723E+03 0.44201735E+03 0.32000000E+00 0.0000E+00 0.9000E+01
        2 -1    0    0  502    0 0.00000000E+00 0.00000000E+00 -.64088626E+02 0.64089425E+02 0.32000000E+00 0.0000E+00 0.9000E+01
       25  1    1    2    0    0 0.39057448E+02 0.46586057E+02 0.69790444E+02 0.15553601E+03 0.12500000E+03 0.0000E+00 0.9000E+01
       24  1    1    2    0    0 0.11009349E+02 0.19751024E+02 0.14046461E+03 0.16342837E+03 0.80419002E+02 0.0000E+00 0.9000E+01
       21  1    1    2  502  501 -.50066797E+02 -.66337082E+02 0.16767355E+03 0.18714239E+03 0.75000000E+00 0.0000E+00 0.9000E+01
#aMCatNLO 1  0  0  1  5 0.27294126D+02 0.00000000D+00  -5  6  0 0.00000000D+00 0.00000000D+00 0.00000000D+00 0.00000000D+00 0.00000000D+00
  <mgrwgt>
 0.9343231406D-01    3    2    0
 0.168310749839068D+03 0.000000000000000D+00 0.000000000000000D+00 0.168310749839068D+03
 0.168310749839068D+03 0.000000000000000D+00 0.000000000000000D+00 -.168310749839068D+03
 0.155492987387481D+03 0.390581983482848D+02 0.465870514037144D+02 -.696934208514481D+02
 0.880117046021817D+02 0.110097734787298D+02 0.197515867659648D+02 0.277038607559448D+02
 0.931168076884738D+02 -.500679718270145D+02 -.663386381696792D+02 0.419895600955033D+02
 0.000000000000000D+00 -.000000000000000D+00 0.000000000000000D+00 -.000000000000000D+00
 0.201136339600116D+03 0.000000000000000D+00 0.000000000000000D+00 0.201136339600116D+03
 0.360492634345927D+03 0.000000000000000D+00 0.000000000000000D+00 -.360492634345927D+03
 0.166674201250907D+03 0.847182881552838D+02 0.109967315457378D+02 -.696934208514481D+02
 0.926006239235143D+02 0.366075855203246D+02 -.200943377440197D+00 0.277038607559448D+02
 0.998116255407085D+02 -.227246237200918D+02 -.876517479166558D+02 0.419895600955033D+02
 0.202542523230914D+03 -.986012499555166D+02 0.768559597483581D+02 -.159356294745811D+03
0.384534029035D-03 0.000000000000D+00 0.000000000000D+00 0.363481163728D-05 0.000000000000D+00  6 -1 2 25 24 21 21 2 0.68002721D-01 0.98598590D-02 0.23355397D+05 0.23355397D+05 0.23355397D+05 0.12264788D+01  1  2  2  1  6  1       -1 0.958333506975D-01 0.100000000000D+01
-.258977521483D-04 0.202924182149D-04 -.147671192163D-05 0.363481163728D-05 0.000000000000D+00  6 -1 2 25 24 21 21 4 0.68002721D-01 0.98598590D-02 0.23355397D+05 0.23355397D+05 0.23355397D+05 0.12264788D+01  1  2  3  1  6  1       -1 -.970876658642D-02 0.100000000000D+01
0.194930815615D-04 0.000000000000D+00 0.000000000000D+00 0.363481163728D-05 0.000000000000D+00  6 -1 2 25 24 21 21 4 0.68002721D-01 0.98598590D-02 0.23355397D+05 0.23355397D+05 0.23355397D+05 0.12264788D+01  1  2 15  1  6  1       -1 0.730772994688D-02 0.100000000000D+01
  </mgrwgt>
  </event>
  <event>
  5     66 0.43135346E-03 0.39479176E+02 0.75467711E-02 0.12180447E+00
       -1 -1    0    0    0  501 0.00000000E+00 0.00000000E+00 0.10837959E+02 0.10842682E+02 0.32000000E+00 0.0000E+00 0.9000E+01
        2 -1    0    0  502    0 -.00000000E+00 -.00000000E+00 -.20064591E+04 0.20064591E+04 0.32000000E+00 0.0000E+00 0.9000E+01
       25  1    1    2    0    0 -.64218821E+01 0.20153459E+02 -.54180444E+03 0.55643909E+03 0.12500000E+03 0.0000E+00 0.9000E+01
       24  1    1    2    0    0 -.24001194E+02 -.50119118E+02 -.86678794E+03 0.87228237E+03 0.80419002E+02 0.0000E+00 0.9000E+01
       21  1    1    2  502  501 0.30423077E+02 0.29965660E+02 -.58702875E+03 0.58858035E+03 0.75000000E+00 0.0000E+00 0.9000E+01
#aMCatNLO 1  0  0  5  1 0.23250863D+02 0.00000000D+00  -5  6  0 0.00000000D+00 0.00000000D+00 0.00000000D+00 0.00000000D+00 0.00000000D+00
  <mgrwgt>
 0.3017347121D+00    9    2    0
 0.147481220750908D+03 0.000000000000000D+00 0.000000000000000D+00 0.147481220750908D+03
 0.147481220750908D+03 -.000000000000000D+00 -.000000000000000D+00 -.147481220750908D+03
 0.139913820438389D+03 -.642328667543157D+01 0.201520752104046D+02 0.591904756076943D+02
 0.101289490330000D+03 -.240022112465182D+02 -.501201198883458D+02 -.265369993517718D+02
 0.537591307334274D+02 0.304254979219498D+02 0.299680446779412D+02 -.326534762559224D+02
 0.000000000000000D+00 -.000000000000000D+00 0.000000000000000D+00 0.000000000000000D+00
 0.147481220750908D+03 0.000000000000000D+00 0.000000000000000D+00 0.147481220750908D+03
 0.147481220750908D+03 -.000000000000000D+00 -.000000000000000D+00 -.147481220750908D+03
 0.137992008151737D+03 0.326552971940168D+00 0.268004297136006D+02 0.519463631457671D+02
 0.994787210237810D+02 -.191259075007399D+02 -.453171323122157D+02 -.317703818583755D+02
 0.265204983597789D+02 0.260360352597511D+02 -.489297598621726D+01 -.123308037140164D+01
 0.309712139665189D+02 -.723668073095135D+01 0.234096785848324D+02 -.189429009159899D+02
0.250547510239D-03 0.000000000000D+00 0.000000000000D+00 0.123520115580D-04 0.000000000000D+00  6 -1 2 25 24 21 21 2 0.16677435D-02 0.30868638D+00 0.17853530D+05 0.17853530D+05 0.17853530D+05 0.12392914D+01  1  2  2  3  6  5       21 0.285018518902D+00 0.100000000000D+01
0.422648528676D-05 0.132217553625D-04 -.962168409993D-06 0.123520115580D-04 0.000000000000D+00  6 -1 2 25 24 21 21 4 0.16677435D-02 0.30868638D+00 0.17853530D+05 0.17853530D+05 0.17853530D+05 0.12392914D+01  1  2  3  3  6  5       21 0.738429818837D-02 0.100000000000D+01
0.749975277678D-05 0.000000000000D+00 0.000000000000D+00 0.123520115580D-04 0.000000000000D+00  6 -1 2 25 24 21 21 4 0.16677435D-02 0.30868638D+00 0.17853530D+05 0.17853530D+05 0.17853530D+05 0.12392914D+01  1  2 15  3  6  5       21 0.131031831617D-01 0.100000000000D+01
0.548367136807D-04 0.000000000000D+00 0.000000000000D+00 0.123101656999D-04 0.000000000000D+00  6 -1 2 25 24 21 21 4 0.16677435D-02 0.30868638D+00 0.18646556D+05 0.18646556D+05 0.18646556D+05 0.12371904D+01  1  2 12  3  6  5       21 0.952087876597D-01 0.100000000000D+01
-.661329477752D-04 0.000000000000D+00 0.000000000000D+00 0.123520115580D-04 0.000000000000D+00  6 -1 2 25 24 21 21 4 0.16677435D-02 0.30868638D+00 0.17853530D+05 0.17853530D+05 0.17853530D+05 0.12392914D+01  1  2  4  3  6  5       21 -.115544092387D+00 0.100000000000D+01
0.238506407598D-05 0.000000000000D+00 0.000000000000D+00 0.123101656999D-04 0.000000000000D+00  6 -1 2 25 24 1 -1 4 0.16677435D-02 0.30868638D+00 0.18646556D+05 0.18646556D+05 0.18646556D+05 0.12371904D+01  1  2 12  6  6  5       21 0.414100415438D-02 0.100000000000D+01
0.238506407598D-05 0.000000000000D+00 0.000000000000D+00 0.123101656999D-04 0.000000000000D+00  6 -1 2 25 24 2 -2 4 0.16677435D-02 0.30868638D+00 0.18646556D+05 0.18646556D+05 0.18646556D+05 0.12371904D+01  1  2 12  7  6  5       21 0.414100415438D-02 0.100000000000D+01
0.238506407598D-05 0.000000000000D+00 0.000000000000D+00 0.123101656999D-04 0.000000000000D+00  6 -1 2 25 24 3 -3 4 0.16677435D-02 0.30868638D+00 0.18646556D+05 0.18646556D+05 0.18646556D+05 0.12371904D+01  1  2 12  8  6  5       21 0.414100415438D-02 0.100000000000D+01
0.238506407598D-05 0.000000000000D+00 0.000000000000D+00 0.123101656999D-04 0.000000000000D+00  6 -1 2 25 24 4 -4 4 0.16677435D-02 0.30868638D+00 0.18646556D+05 0.18646556D+05 0.18646556D+05 0.12371904D+01  1  2 12  8  6  5       21 0.414100415438D-02 0.100000000000D+01
  </mgrwgt>
  </event>
  <event>
  5     66 0.43135346E-03 0.21787558E+02 0.75467711E-02 0.12505718E+00
       -1 -1    0    0    0  501 0.00000000E+00 0.00000000E+00 0.13720371E+03 0.13720408E+03 0.32000000E+00 0.0000E+00 0.9000E+01
        2 -1    0    0  502    0 0.00000000E+00 0.00000000E+00 -.10549757E+03 0.10549806E+03 0.32000000E+00 0.0000E+00 0.9000E+01
       25  1    1    2    0    0 -.20331823E+01 0.70320714E+01 -.15218096E+02 0.12613554E+03 0.12500000E+03 0.0000E+00 0.9000E+01
       24  1    1    2    0    0 -.16423877E+02 -.18587376E+02 0.42707209E+02 0.94373492E+02 0.80419002E+02 0.0000E+00 0.9000E+01
       21  1    1    2  502  501 0.18457060E+02 0.11555305E+02 0.42170253E+01 0.22193105E+02 0.75000000E+00 0.0000E+00 0.9000E+01
#aMCatNLO 1  0  0  5  2 0.82172369D+01 0.00000000D+00  -5  6  0 0.00000000D+00 0.00000000D+00 0.00000000D+00 0.00000000D+00 0.00000000D+00
  <mgrwgt>
 0.2657513736D+01   14    2    0
 0.120311104985820D+03 0.000000000000000D+00 0.000000000000000D+00 0.120311104985820D+03
 0.120311104985820D+03 -.000000000000000D+00 -.000000000000000D+00 -.120311104985820D+03
 0.129231093462382D+03 -.203903832793704D+01 0.702840517172413D+01 -.319706015101722D+02
 0.895630099362169D+02 -.164279359494467D+02 -.185899169795678D+02 0.306407359832951D+02
 0.218281065730410D+02 0.184669742773837D+02 0.115615118078437D+02 0.132986552687711D+01
 0.000000000000000D+00 0.000000000000000D+00 0.000000000000000D+00 -.000000000000000D+00
 0.120311104985820D+03 0.000000000000000D+00 0.000000000000000D+00 0.120311104985820D+03
 0.120311104985820D+03 -.000000000000000D+00 -.000000000000000D+00 -.120311104985820D+03
 0.129428985321613D+03 0.397178628554670D+01 0.107915673822644D+02 -.315377429204808D+02
 0.884954720190377D+02 -.122901567026153D+02 -.159994014515812D+02 0.309387106214538D+02
 0.842121225958472D+01 -.592153207421121D+01 0.581688294428152D+01 0.141991078156148D+01
 0.142765403714044D+02 0.142399024912798D+02 -.609048874964736D+00 -.820878482534463D+00
0.140129940042D-02 0.000000000000D+00 0.000000000000D+00 0.505935492366D-04 0.000000000000D+00  6 -1 2 25 24 21 21 2 0.21108329D-01 0.16230461D-01 0.13358765D+05 0.13358765D+05 0.13358765D+05 0.12536008D+01  1  2  2  3  6  5       21 0.154031509054D+01 0.100000000000D+01
0.243108510569D-03 0.739486009832D-04 -.538135866821D-05 0.505935492366D-04 0.000000000000D+00  6 -1 2 25 24 21 21 4 0.21108329D-01 0.16230461D-01 0.13358765D+05 0.13358765D+05 0.13358765D+05 0.12536008D+01  1  2  3  3  6  5       21 0.419949722736D+00 0.100000000000D+01
0.724836599086D-04 0.000000000000D+00 0.000000000000D+00 0.505935492366D-04 0.000000000000D+00  6 -1 2 25 24 21 21 4 0.21108329D-01 0.16230461D-01 0.13358765D+05 0.13358765D+05 0.13358765D+05 0.12536008D+01  1  2 15  3  6  5       21 0.125209491063D+00 0.100000000000D+01
0.313897618121D-03 0.000000000000D+00 0.000000000000D+00 0.505994375259D-04 0.000000000000D+00  6 -1 2 25 24 21 21 4 0.21108329D-01 0.16230461D-01 0.13339378D+05 0.13339378D+05 0.13339378D+05 0.12536737D+01  1  2 12  3  6  5       21 0.542329746345D+00 0.100000000000D+01
0.322049472309D-03 0.000000000000D+00 0.000000000000D+00 0.505994375259D-04 0.000000000000D+00  6 -1 2 25 24 21 21 4 0.21108329D-01 0.16230461D-01 0.13339378D+05 0.13339378D+05 0.13339378D+05 0.12536737D+01  1  2 12  3  6  5       21 0.556413934177D+00 0.100000000000D+01
-.444869921162D-03 0.000000000000D+00 0.000000000000D+00 0.505935492366D-04 0.000000000000D+00  6 -1 2 25 24 21 21 4 0.21108329D-01 0.16230461D-01 0.13358765D+05 0.13358765D+05 0.13358765D+05 0.12536008D+01  1  2  4  3  6  5       21 -.768475770792D+00 0.100000000000D+01
0.173439716943D-04 0.000000000000D+00 0.000000000000D+00 0.505994375259D-04 0.000000000000D+00  6 -1 2 25 24 1 -1 4 0.21108329D-01 0.16230461D-01 0.13339378D+05 0.13339378D+05 0.13339378D+05 0.12536737D+01  1  2 12  6  6  5       21 0.299656678692D-01 0.100000000000D+01
0.176400511826D-04 0.000000000000D+00 0.000000000000D+00 0.505994375259D-04 0.000000000000D+00  6 -1 2 25 24 1 -1 4 0.21108329D-01 0.16230461D-01 0.13339378D+05 0.13339378D+05 0.13339378D+05 0.12536737D+01  1  2 12  6  6  5       21 0.304772127314D-01 0.100000000000D+01
0.173439716943D-04 0.000000000000D+00 0.000000000000D+00 0.505994375259D-04 0.000000000000D+00  6 -1 2 25 24 2 -2 4 0.21108329D-01 0.16230461D-01 0.13339378D+05 0.13339378D+05 0.13339378D+05 0.12536737D+01  1  2 12  7  6  5       21 0.299656678692D-01 0.100000000000D+01
0.176400511826D-04 0.000000000000D+00 0.000000000000D+00 0.505994375259D-04 0.000000000000D+00  6 -1 2 25 24 2 -2 4 0.21108329D-01 0.16230461D-01 0.13339378D+05 0.13339378D+05 0.13339378D+05 0.12536737D+01  1  2 12  7  6  5       21 0.304772127314D-01 0.100000000000D+01
0.173439716943D-04 0.000000000000D+00 0.000000000000D+00 0.505994375259D-04 0.000000000000D+00  6 -1 2 25 24 3 -3 4 0.21108329D-01 0.16230461D-01 0.13339378D+05 0.13339378D+05 0.13339378D+05 0.12536737D+01  1  2 12  8  6  5       21 0.299656678692D-01 0.100000000000D+01
0.173439716943D-04 0.000000000000D+00 0.000000000000D+00 0.505994375259D-04 0.000000000000D+00  6 -1 2 25 24 4 -4 4 0.21108329D-01 0.16230461D-01 0.13339378D+05 0.13339378D+05 0.13339378D+05 0.12536737D+01  1  2 12  8  6  5       21 0.299656678692D-01 0.100000000000D+01
0.176400511826D-04 0.000000000000D+00 0.000000000000D+00 0.505994375259D-04 0.000000000000D+00  6 -1 2 25 24 3 -3 4 0.21108329D-01 0.16230461D-01 0.13339378D+05 0.13339378D+05 0.13339378D+05 0.12536737D+01  1  2 12  8  6  5       21 0.304772127314D-01 0.100000000000D+01
0.176400511826D-04 0.000000000000D+00 0.000000000000D+00 0.505994375259D-04 0.000000000000D+00  6 -1 2 25 24 4 -4 4 0.21108329D-01 0.16230461D-01 0.13339378D+05 0.13339378D+05 0.13339378D+05 0.12536737D+01  1  2 12  8  6  5       21 0.304772127314D-01 0.100000000000D+01
  </mgrwgt>
  </event>
  <event>
  5     66 -.43135346E-03 0.31032467E+02 0.75467711E-02 0.11397309E+00
       -1 -1    0    0    0  501 0.00000000E+00 0.00000000E+00 0.10015162E+03 0.10015213E+03 0.32000000E+00 0.0000E+00 0.9000E+01
        2 -1    0    0  502    0 0.00000000E+00 0.00000000E+00 -.48144044E+03 0.48144054E+03 0.32000000E+00 0.0000E+00 0.9000E+01
       25  1    1    2    0    0 0.88152725E+02 -.19599686E+02 -.50934312E+02 0.16240183E+03 0.12500000E+03 0.0000E+00 0.9000E+01
       24  1    1    2    0    0 -.11917697E+03 0.20244670E+02 -.35238736E+03 0.38112604E+03 0.80419002E+02 0.0000E+00 0.9000E+01
       21  1    1    2  502  501 0.31024244E+02 -.64498370E+00 0.22032847E+02 0.38064794E+02 0.75000000E+00 0.0000E+00 0.9000E+01
#aMCatNLO 1  0  0  1  5 0.27294126D+02 0.00000000D+00  -5  6  0 0.00000000D+00 0.00000000D+00 0.00000000D+00 0.00000000D+00 0.00000000D+00
  <mgrwgt>
 -.4784436328D+00    5    4    0
 0.219584191566042D+03 0.000000000000000D+00 0.000000000000000D+00 0.219584191566042D+03
 0.219584191566042D+03 0.000000000000000D+00 0.000000000000000D+00 -.219584191566042D+03
 0.170847009574696D+03 0.881520231624741D+02 -.195996717598021D+02 0.735443700080901D+02
 0.198783575142173D+03 -.119177786207591D+03 0.202446870354063D+02 -.135773715105058D+03
 0.695377984152149D+02 0.310257630451172D+02 -.645015275604253D+00 0.622293450969680D+02
 0.000000000000000D+00 -.000000000000000D+00 0.000000000000000D+00 0.000000000000000D+00
 0.101014741748846D+04 0.000000000000000D+00 0.000000000000000D+00 0.101014741748846D+04
 0.226035147156481D+03 0.000000000000000D+00 0.000000000000000D+00 -.226035147156481D+03
 0.189787103472008D+03 0.115150587546070D+03 -.415416955865149D+02 0.735443700080901D+02
 0.182019743707186D+03 -.906692714844989D+02 -.292448968194399D+01 -.135773715105058D+03
 0.756125636048200D+02 0.418923207348291D+02 -.947638365335710D+01 0.622293450969680D+02
 0.788763153860924D+03 -.663736367963998D+02 0.539425689218160D+02 0.784112270331976D+03
 0.219584191566042D+03 0.000000000000000D+00 0.000000000000000D+00 0.219584191566042D+03
 0.219584191566042D+03 0.000000000000000D+00 0.000000000000000D+00 -.219584191566042D+03
 0.170847009574696D+03 0.881520231624741D+02 -.195996717598021D+02 0.735443700080901D+02
 0.198783575142173D+03 -.119177786207591D+03 0.202446870354063D+02 -.135773715105058D+03
 0.000000000000000D+00 -.000000000000000D+00 0.000000000000000D+00 0.000000000000000D+00
 0.695377984152149D+02 0.310257630451172D+02 -.645015275604253D+00 0.622293450969680D+02
 0.101014741748846D+04 0.000000000000000D+00 0.000000000000000D+00 0.101014741748846D+04
 0.226035147156481D+03 0.000000000000000D+00 0.000000000000000D+00 -.226035147156481D+03
 0.189787103472008D+03 0.115150587546070D+03 -.415416955865149D+02 0.735443700080901D+02
 0.182019743707186D+03 -.906692714844989D+02 -.292448968194399D+01 -.135773715105058D+03
 0.788763153860924D+03 -.663736367963998D+02 0.539425689218160D+02 0.784112270331976D+03
 0.756125636048200D+02 0.418923207348291D+02 -.947638365335710D+01 0.622293450969680D+02
0.253945768420D-03 0.000000000000D+00 0.000000000000D+00 0.131957470292D-04 0.000000000000D+00  6 -1 2 25 24 21 21 2 0.15407988D-01 0.74067807D-01 0.27296131D+05 0.27296131D+05 0.27296131D+05 0.12192273D+01  1  2  2  1  6  1       -1 0.848165016340D-01 0.100000000000D+01
0.236517917567D-04 0.134010863736D-04 -.975218616190D-06 0.131957470292D-04 0.000000000000D+00  6 -1 2 25 24 21 21 4 0.15407988D-01 0.74067807D-01 0.27296131D+05 0.27296131D+05 0.27296131D+05 0.12192273D+01  1  2  3  1  6  1       -1 0.117428306838D-01 0.100000000000D+01
0.235033031480D-05 0.000000000000D+00 0.000000000000D+00 0.131957470292D-04 0.000000000000D+00  6 -1 2 25 24 21 21 4 0.15407988D-01 0.74067807D-01 0.27296131D+05 0.27296131D+05 0.27296131D+05 0.12192273D+01  1  2 15  1  6  1       -1 0.116691078721D-02 0.100000000000D+01
-.609148759161D-02 0.000000000000D+00 -.171899154228D-03 0.131957470292D-04 0.000000000000D+00  6 -1 2 25 24 21 21 4 0.71545993D-01 0.74067807D-01 0.27296131D+05 0.27296131D+05 0.27296131D+05 0.12192273D+01  1  2  5  1  6  1       -1 -.210489541384D+00 0.100000000000D+01
-.113651896359D-02 0.000000000000D+00 -.320017277824D-04 0.131957470292D-04 0.000000000000D+00  6 21 2 25 24 1 21 4 0.71545993D-01 0.74067807D-01 0.27296131D+05 0.27296131D+05 0.27296131D+05 0.12192273D+01  3  4  5  4  5  1       -1 -.365680334567D+00 0.100000000000D+01
  </mgrwgt>
  </event>
  <event>
  5     66 0.43135346E-03 0.49070624E+02 0.75467711E-02 0.10565280E+00
       -1 -1    0    0    0  501 0.00000000E+00 0.00000000E+00 0.20491121E+02 0.20493619E+02 0.32000000E+00 0.0000E+00 0.9000E+01
        2 -1    0    0  502    0 0.00000000E+00 0.00000000E+00 -.13929883E+04 0.13929883E+04 0.32000000E+00 0.0000E+00 0.9000E+01
       25  1    1    2    0    0 -.35422942E+02 0.65221705E+01 -.88353444E+03 0.89305959E+03 0.12500000E+03 0.0000E+00 0.9000E+01
       24  1    1    2    0    0 0.80101307E+02 -.26809444E+02 -.41924368E+03 0.43516370E+03 0.80419002E+02 0.0000E+00 0.9000E+01
       21  1    1    2  502  501 -.44678364E+02 0.20287273E+02 -.69719024E+02 0.85258633E+02 0.75000000E+00 0.0000E+00 0.9000E+01
#aMCatNLO 1  0  0  1  5 0.15564583D+02 0.00000000D+00  -5  6  0 0.00000000D+00 0.00000000D+00 0.00000000D+00 0.00000000D+00 0.00000000D+00
  <mgrwgt>
 0.1083056141D+00    5    4    0
 0.168954676557083D+03 0.000000000000000D+00 0.000000000000000D+00 0.168954676557083D+03
 0.168954676557083D+03 0.000000000000000D+00 0.000000000000000D+00 -.168954676557083D+03
 0.147007455559746D+03 -.354219293163334D+02 0.652171046606119D+01 -.684758804708363D+02
 0.117444050318979D+03 0.801021160611951D+02 -.268098111662274D+02 0.138120971871144D+02
 0.734578472354419D+02 -.446801867448617D+02 0.202881007001662D+02 0.546637832837220D+02
 0.000000000000000D+00 -.000000000000000D+00 -.000000000000000D+00 0.000000000000000D+00
 0.116741129559425D+04 0.000000000000000D+00 0.000000000000000D+00 0.116741129559425D+04
 0.253653114715262D+03 0.000000000000000D+00 0.000000000000000D+00 -.253653114715262D+03
 0.180767888111746D+03 0.523268121340035D+02 0.981070226743073D+02 -.684758804708363D+02
 0.191631607262431D+03 0.162844764308970D+03 0.595505302752339D+02 0.138120971871144D+02
 0.845301014215904D+02 -.238523098739246D+01 0.644322862902708D+02 0.546637832837220D+02
 0.964134813513744D+03 -.212786345455581D+03 -.222089839239812D+03 0.913758180878986D+03
 0.168954676557083D+03 0.000000000000000D+00 0.000000000000000D+00 0.168954676557083D+03
 0.168954676557083D+03 0.000000000000000D+00 0.000000000000000D+00 -.168954676557083D+03
 0.147007455559746D+03 -.354219293163334D+02 0.652171046606119D+01 -.684758804708363D+02
 0.117444050318979D+03 0.801021160611951D+02 -.268098111662274D+02 0.138120971871144D+02
 0.000000000000000D+00 -.000000000000000D+00 -.000000000000000D+00 0.000000000000000D+00
 0.734578472354419D+02 -.446801867448617D+02 0.202881007001662D+02 0.546637832837220D+02
 0.116741129559425D+04 0.000000000000000D+00 0.000000000000000D+00 0.116741129559425D+04
 0.253653114715262D+03 0.000000000000000D+00 0.000000000000000D+00 -.253653114715262D+03
 0.180767888111746D+03 0.523268121340035D+02 0.981070226743073D+02 -.684758804708363D+02
 0.191631607262431D+03 0.162844764308970D+03 0.595505302752339D+02 0.138120971871144D+02
 0.964134813513744D+03 -.212786345455581D+03 -.222089839239812D+03 0.913758180878986D+03
 0.845301014215904D+02 -.238523098739246D+01 0.644322862902708D+02 0.546637832837220D+02
0.142377515602D-03 0.000000000000D+00 0.000000000000D+00 0.939670676003D-05 0.000000000000D+00  6 -1 2 25 24 21 21 2 0.31526752D-02 0.21430608D+00 0.21872219D+05 0.21872219D+05 0.21872219D+05 0.12295704D+01  1  2  2  1  6  1       -1 0.131722761352D+00 0.100000000000D+01
0.884066427022D-06 0.751346791918D-05 -.546767148771D-06 0.939670676003D-05 0.000000000000D+00  6 -1 2 25 24 21 21 4 0.31526752D-02 0.21430608D+00 0.21872219D+05 0.21872219D+05 0.21872219D+05 0.12295704D+01  1  2  3  1  6  1       -1 0.123654836319D-02 0.100000000000D+01
0.354420615628D-05 0.000000000000D+00 0.000000000000D+00 0.939670676003D-05 0.000000000000D+00  6 -1 2 25 24 21 21 4 0.31526752D-02 0.21430608D+00 0.21872219D+05 0.21872219D+05 0.21872219D+05 0.12295704D+01  1  2 15  1  6  1       -1 0.495729979941D-02 0.100000000000D+01
-.113570015510D-03 0.000000000000D+00 -.186893197505D-03 0.939670676003D-05 0.000000000000D+00  6 -1 2 25 24 21 21 4 0.33586512D-01 0.21430608D+00 0.21872219D+05 0.21872219D+05 0.21872219D+05 0.12295704D+01  1  2  5  1  6  1       -1 -.406982764671D-02 0.100000000000D+01
-.635583068359D-04 0.000000000000D+00 -.522427428636D-04 0.939670676003D-05 0.000000000000D+00  6 21 2 25 24 1 21 4 0.33586512D-01 0.21430608D+00 0.21872219D+05 0.21872219D+05 0.21872219D+05 0.12295704D+01  3  4  5  4  5  1       -1 -.255411677817D-01 0.100000000000D+01
  </mgrwgt>
  </event>
  <event>
  5     66 0.43135346E-03 0.11922254E+03 0.75467711E-02 0.11046448E+00
       -1 -1    0    0    0  501 0.00000000E+00 0.00000000E+00 0.13703943E+04 0.13703944E+04 0.32000000E+00 0.0000E+00 0.9000E+01
        2 -1    0    0  502    0 0.00000000E+00 0.00000000E+00 -.97884938E+02 0.97885461E+02 0.32000000E+00 0.0000E+00 0.9000E+01
       25  1    1    2    0    0 -.10852557E+03 -.19413768E+02 0.51922812E+03 0.54532333E+03 0.12500000E+03 0.0000E+00 0.9000E+01
       24  1    1    2    0    0 0.11062416E+03 -.99789800E+02 0.93790599E+01 0.16956088E+03 0.80419002E+02 0.0000E+00 0.9000E+01
       21  1    1    2  502  501 -.20985861E+01 0.11920357E+03 0.74390221E+03 0.75339562E+03 0.75000000E+00 0.0000E+00 0.9000E+01
#aMCatNLO 1  0  0  1  1 0.72349170D+02 0.00000000D+00  -5  6  0 0.00000000D+00 0.00000000D+00 0.00000000D+00 0.00000000D+00 0.00000000D+00
  <mgrwgt>
 0.8812126485D-01    7    4    0
 0.366253157297453D+03 0.000000000000000D+00 0.000000000000000D+00 0.366253157297453D+03
 0.366253157297453D+03 0.000000000000000D+00 0.000000000000000D+00 -.366253157297453D+03
 0.191076166454234D+03 -.108525569977090D+03 -.194139524970621D+02 0.934366121840675D+02
 0.323585259252301D+03 0.110624164816008D+03 -.997901123397353D+02 -.275761548604935D+03
 0.217844888888371D+03 -.209859483891865D+01 0.119204064836797D+03 0.182324936420868D+03
 0.000000000000000D+00 0.000000000000000D+00 -.000000000000000D+00 0.000000000000000D+00
 0.427910630206895D+03 0.000000000000000D+00 0.000000000000000D+00 0.427910630206895D+03
 0.389890710408421D+03 0.000000000000000D+00 0.000000000000000D+00 -.389890710408421D+03
 0.194331115596944D+03 -.115782943970853D+03 -.186865677949330D+01 0.934366121840675D+02
 0.311875644216322D+03 0.986581806489687D+02 -.708613660820818D+02 -.275761548604935D+03
 0.229863823310445D+03 -.105291297976776D+02 0.139585573222041D+03 0.182324936420868D+03
 0.817307574916037D+02 0.276538931195614D+02 -.668555503604662D+02 0.380199197984737D+02
 0.366253157297453D+03 0.000000000000000D+00 0.000000000000000D+00 0.366253157297453D+03
 0.366253157297453D+03 0.000000000000000D+00 0.000000000000000D+00 -.366253157297453D+03
 0.191076166454234D+03 -.108525569977090D+03 -.194139524970621D+02 0.934366121840675D+02
 0.323585259252301D+03 0.110624164816008D+03 -.997901123397353D+02 -.275761548604935D+03
 0.000000000000000D+00 0.000000000000000D+00 -.000000000000000D+00 0.000000000000000D+00
 0.217844888888371D+03 -.209859483891865D+01 0.119204064836797D+03 0.182324936420868D+03
 0.427910630206895D+03 0.000000000000000D+00 0.000000000000000D+00 0.427910630206895D+03
 0.389890710408421D+03 0.000000000000000D+00 0.000000000000000D+00 -.389890710408421D+03
 0.194331115596944D+03 -.115782943970853D+03 -.186865677949330D+01 0.934366121840675D+02
 0.311875644216322D+03 0.986581806489687D+02 -.708613660820818D+02 -.275761548604935D+03
 0.817307574916037D+02 0.276538931195614D+02 -.668555503604662D+02 0.380199197984737D+02
 0.229863823310445D+03 -.105291297976776D+02 0.139585573222041D+03 0.182324936420868D+03
0.465275044319D-02 0.000000000000D+00 0.000000000000D+00 0.705971914337D-06 0.000000000000D+00  6 -1 2 25 24 21 21 2 0.21082994D+00 0.15059264D-01 0.51800951D+05 0.51800951D+05 0.51800951D+05 0.11907628D+01  1  2  2  1  6  1       -1 0.417455490296D-01 0.100000000000D+01
-.295367047890D-03 0.245532386509D-03 -.178677867992D-04 0.705971914337D-06 0.000000000000D+00  6 -1 2 25 24 21 21 4 0.21082994D+00 0.15059264D-01 0.51800951D+05 0.51800951D+05 0.51800951D+05 0.11907628D+01  1  2  3  1  6  1       -1 -.375762099728D-02 0.100000000000D+01
0.218604387725D-03 0.000000000000D+00 0.000000000000D+00 0.705971914337D-06 0.000000000000D+00  6 -1 2 25 24 21 21 4 0.21082994D+00 0.15059264D-01 0.51800951D+05 0.51800951D+05 0.51800951D+05 0.11907628D+01  1  2 15  1  6  1       -1 0.278105646273D-02 0.100000000000D+01
-.299882936519D-02 0.000000000000D+00 0.000000000000D+00 0.705971914337D-06 0.000000000000D+00  6 -1 2 25 24 21 21 4 0.21082994D+00 0.15059264D-01 0.51800951D+05 0.51800951D+05 0.51800951D+05 0.11907628D+01  1  2  4  1  6  1       -1 -.381507154247D-01 0.100000000000D+01
-.167116903591D-01 0.000000000000D+00 -.486339177129D-02 0.705971914337D-06 0.000000000000D+00  6 -1 2 25 24 21 21 4 0.25419143D+00 0.15059264D-01 0.51800951D+05 0.51800951D+05 0.51800951D+05 0.11907628D+01  1  2  5  1  6  1       -1 -.112444594388D+00 0.100000000000D+01
0.173999289081D-01 0.000000000000D+00 0.477954777412D-02 0.705971914337D-06 0.000000000000D+00  6 -1 2 25 24 21 21 4 0.21082994D+00 0.15059264D-01 0.51800951D+05 0.51800951D+05 0.51800951D+05 0.11907628D+01  1  2  6  1  6  1       -1 0.221359622488D+00 0.100000000000D+01
-.404248738162D-03 0.000000000000D+00 -.132158656163D-03 0.705971914337D-06 0.000000000000D+00  6 21 2 25 24 1 21 4 0.25419143D+00 0.15059264D-01 0.51800951D+05 0.51800951D+05 0.51800951D+05 0.11907628D+01  3  4  5  4  5  1       -1 -.234120323234D-01 0.100000000000D+01
  </mgrwgt>
  </event>
  <event>
  5     66 0.43135346E-03 0.83675412E+02 0.75467711E-02 0.11023063E+00
       -1 -1    0    0    0  501 0.00000000E+00 0.00000000E+00 0.67979256E+02 0.67980010E+02 0.32000000E+00 0.0000E+00 0.9000E+01
        2 -1    0    0  502    0 0.00000000E+00 0.00000000E+00 -.10057773E+04 0.10057773E+04 0.32000000E+00 0.0000E+00 0.9000E+01
       25  1    1    2    0    0 0.48932269E+02 0.18512963E+03 -.42404681E+03 0.48177593E+03 0.12500000E+03 0.0000E+00 0.9000E+01
       24  1    1    2    0    0 0.37873090E+02 -.17860383E+03 -.29096500E+03 0.35279109E+03 0.80419002E+02 0.0000E+00 0.9000E+01
       21  1    1    2  502  501 -.86805359E+02 -.65257925E+01 -.22278620E+03 0.23919032E+03 0.75000000E+00 0.0000E+00 0.9000E+01
#aMCatNLO 1  0  0  1  5 0.20737210D+02 0.00000000D+00  -5  6  0 0.00000000D+00 0.00000000D+00 0.00000000D+00 0.00000000D+00 0.00000000D+00
  <mgrwgt>
 0.1479044428D+00    9    4    0
 0.261481209205360D+03 0.000000000000000D+00 0.000000000000000D+00 0.261481209205360D+03
 0.261481209205360D+03 0.000000000000000D+00 0.000000000000000D+00 -.261481209205360D+03
 0.228774282291013D+03 0.489335418971431D+02 0.185129720984017D+03 -.672064904222433D+01
 0.202587627414222D+03 0.378742170291984D+02 -.178603748005396D+03 0.352246463403587D+02
 0.916005087054846D+02 -.868077589263415D+02 -.652597297862048D+01 -.285039972981344D+02
 0.000000000000000D+00 0.000000000000000D+00 -.000000000000000D+00 0.000000000000000D+00
 0.282807942346722D+03 0.000000000000000D+00 0.000000000000000D+00 0.282807942346722D+03
 0.266776744530581D+03 0.000000000000000D+00 0.000000000000000D+00 -.266776744530581D+03
 0.231929089229503D+03 0.417260302622743D+02 0.190735087767904D+03 -.672064904222433D+01
 0.197213477037808D+03 0.316194959003710D+02 -.173739377632632D+03 0.352246463403587D+02
 0.942308405549068D+02 -.897150126924625D+02 -.426496744460148D+01 -.285039972981344D+02
 0.262112800550857D+02 0.163694865298172D+02 -.127307426906697D+02 0.160311978161404D+02
 0.261481209205360D+03 0.000000000000000D+00 0.000000000000000D+00 0.261481209205360D+03
 0.261481209205360D+03 0.000000000000000D+00 0.000000000000000D+00 -.261481209205360D+03
 0.228774282291013D+03 0.489335418971431D+02 0.185129720984017D+03 -.672064904222433D+01
 0.202587627414222D+03 0.378742170291984D+02 -.178603748005396D+03 0.352246463403587D+02
 0.000000000000000D+00 0.000000000000000D+00 -.000000000000000D+00 0.000000000000000D+00
 0.916005087054846D+02 -.868077589263415D+02 -.652597297862048D+01 -.285039972981344D+02
 0.282807942346722D+03 0.000000000000000D+00 0.000000000000000D+00 0.282807942346722D+03
 0.266776744530581D+03 0.000000000000000D+00 0.000000000000000D+00 -.266776744530581D+03
 0.231929089229503D+03 0.417260302622743D+02 0.190735087767904D+03 -.672064904222433D+01
 0.197213477037808D+03 0.316194959003710D+02 -.173739377632632D+03 0.352246463403587D+02
 0.262112800550857D+02 0.163694865298172D+02 -.127307426906697D+02 0.160311978161404D+02
 0.942308405549068D+02 -.897150126924625D+02 -.426496744460148D+01 -.285039972981344D+02
0.205947237301D-03 0.000000000000D+00 0.000000000000D+00 0.218015943848D-05 0.000000000000D+00  6 -1 2 25 24 21 21 2 0.10458409D-01 0.15473503D+00 0.66365506D+05 0.66365506D+05 0.66365506D+05 0.11802917D+01  1  2  2  1  6  1       -1 0.483270959190D-01 0.100000000000D+01
0.389130851307D-05 0.108681342975D-04 -.790891618388D-06 0.218015943848D-05 0.000000000000D+00  6 -1 2 25 24 21 21 4 0.10458409D-01 0.15473503D+00 0.66365506D+05 0.66365506D+05 0.66365506D+05 0.11802917D+01  1  2  3  1  6  1       -1 0.127206447333D-02 0.100000000000D+01
0.802774521237D-05 0.000000000000D+00 0.000000000000D+00 0.218015943848D-05 0.000000000000D+00  6 -1 2 25 24 21 21 4 0.10458409D-01 0.15473503D+00 0.66365506D+05 0.66365506D+05 0.66365506D+05 0.11802917D+01  1  2 15  1  6  1       -1 0.262426108115D-02 0.100000000000D+01
0.933178053495D-03 0.000000000000D+00 0.000000000000D+00 0.216781228365D-05 0.000000000000D+00  6 -1 2 25 24 21 21 4 0.11763135D-01 0.15473503D+00 0.71938602D+05 0.71938602D+05 0.71938602D+05 0.11769447D+01  1  2 12  1  6  1       -1 0.251046745089D+00 0.100000000000D+01
-.566948591788D-03 0.000000000000D+00 0.000000000000D+00 0.218015943848D-05 0.000000000000D+00  6 -1 2 25 24 21 21 4 0.10458409D-01 0.15473503D+00 0.66365506D+05 0.66365506D+05 0.66365506D+05 0.11802917D+01  1  2  4  1  6  1       -1 -.185334871135D+00 0.100000000000D+01
-.310404877458D-02 0.000000000000D+00 -.486998472802D-03 0.218015943848D-05 0.000000000000D+00  6 -1 2 25 24 21 21 4 0.11535443D-01 0.15473503D+00 0.66365506D+05 0.66365506D+05 0.66365506D+05 0.11802917D+01  1  2  5  1  6  1       -1 -.870969011353D+00 0.100000000000D+01
0.313902227375D-02 0.000000000000D+00 0.484668378731D-03 0.218015943848D-05 0.000000000000D+00  6 -1 2 25 24 21 21 4 0.10458409D-01 0.15473503D+00 0.66365506D+05 0.66365506D+05 0.66365506D+05 0.11802917D+01  1  2  6  1  6  1       -1 0.102614292905D+01 0.100000000000D+01
0.174797079284D-04 0.000000000000D+00 0.000000000000D+00 0.216781228365D-05 0.000000000000D+00  6 21 2 25 24 1 21 4 0.11763135D-01 0.15473503D+00 0.71938602D+05 0.71938602D+05 0.71938602D+05 0.11769447D+01  3  4 12  4  5  1       -1 0.665084269035D-01 0.100000000000D+01
-.480040771505D-04 0.000000000000D+00 -.777416917233D-05 0.218015943848D-05 0.000000000000D+00  6 21 2 25 24 1 21 4 0.11535443D-01 0.15473503D+00 0.66365506D+05 0.66365506D+05 0.66365506D+05 0.11802917D+01  3  4  5  4  5  1       -1 -.191713197240D+00 0.100000000000D+01
  </mgrwgt>
  </event>
  <event>
  5     66 0.43135346E-03 0.36666744E+02 0.75467711E-02 0.10096507E+00
       -1 -1    0    0    0  501 0.00000000E+00 0.00000000E+00 0.22182257E+03 0.22182280E+03 0.32000000E+00 0.0000E+00 0.9000E+01
        2 -1    0    0  502    0 0.00000000E+00 0.00000000E+00 -.38661060E+03 0.38661073E+03 0.32000000E+00 0.0000E+00 0.9000E+01
       25  1    1    2    0    0 0.70013879E+02 -.39697124E+02 -.18323129E+03 0.23595870E+03 0.12500000E+03 0.0000E+00 0.9000E+01
       24  1    1    2    0    0 -.99891515E+02 0.60951944E+02 -.14619692E+03 0.20379943E+03 0.80419002E+02 0.0000E+00 0.9000E+01
       21  1    1    2  502  501 0.29877637E+02 -.21254820E+02 0.16464017E+03 0.16867539E+03 0.75000000E+00 0.0000E+00 0.9000E+01
#aMCatNLO 1  0  0  2  1 0.17327075D+03 0.00000000D+00  -5  6  0 0.00000000D+00 0.00000000D+00 0.00000000D+00 0.00000000D+00 0.00000000D+00
  <mgrwgt>
 0.3095105561D+00    5    4    0
 0.292846488629406D+03 0.000000000000000D+00 0.000000000000000D+00 0.292846488629406D+03
 0.292846488629406D+03 0.000000000000000D+00 0.000000000000000D+00 -.292846488629406D+03
 0.193567286640500D+03 0.700138219195484D+02 -.396970838522600D+02 -.123957657009197D+03
 0.170579216354518D+03 -.998915650230017D+02 0.609519793488519D+02 -.945335101879939D+02
 0.221546474263794D+03 0.298777431034532D+02 -.212548954965919D+02 0.218491167197191D+03
 0.000000000000000D+00 -.000000000000000D+00 -.000000000000000D+00 -.000000000000000D+00
 0.381030121390592D+03 0.000000000000000D+00 0.000000000000000D+00 0.381030121390592D+03
 0.468521052528612D+04 0.000000000000000D+00 0.000000000000000D+00 -.468521052528612D+04
 0.278483985461351D+03 0.213354043119344D+03 0.322936791316403D+02 -.123957657009197D+03
 0.167546724469824D+03 0.278170378389368D+01 0.112518294076082D+03 -.945335101879939D+02
 0.292570367899629D+03 0.185991339726375D+03 0.571511292672445D+02 0.218491167197191D+03
 0.432763956884591D+04 -.402127086629613D+03 -.201963102474967D+03 -.430418040389553D+04
 0.292846488629406D+03 0.000000000000000D+00 0.000000000000000D+00 0.292846488629406D+03
 0.292846488629406D+03 0.000000000000000D+00 0.000000000000000D+00 -.292846488629406D+03
 0.193567286640500D+03 0.700138219195484D+02 -.396970838522600D+02 -.123957657009197D+03
 0.170579216354518D+03 -.998915650230017D+02 0.609519793488519D+02 -.945335101879939D+02
 0.000000000000000D+00 -.000000000000000D+00 -.000000000000000D+00 -.000000000000000D+00
 0.221546474263794D+03 0.298777431034532D+02 -.212548954965919D+02 0.218491167197191D+03
 0.381030121390592D+03 0.000000000000000D+00 0.000000000000000D+00 0.381030121390592D+03
 0.468521052528612D+04 0.000000000000000D+00 0.000000000000000D+00 -.468521052528612D+04
 0.278483985461351D+03 0.213354043119344D+03 0.322936791316403D+02 -.123957657009197D+03
 0.167546724469824D+03 0.278170378389368D+01 0.112518294076082D+03 -.945335101879939D+02
 0.432763956884591D+04 -.402127086629613D+03 -.201963102474967D+03 -.430418040389553D+04
 0.292570367899629D+03 0.185991339726375D+03 0.571511292672445D+02 0.218491167197191D+03
0.204175478548D-02 0.000000000000D+00 0.000000000000D+00 0.312768179800D-04 0.000000000000D+00  6 -1 2 25 24 21 21 2 0.34126576D-01 0.59478582D-01 0.26785439D+05 0.26785439D+05 0.26785439D+05 0.12200987D+01  1  2  2  2  6  2        2 0.235211385169D+00 0.100000000000D+01
0.345792092475D-03 0.107746360194D-03 -.784087598261D-05 0.312768179800D-04 0.000000000000D+00  6 -1 2 25 24 21 21 4 0.34126576D-01 0.59478582D-01 0.26785439D+05 0.26785439D+05 0.26785439D+05 0.12200987D+01  1  2  3  2  6  2        2 0.593006865465D-01 0.100000000000D+01
0.875129421653D-04 0.000000000000D+00 0.000000000000D+00 0.312768179800D-04 0.000000000000D+00  6 -1 2 25 24 21 21 4 0.34126576D-01 0.59478582D-01 0.26785439D+05 0.26785439D+05 0.26785439D+05 0.12200987D+01  1  2 15  2  6  2        2 0.150077970695D-01 0.100000000000D+01
-.419233298817D-01 0.000000000000D+00 -.415768706265D-02 0.312768179800D-04 0.000000000000D+00  6 -1 2 25 24 21 21 4 0.34126576D-01 0.95382165D+00 0.26785439D+05 0.26785439D+05 0.26785439D+05 0.12200987D+01  1  2  5  2  6  2        2 -.930862603808D-05 0.100000000000D+01
-.139225911757D-01 0.000000000000D+00 -.128595303468D-02 0.312768179800D-04 0.000000000000D+00  6 -1 21 25 24 -2 21 4 0.34126576D-01 0.95382165D+00 0.26785439D+05 0.26785439D+05 0.26785439D+05 0.12200987D+01  3  4  5  5  5  2        2 -.410722967181D-08 0.100000000000D+01
  </mgrwgt>
  </event>
  <event>
  6     66 -.43135346E-03 0.10213411E+02 0.75467711E-02 0.12339389E+00
       -1 -1    0    0    0  501 0.00000000E+00 0.00000000E+00 0.17862275E+02 0.17865142E+02 0.32000000E+00 0.0000E+00 0.9000E+01
        2 -1    0    0  502    0 -.00000000E+00 -.00000000E+00 -.94497264E+03 0.94497269E+03 0.32000000E+00 0.0000E+00 0.9000E+01
       25  1    1    2    0    0 0.92507367E+01 -.22165585E+02 -.47668668E+03 0.49338836E+03 0.12500000E+03 0.0000E+00 0.9000E+01
       24  1    1    2    0    0 0.64675394E+01 0.40859179E+02 -.25404249E+03 0.26965924E+03 0.80419002E+02 0.0000E+00 0.9000E+01
        2  1    1    2  502    0 -.16217751E+02 -.55002583E+01 -.16290763E+03 0.16380557E+03 0.32000000E+00 0.0000E+00 0.9000E+01
       -2  1    1    2    0  501 0.49947494E+00 -.13193336E+02 -.33473571E+02 0.35984662E+02 0.32000000E+00 0.0000E+00 0.9000E+01
#aMCatNLO 2  0  0  5  2 0.12617645D+02 0.00000000D+00  -5  6  0 0.00000000D+00 0.00000000D+00 0.00000000D+00 0.00000000D+00 0.00000000D+00
  <mgrwgt>
 -.2104865917D-01    2    2    0
 0.129926007719671D+03 0.000000000000000D+00 0.000000000000000D+00 0.129926007719671D+03
 0.129926007719671D+03 -.000000000000000D+00 -.000000000000000D+00 -.129926007719671D+03
 0.127002483707646D+03 0.122921694151013D+02 -.185484388738493D+02 -.308039840350930D+01
 0.946680715851834D+02 0.870845883228466D+01 0.435242833018888D+02 0.229047447292085D+02
 0.381814601465135D+02 -.210006282473860D+02 -.249758444280395D+02 -.198243463256992D+02
 0.000000000000000D+00 0.000000000000000D+00 0.000000000000000D+00 0.000000000000000D+00
 0.129926007719671D+03 0.000000000000000D+00 0.000000000000000D+00 0.129926007719671D+03
 0.129926007719671D+03 -.000000000000000D+00 -.000000000000000D+00 -.129926007719671D+03
 0.127429771932527D+03 0.922795284285571D+01 -.221926820603241D+02 -.597298284572497D+01
 0.927805860467996D+02 0.645094913990735D+01 0.408394488194430D+02 0.207736821034567D+02
 0.255368263933590D+02 -.160997740230096D+02 -.522646380998614D+01 -.191209532894019D+02
 0.141048310666567D+02 0.420872040246507D+00 -.134203029491328D+02 0.432025403167006D+01
-.356864121768D-05 0.000000000000D+00 0.000000000000D+00 0.241232740723D-04 0.000000000000D+00  6 -1 2 25 24 2 -2 4 0.27482670D-02 0.14538063D+00 0.15384499D+05 0.15384499D+05 0.15384499D+05 0.12465714D+01  1  2 13  7  6  5       21 -.114139340563D-01 0.100000000000D+01
-.301235989104D-05 0.000000000000D+00 0.000000000000D+00 0.241232740723D-04 0.000000000000D+00  6 -1 2 25 24 2 -2 4 0.27482670D-02 0.14538063D+00 0.15384499D+05 0.15384499D+05 0.15384499D+05 0.12465714D+01  1  2 13  7  6  5       21 -.963472511041D-02 0.100000000000D+01
  </mgrwgt>
  </event>
  <event>
  6     66 -.43135346E-03 0.20545620E+02 0.75467711E-02 0.12256489E+00
       -1 -1    0    0    0  501 0.00000000E+00 0.00000000E+00 0.79449582E+02 0.79450226E+02 0.32000000E+00 0.0000E+00 0.9000E+01
        2 -1    0    0  503    0 0.00000000E+00 0.00000000E+00 -.73877197E+03 0.73877204E+03 0.32000000E+00 0.0000E+00 0.9000E+01
       25  1    1    2    0    0 -.13761027E+01 -.48706051E+02 -.59505294E+02 0.14676530E+03 0.12500000E+03 0.0000E+00 0.9000E+01
       24  1    1    2    0    0 -.15792590E+02 0.48146503E+02 -.30576251E+02 0.99847958E+02 0.80419002E+02 0.0000E+00 0.9000E+01
       21  1    1    2  502  501 0.24505048E+02 -.36572405E+01 -.55021149E+03 0.55076957E+03 0.75000000E+00 0.0000E+00 0.9000E+01
       21  1    1    2  503  502 -.73363560E+01 0.42167878E+01 -.19029353E+02 0.20839438E+02 0.75000000E+00 0.0000E+00 0.9000E+01
#aMCatNLO 2  0  0  2  5 0.84618803D+01 0.00000000D+00  -5  6  0 0.00000000D+00 0.00000000D+00 0.00000000D+00 0.00000000D+00 0.00000000D+00
  <mgrwgt>
 -.1719747138D+01    2    2    0
 0.237577670959422D+03 0.000000000000000D+00 0.000000000000000D+00 0.237577670959422D+03
 0.237577670959422D+03 0.000000000000000D+00 0.000000000000000D+00 -.237577670959422D+03
 0.165697739839478D+03 -.393728657748162D+01 -.472339650436079D+02 0.978988830813570D+02
 0.127028565877764D+03 -.177484532857712D+02 0.492706702777215D+02 0.832252008164460D+02
 0.182429036201603D+03 0.216857398632528D+02 -.203670523411358D+01 -.181124083897803D+03
 0.000000000000000D+00 -.000000000000000D+00 0.000000000000000D+00 -.000000000000000D+00
 0.240338261660186D+03 0.000000000000000D+00 0.000000000000000D+00 0.240338261660186D+03
 0.244189480699139D+03 0.000000000000000D+00 0.000000000000000D+00 -.244189480699139D+03
 0.166082401772499D+03 -.137616176589424D+01 -.487060473528573D+02 0.978988830813570D+02
 0.126337418386624D+03 -.157926342739429D+02 0.481465053973611D+02 0.832252008164460D+02
 0.182810863164916D+03 0.245051520315171D+02 -.365724584838068D+01 -.181124083897803D+03
 0.929705903528513D+01 -.733635599167997D+01 0.421678780387692D+01 -.385121903895287D+01
-.531427219681D-02 0.000000000000D+00 0.000000000000D+00 0.113909514616D-03 0.000000000000D+00  6 -1 2 25 24 21 21 4 0.12081914D-01 0.11057292D+00 0.15804702D+05 0.15804702D+05 0.15804702D+05 0.12452435D+01  1  2  8  2  6  2        2 -.263958832128D+01 0.100000000000D+01
0.197299619918D-02 0.000000000000D+00 0.000000000000D+00 0.113909514616D-03 0.493176247943D-05  6 -1 2 25 24 21 21 4 0.12222303D-01 0.11365017D+00 0.17220069D+05 0.17220069D+05 0.17220069D+05 0.12410463D+01  1  2  1  2  6  2        2 0.919841182796D+00 0.100000000000D+01
  </mgrwgt>
  </event>
  <event>
  5     66 0.43135346E-03 0.30950622E+02 0.75467711E-02 0.11466925E+00
       -1 -1    0    0    0  501 0.00000000E+00 0.00000000E+00 0.67779475E+02 0.67780231E+02 0.32000000E+00 0.0000E+00 0.9000E+01
        2 -1    0    0  502    0 -.00000000E+00 -.00000000E+00 -.89548486E+03 0.89548492E+03 0.32000000E+00 0.0000E+00 0.9000E+01
       25  1    1    2    0    0 -.11660526E+02 0.12261016E+03 -.11247005E+03 0.20843160E+03 0.12500000E+03 0.0000E+00 0.9000E+01
       24  1    1    2    0    0 0.42589136E+02 -.12145481E+03 -.27988097E+03 0.31837977E+03 0.80419002E+02 0.0000E+00 0.9000E+01
       21  1    1    2  502  501 -.30928610E+02 -.11553430E+01 -.43535437E+03 0.43645378E+03 0.75000000E+00 0.0000E+00 0.9000E+01
#aMCatNLO 1  0  0  5  1 0.34238889D+02 0.00000000D+00  -5  6  0 0.00000000D+00 0.00000000D+00 0.00000000D+00 0.00000000D+00 0.00000000D+00
  <mgrwgt>
 0.9476806950D-01   10    2    0
 0.246365348982721D+03 0.000000000000000D+00 0.000000000000000D+00 0.246365348982721D+03
 0.246365348982721D+03 -.000000000000000D+00 -.000000000000000D+00 -.246365348982721D+03
 0.218543547113352D+03 -.116602665040898D+02 0.122610166886291D+03 0.130257695151017D+03
 0.152264001352235D+03 0.425893167625745D+02 -.121454807451108D+03 -.123284223700505D+02
 0.121923149499855D+03 -.309290502584846D+02 -.115535943518344D+01 -.117929272780966D+03
 0.000000000000000D+00 0.000000000000000D+00 0.000000000000000D+00 -.000000000000000D+00
 0.246365348982721D+03 0.000000000000000D+00 0.000000000000000D+00 0.246365348982721D+03
 0.246365348982721D+03 -.000000000000000D+00 -.000000000000000D+00 -.246365348982721D+03
 0.212305075717900D+03 -.145366173291009D+02 0.122502720358292D+03 0.119290466664477D+03
 0.152594704778412D+03 0.405540762060922D+02 -.121530834175503D+03 -.200885843134144D+02
 0.865345361189474D+02 -.511145306983930D+02 0.115013348187814D+02 -.688712566328708D+02
 0.412963813501817D+02 0.250970718214017D+02 -.124732210015711D+02 -.303306257181913D+02
0.327299596758D-03 0.000000000000D+00 0.000000000000D+00 0.200393056167D-04 0.000000000000D+00  6 -1 2 25 24 21 21 2 0.10427674D-01 0.13776696D+00 0.32076364D+05 0.32076364D+05 0.32076364D+05 0.12118598D+01  1  2  2  3  6  5       21 0.951428532063D-01 0.100000000000D+01
0.490290980076D-04 0.172720742444D-04 -.125691663152D-05 0.200393056167D-04 0.000000000000D+00  6 -1 2 25 24 21 21 4 0.10427674D-01 0.13776696D+00 0.32076364D+05 0.32076364D+05 0.32076364D+05 0.12118598D+01  1  2  3  3  6  5       21 0.209309711627D-01 0.100000000000D+01
0.138273268921D-04 0.000000000000D+00 0.000000000000D+00 0.200393056167D-04 0.000000000000D+00  6 -1 2 25 24 21 21 4 0.10427674D-01 0.13776696D+00 0.32076364D+05 0.32076364D+05 0.32076364D+05 0.12118598D+01  1  2 15  3  6  5       21 0.590301254148D-02 0.100000000000D+01
-.152020178101D-03 0.000000000000D+00 0.000000000000D+00 0.200393056167D-04 0.000000000000D+00  6 -1 2 25 24 21 21 4 0.10427674D-01 0.13776696D+00 0.32076364D+05 0.32076364D+05 0.32076364D+05 0.12118598D+01  1  2  4  3  6  5       21 -.648988068981D-01 0.100000000000D+01
-.320731496363D-03 0.000000000000D+00 0.000000000000D+00 0.200393056167D-04 0.000000000000D+00  6 -1 2 25 24 21 21 4 0.10427674D-01 0.13776696D+00 0.32076364D+05 0.32076364D+05 0.32076364D+05 0.12118598D+01  1  2  5  3  6  5       21 -.136923214462D+00 0.100000000000D+01
0.422739249130D-03 0.000000000000D+00 -.000000000000D+00 0.200393056167D-04 0.000000000000D+00  6 -1 2 25 24 21 21 4 0.10427674D-01 0.13776696D+00 0.32076364D+05 0.32076364D+05 0.32076364D+05 0.12118598D+01  1  2  6  3  6  5       21 0.180471258752D+00 0.100000000000D+01
-.343047498175D-05 0.000000000000D+00 0.000000000000D+00 0.200393056167D-04 0.000000000000D+00  6 -1 2 25 24 1 -1 4 0.10427674D-01 0.13776696D+00 0.32076364D+05 0.32076364D+05 0.32076364D+05 0.12118598D+01  1  2  5  6  6  5       21 -.146450120103D-02 0.100000000000D+01
-.343047498175D-05 0.000000000000D+00 0.000000000000D+00 0.200393056167D-04 0.000000000000D+00  6 -1 2 25 24 2 -2 4 0.10427674D-01 0.13776696D+00 0.32076364D+05 0.32076364D+05 0.32076364D+05 0.12118598D+01  1  2  5  7  6  5       21 -.146450120103D-02 0.100000000000D+01
-.343047498175D-05 0.000000000000D+00 0.000000000000D+00 0.200393056167D-04 0.000000000000D+00  6 -1 2 25 24 3 -3 4 0.10427674D-01 0.13776696D+00 0.32076364D+05 0.32076364D+05 0.32076364D+05 0.12118598D+01  1  2  5  8  6  5       21 -.146450120103D-02 0.100000000000D+01
-.343047498175D-05 0.000000000000D+00 0.000000000000D+00 0.200393056167D-04 0.000000000000D+00  6 -1 2 25 24 4 -4 4 0.10427674D-01 0.13776696D+00 0.32076364D+05 0.32076364D+05 0.32076364D+05 0.12118598D+01  1  2  5  8  6  5       21 -.146450120103D-02 0.100000000000D+01
  </mgrwgt>
  </event>
  <event>
  6     66 0.43135346E-03 0.21069382E+02 0.75467711E-02 0.12036343E+00
       21 -1    0    0  503  501 0.00000000E+00 0.00000000E+00 0.78591700E+02 0.78595278E+02 0.75000000E+00 0.0000E+00 0.9000E+01
        2 -1    0    0  502    0 0.00000000E+00 0.00000000E+00 -.47627828E+03 0.47627839E+03 0.32000000E+00 0.0000E+00 0.9000E+01
       25  1    1    2    0    0 -.39283376E+01 -.63852868E+02 -.29700854E+03 0.32852959E+03 0.12500000E+03 0.0000E+00 0.9000E+01
       24  1    1    2    0    0 -.22062548E+02 0.86387447E+02 -.86182304E+02 0.14779767E+03 0.80419002E+02 0.0000E+00 0.9000E+01
        1  1    1    2  503    0 0.19514945E+02 -.16444832E+02 0.26381931E+02 0.36706597E+02 0.32000000E+00 0.0000E+00 0.9000E+01
       21  1    1    2  502  501 0.64759403E+01 -.60897469E+01 -.40877672E+02 0.41839806E+02 0.75000000E+00 0.0000E+00 0.9000E+01
#aMCatNLO 2  0  0  1  5 0.36086095D+00 0.00000000D+00  -5  6  0 0.00000000D+00 0.00000000D+00 0.00000000D+00 0.00000000D+00 0.00000000D+00
  <mgrwgt>
 0.4445659773D+00    1    2    0
 0.148333866548132D+03 0.000000000000000D+00 0.000000000000000D+00 0.148333866548132D+03
 0.148333866548132D+03 0.000000000000000D+00 0.000000000000000D+00 -.148333866548132D+03
 0.152538728625781D+03 0.595723154962700D+01 -.721828427043113D+02 -.489613351754071D+02
 0.128720124486386D+03 -.134265257822672D+02 0.791103795690248D+02 0.605221508481253D+02
 0.000000000000000D+00 0.000000000000000D+00 -.000000000000000D+00 0.000000000000000D+00
 0.154088799840963D+02 0.746929423264015D+01 -.692753686471352D+01 -.115608156727182D+02
 0.248699214021886D+03 0.000000000000000D+00 0.000000000000000D+00 0.248699214021886D+03
 0.150512812492140D+03 0.000000000000000D+00 0.000000000000000D+00 -.150512812492140D+03
 0.148708967336184D+03 -.393261512303747D+01 -.638488775338281D+02 -.489613351754071D+02
 0.134463931196934D+03 -.220667576986854D+02 0.863913207443167D+02 0.605221508481253D+02
 0.101448681801517D+03 0.195149449964182D+02 -.164448324920519D+02 0.981864015297460D+02
 0.145904461793924D+02 0.648442782530466D+01 -.609761071843672D+01 -.115608156727182D+02
0.407825974811D-04 0.000000000000D+00 0.000000000000D+00 0.167552015123D-03 0.183126349810D-06  6 21 2 25 24 1 21 4 0.12091294D-01 0.73273744D-01 0.21743285D+05 0.21743285D+05 0.21743285D+05 0.12298502D+01  1  2  1  4  5  1       -1 0.444565977303D+00 0.100000000000D+01
  </mgrwgt>
  </event>
  <event>
  5     66 0.43135346E-03 0.35236120E+02 0.75467711E-02 0.10111114E+00
       -1 -1    0    0    0  501 0.00000000E+00 0.00000000E+00 0.12131765E+03 0.12131807E+03 0.32000000E+00 0.0000E+00 0.9000E+01
        2 -1    0    0  502    0 0.00000000E+00 0.00000000E+00 -.10244674E+04 0.10244675E+04 0.32000000E+00 0.0000E+00 0.9000E+01
       25  1    1    2    0    0 0.96374151E+02 -.10158860E+03 -.16348570E+03 0.24891926E+03 0.12500000E+03 0.0000E+00 0.9000E+01
       24  1    1    2    0    0 -.66341150E+02 0.12001674E+03 -.26346958E+01 0.15899473E+03 0.80419002E+02 0.0000E+00 0.9000E+01
       21  1    1    2  502  501 -.30033001E+02 -.18428135E+02 -.73702936E+03 0.73787154E+03 0.75000000E+00 0.0000E+00 0.9000E+01
#aMCatNLO 1  0  0  2  2 0.51271884D+02 0.00000000D+00  -5  6  0 0.00000000D+00 0.00000000D+00 0.00000000D+00 0.00000000D+00 0.00000000D+00
  <mgrwgt>
 0.6485469773D+00    5    4    0
 0.352542546573289D+03 0.000000000000000D+00 0.000000000000000D+00 0.352542546573289D+03
 0.352542546573289D+03 0.000000000000000D+00 0.000000000000000D+00 -.352542546573289D+03
 0.195091446353118D+03 0.963741866159104D+02 -.101588580740278D+03 0.531737609864990D+02
 0.254996953136564D+03 -.663411027961476D+02 0.120016766538495D+03 0.199376688667447D+03
 0.254996693656895D+03 -.300330838197627D+02 -.184281857982161D+02 -.252550449653946D+03
 0.000000000000000D+00 -.000000000000000D+00 0.000000000000000D+00 -.000000000000000D+00
 0.545462006746540D+03 0.000000000000000D+00 0.000000000000000D+00 0.545462006746540D+03
 0.805859050148964D+03 0.000000000000000D+00 0.000000000000000D+00 -.805859050148964D+03
 0.305088732126752D+03 0.237505494206232D+03 -.134973426403544D+03 0.531737609864990D+02
 0.243441646853726D+03 0.742987993765254D+02 0.867481636445085D+02 0.199376688667447D+03
 0.285988907041565D+03 0.122611919918990D+03 -.545366154450216D+02 -.252550449653946D+03
 0.516801770873461D+03 -.434416213501747D+03 0.102761878204057D+03 -.260397043402424D+03
 0.352542546573289D+03 0.000000000000000D+00 0.000000000000000D+00 0.352542546573289D+03
 0.352542546573289D+03 0.000000000000000D+00 0.000000000000000D+00 -.352542546573289D+03
 0.195091446353118D+03 0.963741866159104D+02 -.101588580740278D+03 0.531737609864990D+02
 0.254996953136564D+03 -.663411027961476D+02 0.120016766538495D+03 0.199376688667447D+03
 0.000000000000000D+00 -.000000000000000D+00 0.000000000000000D+00 -.000000000000000D+00
 0.254996693656895D+03 -.300330838197627D+02 -.184281857982161D+02 -.252550449653946D+03
 0.545462006746540D+03 0.000000000000000D+00 0.000000000000000D+00 0.545462006746540D+03
 0.805859050148964D+03 0.000000000000000D+00 0.000000000000000D+00 -.805859050148964D+03
 0.305088732126752D+03 0.237505494206232D+03 -.134973426403544D+03 0.531737609864990D+02
 0.243441646853726D+03 0.742987993765254D+02 0.867481636445085D+02 0.199376688667447D+03
 0.516801770873461D+03 -.434416213501747D+03 0.102761878204057D+03 -.260397043402424D+03
 0.285988907041565D+03 0.122611919918990D+03 -.545366154450216D+02 -.252550449653946D+03
0.466390680511D-02 0.000000000000D+00 0.000000000000D+00 0.234824909714D-04 0.000000000000D+00  6 -1 2 25 24 21 21 2 0.18664290D-01 0.15761041D+00 0.36464608D+05 0.36464608D+05 0.36464608D+05 0.12061029D+01  1  2  2  2  6  2        2 0.447451269377D+00 0.100000000000D+01
0.100949829645D-02 0.246121123902D-03 -.179106301665D-04 0.234824909714D-04 0.000000000000D+00  6 -1 2 25 24 21 21 4 0.18664290D-01 0.15761041D+00 0.36464608D+05 0.36464608D+05 0.36464608D+05 0.12061029D+01  1  2  3  2  6  2        2 0.140886764446D+00 0.100000000000D+01
0.198630129538D-03 0.000000000000D+00 0.000000000000D+00 0.234824909714D-04 0.000000000000D+00  6 -1 2 25 24 21 21 4 0.18664290D-01 0.15761041D+00 0.36464608D+05 0.36464608D+05 0.36464608D+05 0.12061029D+01  1  2 15  2  6  2        2 0.277210534884D-01 0.100000000000D+01
0.204434058233D-02 0.000000000000D+00 -.242153107199D-02 0.234824909714D-04 0.000000000000D+00  6 -1 2 25 24 21 21 4 0.18664290D-01 0.43103733D+00 0.36464608D+05 0.36464608D+05 0.36464608D+05 0.12061029D+01  1  2  5  2  6  2        2 0.316021352626D-01 0.100000000000D+01
0.368988056850D-03 0.000000000000D+00 -.272390904742D-03 0.234824909714D-04 0.000000000000D+00  6 -1 21 25 24 -2 21 4 0.18664290D-01 0.43103733D+00 0.36464608D+05 0.36464608D+05 0.36464608D+05 0.12061029D+01  3  4  5  5  5  2        2 0.885754680974D-03 0.100000000000D+01
  </mgrwgt>
  </event>
  <event>
  5     66 0.43135346E-03 0.99699434E+02 0.75467711E-02 0.92047186E-01
       -1 -1    0    0    0  501 0.00000000E+00 0.00000000E+00 0.60494161E+03 0.60494169E+03 0.32000000E+00 0.0000E+00 0.9000E+01
        2 -1    0    0  502    0 0.00000000E+00 0.00000000E+00 -.23692492E+04 0.23692492E+04 0.32000000E+00 0.0000E+00 0.9000E+01
       25  1    1    2    0    0 -.56476320E+03 0.63242372E+03 -.40925870E+03 0.94975519E+03 0.12500000E+03 0.0000E+00 0.9000E+01
       24  1    1    2    0    0 0.54294578E+03 -.72970662E+03 -.29478333E+03 0.95949273E+03 0.80419002E+02 0.0000E+00 0.9000E+01
       21  1    1    2  502  501 0.21817419E+02 0.97282900E+02 -.10602655E+04 0.10649430E+04 0.75000000E+00 0.0000E+00 0.9000E+01
#aMCatNLO 1  0  0  1  5 0.36086095D+00 0.00000000D+00  -5  6  0 0.00000000D+00 0.00000000D+00 0.00000000D+00 0.00000000D+00 0.00000000D+00
  <mgrwgt>
 0.2654546671D+00    4    2    0
 0.119718735581479D+04 0.000000000000000D+00 0.000000000000000D+00 0.119718735581479D+04
 0.119718735581479D+04 0.000000000000000D+00 0.000000000000000D+00 -.119718735581479D+04
 0.878181284154965D+03 -.564763208828823D+03 0.632423685610177D+03 0.191468450854635D+03
 0.974628698134698D+03 0.542945773494634D+03 -.729706657304956D+03 0.340840086554539D+03
 0.541564729339922D+03 0.218174353341896D+02 0.972829716947789D+02 -.532308537409174D+03
 0.000000000000000D+00 -.000000000000000D+00 -.000000000000000D+00 -.000000000000000D+00
 0.129751085926430D+04 0.000000000000000D+00 0.000000000000000D+00 0.129751085926430D+04
 0.140351608739248D+04 0.000000000000000D+00 0.000000000000000D+00 -.140351608739248D+04
 0.915214046187239D+03 -.515413831998145D+03 0.720888454929563D+03 0.191468450854635D+03
 0.938623573663179D+03 0.595593288370837D+03 -.635329573785901D+03 0.340840086554539D+03
 0.555864314811715D+03 0.520157070306124D+02 0.151417052225001D+03 -.532308537409174D+03
 0.291325011994650D+03 -.132195163403304D+03 -.236975933368662D+03 -.106005228128183D+03
0.349018310750D+00 0.000000000000D+00 0.000000000000D+00 0.141693366520D-05 0.000000000000D+00  6 -1 2 25 24 21 21 2 0.93067948D-01 0.36449988D+00 0.87407681D+06 0.87407681D+06 0.87407681D+06 0.10858621D+01  1  2  2  1  6  1       -1 0.222230380956D+00 0.100000000000D+01
0.992356222490D-01 0.184182022698D-01 -.134032221191D-02 0.141693366520D-05 0.000000000000D+00  6 -1 2 25 24 21 21 4 0.93067948D-01 0.36449988D+00 0.87407681D+06 0.87407681D+06 0.87407681D+06 0.10858621D+01  1  2  3  1  6  1       -1 0.745027237469D-01 0.100000000000D+01
0.725308999075D-02 0.000000000000D+00 0.000000000000D+00 0.141693366520D-05 0.000000000000D+00  6 -1 2 25 24 21 21 4 0.93067948D-01 0.36449988D+00 0.87407681D+06 0.87407681D+06 0.87407681D+06 0.10858621D+01  1  2 15  1  6  1       -1 0.544537281719D-02 0.100000000000D+01
-.489151267257D-01 0.000000000000D+00 0.000000000000D+00 0.141693366520D-05 0.000000000000D+00  6 -1 2 25 24 21 21 4 0.93067948D-01 0.36449988D+00 0.87407681D+06 0.87407681D+06 0.87407681D+06 0.10858621D+01  1  2  4  1  6  1       -1 -.367238103706D-01 0.100000000000D+01
  </mgrwgt>
  </event>
  <event>
  5     66 0.43135346E-03 0.28920701E+02 0.75467711E-02 0.11788180E+00
       -1 -1    0    0    0  501 0.00000000E+00 0.00000000E+00 0.98212873E+02 0.98213395E+02 0.32000000E+00 0.0000E+00 0.9000E+01
        2 -1    0    0  502    0 -.00000000E+00 -.00000000E+00 -.46948186E+03 0.46948197E+03 0.32000000E+00 0.0000E+00 0.9000E+01
       25  1    1    2    0    0 -.59260995E+02 0.11164062E+03 -.27255844E+03 0.32540528E+03 0.12500000E+03 0.0000E+00 0.9000E+01
       24  1    1    2    0    0 0.35748316E+02 -.94802336E+02 -.14081117E+03 0.19120781E+03 0.80419002E+02 0.0000E+00 0.9000E+01
       21  1    1    2  502  501 0.23512679E+02 -.16838286E+02 0.42100621E+02 0.51082274E+02 0.75000000E+00 0.0000E+00 0.9000E+01
#aMCatNLO 1  0  0  5  2 0.58156927D+01 0.00000000D+00  -5  6  0 0.00000000D+00 0.00000000D+00 0.00000000D+00 0.00000000D+00 0.00000000D+00
  <mgrwgt>
 0.1171388132D+00   14    2    0
 0.214730857190950D+03 0.000000000000000D+00 0.000000000000000D+00 0.214730857190950D+03
 0.214730857190950D+03 -.000000000000000D+00 -.000000000000000D+00 -.214730857190950D+03
 0.194519932366683D+03 -.592612724986448D+02 0.111640819942441D+03 -.789774207755595D+02
 0.131022056786444D+03 0.357481292556108D+02 -.948022019327193D+02 -.208369185248592D+02
 0.103919725228774D+03 0.235131432430340D+02 -.168386180097213D+02 0.998143393004188D+02
 0.000000000000000D+00 0.000000000000000D+00 0.000000000000000D+00 -.000000000000000D+00
 0.214730857190950D+03 0.000000000000000D+00 0.000000000000000D+00 0.214730857190950D+03
 0.214730857190950D+03 -.000000000000000D+00 -.000000000000000D+00 -.214730857190950D+03
 0.192951413015126D+03 -.586121463763748D+02 0.111175957091053D+03 -.762218515032028D+02
 0.131087307254514D+03 0.361872379461462D+02 -.951166636543296D+02 -.189728825950887D+02
 0.995985847166629D+02 0.232404539119523D+02 -.103971193940864D+02 0.962894557458594D+02
 0.582440939559787D+01 -.815545481723619D+00 -.566217404263724D+01 -.109472164756800D+01
0.280339665516D-03 0.000000000000D+00 0.000000000000D+00 0.266385598703D-04 0.000000000000D+00  6 -1 2 25 24 21 21 2 0.15109721D-01 0.72228026D-01 0.28230847D+05 0.28230847D+05 0.28230847D+05 0.12176787D+01  1  2  2  3  6  5       21 0.990590633343D-01 0.100000000000D+01
0.426162626315D-04 0.147939305896D-04 -.107657813071D-05 0.266385598703D-04 0.000000000000D+00  6 -1 2 25 24 21 21 4 0.15109721D-01 0.72228026D-01 0.28230847D+05 0.28230847D+05 0.28230847D+05 0.12176787D+01  1  2  3  3  6  5       21 0.223280317406D-01 0.100000000000D+01
0.125109524246D-04 0.000000000000D+00 0.000000000000D+00 0.266385598703D-04 0.000000000000D+00  6 -1 2 25 24 21 21 4 0.15109721D-01 0.72228026D-01 0.28230847D+05 0.28230847D+05 0.28230847D+05 0.12176787D+01  1  2 15  3  6  5       21 0.655489068238D-02 0.100000000000D+01
0.117350040012D-03 0.000000000000D+00 0.000000000000D+00 0.266134975507D-04 0.000000000000D+00  6 -1 2 25 24 21 21 4 0.15109721D-01 0.72228026D-01 0.28585678D+05 0.28585678D+05 0.28585678D+05 0.12171057D+01  1  2 12  3  6  5       21 0.613781939976D-01 0.100000000000D+01
-.366658634895D-03 0.000000000000D+00 0.000000000000D+00 0.266385598703D-04 0.000000000000D+00  6 -1 2 25 24 21 21 4 0.15109721D-01 0.72228026D-01 0.28230847D+05 0.28230847D+05 0.28230847D+05 0.12176787D+01  1  2  4  3  6  5       21 -.192104260965D+00 0.100000000000D+01
0.216564045907D-03 0.000000000000D+00 0.000000000000D+00 0.266385598703D-04 0.419997038514D-05  6 -1 2 25 24 21 21 4 0.15109721D-01 0.72228026D-01 0.28585678D+05 0.28585678D+05 0.28585678D+05 0.12171057D+01  1  2 11  3  6  5       21 0.113270604946D+00 0.100000000000D+01
0.263930709931D-05 0.000000000000D+00 0.000000000000D+00 0.266134975507D-04 0.000000000000D+00  6 -1 2 25 24 1 -1 4 0.15109721D-01 0.72228026D-01 0.28585678D+05 0.28585678D+05 0.28585678D+05 0.12171057D+01  1  2 12  6  6  5       21 0.138045034449D-02 0.100000000000D+01
0.499992926485D-06 0.000000000000D+00 0.000000000000D+00 0.266134975507D-04 0.935300218036D-08  6 -1 2 25 24 1 -1 4 0.15109721D-01 0.72228026D-01 0.28585678D+05 0.28585678D+05 0.28585678D+05 0.12171057D+01  1  2 11  6  6  5       21 0.261513867707D-03 0.100000000000D+01
0.263930709931D-05 0.000000000000D+00 0.000000000000D+00 0.266134975507D-04 0.000000000000D+00  6 -1 2 25 24 2 -2 4 0.15109721D-01 0.72228026D-01 0.28585678D+05 0.28585678D+05 0.28585678D+05 0.12171057D+01  1  2 12  7  6  5       21 0.138045034449D-02 0.100000000000D+01
0.553160905863D-06 0.000000000000D+00 0.000000000000D+00 0.266134975507D-04 0.805891509515D-08  6 -1 2 25 24 2 -2 4 0.15109721D-01 0.72228026D-01 0.28585678D+05 0.28585678D+05 0.28585678D+05 0.12171057D+01  1  2 11  7  6  5       21 0.289322588968D-03 0.100000000000D+01
0.263930709931D-05 0.000000000000D+00 0.000000000000D+00 0.266134975507D-04 0.000000000000D+00  6 -1 2 25 24 3 -3 4 0.15109721D-01 0.72228026D-01 0.28585678D+05 0.28585678D+05 0.28585678D+05 0.12171057D+01  1  2 12  8  6  5       21 0.138045034449D-02 0.100000000000D+01
0.263930709931D-05 0.000000000000D+00 0.000000000000D+00 0.266134975507D-04 0.000000000000D+00  6 -1 2 25 24 4 -4 4 0.15109721D-01 0.72228026D-01 0.28585678D+05 0.28585678D+05 0.28585678D+05 0.12171057D+01  1  2 12  8  6  5       21 0.138045034449D-02 0.100000000000D+01
0.554123060468D-06 0.000000000000D+00 0.000000000000D+00 0.266134975507D-04 0.805761131772D-08  6 -1 2 25 24 3 -3 4 0.15109721D-01 0.72228026D-01 0.28585678D+05 0.28585678D+05 0.28585678D+05 0.12171057D+01  1  2 11  8  6  5       21 0.289825829632D-03 0.100000000000D+01
0.554123060468D-06 0.000000000000D+00 0.000000000000D+00 0.266134975507D-04 0.805761131772D-08  6 -1 2 25 24 4 -4 4 0.15109721D-01 0.72228026D-01 0.28585678D+05 0.28585678D+05 0.28585678D+05 0.12171057D+01  1  2 11  8  6  5       21 0.289825829632D-03 0.100000000000D+01
  </mgrwgt>
  </event>
  <event>
  5     66 0.43135346E-03 0.21168026E+02 0.75467711E-02 0.12131332E+00
       -1 -1    0    0    0  501 0.00000000E+00 0.00000000E+00 0.13996263E+02 0.13999920E+02 0.32000000E+00 0.0000E+00 0.9000E+01
        2 -1    0    0  502    0 -.00000000E+00 -.00000000E+00 -.20225812E+04 0.20225812E+04 0.32000000E+00 0.0000E+00 0.9000E+01
       25  1    1    2    0    0 0.63036811E+02 -.25101431E+02 -.55777292E+03 0.57562084E+03 0.12500000E+03 0.0000E+00 0.9000E+01
       24  1    1    2    0    0 -.82932301E+02 0.17875988E+02 -.68841251E+03 0.69826665E+03 0.80419002E+02 0.0000E+00 0.9000E+01
       21  1    1    2  502  501 0.19895490E+02 0.72254432E+01 -.76239951E+03 0.76269366E+03 0.75000000E+00 0.0000E+00 0.9000E+01
#aMCatNLO 1  0  0  5  1 0.63580033D+01 0.00000000D+00  -5  6  0 0.00000000D+00 0.00000000D+00 0.00000000D+00 0.00000000D+00 0.00000000D+00
  <mgrwgt>
 0.5510191842D+00   20    2    0
 0.168262675994989D+03 0.000000000000000D+00 0.000000000000000D+00 0.168262675994989D+03
 0.168262675994989D+03 -.000000000000000D+00 -.000000000000000D+00 -.168262675994989D+03
 0.154414634169025D+03 0.630362074418473D+02 -.251016500942127D+02 0.601267241702872D+02
 0.116905923001691D+03 -.829327582232184D+02 0.178758215566651D+02 0.154644614203280D+01
 0.652047948192626D+02 0.198965507813711D+02 0.722582853754756D+01 -.616731703123200D+02
 0.000000000000000D+00 0.000000000000000D+00 0.000000000000000D+00 -.000000000000000D+00
 0.168262675994989D+03 0.000000000000000D+00 0.000000000000000D+00 0.168262675994989D+03
 0.168262675994989D+03 -.000000000000000D+00 -.000000000000000D+00 -.168262675994989D+03
 0.154213152171971D+03 0.632732185252236D+02 -.250155748006206D+02 0.593920629181137D+02
 0.116782635195575D+03 -.827532968111154D+02 0.179409965413754D+02 0.990171119555972D+00
 0.490490275176623D+02 0.137512933755419D+02 0.116420299679120D+02 -.456198659484485D+02
 0.164805371047703D+02 0.572878491034985D+01 -.456745170866676D+01 -.147623680892212D+02
0.119308804640D-03 0.000000000000D+00 0.000000000000D+00 0.510825803090D-04 0.000000000000D+00  6 -1 2 25 24 21 21 2 0.21535545D-02 0.31116662D+00 0.19640789D+05 0.19640789D+05 0.19640789D+05 0.12346935D+01  1  2  2  3  6  5       21 0.915219528724D-01 0.100000000000D+01
0.198024211785D-04 0.629609859641D-05 -.458177224548D-06 0.510825803090D-04 0.000000000000D+00  6 -1 2 25 24 21 21 4 0.21535545D-02 0.31116662D+00 0.19640789D+05 0.19640789D+05 0.19640789D+05 0.12346935D+01  1  2  3  3  6  5       21 0.231573796844D-01 0.100000000000D+01
0.438804803279D-05 0.000000000000D+00 0.000000000000D+00 0.510825803090D-04 0.000000000000D+00  6 -1 2 25 24 21 21 4 0.21535545D-02 0.31116662D+00 0.19640789D+05 0.19640789D+05 0.19640789D+05 0.12346935D+01  1  2 15  3  6  5       21 0.513147829009D-02 0.100000000000D+01
0.449958855816D-03 0.000000000000D+00 0.000000000000D+00 0.509663306480D-04 0.000000000000D+00  6 -1 2 25 24 21 21 4 0.21535545D-02 0.31116662D+00 0.20226571D+05 0.20226571D+05 0.20226571D+05 0.12332878D+01  1  2 12  3  6  5       21 0.523893102606D+00 0.100000000000D+01
0.301543765504D-03 0.000000000000D+00 0.000000000000D+00 0.509663306480D-04 0.000000000000D+00  6 -1 2 25 24 21 21 4 0.21535545D-02 0.31116662D+00 0.20226571D+05 0.20226571D+05 0.20226571D+05 0.12332878D+01  1  2 12  3  6  5       21 0.351091431671D+00 0.100000000000D+01
-.711575489407D-03 0.000000000000D+00 0.000000000000D+00 0.510825803090D-04 0.000000000000D+00  6 -1 2 25 24 21 21 4 0.21535545D-02 0.31116662D+00 0.19640789D+05 0.19640789D+05 0.19640789D+05 0.12346935D+01  1  2  4  3  6  5       21 -.832131769836D+00 0.100000000000D+01
-.940313285338D-03 0.000000000000D+00 0.000000000000D+00 0.510825803090D-04 0.000000000000D+00  6 -1 2 25 24 21 21 4 0.21535545D-02 0.31116662D+00 0.19640789D+05 0.19640789D+05 0.19640789D+05 0.12346935D+01  1  2  5  3  6  5       21 -.109962269636D+01 0.100000000000D+01
0.131969712749D-02 0.000000000000D+00 -.000000000000D+00 0.510825803090D-04 0.000000000000D+00  6 -1 2 25 24 21 21 4 0.21535545D-02 0.31116662D+00 0.19640789D+05 0.19640789D+05 0.19640789D+05 0.12346935D+01  1  2  6  3  6  5       21 0.154328236807D+01 0.100000000000D+01
0.730670379461D-05 0.000000000000D+00 0.000000000000D+00 0.509663306480D-04 0.000000000000D+00  6 -1 2 25 24 1 -1 4 0.21535545D-02 0.31116662D+00 0.20226571D+05 0.20226571D+05 0.20226571D+05 0.12332878D+01  1  2 12  6  6  5       21 0.850729276980D-02 0.100000000000D+01
0.540725799863D-05 0.000000000000D+00 0.000000000000D+00 0.509663306480D-04 0.000000000000D+00  6 -1 2 25 24 1 -1 4 0.21535545D-02 0.31116662D+00 0.20226571D+05 0.20226571D+05 0.20226571D+05 0.12332878D+01  1  2 12  6  6  5       21 0.629574267266D-02 0.100000000000D+01
-.244813764006D-04 0.000000000000D+00 0.000000000000D+00 0.510825803090D-04 0.000000000000D+00  6 -1 2 25 24 1 -1 4 0.21535545D-02 0.31116662D+00 0.19640789D+05 0.19640789D+05 0.19640789D+05 0.12346935D+01  1  2  5  6  6  5       21 -.286290511344D-01 0.100000000000D+01
0.730670379461D-05 0.000000000000D+00 0.000000000000D+00 0.509663306480D-04 0.000000000000D+00  6 -1 2 25 24 2 -2 4 0.21535545D-02 0.31116662D+00 0.20226571D+05 0.20226571D+05 0.20226571D+05 0.12332878D+01  1  2 12  7  6  5       21 0.850729276980D-02 0.100000000000D+01
0.540725799863D-05 0.000000000000D+00 0.000000000000D+00 0.509663306480D-04 0.000000000000D+00  6 -1 2 25 24 2 -2 4 0.21535545D-02 0.31116662D+00 0.20226571D+05 0.20226571D+05 0.20226571D+05 0.12332878D+01  1  2 12  7  6  5       21 0.629574267266D-02 0.100000000000D+01
-.244813764006D-04 0.000000000000D+00 0.000000000000D+00 0.510825803090D-04 0.000000000000D+00  6 -1 2 25 24 2 -2 4 0.21535545D-02 0.31116662D+00 0.19640789D+05 0.19640789D+05 0.19640789D+05 0.12346935D+01  1  2  5  7  6  5       21 -.286290511344D-01 0.100000000000D+01
0.730670379461D-05 0.000000000000D+00 0.000000000000D+00 0.509663306480D-04 0.000000000000D+00  6 -1 2 25 24 3 -3 4 0.21535545D-02 0.31116662D+00 0.20226571D+05 0.20226571D+05 0.20226571D+05 0.12332878D+01  1  2 12  8  6  5       21 0.850729276980D-02 0.100000000000D+01
0.730670379461D-05 0.000000000000D+00 0.000000000000D+00 0.509663306480D-04 0.000000000000D+00  6 -1 2 25 24 4 -4 4 0.21535545D-02 0.31116662D+00 0.20226571D+05 0.20226571D+05 0.20226571D+05 0.12332878D+01  1  2 12  8  6  5       21 0.850729276980D-02 0.100000000000D+01
0.540725799863D-05 0.000000000000D+00 0.000000000000D+00 0.509663306480D-04 0.000000000000D+00  6 -1 2 25 24 3 -3 4 0.21535545D-02 0.31116662D+00 0.20226571D+05 0.20226571D+05 0.20226571D+05 0.12332878D+01  1  2 12  8  6  5       21 0.629574267266D-02 0.100000000000D+01
0.540725799863D-05 0.000000000000D+00 0.000000000000D+00 0.509663306480D-04 0.000000000000D+00  6 -1 2 25 24 4 -4 4 0.21535545D-02 0.31116662D+00 0.20226571D+05 0.20226571D+05 0.20226571D+05 0.12332878D+01  1  2 12  8  6  5       21 0.629574267266D-02 0.100000000000D+01
-.244813764006D-04 0.000000000000D+00 0.000000000000D+00 0.510825803090D-04 0.000000000000D+00  6 -1 2 25 24 3 -3 4 0.21535545D-02 0.31116662D+00 0.19640789D+05 0.19640789D+05 0.19640789D+05 0.12346935D+01  1  2  5  8  6  5       21 -.286290511344D-01 0.100000000000D+01
-.244813764006D-04 0.000000000000D+00 0.000000000000D+00 0.510825803090D-04 0.000000000000D+00  6 -1 2 25 24 4 -4 4 0.21535545D-02 0.31116662D+00 0.19640789D+05 0.19640789D+05 0.19640789D+05 0.12346935D+01  1  2  5  8  6  5       21 -.286290511344D-01 0.100000000000D+01
  </mgrwgt>
  </event>
  <event>
  5     66 0.43135346E-03 0.30137714E+02 0.75467711E-02 0.11747356E+00
       -1 -1    0    0    0  501 0.00000000E+00 0.00000000E+00 0.52527848E+02 0.52528823E+02 0.32000000E+00 0.0000E+00 0.9000E+01
        2 -1    0    0  502    0 -.00000000E+00 -.00000000E+00 -.67850923E+03 0.67850931E+03 0.32000000E+00 0.0000E+00 0.9000E+01
       25  1    1    2    0    0 0.39061444E+02 -.11034537E+03 -.16134807E+03 0.23528727E+03 0.12500000E+03 0.0000E+00 0.9000E+01
       24  1    1    2    0    0 -.10594725E+02 0.10045623E+03 -.27580255E+03 0.30452909E+03 0.80419002E+02 0.0000E+00 0.9000E+01
       21  1    1    2  502  501 -.28466719E+02 0.98891384E+01 -.18883075E+03 0.19122177E+03 0.75000000E+00 0.0000E+00 0.9000E+01
#aMCatNLO 1  0  0  5  1 0.22384905D+02 0.00000000D+00  -5  6  0 0.00000000D+00 0.00000000D+00 0.00000000D+00 0.00000000D+00 0.00000000D+00
  <mgrwgt>
 0.1296639328D+00    9    2    0
 0.188788277513103D+03 0.000000000000000D+00 0.000000000000000D+00 0.188788277513103D+03
 0.188788277513103D+03 -.000000000000000D+00 -.000000000000000D+00 -.188788277513103D+03
 0.188050838223454D+03 0.390626639434713D+02 -.110345794278026D+03 0.776919025853703D+02
 0.132356946831459D+03 -.105938660220523D+02 0.100455933673069D+03 -.291122107156755D+02
 0.571687699712926D+02 -.284687979214190D+02 0.988986060495749D+01 -.485796918696948D+02
 0.000000000000000D+00 0.000000000000000D+00 0.000000000000000D+00 0.000000000000000D+00
 0.188788277513103D+03 0.000000000000000D+00 0.000000000000000D+00 0.188788277513103D+03
 0.188788277513103D+03 -.000000000000000D+00 -.000000000000000D+00 -.188788277513103D+03
 0.182480428566012D+03 0.338908212969401D+02 -.108549132438417D+03 0.688665730839093D+02
 0.135223893340708D+03 -.143287357203317D+02 0.101753401195077D+03 -.354854625690445D+02
 0.325872137334867D+02 -.104479447541192D+02 -.176312717429945D+02 -.253358482402209D+02
 0.272850193859991D+02 -.911414082248922D+01 0.244270029863341D+02 -.804526227464391D+01
0.302495945684D-03 0.000000000000D+00 0.000000000000D+00 0.195769966662D-04 0.000000000000D+00  6 -1 2 25 24 21 21 2 0.80812882D-02 0.10438612D+00 0.27308364D+05 0.27308364D+05 0.27308364D+05 0.12192067D+01  1  2  2  3  6  5       21 0.185351499118D+00 0.100000000000D+01
0.359055466639D-04 0.159631496165D-04 -.116166408044D-05 0.195769966662D-04 0.000000000000D+00  6 -1 2 25 24 21 21 4 0.80812882D-02 0.10438612D+00 0.27308364D+05 0.27308364D+05 0.27308364D+05 0.12192067D+01  1  2  3  3  6  5       21 0.327033886292D-01 0.100000000000D+01
0.107919838021D-04 0.000000000000D+00 0.000000000000D+00 0.195769966662D-04 0.000000000000D+00  6 -1 2 25 24 21 21 4 0.80812882D-02 0.10438612D+00 0.27308364D+05 0.27308364D+05 0.27308364D+05 0.12192067D+01  1  2 15  3  6  5       21 0.982952421433D-02 0.100000000000D+01
0.957571662537D-04 0.000000000000D+00 0.000000000000D+00 0.194420211270D-04 0.000000000000D+00  6 -1 2 25 24 21 21 4 0.80812882D-02 0.10438612D+00 0.29935549D+05 0.29935549D+05 0.29935549D+05 0.12149964D+01  1  2 12  3  6  5       21 0.861573428648D-01 0.100000000000D+01
-.214183060647D-03 0.000000000000D+00 0.000000000000D+00 0.195769966662D-04 0.000000000000D+00  6 -1 2 25 24 21 21 4 0.80812882D-02 0.10438612D+00 0.27308364D+05 0.27308364D+05 0.27308364D+05 0.12192067D+01  1  2  4  3  6  5       21 -.195081610529D+00 0.100000000000D+01
0.297410651026D-05 0.000000000000D+00 0.000000000000D+00 0.194420211270D-04 0.000000000000D+00  6 -1 2 25 24 1 -1 4 0.80812882D-02 0.10438612D+00 0.29935549D+05 0.29935549D+05 0.29935549D+05 0.12149964D+01  1  2 12  6  6  5       21 0.267594713112D-02 0.100000000000D+01
0.297410651026D-05 0.000000000000D+00 0.000000000000D+00 0.194420211270D-04 0.000000000000D+00  6 -1 2 25 24 2 -2 4 0.80812882D-02 0.10438612D+00 0.29935549D+05 0.29935549D+05 0.29935549D+05 0.12149964D+01  1  2 12  7  6  5       21 0.267594713112D-02 0.100000000000D+01
0.297410651026D-05 0.000000000000D+00 0.000000000000D+00 0.194420211270D-04 0.000000000000D+00  6 -1 2 25 24 3 -3 4 0.80812882D-02 0.10438612D+00 0.29935549D+05 0.29935549D+05 0.29935549D+05 0.12149964D+01  1  2 12  8  6  5       21 0.267594713112D-02 0.100000000000D+01
0.297410651026D-05 0.000000000000D+00 0.000000000000D+00 0.194420211270D-04 0.000000000000D+00  6 -1 2 25 24 4 -4 4 0.80812882D-02 0.10438612D+00 0.29935549D+05 0.29935549D+05 0.29935549D+05 0.12149964D+01  1  2 12  8  6  5       21 0.267594713112D-02 0.100000000000D+01
  </mgrwgt>
  </event>
  <event>
  5     66 0.43135346E-03 0.35610152E+02 0.75467711E-02 0.10899568E+00
       -1 -1    0    0    0  501 0.00000000E+00 0.00000000E+00 0.11402824E+02 0.11407313E+02 0.32000000E+00 0.0000E+00 0.9000E+01
        2 -1    0    0  502    0 0.00000000E+00 0.00000000E+00 -.17117113E+04 0.17117113E+04 0.32000000E+00 0.0000E+00 0.9000E+01
       25  1    1    2    0    0 -.23605415E+02 -.35134225E+01 -.85669720E+03 0.86609737E+03 0.12500000E+03 0.0000E+00 0.9000E+01
       24  1    1    2    0    0 0.58750786E+02 -.21946571E+01 -.40914368E+03 0.42109647E+03 0.80419002E+02 0.0000E+00 0.9000E+01
       21  1    1    2  502  501 -.35145372E+02 0.57080796E+01 -.43446757E+03 0.43592478E+03 0.75000000E+00 0.0000E+00 0.9000E+01
#aMCatNLO 1  0  0  1  5 0.47152656D+03 0.00000000D+00  -5  6  0 0.00000000D+00 0.00000000D+00 0.00000000D+00 0.00000000D+00 0.00000000D+00
  <mgrwgt>
 0.4411326311D+00    5    4    0
 0.139721995485222D+03 0.000000000000000D+00 0.000000000000000D+00 0.139721995485222D+03
 0.139721995485222D+03 0.000000000000000D+00 0.000000000000000D+00 -.139721995485222D+03
 0.127892708296117D+03 -.236031244809064D+02 -.351379441055388D+01 -.127314806246074D+02
 0.107102528595175D+03 0.587527042464998D+02 -.219496863835800D+01 0.393323980137212D+02
 0.444487540791516D+02 -.351495797655934D+02 0.570876304891189D+01 -.266009173891139D+02
 0.000000000000000D+00 0.000000000000000D+00 0.000000000000000D+00 0.000000000000000D+00
 0.410987554492381D+03 0.000000000000000D+00 0.000000000000000D+00 0.410987554492381D+03
 0.239999790631678D+03 0.000000000000000D+00 0.000000000000000D+00 -.239999790631678D+03
 0.169156794309328D+03 -.241646555344354D+02 -.110648090290866D+03 -.127314806246074D+02
 0.140697577811166D+03 0.582842723737160D+02 -.915669072750366D+02 0.393323980137212D+02
 0.531608660029193D+02 -.353340972696408D+02 -.294952612868142D+02 -.266009173891139D+02
 0.287972107000647D+03 0.121448043036019D+01 0.231710258852716D+03 0.170987763860702D+03
 0.139721995485222D+03 0.000000000000000D+00 0.000000000000000D+00 0.139721995485222D+03
 0.139721995485222D+03 0.000000000000000D+00 0.000000000000000D+00 -.139721995485222D+03
 0.127892708296117D+03 -.236031244809064D+02 -.351379441055388D+01 -.127314806246074D+02
 0.107102528595175D+03 0.587527042464998D+02 -.219496863835800D+01 0.393323980137212D+02
 0.000000000000000D+00 0.000000000000000D+00 0.000000000000000D+00 0.000000000000000D+00
 0.444487540791516D+02 -.351495797655934D+02 0.570876304891189D+01 -.266009173891139D+02
 0.410987554492381D+03 0.000000000000000D+00 0.000000000000000D+00 0.410987554492381D+03
 0.239999790631678D+03 0.000000000000000D+00 0.000000000000000D+00 -.239999790631678D+03
 0.169156794309328D+03 -.241646555344354D+02 -.110648090290866D+03 -.127314806246074D+02
 0.140697577811166D+03 0.582842723737160D+02 -.915669072750366D+02 0.393323980137212D+02
 0.287972107000647D+03 0.121448043036019D+01 0.231710258852716D+03 0.170987763860702D+03
 0.531608660029193D+02 -.353340972696408D+02 -.294952612868142D+02 -.266009173891139D+02
0.192400752707D-03 0.000000000000D+00 0.000000000000D+00 0.185123364245D-04 0.000000000000D+00  6 -1 2 25 24 21 21 2 0.17546283D-02 0.26334054D+00 0.17224781D+05 0.17224781D+05 0.17224781D+05 0.12410329D+01  1  2  2  1  6  1       -1 0.288363626193D+00 0.100000000000D+01
0.102797634443D-04 0.101532666656D-04 -.738869550675D-06 0.185123364245D-04 0.000000000000D+00  6 -1 2 25 24 21 21 4 0.17546283D-02 0.26334054D+00 0.17224781D+05 0.17224781D+05 0.17224781D+05 0.12410329D+01  1  2  3  1  6  1       -1 0.237292193656D-01 0.100000000000D+01
0.634814752682D-05 0.000000000000D+00 0.000000000000D+00 0.185123364245D-04 0.000000000000D+00  6 -1 2 25 24 21 21 4 0.17546283D-02 0.26334054D+00 0.17224781D+05 0.17224781D+05 0.17224781D+05 0.12410329D+01  1  2 15  1  6  1       -1 0.146537015219D-01 0.100000000000D+01
0.186378779218D-03 0.000000000000D+00 -.153619921190D-03 0.185123364245D-04 0.000000000000D+00  6 -1 2 25 24 21 21 4 0.10152819D-01 0.26334054D+00 0.17224781D+05 0.17224781D+05 0.17224781D+05 0.12410329D+01  1  2  5  1  6  1       -1 0.323814946273D-01 0.100000000000D+01
0.313638608352D-04 0.000000000000D+00 -.330407784764D-04 0.185123364245D-04 0.000000000000D+00  6 21 2 25 24 1 21 4 0.10152819D-01 0.26334054D+00 0.17224781D+05 0.17224781D+05 0.17224781D+05 0.12410329D+01  3  4  5  4  5  1       -1 0.820045894179D-01 0.100000000000D+01
  </mgrwgt>
  </event>
  <event>
  6     66 -.43135346E-03 0.21806167E+02 0.75467711E-02 0.12106291E+00
       -1 -1    0    0    0  501 0.00000000E+00 0.00000000E+00 0.67850499E+01 0.67925917E+01 0.32000000E+00 0.0000E+00 0.9000E+01
        2 -1    0    0  502    0 -.00000000E+00 -.00000000E+00 -.46411187E+04 0.46411187E+04 0.32000000E+00 0.0000E+00 0.9000E+01
       25  1    1    2    0    0 -.22152997E+02 0.65004763E+02 -.12678029E+04 0.12758000E+04 0.12500000E+03 0.0000E+00 0.9000E+01
       24  1    1    2    0    0 0.27920422E+01 -.81681650E+02 -.18218204E+04 0.18254250E+04 0.80419002E+02 0.0000E+00 0.9000E+01
       21  1    1    2  502  503 0.38908768E+01 -.68291896E-01 -.14136709E+04 0.14136764E+04 0.75000000E+00 0.0000E+00 0.9000E+01
       21  1    1    2  503  501 0.15470078E+02 0.16745179E+02 -.13103953E+03 0.13300994E+03 0.75000000E+00 0.0000E+00 0.9000E+01
#aMCatNLO 2  0  0  5  1 0.31175688D+02 0.00000000D+00  -5  6  0 0.00000000D+00 0.00000000D+00 0.00000000D+00 0.00000000D+00 0.00000000D+00
  <mgrwgt>
 -.2201926008D-01    2    2    0
 0.177504294721630D+03 0.000000000000000D+00 0.000000000000000D+00 0.177504294721630D+03
 0.177504294721630D+03 -.000000000000000D+00 -.000000000000000D+00 -.177504294721630D+03
 0.158185621317986D+03 -.314116055371023D+02 0.570297035576910D+02 0.718234971402864D+02
 0.119557510007698D+03 -.423804709291057D+01 -.877371370911608D+02 -.105364119488229D+02
 0.772654581175752D+02 0.356496526300129D+02 0.307074335334698D+02 -.612870851914636D+02
 0.000000000000000D+00 0.000000000000000D+00 0.000000000000000D+00 0.000000000000000D+00
 0.177504294721630D+03 0.000000000000000D+00 0.000000000000000D+00 0.177504294721630D+03
 0.177504294721630D+03 -.000000000000000D+00 -.000000000000000D+00 -.177504294721630D+03
 0.153152479313760D+03 -.220624663062784D+02 0.650827433588133D+02 0.557509283987899D+02
 0.116853446770886D+03 0.286111277904336D+01 -.816221552097392D+02 -.227409296302650D+02
 0.537514874082802D+02 0.325160143296075D+01 -.673385905092243D+00 -.536488214050085D+02
 0.312511759503321D+02 0.159497520942744D+02 0.172127977560182D+02 0.206388226364834D+02
-.426849823856D-03 0.000000000000D+00 0.000000000000D+00 0.100761838324D-04 0.000000000000D+00  6 -1 2 25 24 21 21 4 0.10444348D-02 0.71401885D+00 0.20171251D+05 0.20171251D+05 0.20171251D+05 0.12334186D+01  1  2 13  3  6  5       21 -.264458975518D-01 0.100000000000D+01
0.714481110158D-04 0.000000000000D+00 0.000000000000D+00 0.995598078461D-05 0.140762199183D-04  6 -1 2 25 24 21 21 4 0.10444348D-02 0.71401885D+00 0.20171251D+05 0.20171251D+05 0.20171251D+05 0.12334186D+01  1  2  1  3  6  5       21 0.442663746966D-02 0.100000000000D+01
  </mgrwgt>
  </event>
  <event>
  5     66 -.43135346E-03 0.21262907E+02 0.75467711E-02 0.11247668E+00
       -1 -1    0    0    0  501 0.00000000E+00 0.00000000E+00 0.38801614E+02 0.38802934E+02 0.32000000E+00 0.0000E+00 0.9000E+01
        2 -1    0    0  502    0 0.00000000E+00 0.00000000E+00 -.18214256E+04 0.18214256E+04 0.32000000E+00 0.0000E+00 0.9000E+01
       25  1    1    2    0    0 0.15555439E+03 -.13229685E+03 -.80057837E+03 0.83561376E+03 0.12500000E+03 0.0000E+00 0.9000E+01
       24  1    1    2    0    0 -.13429678E+03 0.13186503E+03 -.98224092E+03 0.10033386E+04 0.80419002E+02 0.0000E+00 0.9000E+01
       21  1    1    2  502  501 -.21257611E+02 0.43181879E+00 0.19533839E+00 0.21276117E+02 0.75000000E+00 0.0000E+00 0.9000E+01
#aMCatNLO 1  0  0  1  5 0.37396241D+02 0.00000000D+00  -5  6  0 0.00000000D+00 0.00000000D+00 0.00000000D+00 0.00000000D+00 0.00000000D+00
  <mgrwgt>
 -.1285068078D+00    1    2    0
 0.265848651855181D+03 0.000000000000000D+00 0.000000000000000D+00 0.265848651855181D+03
 0.265848651855181D+03 0.000000000000000D+00 0.000000000000000D+00 -.265848651855181D+03
 0.239426713896841D+03 0.155554866485446D+03 -.132296863256473D+03 0.612219431991988D+00
 0.217178289223111D+03 -.134296344631372D+03 0.131865025972666D+03 -.726312611716641D+02
 0.750923005904098D+02 -.212585218540739D+02 0.431837283807453D+00 0.720190417396720D+02
 0.000000000000000D+00 0.000000000000000D+00 0.000000000000000D+00 0.000000000000000D+00
 0.360224556295441D+03 0.000000000000000D+00 0.000000000000000D+00 0.360224556295441D+03
 0.331671457645405D+03 0.000000000000000D+00 0.000000000000000D+00 -.331671457645405D+03
 0.250888855552177D+03 0.117738286417779D+03 -.182914020619124D+03 0.612219431991988D+00
 0.217892884642096D+03 -.167852088945378D+03 0.869509595149451D+02 -.726312611716641D+02
 0.808722700271310D+02 -.332876048364996D+02 -.156689837095328D+02 0.720190417396720D+02
 0.142242003719442D+03 0.834014073640988D+02 0.111632044813712D+03 0.285530986500367D+02
-.453812471597D-03 0.000000000000D+00 0.000000000000D+00 0.359647834125D-04 0.000000000000D+00  6 -1 2 25 24 21 21 4 0.59695828D-02 0.28021942D+00 0.54140451D+05 0.54140451D+05 0.54140451D+05 0.11888750D+01  1  2 14  1  6  1       -1 -.128506807775D+00 0.100000000000D+01
  </mgrwgt>
  </event>
  <event>
  5     66 0.43135346E-03 0.38668062E+02 0.75467711E-02 0.11692237E+00
       -1 -1    0    0    0  501 0.00000000E+00 0.00000000E+00 0.16733760E+02 0.16736820E+02 0.32000000E+00 0.0000E+00 0.9000E+01
        2 -1    0    0  502    0 -.00000000E+00 -.00000000E+00 -.20946983E+04 0.20946983E+04 0.32000000E+00 0.0000E+00 0.9000E+01
       25  1    1    2    0    0 0.99347385E+02 -.46941616E+02 -.72766900E+03 0.74645870E+03 0.12500000E+03 0.0000E+00 0.9000E+01
       24  1    1    2    0    0 -.13506082E+03 0.32132020E+02 -.10458087E+04 0.10580439E+04 0.80419002E+02 0.0000E+00 0.9000E+01
       21  1    1    2  502  501 0.35713435E+02 0.14809596E+02 -.30448688E+03 0.30693256E+03 0.75000000E+00 0.0000E+00 0.9000E+01
#aMCatNLO 1  0  0  5  2 0.17126490D+02 0.00000000D+00  -5  6  0 0.00000000D+00 0.00000000D+00 0.00000000D+00 0.00000000D+00 0.00000000D+00
  <mgrwgt>
 0.2121560613D+00   14    2    0
 0.187230967516924D+03 0.000000000000000D+00 0.000000000000000D+00 0.187230967516924D+03
 0.187230967516924D+03 -.000000000000000D+00 -.000000000000000D+00 -.187230967516924D+03
 0.170987654820449D+03 0.993446569360296D+02 -.469427470093734D+02 0.392274870782424D+02
 0.162468850070562D+03 -.135063412917274D+03 0.321309450098069D+02 -.255810115670736D+02
 0.410054301428360D+02 0.357187559812448D+02 0.148118019995665D+02 -.136464755111688D+02
 0.000000000000000D+00 -.000000000000000D+00 0.000000000000000D+00 0.000000000000000D+00
 0.187230967516924D+03 0.000000000000000D+00 0.000000000000000D+00 0.187230967516924D+03
 0.187230967516924D+03 -.000000000000000D+00 -.000000000000000D+00 -.187230967516924D+03
 0.174080658745355D+03 0.106976843984653D+03 -.437778427375890D+02 0.363115833521892D+02
 0.157722377290621D+03 -.127981454816584D+03 0.350676811383474D+02 -.282866984012661D+02
 0.240929231567802D+02 0.226513421948011D+02 -.149461591574856D+00 0.820751510782533D+01
 0.185659758410908D+02 -.164673136286966D+01 0.885962319081644D+01 -.162324000587484D+02
0.253513805112D-03 0.000000000000D+00 0.000000000000D+00 0.117908919203D-04 0.000000000000D+00  6 -1 2 25 24 21 21 2 0.25746619D-02 0.32226152D+00 0.33404415D+05 0.33404415D+05 0.33404415D+05 0.12100292D+01  1  2  2  3  6  5       21 0.132395525824D+00 0.100000000000D+01
0.335612799800D-04 0.133782910435D-04 -.973559763347D-06 0.117908919203D-04 0.000000000000D+00  6 -1 2 25 24 21 21 4 0.25746619D-02 0.32226152D+00 0.33404415D+05 0.33404415D+05 0.33404415D+05 0.12100292D+01  1  2  3  3  6  5       21 0.256626745830D-01 0.100000000000D+01
0.152638892039D-05 0.000000000000D+00 0.000000000000D+00 0.117908919203D-04 0.000000000000D+00  6 -1 2 25 24 21 21 4 0.25746619D-02 0.32226152D+00 0.33404415D+05 0.33404415D+05 0.33404415D+05 0.12100292D+01  1  2 15  3  6  5       21 0.116715519117D-02 0.100000000000D+01
0.852798749219D-04 0.000000000000D+00 0.000000000000D+00 0.118321159701D-04 0.000000000000D+00  6 -1 2 25 24 21 21 4 0.25746619D-02 0.32226152D+00 0.31876482D+05 0.31876482D+05 0.31876482D+05 0.12121427D+01  1  2 12  3  6  5       21 0.656692276554D-01 0.100000000000D+01
0.783566384129D-04 0.000000000000D+00 0.000000000000D+00 0.118321159701D-04 0.000000000000D+00  6 -1 2 25 24 21 21 4 0.25746619D-02 0.32226152D+00 0.31876482D+05 0.31876482D+05 0.31876482D+05 0.12121427D+01  1  2 12  3  6  5       21 0.603380332225D-01 0.100000000000D+01
-.114366876467D-03 0.000000000000D+00 0.000000000000D+00 0.117908919203D-04 0.000000000000D+00  6 -1 2 25 24 21 21 4 0.25746619D-02 0.32226152D+00 0.33404415D+05 0.33404415D+05 0.33404415D+05 0.12100292D+01  1  2  4  3  6  5       21 -.874507746902D-01 0.100000000000D+01
0.242657388735D-05 0.000000000000D+00 0.000000000000D+00 0.118321159701D-04 0.000000000000D+00  6 -1 2 25 24 1 -1 4 0.25746619D-02 0.32226152D+00 0.31876482D+05 0.31876482D+05 0.31876482D+05 0.12121427D+01  1  2 12  6  6  5       21 0.186856785586D-02 0.100000000000D+01
0.224011585614D-05 0.000000000000D+00 0.000000000000D+00 0.118321159701D-04 0.000000000000D+00  6 -1 2 25 24 1 -1 4 0.25746619D-02 0.32226152D+00 0.31876482D+05 0.31876482D+05 0.31876482D+05 0.12121427D+01  1  2 12  6  6  5       21 0.172498702966D-02 0.100000000000D+01
0.242657388735D-05 0.000000000000D+00 0.000000000000D+00 0.118321159701D-04 0.000000000000D+00  6 -1 2 25 24 2 -2 4 0.25746619D-02 0.32226152D+00 0.31876482D+05 0.31876482D+05 0.31876482D+05 0.12121427D+01  1  2 12  7  6  5       21 0.186856785586D-02 0.100000000000D+01
0.224011585614D-05 0.000000000000D+00 0.000000000000D+00 0.118321159701D-04 0.000000000000D+00  6 -1 2 25 24 2 -2 4 0.25746619D-02 0.32226152D+00 0.31876482D+05 0.31876482D+05 0.31876482D+05 0.12121427D+01  1  2 12  7  6  5       21 0.172498702966D-02 0.100000000000D+01
0.242657388735D-05 0.000000000000D+00 0.000000000000D+00 0.118321159701D-04 0.000000000000D+00  6 -1 2 25 24 3 -3 4 0.25746619D-02 0.32226152D+00 0.31876482D+05 0.31876482D+05 0.31876482D+05 0.12121427D+01  1  2 12  8  6  5       21 0.186856785586D-02 0.100000000000D+01
0.242657388735D-05 0.000000000000D+00 0.000000000000D+00 0.118321159701D-04 0.000000000000D+00  6 -1 2 25 24 4 -4 4 0.25746619D-02 0.32226152D+00 0.31876482D+05 0.31876482D+05 0.31876482D+05 0.12121427D+01  1  2 12  8  6  5       21 0.186856785586D-02 0.100000000000D+01
0.224011585614D-05 0.000000000000D+00 0.000000000000D+00 0.118321159701D-04 0.000000000000D+00  6 -1 2 25 24 3 -3 4 0.25746619D-02 0.32226152D+00 0.31876482D+05 0.31876482D+05 0.31876482D+05 0.12121427D+01  1  2 12  8  6  5       21 0.172498702966D-02 0.100000000000D+01
0.224011585614D-05 0.000000000000D+00 0.000000000000D+00 0.118321159701D-04 0.000000000000D+00  6 -1 2 25 24 4 -4 4 0.25746619D-02 0.32226152D+00 0.31876482D+05 0.31876482D+05 0.31876482D+05 0.12121427D+01  1  2 12  8  6  5       21 0.172498702966D-02 0.100000000000D+01
  </mgrwgt>
  </event>
  <event>
  5     66 0.43135346E-03 0.55446943E+02 0.75467711E-02 0.11625632E+00
       -3 -1    0    0    0  501 0.00000000E+00 0.00000000E+00 0.48019867E+03 0.48019893E+03 0.50000000E+00 0.0000E+00 0.9000E+01
        4 -1    0    0  502    0 0.00000000E+00 0.00000000E+00 -.72628880E+02 0.72645417E+02 0.15500000E+01 0.0000E+00 0.9000E+01
       25  1    1    2    0    0 0.20429930E+02 0.98713426E+02 0.14755318E+03 0.21807949E+03 0.12500000E+03 0.0000E+00 0.9000E+01
       24  1    1    2    0    0 0.27286723E+02 -.12694580E+03 0.16566213E+03 0.22532412E+03 0.80419002E+02 0.0000E+00 0.9000E+01
       21  1    1    2  502  501 -.47716652E+02 0.28232369E+02 0.94354478E+02 0.10944074E+03 0.75000000E+00 0.0000E+00 0.9000E+01
#aMCatNLO 1  0  0  5  2 0.24428617D+02 0.00000000D+00  -5  6  0 0.00000000D+00 0.00000000D+00 0.00000000D+00 0.00000000D+00 0.00000000D+00
  <mgrwgt>
 0.5734436090D-01    9    2    0
 0.186764382499019D+03 0.000000000000000D+00 0.000000000000000D+00 0.186764382499019D+03
 0.186764382499019D+03 -.000000000000000D+00 -.000000000000000D+00 -.186764382499019D+03
 0.161769816449413D+03 0.204315980692081D+02 0.987124389381240D+02 -.195672612621763D+02
 0.152734368581465D+03 0.272882977725707D+02 -.126946727413843D+03 -.669772498218350D+00
 0.590245799671600D+02 -.477198958417788D+02 0.282342884757186D+02 0.202370337603946D+02
 0.000000000000000D+00 0.000000000000000D+00 0.000000000000000D+00 -.000000000000000D+00
 0.186764382499019D+03 0.000000000000000D+00 0.000000000000000D+00 0.186764382499019D+03
 0.186764382499019D+03 -.000000000000000D+00 -.000000000000000D+00 -.186764382499019D+03
 0.167252873698538D+03 0.389511701633687D+00 0.110570680415297D+03 -.110678215359426D+02
 0.141897318038867D+03 0.934110480781342D+01 -.116327965269506D+03 0.694126569717792D+01
 0.360105433659011D+02 -.871868117493623D+01 0.335271635794795D+02 0.983224971164187D+01
 0.283680298947324D+02 -.101193533451085D+01 -.277698787252702D+02 -.570569387287722D+01
0.678364632883D-03 0.000000000000D+00 0.000000000000D+00 0.622872936754D-05 0.000000000000D+00  6 -3 4 25 24 21 21 2 0.73878010D-01 0.11174966D-01 0.33996334D+05 0.33996334D+05 0.33996334D+05 0.12092393D+01  1  2  2  3  6  5       21 0.228084391145D-01 0.100000000000D+01
0.296568778389D-04 0.357982851796D-04 -.260509880778D-05 0.622872936754D-05 0.000000000000D+00  6 -3 4 25 24 21 21 4 0.73878010D-01 0.11174966D-01 0.33996334D+05 0.33996334D+05 0.33996334D+05 0.12092393D+01  1  2  3  3  6  5       21 0.145808311030D-02 0.100000000000D+01
0.307398668346D-04 0.000000000000D+00 0.000000000000D+00 0.622872936754D-05 0.000000000000D+00  6 -3 4 25 24 21 21 4 0.73878010D-01 0.11174966D-01 0.33996334D+05 0.33996334D+05 0.33996334D+05 0.12092393D+01  1  2 15  3  6  5       21 0.151132836329D-02 0.100000000000D+01
0.712924221791D-03 0.000000000000D+00 0.000000000000D+00 0.622302300916D-05 0.000000000000D+00  6 -3 4 25 24 21 21 4 0.73878010D-01 0.11174966D-01 0.34418465D+05 0.34418465D+05 0.34418465D+05 0.12086852D+01  1  2 12  3  6  5       21 0.350156967771D-01 0.100000000000D+01
-.142857386873D-03 0.000000000000D+00 0.000000000000D+00 0.622872936754D-05 0.000000000000D+00  6 -3 4 25 24 21 21 4 0.73878010D-01 0.11174966D-01 0.33996334D+05 0.33996334D+05 0.33996334D+05 0.12092393D+01  1  2  4  3  6  5       21 -.702359648622D-02 0.100000000000D+01
0.181938653202D-04 0.000000000000D+00 0.000000000000D+00 0.622302300916D-05 0.000000000000D+00  6 -3 4 25 24 3 -3 4 0.73878010D-01 0.11174966D-01 0.34418465D+05 0.34418465D+05 0.34418465D+05 0.12086852D+01  1  2 12  6  6  5       21 0.893602506106D-03 0.100000000000D+01
0.181938653202D-04 0.000000000000D+00 0.000000000000D+00 0.622302300916D-05 0.000000000000D+00  6 -3 4 25 24 4 -4 4 0.73878010D-01 0.11174966D-01 0.34418465D+05 0.34418465D+05 0.34418465D+05 0.12086852D+01  1  2 12  7  6  5       21 0.893602506106D-03 0.100000000000D+01
0.181938653202D-04 0.000000000000D+00 0.000000000000D+00 0.622302300916D-05 0.000000000000D+00  6 -3 4 25 24 1 -1 4 0.73878010D-01 0.11174966D-01 0.34418465D+05 0.34418465D+05 0.34418465D+05 0.12086852D+01  1  2 12  8  6  5       21 0.893602506106D-03 0.100000000000D+01
0.181938653202D-04 0.000000000000D+00 0.000000000000D+00 0.622302300916D-05 0.000000000000D+00  6 -3 4 25 24 2 -2 4 0.73878010D-01 0.11174966D-01 0.34418465D+05 0.34418465D+05 0.34418465D+05 0.12086852D+01  1  2 12  8  6  5       21 0.893602506106D-03 0.100000000000D+01
  </mgrwgt>
  </event>
  <event>
  5     66 0.43135346E-03 0.39956646E+02 0.75467711E-02 0.11118829E+00
       -1 -1    0    0    0  501 0.00000000E+00 0.00000000E+00 0.49054744E+02 0.49055788E+02 0.32000000E+00 0.0000E+00 0.9000E+01
        2 -1    0    0  502    0 0.00000000E+00 0.00000000E+00 -.66308483E+03 0.66308491E+03 0.32000000E+00 0.0000E+00 0.9000E+01
       25  1    1    2    0    0 0.60031609E+02 -.52548487E+02 -.38620539E+03 0.41369644E+03 0.12500000E+03 0.0000E+00 0.9000E+01
       24  1    1    2    0    0 -.67336316E+02 0.91829245E+02 -.21543721E+03 0.25660709E+03 0.80419002E+02 0.0000E+00 0.9000E+01
       21  1    1    2  502  501 0.73047077E+01 -.39280758E+02 -.12387488E+02 0.41837173E+02 0.75000000E+00 0.0000E+00 0.9000E+01
#aMCatNLO 1  0  0  1  1 0.11223998D+03 0.00000000D+00  -5  6  0 0.00000000D+00 0.00000000D+00 0.00000000D+00 0.00000000D+00 0.00000000D+00
  <mgrwgt>
 0.2659943523D+00    3    2    0
 0.180354804873074D+03 0.000000000000000D+00 0.000000000000000D+00 0.180354804873074D+03
 0.180354804873074D+03 0.000000000000000D+00 0.000000000000000D+00 -.180354804873074D+03
 0.159320276417092D+03 0.600313688829110D+02 -.525471976398274D+02 -.582492682174058D+02
 0.139878961662269D+03 -.673365269954005D+02 0.918303779243231D+02 0.114839794417171D+02
 0.615103716667866D+02 0.730515811248945D+01 -.392831802844958D+02 0.467652887756887D+02
 0.000000000000000D+00 -.000000000000000D+00 -.000000000000000D+00 -.000000000000000D+00
 0.240096034693998D+03 0.000000000000000D+00 0.000000000000000D+00 0.240096034693998D+03
 0.306987330576016D+03 0.000000000000000D+00 0.000000000000000D+00 -.306987330576016D+03
 0.195018893806449D+03 0.128100061661096D+03 -.510369071951969D+02 -.582492682174058D+02
 0.124554088232147D+03 -.165388349922663D+02 0.929574638974829D+02 0.114839794417171D+02
 0.687930446307370D+02 0.323364951964155D+02 -.387277914901587D+02 0.467652887756887D+02
 0.158717338600680D+03 -.143897721865245D+03 -.319276521212725D+01 -.668912958820179D+02
0.333188510086D-03 0.000000000000D+00 0.000000000000D+00 0.124153454145D-04 0.000000000000D+00  6 -1 2 25 24 21 21 2 0.75469699D-02 0.10201314D+00 0.26839214D+05 0.26839214D+05 0.26839214D+05 0.12200060D+01  1  2  2  1  6  1       -1 0.232903004051D+00 0.100000000000D+01
0.218171615038D-04 0.175828407385D-04 -.127953160928D-05 0.124153454145D-04 0.000000000000D+00  6 -1 2 25 24 21 21 4 0.75469699D-02 0.10201314D+00 0.26839214D+05 0.26839214D+05 0.26839214D+05 0.12200060D+01  1  2  3  1  6  1       -1 0.226990293710D-01 0.100000000000D+01
0.998857241471D-05 0.000000000000D+00 0.000000000000D+00 0.124153454145D-04 0.000000000000D+00  6 -1 2 25 24 21 21 4 0.75469699D-02 0.10201314D+00 0.26839214D+05 0.26839214D+05 0.26839214D+05 0.12200060D+01  1  2 15  1  6  1       -1 0.103923188439D-01 0.100000000000D+01
  </mgrwgt>
  </event>
  <event>
  5     66 0.43135346E-03 0.64690910E+02 0.75467711E-02 0.11810734E+00
       -1 -1    0    0    0  501 0.00000000E+00 0.00000000E+00 0.26168274E+02 0.26170231E+02 0.32000000E+00 0.0000E+00 0.9000E+01
        2 -1    0    0  502    0 0.00000000E+00 0.00000000E+00 -.95115264E+03 0.95115269E+03 0.32000000E+00 0.0000E+00 0.9000E+01
       25  1    1    2    0    0 -.64719764E+02 0.59700403E+02 -.40830559E+03 0.43599454E+03 0.12500000E+03 0.0000E+00 0.9000E+01
       24  1    1    2    0    0 0.64469958E+00 -.50818685E+02 -.26843898E+03 0.28479757E+03 0.80419002E+02 0.0000E+00 0.9000E+01
       21  1    1    2  502  501 0.64075064E+02 -.88817172E+01 -.24823980E+03 0.25653081E+03 0.75000000E+00 0.0000E+00 0.9000E+01
#aMCatNLO 1  0  0  1  1 0.20617734D+02 0.00000000D+00  -5  6  0 0.00000000D+00 0.00000000D+00 0.00000000D+00 0.00000000D+00 0.00000000D+00
  <mgrwgt>
 0.9066432329D-01    4    2    0
 0.157768836219044D+03 0.000000000000000D+00 0.000000000000000D+00 0.157768836219044D+03
 0.157768836219044D+03 0.000000000000000D+00 0.000000000000000D+00 -.157768836219044D+03
 0.153488748904456D+03 -.647217254217481D+02 0.597006745007249D+02 0.134433538540575D+02
 0.951940467511911D+02 0.643483095215309D+00 -.508185167965706D+02 0.342853650997981D+01
 0.668548767824414D+02 0.640782423265328D+02 -.888215770415422D+01 -.168718903640373D+02
 0.000000000000000D+00 0.000000000000000D+00 0.000000000000000D+00 -.000000000000000D+00
 0.159259559446039D+03 0.000000000000000D+00 0.000000000000000D+00 0.159259559446039D+03
 0.250173449157076D+03 0.000000000000000D+00 0.000000000000000D+00 -.250173449157076D+03
 0.157711473725636D+03 -.748439522144441D+02 0.588690750631302D+02 0.134433538540575D+02
 0.956270292898639D+02 -.556324192634666D+01 -.513284351320262D+02 0.342853650997981D+01
 0.628720497223877D+02 0.598586908104591D+02 -.922881825025071D+01 -.168718903640373D+02
 0.932224558652279D+02 0.205485033303317D+02 0.168817831914674D+01 -.909138897110363D+02
0.820820952493D-04 0.000000000000D+00 0.000000000000D+00 0.573489668071D-05 0.000000000000D+00  6 -1 2 25 24 21 21 2 0.40260430D-02 0.14633133D+00 0.24448777D+05 0.24448777D+05 0.24448777D+05 0.12243371D+01  1  2  2  1  6  1       -1 0.936585681629D-01 0.100000000000D+01
-.161616233057D-05 0.433159117005D-05 -.315216858469D-06 0.573489668071D-05 0.000000000000D+00  6 -1 2 25 24 21 21 4 0.40260430D-02 0.14633133D+00 0.24448777D+05 0.24448777D+05 0.24448777D+05 0.12243371D+01  1  2  3  1  6  1       -1 -.276430590629D-02 0.100000000000D+01
0.435662795424D-05 0.000000000000D+00 0.000000000000D+00 0.573489668071D-05 0.000000000000D+00  6 -1 2 25 24 21 21 4 0.40260430D-02 0.14633133D+00 0.24448777D+05 0.24448777D+05 0.24448777D+05 0.12243371D+01  1  2 15  1  6  1       -1 0.745163536957D-02 0.100000000000D+01
-.449106267435D-05 0.000000000000D+00 0.000000000000D+00 0.573489668071D-05 0.000000000000D+00  6 -1 2 25 24 21 21 4 0.40260430D-02 0.14633133D+00 0.24448777D+05 0.24448777D+05 0.24448777D+05 0.12243371D+01  1  2  4  1  6  1       -1 -.768157433287D-02 0.100000000000D+01
  </mgrwgt>
  </event>
  <event>
  5     66 0.43135346E-03 0.20974647E+02 0.75467711E-02 0.11603812E+00
       -1 -1    0    0    0  501 0.00000000E+00 0.00000000E+00 0.15345727E+03 0.15345760E+03 0.32000000E+00 0.0000E+00 0.9000E+01
        2 -1    0    0  502    0 0.00000000E+00 0.00000000E+00 -.25132350E+03 0.25132371E+03 0.32000000E+00 0.0000E+00 0.9000E+01
       25  1    1    2    0    0 0.32291854E+02 -.12824227E+03 -.47039157E+02 0.18795352E+03 0.12500000E+03 0.0000E+00 0.9000E+01
       24  1    1    2    0    0 -.48423593E+02 0.14164189E+03 -.74198426E+02 0.18541815E+03 0.80419002E+02 0.0000E+00 0.9000E+01
       21  1    1    2  502  501 0.16131739E+02 -.13399614E+02 0.23371347E+02 0.31409633E+02 0.75000000E+00 0.0000E+00 0.9000E+01
#aMCatNLO 1  0  0  1  5 0.27847597D+01 0.00000000D+00  -5  6  0 0.00000000D+00 0.00000000D+00 0.00000000D+00 0.00000000D+00 0.00000000D+00
  <mgrwgt>
 0.7027441036D+00   11    4    0
 0.196386166591481D+03 0.000000000000000D+00 0.000000000000000D+00 0.196386166591481D+03
 0.196386166591481D+03 0.000000000000000D+00 0.000000000000000D+00 -.196386166591481D+03
 0.181978462237555D+03 0.322904123064086D+02 -.128241074760214D+03 -.164825233889220D+01
 0.172601219360377D+03 -.484249603224288D+02 0.141643021921281D+03 -.302694983291308D+02
 0.381926515850283D+02 0.161345480160203D+02 -.134019471610666D+02 0.319177506680230D+02
 0.000000000000000D+00 -.000000000000000D+00 0.000000000000000D+00 0.000000000000000D+00
 0.214809998221359D+03 0.000000000000000D+00 0.000000000000000D+00 0.214809998221359D+03
 0.196496359734284D+03 0.000000000000000D+00 0.000000000000000D+00 -.196496359734284D+03
 0.182754412812125D+03 0.332629076776164D+02 -.129093135523786D+03 -.164825233889220D+01
 0.171685521858570D+03 -.475069809322846D+02 0.140838725835905D+03 -.302694983291308D+02
 0.383422703747865D+02 0.163386147794880D+02 -.135807421326909D+02 0.319177506680230D+02
 0.185241529101615D+02 -.209454152481979D+01 0.183515182057186D+01 0.183136384870757D+02
 0.196386166591481D+03 0.000000000000000D+00 0.000000000000000D+00 0.196386166591481D+03
 0.196386166591481D+03 0.000000000000000D+00 0.000000000000000D+00 -.196386166591481D+03
 0.181978462237555D+03 0.322904123064086D+02 -.128241074760214D+03 -.164825233889220D+01
 0.172601219360377D+03 -.484249603224288D+02 0.141643021921281D+03 -.302694983291308D+02
 0.000000000000000D+00 -.000000000000000D+00 0.000000000000000D+00 0.000000000000000D+00
 0.381926515850283D+02 0.161345480160203D+02 -.134019471610666D+02 0.319177506680230D+02
 0.214809998221359D+03 0.000000000000000D+00 0.000000000000000D+00 0.214809998221359D+03
 0.196496359734284D+03 0.000000000000000D+00 0.000000000000000D+00 -.196496359734284D+03
 0.182754412812125D+03 0.332629076776164D+02 -.129093135523786D+03 -.164825233889220D+01
 0.171685521858570D+03 -.475069809322846D+02 0.140838725835905D+03 -.302694983291308D+02
 0.185241529101615D+02 -.209454152481979D+01 0.183515182057186D+01 0.183136384870757D+02
 0.383422703747865D+02 0.163386147794880D+02 -.135807421326909D+02 0.319177506680230D+02
0.794981324120D-04 0.000000000000D+00 0.000000000000D+00 0.402489948095D-04 0.000000000000D+00  6 -1 2 25 24 21 21 2 0.23608852D-01 0.38665196D-01 0.34758367D+05 0.34758367D+05 0.34758367D+05 0.12082446D+01  1  2  2  1  6  1       -1 0.264975030970D-01 0.100000000000D+01
0.202079741734D-04 0.419523170486D-05 -.305293760801D-06 0.402489948095D-04 0.000000000000D+00  6 -1 2 25 24 21 21 4 0.23608852D-01 0.38665196D-01 0.34758367D+05 0.34758367D+05 0.34758367D+05 0.12082446D+01  1  2  3  1  6  1       -1 0.983287503527D-02 0.100000000000D+01
0.331522240902D-07 0.000000000000D+00 0.000000000000D+00 0.402489948095D-04 0.000000000000D+00  6 -1 2 25 24 21 21 4 0.23608852D-01 0.38665196D-01 0.34758367D+05 0.34758367D+05 0.34758367D+05 0.12082446D+01  1  2 15  1  6  1       -1 0.161313387390D-04 0.100000000000D+01
0.130819292163D-03 0.000000000000D+00 0.000000000000D+00 0.402027586725D-04 0.000000000000D+00  6 -1 2 25 24 21 21 4 0.26249193D-01 0.38665196D-01 0.35301466D+05 0.35301466D+05 0.35301466D+05 0.12075504D+01  1  2 12  1  6  1       -1 0.533004064006D-01 0.100000000000D+01
-.909149585734D-02 0.000000000000D+00 0.000000000000D+00 0.402489948095D-04 0.000000000000D+00  6 -1 2 25 24 21 21 4 0.23608852D-01 0.38665196D-01 0.34758367D+05 0.34758367D+05 0.34758367D+05 0.12082446D+01  1  2  4  1  6  1       -1 -.442377557899D+01 0.100000000000D+01
-.170052504085D-01 0.000000000000D+00 -.201171538762D-03 0.402489948095D-04 0.000000000000D+00  6 -1 2 25 24 21 21 4 0.25830926D-01 0.38665196D-01 0.34758367D+05 0.34758367D+05 0.34758367D+05 0.12082446D+01  1  2  5  1  6  1       -1 -.713100988675D+01 0.100000000000D+01
0.169555161143D-01 0.000000000000D+00 0.200360420577D-03 0.402489948095D-04 0.000000000000D+00  6 -1 2 25 24 21 21 4 0.23608852D-01 0.38665196D-01 0.34758367D+05 0.34758367D+05 0.34758367D+05 0.12082446D+01  1  2  6  1  6  1       -1 0.825028128404D+01 0.100000000000D+01
0.968533840839D-02 0.000000000000D+00 0.000000000000D+00 0.402489948095D-04 0.136951417924D-04  6 -1 2 25 24 21 21 4 0.25823700D-01 0.38686891D-01 0.35301466D+05 0.35301466D+05 0.35301466D+05 0.12075504D+01  1  2 11  1  6  1       -1 0.405245508881D+01 0.100000000000D+01
0.229077457493D-05 0.000000000000D+00 0.000000000000D+00 0.402027586725D-04 0.000000000000D+00  6 21 2 25 24 1 21 4 0.26249193D-01 0.38665196D-01 0.35301466D+05 0.35301466D+05 0.35301466D+05 0.12075504D+01  3  4 12  4  5  1       -1 0.110251520461D-01 0.100000000000D+01
-.251405226803D-03 0.000000000000D+00 -.297986759349D-05 0.402489948095D-04 0.000000000000D+00  6 21 2 25 24 1 21 4 0.25830926D-01 0.38665196D-01 0.34758367D+05 0.34758367D+05 0.34758367D+05 0.12082446D+01  3  4  5  4  5  1       -1 -.125082459331D+01 0.100000000000D+01
0.222639296950D-03 0.000000000000D+00 0.000000000000D+00 0.402489948095D-04 0.629351582630D-06  6 21 2 25 24 1 21 4 0.25823700D-01 0.38686891D-01 0.35301466D+05 0.35301466D+05 0.35301466D+05 0.12075504D+01  3  4 11  4  5  1       -1 0.110494572192D+01 0.100000000000D+01
  </mgrwgt>
  </event>
  <event>
  5     66 -.43135346E-03 0.33018361E+02 0.75467711E-02 0.12027996E+00
       -1 -1    0    0    0  501 0.00000000E+00 0.00000000E+00 0.14978796E+04 0.14978797E+04 0.32000000E+00 0.0000E+00 0.9000E+01
        2 -1    0    0  502    0 0.00000000E+00 0.00000000E+00 -.11540856E+03 0.11540901E+03 0.32000000E+00 0.0000E+00 0.9000E+01
       25  1    1    2    0    0 -.64942050E+02 -.73696530E+01 0.28338136E+02 0.14387436E+03 0.12500000E+03 0.0000E+00 0.9000E+01
       24  1    1    2    0    0 0.77521267E+02 0.37897887E+02 0.31168520E+01 0.11799461E+03 0.80419002E+02 0.0000E+00 0.9000E+01
       21  1    1    2  502  501 -.12579217E+02 -.30528234E+02 0.13510161E+04 0.13514197E+04 0.75000000E+00 0.0000E+00 0.9000E+01
#aMCatNLO 1  0  0  2  5 0.31906184D+01 0.00000000D+00  -5  6  0 0.00000000D+00 0.00000000D+00 0.00000000D+00 0.00000000D+00 0.00000000D+00
  <mgrwgt>
 -.2181809393D+01   11    4    0
 0.415774606116416D+03 0.000000000000000D+00 0.000000000000000D+00 0.415774606116416D+03
 0.415774606116416D+03 0.000000000000000D+00 0.000000000000000D+00 -.415774606116416D+03
 0.232017968291597D+03 -.649420429614706D+02 -.736963601818605D+01 -.184216061002048D+03
 0.223739677477203D+03 0.775212733670214D+02 0.378979038377637D+02 -.190122140697740D+03
 0.375791566464032D+03 -.125792304055507D+02 -.305282678195776D+02 0.374338201699788D+03
 0.000000000000000D+00 -.000000000000000D+00 0.000000000000000D+00 -.000000000000000D+00
 0.415918113781436D+03 0.000000000000000D+00 0.000000000000000D+00 0.415918113781436D+03
 0.433898448428396D+03 0.000000000000000D+00 0.000000000000000D+00 -.433898448428396D+03
 0.232001003139232D+03 -.647760827181396D+02 -.824423642264727D+01 -.184216061002048D+03
 0.223653913591493D+03 0.776812874048301D+02 0.370546395753231D+02 -.190122140697740D+03
 0.375900416612019D+03 -.123103815176774D+02 -.319450851328899D+02 0.374338201699788D+03
 0.182612288670880D+02 -.594823169013054D+00 0.313468198021408D+01 -.179803346469606D+02
 0.415774606116416D+03 0.000000000000000D+00 0.000000000000000D+00 0.415774606116416D+03
 0.415774606116416D+03 0.000000000000000D+00 0.000000000000000D+00 -.415774606116416D+03
 0.232017968291597D+03 -.649420429614706D+02 -.736963601818605D+01 -.184216061002048D+03
 0.223739677477203D+03 0.775212733670214D+02 0.378979038377637D+02 -.190122140697740D+03
 0.000000000000000D+00 -.000000000000000D+00 0.000000000000000D+00 -.000000000000000D+00
 0.375791566464032D+03 -.125792304055507D+02 -.305282678195776D+02 0.374338201699788D+03
 0.415918113781436D+03 0.000000000000000D+00 0.000000000000000D+00 0.415918113781436D+03
 0.433898448428396D+03 0.000000000000000D+00 0.000000000000000D+00 -.433898448428396D+03
 0.232001003139232D+03 -.647760827181396D+02 -.824423642264727D+01 -.184216061002048D+03
 0.223653913591493D+03 0.776812874048301D+02 0.370546395753231D+02 -.190122140697740D+03
 0.182612288670880D+02 -.594823169013054D+00 0.313468198021408D+01 -.179803346469606D+02
 0.375900416612019D+03 -.123103815176774D+02 -.319450851328899D+02 0.374338201699788D+03
0.542916844435D-02 0.000000000000D+00 0.000000000000D+00 0.100554773259D-03 0.000000000000D+00  6 -1 2 25 24 21 21 2 0.23044306D+00 0.17755200D-01 0.21320052D+05 0.21320052D+05 0.21320052D+05 0.12307818D+01  1  2  2  2  6  2        2 0.329110127468D-01 0.100000000000D+01
0.145078610759D-02 0.286505090091D-03 -.208494363592D-04 0.100554773259D-03 0.000000000000D+00  6 -1 2 25 24 21 21 4 0.23044306D+00 0.17755200D-01 0.21320052D+05 0.21320052D+05 0.21320052D+05 0.12307818D+01  1  2  3  2  6  2        2 0.133221224295D-01 0.100000000000D+01
0.153727861095D-03 0.000000000000D+00 0.000000000000D+00 0.100554773259D-03 0.000000000000D+00  6 -1 2 25 24 21 21 4 0.23044306D+00 0.17755200D-01 0.21320052D+05 0.21320052D+05 0.21320052D+05 0.12307818D+01  1  2 15  2  6  2        2 0.141163564747D-02 0.100000000000D+01
0.165211824412D-01 0.000000000000D+00 0.000000000000D+00 0.100332985250D-03 0.000000000000D+00  6 -1 2 25 24 21 21 4 0.23044306D+00 0.18532491D-01 0.21940175D+05 0.21940175D+05 0.21940175D+05 0.12294237D+01  1  2 12  2  6  2        2 0.143671576671D+00 0.100000000000D+01
-.196575912649D+01 0.000000000000D+00 0.000000000000D+00 0.100554773259D-03 0.000000000000D+00  6 -1 2 25 24 21 21 4 0.23044306D+00 0.17755200D-01 0.21320052D+05 0.21320052D+05 0.21320052D+05 0.12307818D+01  1  2  4  2  6  2        2 -.180509612085D+02 0.100000000000D+01
-.208326503754D+01 0.000000000000D+00 -.320924658061D-01 0.100554773259D-03 0.000000000000D+00  6 -1 2 25 24 21 21 4 0.23044306D+00 0.18532591D-01 0.21320052D+05 0.21320052D+05 0.21320052D+05 0.12307818D+01  1  2  5  2  6  2        2 -.182125977115D+02 0.100000000000D+01
0.208275711534D+01 0.000000000000D+00 0.320630221961D-01 0.100554773259D-03 0.000000000000D+00  6 -1 2 25 24 21 21 4 0.23044306D+00 0.17755200D-01 0.21320052D+05 0.21320052D+05 0.21320052D+05 0.12307818D+01  1  2  6  2  6  2        2 0.191253177406D+02 0.100000000000D+01
0.172079059483D+01 0.000000000000D+00 0.000000000000D+00 0.100554773259D-03 0.376317830491D-04  6 -1 2 25 24 21 21 4 0.23052260D+00 0.18529159D-01 0.21940175D+05 0.21940175D+05 0.21940175D+05 0.12294237D+01  1  2 11  2  6  2        2 0.149501267632D+02 0.100000000000D+01
0.360264964752D-03 0.000000000000D+00 0.000000000000D+00 0.100332985250D-03 0.000000000000D+00  6 -1 21 25 24 -2 21 4 0.23044306D+00 0.18532491D-01 0.21940175D+05 0.21940175D+05 0.21940175D+05 0.12294237D+01  3  4 12  5  5  2        2 0.227253523177D-01 0.100000000000D+01
-.159191310496D-01 0.000000000000D+00 -.242063855071D-03 0.100554773259D-03 0.000000000000D+00  6 -1 21 25 24 -2 21 4 0.23044306D+00 0.18532591D-01 0.21320052D+05 0.21320052D+05 0.21320052D+05 0.12307818D+01  3  4  5  5  5  2        2 -.101001714041D+01 0.100000000000D+01
0.127290516963D-01 0.000000000000D+00 0.000000000000D+00 0.100554773259D-03 0.556366675643D-06  6 -1 21 25 24 -2 21 4 0.23052260D+00 0.18529159D-01 0.21940175D+05 0.21940175D+05 0.21940175D+05 0.12294237D+01  3  4 11  5  5  2        2 0.802280464163D+00 0.100000000000D+01
  </mgrwgt>
  </event>
  <event>
  5     66 0.43135346E-03 0.26808580E+02 0.75467711E-02 0.12014611E+00
       -1 -1    0    0    0  501 0.00000000E+00 0.00000000E+00 0.16401696E+03 0.16401727E+03 0.32000000E+00 0.0000E+00 0.9000E+01
        2 -1    0    0  502    0 -.00000000E+00 -.00000000E+00 -.32512695E+03 0.32512711E+03 0.32000000E+00 0.0000E+00 0.9000E+01
       25  1    1    2    0    0 0.80369457E+01 -.65923558E+02 -.25918440E+03 0.29531689E+03 0.12500000E+03 0.0000E+00 0.9000E+01
       24  1    1    2    0    0 0.13002141E+02 0.82537623E+02 0.28725180E+02 0.11947329E+03 0.80419002E+02 0.0000E+00 0.9000E+01
       21  1    1    2  502  501 -.21039087E+02 -.16614064E+02 0.69349225E+02 0.74354205E+02 0.75000000E+00 0.0000E+00 0.9000E+01
#aMCatNLO 1  0  0  5  2 0.18314663D+02 0.00000000D+00  -5  6  0 0.00000000D+00 0.00000000D+00 0.00000000D+00 0.00000000D+00 0.00000000D+00
  <mgrwgt>
 0.4585735561D+00   15    2    0
 0.230925200210153D+03 0.000000000000000D+00 0.000000000000000D+00 0.230925200210153D+03
 0.230925200210153D+03 -.000000000000000D+00 -.000000000000000D+00 -.230925200210153D+03
 0.222357334106594D+03 0.803721457819458D+01 -.659233459323646D+02 -.171485566955057D+03
 0.136553859982703D+03 0.130023059023204D+02 0.825377529504969D+02 0.720985443744208D+02
 0.102939206331009D+03 -.210395204805150D+02 -.166144070181324D+02 0.993870225806361D+02
 0.000000000000000D+00 0.000000000000000D+00 -.000000000000000D+00 0.000000000000000D+00
 0.230925200210153D+03 0.000000000000000D+00 0.000000000000000D+00 0.230925200210153D+03
 0.230925200210153D+03 -.000000000000000D+00 -.000000000000000D+00 -.230925200210153D+03
 0.219004368239649D+03 0.705626602282023D+01 -.666979775870134D+02 -.166851737191032D+03
 0.137752692901324D+03 0.123926458086809D+02 0.820563189298014D+02 0.749784722486886D+02
 0.796996977810003D+02 -.196665430612444D+02 0.526271269550583D+01 0.770556472004977D+02
 0.253936414983327D+02 0.217631229743195D+00 -.206210540382939D+02 0.148176177418452D+02
0.102274439922D-02 0.000000000000D+00 0.000000000000D+00 0.181147496281D-04 0.000000000000D+00  6 -1 2 25 24 21 21 2 0.25233414D-01 0.50019568D-01 0.20210050D+05 0.20210050D+05 0.20210050D+05 0.12333268D+01  1  2  2  3  6  5       21 0.240111293034D+00 0.100000000000D+01
0.104883532523D-03 0.539717047359D-04 -.392760778780D-05 0.181147496281D-04 0.000000000000D+00  6 -1 2 25 24 21 21 4 0.25233414D-01 0.50019568D-01 0.20210050D+05 0.20210050D+05 0.20210050D+05 0.12333268D+01  1  2  3  3  6  5       21 0.374549431469D-01 0.100000000000D+01
0.519861929726D-04 0.000000000000D+00 0.000000000000D+00 0.181147496281D-04 0.000000000000D+00  6 -1 2 25 24 21 21 4 0.25233414D-01 0.50019568D-01 0.20210050D+05 0.20210050D+05 0.20210050D+05 0.12333268D+01  1  2 15  3  6  5       21 0.185647818620D-01 0.100000000000D+01
0.145976529280D-02 0.000000000000D+00 0.000000000000D+00 0.179802428452D-04 0.000000000000D+00  6 -1 2 25 24 21 21 4 0.25233414D-01 0.50019568D-01 0.22260249D+05 0.22260249D+05 0.22260249D+05 0.12287394D+01  1  2 12  3  6  5       21 0.514153014243D+00 0.100000000000D+01
-.161861959483D-02 0.000000000000D+00 0.000000000000D+00 0.181147496281D-04 0.000000000000D+00  6 -1 2 25 24 21 21 4 0.25233414D-01 0.50019568D-01 0.20210050D+05 0.20210050D+05 0.20210050D+05 0.12333268D+01  1  2  4  3  6  5       21 -.578025009669D+00 0.100000000000D+01
-.233685009357D-02 0.000000000000D+00 0.000000000000D+00 0.181147496281D-04 0.000000000000D+00  6 -1 2 25 24 21 21 4 0.25233414D-01 0.50019568D-01 0.20210050D+05 0.20210050D+05 0.20210050D+05 0.12333268D+01  1  2  5  3  6  5       21 -.834512199312D+00 0.100000000000D+01
0.307988870670D-02 0.000000000000D+00 -.000000000000D+00 0.181147496281D-04 0.000000000000D+00  6 -1 2 25 24 21 21 4 0.25233414D-01 0.50019568D-01 0.20210050D+05 0.20210050D+05 0.20210050D+05 0.12333268D+01  1  2  6  3  6  5       21 0.109985861110D+01 0.100000000000D+01
0.219432225732D-04 0.000000000000D+00 0.000000000000D+00 0.179802428452D-04 0.000000000000D+00  6 -1 2 25 24 1 -1 4 0.25233414D-01 0.50019568D-01 0.22260249D+05 0.22260249D+05 0.22260249D+05 0.12287394D+01  1  2 12  6  6  5       21 0.772875892027D-02 0.100000000000D+01
-.489673646041D-04 0.000000000000D+00 0.000000000000D+00 0.181147496281D-04 0.000000000000D+00  6 -1 2 25 24 1 -1 4 0.25233414D-01 0.50019568D-01 0.20210050D+05 0.20210050D+05 0.20210050D+05 0.12333268D+01  1  2  5  6  6  5       21 -.174867284995D-01 0.100000000000D+01
0.219432225732D-04 0.000000000000D+00 0.000000000000D+00 0.179802428452D-04 0.000000000000D+00  6 -1 2 25 24 2 -2 4 0.25233414D-01 0.50019568D-01 0.22260249D+05 0.22260249D+05 0.22260249D+05 0.12287394D+01  1  2 12  7  6  5       21 0.772875892027D-02 0.100000000000D+01
-.489673646041D-04 0.000000000000D+00 0.000000000000D+00 0.181147496281D-04 0.000000000000D+00  6 -1 2 25 24 2 -2 4 0.25233414D-01 0.50019568D-01 0.20210050D+05 0.20210050D+05 0.20210050D+05 0.12333268D+01  1  2  5  7  6  5       21 -.174867284995D-01 0.100000000000D+01
0.219432225732D-04 0.000000000000D+00 0.000000000000D+00 0.179802428452D-04 0.000000000000D+00  6 -1 2 25 24 3 -3 4 0.25233414D-01 0.50019568D-01 0.22260249D+05 0.22260249D+05 0.22260249D+05 0.12287394D+01  1  2 12  8  6  5       21 0.772875892027D-02 0.100000000000D+01
0.219432225732D-04 0.000000000000D+00 0.000000000000D+00 0.179802428452D-04 0.000000000000D+00  6 -1 2 25 24 4 -4 4 0.25233414D-01 0.50019568D-01 0.22260249D+05 0.22260249D+05 0.22260249D+05 0.12287394D+01  1  2 12  8  6  5       21 0.772875892027D-02 0.100000000000D+01
-.489673646041D-04 0.000000000000D+00 0.000000000000D+00 0.181147496281D-04 0.000000000000D+00  6 -1 2 25 24 3 -3 4 0.25233414D-01 0.50019568D-01 0.20210050D+05 0.20210050D+05 0.20210050D+05 0.12333268D+01  1  2  5  8  6  5       21 -.174867284995D-01 0.100000000000D+01
-.489673646041D-04 0.000000000000D+00 0.000000000000D+00 0.181147496281D-04 0.000000000000D+00  6 -1 2 25 24 4 -4 4 0.25233414D-01 0.50019568D-01 0.20210050D+05 0.20210050D+05 0.20210050D+05 0.12333268D+01  1  2  5  8  6  5       21 -.174867284995D-01 0.100000000000D+01
  </mgrwgt>
  </event>
  <event>
  5     66 0.43135346E-03 0.32282756E+02 0.75467711E-02 0.94264362E-01
       -3 -1    0    0    0  501 0.00000000E+00 0.00000000E+00 0.63796386E+03 0.63796405E+03 0.50000000E+00 0.0000E+00 0.9000E+01
        4 -1    0    0  502    0 0.00000000E+00 0.00000000E+00 -.10871257E+03 0.10872362E+03 0.15500000E+01 0.0000E+00 0.9000E+01
       25  1    1    2    0    0 0.19069459E+02 0.17328954E+03 0.46146950E+03 0.50889292E+03 0.12500000E+03 0.0000E+00 0.9000E+01
       24  1    1    2    0    0 0.11867933E+02 -.16407306E+03 0.84237156E+02 0.20155379E+03 0.80419002E+02 0.0000E+00 0.9000E+01
       21  1    1    2  502  501 -.30937392E+02 -.92164746E+01 -.16455371E+02 0.36240963E+02 0.75000000E+00 0.0000E+00 0.9000E+01
#aMCatNLO 1  0  0  2  5 0.10173077D+03 0.00000000D+00  -5  6  0 0.00000000D+00 0.00000000D+00 0.00000000D+00 0.00000000D+00 0.00000000D+00
  <mgrwgt>
 0.7378449601D-01    5    4    0
 0.263360762812517D+03 0.000000000000000D+00 0.000000000000000D+00 0.263360762812517D+03
 0.263360762812517D+03 0.000000000000000D+00 0.000000000000000D+00 -.263360762812517D+03
 0.257728982042493D+03 0.190703827114634D+02 0.173289810057421D+03 0.142850237725251D+03
 0.201082987060260D+03 0.118686530169501D+02 -.164072845843107D+03 -.831046813555850D+02
 0.679095565222811D+02 -.309390357284135D+02 -.921696421431425D+01 -.597455563696656D+02
 0.000000000000000D+00 -.000000000000000D+00 -.000000000000000D+00 -.000000000000000D+00
 0.921910128175468D+03 0.000000000000000D+00 0.000000000000000D+00 0.921910128175468D+03
 0.934801101465155D+03 0.000000000000000D+00 0.000000000000000D+00 -.934801101465155D+03
 0.737292621956966D+03 0.341710155187091D+03 0.625142695563206D+03 0.142850237725251D+03
 0.177703332496373D+03 0.134691646474988D+03 0.793918966830867D+01 -.831046813555850D+02
 0.880264647515390D+02 0.196238487580295D+02 0.615957104890838D+02 -.597455563696656D+02
 0.853688810435745D+03 -.496025650420108D+03 -.694677595720598D+03 -.128909732896862D+02
 0.263360762812517D+03 0.000000000000000D+00 0.000000000000000D+00 0.263360762812517D+03
 0.263360762812517D+03 0.000000000000000D+00 0.000000000000000D+00 -.263360762812517D+03
 0.257728982042493D+03 0.190703827114634D+02 0.173289810057421D+03 0.142850237725251D+03
 0.201082987060260D+03 0.118686530169501D+02 -.164072845843107D+03 -.831046813555850D+02
 0.000000000000000D+00 -.000000000000000D+00 -.000000000000000D+00 -.000000000000000D+00
 0.679095565222811D+02 -.309390357284135D+02 -.921696421431425D+01 -.597455563696656D+02
 0.921910128175468D+03 0.000000000000000D+00 0.000000000000000D+00 0.921910128175468D+03
 0.934801101465155D+03 0.000000000000000D+00 0.000000000000000D+00 -.934801101465155D+03
 0.737292621956966D+03 0.341710155187091D+03 0.625142695563206D+03 0.142850237725251D+03
 0.177703332496373D+03 0.134691646474988D+03 0.793918966830867D+01 -.831046813555850D+02
 0.853688810435745D+03 -.496025650420108D+03 -.694677595720598D+03 -.128909732896862D+02
 0.880264647515390D+02 0.196238487580295D+02 0.615957104890838D+02 -.597455563696656D+02
0.579921694560D-02 0.000000000000D+00 0.000000000000D+00 0.122975845919D-04 0.000000000000D+00  6 -3 4 25 24 21 21 2 0.98149151D-01 0.16725876D-01 0.46205089D+05 0.46205089D+05 0.46205089D+05 0.11956917D+01  1  2  2  2  6  2        4 0.511563525272D-01 0.100000000000D+01
0.873131121192D-03 0.306033086004D-03 -.222705200400D-04 0.122975845919D-04 0.000000000000D+00  6 -3 4 25 24 21 21 4 0.98149151D-01 0.16725876D-01 0.46205089D+05 0.46205089D+05 0.46205089D+05 0.11956917D+01  1  2  3  2  6  2        4 0.110115416974D-01 0.100000000000D+01
0.267382606386D-04 0.000000000000D+00 0.000000000000D+00 0.122975845919D-04 0.000000000000D+00  6 -3 4 25 24 21 21 4 0.98149151D-01 0.16725876D-01 0.46205089D+05 0.46205089D+05 0.46205089D+05 0.11956917D+01  1  2 15  2  6  2        4 0.337211061193D-03 0.100000000000D+01
0.288986070517D-01 0.000000000000D+00 -.910192289661D-02 0.122975845919D-04 0.000000000000D+00  6 -3 4 25 24 21 21 4 0.98149151D-01 0.19179415D+00 0.46205089D+05 0.46205089D+05 0.46205089D+05 0.11956917D+01  1  2  5  2  6  2        4 0.189470910142D-02 0.100000000000D+01
0.659680621058D-02 0.000000000000D+00 -.259977922021D-02 0.122975845919D-04 0.000000000000D+00  6 -3 21 25 24 -4 21 4 0.98149151D-01 0.19179415D+00 0.46205089D+05 0.46205089D+05 0.46205089D+05 0.11956917D+01  3  4  5  5  5  2        4 0.938468162546D-02 0.100000000000D+01
  </mgrwgt>
  </event>
  <event>
  5     66 0.43135346E-03 0.44797843E+02 0.75467711E-02 0.11912244E+00
       -1 -1    0    0    0  501 0.00000000E+00 0.00000000E+00 0.19240405E+02 0.19243066E+02 0.32000000E+00 0.0000E+00 0.9000E+01
        2 -1    0    0  502    0 -.00000000E+00 -.00000000E+00 -.13473873E+04 0.13473874E+04 0.32000000E+00 0.0000E+00 0.9000E+01
       25  1    1    2    0    0 -.43585466E+02 0.85127529E+02 -.79537558E+03 0.81079819E+03 0.12500000E+03 0.0000E+00 0.9000E+01
       24  1    1    2    0    0 -.87251190E+00 -.79659464E+02 -.39986416E+03 0.41557786E+03 0.80419002E+02 0.0000E+00 0.9000E+01
       21  1    1    2  502  501 0.44457978E+02 -.54680654E+01 -.13290717E+03 0.14025438E+03 0.75000000E+00 0.0000E+00 0.9000E+01
#aMCatNLO 1  0  0  5  1 0.82685830D+01 0.00000000D+00  -5  6  0 0.00000000D+00 0.00000000D+00 0.00000000D+00 0.00000000D+00 0.00000000D+00
  <mgrwgt>
 0.1767254852D+00   25    2    0
 0.161015906175755D+03 0.000000000000000D+00 0.000000000000000D+00 0.161015906175755D+03
 0.161015906175755D+03 -.000000000000000D+00 -.000000000000000D+00 -.161015906175755D+03
 0.160500329666060D+03 -.435882798455171D+02 0.851278755124728D+02 -.314430038920530D+02
 0.114469773494950D+03 -.874519005882742D+00 -.796592170765942D+02 0.170222630947568D+02
 0.470617091904996D+02 0.444627988513999D+02 -.546865843587854D+01 0.144207407972962D+02
 0.000000000000000D+00 0.000000000000000D+00 0.000000000000000D+00 0.000000000000000D+00
 0.161015906175755D+03 0.000000000000000D+00 0.000000000000000D+00 0.161015906175755D+03
 0.161015906175755D+03 -.000000000000000D+00 -.000000000000000D+00 -.161015906175755D+03
 0.159905106048975D+03 -.420845713021901D+02 0.849429283516327D+02 -.309553019997257D+02
 0.114611001414262D+03 0.200589840426985D+00 -.797914490371037D+02 0.173709560786000D+02
 0.293969293717885D+02 0.282306411496063D+02 0.461973878377507D+01 0.677261916408733D+01
 0.181187755164841D+02 0.136533403121568D+02 -.977121809830409D+01 0.681172675703834D+01
0.904498326162D-04 0.000000000000D+00 0.000000000000D+00 0.101990139127D-04 0.000000000000D+00  6 -1 2 25 24 21 21 2 0.29602699D-02 0.20729056D+00 0.24866948D+05 0.24866948D+05 0.24866948D+05 0.12235462D+01  1  2  2  3  6  5       21 0.962885670878D-01 0.100000000000D+01
0.519344412626D-05 0.477316880256D-05 -.347351173234D-06 0.101990139127D-04 0.000000000000D+00  6 -1 2 25 24 21 21 4 0.29602699D-02 0.20729056D+00 0.24866948D+05 0.24866948D+05 0.24866948D+05 0.12235462D+01  1  2  3  3  6  5       21 0.827681325629D-02 0.100000000000D+01
0.360957518102D-05 0.000000000000D+00 0.000000000000D+00 0.101990139127D-04 0.000000000000D+00  6 -1 2 25 24 21 21 4 0.29602699D-02 0.20729056D+00 0.24866948D+05 0.24866948D+05 0.24866948D+05 0.12235462D+01  1  2 15  3  6  5       21 0.575259480637D-02 0.100000000000D+01
0.111205888838D-03 0.000000000000D+00 0.000000000000D+00 0.101981386020D-04 0.000000000000D+00  6 -1 2 25 24 21 21 4 0.29602699D-02 0.20729056D+00 0.24894989D+05 0.24894989D+05 0.24894989D+05 0.12234937D+01  1  2 12  3  6  5       21 0.177202242231D+00 0.100000000000D+01
0.113059902862D-03 0.000000000000D+00 0.000000000000D+00 0.101981386020D-04 0.000000000000D+00  6 -1 2 25 24 21 21 4 0.29602699D-02 0.20729056D+00 0.24894989D+05 0.24894989D+05 0.24894989D+05 0.12234937D+01  1  2 12  3  6  5       21 0.180156541194D+00 0.100000000000D+01
-.344520367856D-03 0.000000000000D+00 0.000000000000D+00 0.101990139127D-04 0.000000000000D+00  6 -1 2 25 24 21 21 4 0.29602699D-02 0.20729056D+00 0.24866948D+05 0.24866948D+05 0.24866948D+05 0.12235462D+01  1  2  4  3  6  5       21 -.549063526711D+00 0.100000000000D+01
-.190914844607D-03 0.000000000000D+00 0.000000000000D+00 0.101990139127D-04 0.000000000000D+00  6 -1 2 25 24 21 21 4 0.29602699D-02 0.20729056D+00 0.24866948D+05 0.24866948D+05 0.24866948D+05 0.12235462D+01  1  2  5  3  6  5       21 -.304261772776D+00 0.100000000000D+01
0.366778146018D-03 0.000000000000D+00 -.000000000000D+00 0.101990139127D-04 0.000000000000D+00  6 -1 2 25 24 21 21 4 0.29602699D-02 0.20729056D+00 0.24866948D+05 0.24866948D+05 0.24866948D+05 0.12235462D+01  1  2  6  3  6  5       21 0.584535839278D+00 0.100000000000D+01
0.496273009592D-06 0.000000000000D+00 0.000000000000D+00 0.101990139127D-04 0.759591620704D-06  6 -1 2 25 24 21 21 4 0.29602699D-02 0.20729056D+00 0.24894989D+05 0.24894989D+05 0.24894989D+05 0.12234937D+01  1  2 11  3  6  5       21 0.790791665593D-03 0.100000000000D+01
0.270392275006D-05 0.000000000000D+00 0.000000000000D+00 0.101981386020D-04 0.000000000000D+00  6 -1 2 25 24 1 -1 4 0.29602699D-02 0.20729056D+00 0.24894989D+05 0.24894989D+05 0.24894989D+05 0.12234937D+01  1  2 12  6  6  5       21 0.430859533729D-02 0.100000000000D+01
0.274539410706D-05 0.000000000000D+00 0.000000000000D+00 0.101981386020D-04 0.000000000000D+00  6 -1 2 25 24 1 -1 4 0.29602699D-02 0.20729056D+00 0.24894989D+05 0.24894989D+05 0.24894989D+05 0.12234937D+01  1  2 12  6  6  5       21 0.437467832559D-02 0.100000000000D+01
-.907218247352D-05 0.000000000000D+00 0.000000000000D+00 0.101990139127D-04 0.000000000000D+00  6 -1 2 25 24 1 -1 4 0.29602699D-02 0.20729056D+00 0.24866948D+05 0.24866948D+05 0.24866948D+05 0.12235462D+01  1  2  5  6  6  5       21 -.144583745073D-01 0.100000000000D+01
0.231347545024D-07 0.000000000000D+00 0.000000000000D+00 0.101990139127D-04 0.506722351286D-07  6 -1 2 25 24 1 -1 4 0.29602699D-02 0.20729056D+00 0.24894989D+05 0.24894989D+05 0.24894989D+05 0.12234937D+01  1  2 11  6  6  5       21 0.368643280865D-04 0.100000000000D+01
0.270392275006D-05 0.000000000000D+00 0.000000000000D+00 0.101981386020D-04 0.000000000000D+00  6 -1 2 25 24 2 -2 4 0.29602699D-02 0.20729056D+00 0.24894989D+05 0.24894989D+05 0.24894989D+05 0.12234937D+01  1  2 12  7  6  5       21 0.430859533729D-02 0.100000000000D+01
0.274539410706D-05 0.000000000000D+00 0.000000000000D+00 0.101981386020D-04 0.000000000000D+00  6 -1 2 25 24 2 -2 4 0.29602699D-02 0.20729056D+00 0.24894989D+05 0.24894989D+05 0.24894989D+05 0.12234937D+01  1  2 12  7  6  5       21 0.437467832559D-02 0.100000000000D+01
-.907218247352D-05 0.000000000000D+00 0.000000000000D+00 0.101990139127D-04 0.000000000000D+00  6 -1 2 25 24 2 -2 4 0.29602699D-02 0.20729056D+00 0.24866948D+05 0.24866948D+05 0.24866948D+05 0.12235462D+01  1  2  5  7  6  5       21 -.144583745073D-01 0.100000000000D+01
0.232394106822D-07 0.000000000000D+00 0.000000000000D+00 0.101990139127D-04 0.499668705466D-07  6 -1 2 25 24 2 -2 4 0.29602699D-02 0.20729056D+00 0.24894989D+05 0.24894989D+05 0.24894989D+05 0.12234937D+01  1  2 11  7  6  5       21 0.370310936230D-04 0.100000000000D+01
0.270392275006D-05 0.000000000000D+00 0.000000000000D+00 0.101981386020D-04 0.000000000000D+00  6 -1 2 25 24 3 -3 4 0.29602699D-02 0.20729056D+00 0.24894989D+05 0.24894989D+05 0.24894989D+05 0.12234937D+01  1  2 12  8  6  5       21 0.430859533729D-02 0.100000000000D+01
0.270392275006D-05 0.000000000000D+00 0.000000000000D+00 0.101981386020D-04 0.000000000000D+00  6 -1 2 25 24 4 -4 4 0.29602699D-02 0.20729056D+00 0.24894989D+05 0.24894989D+05 0.24894989D+05 0.12234937D+01  1  2 12  8  6  5       21 0.430859533729D-02 0.100000000000D+01
0.274539410706D-05 0.000000000000D+00 0.000000000000D+00 0.101981386020D-04 0.000000000000D+00  6 -1 2 25 24 3 -3 4 0.29602699D-02 0.20729056D+00 0.24894989D+05 0.24894989D+05 0.24894989D+05 0.12234937D+01  1  2 12  8  6  5       21 0.437467832559D-02 0.100000000000D+01
0.274539410706D-05 0.000000000000D+00 0.000000000000D+00 0.101981386020D-04 0.000000000000D+00  6 -1 2 25 24 4 -4 4 0.29602699D-02 0.20729056D+00 0.24894989D+05 0.24894989D+05 0.24894989D+05 0.12234937D+01  1  2 12  8  6  5       21 0.437467832559D-02 0.100000000000D+01
-.907218247352D-05 0.000000000000D+00 0.000000000000D+00 0.101990139127D-04 0.000000000000D+00  6 -1 2 25 24 3 -3 4 0.29602699D-02 0.20729056D+00 0.24866948D+05 0.24866948D+05 0.24866948D+05 0.12235462D+01  1  2  5  8  6  5       21 -.144583745073D-01 0.100000000000D+01
-.907218247352D-05 0.000000000000D+00 0.000000000000D+00 0.101990139127D-04 0.000000000000D+00  6 -1 2 25 24 4 -4 4 0.29602699D-02 0.20729056D+00 0.24866948D+05 0.24866948D+05 0.24866948D+05 0.12235462D+01  1  2  5  8  6  5       21 -.144583745073D-01 0.100000000000D+01
0.231895048572D-07 0.000000000000D+00 0.000000000000D+00 0.101990139127D-04 0.496620386839D-07  6 -1 2 25 24 3 -3 4 0.29602699D-02 0.20729056D+00 0.24894989D+05 0.24894989D+05 0.24894989D+05 0.12234937D+01  1  2 11  8  6  5       21 0.369515706394D-04 0.100000000000D+01
0.231895048572D-07 0.000000000000D+00 0.000000000000D+00 0.101990139127D-04 0.496620386839D-07  6 -1 2 25 24 4 -4 4 0.29602699D-02 0.20729056D+00 0.24894989D+05 0.24894989D+05 0.24894989D+05 0.12234937D+01  1  2 11  8  6  5       21 0.369515706394D-04 0.100000000000D+01
  </mgrwgt>
  </event>
  <event>
  5     66 0.43135346E-03 0.33639038E+02 0.75467711E-02 0.10093830E+00
       -1 -1    0    0    0  501 0.00000000E+00 0.00000000E+00 0.21820677E+03 0.21820701E+03 0.32000000E+00 0.0000E+00 0.9000E+01
        2 -1    0    0  502    0 -.00000000E+00 -.00000000E+00 -.20097262E+04 0.20097262E+04 0.32000000E+00 0.0000E+00 0.9000E+01
       25  1    1    2    0    0 -.18662608E+03 -.43613591E+03 -.15484846E+04 0.16243378E+04 0.12500000E+03 0.0000E+00 0.9000E+01
       24  1    1    2    0    0 0.21435083E+03 0.45518336E+03 -.25249272E+03 0.56864573E+03 0.80419002E+02 0.0000E+00 0.9000E+01
       21  1    1    2  502  501 -.27724750E+02 -.19047456E+02 0.94578738E+01 0.34949696E+02 0.75000000E+00 0.0000E+00 0.9000E+01
#aMCatNLO 1  0  0  5  2 0.21315173D+01 0.00000000D+00  -5  6  0 0.00000000D+00 0.00000000D+00 0.00000000D+00 0.00000000D+00 0.00000000D+00
  <mgrwgt>
 0.3110231404D+01   25    2    0
 0.662220627031585D+03 0.000000000000000D+00 0.000000000000000D+00 0.662220627031585D+03
 0.662220627031585D+03 -.000000000000000D+00 -.000000000000000D+00 -.662220627031585D+03
 0.637836258708258D+03 -.186625350966551D+03 -.436135405188329D+03 -.407635841948143D+03
 0.615020641560267D+03 0.214351540641473D+03 0.455183850261419D+03 0.344447750866004D+03
 0.715843537946459D+02 -.277261896749226D+02 -.190484450730899D+02 0.631880910821392D+02
 0.000000000000000D+00 0.000000000000000D+00 0.000000000000000D+00 0.000000000000000D+00
 0.662220627031585D+03 0.000000000000000D+00 0.000000000000000D+00 0.662220627031585D+03
 0.662220627031585D+03 -.000000000000000D+00 -.000000000000000D+00 -.662220627031585D+03
 0.637765214692583D+03 -.186727773206287D+03 -.436205771308981D+03 -.407402421276598D+03
 0.615062113846210D+03 0.214252773249387D+03 0.455115995093968D+03 0.344672842125938D+03
 0.466798815324646D+01 -.615584340811553D+00 -.298661328500372D+01 0.353430479784033D+01
 0.669459373711311D+02 -.269094157022884D+02 -.159236104999834D+02 0.591952743528202D+02
0.103366438745D+00 0.000000000000D+00 0.000000000000D+00 0.742532897433D-05 0.000000000000D+00  6 -1 2 25 24 21 21 2 0.33570293D-01 0.30918866D+00 0.26715149D+06 0.26715149D+06 0.26715149D+06 0.11262924D+01  1  2  2  3  6  5       21 0.878617150848D+00 0.100000000000D+01
0.399535840266D-01 0.545479683463D-02 -.396954341788D-03 0.742532897433D-05 0.000000000000D+00  6 -1 2 25 24 21 21 4 0.33570293D-01 0.30918866D+00 0.26715149D+06 0.26715149D+06 0.26715149D+06 0.11262924D+01  1  2  3  3  6  5       21 0.430802476417D+00 0.100000000000D+01
0.125732957525D-02 0.000000000000D+00 0.000000000000D+00 0.742532897433D-05 0.000000000000D+00  6 -1 2 25 24 21 21 4 0.33570293D-01 0.30918866D+00 0.26715149D+06 0.26715149D+06 0.26715149D+06 0.11262924D+01  1  2 15  3  6  5       21 0.135572491902D-01 0.100000000000D+01
0.140227028649D-04 0.000000000000D+00 0.000000000000D+00 0.742470546710D-05 0.000000000000D+00  6 -1 2 25 24 21 21 4 0.33570293D-01 0.30918866D+00 0.26750181D+06 0.26750181D+06 0.26750181D+06 0.11262451D+01  1  2 12  3  6  5       21 0.151166413798D-03 0.100000000000D+01
0.148115167093D-04 0.000000000000D+00 0.000000000000D+00 0.742470546710D-05 0.000000000000D+00  6 -1 2 25 24 21 21 4 0.33570293D-01 0.30918866D+00 0.26750181D+06 0.26750181D+06 0.26750181D+06 0.11262451D+01  1  2 12  3  6  5       21 0.159669921371D-03 0.100000000000D+01
-.583006920263D+00 0.000000000000D+00 0.000000000000D+00 0.742532897433D-05 0.000000000000D+00  6 -1 2 25 24 21 21 4 0.33570293D-01 0.30918866D+00 0.26715149D+06 0.26715149D+06 0.26715149D+06 0.11262924D+01  1  2  4  3  6  5       21 -.628631526148D+01 0.100000000000D+01
-.148502126587D-01 0.000000000000D+00 0.000000000000D+00 0.742532897433D-05 0.000000000000D+00  6 -1 2 25 24 21 21 4 0.33570293D-01 0.30918866D+00 0.26715149D+06 0.26715149D+06 0.26715149D+06 0.11262924D+01  1  2  5  3  6  5       21 -.160123516939D+00 0.100000000000D+01
0.761757215005D+00 0.000000000000D+00 -.000000000000D+00 0.742532897433D-05 0.000000000000D+00  6 -1 2 25 24 21 21 4 0.33570293D-01 0.30918866D+00 0.26715149D+06 0.26715149D+06 0.26715149D+06 0.11262924D+01  1  2  6  3  6  5       21 0.821370354244D+01 0.100000000000D+01
0.110521724232D-01 0.000000000000D+00 0.000000000000D+00 0.742532897433D-05 0.773916474161D-05  6 -1 2 25 24 21 21 4 0.33570293D-01 0.30918866D+00 0.26750181D+06 0.26750181D+06 0.26750181D+06 0.11262451D+01  1  2 11  3  6  5       21 0.119143740403D+00 0.100000000000D+01
0.199120425751D-04 0.000000000000D+00 0.000000000000D+00 0.742470546710D-05 0.000000000000D+00  6 -1 2 25 24 1 -1 4 0.33570293D-01 0.30918866D+00 0.26750181D+06 0.26750181D+06 0.26750181D+06 0.11262451D+01  1  2 12  6  6  5       21 0.214654200155D-03 0.100000000000D+01
0.201607355386D-04 0.000000000000D+00 0.000000000000D+00 0.742470546710D-05 0.000000000000D+00  6 -1 2 25 24 1 -1 4 0.33570293D-01 0.30918866D+00 0.26750181D+06 0.26750181D+06 0.26750181D+06 0.11262451D+01  1  2 12  6  6  5       21 0.217335140041D-03 0.100000000000D+01
-.242632127943D-01 0.000000000000D+00 0.000000000000D+00 0.742532897433D-05 0.000000000000D+00  6 -1 2 25 24 1 -1 4 0.33570293D-01 0.30918866D+00 0.26715149D+06 0.26715149D+06 0.26715149D+06 0.11262924D+01  1  2  5  6  6  5       21 -.261619887484D+00 0.100000000000D+01
0.219590512939D-01 0.000000000000D+00 0.000000000000D+00 0.742532897433D-05 0.107753767995D-06  6 -1 2 25 24 1 -1 4 0.33570293D-01 0.30918866D+00 0.26750181D+06 0.26750181D+06 0.26750181D+06 0.11262451D+01  1  2 11  6  6  5       21 0.236721198936D+00 0.100000000000D+01
0.199120425751D-04 0.000000000000D+00 0.000000000000D+00 0.742470546710D-05 0.000000000000D+00  6 -1 2 25 24 2 -2 4 0.33570293D-01 0.30918866D+00 0.26750181D+06 0.26750181D+06 0.26750181D+06 0.11262451D+01  1  2 12  7  6  5       21 0.214654200155D-03 0.100000000000D+01
0.201607355386D-04 0.000000000000D+00 0.000000000000D+00 0.742470546710D-05 0.000000000000D+00  6 -1 2 25 24 2 -2 4 0.33570293D-01 0.30918866D+00 0.26750181D+06 0.26750181D+06 0.26750181D+06 0.11262451D+01  1  2 12  7  6  5       21 0.217335140041D-03 0.100000000000D+01
-.242632127943D-01 0.000000000000D+00 0.000000000000D+00 0.742532897433D-05 0.000000000000D+00  6 -1 2 25 24 2 -2 4 0.33570293D-01 0.30918866D+00 0.26715149D+06 0.26715149D+06 0.26715149D+06 0.11262924D+01  1  2  5  7  6  5       21 -.261619887484D+00 0.100000000000D+01
0.219028102306D-01 0.000000000000D+00 0.000000000000D+00 0.742532897433D-05 0.107471960292D-06  6 -1 2 25 24 2 -2 4 0.33570293D-01 0.30918866D+00 0.26750181D+06 0.26750181D+06 0.26750181D+06 0.11262451D+01  1  2 11  7  6  5       21 0.236114913548D+00 0.100000000000D+01
0.199120425751D-04 0.000000000000D+00 0.000000000000D+00 0.742470546710D-05 0.000000000000D+00  6 -1 2 25 24 3 -3 4 0.33570293D-01 0.30918866D+00 0.26750181D+06 0.26750181D+06 0.26750181D+06 0.11262451D+01  1  2 12  8  6  5       21 0.214654200155D-03 0.100000000000D+01
0.199120425751D-04 0.000000000000D+00 0.000000000000D+00 0.742470546710D-05 0.000000000000D+00  6 -1 2 25 24 4 -4 4 0.33570293D-01 0.30918866D+00 0.26750181D+06 0.26750181D+06 0.26750181D+06 0.11262451D+01  1  2 12  8  6  5       21 0.214654200155D-03 0.100000000000D+01
0.201607355386D-04 0.000000000000D+00 0.000000000000D+00 0.742470546710D-05 0.000000000000D+00  6 -1 2 25 24 3 -3 4 0.33570293D-01 0.30918866D+00 0.26750181D+06 0.26750181D+06 0.26750181D+06 0.11262451D+01  1  2 12  8  6  5       21 0.217335140041D-03 0.100000000000D+01
0.201607355386D-04 0.000000000000D+00 0.000000000000D+00 0.742470546710D-05 0.000000000000D+00  6 -1 2 25 24 4 -4 4 0.33570293D-01 0.30918866D+00 0.26750181D+06 0.26750181D+06 0.26750181D+06 0.11262451D+01  1  2 12  8  6  5       21 0.217335140041D-03 0.100000000000D+01
-.242632127943D-01 0.000000000000D+00 0.000000000000D+00 0.742532897433D-05 0.000000000000D+00  6 -1 2 25 24 3 -3 4 0.33570293D-01 0.30918866D+00 0.26715149D+06 0.26715149D+06 0.26715149D+06 0.11262924D+01  1  2  5  8  6  5       21 -.261619887484D+00 0.100000000000D+01
-.242632127943D-01 0.000000000000D+00 0.000000000000D+00 0.742532897433D-05 0.000000000000D+00  6 -1 2 25 24 4 -4 4 0.33570293D-01 0.30918866D+00 0.26715149D+06 0.26715149D+06 0.26715149D+06 0.11262924D+01  1  2  5  8  6  5       21 -.261619887484D+00 0.100000000000D+01
0.219130531392D-01 0.000000000000D+00 0.000000000000D+00 0.742532897433D-05 0.107456425351D-06  6 -1 2 25 24 3 -3 4 0.33570293D-01 0.30918866D+00 0.26750181D+06 0.26750181D+06 0.26750181D+06 0.11262451D+01  1  2 11  8  6  5       21 0.236225333328D+00 0.100000000000D+01
0.219130531392D-01 0.000000000000D+00 0.000000000000D+00 0.742532897433D-05 0.107456425351D-06  6 -1 2 25 24 4 -4 4 0.33570293D-01 0.30918866D+00 0.26750181D+06 0.26750181D+06 0.26750181D+06 0.11262451D+01  1  2 11  8  6  5       21 0.236225333328D+00 0.100000000000D+01
  </mgrwgt>
  </event>
  <event>
  5     66 0.43135346E-03 0.21530690E+02 0.75467711E-02 0.12366816E+00
       -1 -1    0    0    0  501 0.00000000E+00 0.00000000E+00 0.26541440E+03 0.26541459E+03 0.32000000E+00 0.0000E+00 0.9000E+01
        2 -1    0    0  502    0 0.00000000E+00 0.00000000E+00 -.61084806E+02 0.61085644E+02 0.32000000E+00 0.0000E+00 0.9000E+01
       25  1    1    2    0    0 -.74359351E+01 0.48686090E+02 0.94802765E+02 0.16443294E+03 0.12500000E+03 0.0000E+00 0.9000E+01
       24  1    1    2    0    0 0.25440776E+02 -.36895421E+02 0.10573936E+03 0.14020176E+03 0.80419002E+02 0.0000E+00 0.9000E+01
       21  1    1    2  502  501 -.18004841E+02 -.11790668E+02 0.37874681E+01 0.21865534E+02 0.75000000E+00 0.0000E+00 0.9000E+01
#aMCatNLO 1  0  0  5  2 0.58046279D+01 0.00000000D+00  -5  6  0 0.00000000D+00 0.00000000D+00 0.00000000D+00 0.00000000D+00 0.00000000D+00
  <mgrwgt>
 0.9297884675D+00   14    2    0
 0.127330104631251D+03 0.000000000000000D+00 0.000000000000000D+00 0.127330104631251D+03
 0.127330104631251D+03 -.000000000000000D+00 -.000000000000000D+00 -.127330104631251D+03
 0.134754163221576D+03 -.743164311555322D+01 0.486889003762608D+02 -.103849008806394D+02
 0.949122354230115D+02 0.254437994558767D+02 -.368934417067267D+02 0.230782041524923D+02
 0.249938106179145D+02 -.180121563403235D+02 -.117954586695341D+02 -.126933032718529D+02
 0.000000000000000D+00 0.000000000000000D+00 0.000000000000000D+00 0.000000000000000D+00
 0.127330104631251D+03 0.000000000000000D+00 0.000000000000000D+00 0.127330104631251D+03
 0.127330104631251D+03 -.000000000000000D+00 -.000000000000000D+00 -.127330104631251D+03
 0.134452671932272D+03 -.102446810286726D+02 0.468467515622540D+02 -.123672700468735D+02
 0.945853631814485D+02 0.234636716890063D+02 -.381901501514690D+02 0.216827930874864D+02
 0.197890560500804D+02 -.160240977945801D+02 -.106579554607562D+02 -.460901449547467D+01
 0.583311809870127D+01 0.280510713424639D+01 0.200135404997122D+01 -.470650854513833D+01
0.829961328284D-03 0.000000000000D+00 0.000000000000D+00 0.516718694458D-04 0.000000000000D+00  6 -1 2 25 24 21 21 2 0.40833064D-01 0.93977418D-02 0.15369530D+05 0.15369530D+05 0.15369530D+05 0.12466194D+01  1  2  2  3  6  5       21 0.576842478997D+00 0.100000000000D+01
0.147232513455D-03 0.437982625829D-04 -.318727003445D-05 0.516718694458D-04 0.000000000000D+00  6 -1 2 25 24 21 21 4 0.40833064D-01 0.93977418D-02 0.15369530D+05 0.15369530D+05 0.15369530D+05 0.12466194D+01  1  2  3  3  6  5       21 0.159027003922D+00 0.100000000000D+01
0.294551626617D-04 0.000000000000D+00 0.000000000000D+00 0.516718694458D-04 0.000000000000D+00  6 -1 2 25 24 21 21 4 0.40833064D-01 0.93977418D-02 0.15369530D+05 0.15369530D+05 0.15369530D+05 0.12466194D+01  1  2 15  3  6  5       21 0.318147544873D-01 0.100000000000D+01
0.272868584329D-03 0.000000000000D+00 0.000000000000D+00 0.516490667034D-04 0.000000000000D+00  6 -1 2 25 24 21 21 4 0.40833064D-01 0.93977418D-02 0.15455453D+05 0.15455453D+05 0.15455453D+05 0.12463443D+01  1  2 12  3  6  5       21 0.294519032503D+00 0.100000000000D+01
0.205171518309D-03 0.000000000000D+00 0.000000000000D+00 0.516490667034D-04 0.000000000000D+00  6 -1 2 25 24 21 21 4 0.40833064D-01 0.93977418D-02 0.15455453D+05 0.15455453D+05 0.15455453D+05 0.12463443D+01  1  2 12  3  6  5       21 0.221450619602D+00 0.100000000000D+01
-.377602248192D-03 0.000000000000D+00 0.000000000000D+00 0.516718694458D-04 0.000000000000D+00  6 -1 2 25 24 21 21 4 0.40833064D-01 0.93977418D-02 0.15369530D+05 0.15369530D+05 0.15369530D+05 0.12466194D+01  1  2  4  3  6  5       21 -.407851179029D+00 0.100000000000D+01
0.666698443404D-05 0.000000000000D+00 0.000000000000D+00 0.516490667034D-04 0.000000000000D+00  6 -1 2 25 24 1 -1 4 0.40833064D-01 0.93977418D-02 0.15455453D+05 0.15455453D+05 0.15455453D+05 0.12463443D+01  1  2 12  6  6  5       21 0.719596874831D-02 0.100000000000D+01
0.583731535499D-05 0.000000000000D+00 0.000000000000D+00 0.516490667034D-04 0.000000000000D+00  6 -1 2 25 24 1 -1 4 0.40833064D-01 0.93977418D-02 0.15455453D+05 0.15455453D+05 0.15455453D+05 0.12463443D+01  1  2 12  6  6  5       21 0.630047051768D-02 0.100000000000D+01
0.666698443404D-05 0.000000000000D+00 0.000000000000D+00 0.516490667034D-04 0.000000000000D+00  6 -1 2 25 24 2 -2 4 0.40833064D-01 0.93977418D-02 0.15455453D+05 0.15455453D+05 0.15455453D+05 0.12463443D+01  1  2 12  7  6  5       21 0.719596874831D-02 0.100000000000D+01
0.583731535499D-05 0.000000000000D+00 0.000000000000D+00 0.516490667034D-04 0.000000000000D+00  6 -1 2 25 24 2 -2 4 0.40833064D-01 0.93977418D-02 0.15455453D+05 0.15455453D+05 0.15455453D+05 0.12463443D+01  1  2 12  7  6  5       21 0.630047051768D-02 0.100000000000D+01
0.666698443404D-05 0.000000000000D+00 0.000000000000D+00 0.516490667034D-04 0.000000000000D+00  6 -1 2 25 24 3 -3 4 0.40833064D-01 0.93977418D-02 0.15455453D+05 0.15455453D+05 0.15455453D+05 0.12463443D+01  1  2 12  8  6  5       21 0.719596874831D-02 0.100000000000D+01
0.666698443404D-05 0.000000000000D+00 0.000000000000D+00 0.516490667034D-04 0.000000000000D+00  6 -1 2 25 24 4 -4 4 0.40833064D-01 0.93977418D-02 0.15455453D+05 0.15455453D+05 0.15455453D+05 0.12463443D+01  1  2 12  8  6  5       21 0.719596874831D-02 0.100000000000D+01
0.583731535499D-05 0.000000000000D+00 0.000000000000D+00 0.516490667034D-04 0.000000000000D+00  6 -1 2 25 24 3 -3 4 0.40833064D-01 0.93977418D-02 0.15455453D+05 0.15455453D+05 0.15455453D+05 0.12463443D+01  1  2 12  8  6  5       21 0.630047051768D-02 0.100000000000D+01
0.583731535499D-05 0.000000000000D+00 0.000000000000D+00 0.516490667034D-04 0.000000000000D+00  6 -1 2 25 24 4 -4 4 0.40833064D-01 0.93977418D-02 0.15455453D+05 0.15455453D+05 0.15455453D+05 0.12463443D+01  1  2 12  8  6  5       21 0.630047051768D-02 0.100000000000D+01
  </mgrwgt>
  </event>
  <event>
  5     66 0.43135346E-03 0.43807089E+02 0.75467711E-02 0.11675329E+00
       -1 -1    0    0    0  501 0.00000000E+00 0.00000000E+00 0.25473470E+02 0.25475480E+02 0.32000000E+00 0.0000E+00 0.9000E+01
        2 -1    0    0  502    0 -.00000000E+00 -.00000000E+00 -.13720448E+04 0.13720448E+04 0.32000000E+00 0.0000E+00 0.9000E+01
       25  1    1    2    0    0 -.70510332E+02 0.82777934E+02 -.42353967E+03 0.45479088E+03 0.12500000E+03 0.0000E+00 0.9000E+01
       24  1    1    2    0    0 0.99127979E+02 -.49613840E+02 -.53571039E+03 0.55293826E+03 0.80419002E+02 0.0000E+00 0.9000E+01
       21  1    1    2  502  501 -.28617647E+02 -.33164094E+02 -.38732129E+03 0.38979119E+03 0.75000000E+00 0.0000E+00 0.9000E+01
#aMCatNLO 1  0  0  5  1 0.20618419D+02 0.00000000D+00  -5  6  0 0.00000000D+00 0.00000000D+00 0.00000000D+00 0.00000000D+00 0.00000000D+00
  <mgrwgt>
 0.1819659567D+00    9    2    0
 0.186955002257464D+03 0.000000000000000D+00 0.000000000000000D+00 0.186955002257464D+03
 0.186955002257464D+03 -.000000000000000D+00 -.000000000000000D+00 -.186955002257464D+03
 0.174516189153187D+03 -.705093548687723D+02 0.827790659054180D+02 0.548357310552799D+02
 0.137386701648069D+03 0.991287480770854D+02 -.496129482831430D+02 -.109515525241308D+02
 0.620071137136730D+02 -.286193932083131D+02 -.331661176222750D+02 -.438841785311491D+02
 0.000000000000000D+00 0.000000000000000D+00 0.000000000000000D+00 0.000000000000000D+00
 0.186955002257464D+03 0.000000000000000D+00 0.000000000000000D+00 0.186955002257464D+03
 0.186955002257464D+03 -.000000000000000D+00 -.000000000000000D+00 -.186955002257464D+03
 0.170518693109490D+03 -.780144726858903D+02 0.740816201391932D+02 0.433275929271786D+02
 0.136915256516666D+03 0.931621962316833D+02 -.565273981760404D+02 -.201004965458695D+02
 0.447385167876070D+02 -.721383729157133D+01 -.377883985310013D+02 -.228370832714676D+02
 0.217375381011660D+02 -.793388625422163D+01 0.202341765678485D+02 -.390013109841416D+00
0.151309631652D-03 0.000000000000D+00 0.000000000000D+00 0.100296600036D-04 0.000000000000D+00  6 -1 2 25 24 21 21 2 0.39191529D-02 0.21108397D+00 0.30004099D+05 0.30004099D+05 0.30004099D+05 0.12148922D+01  1  2  2  3  6  5       21 0.102269629862D+00 0.100000000000D+01
0.938694526914D-05 0.798482863306D-05 -.581068826285D-06 0.100296600036D-04 0.000000000000D+00  6 -1 2 25 24 21 21 4 0.39191529D-02 0.21108397D+00 0.30004099D+05 0.30004099D+05 0.30004099D+05 0.12148922D+01  1  2  3  3  6  5       21 0.936439797975D-02 0.100000000000D+01
0.326499606466D-05 0.000000000000D+00 0.000000000000D+00 0.100296600036D-04 0.000000000000D+00  6 -1 2 25 24 21 21 4 0.39191529D-02 0.21108397D+00 0.30004099D+05 0.30004099D+05 0.30004099D+05 0.12148922D+01  1  2 15  3  6  5       21 0.325715359739D-02 0.100000000000D+01
0.119469569700D-03 0.000000000000D+00 0.000000000000D+00 0.996987539045D-05 0.000000000000D+00  6 -1 2 25 24 21 21 4 0.39191529D-02 0.21108397D+00 0.32500666D+05 0.32500666D+05 0.32500666D+05 0.12112659D+01  1  2 12  3  6  5       21 0.117860661890D+00 0.100000000000D+01
-.578501504465D-04 0.000000000000D+00 0.000000000000D+00 0.100296600036D-04 0.000000000000D+00  6 -1 2 25 24 21 21 4 0.39191529D-02 0.21108397D+00 0.30004099D+05 0.30004099D+05 0.30004099D+05 0.12148922D+01  1  2  4  3  6  5       21 -.577111953290D-01 0.100000000000D+01
0.175496140254D-05 0.000000000000D+00 0.000000000000D+00 0.996987539045D-05 0.000000000000D+00  6 -1 2 25 24 1 -1 4 0.39191529D-02 0.21108397D+00 0.32500666D+05 0.32500666D+05 0.32500666D+05 0.12112659D+01  1  2 12  6  6  5       21 0.173132717405D-02 0.100000000000D+01
0.175496140254D-05 0.000000000000D+00 0.000000000000D+00 0.996987539045D-05 0.000000000000D+00  6 -1 2 25 24 2 -2 4 0.39191529D-02 0.21108397D+00 0.32500666D+05 0.32500666D+05 0.32500666D+05 0.12112659D+01  1  2 12  7  6  5       21 0.173132717405D-02 0.100000000000D+01
0.175496140254D-05 0.000000000000D+00 0.000000000000D+00 0.996987539045D-05 0.000000000000D+00  6 -1 2 25 24 3 -3 4 0.39191529D-02 0.21108397D+00 0.32500666D+05 0.32500666D+05 0.32500666D+05 0.12112659D+01  1  2 12  8  6  5       21 0.173132717405D-02 0.100000000000D+01
0.175496140254D-05 0.000000000000D+00 0.000000000000D+00 0.996987539045D-05 0.000000000000D+00  6 -1 2 25 24 4 -4 4 0.39191529D-02 0.21108397D+00 0.32500666D+05 0.32500666D+05 0.32500666D+05 0.12112659D+01  1  2 12  8  6  5       21 0.173132717405D-02 0.100000000000D+01
  </mgrwgt>
  </event>
  <event>
  6     66 -.43135346E-03 0.12238460E+02 0.75467711E-02 0.12206735E+00
       -1 -1    0    0    0  501 0.00000000E+00 0.00000000E+00 0.29072913E+02 0.29074674E+02 0.32000000E+00 0.0000E+00 0.9000E+01
        2 -1    0    0  503    0 0.00000000E+00 0.00000000E+00 -.21128058E+04 0.21128058E+04 0.32000000E+00 0.0000E+00 0.9000E+01
       25  1    1    2    0    0 -.74505294E+01 -.74689012E+02 -.14229533E+04 0.14304039E+04 0.12500000E+03 0.0000E+00 0.9000E+01
       24  1    1    2    0    0 0.34945763E+02 0.53151744E+02 -.16240794E+03 0.19206735E+03 0.80419002E+02 0.0000E+00 0.9000E+01
       21  1    1    2  502  501 -.17477100E+02 0.97033656E+01 0.77711003E+00 0.20019259E+02 0.75000000E+00 0.0000E+00 0.9000E+01
       21  1    1    2  503  502 -.10018133E+02 0.11833902E+02 -.49914873E+03 0.49939005E+03 0.75000000E+00 0.0000E+00 0.9000E+01
#aMCatNLO 2  0  0  2  5 0.15504975D+02 0.00000000D+00  -5  6  0 0.00000000D+00 0.00000000D+00 0.00000000D+00 0.00000000D+00 0.00000000D+00
  <mgrwgt>
 -.9931356102D+00    1    2    0
 0.216002039082510D+03 0.000000000000000D+00 0.000000000000000D+00 0.216002039082510D+03
 0.216002039082510D+03 0.000000000000000D+00 0.000000000000000D+00 -.216002039082510D+03
 0.217189376114108D+03 -.125051261969428D+02 -.687180342167141D+02 -.163302414829128D+03
 0.135180098636453D+03 0.318206967371250D+02 0.568433743298575D+02 0.869638842678402D+02
 0.796346034144577D+02 -.193155705401821D+02 0.118746598868566D+02 0.763385305612879D+02
 0.000000000000000D+00 -.000000000000000D+00 0.000000000000000D+00 -.000000000000000D+00
 0.217039798373453D+03 0.000000000000000D+00 0.000000000000000D+00 0.217039798373453D+03
 0.283017967095466D+03 0.000000000000000D+00 0.000000000000000D+00 -.283017967095466D+03
 0.218921620095931D+03 -.745006745191806D+01 -.746893135017618D+02 -.163302414829128D+03
 0.134447943171262D+03 0.349460148384543D+02 0.531515977988686D+02 0.869638842678402D+02
 0.789126683702406D+02 -.174778141439892D+02 0.970381336398460D+01 0.763385305612879D+02
 0.677755338314847D+02 -.100181332425470D+02 0.118339023389086D+02 -.659781687220135D+02
-.277260353717D-02 0.000000000000D+00 0.000000000000D+00 0.217413179393D-04 0.000000000000D+00  6 -1 2 25 24 21 21 4 0.44514640D-02 0.32669710D+00 0.20140732D+05 0.20140732D+05 0.20140732D+05 0.12334909D+01  1  2 13  2  6  2        2 -.993135610178D+00 0.100000000000D+01
  </mgrwgt>
  </event>
  <event>
  6     66 -.43135346E-03 0.20280202E+02 0.75467711E-02 0.11940851E+00
       -1 -1    0    0    0  503 0.00000000E+00 0.00000000E+00 0.65678935E+03 0.65678943E+03 0.32000000E+00 0.0000E+00 0.9000E+01
        2 -1    0    0  502    0 0.00000000E+00 0.00000000E+00 -.76552554E+02 0.76553223E+02 0.32000000E+00 0.0000E+00 0.9000E+01
       25  1    1    2    0    0 -.64179131E+02 0.74208511E+02 0.47396384E+03 0.49989258E+03 0.12500000E+03 0.0000E+00 0.9000E+01
       24  1    1    2    0    0 0.75699084E+02 -.58344224E+02 0.12351097E+03 0.17566040E+03 0.80419002E+02 0.0000E+00 0.9000E+01
       21  1    1    2  502  501 -.15884118E+02 -.15881832E+02 -.33831144E+02 0.40615842E+02 0.75000000E+00 0.0000E+00 0.9000E+01
       21  1    1    2  501  503 0.43641658E+01 0.17545149E-01 0.16593126E+02 0.17173834E+02 0.75000000E+00 0.0000E+00 0.9000E+01
#aMCatNLO 2  0  0  1  5 0.43642011D+01 0.00000000D+00  -5  6  0 0.00000000D+00 0.00000000D+00 0.00000000D+00 0.00000000D+00 0.00000000D+00
  <mgrwgt>
 -.3990883145D+00    3    2    0
 0.220898473525690D+03 0.000000000000000D+00 0.000000000000000D+00 0.220898473525690D+03
 0.220898473525690D+03 0.000000000000000D+00 0.000000000000000D+00 -.220898473525690D+03
 0.205031534413051D+03 -.621506121921746D+02 0.742168409443992D+02 0.130545363870732D+03
 0.127922131812329D+03 0.769590860764870D+02 -.583390501659819D+02 -.238895405783232D+02
 0.108843280825998D+03 -.148084738843124D+02 -.158777907784172D+02 -.106655823292409D+03
 0.000000000000000D+00 0.000000000000000D+00 0.000000000000000D+00 0.000000000000000D+00
 0.226716220285787D+03 0.000000000000000D+00 0.000000000000000D+00 0.226716220285787D+03
 0.221729224782828D+03 0.000000000000000D+00 0.000000000000000D+00 -.221729224782828D+03
 0.205652527535559D+03 -.641789756987284D+02 0.742086863640917D+02 0.130545363870732D+03
 0.127170471360512D+03 0.756991868619606D+02 -.583441153080489D+02 -.238895405783232D+02
 0.108995503064552D+03 -.158843769458023D+02 -.158821162052402D+02 -.106655823292409D+03
 0.662694310799135D+01 0.436416578257011D+01 0.175451491974291D-01 0.498699550295947D+01
-.114714542251D-02 0.000000000000D+00 0.000000000000D+00 0.407842823370D-04 0.000000000000D+00  6 -1 2 25 24 21 21 4 0.10141302D+00 0.11732131D-01 0.24124018D+05 0.24124018D+05 0.24124018D+05 0.12249619D+01  1  2 13  1  6  1       -1 -.150728749545D+00 0.100000000000D+01
-.602682869931D-02 0.000000000000D+00 0.000000000000D+00 0.408887430268D-04 0.000000000000D+00  6 -1 2 25 24 21 21 4 0.98442312D-01 0.11732131D-01 0.23330118D+05 0.23330118D+05 0.23330118D+05 0.12265296D+01  1  2  8  1  6  1       -1 -.849779843999D+00 0.100000000000D+01
0.456009403239D-02 0.000000000000D+00 0.000000000000D+00 0.408887430268D-04 0.785743308988D-05  6 -1 2 25 24 21 21 4 0.10103496D+00 0.11776253D-01 0.24124018D+05 0.24124018D+05 0.24124018D+05 0.12249619D+01  1  2  1  1  6  1       -1 0.601420279043D+00 0.100000000000D+01
  </mgrwgt>
  </event>
  <event>
  5     66 0.43135346E-03 0.51776110E+02 0.75467711E-02 0.11770561E+00
       -1 -1    0    0    0  501 0.00000000E+00 0.00000000E+00 0.12621132E+04 0.12621133E+04 0.32000000E+00 0.0000E+00 0.9000E+01
        2 -1    0    0  502    0 0.00000000E+00 0.00000000E+00 -.33262899E+02 0.33264438E+02 0.32000000E+00 0.0000E+00 0.9000E+01
       25  1    1    2    0    0 -.61353273E+01 -.99678637E+02 0.63236459E+03 0.65229092E+03 0.12500000E+03 0.0000E+00 0.9000E+01
       24  1    1    2    0    0 0.56659952E+02 0.79898870E+02 0.56767382E+03 0.58164849E+03 0.80419002E+02 0.0000E+00 0.9000E+01
       21  1    1    2  502  501 -.50524624E+02 0.19779767E+02 0.28811942E+02 0.61438321E+02 0.75000000E+00 0.0000E+00 0.9000E+01
#aMCatNLO 1  0  0  5  1 0.77634937D+01 0.00000000D+00  -5  6  0 0.00000000D+00 0.00000000D+00 0.00000000D+00 0.00000000D+00 0.00000000D+00
  <mgrwgt>
 0.1175326952D+00   25    2    0
 0.204896483071395D+03 0.000000000000000D+00 0.000000000000000D+00 0.204896483071395D+03
 0.204896483071395D+03 -.000000000000000D+00 -.000000000000000D+00 -.204896483071395D+03
 0.165649066078999D+03 -.613483313557034D+01 -.996788300074859D+02 0.429081316720047D+02
 0.136333394965813D+03 0.566603583917358D+02 0.798987107810758D+02 0.502531434934766D+02
 0.107810505097977D+03 -.505255252561654D+02 0.197801192264101D+02 -.931612751654813D+02
 0.000000000000000D+00 0.000000000000000D+00 0.000000000000000D+00 0.000000000000000D+00
 0.204896483071395D+03 0.000000000000000D+00 0.000000000000000D+00 0.204896483071395D+03
 0.204896483071395D+03 -.000000000000000D+00 -.000000000000000D+00 -.204896483071395D+03
 0.165490539554781D+03 -.637030138995001D+01 -.995866470935617D+02 0.424739645311827D+02
 0.136166149411835D+03 0.564665881783811D+02 0.799745694268445D+02 0.498958611085100D+02
 0.707180777548237D+02 -.303937464217013D+02 0.612646152447092D+01 -.635588952781575D+02
 0.374181994213492D+02 -.197025403667297D+02 0.134856161422463D+02 -.288109303615351D+02
0.295244035108D-03 0.000000000000D+00 0.000000000000D+00 0.835007064604D-05 0.000000000000D+00  6 -1 2 25 24 21 21 2 0.19417139D+00 0.51174906D-02 0.29068266D+05 0.29068266D+05 0.29068266D+05 0.12163391D+01  1  2  2  3  6  5       21 0.139004184051D-01 0.100000000000D+01
0.587221769601D-05 0.155804557815D-04 -.113381483435D-05 0.835007064604D-05 0.000000000000D+00  6 -1 2 25 24 21 21 4 0.19417139D+00 0.51174906D-02 0.29068266D+05 0.29068266D+05 0.29068266D+05 0.12163391D+01  1  2  3  3  6  5       21 0.409032897166D-03 0.100000000000D+01
0.105051292402D-04 0.000000000000D+00 0.000000000000D+00 0.835007064604D-05 0.000000000000D+00  6 -1 2 25 24 21 21 4 0.19417139D+00 0.51174906D-02 0.29068266D+05 0.29068266D+05 0.29068266D+05 0.12163391D+01  1  2 15  3  6  5       21 0.731741170144D-03 0.100000000000D+01
0.217895775227D-02 0.000000000000D+00 0.000000000000D+00 0.834810327148D-05 0.000000000000D+00  6 -1 2 25 24 21 21 4 0.19417139D+00 0.51174906D-02 0.29159479D+05 0.29159479D+05 0.29159479D+05 0.12161958D+01  1  2 12  3  6  5       21 0.151704122664D+00 0.100000000000D+01
0.205779379645D-02 0.000000000000D+00 0.000000000000D+00 0.834810327148D-05 0.000000000000D+00  6 -1 2 25 24 21 21 4 0.19417139D+00 0.51174906D-02 0.29159479D+05 0.29159479D+05 0.29159479D+05 0.12161958D+01  1  2 12  3  6  5       21 0.143268405360D+00 0.100000000000D+01
-.445981393415D-02 0.000000000000D+00 0.000000000000D+00 0.835007064604D-05 0.000000000000D+00  6 -1 2 25 24 21 21 4 0.19417139D+00 0.51174906D-02 0.29068266D+05 0.29068266D+05 0.29068266D+05 0.12163391D+01  1  2  4  3  6  5       21 -.310651053612D+00 0.100000000000D+01
-.431924354774D-02 0.000000000000D+00 0.000000000000D+00 0.835007064604D-05 0.000000000000D+00  6 -1 2 25 24 21 21 4 0.19417139D+00 0.51174906D-02 0.29068266D+05 0.29068266D+05 0.29068266D+05 0.12163391D+01  1  2  5  3  6  5       21 -.300859537803D+00 0.100000000000D+01
0.598783227359D-02 0.000000000000D+00 -.000000000000D+00 0.835007064604D-05 0.000000000000D+00  6 -1 2 25 24 21 21 4 0.19417139D+00 0.51174906D-02 0.29068266D+05 0.29068266D+05 0.29068266D+05 0.12163391D+01  1  2  6  3  6  5       21 0.417086100925D+00 0.100000000000D+01
0.363930261989D-04 0.000000000000D+00 0.000000000000D+00 0.835007064604D-05 0.725023764366D-06  6 -1 2 25 24 21 21 4 0.19417139D+00 0.51174906D-02 0.29159479D+05 0.29159479D+05 0.29159479D+05 0.12161958D+01  1  2 11  3  6  5       21 0.253376739630D-02 0.100000000000D+01
0.453199683592D-04 0.000000000000D+00 0.000000000000D+00 0.834810327148D-05 0.000000000000D+00  6 -1 2 25 24 1 -1 4 0.19417139D+00 0.51174906D-02 0.29159479D+05 0.29159479D+05 0.29159479D+05 0.12161958D+01  1  2 12  6  6  5       21 0.315528193787D-02 0.100000000000D+01
0.430475367254D-04 0.000000000000D+00 0.000000000000D+00 0.834810327148D-05 0.000000000000D+00  6 -1 2 25 24 1 -1 4 0.19417139D+00 0.51174906D-02 0.29159479D+05 0.29159479D+05 0.29159479D+05 0.12161958D+01  1  2 12  6  6  5       21 0.299706994548D-02 0.100000000000D+01
-.911599541308D-04 0.000000000000D+00 0.000000000000D+00 0.835007064604D-05 0.000000000000D+00  6 -1 2 25 24 1 -1 4 0.19417139D+00 0.51174906D-02 0.29068266D+05 0.29068266D+05 0.29068266D+05 0.12163391D+01  1  2  5  6  6  5       21 -.634980208056D-02 0.100000000000D+01
0.706741487900D-06 0.000000000000D+00 0.000000000000D+00 0.835007064604D-05 0.211078127324D-07  6 -1 2 25 24 1 -1 4 0.19417139D+00 0.51174906D-02 0.29159479D+05 0.29159479D+05 0.29159479D+05 0.12161958D+01  1  2 11  6  6  5       21 0.492049913592D-04 0.100000000000D+01
0.453199683592D-04 0.000000000000D+00 0.000000000000D+00 0.834810327148D-05 0.000000000000D+00  6 -1 2 25 24 2 -2 4 0.19417139D+00 0.51174906D-02 0.29159479D+05 0.29159479D+05 0.29159479D+05 0.12161958D+01  1  2 12  7  6  5       21 0.315528193787D-02 0.100000000000D+01
0.430475367254D-04 0.000000000000D+00 0.000000000000D+00 0.834810327148D-05 0.000000000000D+00  6 -1 2 25 24 2 -2 4 0.19417139D+00 0.51174906D-02 0.29159479D+05 0.29159479D+05 0.29159479D+05 0.12161958D+01  1  2 12  7  6  5       21 0.299706994548D-02 0.100000000000D+01
-.911599541308D-04 0.000000000000D+00 0.000000000000D+00 0.835007064604D-05 0.000000000000D+00  6 -1 2 25 24 2 -2 4 0.19417139D+00 0.51174906D-02 0.29068266D+05 0.29068266D+05 0.29068266D+05 0.12163391D+01  1  2  5  7  6  5       21 -.634980208056D-02 0.100000000000D+01
0.739811818549D-06 0.000000000000D+00 0.000000000000D+00 0.835007064604D-05 0.226800046510D-07  6 -1 2 25 24 2 -2 4 0.19417139D+00 0.51174906D-02 0.29159479D+05 0.29159479D+05 0.29159479D+05 0.12161958D+01  1  2 11  7  6  5       21 0.515074249387D-04 0.100000000000D+01
0.453199683592D-04 0.000000000000D+00 0.000000000000D+00 0.834810327148D-05 0.000000000000D+00  6 -1 2 25 24 3 -3 4 0.19417139D+00 0.51174906D-02 0.29159479D+05 0.29159479D+05 0.29159479D+05 0.12161958D+01  1  2 12  8  6  5       21 0.315528193787D-02 0.100000000000D+01
0.453199683592D-04 0.000000000000D+00 0.000000000000D+00 0.834810327148D-05 0.000000000000D+00  6 -1 2 25 24 4 -4 4 0.19417139D+00 0.51174906D-02 0.29159479D+05 0.29159479D+05 0.29159479D+05 0.12161958D+01  1  2 12  8  6  5       21 0.315528193787D-02 0.100000000000D+01
0.430475367254D-04 0.000000000000D+00 0.000000000000D+00 0.834810327148D-05 0.000000000000D+00  6 -1 2 25 24 3 -3 4 0.19417139D+00 0.51174906D-02 0.29159479D+05 0.29159479D+05 0.29159479D+05 0.12161958D+01  1  2 12  8  6  5       21 0.299706994548D-02 0.100000000000D+01
0.430475367254D-04 0.000000000000D+00 0.000000000000D+00 0.834810327148D-05 0.000000000000D+00  6 -1 2 25 24 4 -4 4 0.19417139D+00 0.51174906D-02 0.29159479D+05 0.29159479D+05 0.29159479D+05 0.12161958D+01  1  2 12  8  6  5       21 0.299706994548D-02 0.100000000000D+01
-.911599541308D-04 0.000000000000D+00 0.000000000000D+00 0.835007064604D-05 0.000000000000D+00  6 -1 2 25 24 3 -3 4 0.19417139D+00 0.51174906D-02 0.29068266D+05 0.29068266D+05 0.29068266D+05 0.12163391D+01  1  2  5  8  6  5       21 -.634980208056D-02 0.100000000000D+01
-.911599541308D-04 0.000000000000D+00 0.000000000000D+00 0.835007064604D-05 0.000000000000D+00  6 -1 2 25 24 4 -4 4 0.19417139D+00 0.51174906D-02 0.29068266D+05 0.29068266D+05 0.29068266D+05 0.12163391D+01  1  2  5  8  6  5       21 -.634980208056D-02 0.100000000000D+01
0.709442793010D-06 0.000000000000D+00 0.000000000000D+00 0.835007064604D-05 0.211678362587D-07  6 -1 2 25 24 3 -3 4 0.19417139D+00 0.51174906D-02 0.29159479D+05 0.29159479D+05 0.29159479D+05 0.12161958D+01  1  2 11  8  6  5       21 0.493930625237D-04 0.100000000000D+01
0.709442793010D-06 0.000000000000D+00 0.000000000000D+00 0.835007064604D-05 0.211678362587D-07  6 -1 2 25 24 4 -4 4 0.19417139D+00 0.51174906D-02 0.29159479D+05 0.29159479D+05 0.29159479D+05 0.12161958D+01  1  2 11  8  6  5       21 0.493930625237D-04 0.100000000000D+01
  </mgrwgt>
  </event>
  <event>
  6     66 -.43135346E-03 0.23071409E+02 0.75467711E-02 0.12325617E+00
       -1 -1    0    0    0  501 0.00000000E+00 0.00000000E+00 0.49284152E+02 0.49285190E+02 0.32000000E+00 0.0000E+00 0.9000E+01
        2 -1    0    0  502    0 -.00000000E+00 -.00000000E+00 -.10374523E+04 0.10374524E+04 0.32000000E+00 0.0000E+00 0.9000E+01
       25  1    1    2    0    0 -.16372617E+02 0.47487661E+02 -.13119632E+03 0.18804418E+03 0.12500000E+03 0.0000E+00 0.9000E+01
       24  1    1    2    0    0 -.37458353E+01 -.29158328E+02 -.69539189E+02 0.11030482E+03 0.80419002E+02 0.0000E+00 0.9000E+01
       21  1    1    2  502  503 -.30024854E+01 -.58528689E+01 -.40485392E+03 0.40490805E+03 0.75000000E+00 0.0000E+00 0.9000E+01
       21  1    1    2  503  501 0.23120938E+02 -.12476464E+02 -.38257876E+03 0.38348052E+03 0.75000000E+00 0.0000E+00 0.9000E+01
#aMCatNLO 2  0  0  5  1 0.13795482D+02 0.00000000D+00  -5  6  0 0.00000000D+00 0.00000000D+00 0.00000000D+00 0.00000000D+00 0.00000000D+00
  <mgrwgt>
 -.1912886589D+00    2    2    0
 0.226120652232180D+03 0.000000000000000D+00 0.000000000000000D+00 0.226120652232180D+03
 0.226120652232180D+03 -.000000000000000D+00 -.000000000000000D+00 -.226120652232180D+03
 0.165700718601660D+03 -.164677985604668D+02 0.475743778499976D+02 0.964220842331472D+02
 0.113463152386981D+03 -.381100924032097D+01 -.290989499633506D+02 0.744674312355498D+02
 0.173077433475719D+03 0.202788078007878D+02 -.184754278866470D+02 -.170889515468697D+03
 0.000000000000000D+00 0.000000000000000D+00 0.000000000000000D+00 0.000000000000000D+00
 0.226120652232180D+03 0.000000000000000D+00 0.000000000000000D+00 0.226120652232180D+03
 0.226120652232180D+03 -.000000000000000D+00 -.000000000000000D+00 -.226120652232180D+03
 0.165203642504661D+03 -.163731488942687D+02 0.474881453111069D+02 0.956244714861472D+02
 0.113118495795932D+03 -.374619934390427D+01 -.291579963619037D+02 0.739212782316342D+02
 0.877902937928705D+02 -.305436824214646D+01 -.579500686187224D+01 -.875455562227504D+02
 0.861288723708974D+02 0.231737164803194D+02 -.125351420873309D+02 -.820001934950311D+02
-.434234267802D-03 0.000000000000D+00 0.000000000000D+00 0.740801128265D-04 0.000000000000D+00  6 -1 2 25 24 21 21 4 0.75822609D-02 0.15960814D+00 0.16032182D+05 0.16032182D+05 0.16032182D+05 0.12445411D+01  1  2 13  3  6  5       21 -.272730440510D+00 0.100000000000D+01
0.129669472619D-03 0.000000000000D+00 0.000000000000D+00 0.743349038574D-04 0.573738672901D-05  6 -1 2 25 24 21 21 4 0.75822609D-02 0.15960814D+00 0.16032182D+05 0.16032182D+05 0.16032182D+05 0.12445411D+01  1  2  1  3  6  5       21 0.814417815688D-01 0.100000000000D+01
  </mgrwgt>
  </event>
  <event>
  5     66 0.43135346E-03 0.26441597E+02 0.75467711E-02 0.12382654E+00
       -1 -1    0    0    0  501 0.00000000E+00 0.00000000E+00 0.37666522E+02 0.37667882E+02 0.32000000E+00 0.0000E+00 0.9000E+01
        2 -1    0    0  502    0 -.00000000E+00 -.00000000E+00 -.65848870E+03 0.65848878E+03 0.32000000E+00 0.0000E+00 0.9000E+01
       25  1    1    2    0    0 0.15784643E+02 -.24568104E+02 -.10355167E+03 0.16492633E+03 0.12500000E+03 0.0000E+00 0.9000E+01
       24  1    1    2    0    0 0.82190757E+01 0.13481882E+02 -.26016921E+03 0.27277197E+03 0.80419002E+02 0.0000E+00 0.9000E+01
       21  1    1    2  502  501 -.24003719E+02 0.11086222E+02 -.25710129E+03 0.25845835E+03 0.75000000E+00 0.0000E+00 0.9000E+01
#aMCatNLO 1  0  0  5  1 0.11786221D+02 0.00000000D+00  -5  6  0 0.00000000D+00 0.00000000D+00 0.00000000D+00 0.00000000D+00 0.00000000D+00
  <mgrwgt>
 0.3017055235D+00    9    2    0
 0.157491204418302D+03 0.000000000000000D+00 0.000000000000000D+00 0.157491204418302D+03
 0.157491204418302D+03 -.000000000000000D+00 -.000000000000000D+00 -.157491204418302D+03
 0.160414727211257D+03 0.157854699335871D+02 -.245684854074588D+02 0.962033947946805D+02
 0.900782467495332D+02 0.821953998295644D+01 0.134816674341469D+02 -.373839322271334D+02
 0.644894348758134D+02 -.240050099165435D+02 0.110868179733120D+02 -.588194625675470D+02
 0.000000000000000D+00 0.000000000000000D+00 0.000000000000000D+00 0.000000000000000D+00
 0.157491204418302D+03 0.000000000000000D+00 0.000000000000000D+00 0.157491204418302D+03
 0.157491204418302D+03 -.000000000000000D+00 -.000000000000000D+00 -.157491204418302D+03
 0.156633252578409D+03 0.134287064923436D+02 -.234800039875359D+02 0.904286186335904D+02
 0.914828610168077D+02 0.686991277063590D+01 0.141049986173810D+02 -.406909230416018D+02
 0.550560759068899D+02 -.242575735745269D+02 -.174656397440480D+01 -.493932296253742D+02
 0.118102193344969D+02 0.395895431154741D+01 0.111215693445597D+02 -.344465966614362D+00
0.176018961850D-03 0.000000000000D+00 0.000000000000D+00 0.292676963757D-04 0.000000000000D+00  6 -1 2 25 24 21 21 2 0.57949601D-02 0.10130606D+00 0.14014049D+05 0.14014049D+05 0.14014049D+05 0.12512028D+01  1  2  2  3  6  5       21 0.190728222261D+00 0.100000000000D+01
0.119848085899D-04 0.928877581153D-05 -.675959160361D-06 0.292676963757D-04 0.000000000000D+00  6 -1 2 25 24 21 21 4 0.57949601D-02 0.10130606D+00 0.14014049D+05 0.14014049D+05 0.14014049D+05 0.12512028D+01  1  2  3  3  6  5       21 0.203302183474D-01 0.100000000000D+01
0.835418151063D-05 0.000000000000D+00 0.000000000000D+00 0.292676963757D-04 0.000000000000D+00  6 -1 2 25 24 21 21 4 0.57949601D-02 0.10130606D+00 0.14014049D+05 0.14014049D+05 0.14014049D+05 0.12512028D+01  1  2 15  3  6  5       21 0.141714682342D-01 0.100000000000D+01
0.212608119752D-03 0.000000000000D+00 0.000000000000D+00 0.290908687855D-04 0.000000000000D+00  6 -1 2 25 24 21 21 4 0.57949601D-02 0.10130606D+00 0.15123313D+05 0.15123313D+05 0.15123313D+05 0.12474174D+01  1  2 12  3  6  5       21 0.357074074091D+00 0.100000000000D+01
-.173819885098D-03 0.000000000000D+00 0.000000000000D+00 0.292676963757D-04 0.000000000000D+00  6 -1 2 25 24 21 21 4 0.57949601D-02 0.10130606D+00 0.14014049D+05 0.14014049D+05 0.14014049D+05 0.12512028D+01  1  2  4  3  6  5       21 -.294856291668D+00 0.100000000000D+01
0.212234038061D-05 0.000000000000D+00 0.000000000000D+00 0.290908687855D-04 0.000000000000D+00  6 -1 2 25 24 1 -1 4 0.57949601D-02 0.10130606D+00 0.15123313D+05 0.15123313D+05 0.15123313D+05 0.12474174D+01  1  2 12  6  6  5       21 0.356445806114D-02 0.100000000000D+01
0.212234038061D-05 0.000000000000D+00 0.000000000000D+00 0.290908687855D-04 0.000000000000D+00  6 -1 2 25 24 2 -2 4 0.57949601D-02 0.10130606D+00 0.15123313D+05 0.15123313D+05 0.15123313D+05 0.12474174D+01  1  2 12  7  6  5       21 0.356445806114D-02 0.100000000000D+01
0.212234038061D-05 0.000000000000D+00 0.000000000000D+00 0.290908687855D-04 0.000000000000D+00  6 -1 2 25 24 3 -3 4 0.57949601D-02 0.10130606D+00 0.15123313D+05 0.15123313D+05 0.15123313D+05 0.12474174D+01  1  2 12  8  6  5       21 0.356445806114D-02 0.100000000000D+01
0.212234038061D-05 0.000000000000D+00 0.000000000000D+00 0.290908687855D-04 0.000000000000D+00  6 -1 2 25 24 4 -4 4 0.57949601D-02 0.10130606D+00 0.15123313D+05 0.15123313D+05 0.15123313D+05 0.12474174D+01  1  2 12  8  6  5       21 0.356445806114D-02 0.100000000000D+01
  </mgrwgt>
  </event>
  <event>
  5     66 0.43135346E-03 0.27083682E+02 0.75467711E-02 0.11544689E+00
       -1 -1    0    0    0  501 0.00000000E+00 0.00000000E+00 0.44231506E+02 0.44232664E+02 0.32000000E+00 0.0000E+00 0.9000E+01
        2 -1    0    0  502    0 -.00000000E+00 -.00000000E+00 -.15814532E+04 0.15814532E+04 0.32000000E+00 0.0000E+00 0.9000E+01
       25  1    1    2    0    0 0.11608247E+03 -.10388245E+03 -.50361505E+03 0.54177470E+03 0.12500000E+03 0.0000E+00 0.9000E+01
       24  1    1    2    0    0 -.11771814E+03 0.76848523E+02 -.23820807E+03 0.28805131E+03 0.80419002E+02 0.0000E+00 0.9000E+01
       21  1    1    2  502  501 0.16356720E+01 0.27033930E+02 -.79539854E+03 0.79585986E+03 0.75000000E+00 0.0000E+00 0.9000E+01
#aMCatNLO 1  0  0  5  2 0.55920657D+01 0.00000000D+00  -5  6  0 0.00000000D+00 0.00000000D+00 0.00000000D+00 0.00000000D+00 0.00000000D+00
  <mgrwgt>
 0.1545800686D+01   25    2    0
 0.264482556094472D+03 0.000000000000000D+00 0.000000000000000D+00 0.264482556094472D+03
 0.264482556094472D+03 -.000000000000000D+00 -.000000000000000D+00 -.264482556094472D+03
 0.201502132278383D+03 0.116082460692216D+03 -.103882613483682D+03 0.266716000302726D+02
 0.193023170254634D+03 -.117718151706746D+03 0.768483698963614D+02 0.105011871251770D+03
 0.134439809655928D+03 0.163569101452992D+01 0.270342435873203D+02 -.131683471282043D+03
 0.000000000000000D+00 0.000000000000000D+00 0.000000000000000D+00 -.000000000000000D+00
 0.264482556094472D+03 0.000000000000000D+00 0.000000000000000D+00 0.264482556094472D+03
 0.264482556094472D+03 -.000000000000000D+00 -.000000000000000D+00 -.264482556094472D+03
 0.201451611106295D+03 0.116085183111973D+03 -.103837618091409D+03 0.264524280224791D+02
 0.192924626235607D+03 -.117715544181880D+03 0.768914663380376D+02 0.104801949009207D+03
 0.977648009713460D+02 0.260588367003467D+01 0.249223451740734D+02 -.944989015295389D+02
 0.368240738756964D+02 -.975522600127717D+00 0.202380657929765D+01 -.367554755021477D+02
0.122104151632D-03 0.000000000000D+00 0.000000000000D+00 0.280801325154D-04 0.000000000000D+00  6 -1 2 25 24 21 21 2 0.68049386D-02 0.24330058D+00 0.37785725D+05 0.37785725D+05 0.37785725D+05 0.12045199D+01  1  2  2  3  6  5       21 0.275871253783D-01 0.100000000000D+01
0.265933874869D-04 0.644361310989D-05 -.468912093028D-06 0.280801325154D-04 0.000000000000D+00  6 -1 2 25 24 21 21 4 0.68049386D-02 0.24330058D+00 0.37785725D+05 0.37785725D+05 0.37785725D+05 0.12045199D+01  1  2  3  3  6  5       21 0.871721318593D-02 0.100000000000D+01
0.227919029334D-05 0.000000000000D+00 0.000000000000D+00 0.280801325154D-04 0.000000000000D+00  6 -1 2 25 24 21 21 4 0.68049386D-02 0.24330058D+00 0.37785725D+05 0.37785725D+05 0.37785725D+05 0.12045199D+01  1  2 15  3  6  5       21 0.747110073442D-03 0.100000000000D+01
0.183290737379D-02 0.000000000000D+00 0.000000000000D+00 0.280778131837D-04 0.000000000000D+00  6 -1 2 25 24 21 21 4 0.68049386D-02 0.24330058D+00 0.37828098D+05 0.37828098D+05 0.37828098D+05 0.12044702D+01  1  2 12  3  6  5       21 0.600716847829D+00 0.100000000000D+01
0.149853787462D-02 0.000000000000D+00 0.000000000000D+00 0.280778131837D-04 0.000000000000D+00  6 -1 2 25 24 21 21 4 0.68049386D-02 0.24330058D+00 0.37828098D+05 0.37828098D+05 0.37828098D+05 0.12044702D+01  1  2 12  3  6  5       21 0.491130627366D+00 0.100000000000D+01
-.164747210855D-02 0.000000000000D+00 0.000000000000D+00 0.280801325154D-04 0.000000000000D+00  6 -1 2 25 24 21 21 4 0.68049386D-02 0.24330058D+00 0.37785725D+05 0.37785725D+05 0.37785725D+05 0.12045199D+01  1  2  4  3  6  5       21 -.540035209701D+00 0.100000000000D+01
-.587538037376D-02 0.000000000000D+00 0.000000000000D+00 0.280801325154D-04 0.000000000000D+00  6 -1 2 25 24 21 21 4 0.68049386D-02 0.24330058D+00 0.37785725D+05 0.37785725D+05 0.37785725D+05 0.12045199D+01  1  2  5  3  6  5       21 -.192592776275D+01 0.100000000000D+01
0.722791262831D-02 0.000000000000D+00 -.000000000000D+00 0.280801325154D-04 0.000000000000D+00  6 -1 2 25 24 21 21 4 0.68049386D-02 0.24330058D+00 0.37785725D+05 0.37785725D+05 0.37785725D+05 0.12045199D+01  1  2  6  3  6  5       21 0.236928278886D+01 0.100000000000D+01
0.144724308724D-02 0.000000000000D+00 0.000000000000D+00 0.280801325154D-04 0.360308705277D-04  6 -1 2 25 24 21 21 4 0.68049386D-02 0.24330058D+00 0.37828098D+05 0.37828098D+05 0.37828098D+05 0.12044702D+01  1  2 11  3  6  5       21 0.474319279764D+00 0.100000000000D+01
0.285520651530D-04 0.000000000000D+00 0.000000000000D+00 0.280778131837D-04 0.000000000000D+00  6 -1 2 25 24 1 -1 4 0.68049386D-02 0.24330058D+00 0.37828098D+05 0.37828098D+05 0.37828098D+05 0.12044702D+01  1  2 12  6  6  5       21 0.935765048632D-02 0.100000000000D+01
0.240943782512D-04 0.000000000000D+00 0.000000000000D+00 0.280778131837D-04 0.000000000000D+00  6 -1 2 25 24 1 -1 4 0.68049386D-02 0.24330058D+00 0.37828098D+05 0.37828098D+05 0.37828098D+05 0.12044702D+01  1  2 12  6  6  5       21 0.789668870367D-02 0.100000000000D+01
-.519146080805D-04 0.000000000000D+00 0.000000000000D+00 0.280801325154D-04 0.000000000000D+00  6 -1 2 25 24 1 -1 4 0.68049386D-02 0.24330058D+00 0.37785725D+05 0.37785725D+05 0.37785725D+05 0.12045199D+01  1  2  5  6  6  5       21 -.170174148113D-01 0.100000000000D+01
0.290295403330D-04 0.000000000000D+00 0.000000000000D+00 0.280801325154D-04 0.126228910938D-06  6 -1 2 25 24 1 -1 4 0.68049386D-02 0.24330058D+00 0.37828098D+05 0.37828098D+05 0.37828098D+05 0.12044702D+01  1  2 11  6  6  5       21 0.951413814583D-02 0.100000000000D+01
0.285520651530D-04 0.000000000000D+00 0.000000000000D+00 0.280778131837D-04 0.000000000000D+00  6 -1 2 25 24 2 -2 4 0.68049386D-02 0.24330058D+00 0.37828098D+05 0.37828098D+05 0.37828098D+05 0.12044702D+01  1  2 12  7  6  5       21 0.935765048632D-02 0.100000000000D+01
0.240943782512D-04 0.000000000000D+00 0.000000000000D+00 0.280778131837D-04 0.000000000000D+00  6 -1 2 25 24 2 -2 4 0.68049386D-02 0.24330058D+00 0.37828098D+05 0.37828098D+05 0.37828098D+05 0.12044702D+01  1  2 12  7  6  5       21 0.789668870367D-02 0.100000000000D+01
-.519146080805D-04 0.000000000000D+00 0.000000000000D+00 0.280801325154D-04 0.000000000000D+00  6 -1 2 25 24 2 -2 4 0.68049386D-02 0.24330058D+00 0.37785725D+05 0.37785725D+05 0.37785725D+05 0.12045199D+01  1  2  5  7  6  5       21 -.170174148113D-01 0.100000000000D+01
0.299815358866D-04 0.000000000000D+00 0.000000000000D+00 0.280801325154D-04 0.133929575502D-06  6 -1 2 25 24 2 -2 4 0.68049386D-02 0.24330058D+00 0.37828098D+05 0.37828098D+05 0.37828098D+05 0.12044702D+01  1  2 11  7  6  5       21 0.982614505698D-02 0.100000000000D+01
0.285520651530D-04 0.000000000000D+00 0.000000000000D+00 0.280778131837D-04 0.000000000000D+00  6 -1 2 25 24 3 -3 4 0.68049386D-02 0.24330058D+00 0.37828098D+05 0.37828098D+05 0.37828098D+05 0.12044702D+01  1  2 12  8  6  5       21 0.935765048632D-02 0.100000000000D+01
0.285520651530D-04 0.000000000000D+00 0.000000000000D+00 0.280778131837D-04 0.000000000000D+00  6 -1 2 25 24 4 -4 4 0.68049386D-02 0.24330058D+00 0.37828098D+05 0.37828098D+05 0.37828098D+05 0.12044702D+01  1  2 12  8  6  5       21 0.935765048632D-02 0.100000000000D+01
0.240943782512D-04 0.000000000000D+00 0.000000000000D+00 0.280778131837D-04 0.000000000000D+00  6 -1 2 25 24 3 -3 4 0.68049386D-02 0.24330058D+00 0.37828098D+05 0.37828098D+05 0.37828098D+05 0.12044702D+01  1  2 12  8  6  5       21 0.789668870367D-02 0.100000000000D+01
0.240943782512D-04 0.000000000000D+00 0.000000000000D+00 0.280778131837D-04 0.000000000000D+00  6 -1 2 25 24 4 -4 4 0.68049386D-02 0.24330058D+00 0.37828098D+05 0.37828098D+05 0.37828098D+05 0.12044702D+01  1  2 12  8  6  5       21 0.789668870367D-02 0.100000000000D+01
-.519146080805D-04 0.000000000000D+00 0.000000000000D+00 0.280801325154D-04 0.000000000000D+00  6 -1 2 25 24 3 -3 4 0.68049386D-02 0.24330058D+00 0.37785725D+05 0.37785725D+05 0.37785725D+05 0.12045199D+01  1  2  5  8  6  5       21 -.170174148113D-01 0.100000000000D+01
-.519146080805D-04 0.000000000000D+00 0.000000000000D+00 0.280801325154D-04 0.000000000000D+00  6 -1 2 25 24 4 -4 4 0.68049386D-02 0.24330058D+00 0.37785725D+05 0.37785725D+05 0.37785725D+05 0.12045199D+01  1  2  5  8  6  5       21 -.170174148113D-01 0.100000000000D+01
0.289477814993D-04 0.000000000000D+00 0.000000000000D+00 0.280801325154D-04 0.125840943628D-06  6 -1 2 25 24 3 -3 4 0.68049386D-02 0.24330058D+00 0.37828098D+05 0.37828098D+05 0.37828098D+05 0.12044702D+01  1  2 11  8  6  5       21 0.948734251527D-02 0.100000000000D+01
0.289477814993D-04 0.000000000000D+00 0.000000000000D+00 0.280801325154D-04 0.125840943628D-06  6 -1 2 25 24 4 -4 4 0.68049386D-02 0.24330058D+00 0.37828098D+05 0.37828098D+05 0.37828098D+05 0.12044702D+01  1  2 11  8  6  5       21 0.948734251527D-02 0.100000000000D+01
  </mgrwgt>
  </event>
  <event>
  5     66 -.43135346E-03 0.20377984E+02 0.75467711E-02 0.12136724E+00
       -3 -1    0    0    0  501 0.00000000E+00 0.00000000E+00 0.44846117E+03 0.44846145E+03 0.50000000E+00 0.0000E+00 0.9000E+01
        4 -1    0    0  502    0 0.00000000E+00 0.00000000E+00 -.58903754E+02 0.58924144E+02 0.15500000E+01 0.0000E+00 0.9000E+01
       25  1    1    2    0    0 0.69945831E+02 0.54740150E+02 0.31703645E+03 0.35217328E+03 0.12500000E+03 0.0000E+00 0.9000E+01
       24  1    1    2    0    0 -.52305151E+02 -.44543747E+02 0.80906999E+02 0.13316581E+03 0.80419002E+02 0.0000E+00 0.9000E+01
       21  1    1    2  502  501 -.17640680E+02 -.10196403E+02 -.83860404E+01 0.22046505E+02 0.75000000E+00 0.0000E+00 0.9000E+01
#aMCatNLO 1  0  0  2  2 0.10792389D+02 0.00000000D+00  -5  6  0 0.00000000D+00 0.00000000D+00 0.00000000D+00 0.00000000D+00 0.00000000D+00
  <mgrwgt>
 -.8835771110D-01    7    4    0
 0.162546269838600D+03 0.000000000000000D+00 0.000000000000000D+00 0.162546269838600D+03
 0.162546269838600D+03 0.000000000000000D+00 0.000000000000000D+00 -.162546269838600D+03
 0.169749848156965D+03 0.699471419887430D+02 0.547409075029200D+02 0.728068768913757D+02
 0.110885682476607D+03 -.523042947965603D+02 -.445432517465280D+02 -.332953163915332D+02
 0.444570090436288D+02 -.176428471921827D+02 -.101976557563920D+02 -.395115604998425D+02
 0.000000000000000D+00 -.000000000000000D+00 -.000000000000000D+00 -.000000000000000D+00
 0.165639841840324D+03 0.000000000000000D+00 0.000000000000000D+00 0.165639841840324D+03
 0.172329115017609D+03 0.000000000000000D+00 0.000000000000000D+00 -.172329115017609D+03
 0.172428608670026D+03 0.721845705857620D+02 0.599597492869525D+02 0.728068768913757D+02
 0.108903463650692D+03 -.508671425999559D+02 -.411910688238435D+02 -.332953163915332D+02
 0.439395603490711D+02 -.170648417441728D+02 -.884944782363779D+01 -.395115604998425D+02
 0.126973241881438D+02 -.425258624163328D+01 -.991923263947122D+01 -.668927317728475D+01
 0.162546269838600D+03 0.000000000000000D+00 0.000000000000000D+00 0.162546269838600D+03
 0.162546269838600D+03 0.000000000000000D+00 0.000000000000000D+00 -.162546269838600D+03
 0.169749848156965D+03 0.699471419887430D+02 0.547409075029200D+02 0.728068768913757D+02
 0.110885682476607D+03 -.523042947965603D+02 -.445432517465280D+02 -.332953163915332D+02
 0.000000000000000D+00 -.000000000000000D+00 -.000000000000000D+00 -.000000000000000D+00
 0.444570090436288D+02 -.176428471921827D+02 -.101976557563920D+02 -.395115604998425D+02
 0.165639841840324D+03 0.000000000000000D+00 0.000000000000000D+00 0.165639841840324D+03
 0.172329115017609D+03 0.000000000000000D+00 0.000000000000000D+00 -.172329115017609D+03
 0.172428608670026D+03 0.721845705857620D+02 0.599597492869525D+02 0.728068768913757D+02
 0.108903463650692D+03 -.508671425999559D+02 -.411910688238435D+02 -.332953163915332D+02
 0.126973241881438D+02 -.425258624163328D+01 -.991923263947122D+01 -.668927317728475D+01
 0.439395603490711D+02 -.170648417441728D+02 -.884944782363779D+01 -.395115604998425D+02
0.306799625591D-03 0.000000000000D+00 0.000000000000D+00 0.452570749187D-04 0.000000000000D+00  6 -3 4 25 24 21 21 2 0.68995616D-01 0.90637060D-02 0.19528689D+05 0.19528689D+05 0.19528689D+05 0.12349679D+01  1  2  2  2  6  2        4 0.170416037633D-01 0.100000000000D+01
0.503899965058D-04 0.161902610448D-04 -.117819134447D-05 0.452570749187D-04 0.000000000000D+00  6 -3 4 25 24 21 21 4 0.68995616D-01 0.90637060D-02 0.19528689D+05 0.19528689D+05 0.19528689D+05 0.12349679D+01  1  2  3  2  6  2        4 0.426885390248D-02 0.100000000000D+01
0.119024332092D-04 0.000000000000D+00 0.000000000000D+00 0.452570749187D-04 0.000000000000D+00  6 -3 4 25 24 21 21 4 0.68995616D-01 0.90637060D-02 0.19528689D+05 0.19528689D+05 0.19528689D+05 0.12349679D+01  1  2 15  2  6  2        4 0.100833006504D-02 0.100000000000D+01
-.280508512112D-03 0.000000000000D+00 0.000000000000D+00 0.452570749187D-04 0.000000000000D+00  6 -3 4 25 24 21 21 4 0.68995616D-01 0.90637060D-02 0.19528689D+05 0.19528689D+05 0.19528689D+05 0.12349679D+01  1  2  4  2  6  2        4 -.237636423823D-01 0.100000000000D+01
-.644571035306D-02 0.000000000000D+00 -.104167420642D-02 0.452570749187D-04 0.000000000000D+00  6 -3 4 25 24 21 21 4 0.68995616D-01 0.97861619D-02 0.19528689D+05 0.19528689D+05 0.19528689D+05 0.12349679D+01  1  2  5  2  6  2        4 -.480113039825D+00 0.100000000000D+01
0.650950113769D-02 0.000000000000D+00 0.103861836679D-02 0.452570749187D-04 0.000000000000D+00  6 -3 4 25 24 21 21 4 0.68995616D-01 0.90637060D-02 0.19528689D+05 0.19528689D+05 0.19528689D+05 0.12349679D+01  1  2  6  2  6  2        4 0.551460830756D+00 0.100000000000D+01
-.808327686876D-04 0.000000000000D+00 -.133998585445D-04 0.452570749187D-04 0.000000000000D+00  6 -3 21 25 24 -4 21 4 0.68995616D-01 0.97861619D-02 0.19528689D+05 0.19528689D+05 0.19528689D+05 0.12349679D+01  3  4  5  5  5  2        4 -.158260647378D+00 0.100000000000D+01
  </mgrwgt>
  </event>
  <event>
  5     66 0.43135346E-03 0.10053866E+03 0.75467711E-02 0.10222822E+00
       -1 -1    0    0    0  501 0.00000000E+00 0.00000000E+00 0.18655517E+03 0.18655544E+03 0.32000000E+00 0.0000E+00 0.9000E+01
        2 -1    0    0  502    0 0.00000000E+00 0.00000000E+00 -.64830958E+03 0.64830965E+03 0.32000000E+00 0.0000E+00 0.9000E+01
       25  1    1    2    0    0 0.10635265E+03 -.78114032E+02 -.28063337E+03 0.33435427E+03 0.12500000E+03 0.0000E+00 0.9000E+01
       24  1    1    2    0    0 -.64122504E+02 -.13124769E+02 0.13417634E+03 0.16957141E+03 0.80419002E+02 0.0000E+00 0.9000E+01
       21  1    1    2  502  501 -.42230148E+02 0.91238801E+02 -.31529737E+03 0.33093942E+03 0.75000000E+00 0.0000E+00 0.9000E+01
#aMCatNLO 1  0  0  1  5 0.43659004D+01 0.00000000D+00  -5  6  0 0.00000000D+00 0.00000000D+00 0.00000000D+00 0.00000000D+00 0.00000000D+00
  <mgrwgt>
 0.9216871155D-01    5    4    0
 0.347772412303592D+03 0.000000000000000D+00 0.000000000000000D+00 0.347772412303592D+03
 0.347772412303592D+03 0.000000000000000D+00 0.000000000000000D+00 -.347772412303592D+03
 0.215021315069908D+03 0.106352755701141D+03 -.781142567194222D+02 -.114875672735084D+03
 0.292613923107688D+03 -.641223620255238D+02 -.131250749680374D+02 0.273627021943105D+03
 0.187909586429588D+03 -.422303936756174D+02 0.912393316874597D+02 -.158751349208021D+03
 0.000000000000000D+00 0.000000000000000D+00 0.000000000000000D+00 0.000000000000000D+00
 0.705267780408913D+03 0.000000000000000D+00 0.000000000000000D+00 0.705267780408913D+03
 0.513399876250935D+03 0.000000000000000D+00 0.000000000000000D+00 -.513399876250935D+03
 0.233289477117346D+03 0.243843482663271D+02 -.158139063823500D+03 -.114875672735084D+03
 0.363593577217904D+03 -.184102261429780D+03 -.130260061564279D+03 0.273627021943105D+03
 0.195835188912572D+03 -.112393656850172D+03 0.227397502383316D+02 -.158751349208021D+03
 0.425949413412026D+03 0.272111570013625D+03 0.265659375149447D+03 0.191867904157977D+03
 0.347772412303592D+03 0.000000000000000D+00 0.000000000000000D+00 0.347772412303592D+03
 0.347772412303592D+03 0.000000000000000D+00 0.000000000000000D+00 -.347772412303592D+03
 0.215021315069908D+03 0.106352755701141D+03 -.781142567194222D+02 -.114875672735084D+03
 0.292613923107688D+03 -.641223620255238D+02 -.131250749680374D+02 0.273627021943105D+03
 0.000000000000000D+00 0.000000000000000D+00 0.000000000000000D+00 0.000000000000000D+00
 0.187909586429588D+03 -.422303936756174D+02 0.912393316874597D+02 -.158751349208021D+03
 0.705267780408913D+03 0.000000000000000D+00 0.000000000000000D+00 0.705267780408913D+03
 0.513399876250935D+03 0.000000000000000D+00 0.000000000000000D+00 -.513399876250935D+03
 0.233289477117346D+03 0.243843482663271D+02 -.158139063823500D+03 -.114875672735084D+03
 0.363593577217904D+03 -.184102261429780D+03 -.130260061564279D+03 0.273627021943105D+03
 0.425949413412026D+03 0.272111570013625D+03 0.265659375149447D+03 0.191867904157977D+03
 0.195835188912572D+03 -.112393656850172D+03 0.227397502383316D+02 -.158751349208021D+03
0.884589297081D-03 0.000000000000D+00 0.000000000000D+00 0.882119010263D-06 0.000000000000D+00  6 -1 2 25 24 21 21 2 0.28700823D-01 0.99739962D-01 0.37246944D+05 0.37246944D+05 0.37246944D+05 0.12051579D+01  1  2  2  1  6  1       -1 0.749679314362D-01 0.100000000000D+01
-.616421134144D-04 0.466810596967D-04 -.339705581850D-05 0.882119010263D-06 0.000000000000D+00  6 -1 2 25 24 21 21 4 0.28700823D-01 0.99739962D-01 0.37246944D+05 0.37246944D+05 0.37246944D+05 0.12051579D+01  1  2  3  1  6  1       -1 -.758751050043D-02 0.100000000000D+01
0.322545720687D-04 0.000000000000D+00 0.000000000000D+00 0.882119010263D-06 0.000000000000D+00  6 -1 2 25 24 21 21 4 0.28700823D-01 0.99739962D-01 0.37246944D+05 0.37246944D+05 0.37246944D+05 0.12051579D+01  1  2 15  1  6  1       -1 0.397020625514D-02 0.100000000000D+01
0.459814680250D-03 0.000000000000D+00 -.470755480376D-03 0.882119010263D-06 0.000000000000D+00  6 -1 2 25 24 21 21 4 0.82061260D-01 0.99739962D-01 0.37246944D+05 0.37246944D+05 0.37246944D+05 0.12051579D+01  1  2  5  1  6  1       -1 0.812598696534D-02 0.100000000000D+01
0.799775175626D-04 0.000000000000D+00 -.557578792081D-04 0.882119010263D-06 0.000000000000D+00  6 21 2 25 24 1 21 4 0.82061260D-01 0.99739962D-01 0.37246944D+05 0.37246944D+05 0.37246944D+05 0.12051579D+01  3  4  5  4  5  1       -1 0.126920973925D-01 0.100000000000D+01
  </mgrwgt>
  </event>
  <event>
  6     66 0.43135346E-03 0.19037383E+02 0.75467711E-02 0.12228756E+00
       -1 -1    0    0    0  503 0.00000000E+00 0.00000000E+00 0.61700700E+02 0.61701530E+02 0.32000000E+00 0.0000E+00 0.9000E+01
        2 -1    0    0  502    0 0.00000000E+00 0.00000000E+00 -.13016160E+04 0.13016160E+04 0.32000000E+00 0.0000E+00 0.9000E+01
       25  1    1    2    0    0 0.42795565E+02 -.27607530E+02 -.10530427E+04 0.10616580E+04 0.12500000E+03 0.0000E+00 0.9000E+01
       24  1    1    2    0    0 -.53650725E+01 0.39336005E+02 -.17278459E+03 0.19467366E+03 0.80419002E+02 0.0000E+00 0.9000E+01
       21  1    1    2  502  501 -.10905742E+02 -.10343726E+02 -.55653835E+02 0.57652752E+02 0.75000000E+00 0.0000E+00 0.9000E+01
       21  1    1    2  501  503 -.26524750E+02 -.13847488E+01 0.41565861E+02 0.49333185E+02 0.75000000E+00 0.0000E+00 0.9000E+01
#aMCatNLO 2  0  0  1  5 0.85667524D+01 0.00000000D+00  -5  6  0 0.00000000D+00 0.00000000D+00 0.00000000D+00 0.00000000D+00 0.00000000D+00
  <mgrwgt>
 0.5457759138D+00    1    2    0
 0.144616315708658D+03 0.000000000000000D+00 0.000000000000000D+00 0.144616315708658D+03
 0.144616315708658D+03 0.000000000000000D+00 0.000000000000000D+00 -.144616315708658D+03
 0.153685729653372D+03 0.285946820565344D+02 -.283434504940384D+02 -.798329284898597D+02
 0.119162899538035D+03 -.162282134679293D+02 0.387731103958707D+02 0.772390553399650D+02
 0.163840022259089D+02 -.123664685886051D+02 -.104296599018322D+02 0.259387314989462D+01
 0.000000000000000D+00 -.000000000000000D+00 -.000000000000000D+00 0.000000000000000D+00
 0.551361630913457D+03 0.000000000000000D+00 0.000000000000000D+00 0.551361630913457D+03
 0.145659083854534D+03 0.000000000000000D+00 0.000000000000000D+00 -.145659083854534D+03
 0.156819039726645D+03 0.428025711290343D+02 -.276017146978935D+02 -.798329284898597D+02
 0.118361690868261D+03 -.535970719917884D+01 0.393405106696919D+02 0.772390553399650D+02
 0.152689121656698D+02 -.109181137134293D+02 -.103540472157424D+02 0.259387314989462D+01
 0.406571072007415D+03 -.265247502164262D+02 -.138474875605607D+01 0.405702547058923D+03
0.174110444338D-02 0.000000000000D+00 0.000000000000D+00 0.558946486890D-04 0.764182939553D-06  6 -1 2 25 24 21 21 4 0.94924597D-02 0.20024821D+00 0.17725132D+05 0.17725132D+05 0.17725132D+05 0.12396414D+01  1  2  1  1  6  1       -1 0.545775913781D+00 0.100000000000D+01
  </mgrwgt>
  </event>
  <event>
  6     66 -.43135346E-03 0.11075087E+02 0.75467711E-02 0.11999372E+00
       -1 -1    0    0    0  501 0.00000000E+00 0.00000000E+00 0.31822445E+02 0.31824054E+02 0.32000000E+00 0.0000E+00 0.9000E+01
        2 -1    0    0  502    0 -.00000000E+00 -.00000000E+00 -.81531958E+03 0.81531964E+03 0.32000000E+00 0.0000E+00 0.9000E+01
       25  1    1    2    0    0 -.45762260E+02 -.86091318E+02 -.29205408E+03 0.33230481E+03 0.12500000E+03 0.0000E+00 0.9000E+01
       24  1    1    2    0    0 0.56414414E+02 0.72364722E+02 -.33962837E+03 0.36087932E+03 0.80419002E+02 0.0000E+00 0.9000E+01
       21  1    1    2  503  501 -.10396227E+02 0.90072531E+01 -.14488315E+03 0.14553660E+03 0.75000000E+00 0.0000E+00 0.9000E+01
       21  1    1    2  502  503 -.25592756E+00 0.47193433E+01 -.69315286E+01 0.84229620E+01 0.75000000E+00 0.0000E+00 0.9000E+01
#aMCatNLO 2  0  0  5  1 0.54323138D+01 0.00000000D+00  -5  6  0 0.00000000D+00 0.00000000D+00 0.00000000D+00 0.00000000D+00 0.00000000D+00
  <mgrwgt>
 -.4962092329D+00    2    2    0
 0.161078150037470D+03 0.000000000000000D+00 0.000000000000000D+00 0.161078150037470D+03
 0.161078150037470D+03 -.000000000000000D+00 -.000000000000000D+00 -.161078150037470D+03
 0.164505179111246D+03 -.447914726413536D+02 -.873422957474563D+02 0.424499859435300D+02
 0.122567141057719D+03 0.571410573783488D+02 0.714283534199009D+02 -.137250865971114D+02
 0.350839799059750D+02 -.123495847369951D+02 0.159139423275553D+02 -.287248993464186D+02
 0.000000000000000D+00 0.000000000000000D+00 0.000000000000000D+00 0.000000000000000D+00
 0.161078150037470D+03 0.000000000000000D+00 0.000000000000000D+00 0.161078150037470D+03
 0.161078150037470D+03 -.000000000000000D+00 -.000000000000000D+00 -.161078150037470D+03
 0.163515905212167D+03 -.457901418117149D+02 -.860553890279269D+02 0.401271004368568D+02
 0.122992426507905D+03 0.563934445530304D+02 0.723917434964771D+02 -.154640198175161D+02
 0.301997651447961D+02 -.103307038650693D+02 0.874770778508680D+01 -.269959252658585D+02
 0.544820321007145D+01 -.272598876246177D+00 0.491593774636291D+01 0.233284464651774D+01
-.437410886302D-04 0.000000000000D+00 0.000000000000D+00 0.487834859992D-04 0.000000000000D+00  6 -1 2 25 24 21 21 4 0.48958894D-02 0.12543391D+00 0.22349136D+05 0.22349136D+05 0.22349136D+05 0.12285513D+01  1  2 13  3  6  5       21 -.692808033830D-01 0.100000000000D+01
-.269984214542D-03 0.000000000000D+00 0.000000000000D+00 0.487365299903D-04 0.000000000000D+00  6 -1 2 25 24 21 21 4 0.48958894D-02 0.12543391D+00 0.22631242D+05 0.22631242D+05 0.22631242D+05 0.12279599D+01  1  2  8  3  6  5       21 -.426928429561D+00 0.100000000000D+01
  </mgrwgt>
  </event>
  <event>
  6     66 0.43135346E-03 0.48967865E+02 0.75467711E-02 0.12116612E+00
       -1 -1    0    0    0  501 0.00000000E+00 0.00000000E+00 0.90565615E+02 0.90566180E+02 0.32000000E+00 0.0000E+00 0.9000E+01
        2 -1    0    0  503    0 0.00000000E+00 0.00000000E+00 -.60213639E+03 0.60213648E+03 0.32000000E+00 0.0000E+00 0.9000E+01
       25  1    1    2    0    0 -.96445324E+01 -.40807047E+02 0.16173500E+02 0.13283378E+03 0.12500000E+03 0.0000E+00 0.9000E+01
       24  1    1    2    0    0 0.43804602E+02 -.35769774E+01 -.13858910E+03 0.16614991E+03 0.80419002E+02 0.0000E+00 0.9000E+01
       21  1    1    2  502  501 -.16508236E+02 0.75453575E+01 -.92867778E+02 0.94627908E+02 0.75000000E+00 0.0000E+00 0.9000E+01
       21  1    1    2  503  502 -.17651834E+02 0.36838667E+02 -.29628740E+03 0.29909105E+03 0.75000000E+00 0.0000E+00 0.9000E+01
#aMCatNLO 2  0  0  2  1 0.40849414D+02 0.00000000D+00  -5  6  0 0.00000000D+00 0.00000000D+00 0.00000000D+00 0.00000000D+00 0.00000000D+00
  <mgrwgt>
 0.7488183307D-01    1    2    0
 0.163488903859622D+03 0.000000000000000D+00 0.000000000000000D+00 0.163488903859622D+03
 0.163488903859622D+03 0.000000000000000D+00 0.000000000000000D+00 -.163488903859622D+03
 0.166476920670510D+03 -.186701908696006D+02 -.219695641114006D+02 0.106105265381051D+03
 0.105993109184810D+03 0.380534371792049D+02 0.842629779725090D+01 -.569934791408011D+02
 0.545077778639226D+02 -.193832463096043D+02 0.135432663141497D+02 -.491117862402495D+02
 0.000000000000000D+00 -.000000000000000D+00 0.000000000000000D+00 -.000000000000000D+00
 0.167349285344065D+03 0.000000000000000D+00 0.000000000000000D+00 0.167349285344065D+03
 0.325860528043109D+03 0.000000000000000D+00 0.000000000000000D+00 -.325860528043109D+03
 0.169238315159415D+03 -.964351444825127D+01 -.408078743075470D+02 0.106105265381051D+03
 0.107922019818026D+03 0.438051649682827D+02 -.357732648224302D+01 -.569934791408011D+02
 0.523592567638685D+02 -.165098165729125D+02 0.754653416380861D+01 -.491117862402495D+02
 0.163690221645864D+03 -.176518339471189D+02 0.368386666259814D+02 -.158511242699044D+03
0.158261087134D-03 0.000000000000D+00 0.000000000000D+00 0.291427200466D-04 0.470270466081D-06  6 -1 2 25 24 21 21 4 0.13933151D-01 0.92635950D-01 0.19950634D+05 0.19950634D+05 0.19950634D+05 0.12339442D+01  1  2  1  2  6  2        2 0.748818330673D-01 0.100000000000D+01
  </mgrwgt>
  </event>
  <event>
  6     66 -.43135346E-03 0.54432538E+02 0.75467711E-02 0.11498267E+00
       -1 -1    0    0    0  501 0.00000000E+00 0.00000000E+00 0.10934154E+04 0.10934154E+04 0.32000000E+00 0.0000E+00 0.9000E+01
        2 -1    0    0  503    0 0.00000000E+00 0.00000000E+00 -.41717658E+02 0.41718885E+02 0.32000000E+00 0.0000E+00 0.9000E+01
       25  1    1    2    0    0 0.61347742E+02 -.40963575E+02 0.24874497E+03 0.28799413E+03 0.12500000E+03 0.0000E+00 0.9000E+01
       24  1    1    2    0    0 -.86993151E+02 0.11135410E+03 0.58942262E+03 0.61143584E+03 0.80419002E+02 0.0000E+00 0.9000E+01
       21  1    1    2  502  501 0.79481597E+00 -.66967055E+02 0.18938309E+03 0.20087742E+03 0.75000000E+00 0.0000E+00 0.9000E+01
       21  1    1    2  503  502 0.24850593E+02 -.34234692E+01 0.24147012E+02 0.34826897E+02 0.75000000E+00 0.0000E+00 0.9000E+01
#aMCatNLO 2  0  0  2  5 0.25085296D+02 0.00000000D+00  -5  6  0 0.00000000D+00 0.00000000D+00 0.00000000D+00 0.00000000D+00 0.00000000D+00
  <mgrwgt>
 -.3705276466D-01    2    2    0
 0.196333051940058D+03 0.000000000000000D+00 0.000000000000000D+00 0.196333051940058D+03
 0.196333051940058D+03 0.000000000000000D+00 0.000000000000000D+00 -.196333051940058D+03
 0.160310739607542D+03 0.713388156672800D+02 -.423383024883577D+02 -.565046436597135D+02
 0.164422560712713D+03 -.764044319188169D+02 0.109897081845012D+03 0.515029776039116D+02
 0.679328035598612D+02 0.506561625153686D+01 -.675587793566542D+02 0.500166605580188D+01
 0.000000000000000D+00 0.000000000000000D+00 -.000000000000000D+00 -.000000000000000D+00
 0.202181754836561D+03 0.000000000000000D+00 0.000000000000000D+00 0.202181754836561D+03
 0.225607082099932D+03 0.000000000000000D+00 0.000000000000000D+00 -.225607082099932D+03
 0.155753604468260D+03 0.613476443255024D+02 -.409618979718408D+02 -.565046436597135D+02
 0.170551277330790D+03 -.869933549455245D+02 0.111355833875224D+03 0.515029776039116D+02
 0.671616875921096D+02 0.795118064288356D+00 -.669704666562076D+02 0.500166605580188D+01
 0.343222675453341D+02 0.248505925557338D+02 -.342346924717519D+01 -.234253272633714D+02
-.149257842929D-02 0.000000000000D+00 0.000000000000D+00 0.366167349258D-05 0.000000000000D+00  6 -1 2 25 24 21 21 4 0.16334840D+00 0.68531180D-02 0.39958451D+05 0.39958451D+05 0.39958451D+05 0.12020461D+01  1  2 13  2  6  2        2 -.111003116368D+00 0.100000000000D+01
0.990343946057D-03 0.000000000000D+00 0.000000000000D+00 0.369799602568D-05 0.225019963194D-07  6 -1 2 25 24 21 21 4 0.16821450D+00 0.64180715D-02 0.39958451D+05 0.39958451D+05 0.39958451D+05 0.12020461D+01  1  2  1  2  6  2        2 0.739503517126D-01 0.100000000000D+01
  </mgrwgt>
  </event>
  <event>
  5     66 0.43135346E-03 0.85362230E+02 0.75467711E-02 0.11263573E+00
       -1 -1    0    0    0  501 0.00000000E+00 0.00000000E+00 0.12447414E+03 0.12447455E+03 0.32000000E+00 0.0000E+00 0.9000E+01
        2 -1    0    0  502    0 -.00000000E+00 -.00000000E+00 -.58828217E+03 0.58828226E+03 0.32000000E+00 0.0000E+00 0.9000E+01
       25  1    1    2    0    0 0.37958599E+02 -.17826719E+03 -.77637686E+02 0.23424914E+03 0.12500000E+03 0.0000E+00 0.9000E+01
       24  1    1    2    0    0 0.27884686E+02 0.12394192E+03 -.10173568E+03 0.18153931E+03 0.80419002E+02 0.0000E+00 0.9000E+01
       21  1    1    2  502  501 -.65843285E+02 0.54325268E+02 -.28443466E+03 0.29696837E+03 0.75000000E+00 0.0000E+00 0.9000E+01
#aMCatNLO 1  0  0  5  1 0.33691448D+02 0.00000000D+00  -5  6  0 0.00000000D+00 0.00000000D+00 0.00000000D+00 0.00000000D+00 0.00000000D+00
  <mgrwgt>
 0.9571869825D-01   15    2    0
 0.270603209976736D+03 0.000000000000000D+00 0.000000000000000D+00 0.270603209976736D+03
 0.270603209976736D+03 -.000000000000000D+00 -.000000000000000D+00 -.270603209976736D+03
 0.241966820756451D+03 0.379589803269699D+02 -.178267507310261D+03 0.985025583267119D+02
 0.151896802670544D+03 0.278849252304444D+02 0.123941727129094D+03 0.215940252920425D+02
 0.147342796526476D+03 -.658439055574143D+02 0.543257801811664D+02 -.120096583618754D+03
 0.000000000000000D+00 0.000000000000000D+00 0.000000000000000D+00 -.000000000000000D+00
 0.270603209976736D+03 0.000000000000000D+00 0.000000000000000D+00 0.270603209976736D+03
 0.270603209976736D+03 -.000000000000000D+00 -.000000000000000D+00 -.270603209976736D+03
 0.237239365037048D+03 0.347839541791653D+02 -.175647890944633D+03 0.927114408341589D+02
 0.152427346028830D+03 0.258685966475215D+02 0.125605337791942D+03 0.179163246421208D+02
 0.742306278694035D+02 -.594007122926671D+02 0.225483525754187D+02 -.383837633530671D+02
 0.773090810181910D+02 -.125183853401963D+01 0.274942005772713D+02 -.722440021232126D+02
0.255768689272D-03 0.000000000000D+00 0.000000000000D+00 0.278938549152D-05 0.000000000000D+00  6 -1 2 25 24 21 21 2 0.19149907D-01 0.90504988D-01 0.52149601D+05 0.52149601D+05 0.52149601D+05 0.11904755D+01  1  2  2  3  6  5       21 0.461518788630D-01 0.100000000000D+01
-.210413481634D-05 0.134972845498D-04 -.982219112247D-06 0.278938549152D-05 0.000000000000D+00  6 -1 2 25 24 21 21 4 0.19149907D-01 0.90504988D-01 0.52149601D+05 0.52149601D+05 0.52149601D+05 0.11904755D+01  1  2  3  3  6  5       21 -.538091965951D-03 0.100000000000D+01
0.139455531013D-04 0.000000000000D+00 0.000000000000D+00 0.278938549152D-05 0.000000000000D+00  6 -1 2 25 24 21 21 4 0.19149907D-01 0.90504988D-01 0.52149601D+05 0.52149601D+05 0.52149601D+05 0.11904755D+01  1  2 15  3  6  5       21 0.356630669589D-02 0.100000000000D+01
0.137515322180D-03 0.000000000000D+00 0.000000000000D+00 0.278582369617D-05 0.000000000000D+00  6 -1 2 25 24 21 21 4 0.19149907D-01 0.90504988D-01 0.53084987D+05 0.53084987D+05 0.53084987D+05 0.11897152D+01  1  2 12  3  6  5       21 0.350790552456D-01 0.100000000000D+01
-.145368628949D-03 0.000000000000D+00 0.000000000000D+00 0.278938549152D-05 0.000000000000D+00  6 -1 2 25 24 21 21 4 0.19149907D-01 0.90504988D-01 0.52149601D+05 0.52149601D+05 0.52149601D+05 0.11904755D+01  1  2  4  3  6  5       21 -.371752279043D-01 0.100000000000D+01
-.239638149443D-03 0.000000000000D+00 0.000000000000D+00 0.278938549152D-05 0.000000000000D+00  6 -1 2 25 24 21 21 4 0.19149907D-01 0.90504988D-01 0.52149601D+05 0.52149601D+05 0.52149601D+05 0.11904755D+01  1  2  5  3  6  5       21 -.612828426910D-01 0.100000000000D+01
0.437362863875D-03 0.000000000000D+00 -.000000000000D+00 0.278938549152D-05 0.000000000000D+00  6 -1 2 25 24 21 21 4 0.19149907D-01 0.90504988D-01 0.52149601D+05 0.52149601D+05 0.52149601D+05 0.11904755D+01  1  2  6  3  6  5       21 0.111847131386D+00 0.100000000000D+01
0.531163833451D-05 0.000000000000D+00 0.000000000000D+00 0.278582369617D-05 0.000000000000D+00  6 -1 2 25 24 1 -1 4 0.19149907D-01 0.90504988D-01 0.53084987D+05 0.53084987D+05 0.53084987D+05 0.11897152D+01  1  2 12  6  6  5       21 0.135495631779D-02 0.100000000000D+01
-.718464319005D-05 0.000000000000D+00 0.000000000000D+00 0.278938549152D-05 0.000000000000D+00  6 -1 2 25 24 1 -1 4 0.19149907D-01 0.90504988D-01 0.52149601D+05 0.52149601D+05 0.52149601D+05 0.11904755D+01  1  2  5  6  6  5       21 -.183733416165D-02 0.100000000000D+01
0.531163833451D-05 0.000000000000D+00 0.000000000000D+00 0.278582369617D-05 0.000000000000D+00  6 -1 2 25 24 2 -2 4 0.19149907D-01 0.90504988D-01 0.53084987D+05 0.53084987D+05 0.53084987D+05 0.11897152D+01  1  2 12  7  6  5       21 0.135495631779D-02 0.100000000000D+01
-.718464319005D-05 0.000000000000D+00 0.000000000000D+00 0.278938549152D-05 0.000000000000D+00  6 -1 2 25 24 2 -2 4 0.19149907D-01 0.90504988D-01 0.52149601D+05 0.52149601D+05 0.52149601D+05 0.11904755D+01  1  2  5  7  6  5       21 -.183733416165D-02 0.100000000000D+01
0.531163833451D-05 0.000000000000D+00 0.000000000000D+00 0.278582369617D-05 0.000000000000D+00  6 -1 2 25 24 3 -3 4 0.19149907D-01 0.90504988D-01 0.53084987D+05 0.53084987D+05 0.53084987D+05 0.11897152D+01  1  2 12  8  6  5       21 0.135495631779D-02 0.100000000000D+01
0.531163833451D-05 0.000000000000D+00 0.000000000000D+00 0.278582369617D-05 0.000000000000D+00  6 -1 2 25 24 4 -4 4 0.19149907D-01 0.90504988D-01 0.53084987D+05 0.53084987D+05 0.53084987D+05 0.11897152D+01  1  2 12  8  6  5       21 0.135495631779D-02 0.100000000000D+01
-.718464319005D-05 0.000000000000D+00 0.000000000000D+00 0.278938549152D-05 0.000000000000D+00  6 -1 2 25 24 3 -3 4 0.19149907D-01 0.90504988D-01 0.52149601D+05 0.52149601D+05 0.52149601D+05 0.11904755D+01  1  2  5  8  6  5       21 -.183733416165D-02 0.100000000000D+01
-.718464319005D-05 0.000000000000D+00 0.000000000000D+00 0.278938549152D-05 0.000000000000D+00  6 -1 2 25 24 4 -4 4 0.19149907D-01 0.90504988D-01 0.52149601D+05 0.52149601D+05 0.52149601D+05 0.11904755D+01  1  2  5  8  6  5       21 -.183733416165D-02 0.100000000000D+01
  </mgrwgt>
  </event>
  <event>
  5     66 0.43135346E-03 0.41124307E+02 0.75467711E-02 0.11099514E+00
       -1 -1    0    0    0  501 0.00000000E+00 0.00000000E+00 0.91048719E+02 0.91049281E+02 0.32000000E+00 0.0000E+00 0.9000E+01
        2 -1    0    0  502    0 0.00000000E+00 0.00000000E+00 -.49441370E+03 0.49441380E+03 0.32000000E+00 0.0000E+00 0.9000E+01
       25  1    1    2    0    0 -.90489920E+02 -.43719689E+02 -.34353667E+03 0.37913359E+03 0.12500000E+03 0.0000E+00 0.9000E+01
       24  1    1    2    0    0 0.51434231E+02 0.56596460E+02 -.99598131E+02 0.14911621E+03 0.80419002E+02 0.0000E+00 0.9000E+01
       21  1    1    2  502  501 0.39055689E+02 -.12876771E+02 0.39769825E+02 0.57213281E+02 0.75000000E+00 0.0000E+00 0.9000E+01
#aMCatNLO 1  0  0  2  2 0.27829646D+03 0.00000000D+00  -5  6  0 0.00000000D+00 0.00000000D+00 0.00000000D+00 0.00000000D+00 0.00000000D+00
  <mgrwgt>
 0.2007574432D+00    6    4    0
 0.212169575285414D+03 0.000000000000000D+00 0.000000000000000D+00 0.212169575285414D+03
 0.212169575285414D+03 0.000000000000000D+00 0.000000000000000D+00 -.212169575285414D+03
 0.196537079621408D+03 -.904902934086146D+02 -.437195654386093D+02 -.113586663225898D+03
 0.111061163404955D+03 0.514340204841176D+02 0.565965291822384D+02 0.432902804968886D+01
 0.116740907544465D+03 0.390562729244970D+02 -.128769637436291D+02 0.109257635176209D+03
 0.000000000000000D+00 -.000000000000000D+00 0.000000000000000D+00 -.000000000000000D+00
 0.269791476294028D+03 0.000000000000000D+00 0.000000000000000D+00 0.269791476294028D+03
 0.353511978644270D+03 0.000000000000000D+00 0.000000000000000D+00 -.353511978644270D+03
 0.219247776433509D+03 -.797970796992808D+02 -.114782766475247D+03 -.113586663225898D+03
 0.100686011785569D+03 0.568797642712866D+02 0.204061007422068D+02 0.432902804968886D+01
 0.130538437373674D+03 0.454158380760582D+02 -.551403159177755D+02 0.109257635176209D+03
 0.172831229345546D+03 -.224985226480639D+02 0.149516981650816D+03 -.837205023502416D+02
 0.212169575285414D+03 0.000000000000000D+00 0.000000000000000D+00 0.212169575285414D+03
 0.212169575285414D+03 0.000000000000000D+00 0.000000000000000D+00 -.212169575285414D+03
 0.196537079621408D+03 -.904902934086146D+02 -.437195654386093D+02 -.113586663225898D+03
 0.111061163404955D+03 0.514340204841176D+02 0.565965291822384D+02 0.432902804968886D+01
 0.000000000000000D+00 -.000000000000000D+00 0.000000000000000D+00 -.000000000000000D+00
 0.116740907544465D+03 0.390562729244970D+02 -.128769637436291D+02 0.109257635176209D+03
 0.269791476294028D+03 0.000000000000000D+00 0.000000000000000D+00 0.269791476294028D+03
 0.353511978644270D+03 0.000000000000000D+00 0.000000000000000D+00 -.353511978644270D+03
 0.219247776433509D+03 -.797970796992808D+02 -.114782766475247D+03 -.113586663225898D+03
 0.100686011785569D+03 0.568797642712866D+02 0.204061007422068D+02 0.432902804968886D+01
 0.172831229345546D+03 -.224985226480639D+02 0.149516981650816D+03 -.837205023502416D+02
 0.130538437373674D+03 0.454158380760582D+02 -.551403159177755D+02 0.109257635176209D+03
0.257240322359D-03 0.000000000000D+00 0.000000000000D+00 0.136187451379D-04 0.000000000000D+00  6 -1 2 25 24 21 21 2 0.14007546D-01 0.76063697D-01 0.24412638D+05 0.24412638D+05 0.24412638D+05 0.12244062D+01  1  2  2  2  6  2        2 0.975894077271D-01 0.100000000000D+01
0.154795199897D-04 0.135749447615D-04 -.987870570793D-06 0.136187451379D-04 0.000000000000D+00  6 -1 2 25 24 21 21 4 0.14007546D-01 0.76063697D-01 0.24412638D+05 0.24412638D+05 0.24412638D+05 0.12244062D+01  1  2  3  2  6  2        2 0.880384040761D-02 0.100000000000D+01
0.141316099621D-04 0.000000000000D+00 0.000000000000D+00 0.136187451379D-04 0.000000000000D+00  6 -1 2 25 24 21 21 4 0.14007546D-01 0.76063697D-01 0.24412638D+05 0.24412638D+05 0.24412638D+05 0.12244062D+01  1  2 15  2  6  2        2 0.803722847293D-02 0.100000000000D+01
-.124775646175D-03 0.000000000000D+00 -.150602580262D-03 0.136187451379D-04 0.000000000000D+00  6 -1 2 25 24 21 21 4 0.14007546D-01 0.15032168D+00 0.24412638D+05 0.24412638D+05 0.24412638D+05 0.12244062D+01  1  2  5  2  6  2        2 -.312142870365D-01 0.100000000000D+01
0.206768180770D-03 0.000000000000D+00 0.121342789963D-03 0.136187451379D-04 0.000000000000D+00  6 -1 2 25 24 21 21 4 0.14007546D-01 0.76063697D-01 0.24412638D+05 0.24412638D+05 0.24412638D+05 0.12244062D+01  1  2  6  2  6  2        2 0.117597578354D+00 0.100000000000D+01
-.256389393096D-06 0.000000000000D+00 -.111074309489D-04 0.136187451379D-04 0.000000000000D+00  6 -1 21 25 24 -2 21 4 0.14007546D-01 0.15032168D+00 0.24412638D+05 0.24412638D+05 0.24412638D+05 0.12244062D+01  3  4  5  5  5  2        2 -.563247564687D-04 0.100000000000D+01
  </mgrwgt>
  </event>
  <event>
  6     66 -.43135346E-03 0.30472088E+02 0.75467711E-02 0.11720779E+00
       -1 -1    0    0    0  501 0.00000000E+00 0.00000000E+00 0.23809449E+03 0.23809471E+03 0.32000000E+00 0.0000E+00 0.9000E+01
       21 -1    0    0  502  503 0.00000000E+00 0.00000000E+00 -.19934736E+03 0.19934877E+03 0.75000000E+00 0.0000E+00 0.9000E+01
       25  1    1    2    0    0 0.50070260E+02 -.10147998E+03 -.19362513E+02 0.16972073E+03 0.12500000E+03 0.0000E+00 0.9000E+01
       24  1    1    2    0    0 -.29444426E+02 0.93571590E+02 0.24050400E+02 0.12910559E+03 0.80419002E+02 0.0000E+00 0.9000E+01
       -2  1    1    2    0  503 0.14897539E+02 -.80147549E+01 -.46314848E+02 0.49308625E+02 0.32000000E+00 0.0000E+00 0.9000E+01
       21  1    1    2  502  501 -.35523373E+02 0.15923147E+02 0.80374093E+02 0.89308532E+02 0.75000000E+00 0.0000E+00 0.9000E+01
#aMCatNLO 2  0  0  2  5 0.16916647D+02 0.00000000D+00  -5  6  0 0.00000000D+00 0.00000000D+00 0.00000000D+00 0.00000000D+00 0.00000000D+00
  <mgrwgt>
 -.1222391839D-01    2    2    0
 0.189160612311974D+03 0.000000000000000D+00 0.000000000000000D+00 0.189160612311974D+03
 0.189160612311974D+03 0.000000000000000D+00 0.000000000000000D+00 -.189160612311974D+03
 0.182599282724094D+03 0.571732723205614D+02 -.105301260824677D+03 -.579686074720262D+02
 0.123905029897531D+03 -.245078024732584D+02 0.909157833098162D+02 -.435068300751765D+01
 0.000000000000000D+00 0.000000000000000D+00 -.000000000000000D+00 -.000000000000000D+00
 0.718169120023229D+02 -.326654698473030D+02 0.143854775148608D+02 0.623192904795439D+02
 0.190547166728576D+03 0.000000000000000D+00 0.000000000000000D+00 0.190547166728576D+03
 0.249091374264757D+03 0.000000000000000D+00 0.000000000000000D+00 -.249091374264757D+03
 0.178299556572395D+03 0.500710808461423D+02 -.101480339399146D+03 -.579686074720262D+02
 0.126919962249351D+03 -.294438314288222D+02 0.935713268644058D+02 -.435068300751765D+01
 0.609392909920452D+02 0.148975385216663D+02 -.801475492883155D+01 -.585442075361807D+02
 0.734797311795411D+02 -.355247879389863D+02 0.159237674635719D+02 0.623192904795439D+02
-.344844074951D-04 0.000000000000D+00 0.000000000000D+00 0.159713751196D-04 0.000000000000D+00  6 -1 21 25 24 -2 21 4 0.36363421D-01 0.30909670D-01 0.30853891D+05 0.30853891D+05 0.30853891D+05 0.12136212D+01  1  2 13  5  5  2        2 -.506395277500D-01 0.100000000000D+01
0.260932844680D-04 0.000000000000D+00 0.000000000000D+00 0.161027912199D-04 0.142887316607D-07  6 -1 21 25 24 -2 21 4 0.36629966D-01 0.30668882D-01 0.30853891D+05 0.30853891D+05 0.30853891D+05 0.12136212D+01  1  2  1  5  5  2        2 0.384156093624D-01 0.100000000000D+01
  </mgrwgt>
  </event>
  <event>
  5     66 0.43135346E-03 0.23821314E+02 0.75467711E-02 0.12140313E+00
       -1 -1    0    0    0  501 0.00000000E+00 0.00000000E+00 0.83247500E+02 0.83248115E+02 0.32000000E+00 0.0000E+00 0.9000E+01
        2 -1    0    0  502    0 -.00000000E+00 -.00000000E+00 -.37358139E+03 0.37358153E+03 0.32000000E+00 0.0000E+00 0.9000E+01
       25  1    1    2    0    0 0.59065859E+02 0.63363157E+02 -.20506441E+02 0.15345742E+03 0.12500000E+03 0.0000E+00 0.9000E+01
       24  1    1    2    0    0 -.49120689E+02 -.41719057E+02 -.15524131E+03 0.18633412E+03 0.80419002E+02 0.0000E+00 0.9000E+01
       21  1    1    2  502  501 -.99451693E+01 -.21644100E+02 -.11458614E+03 0.11703811E+03 0.75000000E+00 0.0000E+00 0.9000E+01
#aMCatNLO 1  0  0  5  1 0.96116525D+01 0.00000000D+00  -5  6  0 0.00000000D+00 0.00000000D+00 0.00000000D+00 0.00000000D+00 0.00000000D+00
  <mgrwgt>
 0.5641463342D+00   15    2    0
 0.176351605609678D+03 0.000000000000000D+00 0.000000000000000D+00 0.176351605609678D+03
 0.176351605609678D+03 -.000000000000000D+00 -.000000000000000D+00 -.176351605609678D+03
 0.181883223254572D+03 0.590662985540948D+02 0.633641142178475D+02 0.997630608290400D+02
 0.113553832967278D+03 -.491204147047709D+02 -.417184591776109D+02 -.476866024189950D+02
 0.572661549975054D+02 -.994588384932391D+01 -.216456550402366D+02 -.520764584100451D+02
 0.000000000000000D+00 0.000000000000000D+00 0.000000000000000D+00 -.000000000000000D+00
 0.176351605609678D+03 0.000000000000000D+00 0.000000000000000D+00 0.176351605609678D+03
 0.176351605609678D+03 -.000000000000000D+00 -.000000000000000D+00 -.176351605609678D+03
 0.179855894538089D+03 0.585504076715607D+02 0.622413586889365D+02 0.970618659935271D+02
 0.114680471640332D+03 -.494459089381483D+02 -.424268462852839D+02 -.493908840257365D+02
 0.121297126719493D+02 -.134983072562641D+01 -.116676190481491D+02 -.302895233760301D+01
 0.460371323689852D+02 -.775466800778599D+01 -.814689335550348D+01 -.446420296301875D+02
0.430614304119D-03 0.000000000000D+00 0.000000000000D+00 0.295465167615D-04 0.000000000000D+00  6 -1 2 25 24 21 21 2 0.12807366D-01 0.57474118D-01 0.19454478D+05 0.19454478D+05 0.19454478D+05 0.12351505D+01  1  2  2  3  6  5       21 0.257619758416D+00 0.100000000000D+01
0.516041984223D-04 0.227241411389D-04 -.165367231117D-05 0.295465167615D-04 0.000000000000D+00  6 -1 2 25 24 21 21 4 0.12807366D-01 0.57474118D-01 0.19454478D+05 0.19454478D+05 0.19454478D+05 0.12351505D+01  1  2  3  3  6  5       21 0.470994133475D-01 0.100000000000D+01
0.188129966169D-04 0.000000000000D+00 0.000000000000D+00 0.295465167615D-04 0.000000000000D+00  6 -1 2 25 24 21 21 4 0.12807366D-01 0.57474118D-01 0.19454478D+05 0.19454478D+05 0.19454478D+05 0.12351505D+01  1  2 15  3  6  5       21 0.171707173264D-01 0.100000000000D+01
0.460218628567D-04 0.000000000000D+00 0.000000000000D+00 0.295638210443D-04 0.000000000000D+00  6 -1 2 25 24 21 21 4 0.12807366D-01 0.57474118D-01 0.19308434D+05 0.19308434D+05 0.19308434D+05 0.12355121D+01  1  2 12  3  6  5       21 0.420464204366D-01 0.100000000000D+01
-.161049171912D-03 0.000000000000D+00 0.000000000000D+00 0.295465167615D-04 0.000000000000D+00  6 -1 2 25 24 21 21 4 0.12807366D-01 0.57474118D-01 0.19454478D+05 0.19454478D+05 0.19454478D+05 0.12351505D+01  1  2  4  3  6  5       21 -.146990395143D+00 0.100000000000D+01
-.645241470170D-04 0.000000000000D+00 0.000000000000D+00 0.295465167615D-04 0.000000000000D+00  6 -1 2 25 24 21 21 4 0.12807366D-01 0.57474118D-01 0.19454478D+05 0.19454478D+05 0.19454478D+05 0.12351505D+01  1  2  5  3  6  5       21 -.588915158874D-01 0.100000000000D+01
0.450392661606D-03 0.000000000000D+00 -.000000000000D+00 0.295465167615D-04 0.000000000000D+00  6 -1 2 25 24 21 21 4 0.12807366D-01 0.57474118D-01 0.19454478D+05 0.19454478D+05 0.19454478D+05 0.12351505D+01  1  2  6  3  6  5       21 0.411075664116D+00 0.100000000000D+01
0.912779439353D-05 0.000000000000D+00 0.000000000000D+00 0.295638210443D-04 0.000000000000D+00  6 -1 2 25 24 1 -1 4 0.12807366D-01 0.57474118D-01 0.19308434D+05 0.19308434D+05 0.19308434D+05 0.12355121D+01  1  2 12  6  6  5       21 0.833932085549D-02 0.100000000000D+01
-.105020266711D-04 0.000000000000D+00 0.000000000000D+00 0.295465167615D-04 0.000000000000D+00  6 -1 2 25 24 1 -1 4 0.12807366D-01 0.57474118D-01 0.19454478D+05 0.19454478D+05 0.19454478D+05 0.12351505D+01  1  2  5  6  6  5       21 -.958525295018D-02 0.100000000000D+01
0.912779439353D-05 0.000000000000D+00 0.000000000000D+00 0.295638210443D-04 0.000000000000D+00  6 -1 2 25 24 2 -2 4 0.12807366D-01 0.57474118D-01 0.19308434D+05 0.19308434D+05 0.19308434D+05 0.12355121D+01  1  2 12  7  6  5       21 0.833932085549D-02 0.100000000000D+01
-.105020266711D-04 0.000000000000D+00 0.000000000000D+00 0.295465167615D-04 0.000000000000D+00  6 -1 2 25 24 2 -2 4 0.12807366D-01 0.57474118D-01 0.19454478D+05 0.19454478D+05 0.19454478D+05 0.12351505D+01  1  2  5  7  6  5       21 -.958525295018D-02 0.100000000000D+01
0.912779439353D-05 0.000000000000D+00 0.000000000000D+00 0.295638210443D-04 0.000000000000D+00  6 -1 2 25 24 3 -3 4 0.12807366D-01 0.57474118D-01 0.19308434D+05 0.19308434D+05 0.19308434D+05 0.12355121D+01  1  2 12  8  6  5       21 0.833932085549D-02 0.100000000000D+01
0.912779439353D-05 0.000000000000D+00 0.000000000000D+00 0.295638210443D-04 0.000000000000D+00  6 -1 2 25 24 4 -4 4 0.12807366D-01 0.57474118D-01 0.19308434D+05 0.19308434D+05 0.19308434D+05 0.12355121D+01  1  2 12  8  6  5       21 0.833932085549D-02 0.100000000000D+01
-.105020266711D-04 0.000000000000D+00 0.000000000000D+00 0.295465167615D-04 0.000000000000D+00  6 -1 2 25 24 3 -3 4 0.12807366D-01 0.57474118D-01 0.19454478D+05 0.19454478D+05 0.19454478D+05 0.12351505D+01  1  2  5  8  6  5       21 -.958525295018D-02 0.100000000000D+01
-.105020266711D-04 0.000000000000D+00 0.000000000000D+00 0.295465167615D-04 0.000000000000D+00  6 -1 2 25 24 4 -4 4 0.12807366D-01 0.57474118D-01 0.19454478D+05 0.19454478D+05 0.19454478D+05 0.12351505D+01  1  2  5  8  6  5       21 -.958525295018D-02 0.100000000000D+01
  </mgrwgt>
  </event>
  <event>
  5     66 0.43135346E-03 0.48466173E+02 0.75467711E-02 0.10080512E+00
       -1 -1    0    0    0  501 0.00000000E+00 0.00000000E+00 0.52154536E+03 0.52154546E+03 0.32000000E+00 0.0000E+00 0.9000E+01
        2 -1    0    0  502    0 0.00000000E+00 0.00000000E+00 -.41982022E+03 0.41982034E+03 0.32000000E+00 0.0000E+00 0.9000E+01
       25  1    1    2    0    0 0.69646517E+02 -.62335932E+02 -.91487578E+02 0.18091817E+03 0.12500000E+03 0.0000E+00 0.9000E+01
       24  1    1    2    0    0 -.11093200E+03 0.36949437E+02 -.26450593E+03 0.30016958E+03 0.80419002E+02 0.0000E+00 0.9000E+01
       21  1    1    2  502  501 0.41285488E+02 0.25386495E+02 0.45771865E+03 0.46027806E+03 0.75000000E+00 0.0000E+00 0.9000E+01
#aMCatNLO 1  0  0  2  5 0.76537511D+01 0.00000000D+00  -5  6  0 0.00000000D+00 0.00000000D+00 0.00000000D+00 0.00000000D+00 0.00000000D+00
  <mgrwgt>
 0.9577135096D+00    5    4    0
 0.467926694827013D+03 0.000000000000000D+00 0.000000000000000D+00 0.467926694827013D+03
 0.467926694827013D+03 0.000000000000000D+00 0.000000000000000D+00 -.467926694827013D+03
 0.191928388947843D+03 0.696465027499017D+02 -.623359406593989D+02 -.111691994524810D+03
 0.330689068406574D+03 -.110932028498037D+03 0.369494223009046D+02 -.298691930346598D+03
 0.413235932299610D+03 0.412855257481355D+02 0.253865183584944D+02 0.410383924871409D+03
 0.000000000000000D+00 -.000000000000000D+00 -.000000000000000D+00 -.000000000000000D+00
 0.624451999936860D+03 0.000000000000000D+00 0.000000000000000D+00 0.624451999936860D+03
 0.104227844213098D+04 0.000000000000000D+00 0.000000000000000D+00 -.104227844213098D+04
 0.240242015044129D+03 0.167704736386480D+03 -.386166485479340D+02 -.111691994524810D+03
 0.319855790281584D+03 0.366747468736133D+02 0.726540040869417D+02 -.298691930346598D+03
 0.483632155389908D+03 0.244782340133148D+03 0.746103336888791D+02 0.410383924871409D+03
 0.623000481352222D+03 -.449161823393242D+03 -.108647689227887D+03 -.417826442194123D+03
 0.467926694827013D+03 0.000000000000000D+00 0.000000000000000D+00 0.467926694827013D+03
 0.467926694827013D+03 0.000000000000000D+00 0.000000000000000D+00 -.467926694827013D+03
 0.191928388947843D+03 0.696465027499017D+02 -.623359406593989D+02 -.111691994524810D+03
 0.330689068406574D+03 -.110932028498037D+03 0.369494223009046D+02 -.298691930346598D+03
 0.000000000000000D+00 -.000000000000000D+00 -.000000000000000D+00 -.000000000000000D+00
 0.413235932299610D+03 0.412855257481355D+02 0.253865183584944D+02 0.410383924871409D+03
 0.624451999936860D+03 0.000000000000000D+00 0.000000000000000D+00 0.624451999936860D+03
 0.104227844213098D+04 0.000000000000000D+00 0.000000000000000D+00 -.104227844213098D+04
 0.240242015044129D+03 0.167704736386480D+03 -.386166485479340D+02 -.111691994524810D+03
 0.319855790281584D+03 0.366747468736133D+02 0.726540040869417D+02 -.298691930346598D+03
 0.623000481352222D+03 -.449161823393242D+03 -.108647689227887D+03 -.417826442194123D+03
 0.483632155389908D+03 0.244782340133148D+03 0.746103336888791D+02 0.410383924871409D+03
0.273862687269D-01 0.000000000000D+00 0.000000000000D+00 0.278185048756D-04 0.000000000000D+00  6 -1 2 25 24 21 21 2 0.80237764D-01 0.64587743D-01 0.30008178D+05 0.30008178D+05 0.30008178D+05 0.12148860D+01  1  2  2  2  6  2        2 0.580684355967D+00 0.100000000000D+01
0.514802976174D-02 0.144521310571D-02 -.105170482882D-03 0.278185048756D-04 0.000000000000D+00  6 -1 2 25 24 21 21 4 0.80237764D-01 0.64587743D-01 0.30008178D+05 0.30008178D+05 0.30008178D+05 0.12148860D+01  1  2  3  2  6  2        2 0.161108831001D+00 0.100000000000D+01
0.128731742375D-02 0.000000000000D+00 0.000000000000D+00 0.278185048756D-04 0.000000000000D+00  6 -1 2 25 24 21 21 4 0.80237764D-01 0.64587743D-01 0.30008178D+05 0.30008178D+05 0.30008178D+05 0.12148860D+01  1  2 15  2  6  2        2 0.402869087529D-01 0.100000000000D+01
0.168300719660D-01 0.000000000000D+00 -.157445934876D-01 0.278185048756D-04 0.000000000000D+00  6 -1 2 25 24 21 21 4 0.80237764D-01 0.17382840D+00 0.30008178D+05 0.30008178D+05 0.30008178D+05 0.12148860D+01  1  2  5  2  6  2        2 0.156883050432D+00 0.100000000000D+01
0.277709823009D-02 0.000000000000D+00 -.173773729465D-02 0.278185048756D-04 0.000000000000D+00  6 -1 21 25 24 -2 21 4 0.80237764D-01 0.17382840D+00 0.30008178D+05 0.30008178D+05 0.30008178D+05 0.12148860D+01  3  4  5  5  5  2        2 0.187503634594D-01 0.100000000000D+01
  </mgrwgt>
  </event>
  <event>
  5     66 -.43135346E-03 0.66562976E+02 0.75467711E-02 0.11711315E+00
       -3 -1    0    0    0  501 0.00000000E+00 0.00000000E+00 0.83369349E+03 0.83369364E+03 0.50000000E+00 0.0000E+00 0.9000E+01
        4 -1    0    0  502    0 0.00000000E+00 0.00000000E+00 -.40225103E+02 0.40254956E+02 0.15500000E+01 0.0000E+00 0.9000E+01
       25  1    1    2    0    0 0.64300584E+02 -.11083389E+03 0.49335216E+03 0.52482384E+03 0.12500000E+03 0.0000E+00 0.9000E+01
       24  1    1    2    0    0 -.12094995E+02 0.52890186E+02 0.19933338E+03 0.22168598E+03 0.80419002E+02 0.0000E+00 0.9000E+01
       21  1    1    2  502  501 -.52205589E+02 0.57943701E+02 0.10078285E+03 0.12743878E+03 0.75000000E+00 0.0000E+00 0.9000E+01
#aMCatNLO 1  0  0  5  1 0.88976520D+01 0.00000000D+00  -5  6  0 0.00000000D+00 0.00000000D+00 0.00000000D+00 0.00000000D+00 0.00000000D+00
  <mgrwgt>
 -.7416946776D-02   25    2    0
 0.183162542350203D+03 0.000000000000000D+00 0.000000000000000D+00 0.183162542350203D+03
 0.183162542350203D+03 -.000000000000000D+00 -.000000000000000D+00 -.183162542350203D+03
 0.183471328098220D+03 0.643015842490612D+02 -.110834997850600D+03 0.402198675860968D+02
 0.971193837114014D+02 -.120944655099299D+02 0.528895984485691D+02 -.462309615843268D+01
 0.857343728907838D+02 -.522071187391313D+02 0.579453994020306D+02 -.355967714276641D+02
 0.000000000000000D+00 0.000000000000000D+00 0.000000000000000D+00 -.000000000000000D+00
 0.183162542350203D+03 0.000000000000000D+00 0.000000000000000D+00 0.183162542350203D+03
 0.183162542350203D+03 -.000000000000000D+00 -.000000000000000D+00 -.183162542350203D+03
 0.182643385737880D+03 0.635926477915976D+02 -.110048139522262D+03 0.397364881228637D+02
 0.974077393308786D+02 -.124711435408268D+02 0.533076785777438D+02 -.487992936607742D+01
 0.618603659149744D+02 -.346557820309434D+02 0.474139472592024D+02 -.194319131394681D+02
 0.244135937166725D+02 -.164657222198273D+02 0.932651368531603D+01 -.154246456173181D+02
0.153862067555D-03 0.000000000000D+00 0.000000000000D+00 0.354835500551D-05 0.000000000000D+00  6 -3 4 25 24 21 21 2 0.12826285D+00 0.61907853D-02 0.31331324D+05 0.31331324D+05 0.31331324D+05 0.12129242D+01  1  2  2  3  6  5       21 0.396331221650D-02 0.100000000000D+01
-.509670738303D-05 0.811952437621D-05 -.590870852224D-06 0.354835500551D-05 0.000000000000D+00  6 -3 4 25 24 21 21 4 0.12826285D+00 0.61907853D-02 0.31331324D+05 0.31331324D+05 0.31331324D+05 0.12129242D+01  1  2  3  3  6  5       21 -.193145123705D-03 0.100000000000D+01
0.594407882628D-05 0.000000000000D+00 0.000000000000D+00 0.354835500551D-05 0.000000000000D+00  6 -3 4 25 24 21 21 4 0.12826285D+00 0.61907853D-02 0.31331324D+05 0.31331324D+05 0.31331324D+05 0.12129242D+01  1  2 15  3  6  5       21 0.225257161915D-03 0.100000000000D+01
0.588275317375D-03 0.000000000000D+00 0.000000000000D+00 0.354956598262D-05 0.000000000000D+00  6 -3 4 25 24 21 21 4 0.12826285D+00 0.61907853D-02 0.31188713D+05 0.31188713D+05 0.31188713D+05 0.12131312D+01  1  2 12  3  6  5       21 0.223021149899D-01 0.100000000000D+01
0.575243424430D-03 0.000000000000D+00 0.000000000000D+00 0.354956598262D-05 0.000000000000D+00  6 -3 4 25 24 21 21 4 0.12826285D+00 0.61907853D-02 0.31188713D+05 0.31188713D+05 0.31188713D+05 0.12131312D+01  1  2 12  3  6  5       21 0.218080626875D-01 0.100000000000D+01
-.183110919116D-02 0.000000000000D+00 0.000000000000D+00 0.354835500551D-05 0.000000000000D+00  6 -3 4 25 24 21 21 4 0.12826285D+00 0.61907853D-02 0.31331324D+05 0.31331324D+05 0.31331324D+05 0.12129242D+01  1  2  4  3  6  5       21 -.693918219480D-01 0.100000000000D+01
-.113395007175D-02 0.000000000000D+00 0.000000000000D+00 0.354835500551D-05 0.000000000000D+00  6 -3 4 25 24 21 21 4 0.12826285D+00 0.61907853D-02 0.31331324D+05 0.31331324D+05 0.31331324D+05 0.12129242D+01  1  2  5  3  6  5       21 -.429722388248D-01 0.100000000000D+01
0.149358362523D-02 0.000000000000D+00 -.000000000000D+00 0.354835500551D-05 0.000000000000D+00  6 -3 4 25 24 21 21 4 0.12826285D+00 0.61907853D-02 0.31331324D+05 0.31331324D+05 0.31331324D+05 0.12129242D+01  1  2  6  3  6  5       21 0.566009331869D-01 0.100000000000D+01
0.415496559577D-06 0.000000000000D+00 0.000000000000D+00 0.354835500551D-05 0.318436892183D-06  6 -3 4 25 24 21 21 4 0.12826285D+00 0.61907853D-02 0.31188713D+05 0.31188713D+05 0.31188713D+05 0.12131312D+01  1  2 11  3  6  5       21 0.157518967325D-04 0.100000000000D+01
0.106122621137D-04 0.000000000000D+00 0.000000000000D+00 0.354956598262D-05 0.000000000000D+00  6 -3 4 25 24 3 -3 4 0.12826285D+00 0.61907853D-02 0.31188713D+05 0.31188713D+05 0.31188713D+05 0.12131312D+01  1  2 12  6  6  5       21 0.402321639158D-03 0.100000000000D+01
0.104308774446D-04 0.000000000000D+00 0.000000000000D+00 0.354956598262D-05 0.000000000000D+00  6 -3 4 25 24 3 -3 4 0.12826285D+00 0.61907853D-02 0.31188713D+05 0.31188713D+05 0.31188713D+05 0.12131312D+01  1  2 12  6  6  5       21 0.395445162060D-03 0.100000000000D+01
-.195747369076D-04 0.000000000000D+00 0.000000000000D+00 0.354835500551D-05 0.000000000000D+00  6 -3 4 25 24 3 -3 4 0.12826285D+00 0.61907853D-02 0.31331324D+05 0.31331324D+05 0.31331324D+05 0.12129242D+01  1  2  5  6  6  5       21 -.741805384806D-03 0.100000000000D+01
0.654452978851D-08 0.000000000000D+00 0.000000000000D+00 0.354835500551D-05 0.833838745840D-08  6 -3 4 25 24 3 -3 4 0.12826285D+00 0.61907853D-02 0.31188713D+05 0.31188713D+05 0.31188713D+05 0.12131312D+01  1  2 11  6  6  5       21 0.248109773752D-06 0.100000000000D+01
0.106122621137D-04 0.000000000000D+00 0.000000000000D+00 0.354956598262D-05 0.000000000000D+00  6 -3 4 25 24 4 -4 4 0.12826285D+00 0.61907853D-02 0.31188713D+05 0.31188713D+05 0.31188713D+05 0.12131312D+01  1  2 12  7  6  5       21 0.402321639158D-03 0.100000000000D+01
0.104308774446D-04 0.000000000000D+00 0.000000000000D+00 0.354956598262D-05 0.000000000000D+00  6 -3 4 25 24 4 -4 4 0.12826285D+00 0.61907853D-02 0.31188713D+05 0.31188713D+05 0.31188713D+05 0.12131312D+01  1  2 12  7  6  5       21 0.395445162060D-03 0.100000000000D+01
-.195747369076D-04 0.000000000000D+00 0.000000000000D+00 0.354835500551D-05 0.000000000000D+00  6 -3 4 25 24 4 -4 4 0.12826285D+00 0.61907853D-02 0.31331324D+05 0.31331324D+05 0.31331324D+05 0.12129242D+01  1  2  5  7  6  5       21 -.741805384806D-03 0.100000000000D+01
0.644656283635D-08 0.000000000000D+00 0.000000000000D+00 0.354835500551D-05 0.821028068136D-08  6 -3 4 25 24 4 -4 4 0.12826285D+00 0.61907853D-02 0.31188713D+05 0.31188713D+05 0.31188713D+05 0.12131312D+01  1  2 11  7  6  5       21 0.244395747058D-06 0.100000000000D+01
0.106122621137D-04 0.000000000000D+00 0.000000000000D+00 0.354956598262D-05 0.000000000000D+00  6 -3 4 25 24 1 -1 4 0.12826285D+00 0.61907853D-02 0.31188713D+05 0.31188713D+05 0.31188713D+05 0.12131312D+01  1  2 12  8  6  5       21 0.402321639158D-03 0.100000000000D+01
0.106122621137D-04 0.000000000000D+00 0.000000000000D+00 0.354956598262D-05 0.000000000000D+00  6 -3 4 25 24 2 -2 4 0.12826285D+00 0.61907853D-02 0.31188713D+05 0.31188713D+05 0.31188713D+05 0.12131312D+01  1  2 12  8  6  5       21 0.402321639158D-03 0.100000000000D+01
0.104308774446D-04 0.000000000000D+00 0.000000000000D+00 0.354956598262D-05 0.000000000000D+00  6 -3 4 25 24 1 -1 4 0.12826285D+00 0.61907853D-02 0.31188713D+05 0.31188713D+05 0.31188713D+05 0.12131312D+01  1  2 12  8  6  5       21 0.395445162060D-03 0.100000000000D+01
0.104308774446D-04 0.000000000000D+00 0.000000000000D+00 0.354956598262D-05 0.000000000000D+00  6 -3 4 25 24 2 -2 4 0.12826285D+00 0.61907853D-02 0.31188713D+05 0.31188713D+05 0.31188713D+05 0.12131312D+01  1  2 12  8  6  5       21 0.395445162060D-03 0.100000000000D+01
-.195747369076D-04 0.000000000000D+00 0.000000000000D+00 0.354835500551D-05 0.000000000000D+00  6 -3 4 25 24 1 -1 4 0.12826285D+00 0.61907853D-02 0.31331324D+05 0.31331324D+05 0.31331324D+05 0.12129242D+01  1  2  5  8  6  5       21 -.741805384806D-03 0.100000000000D+01
-.195747369076D-04 0.000000000000D+00 0.000000000000D+00 0.354835500551D-05 0.000000000000D+00  6 -3 4 25 24 2 -2 4 0.12826285D+00 0.61907853D-02 0.31331324D+05 0.31331324D+05 0.31331324D+05 0.12129242D+01  1  2  5  8  6  5       21 -.741805384806D-03 0.100000000000D+01
0.644681346458D-08 0.000000000000D+00 0.000000000000D+00 0.354835500551D-05 0.817742817035D-08  6 -3 4 25 24 1 -1 4 0.12826285D+00 0.61907853D-02 0.31188713D+05 0.31188713D+05 0.31188713D+05 0.12131312D+01  1  2 11  8  6  5       21 0.244405248629D-06 0.100000000000D+01
0.644681346458D-08 0.000000000000D+00 0.000000000000D+00 0.354835500551D-05 0.817742817035D-08  6 -3 4 25 24 2 -2 4 0.12826285D+00 0.61907853D-02 0.31188713D+05 0.31188713D+05 0.31188713D+05 0.12131312D+01  1  2 11  8  6  5       21 0.244405248629D-06 0.100000000000D+01
  </mgrwgt>
  </event>
  <event>
  5     66 0.43135346E-03 0.21648025E+02 0.75467711E-02 0.11437667E+00
       -1 -1    0    0    0  501 0.00000000E+00 0.00000000E+00 0.97149907E+03 0.97149912E+03 0.32000000E+00 0.0000E+00 0.9000E+01
        2 -1    0    0  502    0 0.00000000E+00 0.00000000E+00 -.47914170E+02 0.47915239E+02 0.32000000E+00 0.0000E+00 0.9000E+01
       25  1    1    2    0    0 -.13969590E+03 -.10909110E+03 0.48677910E+03 0.53291154E+03 0.12500000E+03 0.0000E+00 0.9000E+01
       24  1    1    2    0    0 0.11969407E+03 0.10082292E+03 0.29839718E+03 0.34641020E+03 0.80419002E+02 0.0000E+00 0.9000E+01
       21  1    1    2  502  501 0.20001826E+02 0.82681808E+01 0.13840862E+03 0.14009262E+03 0.75000000E+00 0.0000E+00 0.9000E+01
#aMCatNLO 1  0  0  5  1 0.10194712D+02 0.00000000D+00  -5  6  0 0.00000000D+00 0.00000000D+00 0.00000000D+00 0.00000000D+00 0.00000000D+00
  <mgrwgt>
 0.3453068959D+00   20    2    0
 0.215752504129098D+03 0.000000000000000D+00 0.000000000000000D+00 0.215752504129098D+03
 0.215752504129098D+03 -.000000000000000D+00 -.000000000000000D+00 -.215752504129098D+03
 0.217092844120059D+03 -.139698245389877D+03 -.109092074506553D+03 0.936068816821416D+01
 0.179696358671332D+03 0.119692126088351D+03 0.100822118885973D+03 -.365001460429734D+02
 0.347158054668060D+02 0.200061193015266D+02 0.826995562058047D+01 0.271394578747593D+02
 0.000000000000000D+00 0.000000000000000D+00 0.000000000000000D+00 0.000000000000000D+00
 0.215752504129098D+03 0.000000000000000D+00 0.000000000000000D+00 0.215752504129098D+03
 0.215752504129098D+03 -.000000000000000D+00 -.000000000000000D+00 -.215752504129098D+03
 0.215587273055333D+03 -.137773181559343D+03 -.108296308360937D+03 0.119721485892780D+02
 0.180713158866986D+03 0.121295646330794D+03 0.101484968139336D+03 -.343248780954413D+02
 0.193194623964012D+02 0.171895968148686D+02 0.595144290498230D+01 0.650689756926851D+01
 0.158851139394768D+02 -.712061586320018D+00 0.859897316619318D+00 0.158458319368949D+02
0.218107583235D-02 0.000000000000D+00 0.000000000000D+00 0.354218952834D-04 0.000000000000D+00  6 -1 2 25 24 21 21 2 0.14946148D+00 0.73714970D-02 0.42950345D+05 0.42950345D+05 0.42950345D+05 0.11988743D+01  1  2  2  3  6  5       21 0.128860873872D+00 0.100000000000D+01
0.636659775588D-03 0.115098533827D-03 -.837590548669D-05 0.354218952834D-04 0.000000000000D+00  6 -1 2 25 24 21 21 4 0.14946148D+00 0.73714970D-02 0.42950345D+05 0.42950345D+05 0.42950345D+05 0.11988743D+01  1  2  3  3  6  5       21 0.540636072161D-01 0.100000000000D+01
0.238721351347D-04 0.000000000000D+00 0.000000000000D+00 0.354218952834D-04 0.000000000000D+00  6 -1 2 25 24 21 21 4 0.14946148D+00 0.73714970D-02 0.42950345D+05 0.42950345D+05 0.42950345D+05 0.11988743D+01  1  2 15  3  6  5       21 0.202716393719D-02 0.100000000000D+01
0.734736133946D-03 0.000000000000D+00 0.000000000000D+00 0.354532563190D-04 0.000000000000D+00  6 -1 2 25 24 21 21 4 0.14946148D+00 0.73714970D-02 0.42432933D+05 0.42432933D+05 0.42432933D+05 0.11994049D+01  1  2 12  3  6  5       21 0.625034782034D-01 0.100000000000D+01
0.844011940754D-03 0.000000000000D+00 0.000000000000D+00 0.354532563190D-04 0.000000000000D+00  6 -1 2 25 24 21 21 4 0.14946148D+00 0.73714970D-02 0.42432933D+05 0.42432933D+05 0.42432933D+05 0.11994049D+01  1  2 12  3  6  5       21 0.717994930493D-01 0.100000000000D+01
-.198189981251D-02 0.000000000000D+00 0.000000000000D+00 0.354218952834D-04 0.000000000000D+00  6 -1 2 25 24 21 21 4 0.14946148D+00 0.73714970D-02 0.42950345D+05 0.42950345D+05 0.42950345D+05 0.11988743D+01  1  2  4  3  6  5       21 -.168298135227D+00 0.100000000000D+01
-.166213595698D-02 0.000000000000D+00 0.000000000000D+00 0.354218952834D-04 0.000000000000D+00  6 -1 2 25 24 21 21 4 0.14946148D+00 0.73714970D-02 0.42950345D+05 0.42950345D+05 0.42950345D+05 0.11988743D+01  1  2  5  3  6  5       21 -.141144562549D+00 0.100000000000D+01
0.374090183195D-02 0.000000000000D+00 -.000000000000D+00 0.354218952834D-04 0.000000000000D+00  6 -1 2 25 24 21 21 4 0.14946148D+00 0.73714970D-02 0.42950345D+05 0.42950345D+05 0.42950345D+05 0.11988743D+01  1  2  6  3  6  5       21 0.317668329352D+00 0.100000000000D+01
0.254629967013D-04 0.000000000000D+00 0.000000000000D+00 0.354532563190D-04 0.000000000000D+00  6 -1 2 25 24 1 -1 4 0.14946148D+00 0.73714970D-02 0.42432933D+05 0.42432933D+05 0.42432933D+05 0.11994049D+01  1  2 12  6  6  5       21 0.216611894499D-02 0.100000000000D+01
0.291843282999D-04 0.000000000000D+00 0.000000000000D+00 0.354532563190D-04 0.000000000000D+00  6 -1 2 25 24 1 -1 4 0.14946148D+00 0.73714970D-02 0.42432933D+05 0.42432933D+05 0.42432933D+05 0.11994049D+01  1  2 12  6  6  5       21 0.248268996650D-02 0.100000000000D+01
-.226274591397D-05 0.000000000000D+00 0.000000000000D+00 0.354218952834D-04 0.000000000000D+00  6 -1 2 25 24 1 -1 4 0.14946148D+00 0.73714970D-02 0.42950345D+05 0.42950345D+05 0.42950345D+05 0.11988743D+01  1  2  5  6  6  5       21 -.192146906422D-03 0.100000000000D+01
0.254629967013D-04 0.000000000000D+00 0.000000000000D+00 0.354532563190D-04 0.000000000000D+00  6 -1 2 25 24 2 -2 4 0.14946148D+00 0.73714970D-02 0.42432933D+05 0.42432933D+05 0.42432933D+05 0.11994049D+01  1  2 12  7  6  5       21 0.216611894499D-02 0.100000000000D+01
0.291843282999D-04 0.000000000000D+00 0.000000000000D+00 0.354532563190D-04 0.000000000000D+00  6 -1 2 25 24 2 -2 4 0.14946148D+00 0.73714970D-02 0.42432933D+05 0.42432933D+05 0.42432933D+05 0.11994049D+01  1  2 12  7  6  5       21 0.248268996650D-02 0.100000000000D+01
-.226274591397D-05 0.000000000000D+00 0.000000000000D+00 0.354218952834D-04 0.000000000000D+00  6 -1 2 25 24 2 -2 4 0.14946148D+00 0.73714970D-02 0.42950345D+05 0.42950345D+05 0.42950345D+05 0.11988743D+01  1  2  5  7  6  5       21 -.192146906422D-03 0.100000000000D+01
0.254629967013D-04 0.000000000000D+00 0.000000000000D+00 0.354532563190D-04 0.000000000000D+00  6 -1 2 25 24 3 -3 4 0.14946148D+00 0.73714970D-02 0.42432933D+05 0.42432933D+05 0.42432933D+05 0.11994049D+01  1  2 12  8  6  5       21 0.216611894499D-02 0.100000000000D+01
0.254629967013D-04 0.000000000000D+00 0.000000000000D+00 0.354532563190D-04 0.000000000000D+00  6 -1 2 25 24 4 -4 4 0.14946148D+00 0.73714970D-02 0.42432933D+05 0.42432933D+05 0.42432933D+05 0.11994049D+01  1  2 12  8  6  5       21 0.216611894499D-02 0.100000000000D+01
0.291843282999D-04 0.000000000000D+00 0.000000000000D+00 0.354532563190D-04 0.000000000000D+00  6 -1 2 25 24 3 -3 4 0.14946148D+00 0.73714970D-02 0.42432933D+05 0.42432933D+05 0.42432933D+05 0.11994049D+01  1  2 12  8  6  5       21 0.248268996650D-02 0.100000000000D+01
0.291843282999D-04 0.000000000000D+00 0.000000000000D+00 0.354532563190D-04 0.000000000000D+00  6 -1 2 25 24 4 -4 4 0.14946148D+00 0.73714970D-02 0.42432933D+05 0.42432933D+05 0.42432933D+05 0.11994049D+01  1  2 12  8  6  5       21 0.248268996650D-02 0.100000000000D+01
-.226274591397D-05 0.000000000000D+00 0.000000000000D+00 0.354218952834D-04 0.000000000000D+00  6 -1 2 25 24 3 -3 4 0.14946148D+00 0.73714970D-02 0.42950345D+05 0.42950345D+05 0.42950345D+05 0.11988743D+01  1  2  5  8  6  5       21 -.192146906422D-03 0.100000000000D+01
-.226274591397D-05 0.000000000000D+00 0.000000000000D+00 0.354218952834D-04 0.000000000000D+00  6 -1 2 25 24 4 -4 4 0.14946148D+00 0.73714970D-02 0.42950345D+05 0.42950345D+05 0.42950345D+05 0.11988743D+01  1  2  5  8  6  5       21 -.192146906422D-03 0.100000000000D+01
  </mgrwgt>
  </event>
  <event>
  6     66 -.43135346E-03 0.65998560E+02 0.75467711E-02 0.11930825E+00
       -1 -1    0    0    0  501 0.00000000E+00 0.00000000E+00 0.71548654E+02 0.71549369E+02 0.32000000E+00 0.0000E+00 0.9000E+01
        2 -1    0    0  502    0 -.00000000E+00 -.00000000E+00 -.49218029E+03 0.49218040E+03 0.32000000E+00 0.0000E+00 0.9000E+01
       25  1    1    2    0    0 -.26516121E+02 0.93182728E+01 -.67458143E+02 0.14479481E+03 0.12500000E+03 0.0000E+00 0.9000E+01
       24  1    1    2    0    0 0.16424555E+02 -.77474735E+02 -.84633459E+02 0.14107494E+03 0.80419002E+02 0.0000E+00 0.9000E+01
       21  1    1    2  503  501 0.14127563E+02 0.63901786E+02 -.24629875E+03 0.25484636E+03 0.75000000E+00 0.0000E+00 0.9000E+01
       21  1    1    2  502  503 -.40359965E+01 0.42546757E+01 -.22241283E+02 0.23013664E+02 0.75000000E+00 0.0000E+00 0.9000E+01
#aMCatNLO 2  0  0  5  1 0.49557514D+01 0.00000000D+00  -5  6  0 0.00000000D+00 0.00000000D+00 0.00000000D+00 0.00000000D+00 0.00000000D+00
  <mgrwgt>
 -.2145005981D-01    4    2    0
 0.187656783327072D+03 0.000000000000000D+00 0.000000000000000D+00 0.187656783327072D+03
 0.187656783327072D+03 -.000000000000000D+00 -.000000000000000D+00 -.187656783327072D+03
 0.142064464954026D+03 -.265658247831027D+02 0.898258229302147D+01 0.614075107101419D+02
 0.117322357628532D+03 0.163835292290260D+02 -.777518118631594D+02 0.313616862930571D+02
 0.115926744071587D+03 0.101822955540767D+02 0.687692295701380D+02 -.927691970031990D+02
 0.000000000000000D+00 0.000000000000000D+00 0.000000000000000D+00 -.000000000000000D+00
 0.187656783327072D+03 0.000000000000000D+00 0.000000000000000D+00 0.187656783327072D+03
 0.187656783327072D+03 -.000000000000000D+00 -.000000000000000D+00 -.187656783327072D+03
 0.141881448913539D+03 -.265160623706046D+02 0.931866787911258D+01 0.609541336672273D+02
 0.117044824631483D+03 0.164246028132195D+02 -.774744089213896D+02 0.309874717160556D+02
 0.106797057191778D+03 0.141775027370621D+02 0.639382356391104D+02 -.843594207206413D+02
 0.959023591734443D+01 -.408604317967705D+01 0.421750540316662D+01 -.758218466264165D+01
-.484649529535D-04 0.000000000000D+00 0.000000000000D+00 0.663608044869D-05 0.000000000000D+00  6 -1 2 25 24 21 21 4 0.11007548D-01 0.75720108D-01 0.24391039D+05 0.24391039D+05 0.24391039D+05 0.12244475D+01  1  2 13  3  6  5       21 -.402728341888D-01 0.100000000000D+01
-.386942407416D-04 0.000000000000D+00 0.000000000000D+00 0.663608044869D-05 0.000000000000D+00  6 -1 2 25 24 21 21 4 0.11007548D-01 0.75720108D-01 0.24391039D+05 0.24391039D+05 0.24391039D+05 0.12244475D+01  1  2 13  3  6  5       21 -.321536831562D-01 0.100000000000D+01
-.614453213964D-04 0.000000000000D+00 0.000000000000D+00 0.664152354087D-05 0.000000000000D+00  6 -1 2 25 24 21 21 4 0.11007548D-01 0.75720108D-01 0.24130370D+05 0.24130370D+05 0.24130370D+05 0.12249496D+01  1  2  8  3  6  5       21 -.511318552779D-01 0.100000000000D+01
0.122878726478D-03 0.000000000000D+00 0.000000000000D+00 0.664152354087D-05 0.181067275316D-05  6 -1 2 25 24 21 21 4 0.11007548D-01 0.75720108D-01 0.24391039D+05 0.24391039D+05 0.24391039D+05 0.12244475D+01  1  2  1  3  6  5       21 0.102108312816D+00 0.100000000000D+01
  </mgrwgt>
  </event>
  <event>
  5     66 0.43135346E-03 0.45356975E+02 0.75467711E-02 0.11387135E+00
       -1 -1    0    0    0  501 0.00000000E+00 0.00000000E+00 0.25768056E+02 0.25770043E+02 0.32000000E+00 0.0000E+00 0.9000E+01
        2 -1    0    0  502    0 -.00000000E+00 -.00000000E+00 -.35962048E+04 0.35962048E+04 0.32000000E+00 0.0000E+00 0.9000E+01
       25  1    1    2    0    0 -.94262803E+01 0.12030565E+03 -.18248150E+04 0.18330677E+04 0.12500000E+03 0.0000E+00 0.9000E+01
       24  1    1    2    0    0 -.44245795E+02 -.15210552E+03 -.17055051E+04 0.17147329E+04 0.80419002E+02 0.0000E+00 0.9000E+01
       21  1    1    2  502  501 0.53672076E+02 0.31799872E+02 -.40116562E+02 0.74174286E+02 0.75000000E+00 0.0000E+00 0.9000E+01
#aMCatNLO 1  0  0  5  2 0.21915861D+02 0.00000000D+00  -5  6  0 0.00000000D+00 0.00000000D+00 0.00000000D+00 0.00000000D+00 0.00000000D+00
  <mgrwgt>
 0.1033516155D+00   15    2    0
 0.304418842384080D+03 0.000000000000000D+00 0.000000000000000D+00 0.304418842384080D+03
 0.304418842384080D+03 -.000000000000000D+00 -.000000000000000D+00 -.304418842384080D+03
 0.203565928413484D+03 -.942639922421781D+01 0.120305578694870D+03 -.106074492425851D+03
 0.199266985932079D+03 -.442459116958788D+02 -.152105590539004D+03 -.902568798101627D+02
 0.206004770422596D+03 0.536723109200966D+02 0.318000118441335D+02 0.196331372236013D+03
 0.000000000000000D+00 0.000000000000000D+00 0.000000000000000D+00 0.000000000000000D+00
 0.304418842384080D+03 0.000000000000000D+00 0.000000000000000D+00 0.304418842384080D+03
 0.304418842384080D+03 -.000000000000000D+00 -.000000000000000D+00 -.304418842384080D+03
 0.202195742766250D+03 -.855704683118559D+01 0.120820656505407D+03 -.102894432813087D+03
 0.197303306440645D+03 -.433962520134417D+02 -.151602180354091D+03 -.871488554205509D+02
 0.177031106464391D+03 0.296985831379230D+02 0.418837599260573D+02 0.169421832920267D+03
 0.323075290968735D+02 0.222547157067043D+02 -.111022360773730D+02 0.206214553133714D+02
0.102568288330D-02 0.000000000000D+00 0.000000000000D+00 0.745408539990D-05 0.000000000000D+00  6 -1 2 25 24 21 21 2 0.39644703D-02 0.55326243D+00 0.42804442D+05 0.42804442D+05 0.42804442D+05 0.11990232D+01  1  2  2  3  6  5       21 0.374628436147D-01 0.100000000000D+01
0.613868482170D-04 0.541267728011D-04 -.393889234040D-05 0.745408539990D-05 0.000000000000D+00  6 -1 2 25 24 21 21 4 0.39644703D-02 0.55326243D+00 0.42804442D+05 0.42804442D+05 0.42804442D+05 0.11990232D+01  1  2  3  3  6  5       21 0.322342922218D-02 0.100000000000D+01
0.619875874045D-04 0.000000000000D+00 0.000000000000D+00 0.745408539990D-05 0.000000000000D+00  6 -1 2 25 24 21 21 4 0.39644703D-02 0.55326243D+00 0.42804442D+05 0.42804442D+05 0.42804442D+05 0.11990232D+01  1  2 15  3  6  5       21 0.325497409390D-02 0.100000000000D+01
0.323666977366D-02 0.000000000000D+00 0.000000000000D+00 0.741931036592D-05 0.000000000000D+00  6 -1 2 25 24 21 21 4 0.39644703D-02 0.55326243D+00 0.45643122D+05 0.45643122D+05 0.45643122D+05 0.11962231D+01  1  2 12  3  6  5       21 0.167889605405D+00 0.100000000000D+01
-.284251876960D-02 0.000000000000D+00 0.000000000000D+00 0.745408539990D-05 0.000000000000D+00  6 -1 2 25 24 21 21 4 0.39644703D-02 0.55326243D+00 0.42804442D+05 0.42804442D+05 0.42804442D+05 0.11990232D+01  1  2  4  3  6  5       21 -.149260930194D+00 0.100000000000D+01
-.560301287854D-02 0.000000000000D+00 0.000000000000D+00 0.745408539990D-05 0.000000000000D+00  6 -1 2 25 24 21 21 4 0.39644703D-02 0.55326243D+00 0.42804442D+05 0.42804442D+05 0.42804442D+05 0.11990232D+01  1  2  5  3  6  5       21 -.294214737676D+00 0.100000000000D+01
0.654433828058D-02 0.000000000000D+00 -.000000000000D+00 0.745408539990D-05 0.000000000000D+00  6 -1 2 25 24 21 21 4 0.39644703D-02 0.55326243D+00 0.42804442D+05 0.42804442D+05 0.42804442D+05 0.11990232D+01  1  2  6  3  6  5       21 0.343643823819D+00 0.100000000000D+01
0.334100560693D-04 0.000000000000D+00 0.000000000000D+00 0.741931036592D-05 0.000000000000D+00  6 -1 2 25 24 1 -1 4 0.39644703D-02 0.55326243D+00 0.45643122D+05 0.45643122D+05 0.45643122D+05 0.11962231D+01  1  2 12  6  6  5       21 0.173301619328D-02 0.100000000000D+01
-.741736308797D-04 0.000000000000D+00 0.000000000000D+00 0.745408539990D-05 0.000000000000D+00  6 -1 2 25 24 1 -1 4 0.39644703D-02 0.55326243D+00 0.42804442D+05 0.42804442D+05 0.42804442D+05 0.11990232D+01  1  2  5  6  6  5       21 -.389486439258D-02 0.100000000000D+01
0.334100560693D-04 0.000000000000D+00 0.000000000000D+00 0.741931036592D-05 0.000000000000D+00  6 -1 2 25 24 2 -2 4 0.39644703D-02 0.55326243D+00 0.45643122D+05 0.45643122D+05 0.45643122D+05 0.11962231D+01  1  2 12  7  6  5       21 0.173301619328D-02 0.100000000000D+01
-.741736308797D-04 0.000000000000D+00 0.000000000000D+00 0.745408539990D-05 0.000000000000D+00  6 -1 2 25 24 2 -2 4 0.39644703D-02 0.55326243D+00 0.42804442D+05 0.42804442D+05 0.42804442D+05 0.11990232D+01  1  2  5  7  6  5       21 -.389486439258D-02 0.100000000000D+01
0.334100560693D-04 0.000000000000D+00 0.000000000000D+00 0.741931036592D-05 0.000000000000D+00  6 -1 2 25 24 3 -3 4 0.39644703D-02 0.55326243D+00 0.45643122D+05 0.45643122D+05 0.45643122D+05 0.11962231D+01  1  2 12  8  6  5       21 0.173301619328D-02 0.100000000000D+01
0.334100560693D-04 0.000000000000D+00 0.000000000000D+00 0.741931036592D-05 0.000000000000D+00  6 -1 2 25 24 4 -4 4 0.39644703D-02 0.55326243D+00 0.45643122D+05 0.45643122D+05 0.45643122D+05 0.11962231D+01  1  2 12  8  6  5       21 0.173301619328D-02 0.100000000000D+01
-.741736308797D-04 0.000000000000D+00 0.000000000000D+00 0.745408539990D-05 0.000000000000D+00  6 -1 2 25 24 3 -3 4 0.39644703D-02 0.55326243D+00 0.42804442D+05 0.42804442D+05 0.42804442D+05 0.11990232D+01  1  2  5  8  6  5       21 -.389486439258D-02 0.100000000000D+01
-.741736308797D-04 0.000000000000D+00 0.000000000000D+00 0.745408539990D-05 0.000000000000D+00  6 -1 2 25 24 4 -4 4 0.39644703D-02 0.55326243D+00 0.42804442D+05 0.42804442D+05 0.42804442D+05 0.11990232D+01  1  2  5  8  6  5       21 -.389486439258D-02 0.100000000000D+01
  </mgrwgt>
  </event>
  <event>
  6     66 -.43135346E-03 0.14029363E+02 0.75467711E-02 0.12385010E+00
       -1 -1    0    0    0  501 0.00000000E+00 0.00000000E+00 0.34943229E+03 0.34943244E+03 0.32000000E+00 0.0000E+00 0.9000E+01
        2 -1    0    0  502    0 0.00000000E+00 0.00000000E+00 -.51827694E+02 0.51828682E+02 0.32000000E+00 0.0000E+00 0.9000E+01
       25  1    1    2    0    0 0.24487011E+02 -.23190439E+02 0.23459333E+03 0.26794858E+03 0.12500000E+03 0.0000E+00 0.9000E+01
       24  1    1    2    0    0 -.41136263E+02 0.20930350E+02 0.45117142E+02 0.10311665E+03 0.80419002E+02 0.0000E+00 0.9000E+01
       21  1    1    2  502  503 0.17136395E+02 -.38185000E+01 0.16002664E+02 0.23767304E+02 0.75000000E+00 0.0000E+00 0.9000E+01
       21  1    1    2  503  501 -.48714289E+00 0.60785883E+01 0.18914560E+01 0.64285807E+01 0.75000000E+00 0.0000E+00 0.9000E+01
#aMCatNLO 2  0  0  5  1 0.75592130D+01 0.00000000D+00  -5  6  0 0.00000000D+00 0.00000000D+00 0.00000000D+00 0.00000000D+00 0.00000000D+00
  <mgrwgt>
 -.8070218378D+00    3    2    0
 0.134575248929434D+03 0.000000000000000D+00 0.000000000000000D+00 0.134575248929434D+03
 0.134575248929434D+03 -.000000000000000D+00 -.000000000000000D+00 -.134575248929434D+03
 0.140130990701686D+03 0.210214202485069D+02 -.236608824879668D+02 0.548630757947671D+02
 0.104362599494733D+03 -.437113617118001D+02 0.205807879963710D+02 -.457174391417112D+02
 0.246569076624494D+02 0.226899414632933D+02 0.308009449159584D+01 -.914563665305593D+01
 0.000000000000000D+00 -.000000000000000D+00 0.000000000000000D+00 0.000000000000000D+00
 0.134575248929434D+03 0.000000000000000D+00 0.000000000000000D+00 0.134575248929434D+03
 0.134575248929434D+03 -.000000000000000D+00 -.000000000000000D+00 -.134575248929434D+03
 0.140075024701381D+03 0.245960989265758D+02 -.231756301075957D+02 0.534222297531882D+02
 0.103828780998055D+03 -.410553970004974D+02 0.209413275901108D+02 -.467879790658538D+02
 0.173561036422552D+02 0.167231182749559D+02 -.417370743075202D+01 -.203760032514297D+01
 0.789058851717735D+01 -.263820201034318D+00 0.640800994823687D+01 -.459665036219143D+01
-.411049782762D-03 0.000000000000D+00 0.000000000000D+00 0.377985460558D-04 0.000000000000D+00  6 -1 2 25 24 21 21 4 0.53758901D-01 0.79735787D-02 0.15107672D+05 0.15107672D+05 0.15107672D+05 0.12474686D+01  1  2 13  3  6  5       21 -.332695501555D+00 0.100000000000D+01
-.375220634244D-03 0.000000000000D+00 0.000000000000D+00 0.377985460558D-04 0.000000000000D+00  6 -1 2 25 24 21 21 4 0.53758901D-01 0.79735787D-02 0.15107672D+05 0.15107672D+05 0.15107672D+05 0.12474686D+01  1  2 13  3  6  5       21 -.303696102853D+00 0.100000000000D+01
-.210778415899D-03 0.000000000000D+00 0.000000000000D+00 0.378026367187D-04 0.000000000000D+00  6 -1 2 25 24 21 21 4 0.53758901D-01 0.79735787D-02 0.15087073D+05 0.15087073D+05 0.15087073D+05 0.12475361D+01  1  2  8  3  6  5       21 -.170630233429D+00 0.100000000000D+01
  </mgrwgt>
  </event>
  <event>
  6     66 0.43135346E-03 0.81225106E+02 0.75467711E-02 0.11879751E+00
       -1 -1    0    0    0  501 0.00000000E+00 0.00000000E+00 0.38241617E+03 0.38241631E+03 0.32000000E+00 0.0000E+00 0.9000E+01
       21 -1    0    0  502  503 0.00000000E+00 0.00000000E+00 -.11232074E+03 0.11232324E+03 0.75000000E+00 0.0000E+00 0.9000E+01
       25  1    1    2    0    0 -.66347284E+02 -.65303848E+02 0.17656652E+03 0.23551495E+03 0.12500000E+03 0.0000E+00 0.9000E+01
       24  1    1    2    0    0 -.23809218E+01 0.20309368E+02 0.14091665E+03 0.16353244E+03 0.80419002E+02 0.0000E+00 0.9000E+01
       -2  1    1    2    0  503 0.67916098E+02 0.43279016E+02 -.44088275E+02 0.91812570E+02 0.32000000E+00 0.0000E+00 0.9000E+01
       21  1    1    2  502  501 0.81210747E+00 0.17154641E+01 -.32994614E+01 0.38795981E+01 0.75000000E+00 0.0000E+00 0.9000E+01
#aMCatNLO 2  0  0  2  5 0.18004639D+03 0.00000000D+00  -5  6  0 0.00000000D+00 0.00000000D+00 0.00000000D+00 0.00000000D+00 0.00000000D+00
  <mgrwgt>
 0.1039459534D-01    1    2    0
 0.119533551867444D+03 0.000000000000000D+00 0.000000000000000D+00 0.119533551867444D+03
 0.119533551867444D+03 0.000000000000000D+00 0.000000000000000D+00 -.119533551867444D+03
 0.134225700138180D+03 -.261979167394786D+02 -.397204261340900D+02 -.112913898091588D+02
 0.934264107639305D+02 0.223753538605663D+02 0.360841023873146D+02 0.214139993550097D+02
 0.000000000000000D+00 0.000000000000000D+00 0.000000000000000D+00 -.000000000000000D+00
 0.114149928327772D+02 0.382256287891230D+01 0.363632374677541D+01 -.101226095458510D+02
 0.134527782668254D+03 0.000000000000000D+00 0.000000000000000D+00 0.134527782668254D+03
 0.319293475825454D+03 0.000000000000000D+00 0.000000000000000D+00 -.319293475825454D+03
 0.156270204915460D+03 -.663525475672889D+02 -.653086586283027D+02 -.112913898091588D+02
 0.856959795754763D+02 -.238435301291158D+01 0.203061678650448D+02 0.214139993550097D+02
 0.201554039742082D+03 0.679160979182655D+02 0.432790158396548D+02 -.184765693157200D+03
 0.103010342606886D+02 0.820802661934958D+00 0.172347492360312D+01 -.101226095458510D+02
0.547646415766D-05 0.000000000000D+00 0.000000000000D+00 0.822015811201D-03 0.635606890569D-05  6 -1 21 25 24 -2 21 4 0.58833408D-01 0.17280301D-01 0.25805482D+05 0.25805482D+05 0.25805482D+05 0.12218239D+01  1  2  1  5  5  2        2 0.103945953378D-01 0.100000000000D+01
  </mgrwgt>
  </event>
  <event>
  5     66 0.43135346E-03 0.36236760E+02 0.75467711E-02 0.11186898E+00
       -1 -1    0    0    0  501 0.00000000E+00 0.00000000E+00 0.12478782E+02 0.12482884E+02 0.32000000E+00 0.0000E+00 0.9000E+01
        2 -1    0    0  502    0 0.00000000E+00 0.00000000E+00 -.15426151E+04 0.15426152E+04 0.32000000E+00 0.0000E+00 0.9000E+01
       25  1    1    2    0    0 0.44616348E+01 0.24543630E+02 -.52718508E+03 0.54237570E+03 0.12500000E+03 0.0000E+00 0.9000E+01
       24  1    1    2    0    0 -.24129704E+02 -.54973027E+02 -.62113874E+03 0.62919379E+03 0.80419002E+02 0.0000E+00 0.9000E+01
       21  1    1    2  502  501 0.19668069E+02 0.30429396E+02 -.38181253E+03 0.38352856E+03 0.75000000E+00 0.0000E+00 0.9000E+01
#aMCatNLO 1  0  0  1  5 0.17077898D+03 0.00000000D+00  -5  6  0 0.00000000D+00 0.00000000D+00 0.00000000D+00 0.00000000D+00 0.00000000D+00
  <mgrwgt>
 0.2362401210D+00    5    4    0
 0.138755804119817D+03 0.000000000000000D+00 0.000000000000000D+00 0.138755804119817D+03
 0.138755804119817D+03 0.000000000000000D+00 0.000000000000000D+00 -.138755804119817D+03
 0.132543484787656D+03 0.446026735005754D+01 0.245415146555478D+02 0.363399977054624D+02
 0.101009624709549D+03 -.241307456837842D+02 -.549746389465892D+02 -.114553269281221D+02
 0.439584987424298D+02 0.196704783337267D+02 0.304331242910414D+02 -.248846707773403D+02
 0.000000000000000D+00 -.000000000000000D+00 0.000000000000000D+00 0.000000000000000D+00
 0.374403000895538D+03 0.000000000000000D+00 0.000000000000000D+00 0.374403000895538D+03
 0.197403064064869D+03 0.000000000000000D+00 0.000000000000000D+00 -.197403064064869D+03
 0.144177818049399D+03 0.453214159339179D+02 -.422802204582410D+02 0.363399977054624D+02
 0.139719433048687D+03 0.114157254287204D+02 -.113105087042900D+03 -.114553269281221D+02
 0.419526426250556D+02 0.323562668018915D+02 0.968758907953024D+01 -.248846707773403D+02
 0.245956171237266D+03 -.890934081645298D+02 0.145697718421611D+03 0.176999936830669D+03
 0.138755804119817D+03 0.000000000000000D+00 0.000000000000000D+00 0.138755804119817D+03
 0.138755804119817D+03 0.000000000000000D+00 0.000000000000000D+00 -.138755804119817D+03
 0.132543484787656D+03 0.446026735005754D+01 0.245415146555478D+02 0.363399977054624D+02
 0.101009624709549D+03 -.241307456837842D+02 -.549746389465892D+02 -.114553269281221D+02
 0.000000000000000D+00 -.000000000000000D+00 0.000000000000000D+00 0.000000000000000D+00
 0.439584987424298D+02 0.196704783337267D+02 0.304331242910414D+02 -.248846707773403D+02
 0.374403000895538D+03 0.000000000000000D+00 0.000000000000000D+00 0.374403000895538D+03
 0.197403064064869D+03 0.000000000000000D+00 0.000000000000000D+00 -.197403064064869D+03
 0.144177818049399D+03 0.453214159339179D+02 -.422802204582410D+02 0.363399977054624D+02
 0.139719433048687D+03 0.114157254287204D+02 -.113105087042900D+03 -.114553269281221D+02
 0.245956171237266D+03 -.890934081645298D+02 0.145697718421611D+03 0.176999936830669D+03
 0.419526426250556D+02 0.323562668018915D+02 0.968758907953024D+01 -.248846707773403D+02
0.123980817248D-03 0.000000000000D+00 0.000000000000D+00 0.183874499224D-04 0.000000000000D+00  6 -1 2 25 24 21 21 2 0.19201307D-02 0.23732572D+00 0.17431808D+05 0.17431808D+05 0.17431808D+05 0.12404517D+01  1  2  2  1  6  1       -1 0.199240196031D+00 0.100000000000D+01
0.662470471635D-05 0.654264747527D-05 -.476118983131D-06 0.183874499224D-04 0.000000000000D+00  6 -1 2 25 24 21 21 4 0.19201307D-02 0.23732572D+00 0.17431808D+05 0.17431808D+05 0.17431808D+05 0.12404517D+01  1  2  3  1  6  1       -1 0.163813142220D-01 0.100000000000D+01
0.548829449578D-05 0.000000000000D+00 0.000000000000D+00 0.183874499224D-04 0.000000000000D+00  6 -1 2 25 24 21 21 4 0.19201307D-02 0.23732572D+00 0.17431808D+05 0.17431808D+05 0.17431808D+05 0.12404517D+01  1  2 15  1  6  1       -1 0.135712428746D-01 0.100000000000D+01
0.246275003305D-05 0.000000000000D+00 -.781750327577D-04 0.183874499224D-04 0.000000000000D+00  6 -1 2 25 24 21 21 4 0.77384886D-02 0.23732572D+00 0.17431808D+05 0.17431808D+05 0.17431808D+05 0.12404517D+01  1  2  5  1  6  1       -1 0.787161865729D-03 0.100000000000D+01
0.122584426281D-05 0.000000000000D+00 -.130160832616D-04 0.183874499224D-04 0.000000000000D+00  6 21 2 25 24 1 21 4 0.77384886D-02 0.23732572D+00 0.17431808D+05 0.17431808D+05 0.17431808D+05 0.12404517D+01  3  4  5  4  5  1       -1 0.626020603946D-02 0.100000000000D+01
  </mgrwgt>
  </event>
  <event>
  6     66 -.43135346E-03 0.12392238E+02 0.75467711E-02 0.12367668E+00
       -1 -1    0    0    0  501 0.00000000E+00 0.00000000E+00 0.40673826E+03 0.40673838E+03 0.32000000E+00 0.0000E+00 0.9000E+01
        2 -1    0    0  502    0 0.00000000E+00 0.00000000E+00 -.12530144E+03 0.12530185E+03 0.32000000E+00 0.0000E+00 0.9000E+01
       25  1    1    2    0    0 -.36821541E+01 0.47951794E+02 0.21190069E+03 0.25067875E+03 0.12500000E+03 0.0000E+00 0.9000E+01
       24  1    1    2    0    0 -.14217743E+02 -.26565415E+02 0.16156597E+03 0.18297170E+03 0.80419002E+02 0.0000E+00 0.9000E+01
       21  1    1    2  503  501 0.13380609E+02 -.11716643E+02 -.81339108E+02 0.83264239E+02 0.75000000E+00 0.0000E+00 0.9000E+01
       21  1    1    2  502  503 0.45192882E+01 -.96697356E+01 -.10690733E+02 0.15125542E+02 0.75000000E+00 0.0000E+00 0.9000E+01
#aMCatNLO 2  0  0  5  1 0.71920717D+01 0.00000000D+00  -5  6  0 0.00000000D+00 0.00000000D+00 0.00000000D+00 0.00000000D+00 0.00000000D+00
  <mgrwgt>
 -.8008650178D+00    1    2    0
 0.225754361104689D+03 0.000000000000000D+00 0.000000000000000D+00 0.225754361104689D+03
 0.225754361104689D+03 -.000000000000000D+00 -.000000000000000D+00 -.225754361104689D+03
 0.163581823952447D+03 -.372947011008274D+01 0.480083260781419D+02 0.938898546568375D+02
 0.115103502345125D+03 -.142510345836520D+02 -.265256390275609D+02 0.766478883285039D+02
 0.172823395911806D+03 0.179805046937347D+02 -.214826870505811D+02 -.170537742985341D+03
 0.000000000000000D+00 0.000000000000000D+00 -.000000000000000D+00 0.000000000000000D+00
 0.225754361104689D+03 0.000000000000000D+00 0.000000000000000D+00 0.225754361104689D+03
 0.225754361104689D+03 -.000000000000000D+00 -.000000000000000D+00 -.225754361104689D+03
 0.163307395098778D+03 -.368222628448243D+01 0.479518802587542D+02 0.934417662674901D+02
 0.114898855044202D+03 -.142177933795165D+02 -.265653548418714D+02 0.763326090844596D+02
 0.148788159216736D+03 0.133668616630769D+02 -.116779840125236D+02 -.147725651197712D+03
 0.245143128496626D+02 0.453315800092207D+01 -.970854140435917D+01 -.220487241542374D+02
-.378633112819D-02 0.000000000000D+00 0.000000000000D+00 0.713207195678D-04 0.000000000000D+00  6 -1 2 25 24 21 21 4 0.62575158D-01 0.19277186D-01 0.15410145D+05 0.15410145D+05 0.15410145D+05 0.12464892D+01  1  2 13  3  6  5       21 -.800865017817D+00 0.100000000000D+01
  </mgrwgt>
  </event>
  <event>
  6     66 0.43135346E-03 0.35120919E+02 0.75467711E-02 0.11480353E+00
       -1 -1    0    0    0  503 0.00000000E+00 0.00000000E+00 0.60909570E+02 0.60910411E+02 0.32000000E+00 0.0000E+00 0.9000E+01
        2 -1    0    0  502    0 0.00000000E+00 0.00000000E+00 -.73136800E+03 0.73136807E+03 0.32000000E+00 0.0000E+00 0.9000E+01
       25  1    1    2    0    0 0.39867942E+02 0.98202567E+02 -.29302593E+03 0.33574156E+03 0.12500000E+03 0.0000E+00 0.9000E+01
       24  1    1    2    0    0 -.90335911E+02 -.98113630E+02 -.18168868E+03 0.23930076E+03 0.80419002E+02 0.0000E+00 0.9000E+01
       21  1    1    2  502  501 0.95480503E+01 -.31460217E+02 -.12766122E+03 0.13182891E+03 0.75000000E+00 0.0000E+00 0.9000E+01
       21  1    1    2  501  503 0.40919919E+02 0.31371280E+02 -.68082597E+02 0.85407257E+02 0.75000000E+00 0.0000E+00 0.9000E+01
#aMCatNLO 2  0  0  1  1 0.26627298D+03 0.00000000D+00  -5  6  0 0.00000000D+00 0.00000000D+00 0.00000000D+00 0.00000000D+00 0.00000000D+00
  <mgrwgt>
 0.1754028776D-01    1    2    0
 0.183133616164466D+03 0.000000000000000D+00 0.000000000000000D+00 0.183133616164466D+03
 0.183133616164466D+03 0.000000000000000D+00 0.000000000000000D+00 -.183133616164466D+03
 0.178904155940858D+03 0.589509007920234D+02 0.112835432862544D+03 -.132156497926656D+02
 0.144526859634666D+03 -.733295854232770D+02 -.850733742055824D+02 0.424981188338387D+02
 0.428362167534071D+02 0.143786846312536D+02 -.277620586569614D+02 -.292824690411732D+02
 0.000000000000000D+00 0.000000000000000D+00 0.000000000000000D+00 0.000000000000000D+00
 0.215598366935565D+03 0.000000000000000D+00 0.000000000000000D+00 0.215598366935565D+03
 0.206618136946545D+03 0.000000000000000D+00 0.000000000000000D+00 -.206618136946545D+03
 0.164417617634118D+03 0.398667794311779D+02 0.982045797650108D+02 -.132156497926656D+02
 0.161431077889429D+03 -.903367747728586D+02 -.981119461298930D+02 0.424981188338387D+02
 0.440300446794672D+02 0.955007659370980D+01 -.314639139075686D+02 -.292824690411732D+02
 0.523377636790960D+02 0.409199187479709D+02 0.313712802724507D+02 0.898022998902028D+01
0.278827334620D-04 0.000000000000D+00 0.000000000000D+00 0.187120459862D-04 0.188766064436D-07  6 -1 2 25 24 21 21 4 0.93706534D-02 0.11251679D+00 0.40817169D+05 0.40817169D+05 0.40817169D+05 0.12011094D+01  1  2  1  1  6  1       -1 0.175402877581D-01 0.100000000000D+01
  </mgrwgt>
  </event>
  <event>
  5     66 0.43135346E-03 0.44818248E+02 0.75467711E-02 0.10896388E+00
       -1 -1    0    0    0  501 0.00000000E+00 0.00000000E+00 0.16794817E+03 0.16794847E+03 0.32000000E+00 0.0000E+00 0.9000E+01
        2 -1    0    0  502    0 0.00000000E+00 0.00000000E+00 -.38031085E+03 0.38031099E+03 0.32000000E+00 0.0000E+00 0.9000E+01
       25  1    1    2    0    0 0.52540033E+02 -.21617526E+03 -.15905885E+03 0.30069406E+03 0.12500000E+03 0.0000E+00 0.9000E+01
       24  1    1    2    0    0 -.36133324E+02 0.17447314E+03 -.53769056E+02 0.20274324E+03 0.80419002E+02 0.0000E+00 0.9000E+01
       21  1    1    2  502  501 -.16406709E+02 0.41702120E+02 0.46521807E+00 0.44822158E+02 0.75000000E+00 0.0000E+00 0.9000E+01
#aMCatNLO 1  0  0  2  5 0.81152106D+02 0.00000000D+00  -5  6  0 0.00000000D+00 0.00000000D+00 0.00000000D+00 0.00000000D+00 0.00000000D+00
  <mgrwgt>
 0.3157621992D+00    4    2    0
 0.252730351483230D+03 0.000000000000000D+00 0.000000000000000D+00 0.252730351483230D+03
 0.252730351483230D+03 0.000000000000000D+00 0.000000000000000D+00 -.252730351483230D+03
 0.259330681111350D+03 0.525410269325813D+02 -.216177788901731D+03 -.461953053903227D+02
 0.197317749150536D+03 -.361325679843419D+02 0.174471220979175D+03 0.268571918926004D+02
 0.488122727045732D+02 -.164084589482394D+02 0.417065679225560D+02 0.193381134977222D+02
 0.000000000000000D+00 -.000000000000000D+00 0.000000000000000D+00 0.000000000000000D+00
 0.309858581069074D+03 0.000000000000000D+00 0.000000000000000D+00 0.309858581069074D+03
 0.286517345467468D+03 0.000000000000000D+00 0.000000000000000D+00 -.286517345467468D+03
 0.297637962830641D+03 0.541251225887742D+02 -.260575942447915D+03 -.461953053903227D+02
 0.171644129810520D+03 -.350831895029496D+02 0.145059823528034D+03 0.268571918926004D+02
 0.426516789501730D+02 -.161483228524458D+02 0.344156178597889D+02 0.193381134977222D+02
 0.844421549452076D+02 -.289361023337884D+01 0.811005010600923D+02 0.233412356016065D+02
0.145153955457D-02 0.000000000000D+00 0.000000000000D+00 0.766015067146D-05 0.000000000000D+00  6 -1 2 25 24 21 21 2 0.25838213D-01 0.58509396D-01 0.61375784D+05 0.61375784D+05 0.61375784D+05 0.11835642D+01  1  2  2  2  6  2        2 0.257288744878D+00 0.100000000000D+01
0.253223936732D-03 0.765998467564D-04 -.557429408868D-05 0.766015067146D-05 0.000000000000D+00  6 -1 2 25 24 21 21 4 0.25838213D-01 0.58509396D-01 0.61375784D+05 0.61375784D+05 0.61375784D+05 0.11835642D+01  1  2  3  2  6  2        2 0.628753395140D-01 0.100000000000D+01
0.256759576542D-04 0.000000000000D+00 0.000000000000D+00 0.766015067146D-05 0.000000000000D+00  6 -1 2 25 24 21 21 4 0.25838213D-01 0.58509396D-01 0.61375784D+05 0.61375784D+05 0.61375784D+05 0.11835642D+01  1  2 15  2  6  2        2 0.637532365893D-02 0.100000000000D+01
-.434040955619D-04 0.000000000000D+00 0.000000000000D+00 0.766015067146D-05 0.000000000000D+00  6 -1 2 25 24 21 21 4 0.25838213D-01 0.58509396D-01 0.61375784D+05 0.61375784D+05 0.61375784D+05 0.11835642D+01  1  2  4  2  6  2        2 -.107772088215D-01 0.100000000000D+01
  </mgrwgt>
  </event>
  <event>
  5     66 0.43135346E-03 0.61067421E+02 0.75467711E-02 0.10876104E+00
       -1 -1    0    0    0  501 0.00000000E+00 0.00000000E+00 0.27671760E+03 0.27671779E+03 0.32000000E+00 0.0000E+00 0.9000E+01
        2 -1    0    0  502    0 -.00000000E+00 -.00000000E+00 -.34296177E+03 0.34296191E+03 0.32000000E+00 0.0000E+00 0.9000E+01
       25  1    1    2    0    0 -.14737290E+03 0.19010005E+03 -.82959222E+02 0.28348551E+03 0.12500000E+03 0.0000E+00 0.9000E+01
       24  1    1    2    0    0 0.19727128E+03 -.15490140E+03 0.47754222E+02 0.26769028E+03 0.80419002E+02 0.0000E+00 0.9000E+01
       21  1    1    2  502  501 -.49898385E+02 -.35198649E+02 -.31039162E+02 0.68503911E+02 0.75000000E+00 0.0000E+00 0.9000E+01
#aMCatNLO 1  0  0  5  2 0.16008331D+02 0.00000000D+00  -5  6  0 0.00000000D+00 0.00000000D+00 0.00000000D+00 0.00000000D+00 0.00000000D+00
  <mgrwgt>
 0.9355223541D-01   20    2    0
 0.308064378058739D+03 0.000000000000000D+00 0.000000000000000D+00 0.308064378058739D+03
 0.308064378058739D+03 -.000000000000000D+00 -.000000000000000D+00 -.308064378058739D+03
 0.276199616680773D+03 -.147371434897708D+03 0.190101086802058D+03 -.529572018470820D+02
 0.274368104777724D+03 0.197272737941080D+03 -.154900379236516D+03 0.768113295195636D+02
 0.655610346589817D+02 -.499013030433711D+02 -.352007075655418D+02 -.238541276724815D+02
 0.000000000000000D+00 0.000000000000000D+00 -.000000000000000D+00 0.000000000000000D+00
 0.308064378058739D+03 0.000000000000000D+00 0.000000000000000D+00 0.308064378058739D+03
 0.308064378058739D+03 -.000000000000000D+00 -.000000000000000D+00 -.308064378058739D+03
 0.276664880023319D+03 -.150487307780527D+03 0.187903129565067D+03 -.544466705588183D+02
 0.272992271240692D+03 0.194187885571408D+03 -.157076454399389D+03 0.753366894242348D+02
 0.416759088427481D+02 -.310878151265872D+02 -.100667007319417D+02 -.258667869071076D+02
 0.247956960107182D+02 -.126127626642937D+02 -.207599744337354D+02 0.497676804169116D+01
0.181663785426D-02 0.000000000000D+00 0.000000000000D+00 0.381141305680D-05 0.000000000000D+00  6 -1 2 25 24 21 21 2 0.42571965D-01 0.52763374D-01 0.88666801D+05 0.88666801D+05 0.88666801D+05 0.11684012D+01  1  2  2  3  6  5       21 0.147774143252D+00 0.100000000000D+01
0.252516673868D-03 0.958666133560D-04 -.697636769211D-05 0.381141305680D-05 0.000000000000D+00  6 -1 2 25 24 21 21 4 0.42571965D-01 0.52763374D-01 0.88666801D+05 0.88666801D+05 0.88666801D+05 0.11684012D+01  1  2  3  3  6  5       21 0.280416854787D-01 0.100000000000D+01
0.174595262024D-04 0.000000000000D+00 0.000000000000D+00 0.381141305680D-05 0.000000000000D+00  6 -1 2 25 24 21 21 4 0.42571965D-01 0.52763374D-01 0.88666801D+05 0.88666801D+05 0.88666801D+05 0.11684012D+01  1  2 15  3  6  5       21 0.193886025377D-02 0.100000000000D+01
0.123487120306D-02 0.000000000000D+00 0.000000000000D+00 0.381579705957D-05 0.000000000000D+00  6 -1 2 25 24 21 21 4 0.42571965D-01 0.52763374D-01 0.87206208D+05 0.87206208D+05 0.87206208D+05 0.11690729D+01  1  2 12  3  6  5       21 0.137456294349D+00 0.100000000000D+01
0.119610775591D-02 0.000000000000D+00 0.000000000000D+00 0.381579705957D-05 0.000000000000D+00  6 -1 2 25 24 21 21 4 0.42571965D-01 0.52763374D-01 0.87206208D+05 0.87206208D+05 0.87206208D+05 0.11690729D+01  1  2 12  3  6  5       21 0.133141447758D+00 0.100000000000D+01
-.520871054408D-02 0.000000000000D+00 0.000000000000D+00 0.381141305680D-05 0.000000000000D+00  6 -1 2 25 24 21 21 4 0.42571965D-01 0.52763374D-01 0.88666801D+05 0.88666801D+05 0.88666801D+05 0.11684012D+01  1  2  4  3  6  5       21 -.578421300225D+00 0.100000000000D+01
-.223361093216D-02 0.000000000000D+00 0.000000000000D+00 0.381141305680D-05 0.000000000000D+00  6 -1 2 25 24 21 21 4 0.42571965D-01 0.52763374D-01 0.88666801D+05 0.88666801D+05 0.88666801D+05 0.11684012D+01  1  2  5  3  6  5       21 -.248039918640D+00 0.100000000000D+01
0.415688871916D-02 0.000000000000D+00 -.000000000000D+00 0.381141305680D-05 0.000000000000D+00  6 -1 2 25 24 21 21 4 0.42571965D-01 0.52763374D-01 0.88666801D+05 0.88666801D+05 0.88666801D+05 0.11684012D+01  1  2  6  3  6  5       21 0.461617699328D+00 0.100000000000D+01
0.306522896802D-04 0.000000000000D+00 0.000000000000D+00 0.381579705957D-05 0.000000000000D+00  6 -1 2 25 24 1 -1 4 0.42571965D-01 0.52763374D-01 0.87206208D+05 0.87206208D+05 0.87206208D+05 0.11690729D+01  1  2 12  6  6  5       21 0.341197538846D-02 0.100000000000D+01
0.297873589879D-04 0.000000000000D+00 0.000000000000D+00 0.381579705957D-05 0.000000000000D+00  6 -1 2 25 24 1 -1 4 0.42571965D-01 0.52763374D-01 0.87206208D+05 0.87206208D+05 0.87206208D+05 0.11690729D+01  1  2 12  6  6  5       21 0.331569800542D-02 0.100000000000D+01
-.379728609961D-04 0.000000000000D+00 0.000000000000D+00 0.381141305680D-05 0.000000000000D+00  6 -1 2 25 24 1 -1 4 0.42571965D-01 0.52763374D-01 0.88666801D+05 0.88666801D+05 0.88666801D+05 0.11684012D+01  1  2  5  6  6  5       21 -.421684243053D-02 0.100000000000D+01
0.306522896802D-04 0.000000000000D+00 0.000000000000D+00 0.381579705957D-05 0.000000000000D+00  6 -1 2 25 24 2 -2 4 0.42571965D-01 0.52763374D-01 0.87206208D+05 0.87206208D+05 0.87206208D+05 0.11690729D+01  1  2 12  7  6  5       21 0.341197538846D-02 0.100000000000D+01
0.297873589879D-04 0.000000000000D+00 0.000000000000D+00 0.381579705957D-05 0.000000000000D+00  6 -1 2 25 24 2 -2 4 0.42571965D-01 0.52763374D-01 0.87206208D+05 0.87206208D+05 0.87206208D+05 0.11690729D+01  1  2 12  7  6  5       21 0.331569800542D-02 0.100000000000D+01
-.379728609961D-04 0.000000000000D+00 0.000000000000D+00 0.381141305680D-05 0.000000000000D+00  6 -1 2 25 24 2 -2 4 0.42571965D-01 0.52763374D-01 0.88666801D+05 0.88666801D+05 0.88666801D+05 0.11684012D+01  1  2  5  7  6  5       21 -.421684243053D-02 0.100000000000D+01
0.306522896802D-04 0.000000000000D+00 0.000000000000D+00 0.381579705957D-05 0.000000000000D+00  6 -1 2 25 24 3 -3 4 0.42571965D-01 0.52763374D-01 0.87206208D+05 0.87206208D+05 0.87206208D+05 0.11690729D+01  1  2 12  8  6  5       21 0.341197538846D-02 0.100000000000D+01
0.306522896802D-04 0.000000000000D+00 0.000000000000D+00 0.381579705957D-05 0.000000000000D+00  6 -1 2 25 24 4 -4 4 0.42571965D-01 0.52763374D-01 0.87206208D+05 0.87206208D+05 0.87206208D+05 0.11690729D+01  1  2 12  8  6  5       21 0.341197538846D-02 0.100000000000D+01
0.297873589879D-04 0.000000000000D+00 0.000000000000D+00 0.381579705957D-05 0.000000000000D+00  6 -1 2 25 24 3 -3 4 0.42571965D-01 0.52763374D-01 0.87206208D+05 0.87206208D+05 0.87206208D+05 0.11690729D+01  1  2 12  8  6  5       21 0.331569800542D-02 0.100000000000D+01
0.297873589879D-04 0.000000000000D+00 0.000000000000D+00 0.381579705957D-05 0.000000000000D+00  6 -1 2 25 24 4 -4 4 0.42571965D-01 0.52763374D-01 0.87206208D+05 0.87206208D+05 0.87206208D+05 0.11690729D+01  1  2 12  8  6  5       21 0.331569800542D-02 0.100000000000D+01
-.379728609961D-04 0.000000000000D+00 0.000000000000D+00 0.381141305680D-05 0.000000000000D+00  6 -1 2 25 24 3 -3 4 0.42571965D-01 0.52763374D-01 0.88666801D+05 0.88666801D+05 0.88666801D+05 0.11684012D+01  1  2  5  8  6  5       21 -.421684243053D-02 0.100000000000D+01
-.379728609961D-04 0.000000000000D+00 0.000000000000D+00 0.381141305680D-05 0.000000000000D+00  6 -1 2 25 24 4 -4 4 0.42571965D-01 0.52763374D-01 0.88666801D+05 0.88666801D+05 0.88666801D+05 0.11684012D+01  1  2  5  8  6  5       21 -.421684243053D-02 0.100000000000D+01
  </mgrwgt>
  </event>
  <event>
  5     66 -.43135346E-03 0.20608947E+02 0.75467711E-02 0.11401414E+00
       -1 -1    0    0    0  501 0.00000000E+00 0.00000000E+00 0.16553508E+02 0.16556600E+02 0.32000000E+00 0.0000E+00 0.9000E+01
        2 -1    0    0  502    0 0.00000000E+00 0.00000000E+00 -.26490283E+04 0.26490283E+04 0.32000000E+00 0.0000E+00 0.9000E+01
       25  1    1    2    0    0 -.14787408E+03 0.53890604E+02 -.13898193E+04 0.14042770E+04 0.12500000E+03 0.0000E+00 0.9000E+01
       24  1    1    2    0    0 0.12753284E+03 -.57190359E+02 -.12202468E+04 0.12308553E+04 0.80419002E+02 0.0000E+00 0.9000E+01
       21  1    1    2  502  501 0.20341237E+02 0.32997543E+01 -.22408695E+02 0.30452691E+02 0.75000000E+00 0.0000E+00 0.9000E+01
#aMCatNLO 1  0  0  1  5 0.19798604D+02 0.00000000D+00  -5  6  0 0.00000000D+00 0.00000000D+00 0.00000000D+00 0.00000000D+00 0.00000000D+00
  <mgrwgt>
 -.6423356884D-01    7    4    0
 0.209415514963665D+03 0.000000000000000D+00 0.000000000000000D+00 0.209415514963665D+03
 0.209415514963665D+03 0.000000000000000D+00 0.000000000000000D+00 -.209415514963665D+03
 0.201884388319697D+03 -.147875063350416D+03 0.538904448626541D+02 -.190024166577322D+02
 0.163981060458143D+03 0.127532044956417D+03 -.571904881524417D+02 -.297892230299242D+02
 0.529655811494893D+02 0.203430183939990D+02 0.330004328978759D+01 0.487916396876564D+02
 0.000000000000000D+00 -.000000000000000D+00 0.000000000000000D+00 0.000000000000000D+00
 0.311484875215612D+03 0.000000000000000D+00 0.000000000000000D+00 0.311484875215612D+03
 0.213710068426408D+03 0.000000000000000D+00 0.000000000000000D+00 -.213710068426408D+03
 0.190904661928143D+03 -.137361173085917D+03 0.398798976368455D+02 -.190024166577322D+02
 0.175563613536116D+03 0.136620728665951D+03 -.693018407659290D+02 -.297892230299242D+02
 0.540320101549493D+02 0.232070517290189D+02 -.516495906182146D+00 0.487916396876564D+02
 0.104694658022813D+03 -.224666073090530D+02 0.299384390352657D+02 0.977748067892041D+02
 0.209415514963665D+03 0.000000000000000D+00 0.000000000000000D+00 0.209415514963665D+03
 0.209415514963665D+03 0.000000000000000D+00 0.000000000000000D+00 -.209415514963665D+03
 0.201884388319697D+03 -.147875063350416D+03 0.538904448626541D+02 -.190024166577322D+02
 0.163981060458143D+03 0.127532044956417D+03 -.571904881524417D+02 -.297892230299242D+02
 0.000000000000000D+00 -.000000000000000D+00 0.000000000000000D+00 0.000000000000000D+00
 0.529655811494893D+02 0.203430183939990D+02 0.330004328978759D+01 0.487916396876564D+02
 0.311484875215612D+03 0.000000000000000D+00 0.000000000000000D+00 0.311484875215612D+03
 0.213710068426408D+03 0.000000000000000D+00 0.000000000000000D+00 -.213710068426408D+03
 0.190904661928143D+03 -.137361173085917D+03 0.398798976368455D+02 -.190024166577322D+02
 0.175563613536116D+03 0.136620728665951D+03 -.693018407659290D+02 -.297892230299242D+02
 0.104694658022813D+03 -.224666073090530D+02 0.299384390352657D+02 0.977748067892041D+02
 0.540320101549493D+02 0.232070517290189D+02 -.516495906182146D+00 0.487916396876564D+02
0.187782564370D-03 0.000000000000D+00 0.000000000000D+00 0.422264870812D-04 0.000000000000D+00  6 -1 2 25 24 21 21 2 0.25469329D-02 0.40754306D+00 0.36643456D+05 0.36643456D+05 0.36643456D+05 0.12058849D+01  1  2  2  1  6  1       -1 0.500134927136D-01 0.100000000000D+01
0.462076553454D-04 0.990955817152D-05 -.721134491464D-06 0.422264870812D-04 0.000000000000D+00  6 -1 2 25 24 21 21 4 0.25469329D-02 0.40754306D+00 0.36643456D+05 0.36643456D+05 0.36643456D+05 0.12058849D+01  1  2  3  1  6  1       -1 0.178960656735D-01 0.100000000000D+01
0.135839170280D-05 0.000000000000D+00 0.000000000000D+00 0.422264870812D-04 0.000000000000D+00  6 -1 2 25 24 21 21 4 0.25469329D-02 0.40754306D+00 0.36643456D+05 0.36643456D+05 0.36643456D+05 0.12058849D+01  1  2 15  1  6  1       -1 0.526100425179D-03 0.100000000000D+01
-.294454479805D-03 0.000000000000D+00 0.000000000000D+00 0.422264870812D-04 0.000000000000D+00  6 -1 2 25 24 21 21 4 0.25469329D-02 0.40754306D+00 0.36643456D+05 0.36643456D+05 0.36643456D+05 0.12058849D+01  1  2  4  1  6  1       -1 -.114041205273D+00 0.100000000000D+01
-.148988889050D-02 0.000000000000D+00 -.131888534910D-03 0.422264870812D-04 0.000000000000D+00  6 -1 2 25 24 21 21 4 0.38809581D-02 0.40754306D+00 0.36643456D+05 0.36643456D+05 0.36643456D+05 0.12058849D+01  1  2  5  1  6  1       -1 -.310570526815D+00 0.100000000000D+01
0.142780012401D-02 0.000000000000D+00 0.120996374698D-03 0.422264870812D-04 0.000000000000D+00  6 -1 2 25 24 21 21 4 0.25469329D-02 0.40754306D+00 0.36643456D+05 0.36643456D+05 0.36643456D+05 0.12058849D+01  1  2  6  1  6  1       -1 0.552982067516D+00 0.100000000000D+01
-.688508325643D-04 0.000000000000D+00 -.652173940784D-05 0.422264870812D-04 0.000000000000D+00  6 21 2 25 24 1 21 4 0.38809581D-02 0.40754306D+00 0.36643456D+05 0.36643456D+05 0.36643456D+05 0.12058849D+01  3  4  5  4  5  1       -1 -.261039563082D+00 0.100000000000D+01
  </mgrwgt>
  </event>
  <event>
  6     66 0.43135346E-03 0.51643650E+02 0.75467711E-02 0.11404538E+00
       -3 -1    0    0    0  501 0.00000000E+00 0.00000000E+00 0.28534174E+03 0.28534218E+03 0.50000000E+00 0.0000E+00 0.9000E+01
       21 -1    0    0  502  503 0.00000000E+00 0.00000000E+00 -.38763284E+03 0.38763356E+03 0.75000000E+00 0.0000E+00 0.9000E+01
       25  1    1    2    0    0 -.82963728E+02 0.44113232E+02 0.13454632E+03 0.20629268E+03 0.12500000E+03 0.0000E+00 0.9000E+01
       24  1    1    2    0    0 0.66402466E+02 -.12749423E+03 0.41660187E+02 0.16990248E+03 0.80419002E+02 0.0000E+00 0.9000E+01
       -4  1    1    2    0  503 -.12623357E+02 0.67162274E+02 -.20377315E+03 0.21493259E+03 0.15500000E+01 0.0000E+00 0.9000E+01
       21  1    1    2  502  501 0.29184619E+02 0.16218721E+02 -.74724453E+02 0.81848001E+02 0.75000000E+00 0.0000E+00 0.9000E+01
#aMCatNLO 2  0  0  2  5 0.68338277D+02 0.00000000D+00  -5  6  0 0.00000000D+00 0.00000000D+00 0.00000000D+00 0.00000000D+00 0.00000000D+00
  <mgrwgt>
 0.1041642633D-01    1    2    0
 0.220700480108656D+03 0.000000000000000D+00 0.000000000000000D+00 0.220700480108656D+03
 0.220700480108656D+03 0.000000000000000D+00 0.000000000000000D+00 -.220700480108656D+03
 0.192222432446987D+03 -.882689267627804D+02 0.723374667374687D+02 0.911062621886610D+02
 0.145432254251050D+03 0.619929041123991D+02 -.104034732850661D+03 0.412053668519648D+01
 0.000000000000000D+00 -.000000000000000D+00 0.000000000000000D+00 -.000000000000000D+00
 0.103746273519274D+03 0.262760226503814D+02 0.316972661131923D+02 -.952267988738574D+02
 0.227781861750381D+03 0.000000000000000D+00 0.000000000000000D+00 0.227781861750381D+03
 0.485578940787924D+03 0.000000000000000D+00 0.000000000000000D+00 -.485578940787924D+03
 0.180981536014910D+03 -.829640114552312D+02 0.441127892065696D+02 0.911062621886610D+02
 0.164767428909585D+03 0.664022437407470D+02 -.127494520975315D+03 0.412053668519648D+01
 0.266701057531954D+03 -.126233567359692D+02 0.671622735848796D+02 -.257797079037543D+03
 0.100910780081856D+03 0.291851244504535D+02 0.162194581838654D+02 -.952267988738574D+02
0.758471815168D-04 0.000000000000D+00 0.000000000000D+00 0.122424339754D-04 0.929897587400D-08  6 -3 21 25 24 -4 21 4 0.43898393D-01 0.59635332D-01 0.44694413D+05 0.44694413D+05 0.44694413D+05 0.11971368D+01  1  2  1  5  5  2        4 0.104164263251D-01 0.100000000000D+01
  </mgrwgt>
  </event>
  <event>
  6     66 0.43135346E-03 0.35590920E+02 0.75467711E-02 0.12261249E+00
       21 -1    0    0  503  501 0.00000000E+00 0.00000000E+00 0.45104725E+01 0.45724022E+01 0.75000000E+00 0.0000E+00 0.9000E+01
        2 -1    0    0  502    0 0.00000000E+00 0.00000000E+00 -.51995912E+04 0.51995912E+04 0.32000000E+00 0.0000E+00 0.9000E+01
       25  1    1    2    0    0 -.56939470E+01 0.32724703E+02 -.32630244E+04 0.32655867E+04 0.12500000E+03 0.0000E+00 0.9000E+01
       24  1    1    2    0    0 0.19389487E+02 0.10571582E+00 -.14158837E+04 0.14182982E+04 0.80419002E+02 0.0000E+00 0.9000E+01
        1  1    1    2  503    0 -.72205092E+01 -.39655784E+02 -.20297064E+03 0.20693454E+03 0.32000000E+00 0.0000E+00 0.9000E+01
       21  1    1    2  502  501 -.64750305E+01 0.68253655E+01 -.31320194E+03 0.31334411E+03 0.75000000E+00 0.0000E+00 0.9000E+01
#aMCatNLO 2  0  0  1  5 0.45414795D+02 0.00000000D+00  -5  6  0 0.00000000D+00 0.00000000D+00 0.00000000D+00 0.00000000D+00 0.00000000D+00
  <mgrwgt>
 0.1379449810D-01    1    2    0
 0.240517819095966D+03 0.000000000000000D+00 0.000000000000000D+00 0.240517819095966D+03
 0.111254941559492D+03 0.000000000000000D+00 0.000000000000000D+00 -.111254941559492D+03
 0.126963560590431D+03 -.982507590220418D+01 0.995862322371316D+01 -.172927564258562D+02
 0.861556110399552D+02 0.166367736419541D+02 -.150650528146975D+02 0.212564179902040D+02
 0.129262877536475D+03 -.000000000000000D+00 -.000000000000000D+00 0.129262877536475D+03
 0.939071148859782D+01 -.681169773974995D+01 0.510642959098431D+01 -.396366156434783D+01
 0.200617533736923D+03 0.000000000000000D+00 0.000000000000000D+00 0.200617533736923D+03
 0.117704947823132D+03 0.000000000000000D+00 0.000000000000000D+00 -.117704947823132D+03
 0.130485934484365D+03 -.568163898096088D+01 0.327148078390208D+02 -.172927564258562D+02
 0.854127897408210D+02 0.193980253045655D+02 0.100027237940239D+00 0.212564179902040D+02
 0.921911810881113D+02 -.722050918740734D+01 -.396557841251901D+02 0.829125859137912D+02
 0.102325762467584D+02 -.649587713619726D+01 0.684094904822905D+01 -.396366156434783D+01
0.212436279496D-04 0.000000000000D+00 0.000000000000D+00 0.344056922773D-03 0.131067101808D-06  6 21 2 25 24 1 21 4 0.69868184D-03 0.79994005D+00 0.17135071D+05 0.17135071D+05 0.17135071D+05 0.12412872D+01  1  2  1  4  5  1       -1 0.137944980954D-01 0.100000000000D+01
  </mgrwgt>
  </event>
  <event>
  5     66 -.43135346E-03 0.81672370E+02 0.75467711E-02 0.11539387E+00
       -1 -1    0    0    0  501 0.00000000E+00 0.00000000E+00 0.11917619E+03 0.11917662E+03 0.32000000E+00 0.0000E+00 0.9000E+01
        2 -1    0    0  502    0 0.00000000E+00 0.00000000E+00 -.17131527E+04 0.17131527E+04 0.32000000E+00 0.0000E+00 0.9000E+01
       25  1    1    2    0    0 -.33056680E+02 0.51947245E+02 -.82685199E+02 0.16202809E+03 0.12500000E+03 0.0000E+00 0.9000E+01
       24  1    1    2    0    0 0.84667955E+02 -.11524526E+03 -.74400628E+01 0.16423369E+03 0.80419002E+02 0.0000E+00 0.9000E+01
       21  1    1    2  502  501 -.51611276E+02 0.63298020E+02 -.15038512E+04 0.15060676E+04 0.75000000E+00 0.0000E+00 0.9000E+01
#aMCatNLO 1  0  0  2  5 0.60444703D+01 0.00000000D+00  -5  6  0 0.00000000D+00 0.00000000D+00 0.00000000D+00 0.00000000D+00 0.00000000D+00
  <mgrwgt>
 -.5699268947D+00   11    4    0
 0.451848895653173D+03 0.000000000000000D+00 0.000000000000000D+00 0.451848895653173D+03
 0.451848895653173D+03 0.000000000000000D+00 0.000000000000000D+00 -.451848895653173D+03
 0.182683453305808D+03 -.330566614065134D+02 0.519472228002516D+02 0.118139693971720D+03
 0.319875881026594D+03 0.846679874275052D+02 -.115245303964207D+03 0.274596458694104D+03
 0.401138456973944D+03 -.516113260209918D+02 0.632980811639550D+02 -.392736152665824D+03
 0.000000000000000D+00 -.000000000000000D+00 0.000000000000000D+00 -.000000000000000D+00
 0.452017044014011D+03 0.000000000000000D+00 0.000000000000000D+00 0.452017044014011D+03
 0.509653454095484D+03 0.000000000000000D+00 0.000000000000000D+00 -.509653454095484D+03
 0.182439431644467D+03 -.318394843940490D+02 0.518498424351111D+02 0.118139693971720D+03
 0.320509016275128D+03 0.868027804198184D+02 -.115416098284968D+03 0.274596458694104D+03
 0.400769557673808D+03 -.489380780768835D+02 0.630842077024598D+02 -.392736152665824D+03
 0.579524925160920D+02 -.602521794888586D+01 0.482048147397427D+00 -.576364100814729D+02
 0.451848895653173D+03 0.000000000000000D+00 0.000000000000000D+00 0.451848895653173D+03
 0.451848895653173D+03 0.000000000000000D+00 0.000000000000000D+00 -.451848895653173D+03
 0.182683453305808D+03 -.330566614065134D+02 0.519472228002516D+02 0.118139693971720D+03
 0.319875881026594D+03 0.846679874275052D+02 -.115245303964207D+03 0.274596458694104D+03
 0.000000000000000D+00 -.000000000000000D+00 0.000000000000000D+00 -.000000000000000D+00
 0.401138456973944D+03 -.516113260209918D+02 0.632980811639550D+02 -.392736152665824D+03
 0.452017044014011D+03 0.000000000000000D+00 0.000000000000000D+00 0.452017044014011D+03
 0.509653454095484D+03 0.000000000000000D+00 0.000000000000000D+00 -.509653454095484D+03
 0.182439431644467D+03 -.318394843940490D+02 0.518498424351111D+02 0.118139693971720D+03
 0.320509016275128D+03 0.868027804198184D+02 -.115416098284968D+03 0.274596458694104D+03
 0.579524925160920D+02 -.602521794888586D+01 0.482048147397427D+00 -.576364100814729D+02
 0.400769557673808D+03 -.489380780768835D+02 0.630842077024598D+02 -.392736152665824D+03
0.477010942158D-04 0.000000000000D+00 0.000000000000D+00 0.103238134042D-04 0.000000000000D+00  6 -1 2 25 24 21 21 2 0.18334833D-01 0.26356199D+00 0.37071598D+05 0.37071598D+05 0.37071598D+05 0.12053678D+01  1  2  2  2  6  2        2 0.197782123595D-02 0.100000000000D+01
0.329256657064D-05 0.251725589947D-05 -.183184761775D-06 0.103238134042D-04 0.000000000000D+00  6 -1 2 25 24 21 21 4 0.18334833D-01 0.26356199D+00 0.37071598D+05 0.37071598D+05 0.37071598D+05 0.12053678D+01  1  2  3  2  6  2        2 0.198350104666D-03 0.100000000000D+01
0.111223161458D-05 0.000000000000D+00 0.000000000000D+00 0.103238134042D-04 0.000000000000D+00  6 -1 2 25 24 21 21 4 0.18334833D-01 0.26356199D+00 0.37071598D+05 0.37071598D+05 0.37071598D+05 0.12053678D+01  1  2 15  2  6  2        2 0.670028236127D-04 0.100000000000D+01
0.862461378563D-02 0.000000000000D+00 0.000000000000D+00 0.103037085282D-04 0.000000000000D+00  6 -1 2 25 24 21 21 4 0.18334833D-01 0.30276276D+00 0.38064705D+05 0.38064705D+05 0.38064705D+05 0.12041936D+01  1  2 12  2  6  2        2 0.381421341766D+00 0.100000000000D+01
-.219443674127D-01 0.000000000000D+00 0.000000000000D+00 0.103238134042D-04 0.000000000000D+00  6 -1 2 25 24 21 21 4 0.18334833D-01 0.26356199D+00 0.37071598D+05 0.37071598D+05 0.37071598D+05 0.12053678D+01  1  2  4  2  6  2        2 -.132196797840D+01 0.100000000000D+01
-.129302177192D-01 0.000000000000D+00 -.786066770404D-04 0.103238134042D-04 0.000000000000D+00  6 -1 2 25 24 21 21 4 0.18334833D-01 0.29731584D+00 0.37071598D+05 0.37071598D+05 0.37071598D+05 0.12053678D+01  1  2  5  2  6  2        2 -.599405674299D+00 0.100000000000D+01
0.128468649330D-01 0.000000000000D+00 0.780393551717D-04 0.103238134042D-04 0.000000000000D+00  6 -1 2 25 24 21 21 4 0.18334833D-01 0.26356199D+00 0.37071598D+05 0.37071598D+05 0.37071598D+05 0.12053678D+01  1  2  6  2  6  2        2 0.773918142406D+00 0.100000000000D+01
0.421624021482D-02 0.000000000000D+00 0.000000000000D+00 0.103238134042D-04 0.260353595315D-05  6 -1 2 25 24 21 21 4 0.18341656D-01 0.29727920D+00 0.38064705D+05 0.38064705D+05 0.38064705D+05 0.12041936D+01  1  2 11  2  6  2        2 0.194460597377D+00 0.100000000000D+01
0.184524638492D-03 0.000000000000D+00 0.000000000000D+00 0.103037085282D-04 0.000000000000D+00  6 -1 21 25 24 -2 21 4 0.18334833D-01 0.30276276D+00 0.38064705D+05 0.38064705D+05 0.38064705D+05 0.12041936D+01  3  4 12  5  5  2        2 0.267704555164D-02 0.100000000000D+01
-.245838474456D-03 0.000000000000D+00 -.149675327824D-05 0.103238134042D-04 0.000000000000D+00  6 -1 21 25 24 -2 21 4 0.18334833D-01 0.29731584D+00 0.37071598D+05 0.37071598D+05 0.37071598D+05 0.12053678D+01  3  4  5  5  5  2        2 -.385962716059D-02 0.100000000000D+01
0.375869329111D-04 0.000000000000D+00 0.000000000000D+00 0.103238134042D-04 0.464146410089D-07  6 -1 21 25 24 -2 21 4 0.18341656D-01 0.29727920D+00 0.38064705D+05 0.38064705D+05 0.38064705D+05 0.12041936D+01  3  4 11  5  5  2        2 0.586083912481D-03 0.100000000000D+01
  </mgrwgt>
  </event>
  <event>
  6     66 -.43135346E-03 0.42613110E+02 0.75467711E-02 0.12085324E+00
       21 -1    0    0  503  501 0.00000000E+00 0.00000000E+00 0.15086733E+02 0.15105363E+02 0.75000000E+00 0.0000E+00 0.9000E+01
        2 -1    0    0  502    0 0.00000000E+00 0.00000000E+00 -.15348010E+04 0.15348010E+04 0.32000000E+00 0.0000E+00 0.9000E+01
       25  1    1    2    0    0 0.45050725E+02 0.17073893E+02 -.51961235E+03 0.53660328E+03 0.12500000E+03 0.0000E+00 0.9000E+01
       24  1    1    2    0    0 0.31946711E+01 -.46882472E+02 -.66545995E+03 0.67194668E+03 0.80419002E+02 0.0000E+00 0.9000E+01
        1  1    1    2  503    0 -.11544376E+02 -.18249334E+01 -.21376145E+02 0.24364831E+02 0.32000000E+00 0.0000E+00 0.9000E+01
       21  1    1    2  502  501 -.36701020E+02 0.31633512E+02 -.31326578E+03 0.31699157E+03 0.75000000E+00 0.0000E+00 0.9000E+01
#aMCatNLO 2  0  0  1  5 0.11687728D+02 0.00000000D+00  -5  6  0 0.00000000D+00 0.00000000D+00 0.00000000D+00 0.00000000D+00 0.00000000D+00
  <mgrwgt>
 -.6260686659D-01    2    2    0
 0.143285847744572D+03 0.000000000000000D+00 0.000000000000000D+00 0.143285847744572D+03
 0.143285847744572D+03 0.000000000000000D+00 0.000000000000000D+00 -.143285847744572D+03
 0.137852163929550D+03 0.394653943843436D+02 0.161890056069425D+02 0.394793343865648D+02
 0.978720973533152D+02 -.739901241349379D+00 -.475058396855205D+02 -.292297661279209D+02
 0.000000000000000D+00 -.000000000000000D+00 -.000000000000000D+00 0.000000000000000D+00
 0.508474342062790D+02 -.387254931429943D+02 0.313168340785779D+02 -.102495682586440D+02
 0.159158500252350D+03 0.000000000000000D+00 0.000000000000000D+00 0.159158500252350D+03
 0.145572783472187D+03 0.000000000000000D+00 0.000000000000000D+00 -.145572783472187D+03
 0.139659701900284D+03 0.450527746028993D+02 0.170722579599268D+02 0.394793343865648D+02
 0.976211320594327D+02 0.319612866359218D+01 -.468836325796911D+02 -.292297661279209D+02
 0.179213472798308D+02 -.115443755111893D+02 -.182493340978093D+01 0.135857167801635D+02
 0.495291024849898D+02 -.367045277553022D+02 0.316363080295452D+02 -.102495682586440D+02
-.428887635374D-05 0.000000000000D+00 0.000000000000D+00 0.922006102344D-05 0.000000000000D+00  6 21 2 25 24 1 21 4 0.24001886D-02 0.23241291D+00 0.20628224D+05 0.20628224D+05 0.20628224D+05 0.12323501D+01  1  2 13  4  5  1       -1 -.156649307071D+00 0.100000000000D+01
0.251197583442D-05 0.000000000000D+00 0.000000000000D+00 0.928111628350D-05 0.105354161466D-07  6 21 2 25 24 1 21 4 0.23224490D-02 0.23612237D+00 0.20628224D+05 0.20628224D+05 0.20628224D+05 0.12323501D+01  1  2  1  4  5  1       -1 0.940424404850D-01 0.100000000000D+01
  </mgrwgt>
  </event>
  <event>
  5     66 0.43135346E-03 0.28617383E+02 0.75467711E-02 0.12416484E+00
       -1 -1    0    0    0  501 0.00000000E+00 0.00000000E+00 0.15939240E+03 0.15939272E+03 0.32000000E+00 0.0000E+00 0.9000E+01
        2 -1    0    0  502    0 0.00000000E+00 0.00000000E+00 -.13843914E+03 0.13843951E+03 0.32000000E+00 0.0000E+00 0.9000E+01
       25  1    1    2    0    0 0.58982385E+01 0.16150483E+02 -.33999445E+02 0.13067743E+03 0.12500000E+03 0.0000E+00 0.9000E+01
       24  1    1    2    0    0 0.22393610E+02 -.20433630E+02 0.88291580E+02 0.12321374E+03 0.80419002E+02 0.0000E+00 0.9000E+01
       21  1    1    2  502  501 -.28291849E+02 0.42831474E+01 -.33338879E+02 0.43941067E+02 0.75000000E+00 0.0000E+00 0.9000E+01
#aMCatNLO 1  0  0  5  2 0.58423998D+01 0.00000000D+00  -5  6  0 0.00000000D+00 0.00000000D+00 0.00000000D+00 0.00000000D+00 0.00000000D+00
  <mgrwgt>
 0.5222033393D+00   25    2    0
 0.148547131218488D+03 0.000000000000000D+00 0.000000000000000D+00 0.148547131218488D+03
 0.148547131218488D+03 -.000000000000000D+00 -.000000000000000D+00 -.148547131218488D+03
 0.133399260440494D+03 0.589989824885813D+01 0.161502314240059D+02 -.432980820784821D+02
 0.117294432308194D+03 0.223950696938309D+02 -.204338510384599D+02 0.798228443572230D+02
 0.464005696882880D+02 -.282949679426890D+02 0.428361961445402D+01 -.365247622787410D+02
 0.000000000000000D+00 0.000000000000000D+00 0.000000000000000D+00 -.000000000000000D+00
 0.148547131218488D+03 0.000000000000000D+00 0.000000000000000D+00 0.148547131218488D+03
 0.148547131218488D+03 -.000000000000000D+00 -.000000000000000D+00 -.148547131218488D+03
 0.133655662242353D+03 0.525756434065771D+01 0.162474753627079D+02 -.441272434102113D+02
 0.116679786161563D+03 0.218323031563037D+02 -.203486529289094D+02 0.790963931365238D+02
 0.100783176325588D+02 -.775494729418997D+01 -.415910969610873D+01 -.491274722561777D+01
 0.366804964005014D+02 -.193349202027715D+02 0.826028726231014D+01 -.300564025006948D+02
0.397462590108D-03 0.000000000000D+00 0.000000000000D+00 0.225351776650D-04 0.000000000000D+00  6 -1 2 25 24 21 21 2 0.24521961D-01 0.21298383D-01 0.14488692D+05 0.14488692D+05 0.14488692D+05 0.12495433D+01  1  2  2  3  6  5       21 0.250693140503D+00 0.100000000000D+01
0.230188823736D-04 0.209746771267D-04 -.152636100032D-05 0.225351776650D-04 0.000000000000D+00  6 -1 2 25 24 21 21 4 0.24521961D-01 0.21298383D-01 0.14488692D+05 0.14488692D+05 0.14488692D+05 0.12495433D+01  1  2  3  3  6  5       21 0.226690353134D-01 0.100000000000D+01
0.207954844340D-04 0.000000000000D+00 0.000000000000D+00 0.225351776650D-04 0.000000000000D+00  6 -1 2 25 24 21 21 4 0.24521961D-01 0.21298383D-01 0.14488692D+05 0.14488692D+05 0.14488692D+05 0.12495433D+01  1  2 15  3  6  5       21 0.204794291635D-01 0.100000000000D+01
0.549646103503D-04 0.000000000000D+00 0.000000000000D+00 0.225199209405D-04 0.000000000000D+00  6 -1 2 25 24 21 21 4 0.24521961D-01 0.21298383D-01 0.14612560D+05 0.14612560D+05 0.14612560D+05 0.12491202D+01  1  2 12  3  6  5       21 0.540689882357D-01 0.100000000000D+01
0.465769226459D-04 0.000000000000D+00 0.000000000000D+00 0.225199209405D-04 0.000000000000D+00  6 -1 2 25 24 21 21 4 0.24521961D-01 0.21298383D-01 0.14612560D+05 0.14612560D+05 0.14612560D+05 0.12491202D+01  1  2 12  3  6  5       21 0.458179739025D-01 0.100000000000D+01
-.597801336314D-03 0.000000000000D+00 0.000000000000D+00 0.225351776650D-04 0.000000000000D+00  6 -1 2 25 24 21 21 4 0.24521961D-01 0.21298383D-01 0.14488692D+05 0.14488692D+05 0.14488692D+05 0.12495433D+01  1  2  4  3  6  5       21 -.588715793554D+00 0.100000000000D+01
-.123495570117D-03 0.000000000000D+00 0.000000000000D+00 0.225351776650D-04 0.000000000000D+00  6 -1 2 25 24 21 21 4 0.24521961D-01 0.21298383D-01 0.14488692D+05 0.14488692D+05 0.14488692D+05 0.12495433D+01  1  2  5  3  6  5       21 -.121618651791D+00 0.100000000000D+01
0.850804750507D-03 0.000000000000D+00 -.000000000000D+00 0.225351776650D-04 0.000000000000D+00  6 -1 2 25 24 21 21 4 0.24521961D-01 0.21298383D-01 0.14488692D+05 0.14488692D+05 0.14488692D+05 0.12495433D+01  1  2  6  3  6  5       21 0.837873994967D+00 0.100000000000D+01
0.295849856718D-04 0.000000000000D+00 0.000000000000D+00 0.225351776650D-04 0.358693119703D-05  6 -1 2 25 24 21 21 4 0.24521961D-01 0.21298383D-01 0.14612560D+05 0.14612560D+05 0.14612560D+05 0.12491202D+01  1  2 11  3  6  5       21 0.291029124385D-01 0.100000000000D+01
0.108495891258D-04 0.000000000000D+00 0.000000000000D+00 0.225199209405D-04 0.000000000000D+00  6 -1 2 25 24 1 -1 4 0.24521961D-01 0.21298383D-01 0.14612560D+05 0.14612560D+05 0.14612560D+05 0.12491202D+01  1  2 12  6  6  5       21 0.106728002449D-01 0.100000000000D+01
0.977647274835D-05 0.000000000000D+00 0.000000000000D+00 0.225199209405D-04 0.000000000000D+00  6 -1 2 25 24 1 -1 4 0.24521961D-01 0.21298383D-01 0.14612560D+05 0.14612560D+05 0.14612560D+05 0.12491202D+01  1  2 12  6  6  5       21 0.961716978703D-02 0.100000000000D+01
-.351600323200D-04 0.000000000000D+00 0.000000000000D+00 0.225351776650D-04 0.000000000000D+00  6 -1 2 25 24 1 -1 4 0.24521961D-01 0.21298383D-01 0.14488692D+05 0.14488692D+05 0.14488692D+05 0.12495433D+01  1  2  5  6  6  5       21 -.346256608529D-01 0.100000000000D+01
0.741937402512D-05 0.000000000000D+00 0.000000000000D+00 0.225351776650D-04 0.107855407099D-06  6 -1 2 25 24 1 -1 4 0.24521961D-01 0.21298383D-01 0.14612560D+05 0.14612560D+05 0.14612560D+05 0.12491202D+01  1  2 11  6  6  5       21 0.729847886347D-02 0.100000000000D+01
0.108495891258D-04 0.000000000000D+00 0.000000000000D+00 0.225199209405D-04 0.000000000000D+00  6 -1 2 25 24 2 -2 4 0.24521961D-01 0.21298383D-01 0.14612560D+05 0.14612560D+05 0.14612560D+05 0.12491202D+01  1  2 12  7  6  5       21 0.106728002449D-01 0.100000000000D+01
0.977647274835D-05 0.000000000000D+00 0.000000000000D+00 0.225199209405D-04 0.000000000000D+00  6 -1 2 25 24 2 -2 4 0.24521961D-01 0.21298383D-01 0.14612560D+05 0.14612560D+05 0.14612560D+05 0.12491202D+01  1  2 12  7  6  5       21 0.961716978703D-02 0.100000000000D+01
-.351600323200D-04 0.000000000000D+00 0.000000000000D+00 0.225351776650D-04 0.000000000000D+00  6 -1 2 25 24 2 -2 4 0.24521961D-01 0.21298383D-01 0.14488692D+05 0.14488692D+05 0.14488692D+05 0.12495433D+01  1  2  5  7  6  5       21 -.346256608529D-01 0.100000000000D+01
0.739660986545D-05 0.000000000000D+00 0.000000000000D+00 0.225351776650D-04 0.112953321122D-06  6 -1 2 25 24 2 -2 4 0.24521961D-01 0.21298383D-01 0.14612560D+05 0.14612560D+05 0.14612560D+05 0.12491202D+01  1  2 11  7  6  5       21 0.727608563492D-02 0.100000000000D+01
0.108495891258D-04 0.000000000000D+00 0.000000000000D+00 0.225199209405D-04 0.000000000000D+00  6 -1 2 25 24 3 -3 4 0.24521961D-01 0.21298383D-01 0.14612560D+05 0.14612560D+05 0.14612560D+05 0.12491202D+01  1  2 12  8  6  5       21 0.106728002449D-01 0.100000000000D+01
0.108495891258D-04 0.000000000000D+00 0.000000000000D+00 0.225199209405D-04 0.000000000000D+00  6 -1 2 25 24 4 -4 4 0.24521961D-01 0.21298383D-01 0.14612560D+05 0.14612560D+05 0.14612560D+05 0.12491202D+01  1  2 12  8  6  5       21 0.106728002449D-01 0.100000000000D+01
0.977647274835D-05 0.000000000000D+00 0.000000000000D+00 0.225199209405D-04 0.000000000000D+00  6 -1 2 25 24 3 -3 4 0.24521961D-01 0.21298383D-01 0.14612560D+05 0.14612560D+05 0.14612560D+05 0.12491202D+01  1  2 12  8  6  5       21 0.961716978703D-02 0.100000000000D+01
0.977647274835D-05 0.000000000000D+00 0.000000000000D+00 0.225199209405D-04 0.000000000000D+00  6 -1 2 25 24 4 -4 4 0.24521961D-01 0.21298383D-01 0.14612560D+05 0.14612560D+05 0.14612560D+05 0.12491202D+01  1  2 12  8  6  5       21 0.961716978703D-02 0.100000000000D+01
-.351600323200D-04 0.000000000000D+00 0.000000000000D+00 0.225351776650D-04 0.000000000000D+00  6 -1 2 25 24 3 -3 4 0.24521961D-01 0.21298383D-01 0.14488692D+05 0.14488692D+05 0.14488692D+05 0.12495433D+01  1  2  5  8  6  5       21 -.346256608529D-01 0.100000000000D+01
-.351600323200D-04 0.000000000000D+00 0.000000000000D+00 0.225351776650D-04 0.000000000000D+00  6 -1 2 25 24 4 -4 4 0.24521961D-01 0.21298383D-01 0.14488692D+05 0.14488692D+05 0.14488692D+05 0.12495433D+01  1  2  5  8  6  5       21 -.346256608529D-01 0.100000000000D+01
0.742117903408D-05 0.000000000000D+00 0.000000000000D+00 0.225351776650D-04 0.107761771209D-06  6 -1 2 25 24 3 -3 4 0.24521961D-01 0.21298383D-01 0.14612560D+05 0.14612560D+05 0.14612560D+05 0.12491202D+01  1  2 11  8  6  5       21 0.730025446066D-02 0.100000000000D+01
0.742117903408D-05 0.000000000000D+00 0.000000000000D+00 0.225351776650D-04 0.107761771209D-06  6 -1 2 25 24 4 -4 4 0.24521961D-01 0.21298383D-01 0.14612560D+05 0.14612560D+05 0.14612560D+05 0.12491202D+01  1  2 11  8  6  5       21 0.730025446066D-02 0.100000000000D+01
  </mgrwgt>
  </event>
  <event>
  6     66 -.43135346E-03 0.83674850E+01 0.75467711E-02 0.11998039E+00
       -1 -1    0    0    0  501 0.00000000E+00 0.00000000E+00 0.70458316E+02 0.70459043E+02 0.32000000E+00 0.0000E+00 0.9000E+01
        2 -1    0    0  502    0 -.00000000E+00 -.00000000E+00 -.39326515E+03 0.39326528E+03 0.32000000E+00 0.0000E+00 0.9000E+01
       25  1    1    2    0    0 0.58971245E+02 -.70029817E+02 -.25798990E+03 0.30094114E+03 0.12500000E+03 0.0000E+00 0.9000E+01
       24  1    1    2    0    0 -.57281755E+02 0.74245830E+02 -.43909940E+02 0.13110660E+03 0.80419002E+02 0.0000E+00 0.9000E+01
       21  1    1    2  503  501 -.28850964E+01 -.13689677E+02 -.14438467E+02 0.20118719E+02 0.75000000E+00 0.0000E+00 0.9000E+01
       21  1    1    2  502  503 0.11956061E+01 0.94736639E+01 -.64685325E+01 0.11557863E+02 0.75000000E+00 0.0000E+00 0.9000E+01
#aMCatNLO 2  0  0  5  1 0.72354285D+01 0.00000000D+00  -5  6  0 0.00000000D+00 0.00000000D+00 0.00000000D+00 0.00000000D+00 0.00000000D+00
  <mgrwgt>
 -.2078299354D+01    5    2    0
 0.166460203274286D+03 0.000000000000000D+00 0.000000000000000D+00 0.166460203274286D+03
 0.166460203274286D+03 -.000000000000000D+00 -.000000000000000D+00 -.166460203274286D+03
 0.168243761570168D+03 0.624556933099564D+02 -.613346019184988D+02 -.708400754372230D+02
 0.141645787733453D+03 -.543715567400377D+02 0.815080396543616D+02 0.632177705841298D+02
 0.230308572449511D+02 -.808413656991863D+01 -.201734377358628D+02 0.762230485309322D+01
 0.000000000000000D+00 0.000000000000000D+00 0.000000000000000D+00 0.000000000000000D+00
 0.166460203274286D+03 0.000000000000000D+00 0.000000000000000D+00 0.166460203274286D+03
 0.166460203274286D+03 -.000000000000000D+00 -.000000000000000D+00 -.166460203274286D+03
 0.169085279019126D+03 0.587875280897773D+02 -.704882699737237D+02 -.673814656873880D+02
 0.139971323764208D+03 -.574339023121782D+02 0.738661551821042D+02 0.661051700379232D+02
 0.134531122615872D+02 -.192753393352296D+01 -.130917491769982D+02 -.242424131318505D+01
 0.104106915036506D+02 0.573908155923794D+00 0.971386396861774D+01 0.370053696264983D+01
-.827421772948D-03 0.000000000000D+00 0.000000000000D+00 0.337568658405D-04 0.000000000000D+00  6 -1 2 25 24 21 21 4 0.10839807D-01 0.60502397D-01 0.22713611D+05 0.22713611D+05 0.22713611D+05 0.12277888D+01  1  2 13  3  6  5       21 -.906318814121D+00 0.100000000000D+01
-.104934478285D-02 0.000000000000D+00 0.000000000000D+00 0.337568658405D-04 0.000000000000D+00  6 -1 2 25 24 21 21 4 0.10839807D-01 0.60502397D-01 0.22713611D+05 0.22713611D+05 0.22713611D+05 0.12277888D+01  1  2 13  3  6  5       21 -.114940282005D+01 0.100000000000D+01
-.402098822283D-04 0.000000000000D+00 0.000000000000D+00 0.337625231773D-04 0.000000000000D+00  6 -1 2 25 24 21 21 4 0.10839807D-01 0.60502397D-01 0.22664051D+05 0.22664051D+05 0.22664051D+05 0.12278917D+01  1  2  8  3  6  5       21 -.440563813117D-01 0.100000000000D+01
-.381671712372D-04 0.000000000000D+00 0.000000000000D+00 0.337625231773D-04 0.000000000000D+00  6 -1 2 25 24 21 21 4 0.10839807D-01 0.60502397D-01 0.22664051D+05 0.22664051D+05 0.22664051D+05 0.12278917D+01  1  2  9  3  6  5       21 -.418182634823D-01 0.100000000000D+01
0.577705618306D-04 0.000000000000D+00 0.000000000000D+00 0.337625231773D-04 0.000000000000D+00  6 -1 2 25 24 21 21 4 0.10839807D-01 0.60502397D-01 0.22664051D+05 0.22664051D+05 0.22664051D+05 0.12278917D+01  1  2 10  3  6  5       21 0.632969250234D-01 0.100000000000D+01
  </mgrwgt>
  </event>
  <event>
  5     66 0.43135346E-03 0.38794319E+02 0.75467711E-02 0.12194441E+00
       -1 -1    0    0    0  501 0.00000000E+00 0.00000000E+00 0.16887671E+02 0.16890703E+02 0.32000000E+00 0.0000E+00 0.9000E+01
        2 -1    0    0  502    0 -.00000000E+00 -.00000000E+00 -.12360843E+04 0.12360844E+04 0.32000000E+00 0.0000E+00 0.9000E+01
       25  1    1    2    0    0 -.58489430E+02 0.34959596E+02 -.42852464E+03 0.45155459E+03 0.12500000E+03 0.0000E+00 0.9000E+01
       24  1    1    2    0    0 0.20604522E+02 -.26625289E+02 -.43587040E+03 0.44450385E+03 0.80419002E+02 0.0000E+00 0.9000E+01
       21  1    1    2  502  501 0.37884908E+02 -.83343071E+01 -.35480160E+03 0.35691661E+03 0.75000000E+00 0.0000E+00 0.9000E+01
#aMCatNLO 1  0  0  5  1 0.15210501D+02 0.00000000D+00  -5  6  0 0.00000000D+00 0.00000000D+00 0.00000000D+00 0.00000000D+00 0.00000000D+00
  <mgrwgt>
 0.3470476663D+00   20    2    0
 0.144487061603251D+03 0.000000000000000D+00 0.000000000000000D+00 0.144487061603251D+03
 0.144487061603251D+03 -.000000000000000D+00 -.000000000000000D+00 -.144487061603251D+03
 0.149948679233642D+03 -.584915857552186D+02 0.349600705652989D+02 0.470758352642088D+02
 0.883828241626510D+02 0.206032509153820D+02 -.266250095433590D+02 -.145231735901425D+02
 0.506426198102079D+02 0.378883348398366D+02 -.833506102193991D+01 -.325526616740663D+02
 0.000000000000000D+00 0.000000000000000D+00 -.000000000000000D+00 0.000000000000000D+00
 0.144487061603251D+03 0.000000000000000D+00 0.000000000000000D+00 0.144487061603251D+03
 0.144487061603251D+03 -.000000000000000D+00 -.000000000000000D+00 -.144487061603251D+03
 0.147291431388631D+03 -.546652369632093D+02 0.341183114643132D+02 0.437883369299645D+02
 0.894379717853472D+02 0.228923241711594D+02 -.271285831459269D+02 -.164898851798038D+02
 0.256320455279201D+02 0.136715840666203D+02 0.106195989070828D+02 -.189027422906675D+02
 0.266126745046027D+02 0.181013287254295D+02 -.176093272254691D+02 -.839570945949318D+01
0.148456732972D-03 0.000000000000D+00 0.000000000000D+00 0.156843520038D-04 0.000000000000D+00  6 -1 2 25 24 21 21 2 0.25983397D-02 0.19016705D+00 0.18002009D+05 0.18002009D+05 0.18002009D+05 0.12388902D+01  1  2  2  3  6  5       21 0.223621626234D+00 0.100000000000D+01
0.554312486912D-05 0.783427703354D-05 -.570112944168D-06 0.156843520038D-04 0.000000000000D+00  6 -1 2 25 24 21 21 4 0.25983397D-02 0.19016705D+00 0.18002009D+05 0.18002009D+05 0.18002009D+05 0.12388902D+01  1  2  3  3  6  5       21 0.128154594395D-01 0.100000000000D+01
0.451552480852D-05 0.000000000000D+00 0.000000000000D+00 0.156843520038D-04 0.000000000000D+00  6 -1 2 25 24 21 21 4 0.25983397D-02 0.19016705D+00 0.18002009D+05 0.18002009D+05 0.18002009D+05 0.12388902D+01  1  2 15  3  6  5       21 0.104396935660D-01 0.100000000000D+01
0.513800909629D-04 0.000000000000D+00 0.000000000000D+00 0.156593135117D-04 0.000000000000D+00  6 -1 2 25 24 21 21 4 0.25983397D-02 0.19016705D+00 0.18374045D+05 0.18374045D+05 0.18374045D+05 0.12379009D+01  1  2 12  3  6  5       21 0.118467017685D+00 0.100000000000D+01
0.429660356568D-04 0.000000000000D+00 0.000000000000D+00 0.156593135117D-04 0.000000000000D+00  6 -1 2 25 24 21 21 4 0.25983397D-02 0.19016705D+00 0.18374045D+05 0.18374045D+05 0.18374045D+05 0.12379009D+01  1  2 12  3  6  5       21 0.990667398723D-01 0.100000000000D+01
-.146860689415D-03 0.000000000000D+00 0.000000000000D+00 0.156843520038D-04 0.000000000000D+00  6 -1 2 25 24 21 21 4 0.25983397D-02 0.19016705D+00 0.18002009D+05 0.18002009D+05 0.18002009D+05 0.12388902D+01  1  2  4  3  6  5       21 -.339535416013D+00 0.100000000000D+01
-.742123772097D-04 0.000000000000D+00 0.000000000000D+00 0.156843520038D-04 0.000000000000D+00  6 -1 2 25 24 21 21 4 0.25983397D-02 0.19016705D+00 0.18002009D+05 0.18002009D+05 0.18002009D+05 0.12388902D+01  1  2  5  3  6  5       21 -.171575732551D+00 0.100000000000D+01
0.175412631003D-03 0.000000000000D+00 -.000000000000D+00 0.156843520038D-04 0.000000000000D+00  6 -1 2 25 24 21 21 4 0.25983397D-02 0.19016705D+00 0.18002009D+05 0.18002009D+05 0.18002009D+05 0.12388902D+01  1  2  6  3  6  5       21 0.405546241674D+00 0.100000000000D+01
0.197808640472D-05 0.000000000000D+00 0.000000000000D+00 0.156593135117D-04 0.000000000000D+00  6 -1 2 25 24 1 -1 4 0.25983397D-02 0.19016705D+00 0.18374045D+05 0.18374045D+05 0.18374045D+05 0.12379009D+01  1  2 12  6  6  5       21 0.456087158859D-02 0.100000000000D+01
0.165431617829D-05 0.000000000000D+00 0.000000000000D+00 0.156593135117D-04 0.000000000000D+00  6 -1 2 25 24 1 -1 4 0.25983397D-02 0.19016705D+00 0.18374045D+05 0.18374045D+05 0.18374045D+05 0.12379009D+01  1  2 12  6  6  5       21 0.381435494329D-02 0.100000000000D+01
-.489832792600D-05 0.000000000000D+00 0.000000000000D+00 0.156843520038D-04 0.000000000000D+00  6 -1 2 25 24 1 -1 4 0.25983397D-02 0.19016705D+00 0.18002009D+05 0.18002009D+05 0.18002009D+05 0.12388902D+01  1  2  5  6  6  5       21 -.113247174363D-01 0.100000000000D+01
0.197808640472D-05 0.000000000000D+00 0.000000000000D+00 0.156593135117D-04 0.000000000000D+00  6 -1 2 25 24 2 -2 4 0.25983397D-02 0.19016705D+00 0.18374045D+05 0.18374045D+05 0.18374045D+05 0.12379009D+01  1  2 12  7  6  5       21 0.456087158859D-02 0.100000000000D+01
0.165431617829D-05 0.000000000000D+00 0.000000000000D+00 0.156593135117D-04 0.000000000000D+00  6 -1 2 25 24 2 -2 4 0.25983397D-02 0.19016705D+00 0.18374045D+05 0.18374045D+05 0.18374045D+05 0.12379009D+01  1  2 12  7  6  5       21 0.381435494329D-02 0.100000000000D+01
-.489832792600D-05 0.000000000000D+00 0.000000000000D+00 0.156843520038D-04 0.000000000000D+00  6 -1 2 25 24 2 -2 4 0.25983397D-02 0.19016705D+00 0.18002009D+05 0.18002009D+05 0.18002009D+05 0.12388902D+01  1  2  5  7  6  5       21 -.113247174363D-01 0.100000000000D+01
0.197808640472D-05 0.000000000000D+00 0.000000000000D+00 0.156593135117D-04 0.000000000000D+00  6 -1 2 25 24 3 -3 4 0.25983397D-02 0.19016705D+00 0.18374045D+05 0.18374045D+05 0.18374045D+05 0.12379009D+01  1  2 12  8  6  5       21 0.456087158859D-02 0.100000000000D+01
0.197808640472D-05 0.000000000000D+00 0.000000000000D+00 0.156593135117D-04 0.000000000000D+00  6 -1 2 25 24 4 -4 4 0.25983397D-02 0.19016705D+00 0.18374045D+05 0.18374045D+05 0.18374045D+05 0.12379009D+01  1  2 12  8  6  5       21 0.456087158859D-02 0.100000000000D+01
0.165431617829D-05 0.000000000000D+00 0.000000000000D+00 0.156593135117D-04 0.000000000000D+00  6 -1 2 25 24 3 -3 4 0.25983397D-02 0.19016705D+00 0.18374045D+05 0.18374045D+05 0.18374045D+05 0.12379009D+01  1  2 12  8  6  5       21 0.381435494329D-02 0.100000000000D+01
0.165431617829D-05 0.000000000000D+00 0.000000000000D+00 0.156593135117D-04 0.000000000000D+00  6 -1 2 25 24 4 -4 4 0.25983397D-02 0.19016705D+00 0.18374045D+05 0.18374045D+05 0.18374045D+05 0.12379009D+01  1  2 12  8  6  5       21 0.381435494329D-02 0.100000000000D+01
-.489832792600D-05 0.000000000000D+00 0.000000000000D+00 0.156843520038D-04 0.000000000000D+00  6 -1 2 25 24 3 -3 4 0.25983397D-02 0.19016705D+00 0.18002009D+05 0.18002009D+05 0.18002009D+05 0.12388902D+01  1  2  5  8  6  5       21 -.113247174363D-01 0.100000000000D+01
-.489832792600D-05 0.000000000000D+00 0.000000000000D+00 0.156843520038D-04 0.000000000000D+00  6 -1 2 25 24 4 -4 4 0.25983397D-02 0.19016705D+00 0.18002009D+05 0.18002009D+05 0.18002009D+05 0.12388902D+01  1  2  5  8  6  5       21 -.113247174363D-01 0.100000000000D+01
  </mgrwgt>
  </event>
  <event>
  6     66 0.43135346E-03 0.30330187E+02 0.75467711E-02 0.11792751E+00
       -3 -1    0    0    0  501 0.00000000E+00 0.00000000E+00 0.12451525E+03 0.12451625E+03 0.50000000E+00 0.0000E+00 0.9000E+01
        4 -1    0    0  503    0 0.00000000E+00 0.00000000E+00 -.31403214E+03 0.31403596E+03 0.15500000E+01 0.0000E+00 0.9000E+01
       25  1    1    2    0    0 -.69083209E+02 0.64211843E+02 -.31301723E+02 0.15968860E+03 0.12500000E+03 0.0000E+00 0.9000E+01
       24  1    1    2    0    0 0.10224851E+03 -.37377690E+02 -.25665987E+02 0.13775996E+03 0.80419002E+02 0.0000E+00 0.9000E+01
       21  1    1    2  502  501 -.99889259E+01 -.16526456E+00 -.12834798E+02 0.16281907E+02 0.75000000E+00 0.0000E+00 0.9000E+01
       21  1    1    2  503  502 -.23176370E+02 -.26668888E+02 -.11971438E+03 0.12482175E+03 0.75000000E+00 0.0000E+00 0.9000E+01
#aMCatNLO 2  0  0  2  2 0.83984430D+01 0.00000000D+00  -5  6  0 0.00000000D+00 0.00000000D+00 0.00000000D+00 0.00000000D+00 0.00000000D+00
  <mgrwgt>
 0.1244627348D-01    1    2    0
 0.151909548097207D+03 0.000000000000000D+00 0.000000000000000D+00 0.151909548097207D+03
 0.151909548097207D+03 0.000000000000000D+00 0.000000000000000D+00 -.151909548097207D+03
 0.157336548734211D+03 -.810115995360905D+02 0.504782141332179D+02 0.434283388099536D+01
 0.131842709047545D+03 0.920944285163600D+02 -.490683795948324D+02 0.511804013344962D+01
 0.146398384126576D+02 -.110828289802695D+02 -.140983453838557D+01 -.946087401444498D+01
 0.000000000000000D+00 -.000000000000000D+00 -.000000000000000D+00 -.000000000000000D+00
 0.156134084152501D+03 0.000000000000000D+00 0.000000000000000D+00 0.156134084152501D+03
 0.250439632402408D+03 0.000000000000000D+00 0.000000000000000D+00 -.250439632402408D+03
 0.156647982626929D+03 -.690759069947606D+02 0.642125324825287D+02 0.434283388099536D+01
 0.135449370161849D+03 0.102255171347690D+03 -.373764835253136D+02 0.511804013344962D+01
 0.137693125264615D+02 -.100028939608607D+02 -.167160826594643D+00 -.946087401444498D+01
 0.100707051239670D+03 -.231763703920685D+02 -.266688881306204D+02 -.943055482499071D+02
0.276282599038D-03 0.000000000000D+00 0.000000000000D+00 0.160334031430D-03 0.115866317303D-05  6 -3 4 25 24 21 21 4 0.19156396D-01 0.48312584D-01 0.28438950D+05 0.28438950D+05 0.28438950D+05 0.12173417D+01  1  2  1  2  6  2        4 0.124462734796D-01 0.100000000000D+01
  </mgrwgt>
  </event>
  <event>
  6     66 0.43135346E-03 0.44220430E+02 0.75467711E-02 0.11141200E+00
       -1 -1    0    0    0  501 0.00000000E+00 0.00000000E+00 0.56064140E+02 0.56065053E+02 0.32000000E+00 0.0000E+00 0.9000E+01
        2 -1    0    0  502    0 -.00000000E+00 -.00000000E+00 -.11636050E+04 0.11636050E+04 0.32000000E+00 0.0000E+00 0.9000E+01
       25  1    1    2    0    0 -.15853841E+03 -.59232580E+02 -.34500607E+03 0.40410037E+03 0.12500000E+03 0.0000E+00 0.9000E+01
       24  1    1    2    0    0 0.19124013E+03 0.77694588E+02 -.60865992E+03 0.64772166E+03 0.80419002E+02 0.0000E+00 0.9000E+01
        2  1    1    2  502    0 0.14593622E+02 0.13129623E+00 -.20902298E+02 0.25495087E+02 0.32000000E+00 0.0000E+00 0.9000E+01
       -2  1    1    2    0  501 -.47295346E+02 -.18593304E+02 -.13297255E+03 0.14235295E+03 0.32000000E+00 0.0000E+00 0.9000E+01
#aMCatNLO 2  0  0  5  1 0.78205956D+01 0.00000000D+00  -5  6  0 0.00000000D+00 0.00000000D+00 0.00000000D+00 0.00000000D+00 0.00000000D+00
  <mgrwgt>
 0.4365063748D-02    1    2    0
 0.255415534941088D+03 0.000000000000000D+00 0.000000000000000D+00 0.255415534941088D+03
 0.255415534941088D+03 -.000000000000000D+00 -.000000000000000D+00 -.255415534941088D+03
 0.207611955283472D+03 -.147624712562964D+03 -.530711705881142D+02 0.535548230296414D+02
 0.239100214714069D+03 0.203221729926282D+03 0.844588907371916D+02 -.476373905997755D+02
 0.641188998846358D+02 -.555970173633184D+02 -.313877201490774D+02 -.591743242986590D+01
 0.000000000000000D+00 0.000000000000000D+00 0.000000000000000D+00 0.000000000000000D+00
 0.255415534941088D+03 0.000000000000000D+00 0.000000000000000D+00 0.255415534941088D+03
 0.255415534941088D+03 -.000000000000000D+00 -.000000000000000D+00 -.255415534941088D+03
 0.216509559880566D+03 -.158171551909447D+03 -.590254691739787D+02 0.524322770345276D+02
 0.227257270710111D+03 0.191624587831530D+03 0.779116357249235D+02 -.488717248856741D+02
 0.150425551071620D+02 0.141333401319917D+02 0.245289805026424D+00 0.514460822385799D+01
 0.520216841843374D+02 -.475863760540755D+02 -.191314563559712D+02 -.870516037271146D+01
0.121714410850D-04 0.000000000000D+00 0.000000000000D+00 0.370426349357D-05 0.194110172813D-08  6 -1 2 25 24 2 -2 4 0.86253259D-02 0.17901622D+00 0.61858809D+05 0.61858809D+05 0.61858809D+05 0.11832348D+01  1  2  1  7  6  5       21 0.436506374760D-02 0.100000000000D+01
  </mgrwgt>
  </event>
  <event>
  5     66 0.43135346E-03 0.72722639E+02 0.75467711E-02 0.11909619E+00
       -1 -1    0    0    0  501 0.00000000E+00 0.00000000E+00 0.11729349E+03 0.11729392E+03 0.32000000E+00 0.0000E+00 0.9000E+01
        2 -1    0    0  502    0 -.00000000E+00 -.00000000E+00 -.25293480E+03 0.25293500E+03 0.32000000E+00 0.0000E+00 0.9000E+01
       25  1    1    2    0    0 0.52576843E+02 0.71297126E+02 -.73908019E+02 0.17010291E+03 0.12500000E+03 0.0000E+00 0.9000E+01
       24  1    1    2    0    0 -.27197174E+02 0.10561106E+01 0.20860690E+02 0.87425317E+02 0.80419002E+02 0.0000E+00 0.9000E+01
       21  1    1    2  502  501 -.25379669E+02 -.72353237E+02 -.82593986E+02 0.11270070E+03 0.75000000E+00 0.0000E+00 0.9000E+01
#aMCatNLO 1  0  0  5  1 0.31683854D+02 0.00000000D+00  -5  6  0 0.00000000D+00 0.00000000D+00 0.00000000D+00 0.00000000D+00 0.00000000D+00
  <mgrwgt>
 0.1012083723D+00    9    2    0
 0.172243207921518D+03 0.000000000000000D+00 0.000000000000000D+00 0.172243207921518D+03
 0.172243207921518D+03 -.000000000000000D+00 -.000000000000000D+00 -.172243207921518D+03
 0.153713606617698D+03 0.525772487282454D+02 0.712982832020089D+02 -.124523326342835D+02
 0.102172449120520D+03 -.271969045305732D+02 0.105687945526493D+01 0.568436873776386D+02
 0.886003601048171D+02 -.253803441976722D+02 -.723551626572738D+02 -.443913547433551D+02
 0.000000000000000D+00 0.000000000000000D+00 0.000000000000000D+00 0.000000000000000D+00
 0.172243207921518D+03 0.000000000000000D+00 0.000000000000000D+00 0.172243207921518D+03
 0.172243207921518D+03 -.000000000000000D+00 -.000000000000000D+00 -.172243207921518D+03
 0.147052906323931D+03 0.476710782083561D+02 0.573116026737177D+02 -.210334438392202D+02
 0.100374636131556D+03 -.305008978137153D+02 -.836225881797476D+01 0.510648556660073D+02
 0.652418882478895D+02 -.352512123523741D+02 -.547143522645757D+02 -.449395884559083D+01
 0.318169851396592D+02 0.180810319577333D+02 0.576500840883269D+01 -.255374529811963D+02
0.128025608073D-03 0.000000000000D+00 0.000000000000D+00 0.408685210174D-05 0.000000000000D+00  6 -1 2 25 24 21 21 2 0.18045201D-01 0.38913095D-01 0.24772527D+05 0.24772527D+05 0.24772527D+05 0.12237235D+01  1  2  2  3  6  5       21 0.667713001170D-01 0.100000000000D+01
-.661615702034D-05 0.675609695127D-05 -.491652044915D-06 0.408685210174D-05 0.000000000000D+00  6 -1 2 25 24 21 21 4 0.18045201D-01 0.38913095D-01 0.24772527D+05 0.24772527D+05 0.24772527D+05 0.12237235D+01  1  2  3  3  6  5       21 -.516732015038D-02 0.100000000000D+01
0.483258705956D-05 0.000000000000D+00 0.000000000000D+00 0.408685210174D-05 0.000000000000D+00  6 -1 2 25 24 21 21 4 0.18045201D-01 0.38913095D-01 0.24772527D+05 0.24772527D+05 0.24772527D+05 0.12237235D+01  1  2 15  3  6  5       21 0.377432464414D-02 0.100000000000D+01
0.645778477647D-04 0.000000000000D+00 0.000000000000D+00 0.408441687379D-05 0.000000000000D+00  6 -1 2 25 24 21 21 4 0.18045201D-01 0.38913095D-01 0.24967172D+05 0.24967172D+05 0.24967172D+05 0.12233588D+01  1  2 12  3  6  5       21 0.503851102389D-01 0.100000000000D+01
-.234298157663D-04 0.000000000000D+00 0.000000000000D+00 0.408685210174D-05 0.000000000000D+00  6 -1 2 25 24 21 21 4 0.18045201D-01 0.38913095D-01 0.24772527D+05 0.24772527D+05 0.24772527D+05 0.12237235D+01  1  2  4  3  6  5       21 -.182990456177D-01 0.100000000000D+01
0.119965829041D-05 0.000000000000D+00 0.000000000000D+00 0.408441687379D-05 0.000000000000D+00  6 -1 2 25 24 1 -1 4 0.18045201D-01 0.38913095D-01 0.24967172D+05 0.24967172D+05 0.24967172D+05 0.12233588D+01  1  2 12  6  6  5       21 0.936000769671D-03 0.100000000000D+01
0.119965829041D-05 0.000000000000D+00 0.000000000000D+00 0.408441687379D-05 0.000000000000D+00  6 -1 2 25 24 2 -2 4 0.18045201D-01 0.38913095D-01 0.24967172D+05 0.24967172D+05 0.24967172D+05 0.12233588D+01  1  2 12  7  6  5       21 0.936000769671D-03 0.100000000000D+01
0.119965829041D-05 0.000000000000D+00 0.000000000000D+00 0.408441687379D-05 0.000000000000D+00  6 -1 2 25 24 3 -3 4 0.18045201D-01 0.38913095D-01 0.24967172D+05 0.24967172D+05 0.24967172D+05 0.12233588D+01  1  2 12  8  6  5       21 0.936000769671D-03 0.100000000000D+01
0.119965829041D-05 0.000000000000D+00 0.000000000000D+00 0.408441687379D-05 0.000000000000D+00  6 -1 2 25 24 4 -4 4 0.18045201D-01 0.38913095D-01 0.24967172D+05 0.24967172D+05 0.24967172D+05 0.12233588D+01  1  2 12  8  6  5       21 0.936000769671D-03 0.100000000000D+01
  </mgrwgt>
  </event>
  <event>
  5     66 -.43135346E-03 0.40202671E+02 0.75467711E-02 0.12113398E+00
       -1 -1    0    0    0  501 0.00000000E+00 0.00000000E+00 0.51407323E+02 0.51408319E+02 0.32000000E+00 0.0000E+00 0.9000E+01
        2 -1    0    0  502    0 0.00000000E+00 0.00000000E+00 -.40042683E+03 0.40042696E+03 0.32000000E+00 0.0000E+00 0.9000E+01
       25  1    1    2    0    0 -.32844173E+02 0.12201850E+02 -.22846302E+03 0.26276982E+03 0.12500000E+03 0.0000E+00 0.9000E+01
       24  1    1    2    0    0 0.60762743E+02 0.17853944E+02 -.70251802E+02 0.12415074E+03 0.80419002E+02 0.0000E+00 0.9000E+01
       21  1    1    2  502  501 -.27918569E+02 -.30055793E+02 -.50304680E+02 0.64914718E+02 0.75000000E+00 0.0000E+00 0.9000E+01
#aMCatNLO 1  0  0  2  5 0.95067917D+01 0.00000000D+00  -5  6  0 0.00000000D+00 0.00000000D+00 0.00000000D+00 0.00000000D+00 0.00000000D+00
  <mgrwgt>
 -.1995051851D+00   11    4    0
 0.143475172893548D+03 0.000000000000000D+00 0.000000000000000D+00 0.143475172893548D+03
 0.143475172893548D+03 0.000000000000000D+00 0.000000000000000D+00 -.143475172893548D+03
 0.135879008895244D+03 -.328419640355842D+02 0.122042279973921D+02 -.401318735623792D+02
 0.110042762674841D+03 0.607645319718386D+02 0.178558700611539D+02 0.403860523119480D+02
 0.410285742170122D+02 -.279225679362545D+02 -.300600980585460D+02 -.254178749568808D+00
 0.000000000000000D+00 -.000000000000000D+00 -.000000000000000D+00 -.000000000000000D+00
 0.144286045174471D+03 0.000000000000000D+00 0.000000000000000D+00 0.144286045174471D+03
 0.174414624301073D+03 0.000000000000000D+00 0.000000000000000D+00 -.174414624301073D+03
 0.135899535360878D+03 -.310795174460516D+02 0.163456425690868D+02 -.401318735623792D+02
 0.111435786295221D+03 0.622007899897602D+02 0.212308034744333D+02 0.403860523119480D+02
 0.397724630442864D+02 -.273985842901515D+02 -.288288360616217D+02 -.254178749568808D+00
 0.315928847751586D+02 -.372268825355696D+01 -.874760998189838D+01 -.301285791266011D+02
 0.143475172893548D+03 0.000000000000000D+00 0.000000000000000D+00 0.143475172893548D+03
 0.143475172893548D+03 0.000000000000000D+00 0.000000000000000D+00 -.143475172893548D+03
 0.135879008895244D+03 -.328419640355842D+02 0.122042279973921D+02 -.401318735623792D+02
 0.110042762674841D+03 0.607645319718386D+02 0.178558700611539D+02 0.403860523119480D+02
 0.000000000000000D+00 -.000000000000000D+00 -.000000000000000D+00 -.000000000000000D+00
 0.410285742170122D+02 -.279225679362545D+02 -.300600980585460D+02 -.254178749568808D+00
 0.144286045174471D+03 0.000000000000000D+00 0.000000000000000D+00 0.144286045174471D+03
 0.174414624301073D+03 0.000000000000000D+00 0.000000000000000D+00 -.174414624301073D+03
 0.135899535360878D+03 -.310795174460516D+02 0.163456425690868D+02 -.401318735623792D+02
 0.111435786295221D+03 0.622007899897602D+02 0.212308034744333D+02 0.403860523119480D+02
 0.315928847751586D+02 -.372268825355696D+01 -.874760998189838D+01 -.301285791266011D+02
 0.397724630442864D+02 -.273985842901515D+02 -.288288360616217D+02 -.254178749568808D+00
0.129721642262D-04 0.000000000000D+00 0.000000000000D+00 0.124562907145D-04 0.000000000000D+00  6 -1 2 25 24 21 21 2 0.79089054D-02 0.61604214D-01 0.18660797D+05 0.18660797D+05 0.18660797D+05 0.12371536D+01  1  2  2  2  6  2        2 0.150850977993D-01 0.100000000000D+01
0.611040283856D-06 0.684559913441D-06 -.498165262781D-07 0.124562907145D-04 0.000000000000D+00  6 -1 2 25 24 21 21 4 0.79089054D-02 0.61604214D-01 0.18660797D+05 0.18660797D+05 0.18660797D+05 0.12371536D+01  1  2  3  2  6  2        2 0.108755888247D-02 0.100000000000D+01
0.560013671394D-06 0.000000000000D+00 0.000000000000D+00 0.124562907145D-04 0.000000000000D+00  6 -1 2 25 24 21 21 4 0.79089054D-02 0.61604214D-01 0.18660797D+05 0.18660797D+05 0.18660797D+05 0.12371536D+01  1  2 15  2  6  2        2 0.996739263709D-03 0.100000000000D+01
0.288250648745D-03 0.000000000000D+00 0.000000000000D+00 0.123884606087D-04 0.000000000000D+00  6 -1 2 25 24 21 21 4 0.79089054D-02 0.76169069D-01 0.20019032D+05 0.20019032D+05 0.20019032D+05 0.12337806D+01  1  2 12  2  6  2        2 0.404162267594D+00 0.100000000000D+01
-.411386343530D-03 0.000000000000D+00 0.000000000000D+00 0.124562907145D-04 0.000000000000D+00  6 -1 2 25 24 21 21 4 0.79089054D-02 0.61604214D-01 0.18660797D+05 0.18660797D+05 0.18660797D+05 0.12371536D+01  1  2  4  2  6  2        2 -.732205198007D+00 0.100000000000D+01
-.354899328742D-03 0.000000000000D+00 -.174308893814D-04 0.124562907145D-04 0.000000000000D+00  6 -1 2 25 24 21 21 4 0.79089054D-02 0.75089745D-01 0.18660797D+05 0.18660797D+05 0.18660797D+05 0.12371536D+01  1  2  5  2  6  2        2 -.510048159250D+00 0.100000000000D+01
0.351771139445D-03 0.000000000000D+00 0.170948574513D-04 0.124562907145D-04 0.000000000000D+00  6 -1 2 25 24 21 21 4 0.79089054D-02 0.61604214D-01 0.18660797D+05 0.18660797D+05 0.18660797D+05 0.12371536D+01  1  2  6  2  6  2        2 0.626099190849D+00 0.100000000000D+01
0.328352781041D-08 0.000000000000D+00 0.000000000000D+00 0.124562907145D-04 0.756227692823D-06  6 -1 2 25 24 21 21 4 0.79536038D-02 0.74888746D-01 0.20019032D+05 0.20019032D+05 0.20019032D+05 0.12337806D+01  1  2 11  2  6  2        2 0.465055756132D-05 0.100000000000D+01
0.863067773655D-05 0.000000000000D+00 0.000000000000D+00 0.123884606087D-04 0.000000000000D+00  6 -1 21 25 24 -2 21 4 0.79089054D-02 0.76169069D-01 0.20019032D+05 0.20019032D+05 0.20019032D+05 0.12337806D+01  3  4 12  5  5  2        2 0.240693131759D-01 0.100000000000D+01
-.987899858398D-05 0.000000000000D+00 -.494893819145D-06 0.124562907145D-04 0.000000000000D+00  6 -1 21 25 24 -2 21 4 0.79089054D-02 0.75089745D-01 0.18660797D+05 0.18660797D+05 0.18660797D+05 0.12371536D+01  3  4  5  5  5  2        2 -.287568542706D-01 0.100000000000D+01
0.725556788938D-10 0.000000000000D+00 0.000000000000D+00 0.124562907145D-04 0.332822496079D-07  6 -1 21 25 24 -2 21 4 0.79536038D-02 0.74888746D-01 0.20019032D+05 0.20019032D+05 0.20019032D+05 0.12337806D+01  3  4 11  5  5  2        2 0.208310848306D-06 0.100000000000D+01
  </mgrwgt>
  </event>
  <event>
  6     66 0.43135346E-03 0.16216358E+02 0.75467711E-02 0.11429797E+00
       21 -1    0    0  503  501 0.00000000E+00 0.00000000E+00 0.54382900E+02 0.54388072E+02 0.75000000E+00 0.0000E+00 0.9000E+01
        2 -1    0    0  502    0 0.00000000E+00 0.00000000E+00 -.16555042E+04 0.16555042E+04 0.32000000E+00 0.0000E+00 0.9000E+01
       25  1    1    2    0    0 0.36968065E+02 0.14894181E+03 -.94857274E+03 0.96900234E+03 0.12500000E+03 0.0000E+00 0.9000E+01
       24  1    1    2    0    0 -.41345551E+02 -.16359584E+03 -.67586833E+03 0.70124052E+03 0.80419002E+02 0.0000E+00 0.9000E+01
        1  1    1    2  503    0 0.14589959E+02 0.15578479E+02 0.18695918E+02 0.28375970E+02 0.32000000E+00 0.0000E+00 0.9000E+01
       21  1    1    2  502  501 -.10212473E+02 -.92444357E+00 0.46238322E+01 0.11273487E+02 0.75000000E+00 0.0000E+00 0.9000E+01
#aMCatNLO 2  0  0  1  1 0.11308943D+03 0.00000000D+00  -5  6  0 0.00000000D+00 0.00000000D+00 0.00000000D+00 0.00000000D+00 0.00000000D+00
  <mgrwgt>
 0.3656240279D+00    1    2    0
 0.225407301147292D+03 0.000000000000000D+00 0.000000000000000D+00 0.225407301147292D+03
 0.225407301147292D+03 0.000000000000000D+00 0.000000000000000D+00 -.225407301147292D+03
 0.212368334384118D+03 0.437311973897046D+02 0.156162775093977D+03 -.563567165375635D+02
 0.180145951043475D+03 -.354086944739806D+02 -.157257072385483D+03 -.133613748654482D+01
 0.000000000000000D+00 0.000000000000000D+00 0.000000000000000D+00 0.000000000000000D+00
 0.583003168669906D+02 -.832250291572400D+01 0.109429729150615D+01 0.576928540241083D+02
 0.397821352017643D+03 0.000000000000000D+00 0.000000000000000D+00 0.397821352017643D+03
 0.226321312909066D+03 0.000000000000000D+00 0.000000000000000D+00 -.226321312909066D+03
 0.205794514286966D+03 0.369683687585062D+02 0.148941741372417D+03 -.563567165375635D+02
 0.186927911526815D+03 -.413452754864837D+02 -.163595877347108D+03 -.133613748654482D+01
 0.172823086833334D+03 0.145899591121001D+02 0.155784794336844D+02 0.171500039108577D+03
 0.585971522795954D+02 -.102130523841226D+02 -.924343458993619D+00 0.576928540241083D+02
0.110373530952D-03 0.000000000000D+00 0.000000000000D+00 0.243753811318D-03 0.365926178948D-06  6 21 2 25 24 1 21 4 0.83669947D-02 0.25469319D+00 0.43357486D+05 0.43357486D+05 0.43357486D+05 0.11984618D+01  1  2  1  4  5  1       -1 0.365624027876D+00 0.100000000000D+01
  </mgrwgt>
  </event>
  <event>
  5     66 0.43135346E-03 0.58230833E+02 0.75467711E-02 0.98043746E-01
       -1 -1    0    0    0  501 0.00000000E+00 0.00000000E+00 0.23718068E+03 0.23718089E+03 0.32000000E+00 0.0000E+00 0.9000E+01
        2 -1    0    0  502    0 0.00000000E+00 0.00000000E+00 -.92420276E+03 0.92420281E+03 0.32000000E+00 0.0000E+00 0.9000E+01
       25  1    1    2    0    0 0.71758898E+02 -.35189641E+03 -.22582679E+03 0.44227046E+03 0.12500000E+03 0.0000E+00 0.9000E+01
       24  1    1    2    0    0 -.41250294E+02 0.40149412E+03 -.50116243E+03 0.64848293E+03 0.80419002E+02 0.0000E+00 0.9000E+01
       21  1    1    2  502  501 -.30508605E+02 -.49597710E+02 0.39967133E+02 0.70630320E+02 0.75000000E+00 0.0000E+00 0.9000E+01
#aMCatNLO 1  0  0  2  5 0.38831561D+03 0.00000000D+00  -5  6  0 0.00000000D+00 0.00000000D+00 0.00000000D+00 0.00000000D+00 0.00000000D+00
  <mgrwgt>
 0.1742394199D+01    3    2    0
 0.468191404890810D+03 0.000000000000000D+00 0.000000000000000D+00 0.468191404890810D+03
 0.468191404890810D+03 0.000000000000000D+00 0.000000000000000D+00 -.468191404890810D+03
 0.382853360656812D+03 0.717591550856458D+02 -.351895987962645D+03 0.444019490946414D+02
 0.436604060489840D+03 -.412500012623835D+02 0.401494590967677D+03 -.145795817846042D+03
 0.116925388634969D+03 -.305091538232623D+02 -.495986030050320D+02 0.101393868751401D+03
 0.000000000000000D+00 -.000000000000000D+00 -.000000000000000D+00 0.000000000000000D+00
 0.204725538783323D+04 0.000000000000000D+00 0.000000000000000D+00 0.204725538783323D+04
 0.531325823351705D+03 0.000000000000000D+00 0.000000000000000D+00 -.531325823351705D+03
 0.367429043745469D+03 0.201226184102286D+03 -.277336604031887D+03 0.444019490946414D+02
 0.540925774152833D+03 0.127430328602393D+03 0.498636709478315D+03 -.145795817846042D+03
 0.105352131098466D+03 0.784655054648282D+01 -.275097537454194D+02 0.101393868751401D+03
 0.156487426218817D+04 -.336503063251161D+03 -.193790351701008D+03 0.151592956448153D+04
0.439367172098D-01 0.000000000000D+00 0.000000000000D+00 0.390478899987D-05 0.000000000000D+00  6 -1 2 25 24 21 21 2 0.36489356D-01 0.14218506D+00 0.18064307D+06 0.18064307D+06 0.18064307D+06 0.11406918D+01  1  2  2  2  6  2        2 0.137295970587D+01 0.100000000000D+01
0.829528083993D-02 0.231860426722D-02 -.168728562889D-03 0.390478899987D-05 0.000000000000D+00  6 -1 2 25 24 21 21 4 0.36489356D-01 0.14218506D+00 0.18064307D+06 0.18064307D+06 0.18064307D+06 0.11406918D+01  1  2  3  2  6  2        2 0.337285679216D+00 0.100000000000D+01
0.790675248297D-03 0.000000000000D+00 0.000000000000D+00 0.390478899987D-05 0.000000000000D+00  6 -1 2 25 24 21 21 4 0.36489356D-01 0.14218506D+00 0.18064307D+06 0.18064307D+06 0.18064307D+06 0.11406918D+01  1  2 15  2  6  2        2 0.321488136819D-01 0.100000000000D+01
  </mgrwgt>
  </event>
  <event>
  5     66 -.43135346E-03 0.45259311E+02 0.75467711E-02 0.11315482E+00
       -1 -1    0    0    0  501 0.00000000E+00 0.00000000E+00 0.16679375E+02 0.16682445E+02 0.32000000E+00 0.0000E+00 0.9000E+01
        2 -1    0    0  502    0 0.00000000E+00 0.00000000E+00 -.29195617E+04 0.29195617E+04 0.32000000E+00 0.0000E+00 0.9000E+01
       25  1    1    2    0    0 0.57829271E+02 -.45507667E+02 -.10974778E+04 0.11070220E+04 0.12500000E+03 0.0000E+00 0.9000E+01
       24  1    1    2    0    0 -.10298964E+03 0.42525329E+02 -.17591343E+04 0.17644931E+04 0.80419002E+02 0.0000E+00 0.9000E+01
       21  1    1    2  502  501 0.45160373E+02 0.29823383E+01 -.46270227E+02 0.64729051E+02 0.75000000E+00 0.0000E+00 0.9000E+01
#aMCatNLO 1  0  0  1  5 0.46460556D+02 0.00000000D+00  -5  6  0 0.00000000D+00 0.00000000D+00 0.00000000D+00 0.00000000D+00 0.00000000D+00
  <mgrwgt>
 -.6821240741D+00    5    4    0
 0.220683024806038D+03 0.000000000000000D+00 0.000000000000000D+00 0.220683024806038D+03
 0.220683024806038D+03 0.000000000000000D+00 0.000000000000000D+00 -.220683024806038D+03
 0.146449770731160D+03 0.578290066783729D+02 -.455076842881633D+02 -.201839541351746D+02
 0.168619766005887D+03 -.102989948304398D+03 0.425253084108915D+02 -.977245016683413D+02
 0.126296512875028D+03 0.451609416260249D+02 0.298237587727178D+01 0.117908455803516D+03
 0.000000000000000D+00 -.000000000000000D+00 0.000000000000000D+00 0.000000000000000D+00
 0.143525619176369D+04 0.000000000000000D+00 0.000000000000000D+00 0.143525619176369D+04
 0.228439853451465D+03 0.000000000000000D+00 0.000000000000000D+00 -.228439853451465D+03
 0.165549400635373D+03 0.742741440258587D+02 -.765347213715874D+02 -.201839541351746D+02
 0.153383905652459D+03 -.860174846160400D+02 0.105033648339801D+02 -.977245016683413D+02
 0.133758413010747D+03 0.588681542296688D+02 -.228790191829927D+02 0.117908455803516D+03
 0.121100432591658D+04 -.471248136394876D+02 0.889103757206001D+02 0.120681633831223D+04
 0.220683024806038D+03 0.000000000000000D+00 0.000000000000000D+00 0.220683024806038D+03
 0.220683024806038D+03 0.000000000000000D+00 0.000000000000000D+00 -.220683024806038D+03
 0.146449770731160D+03 0.578290066783729D+02 -.455076842881633D+02 -.201839541351746D+02
 0.168619766005887D+03 -.102989948304398D+03 0.425253084108915D+02 -.977245016683413D+02
 0.000000000000000D+00 -.000000000000000D+00 0.000000000000000D+00 0.000000000000000D+00
 0.126296512875028D+03 0.451609416260249D+02 0.298237587727178D+01 0.117908455803516D+03
 0.143525619176369D+04 0.000000000000000D+00 0.000000000000000D+00 0.143525619176369D+04
 0.228439853451465D+03 0.000000000000000D+00 0.000000000000000D+00 -.228439853451465D+03
 0.165549400635373D+03 0.742741440258587D+02 -.765347213715874D+02 -.201839541351746D+02
 0.153383905652459D+03 -.860174846160400D+02 0.105033648339801D+02 -.977245016683413D+02
 0.121100432591658D+04 -.471248136394876D+02 0.889103757206001D+02 0.120681633831223D+04
 0.133758413010747D+03 0.588681542296688D+02 -.228790191829927D+02 0.117908455803516D+03
0.297085596615D-03 0.000000000000D+00 0.000000000000D+00 0.117564438083D-04 0.000000000000D+00  6 -1 2 25 24 21 21 2 0.25662952D-02 0.44916357D+00 0.26850968D+05 0.26850968D+05 0.26850968D+05 0.12199858D+01  1  2  2  1  6  1       -1 0.567265856148D-01 0.100000000000D+01
0.162479257690D-04 0.156776376521D-04 -.114088691543D-05 0.117564438083D-04 0.000000000000D+00  6 -1 2 25 24 21 21 4 0.25662952D-02 0.44916357D+00 0.26850968D+05 0.26850968D+05 0.26850968D+05 0.12199858D+01  1  2  3  1  6  1       -1 0.461755998900D-02 0.100000000000D+01
0.775388255662D-05 0.000000000000D+00 0.000000000000D+00 0.117564438083D-04 0.000000000000D+00  6 -1 2 25 24 21 21 4 0.25662952D-02 0.44916357D+00 0.26850968D+05 0.26850968D+05 0.26850968D+05 0.12199858D+01  1  2 15  1  6  1       -1 0.220360545474D-02 0.100000000000D+01
-.114042396380D-01 0.000000000000D+00 -.266085368145D-03 0.117564438083D-04 0.000000000000D+00  6 -1 2 25 24 21 21 4 0.17295369D-01 0.44916357D+00 0.26850968D+05 0.26850968D+05 0.26850968D+05 0.12199858D+01  1  2  5  1  6  1       -1 -.181678204220D+00 0.100000000000D+01
-.268603545502D-02 0.000000000000D+00 -.621325080455D-04 0.117564438083D-04 0.000000000000D+00  6 21 2 25 24 1 21 4 0.17295369D-01 0.44916357D+00 0.26850968D+05 0.26850968D+05 0.26850968D+05 0.12199858D+01  3  4  5  4  5  1       -1 -.563993620914D+00 0.100000000000D+01
  </mgrwgt>
  </event>
  <event>
  5     66 0.43135346E-03 0.50875633E+02 0.75467711E-02 0.12175741E+00
       -1 -1    0    0    0  501 0.00000000E+00 0.00000000E+00 0.16858609E+03 0.16858640E+03 0.32000000E+00 0.0000E+00 0.9000E+01
        2 -1    0    0  502    0 0.00000000E+00 0.00000000E+00 -.13174934E+03 0.13174973E+03 0.32000000E+00 0.0000E+00 0.9000E+01
       25  1    1    2    0    0 0.34821533E+02 0.53311538E+02 -.97849888E+01 0.14062505E+03 0.12500000E+03 0.0000E+00 0.9000E+01
       24  1    1    2    0    0 0.15968324E+02 -.56185025E+02 0.44197514E+02 0.10877675E+03 0.80419002E+02 0.0000E+00 0.9000E+01
       21  1    1    2  502  501 -.50789857E+02 0.28734867E+01 0.24242273E+01 0.50934329E+02 0.75000000E+00 0.0000E+00 0.9000E+01
#aMCatNLO 1  0  0  5  2 0.18950233D+02 0.00000000D+00  -5  6  0 0.00000000D+00 0.00000000D+00 0.00000000D+00 0.00000000D+00 0.00000000D+00
  <mgrwgt>
 0.3101002896D+00   14    2    0
 0.149034260450800D+03 0.000000000000000D+00 0.000000000000000D+00 0.149034260450800D+03
 0.149034260450800D+03 -.000000000000000D+00 -.000000000000000D+00 -.149034260450800D+03
 0.142904704608015D+03 0.348241638951844D+02 0.533113889113983D+02 -.272383556853744D+02
 0.104142536866191D+03 0.159702419957903D+02 -.561851329904804D+02 0.310907419016241D+02
 0.510212794273947D+02 -.507944058909747D+02 0.287374407908209D+01 -.385238621624964D+01
 0.000000000000000D+00 0.000000000000000D+00 0.000000000000000D+00 0.000000000000000D+00
 0.149034260450800D+03 0.000000000000000D+00 0.000000000000000D+00 0.149034260450800D+03
 0.149034260450800D+03 -.000000000000000D+00 -.000000000000000D+00 -.149034260450800D+03
 0.140491126009530D+03 0.191676072557866D+02 0.541971741893649D+02 -.284257916231233D+02
 0.102402226277212D+03 0.455941857019858D+01 -.555395542957098D+02 0.302253139453416D+02
 0.353096220198464D+02 -.287863482950150D+02 -.603483611858270D+01 -.195370497272327D+02
 0.198655465950122D+02 0.505932246902972D+01 0.737721622492761D+01 0.177375274050144D+02
0.200391196892D-03 0.000000000000D+00 0.000000000000D+00 0.858591437751D-05 0.000000000000D+00  6 -1 2 25 24 21 21 2 0.25936375D-01 0.20269183D-01 0.21105373D+05 0.21105373D+05 0.21105373D+05 0.12312622D+01  1  2  2  3  6  5       21 0.119544870821D+00 0.100000000000D+01
0.273338899923D-05 0.105749339899D-04 -.769554960278D-06 0.858591437751D-05 0.000000000000D+00  6 -1 2 25 24 21 21 4 0.25936375D-01 0.20269183D-01 0.21105373D+05 0.21105373D+05 0.21105373D+05 0.12312622D+01  1  2  3  3  6  5       21 0.247203646772D-02 0.100000000000D+01
0.751551323911D-05 0.000000000000D+00 0.000000000000D+00 0.858591437751D-05 0.000000000000D+00  6 -1 2 25 24 21 21 4 0.25936375D-01 0.20269183D-01 0.21105373D+05 0.21105373D+05 0.21105373D+05 0.12312622D+01  1  2 15  3  6  5       21 0.679691869907D-02 0.100000000000D+01
0.119443312909D-03 0.000000000000D+00 0.000000000000D+00 0.866544132595D-05 0.000000000000D+00  6 -1 2 25 24 21 21 4 0.25936375D-01 0.20269183D-01 0.18739252D+05 0.18739252D+05 0.18739252D+05 0.12369514D+01  1  2 12  3  6  5       21 0.109693799043D+00 0.100000000000D+01
0.110437681526D-03 0.000000000000D+00 0.000000000000D+00 0.866544132595D-05 0.000000000000D+00  6 -1 2 25 24 21 21 4 0.25936375D-01 0.20269183D-01 0.18739252D+05 0.18739252D+05 0.18739252D+05 0.12369514D+01  1  2 12  3  6  5       21 0.101423248812D+00 0.100000000000D+01
-.503717936019D-04 0.000000000000D+00 0.000000000000D+00 0.858591437751D-05 0.000000000000D+00  6 -1 2 25 24 21 21 4 0.25936375D-01 0.20269183D-01 0.21105373D+05 0.21105373D+05 0.21105373D+05 0.12312622D+01  1  2  4  3  6  5       21 -.455555029904D-01 0.100000000000D+01
0.219700923235D-05 0.000000000000D+00 0.000000000000D+00 0.866544132595D-05 0.000000000000D+00  6 -1 2 25 24 1 -1 4 0.25936375D-01 0.20269183D-01 0.18739252D+05 0.18739252D+05 0.18739252D+05 0.12369514D+01  1  2 12  6  6  5       21 0.201767921000D-02 0.100000000000D+01
0.208362561415D-05 0.000000000000D+00 0.000000000000D+00 0.866544132595D-05 0.000000000000D+00  6 -1 2 25 24 1 -1 4 0.25936375D-01 0.20269183D-01 0.18739252D+05 0.18739252D+05 0.18739252D+05 0.12369514D+01  1  2 12  6  6  5       21 0.191355048545D-02 0.100000000000D+01
0.219700923235D-05 0.000000000000D+00 0.000000000000D+00 0.866544132595D-05 0.000000000000D+00  6 -1 2 25 24 2 -2 4 0.25936375D-01 0.20269183D-01 0.18739252D+05 0.18739252D+05 0.18739252D+05 0.12369514D+01  1  2 12  7  6  5       21 0.201767921000D-02 0.100000000000D+01
0.208362561415D-05 0.000000000000D+00 0.000000000000D+00 0.866544132595D-05 0.000000000000D+00  6 -1 2 25 24 2 -2 4 0.25936375D-01 0.20269183D-01 0.18739252D+05 0.18739252D+05 0.18739252D+05 0.12369514D+01  1  2 12  7  6  5       21 0.191355048545D-02 0.100000000000D+01
0.219700923235D-05 0.000000000000D+00 0.000000000000D+00 0.866544132595D-05 0.000000000000D+00  6 -1 2 25 24 3 -3 4 0.25936375D-01 0.20269183D-01 0.18739252D+05 0.18739252D+05 0.18739252D+05 0.12369514D+01  1  2 12  8  6  5       21 0.201767921000D-02 0.100000000000D+01
0.219700923235D-05 0.000000000000D+00 0.000000000000D+00 0.866544132595D-05 0.000000000000D+00  6 -1 2 25 24 4 -4 4 0.25936375D-01 0.20269183D-01 0.18739252D+05 0.18739252D+05 0.18739252D+05 0.12369514D+01  1  2 12  8  6  5       21 0.201767921000D-02 0.100000000000D+01
0.208362561415D-05 0.000000000000D+00 0.000000000000D+00 0.866544132595D-05 0.000000000000D+00  6 -1 2 25 24 3 -3 4 0.25936375D-01 0.20269183D-01 0.18739252D+05 0.18739252D+05 0.18739252D+05 0.12369514D+01  1  2 12  8  6  5       21 0.191355048545D-02 0.100000000000D+01
0.208362561415D-05 0.000000000000D+00 0.000000000000D+00 0.866544132595D-05 0.000000000000D+00  6 -1 2 25 24 4 -4 4 0.25936375D-01 0.20269183D-01 0.18739252D+05 0.18739252D+05 0.18739252D+05 0.12369514D+01  1  2 12  8  6  5       21 0.191355048545D-02 0.100000000000D+01
  </mgrwgt>
  </event>
  <event>
  5     66 0.43135346E-03 0.33893068E+02 0.75467711E-02 0.97905555E-01
       -1 -1    0    0    0  501 0.00000000E+00 0.00000000E+00 0.19376093E+02 0.19378735E+02 0.32000000E+00 0.0000E+00 0.9000E+01
        2 -1    0    0  502    0 0.00000000E+00 0.00000000E+00 -.11081636E+04 0.11081637E+04 0.32000000E+00 0.0000E+00 0.9000E+01
       25  1    1    2    0    0 -.26389496E+02 0.44732768E+02 -.29431501E+03 0.32395023E+03 0.12500000E+03 0.0000E+00 0.9000E+01
       24  1    1    2    0    0 -.46647221E+01 -.31165539E+02 -.53796802E+03 0.54485765E+03 0.80419002E+02 0.0000E+00 0.9000E+01
       21  1    1    2  502  501 0.31054218E+02 -.13567229E+02 -.25650451E+03 0.25873454E+03 0.75000000E+00 0.0000E+00 0.9000E+01
#aMCatNLO 1  0  0  1  2 0.63879661D+03 0.00000000D+00  -5  6  0 0.00000000D+00 0.00000000D+00 0.00000000D+00 0.00000000D+00 0.00000000D+00
  <mgrwgt>
 0.3954988367D+00    5    4    0
 0.146538039767101D+03 0.000000000000000D+00 0.000000000000000D+00 0.146538039767101D+03
 0.146538039767101D+03 0.000000000000000D+00 0.000000000000000D+00 -.146538039767101D+03
 0.152935082427047D+03 -.263920202427382D+02 0.447338703823408D+02 0.711792213015181D+02
 0.976436083785466D+02 -.466633359024301D+01 -.311648349808744D+02 -.455415930139897D+02
 0.424973887286076D+02 0.310583538329813D+02 -.135690354014664D+02 -.256376282875284D+02
 0.000000000000000D+00 0.000000000000000D+00 -.000000000000000D+00 0.000000000000000D+00
 0.179533927000380D+04 0.000000000000000D+00 0.000000000000000D+00 0.179533927000380D+04
 0.422060692184509D+03 0.000000000000000D+00 0.000000000000000D+00 -.422060692184509D+03
 0.473595376776606D+03 -.333523954095319D+03 0.303912604877962D+03 0.711792213015181D+02
 0.198121796508591D+03 -.149653699224690D+03 0.911853272820531D+02 -.455415930139897D+02
 0.311019350308566D+02 -.502082205452150D+01 0.168770176379294D+02 -.256376282875284D+02
 0.151458085387226D+04 0.488198475374531D+03 -.411974949797945D+03 0.137327857781929D+04
 0.146538039767101D+03 0.000000000000000D+00 0.000000000000000D+00 0.146538039767101D+03
 0.146538039767101D+03 0.000000000000000D+00 0.000000000000000D+00 -.146538039767101D+03
 0.152935082427047D+03 -.263920202427382D+02 0.447338703823408D+02 0.711792213015181D+02
 0.976436083785466D+02 -.466633359024301D+01 -.311648349808744D+02 -.455415930139897D+02
 0.000000000000000D+00 0.000000000000000D+00 -.000000000000000D+00 0.000000000000000D+00
 0.424973887286076D+02 0.310583538329813D+02 -.135690354014664D+02 -.256376282875284D+02
 0.179533927000380D+04 0.000000000000000D+00 0.000000000000000D+00 0.179533927000380D+04
 0.422060692184509D+03 0.000000000000000D+00 0.000000000000000D+00 -.422060692184509D+03
 0.473595376776606D+03 -.333523954095319D+03 0.303912604877962D+03 0.711792213015181D+02
 0.198121796508591D+03 -.149653699224690D+03 0.911853272820531D+02 -.455415930139897D+02
 0.151458085387226D+04 0.488198475374531D+03 -.411974949797945D+03 0.137327857781929D+04
 0.311019350308566D+02 -.502082205452150D+01 0.168770176379294D+02 -.256376282875284D+02
0.213239417565D-03 0.000000000000D+00 0.000000000000D+00 0.166789148873D-04 0.000000000000D+00  6 -1 2 25 24 21 21 2 0.29811442D-02 0.17048692D+00 0.16336284D+05 0.16336284D+05 0.16336284D+05 0.12436194D+01  1  2  2  1  6  1       -1 0.311679441909D+00 0.100000000000D+01
0.112497268428D-04 0.112529532223D-04 -.818895510678D-06 0.166789148873D-04 0.000000000000D+00  6 -1 2 25 24 21 21 4 0.29811442D-02 0.17048692D+00 0.16336284D+05 0.16336284D+05 0.16336284D+05 0.12436194D+01  1  2  3  1  6  1       -1 0.254306609544D-01 0.100000000000D+01
0.102106154882D-04 0.000000000000D+00 0.000000000000D+00 0.166789148873D-04 0.000000000000D+00  6 -1 2 25 24 21 21 4 0.29811442D-02 0.17048692D+00 0.16336284D+05 0.16336284D+05 0.16336284D+05 0.12436194D+01  1  2 15  1  6  1       -1 0.230816893818D-01 0.100000000000D+01
0.254627808430D-02 0.000000000000D+00 -.962634323446D-03 0.166789148873D-04 0.000000000000D+00  6 -1 2 25 24 21 21 4 0.11844256D+00 0.17048692D+00 0.16336284D+05 0.16336284D+05 0.16336284D+05 0.12436194D+01  1  2  5  1  6  1       -1 0.117804302271D-01 0.100000000000D+01
0.584243221847D-03 0.000000000000D+00 -.334421562200D-03 0.166789148873D-04 0.000000000000D+00  6 21 2 25 24 1 21 4 0.11844256D+00 0.17048692D+00 0.16336284D+05 0.16336284D+05 0.16336284D+05 0.12436194D+01  3  4  5  4  5  1       -1 0.235266142194D-01 0.100000000000D+01
  </mgrwgt>
  </event>
  <event>
  5     66 0.43135346E-03 0.10644352E+03 0.75467711E-02 0.11161033E+00
       -3 -1    0    0    0  501 0.00000000E+00 0.00000000E+00 0.14127804E+03 0.14127892E+03 0.50000000E+00 0.0000E+00 0.9000E+01
        4 -1    0    0  502    0 -.00000000E+00 -.00000000E+00 -.43051185E+03 0.43051464E+03 0.15500000E+01 0.0000E+00 0.9000E+01
       25  1    1    2    0    0 -.71653829E+02 -.76746367E+02 -.11711566E+03 0.20091131E+03 0.12500000E+03 0.0000E+00 0.9000E+01
       24  1    1    2    0    0 0.10721158E+03 0.17707298E+03 -.11510135E+03 0.25012936E+03 0.80419002E+02 0.0000E+00 0.9000E+01
       21  1    1    2  502  501 -.35557748E+02 -.10032661E+03 -.57016805E+02 0.12075289E+03 0.75000000E+00 0.0000E+00 0.9000E+01
#aMCatNLO 1  0  0  5  2 0.53196211D+02 0.00000000D+00  -5  6  0 0.00000000D+00 0.00000000D+00 0.00000000D+00 0.00000000D+00 0.00000000D+00
  <mgrwgt>
 0.6093097204D-02   14    2    0
 0.246623032623052D+03 0.000000000000000D+00 0.000000000000000D+00 0.246623032623052D+03
 0.246623032623052D+03 -.000000000000000D+00 -.000000000000000D+00 -.246623032623052D+03
 0.164229860298936D+03 -.716535356674839D+02 -.767455390161022D+02 -.179538319387381D+02
 0.222468457056326D+03 0.107211974736094D+03 0.177074099110785D+03 0.132421421206242D+02
 0.106547747890843D+03 -.355584390686100D+02 -.100328560094683D+03 0.471168981811391D+01
 0.000000000000000D+00 0.000000000000000D+00 0.000000000000000D+00 0.000000000000000D+00
 0.246623032623052D+03 0.000000000000000D+00 0.000000000000000D+00 0.246623032623052D+03
 0.246623032623052D+03 -.000000000000000D+00 -.000000000000000D+00 -.246623032623052D+03
 0.180624967799579D+03 -.803551897372783D+02 -.101297359797099D+03 -.168008146535223D+02
 0.194315598306481D+03 0.966953446179355D+02 0.147401301754091D+03 0.146356537692370D+02
 0.553519653989916D+02 -.550289450661299D+02 0.301591944062122D+01 -.515359179288639D+01
 0.629535337410530D+02 0.386887901854726D+02 -.491198613976136D+02 0.731875267717170D+01
0.321503725389D-03 0.000000000000D+00 0.000000000000D+00 0.149983237041D-05 0.000000000000D+00  6 -3 4 25 24 21 21 2 0.21735365D-01 0.66232875D-01 0.60457726D+05 0.60457726D+05 0.60457726D+05 0.11841985D+01  1  2  2  3  6  5       21 0.398514706569D-02 0.100000000000D+01
-.857332826572D-05 0.169662177093D-04 -.123465895937D-05 0.149983237041D-05 0.000000000000D+00  6 -3 4 25 24 21 21 4 0.21735365D-01 0.66232875D-01 0.60457726D+05 0.60457726D+05 0.60457726D+05 0.11841985D+01  1  2  3  3  6  5       21 -.149024195100D-03 0.100000000000D+01
0.140742512641D-04 0.000000000000D+00 0.000000000000D+00 0.149983237041D-05 0.000000000000D+00  6 -3 4 25 24 21 21 4 0.21735365D-01 0.66232875D-01 0.60457726D+05 0.60457726D+05 0.60457726D+05 0.11841985D+01  1  2 15  3  6  5       21 0.244642908945D-03 0.100000000000D+01
0.679960221213D-04 0.000000000000D+00 0.000000000000D+00 0.150005785135D-05 0.000000000000D+00  6 -3 4 25 24 21 21 4 0.21735365D-01 0.66232875D-01 0.60330103D+05 0.60330103D+05 0.60330103D+05 0.11842875D+01  1  2 12  3  6  5       21 0.118215969189D-02 0.100000000000D+01
0.705352236902D-04 0.000000000000D+00 0.000000000000D+00 0.150005785135D-05 0.000000000000D+00  6 -3 4 25 24 21 21 4 0.21735365D-01 0.66232875D-01 0.60330103D+05 0.60330103D+05 0.60330103D+05 0.11842875D+01  1  2 12  3  6  5       21 0.122630553529D-02 0.100000000000D+01
-.461848237906D-04 0.000000000000D+00 0.000000000000D+00 0.149983237041D-05 0.000000000000D+00  6 -3 4 25 24 21 21 4 0.21735365D-01 0.66232875D-01 0.60457726D+05 0.60457726D+05 0.60457726D+05 0.11841985D+01  1  2  4  3  6  5       21 -.802798630578D-03 0.100000000000D+01
0.287120170812D-05 0.000000000000D+00 0.000000000000D+00 0.150005785135D-05 0.000000000000D+00  6 -3 4 25 24 3 -3 4 0.21735365D-01 0.66232875D-01 0.60330103D+05 0.60330103D+05 0.60330103D+05 0.11842875D+01  1  2 12  6  6  5       21 0.499179043235D-04 0.100000000000D+01
0.297648342100D-05 0.000000000000D+00 0.000000000000D+00 0.150005785135D-05 0.000000000000D+00  6 -3 4 25 24 3 -3 4 0.21735365D-01 0.66232875D-01 0.60330103D+05 0.60330103D+05 0.60330103D+05 0.11842875D+01  1  2 12  6  6  5       21 0.517483025346D-04 0.100000000000D+01
0.287120170812D-05 0.000000000000D+00 0.000000000000D+00 0.150005785135D-05 0.000000000000D+00  6 -3 4 25 24 4 -4 4 0.21735365D-01 0.66232875D-01 0.60330103D+05 0.60330103D+05 0.60330103D+05 0.11842875D+01  1  2 12  7  6  5       21 0.499179043235D-04 0.100000000000D+01
0.297648342100D-05 0.000000000000D+00 0.000000000000D+00 0.150005785135D-05 0.000000000000D+00  6 -3 4 25 24 4 -4 4 0.21735365D-01 0.66232875D-01 0.60330103D+05 0.60330103D+05 0.60330103D+05 0.11842875D+01  1  2 12  7  6  5       21 0.517483025346D-04 0.100000000000D+01
0.287120170812D-05 0.000000000000D+00 0.000000000000D+00 0.150005785135D-05 0.000000000000D+00  6 -3 4 25 24 1 -1 4 0.21735365D-01 0.66232875D-01 0.60330103D+05 0.60330103D+05 0.60330103D+05 0.11842875D+01  1  2 12  8  6  5       21 0.499179043235D-04 0.100000000000D+01
0.287120170812D-05 0.000000000000D+00 0.000000000000D+00 0.150005785135D-05 0.000000000000D+00  6 -3 4 25 24 2 -2 4 0.21735365D-01 0.66232875D-01 0.60330103D+05 0.60330103D+05 0.60330103D+05 0.11842875D+01  1  2 12  8  6  5       21 0.499179043235D-04 0.100000000000D+01
0.297648342100D-05 0.000000000000D+00 0.000000000000D+00 0.150005785135D-05 0.000000000000D+00  6 -3 4 25 24 1 -1 4 0.21735365D-01 0.66232875D-01 0.60330103D+05 0.60330103D+05 0.60330103D+05 0.11842875D+01  1  2 12  8  6  5       21 0.517483025346D-04 0.100000000000D+01
0.297648342100D-05 0.000000000000D+00 0.000000000000D+00 0.150005785135D-05 0.000000000000D+00  6 -3 4 25 24 2 -2 4 0.21735365D-01 0.66232875D-01 0.60330103D+05 0.60330103D+05 0.60330103D+05 0.11842875D+01  1  2 12  8  6  5       21 0.517483025346D-04 0.100000000000D+01
  </mgrwgt>
  </event>
  <event>
  5     66 -.43135346E-03 0.22223987E+02 0.75467711E-02 0.12500523E+00
       -3 -1    0    0    0  501 0.00000000E+00 0.00000000E+00 0.88363035E+03 0.88363049E+03 0.50000000E+00 0.0000E+00 0.9000E+01
        4 -1    0    0  502    0 0.00000000E+00 0.00000000E+00 -.20457662E+02 0.20516297E+02 0.15500000E+01 0.0000E+00 0.9000E+01
       25  1    1    2    0    0 0.18229524E+02 -.45423384E+01 0.29219923E+03 0.31836824E+03 0.12500000E+03 0.0000E+00 0.9000E+01
       24  1    1    2    0    0 -.56880305E+00 -.89404466E+01 0.54750402E+03 0.55345110E+03 0.80419002E+02 0.0000E+00 0.9000E+01
       21  1    1    2  502  501 -.17660721E+02 0.13482785E+02 0.23469442E+02 0.32327446E+02 0.75000000E+00 0.0000E+00 0.9000E+01
#aMCatNLO 1  0  0  2  5 0.22537113D+01 0.00000000D+00  -5  6  0 0.00000000D+00 0.00000000D+00 0.00000000D+00 0.00000000D+00 0.00000000D+00
  <mgrwgt>
 -.4046049317D+00    9    4    0
 0.134549549512070D+03 0.000000000000000D+00 0.000000000000000D+00 0.134549549512070D+03
 0.134549549512070D+03 0.000000000000000D+00 0.000000000000000D+00 -.134549549512070D+03
 0.132416195568371D+03 0.182317242517322D+02 -.454401821679008D+01 -.394462289459366D+02
 0.103348366958371D+03 -.567085753424572D+00 -.894175762252598D+01 0.642914643087233D+02
 0.333345364973992D+02 -.176646384983076D+02 0.134857758393161D+02 -.248452353627867D+02
 0.000000000000000D+00 -.000000000000000D+00 -.000000000000000D+00 -.000000000000000D+00
 0.135579304763306D+03 0.000000000000000D+00 0.000000000000000D+00 0.135579304763306D+03
 0.135793056786128D+03 0.000000000000000D+00 0.000000000000000D+00 -.135793056786128D+03
 0.132545987305001D+03 0.192505786812371D+02 -.410475249432073D+01 -.394462289459366D+02
 0.103317981506694D+03 0.227604727608572D+00 -.859913724597211D+01 0.642914643087233D+02
 0.332445674899800D+02 -.174086230387640D+02 0.135961535464183D+02 -.248452353627867D+02
 0.226382524775984D+01 -.206956037008165D+01 -.892263806125497D+00 -.213752022822790D+00
 0.134549549512070D+03 0.000000000000000D+00 0.000000000000000D+00 0.134549549512070D+03
 0.134549549512070D+03 0.000000000000000D+00 0.000000000000000D+00 -.134549549512070D+03
 0.132416195568371D+03 0.182317242517322D+02 -.454401821679008D+01 -.394462289459366D+02
 0.103348366958371D+03 -.567085753424572D+00 -.894175762252598D+01 0.642914643087233D+02
 0.000000000000000D+00 -.000000000000000D+00 -.000000000000000D+00 -.000000000000000D+00
 0.333345364973992D+02 -.176646384983076D+02 0.134857758393161D+02 -.248452353627867D+02
 0.135579304763306D+03 0.000000000000000D+00 0.000000000000000D+00 0.135579304763306D+03
 0.135793056786128D+03 0.000000000000000D+00 0.000000000000000D+00 -.135793056786128D+03
 0.132545987305001D+03 0.192505786812371D+02 -.410475249432073D+01 -.394462289459366D+02
 0.103317981506694D+03 0.227604727608572D+00 -.859913724597211D+01 0.642914643087233D+02
 0.226382524775984D+01 -.206956037008165D+01 -.892263806125497D+00 -.213752022822790D+00
 0.332445674899800D+02 -.174086230387640D+02 0.135961535464183D+02 -.248452353627867D+02
0.578271629165D-03 0.000000000000D+00 0.000000000000D+00 0.409957955392D-04 0.000000000000D+00  6 -3 4 25 24 21 21 2 0.13594765D+00 0.31518539D-02 0.13172710D+05 0.13172710D+05 0.13172710D+05 0.12543058D+01  1  2  2  2  6  2        4 0.382191206682D-01 0.100000000000D+01
0.644359543849D-04 0.305162322572D-04 -.222071531841D-05 0.409957955392D-04 0.000000000000D+00  6 -3 4 25 24 21 21 4 0.13594765D+00 0.31518539D-02 0.13172710D+05 0.13172710D+05 0.13172710D+05 0.12543058D+01  1  2  3  2  6  2        4 0.670014070329D-02 0.100000000000D+01
0.157079948499D-04 0.000000000000D+00 0.000000000000D+00 0.409957955392D-04 0.000000000000D+00  6 -3 4 25 24 21 21 4 0.13594765D+00 0.31518539D-02 0.13172710D+05 0.13172710D+05 0.13172710D+05 0.12543058D+01  1  2 15  2  6  2        4 0.163333928496D-02 0.100000000000D+01
-.167234879019D-02 0.000000000000D+00 0.000000000000D+00 0.409957955392D-04 0.000000000000D+00  6 -3 4 25 24 21 21 4 0.13594765D+00 0.31518539D-02 0.13172710D+05 0.13172710D+05 0.13172710D+05 0.12543058D+01  1  2  4  2  6  2        4 -.173893167351D+00 0.100000000000D+01
-.709090279115D-01 0.000000000000D+00 -.860858435641D-02 0.409957955392D-04 0.000000000000D+00  6 -3 4 25 24 21 21 4 0.13594765D+00 0.32060054D-02 0.13172710D+05 0.13172710D+05 0.13172710D+05 0.12543058D+01  1  2  5  2  6  2        4 -.717923163900D+01 0.100000000000D+01
0.710466147534D-01 0.000000000000D+00 0.860733544948D-02 0.409957955392D-04 0.000000000000D+00  6 -3 4 25 24 21 21 4 0.13594765D+00 0.31518539D-02 0.13172710D+05 0.13172710D+05 0.13172710D+05 0.12543058D+01  1  2  6  2  6  2        4 0.738752641883D+01 0.100000000000D+01
0.150598733029D-02 0.000000000000D+00 0.000000000000D+00 0.409957955392D-04 0.491454197343D-04  6 -3 4 25 24 21 21 4 0.13698811D+00 0.31809833D-02 0.13428236D+05 0.13428236D+05 0.13428236D+05 0.12533404D+01  1  2 11  2  6  2        4 0.151319708757D+00 0.100000000000D+01
-.219891829439D-03 0.000000000000D+00 -.268068993830D-04 0.409957955392D-04 0.000000000000D+00  6 -3 21 25 24 -4 21 4 0.13594765D+00 0.32060054D-02 0.13172710D+05 0.13172710D+05 0.13172710D+05 0.12543058D+01  3  4  5  5  5  2        4 -.646530175798D+00 0.100000000000D+01
0.330871028777D-05 0.000000000000D+00 0.000000000000D+00 0.409957955392D-04 0.206218371230D-06  6 -3 21 25 24 -4 21 4 0.13698811D+00 0.31809833D-02 0.13428236D+05 0.13428236D+05 0.13428236D+05 0.12533404D+01  3  4 11  5  5  2        4 0.965132222579D-02 0.100000000000D+01
  </mgrwgt>
  </event>
  <event>
  5     66 -.43135346E-03 0.20803605E+02 0.75467711E-02 0.11584254E+00
       -1 -1    0    0    0  501 0.00000000E+00 0.00000000E+00 0.15925369E+02 0.15928583E+02 0.32000000E+00 0.0000E+00 0.9000E+01
        2 -1    0    0  502    0 -.00000000E+00 -.00000000E+00 -.26148450E+04 0.26148450E+04 0.32000000E+00 0.0000E+00 0.9000E+01
       25  1    1    2    0    0 0.93470147E+02 0.97377209E+02 -.97407901E+03 0.99129910E+03 0.12500000E+03 0.0000E+00 0.9000E+01
       24  1    1    2    0    0 -.10817985E+03 -.11208472E+03 -.10718147E+04 0.10860570E+04 0.80419002E+02 0.0000E+00 0.9000E+01
       21  1    1    2  502  501 0.14709705E+02 0.14707514E+02 -.55302594E+03 0.55341751E+03 0.75000000E+00 0.0000E+00 0.9000E+01
#aMCatNLO 1  0  0  5  1 0.27197541D+01 0.00000000D+00  -5  6  0 0.00000000D+00 0.00000000D+00 0.00000000D+00 0.00000000D+00 0.00000000D+00
  <mgrwgt>
 -.5935533315D+00   20    2    0
 0.204075047373979D+03 0.000000000000000D+00 0.000000000000000D+00 0.204075047373979D+03
 0.204075047373979D+03 -.000000000000000D+00 -.000000000000000D+00 -.204075047373979D+03
 0.187015149747451D+03 0.934692382096536D+02 0.973763010647824D+02 0.336306963131827D+02
 0.175450965092207D+03 -.108180703946573D+03 -.112085575791987D+03 0.704160425038210D+01
 0.456839799082995D+02 0.147114657369198D+02 0.147092747272048D+02 -.406723005635649D+02
 0.000000000000000D+00 0.000000000000000D+00 0.000000000000000D+00 0.000000000000000D+00
 0.204075047373979D+03 0.000000000000000D+00 0.000000000000000D+00 0.204075047373979D+03
 0.204075047373979D+03 -.000000000000000D+00 -.000000000000000D+00 -.204075047373979D+03
 0.187102906446605D+03 0.936356319650146D+02 0.975426700387694D+02 0.331706730258389D+02
 0.175238399440783D+03 -.108024730399283D+03 -.111929625474168D+03 0.661038936610165D+01
 0.417241009666729D+02 0.108812981485902D+02 0.141918854817521D+02 -.376973253501019D+02
 0.408468789389761D+01 0.350780028567864D+01 0.195069953646155D+00 -.208373704183877D+01
0.202836143529D-03 0.000000000000D+00 0.000000000000D+00 0.410323998689D-04 0.000000000000D+00  6 -1 2 25 24 21 21 2 0.24503055D-02 0.40228410D+00 0.36115130D+05 0.36115130D+05 0.36115130D+05 0.12065323D+01  1  2  2  3  6  5       21 0.597744416918D-01 0.100000000000D+01
0.502611673215D-04 0.107039573686D-04 -.778944199134D-06 0.410323998689D-04 0.000000000000D+00  6 -1 2 25 24 21 21 4 0.24503055D-02 0.40228410D+00 0.36115130D+05 0.36115130D+05 0.36115130D+05 0.12065323D+01  1  2  3  3  6  5       21 0.215615855657D-01 0.100000000000D+01
0.326146490264D-05 0.000000000000D+00 0.000000000000D+00 0.410323998689D-04 0.000000000000D+00  6 -1 2 25 24 21 21 4 0.24503055D-02 0.40228410D+00 0.36115130D+05 0.36115130D+05 0.36115130D+05 0.12065323D+01  1  2 15  3  6  5       21 0.139913890416D-02 0.100000000000D+01
0.719539149272D-06 0.000000000000D+00 0.000000000000D+00 0.410233117942D-04 0.000000000000D+00  6 -1 2 25 24 21 21 4 0.24503055D-02 0.40228410D+00 0.36223469D+05 0.36223469D+05 0.36223469D+05 0.12063987D+01  1  2 12  3  6  5       21 0.308526593556D-03 0.100000000000D+01
0.538595604273D-06 0.000000000000D+00 0.000000000000D+00 0.410233117942D-04 0.000000000000D+00  6 -1 2 25 24 21 21 4 0.24503055D-02 0.40228410D+00 0.36223469D+05 0.36223469D+05 0.36223469D+05 0.12063987D+01  1  2 12  3  6  5       21 0.230940967227D-03 0.100000000000D+01
-.192468444400D-02 0.000000000000D+00 0.000000000000D+00 0.410323998689D-04 0.000000000000D+00  6 -1 2 25 24 21 21 4 0.24503055D-02 0.40228410D+00 0.36115130D+05 0.36115130D+05 0.36115130D+05 0.12065323D+01  1  2  4  3  6  5       21 -.825672194615D+00 0.100000000000D+01
-.246916242525D-02 0.000000000000D+00 0.000000000000D+00 0.410323998689D-04 0.000000000000D+00  6 -1 2 25 24 21 21 4 0.24503055D-02 0.40228410D+00 0.36115130D+05 0.36115130D+05 0.36115130D+05 0.12065323D+01  1  2  5  3  6  5       21 -.105924831724D+01 0.100000000000D+01
0.288895148969D-02 0.000000000000D+00 -.000000000000D+00 0.410323998689D-04 0.000000000000D+00  6 -1 2 25 24 21 21 4 0.24503055D-02 0.40228410D+00 0.36115130D+05 0.36115130D+05 0.36115130D+05 0.12065323D+01  1  2  6  3  6  5       21 0.123933402385D+01 0.100000000000D+01
0.750185568867D-07 0.000000000000D+00 0.000000000000D+00 0.410233117942D-04 0.000000000000D+00  6 -1 2 25 24 1 -1 4 0.24503055D-02 0.40228410D+00 0.36223469D+05 0.36223469D+05 0.36223469D+05 0.12063987D+01  1  2 12  6  6  5       21 0.321667275967D-04 0.100000000000D+01
0.686036346417D-07 0.000000000000D+00 0.000000000000D+00 0.410233117942D-04 0.000000000000D+00  6 -1 2 25 24 1 -1 4 0.24503055D-02 0.40228410D+00 0.36223469D+05 0.36223469D+05 0.36223469D+05 0.12063987D+01  1  2 12  6  6  5       21 0.294161140822D-04 0.100000000000D+01
-.183499261958D-04 0.000000000000D+00 0.000000000000D+00 0.410323998689D-04 0.000000000000D+00  6 -1 2 25 24 1 -1 4 0.24503055D-02 0.40228410D+00 0.36115130D+05 0.36115130D+05 0.36115130D+05 0.12065323D+01  1  2  5  6  6  5       21 -.787195214277D-02 0.100000000000D+01
0.750185568867D-07 0.000000000000D+00 0.000000000000D+00 0.410233117942D-04 0.000000000000D+00  6 -1 2 25 24 2 -2 4 0.24503055D-02 0.40228410D+00 0.36223469D+05 0.36223469D+05 0.36223469D+05 0.12063987D+01  1  2 12  7  6  5       21 0.321667275967D-04 0.100000000000D+01
0.686036346417D-07 0.000000000000D+00 0.000000000000D+00 0.410233117942D-04 0.000000000000D+00  6 -1 2 25 24 2 -2 4 0.24503055D-02 0.40228410D+00 0.36223469D+05 0.36223469D+05 0.36223469D+05 0.12063987D+01  1  2 12  7  6  5       21 0.294161140822D-04 0.100000000000D+01
-.183499261958D-04 0.000000000000D+00 0.000000000000D+00 0.410323998689D-04 0.000000000000D+00  6 -1 2 25 24 2 -2 4 0.24503055D-02 0.40228410D+00 0.36115130D+05 0.36115130D+05 0.36115130D+05 0.12065323D+01  1  2  5  7  6  5       21 -.787195214277D-02 0.100000000000D+01
0.750185568867D-07 0.000000000000D+00 0.000000000000D+00 0.410233117942D-04 0.000000000000D+00  6 -1 2 25 24 3 -3 4 0.24503055D-02 0.40228410D+00 0.36223469D+05 0.36223469D+05 0.36223469D+05 0.12063987D+01  1  2 12  8  6  5       21 0.321667275967D-04 0.100000000000D+01
0.750185568867D-07 0.000000000000D+00 0.000000000000D+00 0.410233117942D-04 0.000000000000D+00  6 -1 2 25 24 4 -4 4 0.24503055D-02 0.40228410D+00 0.36223469D+05 0.36223469D+05 0.36223469D+05 0.12063987D+01  1  2 12  8  6  5       21 0.321667275967D-04 0.100000000000D+01
0.686036346417D-07 0.000000000000D+00 0.000000000000D+00 0.410233117942D-04 0.000000000000D+00  6 -1 2 25 24 3 -3 4 0.24503055D-02 0.40228410D+00 0.36223469D+05 0.36223469D+05 0.36223469D+05 0.12063987D+01  1  2 12  8  6  5       21 0.294161140822D-04 0.100000000000D+01
0.686036346417D-07 0.000000000000D+00 0.000000000000D+00 0.410233117942D-04 0.000000000000D+00  6 -1 2 25 24 4 -4 4 0.24503055D-02 0.40228410D+00 0.36223469D+05 0.36223469D+05 0.36223469D+05 0.12063987D+01  1  2 12  8  6  5       21 0.294161140822D-04 0.100000000000D+01
-.183499261958D-04 0.000000000000D+00 0.000000000000D+00 0.410323998689D-04 0.000000000000D+00  6 -1 2 25 24 3 -3 4 0.24503055D-02 0.40228410D+00 0.36115130D+05 0.36115130D+05 0.36115130D+05 0.12065323D+01  1  2  5  8  6  5       21 -.787195214277D-02 0.100000000000D+01
-.183499261958D-04 0.000000000000D+00 0.000000000000D+00 0.410323998689D-04 0.000000000000D+00  6 -1 2 25 24 4 -4 4 0.24503055D-02 0.40228410D+00 0.36115130D+05 0.36115130D+05 0.36115130D+05 0.12065323D+01  1  2  5  8  6  5       21 -.787195214277D-02 0.100000000000D+01
  </mgrwgt>
  </event>
  <event>
  5     66 0.43135346E-03 0.47459553E+02 0.75467711E-02 0.11114172E+00
       -1 -1    0    0    0  501 0.00000000E+00 0.00000000E+00 0.10992805E+03 0.10992852E+03 0.32000000E+00 0.0000E+00 0.9000E+01
        2 -1    0    0  502    0 -.00000000E+00 -.00000000E+00 -.87684233E+03 0.87684239E+03 0.32000000E+00 0.0000E+00 0.9000E+01
       25  1    1    2    0    0 -.34981139E+02 -.17563253E+03 -.26342999E+03 0.34218537E+03 0.12500000E+03 0.0000E+00 0.9000E+01
       24  1    1    2    0    0 0.49461675E+02 0.22082838E+03 -.53580071E+03 0.58716373E+03 0.80419002E+02 0.0000E+00 0.9000E+01
       21  1    1    2  502  501 -.14480536E+02 -.45195854E+02 0.32316416E+02 0.57421811E+02 0.75000000E+00 0.0000E+00 0.9000E+01
#aMCatNLO 1  0  0  5  2 0.41980187D+00 0.00000000D+00  -5  6  0 0.00000000D+00 0.00000000D+00 0.00000000D+00 0.00000000D+00 0.00000000D+00
  <mgrwgt>
 0.7410578540D+00   15    2    0
 0.310467111134842D+03 0.000000000000000D+00 0.000000000000000D+00 0.310467111134842D+03
 0.310467111134842D+03 -.000000000000000D+00 -.000000000000000D+00 -.310467111134842D+03
 0.218429250478065D+03 -.349810561343352D+02 -.175632268722588D+03 0.399616810108971D+01
 0.271338401522291D+03 0.494617784255743D+02 0.220828705047347D+03 -.126275602110593D+03
 0.131166570269328D+03 -.144807222912390D+02 -.451964363247587D+02 0.122279434009504D+03
 0.000000000000000D+00 -.000000000000000D+00 0.000000000000000D+00 0.000000000000000D+00
 0.310467111134842D+03 0.000000000000000D+00 0.000000000000000D+00 0.310467111134842D+03
 0.310467111134842D+03 -.000000000000000D+00 -.000000000000000D+00 -.310467111134842D+03
 0.218429794648236D+03 -.349812488096014D+02 -.175632870090063D+03 0.399779510711990D+01
 0.271336809344951D+03 0.494615390804312D+02 0.220827958016411D+03 -.126273581010537D+03
 0.109983981165432D+03 -.118024120945160D+02 -.376816313280099D+02 0.102651224260645D+03
 0.211836371110643D+02 -.267787817631385D+01 -.751345659833846D+01 0.196245616427722D+02
0.385157693452D-04 0.000000000000D+00 0.000000000000D+00 0.717892290428D-05 0.000000000000D+00  6 -1 2 25 24 21 21 2 0.16912048D-01 0.13489886D+00 0.64013244D+05 0.64013244D+05 0.64013244D+05 0.11817992D+01  1  2  2  3  6  5       21 0.512152531177D-02 0.100000000000D+01
0.451478033587D-05 0.203253298904D-05 -.147910695721D-06 0.717892290428D-05 0.000000000000D+00  6 -1 2 25 24 21 21 4 0.16912048D-01 0.13489886D+00 0.64013244D+05 0.64013244D+05 0.64013244D+05 0.11817992D+01  1  2  3  3  6  5       21 0.838464615171D-03 0.100000000000D+01
0.466391748431D-06 0.000000000000D+00 0.000000000000D+00 0.717892290428D-05 0.000000000000D+00  6 -1 2 25 24 21 21 4 0.16912048D-01 0.13489886D+00 0.64013244D+05 0.64013244D+05 0.64013244D+05 0.11817992D+01  1  2 15  3  6  5       21 0.866161692873D-04 0.100000000000D+01
-.297346699058D+00 0.000000000000D+00 0.000000000000D+00 0.717892290428D-05 0.000000000000D+00  6 -1 2 25 24 21 21 4 0.16912048D-01 0.13489886D+00 0.64013244D+05 0.64013244D+05 0.64013244D+05 0.11817992D+01  1  2  4  3  6  5       21 -.552218861274D+02 0.100000000000D+01
-.263011814928D+00 0.000000000000D+00 0.000000000000D+00 0.717892290428D-05 0.000000000000D+00  6 -1 2 25 24 21 21 4 0.16912048D-01 0.13489886D+00 0.64013244D+05 0.64013244D+05 0.64013244D+05 0.11817992D+01  1  2  5  3  6  5       21 -.488453665037D+02 0.100000000000D+01
0.311468862642D+00 0.000000000000D+00 -.000000000000D+00 0.717892290428D-05 0.000000000000D+00  6 -1 2 25 24 21 21 4 0.16912048D-01 0.13489886D+00 0.64013244D+05 0.64013244D+05 0.64013244D+05 0.11817992D+01  1  2  6  3  6  5       21 0.578445905724D+02 0.100000000000D+01
0.253050141953D+00 0.000000000000D+00 0.000000000000D+00 0.717892290428D-05 0.246850431459D-03  6 -1 2 25 24 21 21 4 0.16912048D-01 0.13489886D+00 0.64014096D+05 0.64014096D+05 0.64014096D+05 0.11817986D+01  1  2 11  3  6  5       21 0.469952379315D+02 0.100000000000D+01
-.272656923154D-02 0.000000000000D+00 0.000000000000D+00 0.717892290428D-05 0.000000000000D+00  6 -1 2 25 24 1 -1 4 0.16912048D-01 0.13489886D+00 0.64013244D+05 0.64013244D+05 0.64013244D+05 0.11817992D+01  1  2  5  6  6  5       21 -.506366124460D+00 0.100000000000D+01
0.268197709443D-02 0.000000000000D+00 0.000000000000D+00 0.717892290428D-05 0.506320552734D-05  6 -1 2 25 24 1 -1 4 0.16912048D-01 0.13489886D+00 0.64014096D+05 0.64014096D+05 0.64014096D+05 0.11817986D+01  1  2 11  6  6  5       21 0.498083702727D+00 0.100000000000D+01
-.272656923154D-02 0.000000000000D+00 0.000000000000D+00 0.717892290428D-05 0.000000000000D+00  6 -1 2 25 24 2 -2 4 0.16912048D-01 0.13489886D+00 0.64013244D+05 0.64013244D+05 0.64013244D+05 0.11817992D+01  1  2  5  7  6  5       21 -.506366124460D+00 0.100000000000D+01
0.267396241027D-02 0.000000000000D+00 0.000000000000D+00 0.717892290428D-05 0.504782623167D-05  6 -1 2 25 24 2 -2 4 0.16912048D-01 0.13489886D+00 0.64014096D+05 0.64014096D+05 0.64014096D+05 0.11817986D+01  1  2 11  7  6  5       21 0.496595254682D+00 0.100000000000D+01
-.272656923154D-02 0.000000000000D+00 0.000000000000D+00 0.717892290428D-05 0.000000000000D+00  6 -1 2 25 24 3 -3 4 0.16912048D-01 0.13489886D+00 0.64013244D+05 0.64013244D+05 0.64013244D+05 0.11817992D+01  1  2  5  8  6  5       21 -.506366124460D+00 0.100000000000D+01
-.272656923154D-02 0.000000000000D+00 0.000000000000D+00 0.717892290428D-05 0.000000000000D+00  6 -1 2 25 24 4 -4 4 0.16912048D-01 0.13489886D+00 0.64013244D+05 0.64013244D+05 0.64013244D+05 0.11817992D+01  1  2  5  8  6  5       21 -.506366124460D+00 0.100000000000D+01
0.267404427280D-02 0.000000000000D+00 0.000000000000D+00 0.717892290428D-05 0.504798061308D-05  6 -1 2 25 24 3 -3 4 0.16912048D-01 0.13489886D+00 0.64014096D+05 0.64014096D+05 0.64014096D+05 0.11817986D+01  1  2 11  8  6  5       21 0.496610457792D+00 0.100000000000D+01
0.267404427280D-02 0.000000000000D+00 0.000000000000D+00 0.717892290428D-05 0.504798061308D-05  6 -1 2 25 24 4 -4 4 0.16912048D-01 0.13489886D+00 0.64014096D+05 0.64014096D+05 0.64014096D+05 0.11817986D+01  1  2 11  8  6  5       21 0.496610457792D+00 0.100000000000D+01
  </mgrwgt>
  </event>
  <event>
  6     66 0.43135346E-03 0.18606136E+02 0.75467711E-02 0.12150511E+00
       21 -1    0    0  503  501 0.00000000E+00 0.00000000E+00 0.61289159E+03 0.61289205E+03 0.75000000E+00 0.0000E+00 0.9000E+01
        2 -1    0    0  502    0 0.00000000E+00 0.00000000E+00 -.95446945E+02 0.95447482E+02 0.32000000E+00 0.0000E+00 0.9000E+01
       25  1    1    2    0    0 0.43247724E+02 0.41476248E+02 -.10767935E+02 0.13903810E+03 0.12500000E+03 0.0000E+00 0.9000E+01
       24  1    1    2    0    0 -.10646899E+02 -.48301660E+02 0.10573580E+03 0.14175219E+03 0.80419002E+02 0.0000E+00 0.9000E+01
        1  1    1    2  503    0 -.25702547E+02 -.89357193E+01 0.38855220E+03 0.38950402E+03 0.32000000E+00 0.0000E+00 0.9000E+01
       21  1    1    2  502  501 -.68982781E+01 0.15761131E+02 0.33924581E+02 0.38045225E+02 0.75000000E+00 0.0000E+00 0.9000E+01
#aMCatNLO 2  0  0  1  5 0.94954415D+01 0.00000000D+00  -5  6  0 0.00000000D+00 0.00000000D+00 0.00000000D+00 0.00000000D+00 0.00000000D+00
  <mgrwgt>
 0.8233756000D-01    1    2    0
 0.145174337069538D+03 0.000000000000000D+00 0.000000000000000D+00 0.145174337069538D+03
 0.145174337069538D+03 0.000000000000000D+00 0.000000000000000D+00 -.145174337069538D+03
 0.152356352378788D+03 0.295970893375142D+02 0.367267623604557D+02 -.732298800998281D+02
 0.111149658458500D+03 -.203351401598620D+02 -.516725785687646D+02 0.529476847445124D+02
 0.000000000000000D+00 -.000000000000000D+00 -.000000000000000D+00 0.000000000000000D+00
 0.268426633017879D+02 -.926194917765224D+01 0.149458162083089D+02 0.202821953553157D+02
 0.399197975363014D+03 0.000000000000000D+00 0.000000000000000D+00 0.399197975363014D+03
 0.146541079964850D+03 0.000000000000000D+00 0.000000000000000D+00 -.146541079964850D+03
 0.156774319570427D+03 0.432497685073324D+02 0.414732378938185D+02 -.732298800998281D+02
 0.108246337114411D+03 -.106455706331219D+02 -.483039134067529D+02 0.529476847445124D+02
 0.254118033170117D+03 -.257025467579689D+02 -.893571934228913D+01 0.252656895398164D+03
 0.266003654729089D+02 -.690165111624161D+01 0.157663948552235D+02 0.202821953553157D+02
0.756404701040D-04 0.000000000000D+00 0.000000000000D+00 0.562434381502D-04 0.124817037532D-06  6 21 2 25 24 1 21 4 0.94291026D-01 0.14684212D-01 0.19245400D+05 0.19245400D+05 0.19245400D+05 0.12356692D+01  1  2  1  4  5  1       -1 0.823375600035D-01 0.100000000000D+01
  </mgrwgt>
  </event>
  <event>
  5     66 0.43135346E-03 0.23373515E+02 0.75467711E-02 0.12249609E+00
       -1 -1    0    0    0  501 0.00000000E+00 0.00000000E+00 0.45763589E+02 0.45764708E+02 0.32000000E+00 0.0000E+00 0.9000E+01
        2 -1    0    0  502    0 -.00000000E+00 -.00000000E+00 -.47681060E+03 0.47681071E+03 0.32000000E+00 0.0000E+00 0.9000E+01
       25  1    1    2    0    0 -.10233936E+02 0.77697529E+01 -.79046393E+02 0.14845348E+03 0.12500000E+03 0.0000E+00 0.9000E+01
       24  1    1    2    0    0 0.15724701E+02 -.30487536E+02 -.17542680E+03 0.19600646E+03 0.80419002E+02 0.0000E+00 0.9000E+01
       21  1    1    2  502  501 -.54907649E+01 0.22717783E+02 -.17657382E+03 0.17811548E+03 0.75000000E+00 0.0000E+00 0.9000E+01
#aMCatNLO 1  0  0  5  1 0.21207983D+02 0.00000000D+00  -5  6  0 0.00000000D+00 0.00000000D+00 0.00000000D+00 0.00000000D+00 0.00000000D+00
  <mgrwgt>
 0.9397692124D+00    9    2    0
 0.147718938309275D+03 0.000000000000000D+00 0.000000000000000D+00 0.147718938309275D+03
 0.147718938309275D+03 -.000000000000000D+00 -.000000000000000D+00 -.147718938309275D+03
 0.147258537066538D+03 -.102337029120208D+02 0.776878715007699D+01 0.767788643436602D+02
 0.907497699769847D+02 0.157248450825771D+02 -.304881307361570D+02 -.243209359986216D+02
 0.574295695750266D+02 -.549114217055632D+01 0.227193435860800D+02 -.524579283450386D+02
 0.000000000000000D+00 0.000000000000000D+00 0.000000000000000D+00 0.000000000000000D+00
 0.147718938309275D+03 0.000000000000000D+00 0.000000000000000D+00 0.147718938309275D+03
 0.147718938309275D+03 -.000000000000000D+00 -.000000000000000D+00 -.147718938309275D+03
 0.142116484794462D+03 -.114219596922660D+02 0.126851439334865D+02 0.654272207151552D+02
 0.918295391490343D+02 0.149751221085407D+02 -.273861870398448D+02 -.314831825457088D+02
 0.400448086917067D+02 -.198749539237715D+02 0.247944721915626D+02 -.243681566480763D+02
 0.214470439833456D+02 0.163217915074968D+02 -.100934290852042D+02 -.957588152137028D+01
0.543589095832D-03 0.000000000000D+00 0.000000000000D+00 0.428095962339D-04 0.000000000000D+00  6 -1 2 25 24 21 21 2 0.70406465D-02 0.73355572D-01 0.13978588D+05 0.13978588D+05 0.13978588D+05 0.12513293D+01  1  2  2  3  6  5       21 0.632351564851D+00 0.100000000000D+01
0.527538441147D-04 0.286859846900D-04 -.208752525829D-05 0.428095962339D-04 0.000000000000D+00  6 -1 2 25 24 21 21 4 0.70406465D-02 0.73355572D-01 0.13978588D+05 0.13978588D+05 0.13978588D+05 0.12513293D+01  1  2  3  3  6  5       21 0.960915568890D-01 0.100000000000D+01
0.287712899400D-04 0.000000000000D+00 0.000000000000D+00 0.428095962339D-04 0.000000000000D+00  6 -1 2 25 24 21 21 4 0.70406465D-02 0.73355572D-01 0.13978588D+05 0.13978588D+05 0.13978588D+05 0.12513293D+01  1  2 15  3  6  5       21 0.524071390519D-01 0.100000000000D+01
0.278756914920D-03 0.000000000000D+00 0.000000000000D+00 0.420852539265D-04 0.000000000000D+00  6 -1 2 25 24 21 21 4 0.70406465D-02 0.73355572D-01 0.17343796D+05 0.17343796D+05 0.17343796D+05 0.12406979D+01  1  2 12  3  6  5       21 0.494064407836D+00 0.100000000000D+01
-.205372682031D-03 0.000000000000D+00 0.000000000000D+00 0.428095962339D-04 0.000000000000D+00  6 -1 2 25 24 21 21 4 0.70406465D-02 0.73355572D-01 0.13978588D+05 0.13978588D+05 0.13978588D+05 0.12513293D+01  1  2  4  3  6  5       21 -.374088013680D+00 0.100000000000D+01
0.549296154375D-05 0.000000000000D+00 0.000000000000D+00 0.420852539265D-04 0.000000000000D+00  6 -1 2 25 24 1 -1 4 0.70406465D-02 0.73355572D-01 0.17343796D+05 0.17343796D+05 0.17343796D+05 0.12406979D+01  1  2 12  6  6  5       21 0.973563935859D-02 0.100000000000D+01
0.549296154375D-05 0.000000000000D+00 0.000000000000D+00 0.420852539265D-04 0.000000000000D+00  6 -1 2 25 24 2 -2 4 0.70406465D-02 0.73355572D-01 0.17343796D+05 0.17343796D+05 0.17343796D+05 0.12406979D+01  1  2 12  7  6  5       21 0.973563935859D-02 0.100000000000D+01
0.549296154375D-05 0.000000000000D+00 0.000000000000D+00 0.420852539265D-04 0.000000000000D+00  6 -1 2 25 24 3 -3 4 0.70406465D-02 0.73355572D-01 0.17343796D+05 0.17343796D+05 0.17343796D+05 0.12406979D+01  1  2 12  8  6  5       21 0.973563935859D-02 0.100000000000D+01
0.549296154375D-05 0.000000000000D+00 0.000000000000D+00 0.420852539265D-04 0.000000000000D+00  6 -1 2 25 24 4 -4 4 0.70406465D-02 0.73355572D-01 0.17343796D+05 0.17343796D+05 0.17343796D+05 0.12406979D+01  1  2 12  8  6  5       21 0.973563935859D-02 0.100000000000D+01
  </mgrwgt>
  </event>
  <event>
  5     66 0.43135346E-03 0.33183623E+02 0.75467711E-02 0.11650232E+00
       -1 -1    0    0    0  501 0.00000000E+00 0.00000000E+00 0.10840635E+03 0.10840683E+03 0.32000000E+00 0.0000E+00 0.9000E+01
        2 -1    0    0  502    0 -.00000000E+00 -.00000000E+00 -.31954789E+03 0.31954805E+03 0.32000000E+00 0.0000E+00 0.9000E+01
       25  1    1    2    0    0 -.12682828E+03 -.22803236E+02 -.11298825E+03 0.21212436E+03 0.12500000E+03 0.0000E+00 0.9000E+01
       24  1    1    2    0    0 0.11332207E+03 0.53108250E+02 -.49193796E+02 0.15668320E+03 0.80419002E+02 0.0000E+00 0.9000E+01
       21  1    1    2  502  501 0.13506205E+02 -.30305014E+02 -.48959485E+02 0.59147318E+02 0.75000000E+00 0.0000E+00 0.9000E+01
#aMCatNLO 1  0  0  5  1 0.11861510D+02 0.00000000D+00  -5  6  0 0.00000000D+00 0.00000000D+00 0.00000000D+00 0.00000000D+00 0.00000000D+00
  <mgrwgt>
 0.4447108410D+00   14    2    0
 0.186121350488445D+03 0.000000000000000D+00 0.000000000000000D+00 0.186121350488445D+03
 0.186121350488445D+03 -.000000000000000D+00 -.000000000000000D+00 -.186121350488445D+03
 0.179784000112645D+03 -.126829411947020D+03 -.228006917216999D+02 -.957681673046149D+01
 0.152230320789346D+03 0.113321112791869D+03 0.531104048039468D+02 0.323181823503465D+02
 0.402283800748982D+02 0.135082991551509D+02 -.303097130822469D+02 -.227413656198850D+02
 0.000000000000000D+00 -.000000000000000D+00 0.000000000000000D+00 0.000000000000000D+00
 0.186121350488445D+03 0.000000000000000D+00 0.000000000000000D+00 0.186121350488445D+03
 0.186121350488445D+03 -.000000000000000D+00 -.000000000000000D+00 -.186121350488445D+03
 0.179137869763367D+03 -.124466245152669D+03 -.281031288886281D+02 -.135552332190099D+02
 0.151553665073549D+03 0.115321247886157D+03 0.486225325605712D+02 0.289509335986017D+02
 0.296896435718388D+02 0.203005776455057D+02 -.176469808049457D+02 -.125676390444466D+02
 0.118615225681353D+02 -.111555803789938D+02 -.287242286699734D+01 -.282806133514513D+01
0.491464677836D-03 0.000000000000D+00 0.000000000000D+00 0.164539243764D-04 0.000000000000D+00  6 -1 2 25 24 21 21 2 0.16677949D-01 0.49161262D-01 0.32665610D+05 0.32665610D+05 0.32665610D+05 0.12110374D+01  1  2  2  3  6  5       21 0.222970683158D+00 0.100000000000D+01
0.765714199122D-04 0.259353035816D-04 -.188735376851D-05 0.164539243764D-04 0.000000000000D+00  6 -1 2 25 24 21 21 4 0.16677949D-01 0.49161262D-01 0.32665610D+05 0.32665610D+05 0.32665610D+05 0.12110374D+01  1  2  3  3  6  5       21 0.509491841570D-01 0.100000000000D+01
-.159052380603D-05 0.000000000000D+00 0.000000000000D+00 0.164539243764D-04 0.000000000000D+00  6 -1 2 25 24 21 21 4 0.16677949D-01 0.49161262D-01 0.32665610D+05 0.32665610D+05 0.32665610D+05 0.12110374D+01  1  2 15  3  6  5       21 -.105830465717D-02 0.100000000000D+01
0.286574052963D-03 0.000000000000D+00 0.000000000000D+00 0.164247530545D-04 0.000000000000D+00  6 -1 2 25 24 21 21 4 0.16677949D-01 0.49161262D-01 0.33453322D+05 0.33453322D+05 0.33453322D+05 0.12099633D+01  1  2 12  3  6  5       21 0.190089549717D+00 0.100000000000D+01
0.204860839609D-03 0.000000000000D+00 0.000000000000D+00 0.164247530545D-04 0.000000000000D+00  6 -1 2 25 24 21 21 4 0.16677949D-01 0.49161262D-01 0.33453322D+05 0.33453322D+05 0.33453322D+05 0.12099633D+01  1  2 12  3  6  5       21 0.135887755201D+00 0.100000000000D+01
-.270394214649D-03 0.000000000000D+00 0.000000000000D+00 0.164539243764D-04 0.000000000000D+00  6 -1 2 25 24 21 21 4 0.16677949D-01 0.49161262D-01 0.32665610D+05 0.32665610D+05 0.32665610D+05 0.12110374D+01  1  2  4  3  6  5       21 -.179915230159D+00 0.100000000000D+01
0.535809049106D-05 0.000000000000D+00 0.000000000000D+00 0.164247530545D-04 0.000000000000D+00  6 -1 2 25 24 1 -1 4 0.16677949D-01 0.49161262D-01 0.33453322D+05 0.33453322D+05 0.33453322D+05 0.12099633D+01  1  2 12  6  6  5       21 0.355411454127D-02 0.100000000000D+01
0.436093859627D-05 0.000000000000D+00 0.000000000000D+00 0.164247530545D-04 0.000000000000D+00  6 -1 2 25 24 1 -1 4 0.16677949D-01 0.49161262D-01 0.33453322D+05 0.33453322D+05 0.33453322D+05 0.12099633D+01  1  2 12  6  6  5       21 0.289268635989D-02 0.100000000000D+01
0.535809049106D-05 0.000000000000D+00 0.000000000000D+00 0.164247530545D-04 0.000000000000D+00  6 -1 2 25 24 2 -2 4 0.16677949D-01 0.49161262D-01 0.33453322D+05 0.33453322D+05 0.33453322D+05 0.12099633D+01  1  2 12  7  6  5       21 0.355411454127D-02 0.100000000000D+01
0.436093859627D-05 0.000000000000D+00 0.000000000000D+00 0.164247530545D-04 0.000000000000D+00  6 -1 2 25 24 2 -2 4 0.16677949D-01 0.49161262D-01 0.33453322D+05 0.33453322D+05 0.33453322D+05 0.12099633D+01  1  2 12  7  6  5       21 0.289268635989D-02 0.100000000000D+01
0.535809049106D-05 0.000000000000D+00 0.000000000000D+00 0.164247530545D-04 0.000000000000D+00  6 -1 2 25 24 3 -3 4 0.16677949D-01 0.49161262D-01 0.33453322D+05 0.33453322D+05 0.33453322D+05 0.12099633D+01  1  2 12  8  6  5       21 0.355411454127D-02 0.100000000000D+01
0.535809049106D-05 0.000000000000D+00 0.000000000000D+00 0.164247530545D-04 0.000000000000D+00  6 -1 2 25 24 4 -4 4 0.16677949D-01 0.49161262D-01 0.33453322D+05 0.33453322D+05 0.33453322D+05 0.12099633D+01  1  2 12  8  6  5       21 0.355411454127D-02 0.100000000000D+01
0.436093859627D-05 0.000000000000D+00 0.000000000000D+00 0.164247530545D-04 0.000000000000D+00  6 -1 2 25 24 3 -3 4 0.16677949D-01 0.49161262D-01 0.33453322D+05 0.33453322D+05 0.33453322D+05 0.12099633D+01  1  2 12  8  6  5       21 0.289268635989D-02 0.100000000000D+01
0.436093859627D-05 0.000000000000D+00 0.000000000000D+00 0.164247530545D-04 0.000000000000D+00  6 -1 2 25 24 4 -4 4 0.16677949D-01 0.49161262D-01 0.33453322D+05 0.33453322D+05 0.33453322D+05 0.12099633D+01  1  2 12  8  6  5       21 0.289268635989D-02 0.100000000000D+01
  </mgrwgt>
  </event>
  <event>
  6     66 -.43135346E-03 0.84311097E+01 0.75467711E-02 0.11996210E+00
       -1 -1    0    0    0  501 0.00000000E+00 0.00000000E+00 0.30756292E+02 0.30757956E+02 0.32000000E+00 0.0000E+00 0.9000E+01
        2 -1    0    0  502    0 -.00000000E+00 -.00000000E+00 -.10777195E+04 0.10777195E+04 0.32000000E+00 0.0000E+00 0.9000E+01
       25  1    1    2    0    0 -.89347459E+02 0.47158851E+02 -.33944209E+03 0.37557005E+03 0.12500000E+03 0.0000E+00 0.9000E+01
       24  1    1    2    0    0 0.70981954E+02 -.52807102E+02 -.29093409E+03 0.31454234E+03 0.80419002E+02 0.0000E+00 0.9000E+01
       21  1    1    2  503  501 0.93621038E+01 0.97734785E+01 -.38532522E+03 0.38556355E+03 0.75000000E+00 0.0000E+00 0.9000E+01
       21  1    1    2  502  503 0.90034014E+01 -.41252280E+01 -.31261798E+02 0.32801544E+02 0.75000000E+00 0.0000E+00 0.9000E+01
#aMCatNLO 2  0  0  5  1 0.96562902D+01 0.00000000D+00  -5  6  0 0.00000000D+00 0.00000000D+00 0.00000000D+00 0.00000000D+00 0.00000000D+00
  <mgrwgt>
 -.6200577615D+00    2    2    0
 0.182064834385118D+03 0.000000000000000D+00 0.000000000000000D+00 0.182064834385118D+03
 0.182064834385118D+03 -.000000000000000D+00 -.000000000000000D+00 -.182064834385118D+03
 0.168758693996993D+03 -.903240255511159D+02 0.468585113516659D+02 0.500034710966947D+02
 0.121113601897289D+03 0.702783871949816D+02 -.530234812595002D+02 0.212308110669442D+02
 0.742573728759532D+02 0.200456383561343D+02 0.616496990783429D+01 -.712342821636389D+02
 0.000000000000000D+00 0.000000000000000D+00 0.000000000000000D+00 0.000000000000000D+00
 0.182064834385118D+03 0.000000000000000D+00 0.000000000000000D+00 0.182064834385118D+03
 0.182064834385118D+03 -.000000000000000D+00 -.000000000000000D+00 -.182064834385118D+03
 0.167306217684654D+03 -.893351979613725D+02 0.471626220128731D+02 0.464895683569787D+02
 0.121015994846614D+03 0.709908222550887D+02 -.528043742084392D+02 0.186990982228175D+02
 0.657072932860259D+02 0.919607688335546D+01 0.983172679159132D+01 -.643134333497034D+02
 0.101001629529422D+02 0.914829882292827D+01 -.418997459602519D+01 -.875233230092834D+00
-.328451083492D-03 0.000000000000D+00 0.000000000000D+00 0.514758532790D-04 0.000000000000D+00  6 -1 2 25 24 21 21 4 0.47318689D-02 0.16580313D+00 0.23074276D+05 0.23074276D+05 0.23074276D+05 0.12270476D+01  1  2 13  3  6  5       21 -.374720683001D+00 0.100000000000D+01
-.214573749172D-03 0.000000000000D+00 0.000000000000D+00 0.515388409482D-04 0.000000000000D+00  6 -1 2 25 24 21 21 4 0.47318689D-02 0.16580313D+00 0.22709127D+05 0.22709127D+05 0.22709127D+05 0.12277981D+01  1  2  8  3  6  5       21 -.245337078483D+00 0.100000000000D+01
  </mgrwgt>
  </event>
  <event>
  5     66 0.43135346E-03 0.59075111E+02 0.75467711E-02 0.11651646E+00
       -1 -1    0    0    0  501 0.00000000E+00 0.00000000E+00 0.97553240E+01 0.97605710E+01 0.32000000E+00 0.0000E+00 0.9000E+01
        2 -1    0    0  502    0 0.00000000E+00 0.00000000E+00 -.26876165E+04 0.26876165E+04 0.32000000E+00 0.0000E+00 0.9000E+01
       25  1    1    2    0    0 -.24670646E+02 0.31224795E+02 -.85822886E+03 0.86819664E+03 0.12500000E+03 0.0000E+00 0.9000E+01
       24  1    1    2    0    0 0.25956162E+02 0.27834915E+02 -.47559601E+03 0.48384635E+03 0.80419002E+02 0.0000E+00 0.9000E+01
       21  1    1    2  502  501 -.12855156E+01 -.59059710E+02 -.13440363E+04 0.13453341E+04 0.75000000E+00 0.0000E+00 0.9000E+01
#aMCatNLO 1  0  0  1  5 0.84520647D+01 0.00000000D+00  -5  6  0 0.00000000D+00 0.00000000D+00 0.00000000D+00 0.00000000D+00 0.00000000D+00
  <mgrwgt>
 0.7616829370D-01    4    2    0
 0.161943421332808D+03 0.000000000000000D+00 0.000000000000000D+00 0.161943421332808D+03
 0.161943421332808D+03 0.000000000000000D+00 0.000000000000000D+00 -.161943421332808D+03
 0.134726413397677D+03 -.246706282938680D+02 0.312256146402454D+02 0.307006116702341D+02
 0.973676592047564D+02 0.259561746711298D+02 0.278355075702913D+02 0.395563726773462D+02
 0.917927700631819D+02 -.128554637726178D+01 -.590611222105367D+02 -.702569843475804D+02
 0.000000000000000D+00 -.000000000000000D+00 0.000000000000000D+00 -.000000000000000D+00
 0.197521572945203D+03 0.000000000000000D+00 0.000000000000000D+00 0.197521572945203D+03
 0.208703996535316D+03 0.000000000000000D+00 0.000000000000000D+00 -.208703996535316D+03
 0.129423315229058D+03 -.108408604024314D+01 0.134793073045699D+02 0.307006116702341D+02
 0.100736557332189D+03 0.436453598853712D+02 0.145263199007265D+02 0.395563726773462D+02
 0.101917763392763D+03 0.160113166787180D+02 -.720751301322503D+02 -.702569843475804D+02
 0.741479335265093D+02 -.585725905238460D+02 0.440695029269540D+02 -.111824235901128D+02
0.169568899863D-03 0.000000000000D+00 0.000000000000D+00 0.930469769300D-05 0.000000000000D+00  6 -1 2 25 24 21 21 2 0.15012242D-02 0.41347986D+00 0.19491998D+05 0.19491998D+05 0.19491998D+05 0.12350581D+01  1  2  2  1  6  1       -1 0.976014507362D-01 0.100000000000D+01
-.464020733404D-05 0.894839668907D-05 -.651189223989D-06 0.930469769300D-05 0.000000000000D+00  6 -1 2 25 24 21 21 4 0.15012242D-02 0.41347986D+00 0.19491998D+05 0.19491998D+05 0.19491998D+05 0.12350581D+01  1  2  3  1  6  1       -1 -.407401110379D-02 0.100000000000D+01
0.594400825192D-05 0.000000000000D+00 0.000000000000D+00 0.930469769300D-05 0.000000000000D+00  6 -1 2 25 24 21 21 4 0.15012242D-02 0.41347986D+00 0.19491998D+05 0.19491998D+05 0.19491998D+05 0.12350581D+01  1  2 15  1  6  1       -1 0.521872275872D-02 0.100000000000D+01
-.257156863837D-04 0.000000000000D+00 0.000000000000D+00 0.930469769300D-05 0.000000000000D+00  6 -1 2 25 24 21 21 4 0.15012242D-02 0.41347986D+00 0.19491998D+05 0.19491998D+05 0.19491998D+05 0.12350581D+01  1  2  4  1  6  1       -1 -.225778686871D-01 0.100000000000D+01
  </mgrwgt>
  </event>
  <event>
  5     66 0.43135346E-03 0.32542167E+02 0.75467711E-02 0.12136656E+00
       -1 -1    0    0    0  501 0.00000000E+00 0.00000000E+00 0.12130365E+02 0.12134585E+02 0.32000000E+00 0.0000E+00 0.9000E+01
        2 -1    0    0  502    0 0.00000000E+00 0.00000000E+00 -.12876340E+04 0.12876340E+04 0.32000000E+00 0.0000E+00 0.9000E+01
       25  1    1    2    0    0 0.97150594E+01 -.88180178E+01 -.79006074E+03 0.79999569E+03 0.12500000E+03 0.0000E+00 0.9000E+01
       24  1    1    2    0    0 0.13365804E+02 -.14112152E+02 -.28730483E+03 0.29898007E+03 0.80419002E+02 0.0000E+00 0.9000E+01
       21  1    1    2  502  501 -.23080863E+02 0.22930170E+02 -.19813802E+03 0.20079282E+03 0.75000000E+00 0.0000E+00 0.9000E+01
#aMCatNLO 1  0  0  2  1 0.35817465D+02 0.00000000D+00  -5  6  0 0.00000000D+00 0.00000000D+00 0.00000000D+00 0.00000000D+00 0.00000000D+00
  <mgrwgt>
 0.3052392606D+00    4    2    0
 0.124988951268512D+03 0.000000000000000D+00 0.000000000000000D+00 0.124988951268512D+03
 0.124988951268512D+03 0.000000000000000D+00 0.000000000000000D+00 -.124988951268512D+03
 0.128347465171751D+03 0.971811443073790D+01 -.882105288008497D+01 -.259965208059017D+02
 0.885948736904311D+02 0.133679127491959D+02 -.141142474772976D+02 0.316847379148447D+02
 0.330355636748409D+02 -.230860271799338D+02 0.229353003573826D+02 -.568821710894302D+01
 0.000000000000000D+00 -.000000000000000D+00 -.000000000000000D+00 0.000000000000000D+00
 0.147848381998166D+03 0.000000000000000D+00 0.000000000000000D+00 0.147848381998166D+03
 0.141125443963583D+03 0.000000000000000D+00 0.000000000000000D+00 -.141125443963583D+03
 0.130619164428767D+03 0.273661630888365D+02 -.341176491756448D+01 -.259965208059017D+02
 0.907383235196118D+02 0.255891050906855D+02 -.103683404990702D+02 0.316847379148447D+02
 0.311733865455677D+02 -.187103179253352D+02 0.242764951748350D+02 -.568821710894302D+01
 0.364429514678026D+02 -.342449502541868D+02 -.104963897582003D+02 0.672293803458257D+01
0.142192102758D-03 0.000000000000D+00 0.000000000000D+00 0.233827436472D-04 0.000000000000D+00  6 -1 2 25 24 21 21 2 0.18665376D-02 0.19809786D+00 0.14515983D+05 0.14515983D+05 0.14515983D+05 0.12494497D+01  1  2  2  2  6  2        2 0.327320267272D+00 0.100000000000D+01
0.102370715073D-04 0.750368341461D-05 -.546055114632D-06 0.233827436472D-04 0.000000000000D+00  6 -1 2 25 24 21 21 4 0.18665376D-02 0.19809786D+00 0.14515983D+05 0.14515983D+05 0.14515983D+05 0.12494497D+01  1  2  3  2  6  2        2 0.367883860312D-01 0.100000000000D+01
0.614389344121D-05 0.000000000000D+00 0.000000000000D+00 0.233827436472D-04 0.000000000000D+00  6 -1 2 25 24 21 21 4 0.18665376D-02 0.19809786D+00 0.14515983D+05 0.14515983D+05 0.14515983D+05 0.12494497D+01  1  2 15  2  6  2        2 0.220789630599D-01 0.100000000000D+01
-.225254270583D-04 0.000000000000D+00 0.000000000000D+00 0.233827436472D-04 0.000000000000D+00  6 -1 2 25 24 21 21 4 0.18665376D-02 0.19809786D+00 0.14515983D+05 0.14515983D+05 0.14515983D+05 0.12494497D+01  1  2  4  2  6  2        2 -.809483557435D-01 0.100000000000D+01
  </mgrwgt>
  </event>
  <event>
  5     66 -.43135346E-03 0.34492079E+02 0.75467711E-02 0.11999468E+00
       -1 -1    0    0    0  501 0.00000000E+00 0.00000000E+00 0.13129357E+02 0.13133256E+02 0.32000000E+00 0.0000E+00 0.9000E+01
        2 -1    0    0  502    0 0.00000000E+00 0.00000000E+00 -.13836435E+04 0.13836436E+04 0.32000000E+00 0.0000E+00 0.9000E+01
       25  1    1    2    0    0 0.46226958E+02 0.10549977E+02 -.48425148E+03 0.50236713E+03 0.12500000E+03 0.0000E+00 0.9000E+01
       24  1    1    2    0    0 -.18058482E+02 0.93484064E+01 -.52615686E+03 0.53265538E+03 0.80419002E+02 0.0000E+00 0.9000E+01
       21  1    1    2  502  501 -.28168476E+02 -.19898383E+02 -.36010585E+03 0.36175433E+03 0.75000000E+00 0.0000E+00 0.9000E+01
#aMCatNLO 1  0  0  1  1 0.46573865D+02 0.00000000D+00  -5  6  0 0.00000000D+00 0.00000000D+00 0.00000000D+00 0.00000000D+00 0.00000000D+00
  <mgrwgt>
 -.4749147232D+00    5    4    0
 0.134792799220398D+03 0.000000000000000D+00 0.000000000000000D+00 0.134792799220398D+03
 0.134792799220398D+03 0.000000000000000D+00 0.000000000000000D+00 -.134792799220398D+03
 0.141037366928345D+03 0.462291370255023D+02 0.105515159988767D+02 0.449229481455028D+02
 0.849271713816403D+02 -.180571701314228D+02 0.934933314984155D+01 -.182191399636235D+02
 0.436210601308101D+02 -.281719668940795D+02 -.199008491487182D+02 -.267038081818793D+02
 0.000000000000000D+00 -.000000000000000D+00 -.000000000000000D+00 0.000000000000000D+00
 0.276810992411031D+03 0.000000000000000D+00 0.000000000000000D+00 0.276810992411031D+03
 0.140662390175255D+03 0.000000000000000D+00 0.000000000000000D+00 -.140662390175255D+03
 0.151130401201584D+03 0.712800113444474D+02 0.107929087832562D+02 0.449229481455028D+02
 0.830813705593202D+02 -.365188204776070D+01 0.948814397760078D+01 -.182191399636235D+02
 0.393673205741024D+02 -.210564267088013D+02 -.198322830764997D+02 -.267038081818793D+02
 0.143894290251280D+03 -.465717025878854D+02 -.448769684357310D+00 0.136148602235776D+03
 0.134792799220398D+03 0.000000000000000D+00 0.000000000000000D+00 0.134792799220398D+03
 0.134792799220398D+03 0.000000000000000D+00 0.000000000000000D+00 -.134792799220398D+03
 0.141037366928345D+03 0.462291370255023D+02 0.105515159988767D+02 0.449229481455028D+02
 0.849271713816403D+02 -.180571701314228D+02 0.934933314984155D+01 -.182191399636235D+02
 0.000000000000000D+00 -.000000000000000D+00 -.000000000000000D+00 0.000000000000000D+00
 0.436210601308101D+02 -.281719668940795D+02 -.199008491487182D+02 -.267038081818793D+02
 0.276810992411031D+03 0.000000000000000D+00 0.000000000000000D+00 0.276810992411031D+03
 0.140662390175255D+03 0.000000000000000D+00 0.000000000000000D+00 -.140662390175255D+03
 0.151130401201584D+03 0.712800113444474D+02 0.107929087832562D+02 0.449229481455028D+02
 0.830813705593202D+02 -.365188204776070D+01 0.948814397760078D+01 -.182191399636235D+02
 0.143894290251280D+03 -.465717025878854D+02 -.448769684357310D+00 0.136148602235776D+03
 0.393673205741024D+02 -.210564267088013D+02 -.198322830764997D+02 -.267038081818793D+02
0.536418213892D-04 0.000000000000D+00 0.000000000000D+00 0.206109950375D-04 0.000000000000D+00  6 -1 2 25 24 21 21 2 0.20202038D-02 0.21286854D+00 0.15767031D+05 0.15767031D+05 0.15767031D+05 0.12453610D+01  1  2  2  1  6  1       -1 0.975453170078D-01 0.100000000000D+01
0.265402784836D-05 0.283075668536D-05 -.205998718350D-06 0.206109950375D-04 0.000000000000D+00  6 -1 2 25 24 21 21 4 0.20202038D-02 0.21286854D+00 0.15767031D+05 0.15767031D+05 0.15767031D+05 0.12453610D+01  1  2  3  1  6  1       -1 0.748512191289D-02 0.100000000000D+01
0.118830070646D-05 0.000000000000D+00 0.000000000000D+00 0.206109950375D-04 0.000000000000D+00  6 -1 2 25 24 21 21 4 0.20202038D-02 0.21286854D+00 0.15767031D+05 0.15767031D+05 0.15767031D+05 0.12453610D+01  1  2 15  1  6  1       -1 0.335134978424D-02 0.100000000000D+01
-.264889837651D-03 0.000000000000D+00 -.290759893906D-04 0.206109950375D-04 0.000000000000D+00  6 -1 2 25 24 21 21 4 0.43321488D-02 0.21286854D+00 0.15767031D+05 0.15767031D+05 0.15767031D+05 0.12453610D+01  1  2  5  1  6  1       -1 -.246541866238D+00 0.100000000000D+01
-.200527372387D-04 0.000000000000D+00 -.240059867494D-05 0.206109950375D-04 0.000000000000D+00  6 21 2 25 24 1 21 4 0.43321488D-02 0.21286854D+00 0.15767031D+05 0.15767031D+05 0.15767031D+05 0.12453610D+01  3  4  5  4  5  1       -1 -.336754645678D+00 0.100000000000D+01
  </mgrwgt>
  </event>
  <event>
  6     66 0.43135346E-03 0.17370270E+02 0.75467711E-02 0.10958584E+00
       -1 -1    0    0    0  501 0.00000000E+00 0.00000000E+00 0.22352237E+03 0.22352260E+03 0.32000000E+00 0.0000E+00 0.9000E+01
        2 -1    0    0  502    0 -.00000000E+00 -.00000000E+00 -.35986034E+03 0.35986049E+03 0.32000000E+00 0.0000E+00 0.9000E+01
       25  1    1    2    0    0 0.22277494E+03 -.26425637E+02 -.27655206E+02 0.25829596E+03 0.12500000E+03 0.0000E+00 0.9000E+01
       24  1    1    2    0    0 -.24819288E+03 0.10066887E+02 -.83949669E+02 0.27425501E+03 0.80419002E+02 0.0000E+00 0.9000E+01
       21  1    1    2  503  501 0.11485654E+02 0.23342878E+02 -.64835409E+01 0.26821801E+02 0.75000000E+00 0.0000E+00 0.9000E+01
       21  1    1    2  502  503 0.13932279E+02 -.69841277E+01 -.18249561E+02 0.24010319E+02 0.75000000E+00 0.0000E+00 0.9000E+01
#aMCatNLO 2  0  0  5  1 0.16149812D+02 0.00000000D+00  -5  6  0 0.00000000D+00 0.00000000D+00 0.00000000D+00 0.00000000D+00 0.00000000D+00
  <mgrwgt>
 0.4170056742D-01    4    2    0
 0.283614076744479D+03 0.000000000000000D+00 0.000000000000000D+00 0.283614076744479D+03
 0.283614076744479D+03 -.000000000000000D+00 -.000000000000000D+00 -.283614076744479D+03
 0.255625261845310D+03 0.218055875604279D+03 -.294627874114350D+02 0.360950656722424D+02
 0.266200898423004D+03 -.253035357057600D+03 0.695031071689294D+01 -.179026150747618D+02
 0.454019932206434D+02 0.349794814533217D+02 0.225124766945420D+02 -.181924505974806D+02
 0.000000000000000D+00 0.000000000000000D+00 0.000000000000000D+00 -.000000000000000D+00
 0.283614076744479D+03 0.000000000000000D+00 0.000000000000000D+00 0.283614076744479D+03
 0.283614076744479D+03 -.000000000000000D+00 -.000000000000000D+00 -.283614076744479D+03
 0.259022328305503D+03 0.222798518887552D+03 -.264104652514366D+02 0.336284681113962D+02
 0.261866893794591D+03 -.248169042290363D+03 0.100822267211918D+02 -.204335328390200D+02
 0.254081348074558D+02 0.107550737905568D+02 0.230186246027803D+02 0.211242869226517D+00
 0.209307965814085D+02 0.146154496122541D+02 -.669038607253546D+01 -.134061781416027D+02
-.687871375595D-03 0.000000000000D+00 0.000000000000D+00 0.865891179186D-05 0.000000000000D+00  6 -1 2 25 24 21 21 4 0.34388085D-01 0.55363159D-01 0.78226433D+05 0.78226433D+05 0.78226433D+05 0.11734975D+01  1  2 13  3  6  5       21 -.107705548647D+00 0.100000000000D+01
-.656831266459D-03 0.000000000000D+00 0.000000000000D+00 0.865891179186D-05 0.000000000000D+00  6 -1 2 25 24 21 21 4 0.34388085D-01 0.55363159D-01 0.78226433D+05 0.78226433D+05 0.78226433D+05 0.11734975D+01  1  2 13  3  6  5       21 -.102845349338D+00 0.100000000000D+01
-.147732210827D-03 0.000000000000D+00 0.000000000000D+00 0.865701150214D-05 0.000000000000D+00  6 -1 2 25 24 21 21 4 0.34388085D-01 0.55363159D-01 0.78472837D+05 0.78472837D+05 0.78472837D+05 0.11733687D+01  1  2  8  3  6  5       21 -.231214700168D-01 0.100000000000D+01
0.175869453590D-02 0.000000000000D+00 0.000000000000D+00 0.865701150214D-05 0.278684477858D-06  6 -1 2 25 24 21 21 4 0.34388085D-01 0.55363159D-01 0.78226433D+05 0.78226433D+05 0.78226433D+05 0.11734975D+01  1  2  1  3  6  5       21 0.275372935424D+00 0.100000000000D+01
  </mgrwgt>
  </event>
  <event>
  5     66 0.43135346E-03 0.61567254E+02 0.75467711E-02 0.11785795E+00
       -1 -1    0    0    0  501 0.00000000E+00 0.00000000E+00 0.38166428E+02 0.38167769E+02 0.32000000E+00 0.0000E+00 0.9000E+01
        2 -1    0    0  502    0 -.00000000E+00 -.00000000E+00 -.11623391E+04 0.11623391E+04 0.32000000E+00 0.0000E+00 0.9000E+01
       25  1    1    2    0    0 -.97320390E+02 0.87561104E+02 -.25346192E+03 0.31145810E+03 0.12500000E+03 0.0000E+00 0.9000E+01
       24  1    1    2    0    0 0.43943769E+02 -.56885538E+02 -.68390999E+03 0.69236342E+03 0.80419002E+02 0.0000E+00 0.9000E+01
       21  1    1    2  502  501 0.53376621E+02 -.30675566E+02 -.18680077E+03 0.19668539E+03 0.75000000E+00 0.0000E+00 0.9000E+01
#aMCatNLO 1  0  0  5  1 0.22257431D+02 0.00000000D+00  -5  6  0 0.00000000D+00 0.00000000D+00 0.00000000D+00 0.00000000D+00 0.00000000D+00
  <mgrwgt>
 0.3569382780D+00   14    2    0
 0.210625646528080D+03 0.000000000000000D+00 0.000000000000000D+00 0.210625646528080D+03
 0.210625646528080D+03 -.000000000000000D+00 -.000000000000000D+00 -.210625646528080D+03
 0.211211882456747D+03 -.973223471074910D+02 0.875622288314194D+02 0.108842437157966D+03
 0.148020436067619D+03 0.439423971186650D+02 -.568847500803060D+02 -.101370727939796D+03
 0.620189745317953D+02 0.533799499888261D+02 -.306774787511134D+02 -.747170921817042D+01
 0.000000000000000D+00 0.000000000000000D+00 0.000000000000000D+00 0.000000000000000D+00
 0.210625646528080D+03 0.000000000000000D+00 0.000000000000000D+00 0.210625646528080D+03
 0.210625646528080D+03 -.000000000000000D+00 -.000000000000000D+00 -.210625646528080D+03
 0.199273211690112D+03 -.812016817643760D+02 0.782976759680176D+02 0.106585992109359D+03
 0.155786594902340D+03 0.558735769470850D+02 -.637416039315870D+02 -.103040761469732D+03
 0.428146207705010D+02 0.222672391440358D+02 -.301574558358493D+02 -.206830769019731D+02
 0.233768656932080D+02 0.306086567325523D+01 0.156013837994186D+02 0.171378462623462D+02
0.288795445082D-03 0.000000000000D+00 0.000000000000D+00 0.322180104034D-05 0.000000000000D+00  6 -1 2 25 24 21 21 2 0.58718647D-02 0.17882151D+00 0.30701361D+05 0.30701361D+05 0.30701361D+05 0.12138465D+01  1  2  2  3  6  5       21 0.139362472286D+00 0.100000000000D+01
0.183975158363D-05 0.152401543366D-04 -.110905055070D-05 0.322180104034D-05 0.000000000000D+00  6 -1 2 25 24 21 21 4 0.58718647D-02 0.17882151D+00 0.30701361D+05 0.30701361D+05 0.30701361D+05 0.12138465D+01  1  2  3  3  6  5       21 0.130810376594D-02 0.100000000000D+01
0.773361274761D-05 0.000000000000D+00 0.000000000000D+00 0.322180104034D-05 0.000000000000D+00  6 -1 2 25 24 21 21 4 0.58718647D-02 0.17882151D+00 0.30701361D+05 0.30701361D+05 0.30701361D+05 0.12138465D+01  1  2 15  3  6  5       21 0.549876844759D-02 0.100000000000D+01
0.191001789613D-03 0.000000000000D+00 0.000000000000D+00 0.323847060142D-05 0.000000000000D+00  6 -1 2 25 24 21 21 4 0.58718647D-02 0.17882151D+00 0.28662581D+05 0.28662581D+05 0.28662581D+05 0.12169826D+01  1  2 12  3  6  5       21 0.137134829880D+00 0.100000000000D+01
0.172024576094D-03 0.000000000000D+00 0.000000000000D+00 0.323847060142D-05 0.000000000000D+00  6 -1 2 25 24 21 21 4 0.58718647D-02 0.17882151D+00 0.28662581D+05 0.28662581D+05 0.28662581D+05 0.12169826D+01  1  2 12  3  6  5       21 0.123509633211D+00 0.100000000000D+01
-.958947754831D-04 0.000000000000D+00 0.000000000000D+00 0.322180104034D-05 0.000000000000D+00  6 -1 2 25 24 21 21 4 0.58718647D-02 0.17882151D+00 0.30701361D+05 0.30701361D+05 0.30701361D+05 0.12138465D+01  1  2  4  3  6  5       21 -.681832906462D-01 0.100000000000D+01
0.329425972657D-05 0.000000000000D+00 0.000000000000D+00 0.323847060142D-05 0.000000000000D+00  6 -1 2 25 24 1 -1 4 0.58718647D-02 0.17882151D+00 0.28662581D+05 0.28662581D+05 0.28662581D+05 0.12169826D+01  1  2 12  6  6  5       21 0.236520164601D-02 0.100000000000D+01
0.308051598715D-05 0.000000000000D+00 0.000000000000D+00 0.323847060142D-05 0.000000000000D+00  6 -1 2 25 24 1 -1 4 0.58718647D-02 0.17882151D+00 0.28662581D+05 0.28662581D+05 0.28662581D+05 0.12169826D+01  1  2 12  6  6  5       21 0.221173862661D-02 0.100000000000D+01
0.329425972657D-05 0.000000000000D+00 0.000000000000D+00 0.323847060142D-05 0.000000000000D+00  6 -1 2 25 24 2 -2 4 0.58718647D-02 0.17882151D+00 0.28662581D+05 0.28662581D+05 0.28662581D+05 0.12169826D+01  1  2 12  7  6  5       21 0.236520164601D-02 0.100000000000D+01
0.308051598715D-05 0.000000000000D+00 0.000000000000D+00 0.323847060142D-05 0.000000000000D+00  6 -1 2 25 24 2 -2 4 0.58718647D-02 0.17882151D+00 0.28662581D+05 0.28662581D+05 0.28662581D+05 0.12169826D+01  1  2 12  7  6  5       21 0.221173862661D-02 0.100000000000D+01
0.329425972657D-05 0.000000000000D+00 0.000000000000D+00 0.323847060142D-05 0.000000000000D+00  6 -1 2 25 24 3 -3 4 0.58718647D-02 0.17882151D+00 0.28662581D+05 0.28662581D+05 0.28662581D+05 0.12169826D+01  1  2 12  8  6  5       21 0.236520164601D-02 0.100000000000D+01
0.329425972657D-05 0.000000000000D+00 0.000000000000D+00 0.323847060142D-05 0.000000000000D+00  6 -1 2 25 24 4 -4 4 0.58718647D-02 0.17882151D+00 0.28662581D+05 0.28662581D+05 0.28662581D+05 0.12169826D+01  1  2 12  8  6  5       21 0.236520164601D-02 0.100000000000D+01
0.308051598715D-05 0.000000000000D+00 0.000000000000D+00 0.323847060142D-05 0.000000000000D+00  6 -1 2 25 24 3 -3 4 0.58718647D-02 0.17882151D+00 0.28662581D+05 0.28662581D+05 0.28662581D+05 0.12169826D+01  1  2 12  8  6  5       21 0.221173862661D-02 0.100000000000D+01
0.308051598715D-05 0.000000000000D+00 0.000000000000D+00 0.323847060142D-05 0.000000000000D+00  6 -1 2 25 24 4 -4 4 0.58718647D-02 0.17882151D+00 0.28662581D+05 0.28662581D+05 0.28662581D+05 0.12169826D+01  1  2 12  8  6  5       21 0.221173862661D-02 0.100000000000D+01
  </mgrwgt>
  </event>
  <event>
  6     66 0.43135346E-03 0.53979814E+02 0.75467711E-02 0.11544616E+00
       -1 -1    0    0    0  503 0.00000000E+00 0.00000000E+00 0.69712630E+03 0.69712637E+03 0.32000000E+00 0.0000E+00 0.9000E+01
        2 -1    0    0  502    0 0.00000000E+00 0.00000000E+00 -.43178164E+03 0.43178176E+03 0.32000000E+00 0.0000E+00 0.9000E+01
       25  1    1    2    0    0 -.10553142E+03 -.49187195E+02 -.18980220E+03 0.25535492E+03 0.12500000E+03 0.0000E+00 0.9000E+01
       24  1    1    2    0    0 0.61129032E+02 0.84850013E+02 -.99505623E+02 0.16524185E+03 0.80419002E+02 0.0000E+00 0.9000E+01
       21  1    1    2  502  501 0.98869387E+01 0.19108128E+02 -.73624530E+02 0.76707275E+02 0.75000000E+00 0.0000E+00 0.9000E+01
       21  1    1    2  501  503 0.34515447E+02 -.54770946E+02 0.62827700E+03 0.63160409E+03 0.75000000E+00 0.0000E+00 0.9000E+01
#aMCatNLO 2  0  0  1  5 0.31024871D+01 0.00000000D+00  -5  6  0 0.00000000D+00 0.00000000D+00 0.00000000D+00 0.00000000D+00 0.00000000D+00
  <mgrwgt>
 0.2395380629D-01    1    2    0
 0.166883377266184D+03 0.000000000000000D+00 0.000000000000000D+00 0.166883377266184D+03
 0.166883377266184D+03 0.000000000000000D+00 0.000000000000000D+00 -.166883377266184D+03
 0.171244774050410D+03 -.880058052806400D+02 -.770026383773334D+02 -.503433803111210D+01
 0.130402200190714D+03 0.747484451547041D+02 0.632342973357464D+02 0.308482000709467D+02
 0.321197802912445D+02 0.132573601259360D+02 0.137683410415870D+02 -.258138620398346D+02
 0.000000000000000D+00 0.000000000000000D+00 -.000000000000000D+00 0.000000000000000D+00
 0.176386895435791D+04 0.000000000000000D+00 0.000000000000000D+00 0.176386895435791D+04
 0.170651077576314D+03 0.000000000000000D+00 0.000000000000000D+00 -.170651077576314D+03
 0.170901127144582D+03 -.105533443595626D+03 -.491888501870687D+02 -.503433803111210D+01
 0.135479427394855D+03 0.611277149730973D+02 0.848483960214802D+02 0.308482000709467D+02
 0.336068262513895D+02 0.989028139394751D+01 0.191114005564219D+02 -.258138620398346D+02
 0.159453265114340D+04 0.345154472285814D+02 -.547709463908334D+02 0.159321787678159D+04
0.153761620929D-02 0.000000000000D+00 0.000000000000D+00 0.543608855686D-04 0.209990869276D-06  6 -1 2 25 24 21 21 4 0.10725016D+00 0.66427926D-01 0.37831379D+05 0.37831379D+05 0.37831379D+05 0.12044663D+01  1  2  1  1  6  1       -1 0.239538062855D-01 0.100000000000D+01
  </mgrwgt>
  </event>
  <event>
  5     66 0.43135346E-03 0.41143832E+02 0.75467711E-02 0.11989099E+00
       -1 -1    0    0    0  501 0.00000000E+00 0.00000000E+00 0.65561579E+02 0.65562360E+02 0.32000000E+00 0.0000E+00 0.9000E+01
        2 -1    0    0  502    0 0.00000000E+00 0.00000000E+00 -.51407499E+03 0.51407509E+03 0.32000000E+00 0.0000E+00 0.9000E+01
       25  1    1    2    0    0 -.55119706E+02 -.37266696E+00 -.35857406E+03 0.38371693E+03 0.12500000E+03 0.0000E+00 0.9000E+01
       24  1    1    2    0    0 0.80887874E+02 -.31694939E+02 -.28147658E+02 0.12168370E+03 0.80419002E+02 0.0000E+00 0.9000E+01
       21  1    1    2  502  501 -.25768168E+02 0.32067606E+02 -.61791695E+02 0.74236824E+02 0.75000000E+00 0.0000E+00 0.9000E+01
#aMCatNLO 1  0  0  2  5 0.66631514D+01 0.00000000D+00  -5  6  0 0.00000000D+00 0.00000000D+00 0.00000000D+00 0.00000000D+00 0.00000000D+00
  <mgrwgt>
 0.3004263077D+00   11    4    0
 0.183586011232127D+03 0.000000000000000D+00 0.000000000000000D+00 0.183586011232127D+03
 0.183586011232127D+03 0.000000000000000D+00 0.000000000000000D+00 -.183586011232127D+03
 0.167744503729182D+03 -.551178023704390D+02 -.375035573718776D+00 -.973401548258532D+02
 0.157714760471410D+03 0.808896635145382D+02 -.316971660941524D+02 0.104205958151577D+03
 0.417127582636637D+02 -.257718611440992D+02 0.320722016678711D+02 -.686580332572339D+01
 0.000000000000000D+00 0.000000000000000D+00 -.000000000000000D+00 -.000000000000000D+00
 0.184509347204528D+03 0.000000000000000D+00 0.000000000000000D+00 0.184509347204528D+03
 0.196044056117712D+03 0.000000000000000D+00 0.000000000000000D+00 -.196044056117712D+03
 0.168601500853540D+03 -.576596467089465D+02 0.131357905918948D+01 -.973401548258532D+02
 0.156199727961504D+03 0.785173393176488D+02 -.301211681889376D+02 0.104205958151577D+03
 0.424312475087127D+02 -.264077568044541D+02 0.324946440262842D+02 -.686580332572339D+01
 0.133209269984831D+02 0.555006419575179D+01 -.368705489653613D+01 -.115347089131837D+02
 0.183586011232127D+03 0.000000000000000D+00 0.000000000000000D+00 0.183586011232127D+03
 0.183586011232127D+03 0.000000000000000D+00 0.000000000000000D+00 -.183586011232127D+03
 0.167744503729182D+03 -.551178023704390D+02 -.375035573718776D+00 -.973401548258532D+02
 0.157714760471410D+03 0.808896635145382D+02 -.316971660941524D+02 0.104205958151577D+03
 0.000000000000000D+00 0.000000000000000D+00 -.000000000000000D+00 -.000000000000000D+00
 0.417127582636637D+02 -.257718611440992D+02 0.320722016678711D+02 -.686580332572339D+01
 0.184509347204528D+03 0.000000000000000D+00 0.000000000000000D+00 0.184509347204528D+03
 0.196044056117712D+03 0.000000000000000D+00 0.000000000000000D+00 -.196044056117712D+03
 0.168601500853540D+03 -.576596467089465D+02 0.131357905918948D+01 -.973401548258532D+02
 0.156199727961504D+03 0.785173393176488D+02 -.301211681889376D+02 0.104205958151577D+03
 0.133209269984831D+02 0.555006419575179D+01 -.368705489653613D+01 -.115347089131837D+02
 0.424312475087127D+02 -.264077568044541D+02 0.324946440262842D+02 -.686580332572339D+01
0.450620037030D-04 0.000000000000D+00 0.000000000000D+00 0.722043015391D-05 0.000000000000D+00  6 -1 2 25 24 21 21 2 0.10086464D-01 0.79088528D-01 0.21925032D+05 0.21925032D+05 0.21925032D+05 0.12294563D+01  1  2  2  2  6  2        2 0.273846030131D-01 0.100000000000D+01
0.263069534436D-05 0.237798726692D-05 -.173049959318D-06 0.722043015391D-05 0.000000000000D+00  6 -1 2 25 24 21 21 4 0.10086464D-01 0.79088528D-01 0.21925032D+05 0.21925032D+05 0.21925032D+05 0.12294563D+01  1  2  3  2  6  2        2 0.241653293319D-02 0.100000000000D+01
0.224729779850D-05 0.000000000000D+00 0.000000000000D+00 0.722043015391D-05 0.000000000000D+00  6 -1 2 25 24 21 21 4 0.10086464D-01 0.79088528D-01 0.21925032D+05 0.21925032D+05 0.21925032D+05 0.12294563D+01  1  2 15  2  6  2        2 0.206434741766D-02 0.100000000000D+01
0.638715952828D-03 0.000000000000D+00 0.000000000000D+00 0.719669761676D-05 0.000000000000D+00  6 -1 2 25 24 21 21 4 0.10086464D-01 0.86553266D-01 0.22885399D+05 0.22885399D+05 0.22885399D+05 0.12274341D+01  1  2 12  2  6  2        2 0.527500609306D+00 0.100000000000D+01
-.446265229873D-03 0.000000000000D+00 0.000000000000D+00 0.722043015391D-05 0.000000000000D+00  6 -1 2 25 24 21 21 4 0.10086464D-01 0.79088528D-01 0.21925032D+05 0.21925032D+05 0.21925032D+05 0.12294563D+01  1  2  4  2  6  2        2 -.409935201064D+00 0.100000000000D+01
-.179049880910D-02 0.000000000000D+00 -.158638367393D-03 0.722043015391D-05 0.000000000000D+00  6 -1 2 25 24 21 21 4 0.10086464D-01 0.84688898D-01 0.21925032D+05 0.21925032D+05 0.21925032D+05 0.12294563D+01  1  2  5  2  6  2        2 -.152409443103D+01 0.100000000000D+01
0.179751429586D-02 0.000000000000D+00 0.158267809553D-03 0.722043015391D-05 0.000000000000D+00  6 -1 2 25 24 21 21 4 0.10086464D-01 0.79088528D-01 0.21925032D+05 0.21925032D+05 0.21925032D+05 0.12294563D+01  1  2  6  2  6  2        2 0.165118036307D+01 0.100000000000D+01
0.440114728494D-04 0.000000000000D+00 0.000000000000D+00 0.722043015391D-05 0.409501106964D-06  6 -1 2 25 24 21 21 4 0.10137194D-01 0.84455432D-01 0.22885399D+05 0.22885399D+05 0.22885399D+05 0.12274341D+01  1  2 11  2  6  2        2 0.370778395035D-01 0.100000000000D+01
0.115387004151D-04 0.000000000000D+00 0.000000000000D+00 0.719669761676D-05 0.000000000000D+00  6 -1 21 25 24 -2 21 4 0.10086464D-01 0.86553266D-01 0.22885399D+05 0.22885399D+05 0.22885399D+05 0.12274341D+01  3  4 12  5  5  2        2 0.163191261191D-01 0.100000000000D+01
-.205325901949D-04 0.000000000000D+00 -.184180356643D-05 0.722043015391D-05 0.000000000000D+00  6 -1 21 25 24 -2 21 4 0.10086464D-01 0.84688898D-01 0.21925032D+05 0.21925032D+05 0.21925032D+05 0.12294563D+01  3  4  5  5  5  2        2 -.307327419014D-01 0.100000000000D+01
0.839119546576D-06 0.000000000000D+00 0.000000000000D+00 0.722043015391D-05 0.153723216735D-07  6 -1 21 25 24 -2 21 4 0.10137194D-01 0.84455432D-01 0.22885399D+05 0.22885399D+05 0.22885399D+05 0.12274341D+01  3  4 11  5  5  2        2 0.124526029889D-02 0.100000000000D+01
  </mgrwgt>
  </event>
  <event>
  6     66 0.43135346E-03 0.15534662E+02 0.75467711E-02 0.10984227E+00
       -1 -1    0    0    0  501 0.00000000E+00 0.00000000E+00 0.15123669E+03 0.15123703E+03 0.32000000E+00 0.0000E+00 0.9000E+01
        2 -1    0    0  503    0 0.00000000E+00 0.00000000E+00 -.62752371E+03 0.62752380E+03 0.32000000E+00 0.0000E+00 0.9000E+01
       25  1    1    2    0    0 0.21782841E+03 -.24529926E+02 -.10822913E+03 0.27457144E+03 0.12500000E+03 0.0000E+00 0.9000E+01
       24  1    1    2    0    0 -.24375719E+03 0.28706709E+02 -.19581736E+03 0.32411926E+03 0.80419002E+02 0.0000E+00 0.9000E+01
       21  1    1    2  502  501 0.95942990E+01 0.12741531E+02 -.18067985E+02 0.24112481E+02 0.75000000E+00 0.0000E+00 0.9000E+01
       21  1    1    2  503  502 0.16334484E+02 -.16918314E+02 -.15417256E+03 0.15595764E+03 0.75000000E+00 0.0000E+00 0.9000E+01
#aMCatNLO 2  0  0  2  2 0.16573419D+03 0.00000000D+00  -5  6  0 0.00000000D+00 0.00000000D+00 0.00000000D+00 0.00000000D+00 0.00000000D+00
  <mgrwgt>
 0.9465700188D+00    1    2    0
 0.266257877189511D+03 0.000000000000000D+00 0.000000000000000D+00 0.266257877189511D+03
 0.266257877189511D+03 0.000000000000000D+00 0.000000000000000D+00 -.266257877189511D+03
 0.263115899913832D+03 0.225772454716785D+03 -.327686289296914D+02 0.394714129046706D+02
 0.252239343728606D+03 -.235903702818706D+03 0.205622479060497D+02 -.329257881870900D+02
 0.171605107365838D+02 0.101312481019213D+02 0.122063810236417D+02 -.654562471758055D+01
 0.000000000000000D+00 0.000000000000000D+00 -.000000000000000D+00 -.000000000000000D+00
 0.268098035511903D+03 0.000000000000000D+00 0.000000000000000D+00 0.268098035511903D+03
 0.353988641230312D+03 0.000000000000000D+00 0.000000000000000D+00 -.353988641230312D+03
 0.255405886798138D+03 0.217823713062657D+03 -.245357820753573D+02 0.394714129046706D+02
 0.260374618065833D+03 -.243761879765216D+03 0.287012930744475D+02 -.329257881870900D+02
 0.172542720294853D+02 0.960368257950606D+01 0.127528028776488D+02 -.654562471758055D+01
 0.890518998487589D+02 0.163344841230523D+02 -.169183138767391D+02 -.858906057184095D+02
0.578973436492D-02 0.000000000000D+00 0.000000000000D+00 0.570250696109D-04 0.374539930581D-06  6 -1 2 25 24 21 21 4 0.23267079D-01 0.96541577D-01 0.75653386D+05 0.75653386D+05 0.75653386D+05 0.11748697D+01  1  2  1  2  6  2        2 0.946570018816D+00 0.100000000000D+01
  </mgrwgt>
  </event>
  <event>
  5     66 0.43135346E-03 0.38345718E+02 0.75467711E-02 0.11844467E+00
       -1 -1    0    0    0  501 0.00000000E+00 0.00000000E+00 0.90030992E+01 0.90087843E+01 0.32000000E+00 0.0000E+00 0.9000E+01
        2 -1    0    0  502    0 0.00000000E+00 0.00000000E+00 -.30629581E+04 0.30629581E+04 0.32000000E+00 0.0000E+00 0.9000E+01
       25  1    1    2    0    0 0.94892104E+02 -.88849052E+01 -.11576027E+04 0.11682262E+04 0.12500000E+03 0.0000E+00 0.9000E+01
       24  1    1    2    0    0 -.88676381E+02 0.46716930E+02 -.15299933E+04 0.15353803E+04 0.80419002E+02 0.0000E+00 0.9000E+01
       21  1    1    2  502  501 -.62157233E+01 -.37832024E+02 -.36635898E+03 0.36836037E+03 0.75000000E+00 0.0000E+00 0.9000E+01
#aMCatNLO 1  0  0  2  5 0.36031214D+01 0.00000000D+00  -5  6  0 0.00000000D+00 0.00000000D+00 0.00000000D+00 0.00000000D+00 0.00000000D+00
  <mgrwgt>
 0.4698187039D+00   11    4    0
 0.166086945706821D+03 0.000000000000000D+00 0.000000000000000D+00 0.166086945706821D+03
 0.166086945706821D+03 0.000000000000000D+00 0.000000000000000D+00 -.166086945706821D+03
 0.161017276277164D+03 0.948926798080047D+02 -.888140165692167D+01 0.349007633609974D+02
 0.132782909134082D+03 -.886759061881031D+02 0.467198186755153D+02 -.334354184718118D+02
 0.383737060023965D+02 -.621677361990160D+01 -.378384170185936D+02 -.146534488918564D+01
 0.000000000000000D+00 -.000000000000000D+00 0.000000000000000D+00 -.000000000000000D+00
 0.166778014234290D+03 0.000000000000000D+00 0.000000000000000D+00 0.166778014234290D+03
 0.170860595082272D+03 0.000000000000000D+00 0.000000000000000D+00 -.170860595082272D+03
 0.161654421742592D+03 0.958209695357217D+02 -.103648725503912D+02 0.349007633609974D+02
 0.131850886687385D+03 -.879145848953605D+02 0.455031748361616D+02 -.334354184718118D+02
 0.386881241069465D+02 -.599507551086820D+01 -.381927058597479D+02 -.146534488918564D+01
 0.544517677963876D+01 -.191130912949298D+01 0.305440357397745D+01 -.408258084798179D+01
 0.166086945706821D+03 0.000000000000000D+00 0.000000000000000D+00 0.166086945706821D+03
 0.166086945706821D+03 0.000000000000000D+00 0.000000000000000D+00 -.166086945706821D+03
 0.161017276277164D+03 0.948926798080047D+02 -.888140165692167D+01 0.349007633609974D+02
 0.132782909134082D+03 -.886759061881031D+02 0.467198186755153D+02 -.334354184718118D+02
 0.000000000000000D+00 -.000000000000000D+00 0.000000000000000D+00 -.000000000000000D+00
 0.383737060023965D+02 -.621677361990160D+01 -.378384170185936D+02 -.146534488918564D+01
 0.166778014234290D+03 0.000000000000000D+00 0.000000000000000D+00 0.166778014234290D+03
 0.170860595082272D+03 0.000000000000000D+00 0.000000000000000D+00 -.170860595082272D+03
 0.161654421742592D+03 0.958209695357217D+02 -.103648725503912D+02 0.349007633609974D+02
 0.131850886687385D+03 -.879145848953605D+02 0.455031748361616D+02 -.334354184718118D+02
 0.544517677963876D+01 -.191130912949298D+01 0.305440357397745D+01 -.408258084798179D+01
 0.386881241069465D+02 -.599507551086820D+01 -.381927058597479D+02 -.146534488918564D+01
0.145408784835D-03 0.000000000000D+00 0.000000000000D+00 0.127992088711D-04 0.000000000000D+00  6 -1 2 25 24 21 21 2 0.13855308D-02 0.47122476D+00 0.26250394D+05 0.26250394D+05 0.26250394D+05 0.12210317D+01  1  2  2  2  6  2        2 0.560487930104D-01 0.100000000000D+01
0.157962347251D-04 0.767343239139D-05 -.558408020778D-06 0.127992088711D-04 0.000000000000D+00  6 -1 2 25 24 21 21 4 0.13855308D-02 0.47122476D+00 0.26250394D+05 0.26250394D+05 0.26250394D+05 0.12210317D+01  1  2  3  2  6  2        2 0.907785143552D-02 0.100000000000D+01
0.507470675610D-05 0.000000000000D+00 0.000000000000D+00 0.127992088711D-04 0.000000000000D+00  6 -1 2 25 24 21 21 4 0.13855308D-02 0.47122476D+00 0.26250394D+05 0.26250394D+05 0.26250394D+05 0.12210317D+01  1  2 15  2  6  2        2 0.291635537281D-02 0.100000000000D+01
0.169486069288D-04 0.000000000000D+00 0.000000000000D+00 0.127777570926D-04 0.000000000000D+00  6 -1 2 25 24 21 21 4 0.13855308D-02 0.49352920D+00 0.26838065D+05 0.26838065D+05 0.26838065D+05 0.12200080D+01  1  2 12  2  6  2        2 0.794719597517D-02 0.100000000000D+01
-.103710310999D-02 0.000000000000D+00 0.000000000000D+00 0.127992088711D-04 0.000000000000D+00  6 -1 2 25 24 21 21 4 0.13855308D-02 0.47122476D+00 0.26250394D+05 0.26250394D+05 0.26250394D+05 0.12210317D+01  1  2  4  2  6  2        2 -.596007094074D+00 0.100000000000D+01
-.682995507906D-02 0.000000000000D+00 -.668352633696D-03 0.127992088711D-04 0.000000000000D+00  6 -1 2 25 24 21 21 4 0.13855308D-02 0.48531180D+00 0.26250394D+05 0.26250394D+05 0.26250394D+05 0.12210317D+01  1  2  5  2  6  2        2 -.346230474681D+01 0.100000000000D+01
0.684696149270D-02 0.000000000000D+00 0.668062780676D-03 0.127992088711D-04 0.000000000000D+00  6 -1 2 25 24 21 21 4 0.13855308D-02 0.47122476D+00 0.26250394D+05 0.26250394D+05 0.26250394D+05 0.12210317D+01  1  2  6  2  6  2        2 0.393484272026D+01 0.100000000000D+01
0.102821787428D-02 0.000000000000D+00 0.000000000000D+00 0.127992088711D-04 0.243412710761D-05  6 -1 2 25 24 21 21 4 0.13912958D-02 0.48476864D+00 0.26838065D+05 0.26838065D+05 0.26838065D+05 0.12200080D+01  1  2 11  2  6  2        2 0.518762475201D+00 0.100000000000D+01
0.759135282984D-06 0.000000000000D+00 0.000000000000D+00 0.127777570926D-04 0.000000000000D+00  6 -1 21 25 24 -2 21 4 0.13855308D-02 0.49352920D+00 0.26838065D+05 0.26838065D+05 0.26838065D+05 0.12200080D+01  3  4 12  5  5  2        2 0.375049729301D-04 0.100000000000D+01
-.359002318207D-04 0.000000000000D+00 -.353356144038D-05 0.127992088711D-04 0.000000000000D+00  6 -1 21 25 24 -2 21 4 0.13855308D-02 0.48531180D+00 0.26250394D+05 0.26250394D+05 0.26250394D+05 0.12210317D+01  3  4  5  5  5  2        2 -.203433599711D-02 0.100000000000D+01
0.941806822110D-05 0.000000000000D+00 0.000000000000D+00 0.127992088711D-04 0.431380212886D-07  6 -1 21 25 24 -2 21 4 0.13912958D-02 0.48476864D+00 0.26838065D+05 0.26838065D+05 0.26838065D+05 0.12200080D+01  3  4 11  5  5  2        2 0.531984541461D-03 0.100000000000D+01
  </mgrwgt>
  </event>
  <event>
  5     66 0.43135346E-03 0.31408475E+02 0.75467711E-02 0.11291324E+00
       -1 -1    0    0    0  501 0.00000000E+00 0.00000000E+00 0.37130072E+02 0.37131451E+02 0.32000000E+00 0.0000E+00 0.9000E+01
        2 -1    0    0  502    0 0.00000000E+00 0.00000000E+00 -.89270770E+03 0.89270775E+03 0.32000000E+00 0.0000E+00 0.9000E+01
       25  1    1    2    0    0 -.39057065E+02 -.92791860E+02 -.70998269E+03 0.72789848E+03 0.12500000E+03 0.0000E+00 0.9000E+01
       24  1    1    2    0    0 0.25947949E+02 0.64257887E+02 -.95388823E+02 0.14271866E+03 0.80419002E+02 0.0000E+00 0.9000E+01
       21  1    1    2  502  501 0.13109116E+02 0.28533973E+02 -.50206113E+02 0.59222064E+02 0.75000000E+00 0.0000E+00 0.9000E+01
#aMCatNLO 1  0  0  1  5 0.36810273D+02 0.00000000D+00  -5  6  0 0.00000000D+00 0.00000000D+00 0.00000000D+00 0.00000000D+00 0.00000000D+00
  <mgrwgt>
 0.3561650390D+00    3    2    0
 0.182063091185225D+03 0.000000000000000D+00 0.000000000000000D+00 0.182063091185225D+03
 0.182063091185225D+03 0.000000000000000D+00 0.000000000000000D+00 -.182063091185225D+03
 0.190550248472716D+03 -.390588095343039D+02 -.927956575923146D+02 -.102702349159047D+03
 0.140314144314954D+03 0.259466639894055D+02 0.642550912329986D+02 0.917545476743633D+02
 0.332617895827806D+02 0.131121455448984D+02 0.285405663593161D+02 0.109478014846839D+02
 0.000000000000000D+00 -.000000000000000D+00 -.000000000000000D+00 -.000000000000000D+00
 0.218079202998111D+03 0.000000000000000D+00 0.000000000000000D+00 0.218079202998111D+03
 0.360131074987156D+03 0.000000000000000D+00 0.000000000000000D+00 -.360131074987156D+03
 0.172325160666512D+03 0.127128377549572D+02 -.579790671895341D+02 -.102702349159047D+03
 0.169197230198920D+03 0.701048331840521D+02 0.939515944405678D+02 0.917545476743633D+02
 0.447871274265182D+02 0.242474302760935D+02 0.360290792385416D+02 0.109478014846839D+02
 0.191900759693317D+03 -.107065101215103D+03 -.720016064895754D+02 -.142051871989045D+03
0.392068266836D-03 0.000000000000D+00 0.000000000000D+00 0.129384876971D-04 0.000000000000D+00  6 -1 2 25 24 21 21 2 0.57124293D-02 0.13733976D+00 0.22211292D+05 0.22211292D+05 0.22211292D+05 0.12288434D+01  1  2  2  1  6  1       -1 0.291353474493D+00 0.100000000000D+01
0.492074796955D-04 0.206900108669D-04 -.150564537860D-05 0.129384876971D-04 0.000000000000D+00  6 -1 2 25 24 21 21 4 0.57124293D-02 0.13733976D+00 0.22211292D+05 0.22211292D+05 0.22211292D+05 0.12288434D+01  1  2  3  1  6  1       -1 0.552182555561D-01 0.100000000000D+01
0.854903054954D-05 0.000000000000D+00 0.000000000000D+00 0.129384876971D-04 0.000000000000D+00  6 -1 2 25 24 21 21 4 0.57124293D-02 0.13733976D+00 0.22211292D+05 0.22211292D+05 0.22211292D+05 0.12288434D+01  1  2 15  1  6  1       -1 0.959330891488D-02 0.100000000000D+01
  </mgrwgt>
  </event>
  <event>
  5     66 0.43135346E-03 0.20440280E+02 0.75467711E-02 0.12268760E+00
       -1 -1    0    0    0  501 0.00000000E+00 0.00000000E+00 0.25585777E+02 0.25587778E+02 0.32000000E+00 0.0000E+00 0.9000E+01
        2 -1    0    0  502    0 -.00000000E+00 -.00000000E+00 -.76442843E+03 0.76442850E+03 0.32000000E+00 0.0000E+00 0.9000E+01
       25  1    1    2    0    0 -.11897461E+02 -.47836420E+02 -.32556623E+03 0.35220483E+03 0.12500000E+03 0.0000E+00 0.9000E+01
       24  1    1    2    0    0 0.31119872E+02 0.40893304E+02 -.18084405E+03 0.20448104E+03 0.80419002E+02 0.0000E+00 0.9000E+01
       21  1    1    2  502  501 -.19222411E+02 0.69431158E+01 -.23243237E+03 0.23333040E+03 0.75000000E+00 0.0000E+00 0.9000E+01
#aMCatNLO 1  0  0  5  1 0.78332423D+01 0.00000000D+00  -5  6  0 0.00000000D+00 0.00000000D+00 0.00000000D+00 0.00000000D+00 0.00000000D+00
  <mgrwgt>
 0.1044589102D+01   14    2    0
 0.139854611226416D+03 0.000000000000000D+00 0.000000000000000D+00 0.139854611226416D+03
 0.139854611226416D+03 -.000000000000000D+00 -.000000000000000D+00 -.139854611226416D+03
 0.134802154260640D+03 -.118961773667242D+02 -.478368834073097D+02 0.108043668599453D+02
 0.998474672852117D+02 0.311208225513954D+02 0.408929605948484D+02 0.293523584472122D+02
 0.450596009069813D+02 -.192246451846712D+02 0.694392281246136D+01 -.401567253071575D+02
 0.000000000000000D+00 0.000000000000000D+00 -.000000000000000D+00 0.000000000000000D+00
 0.139854611226416D+03 0.000000000000000D+00 0.000000000000000D+00 0.139854611226416D+03
 0.139854611226416D+03 -.000000000000000D+00 -.000000000000000D+00 -.139854611226416D+03
 0.134398270723508D+03 -.145152144502839D+02 -.468908898050084D+02 0.533368317639824D+01
 0.984394346581790D+02 0.291916994848012D+02 0.415897579370875D+02 0.253227774419567D+02
 0.384089814326447D+02 -.192393995132351D+02 0.124259515980489D+02 -.308332789035859D+02
 0.846253563850135D+01 0.456291447871774D+01 -.712481973012802D+01 0.176818285230937D+00
0.299251993218D-03 0.000000000000D+00 0.000000000000D+00 0.604262921164D-04 0.000000000000D+00  6 -1 2 25 24 21 21 2 0.39364325D-02 0.11760453D+00 0.15655560D+05 0.15655560D+05 0.15655560D+05 0.12457102D+01  1  2  2  3  6  5       21 0.477475641469D+00 0.100000000000D+01
0.436129244519D-04 0.157919615417D-04 -.114920644882D-05 0.604262921164D-04 0.000000000000D+00  6 -1 2 25 24 21 21 4 0.39364325D-02 0.11760453D+00 0.15655560D+05 0.15655560D+05 0.15655560D+05 0.12457102D+01  1  2  3  3  6  5       21 0.107985004006D+00 0.100000000000D+01
0.146499627794D-04 0.000000000000D+00 0.000000000000D+00 0.604262921164D-04 0.000000000000D+00  6 -1 2 25 24 21 21 4 0.39364325D-02 0.11760453D+00 0.15655560D+05 0.15655560D+05 0.15655560D+05 0.12457102D+01  1  2 15  3  6  5       21 0.362731073255D-01 0.100000000000D+01
0.332168592106D-03 0.000000000000D+00 0.000000000000D+00 0.600347075350D-04 0.000000000000D+00  6 -1 2 25 24 21 21 4 0.39364325D-02 0.11760453D+00 0.17001940D+05 0.17001940D+05 0.17001940D+05 0.12416674D+01  1  2 12  3  6  5       21 0.813941241537D+00 0.100000000000D+01
-.171338671373D-03 0.000000000000D+00 0.000000000000D+00 0.604262921164D-04 0.000000000000D+00  6 -1 2 25 24 21 21 4 0.39364325D-02 0.11760453D+00 0.15655560D+05 0.15655560D+05 0.15655560D+05 0.12457102D+01  1  2  4  3  6  5       21 -.424232205183D+00 0.100000000000D+01
0.915047820812D-06 0.000000000000D+00 0.000000000000D+00 0.604262921164D-04 0.184226289392D-05  6 -1 2 25 24 21 21 4 0.39364325D-02 0.11760453D+00 0.17001940D+05 0.17001940D+05 0.17001940D+05 0.12416674D+01  1  2 11  3  6  5       21 0.224222029728D-02 0.100000000000D+01
0.313793374090D-05 0.000000000000D+00 0.000000000000D+00 0.600347075350D-04 0.000000000000D+00  6 -1 2 25 24 1 -1 4 0.39364325D-02 0.11760453D+00 0.17001940D+05 0.17001940D+05 0.17001940D+05 0.12416674D+01  1  2 12  6  6  5       21 0.768914866014D-02 0.100000000000D+01
0.133540088747D-07 0.000000000000D+00 0.000000000000D+00 0.600347075350D-04 0.348672286055D-07  6 -1 2 25 24 1 -1 4 0.39364325D-02 0.11760453D+00 0.17001940D+05 0.17001940D+05 0.17001940D+05 0.12416674D+01  1  2 11  6  6  5       21 0.327224753370D-04 0.100000000000D+01
0.313793374090D-05 0.000000000000D+00 0.000000000000D+00 0.600347075350D-04 0.000000000000D+00  6 -1 2 25 24 2 -2 4 0.39364325D-02 0.11760453D+00 0.17001940D+05 0.17001940D+05 0.17001940D+05 0.12416674D+01  1  2 12  7  6  5       21 0.768914866014D-02 0.100000000000D+01
0.148661423998D-07 0.000000000000D+00 0.000000000000D+00 0.600347075350D-04 0.400678816077D-07  6 -1 2 25 24 2 -2 4 0.39364325D-02 0.11760453D+00 0.17001940D+05 0.17001940D+05 0.17001940D+05 0.12416674D+01  1  2 11  7  6  5       21 0.364277860379D-04 0.100000000000D+01
0.313793374090D-05 0.000000000000D+00 0.000000000000D+00 0.600347075350D-04 0.000000000000D+00  6 -1 2 25 24 3 -3 4 0.39364325D-02 0.11760453D+00 0.17001940D+05 0.17001940D+05 0.17001940D+05 0.12416674D+01  1  2 12  8  6  5       21 0.768914866014D-02 0.100000000000D+01
0.313793374090D-05 0.000000000000D+00 0.000000000000D+00 0.600347075350D-04 0.000000000000D+00  6 -1 2 25 24 4 -4 4 0.39364325D-02 0.11760453D+00 0.17001940D+05 0.17001940D+05 0.17001940D+05 0.12416674D+01  1  2 12  8  6  5       21 0.768914866014D-02 0.100000000000D+01
0.159868987491D-07 0.000000000000D+00 0.000000000000D+00 0.600347075350D-04 0.323769945099D-07  6 -1 2 25 24 3 -3 4 0.39364325D-02 0.11760453D+00 0.17001940D+05 0.17001940D+05 0.17001940D+05 0.12416674D+01  1  2 11  8  6  5       21 0.391740716172D-04 0.100000000000D+01
0.159868987491D-07 0.000000000000D+00 0.000000000000D+00 0.600347075350D-04 0.323769945099D-07  6 -1 2 25 24 4 -4 4 0.39364325D-02 0.11760453D+00 0.17001940D+05 0.17001940D+05 0.17001940D+05 0.12416674D+01  1  2 11  8  6  5       21 0.391740716172D-04 0.100000000000D+01
  </mgrwgt>
  </event>
  <event>
  5     66 -.43135346E-03 0.20001023E+02 0.75467711E-02 0.11625244E+00
       -1 -1    0    0    0  501 0.00000000E+00 0.00000000E+00 0.22909935E+02 0.22912170E+02 0.32000000E+00 0.0000E+00 0.9000E+01
        2 -1    0    0  502    0 -.00000000E+00 -.00000000E+00 -.15737311E+04 0.15737311E+04 0.32000000E+00 0.0000E+00 0.9000E+01
       25  1    1    2    0    0 -.31643003E+02 -.13967053E+03 -.80248848E+03 0.82469503E+03 0.12500000E+03 0.0000E+00 0.9000E+01
       24  1    1    2    0    0 0.11659513E+02 0.13903082E+03 -.56420567E+03 0.58673739E+03 0.80419002E+02 0.0000E+00 0.9000E+01
       21  1    1    2  502  501 0.19983490E+02 0.63971269E+00 -.18412697E+03 0.18521083E+03 0.75000000E+00 0.0000E+00 0.9000E+01
#aMCatNLO 1  0  0  5  1 0.15203882D+00 0.00000000D+00  -5  6  0 0.00000000D+00 0.00000000D+00 0.00000000D+00 0.00000000D+00 0.00000000D+00
  <mgrwgt>
 -.2151367689D+01   10    2    0
 0.189883875306098D+03 0.000000000000000D+00 0.000000000000000D+00 0.189883875306098D+03
 0.189883875306098D+03 -.000000000000000D+00 -.000000000000000D+00 -.189883875306098D+03
 0.190189715446527D+03 -.316469325347016D+02 -.139670655622069D+03 -.614064173165145D+01
 0.162805481001968D+03 0.116561499636507D+02 0.139030709487098D+03 0.239375161086214D+02
 0.267725541637017D+02 0.199907825710509D+02 0.639946134970588D+00 -.177968743769698D+02
 0.000000000000000D+00 0.000000000000000D+00 0.000000000000000D+00 -.000000000000000D+00
 0.189883875306098D+03 0.000000000000000D+00 0.000000000000000D+00 0.189883875306098D+03
 0.189883875306098D+03 -.000000000000000D+00 -.000000000000000D+00 -.189883875306098D+03
 0.190188564942504D+03 -.316397922582198D+02 -.139670427047108D+03 -.614699839143267D+01
 0.162805285846582D+03 0.116622621709471D+02 0.139030905151446D+03 0.239320746915566D+02
 0.628989190897322D+00 0.555147720645781D+00 -.172984994873666D-01 -.295193449187174D+00
 0.261449106322136D+02 0.194223823666269D+02 0.656820395149538D+00 -.174898828509367D+02
0.187123624308D-03 0.000000000000D+00 0.000000000000D+00 0.438920228835D-04 0.000000000000D+00  6 -1 2 25 24 21 21 2 0.35247798D-02 0.24211265D+00 0.34433936D+05 0.34433936D+05 0.34433936D+05 0.12086651D+01  1  2  2  3  6  5       21 0.114600979128D+00 0.100000000000D+01
0.579643185551D-04 0.987478494914D-05 -.718603988125D-06 0.438920228835D-04 0.000000000000D+00  6 -1 2 25 24 21 21 4 0.35247798D-02 0.24211265D+00 0.34433936D+05 0.34433936D+05 0.34433936D+05 0.12086651D+01  1  2  3  3  6  5       21 0.518599843820D-01 0.100000000000D+01
-.315550990546D-05 0.000000000000D+00 0.000000000000D+00 0.438920228835D-04 0.000000000000D+00  6 -1 2 25 24 21 21 4 0.35247798D-02 0.24211265D+00 0.34433936D+05 0.34433936D+05 0.34433936D+05 0.12086651D+01  1  2 15  3  6  5       21 -.282319707181D-02 0.100000000000D+01
-.681558288152D-02 0.000000000000D+00 0.000000000000D+00 0.438920228835D-04 0.000000000000D+00  6 -1 2 25 24 21 21 4 0.35247798D-02 0.24211265D+00 0.34433936D+05 0.34433936D+05 0.34433936D+05 0.12086651D+01  1  2  4  3  6  5       21 -.609782070420D+01 0.100000000000D+01
-.172561427900D-04 0.000000000000D+00 0.000000000000D+00 0.438920228835D-04 0.000000000000D+00  6 -1 2 25 24 21 21 4 0.35247798D-02 0.24211265D+00 0.34433936D+05 0.34433936D+05 0.34433936D+05 0.12086651D+01  1  2  5  3  6  5       21 -.154388651138D-01 0.100000000000D+01
0.489662162540D-02 0.000000000000D+00 -.000000000000D+00 0.438920228835D-04 0.000000000000D+00  6 -1 2 25 24 21 21 4 0.35247798D-02 0.24211265D+00 0.34433936D+05 0.34433936D+05 0.34433936D+05 0.12086651D+01  1  2  6  3  6  5       21 0.438094895873D+01 0.100000000000D+01
-.162820669908D-03 0.000000000000D+00 0.000000000000D+00 0.438920228835D-04 0.000000000000D+00  6 -1 2 25 24 1 -1 4 0.35247798D-02 0.24211265D+00 0.34433936D+05 0.34433936D+05 0.34433936D+05 0.12086651D+01  1  2  5  6  6  5       21 -.145673711155D+00 0.100000000000D+01
-.162820669908D-03 0.000000000000D+00 0.000000000000D+00 0.438920228835D-04 0.000000000000D+00  6 -1 2 25 24 2 -2 4 0.35247798D-02 0.24211265D+00 0.34433936D+05 0.34433936D+05 0.34433936D+05 0.12086651D+01  1  2  5  7  6  5       21 -.145673711155D+00 0.100000000000D+01
-.162820669908D-03 0.000000000000D+00 0.000000000000D+00 0.438920228835D-04 0.000000000000D+00  6 -1 2 25 24 3 -3 4 0.35247798D-02 0.24211265D+00 0.34433936D+05 0.34433936D+05 0.34433936D+05 0.12086651D+01  1  2  5  8  6  5       21 -.145673711155D+00 0.100000000000D+01
-.162820669908D-03 0.000000000000D+00 0.000000000000D+00 0.438920228835D-04 0.000000000000D+00  6 -1 2 25 24 4 -4 4 0.35247798D-02 0.24211265D+00 0.34433936D+05 0.34433936D+05 0.34433936D+05 0.12086651D+01  1  2  5  8  6  5       21 -.145673711155D+00 0.100000000000D+01
  </mgrwgt>
  </event>
  <event>
  5     66 0.43135346E-03 0.22666342E+02 0.75467711E-02 0.12110791E+00
       -1 -1    0    0    0  501 0.00000000E+00 0.00000000E+00 0.18263243E+03 0.18263271E+03 0.32000000E+00 0.0000E+00 0.9000E+01
        2 -1    0    0  502    0 0.00000000E+00 0.00000000E+00 -.11849623E+03 0.11849666E+03 0.32000000E+00 0.0000E+00 0.9000E+01
       25  1    1    2    0    0 -.58162668E+02 -.34897188E+02 0.67970102E+02 0.15762501E+03 0.12500000E+03 0.0000E+00 0.9000E+01
       24  1    1    2    0    0 0.56106187E+02 0.57465016E+02 0.14193549E+02 0.11453735E+03 0.80419002E+02 0.0000E+00 0.9000E+01
       21  1    1    2  502  501 0.20564804E+01 -.22567828E+02 -.18027455E+02 0.28967009E+02 0.75000000E+00 0.0000E+00 0.9000E+01
#aMCatNLO 1  0  0  5  1 0.71382682D+01 0.00000000D+00  -5  6  0 0.00000000D+00 0.00000000D+00 0.00000000D+00 0.00000000D+00 0.00000000D+00
  <mgrwgt>
 0.3689737705D+00   14    2    0
 0.147110033718589D+03 0.000000000000000D+00 0.000000000000000D+00 0.147110033718589D+03
 0.147110033718589D+03 -.000000000000000D+00 -.000000000000000D+00 -.147110033718589D+03
 0.146510157264209D+03 -.581629234900763D+02 -.348943839314648D+02 0.352091249921711D+02
 0.114133857907422D+03 0.561059884010111D+02 0.574672010065852D+02 -.104384117793612D+02
 0.335760522655471D+02 0.205693508906521D+01 -.225728170751204D+02 -.247707132128099D+02
 0.000000000000000D+00 -.000000000000000D+00 0.000000000000000D+00 0.000000000000000D+00
 0.147110033718589D+03 0.000000000000000D+00 0.000000000000000D+00 0.147110033718589D+03
 0.147110033718589D+03 -.000000000000000D+00 -.000000000000000D+00 -.147110033718589D+03
 0.146397854402386D+03 -.579140192450993D+02 -.376258604962608D+02 0.322116868607716D+02
 0.113414828294674D+03 0.562993522957452D+02 0.553452245533819D+02 -.127670032879758D+02
 0.272690120235766D+02 0.823380685516721D+01 -.193675848783597D+02 -.173407063695023D+02
 0.713837271654196D+01 -.661913990581309D+01 0.164822082123864D+01 -.210397720329352D+01
0.444311016293D-03 0.000000000000D+00 0.000000000000D+00 0.417827754152D-04 0.000000000000D+00  6 -1 2 25 24 21 21 2 0.28097352D-01 0.18230244D-01 0.19395910D+05 0.19395910D+05 0.19395910D+05 0.12352951D+01  1  2  2  3  6  5       21 0.262980381032D+00 0.100000000000D+01
0.741879682212D-04 0.234469364980D-04 -.170627129234D-05 0.417827754152D-04 0.000000000000D+00  6 -1 2 25 24 21 21 4 0.28097352D-01 0.18230244D-01 0.19395910D+05 0.19395910D+05 0.19395910D+05 0.12352951D+01  1  2  3  3  6  5       21 0.670056175108D-01 0.100000000000D+01
0.969582359512D-05 0.000000000000D+00 0.000000000000D+00 0.417827754152D-04 0.000000000000D+00  6 -1 2 25 24 21 21 4 0.28097352D-01 0.18230244D-01 0.19395910D+05 0.19395910D+05 0.19395910D+05 0.12352951D+01  1  2 15  3  6  5       21 0.875714300909D-02 0.100000000000D+01
0.239892722771D-03 0.000000000000D+00 0.000000000000D+00 0.416714102519D-04 0.000000000000D+00  6 -1 2 25 24 21 21 4 0.28097352D-01 0.18230244D-01 0.20074714D+05 0.20074714D+05 0.20074714D+05 0.12336478D+01  1  2 12  3  6  5       21 0.215707845445D+00 0.100000000000D+01
-.235675478780D-03 0.000000000000D+00 0.000000000000D+00 0.417827754152D-04 0.000000000000D+00  6 -1 2 25 24 21 21 4 0.28097352D-01 0.18230244D-01 0.19395910D+05 0.19395910D+05 0.19395910D+05 0.12352951D+01  1  2  4  3  6  5       21 -.212859057424D+00 0.100000000000D+01
0.944426126212D-05 0.000000000000D+00 0.000000000000D+00 0.417827754152D-04 0.242486779431D-05  6 -1 2 25 24 21 21 4 0.28097352D-01 0.18230244D-01 0.20074714D+05 0.20074714D+05 0.20074714D+05 0.12336478D+01  1  2 11  3  6  5       21 0.849213442216D-02 0.100000000000D+01
0.500148478530D-05 0.000000000000D+00 0.000000000000D+00 0.416714102519D-04 0.000000000000D+00  6 -1 2 25 24 1 -1 4 0.28097352D-01 0.18230244D-01 0.20074714D+05 0.20074714D+05 0.20074714D+05 0.12336478D+01  1  2 12  6  6  5       21 0.449725816857D-02 0.100000000000D+01
0.243704280403D-06 0.000000000000D+00 0.000000000000D+00 0.416714102519D-04 0.943716970306D-07  6 -1 2 25 24 1 -1 4 0.28097352D-01 0.18230244D-01 0.20074714D+05 0.20074714D+05 0.20074714D+05 0.12336478D+01  1  2 11  6  6  5       21 0.219135139424D-03 0.100000000000D+01
0.500148478530D-05 0.000000000000D+00 0.000000000000D+00 0.416714102519D-04 0.000000000000D+00  6 -1 2 25 24 2 -2 4 0.28097352D-01 0.18230244D-01 0.20074714D+05 0.20074714D+05 0.20074714D+05 0.12336478D+01  1  2 12  7  6  5       21 0.449725816857D-02 0.100000000000D+01
0.249777049785D-06 0.000000000000D+00 0.000000000000D+00 0.416714102519D-04 0.960250982817D-07  6 -1 2 25 24 2 -2 4 0.28097352D-01 0.18230244D-01 0.20074714D+05 0.20074714D+05 0.20074714D+05 0.12336478D+01  1  2 11  7  6  5       21 0.224595680220D-03 0.100000000000D+01
0.500148478530D-05 0.000000000000D+00 0.000000000000D+00 0.416714102519D-04 0.000000000000D+00  6 -1 2 25 24 3 -3 4 0.28097352D-01 0.18230244D-01 0.20074714D+05 0.20074714D+05 0.20074714D+05 0.12336478D+01  1  2 12  8  6  5       21 0.449725816857D-02 0.100000000000D+01
0.500148478530D-05 0.000000000000D+00 0.000000000000D+00 0.416714102519D-04 0.000000000000D+00  6 -1 2 25 24 4 -4 4 0.28097352D-01 0.18230244D-01 0.20074714D+05 0.20074714D+05 0.20074714D+05 0.12336478D+01  1  2 12  8  6  5       21 0.449725816857D-02 0.100000000000D+01
0.254087445251D-06 0.000000000000D+00 0.000000000000D+00 0.416714102519D-04 0.914171838462D-07  6 -1 2 25 24 3 -3 4 0.28097352D-01 0.18230244D-01 0.20074714D+05 0.20074714D+05 0.20074714D+05 0.12336478D+01  1  2 11  8  6  5       21 0.228471521506D-03 0.100000000000D+01
0.254087445251D-06 0.000000000000D+00 0.000000000000D+00 0.416714102519D-04 0.914171838462D-07  6 -1 2 25 24 4 -4 4 0.28097352D-01 0.18230244D-01 0.20074714D+05 0.20074714D+05 0.20074714D+05 0.12336478D+01  1  2 11  8  6  5       21 0.228471521506D-03 0.100000000000D+01
  </mgrwgt>
  </event>
  <event>
  5     66 0.43135346E-03 0.35233706E+02 0.75467711E-02 0.12363579E+00
       -1 -1    0    0    0  501 0.00000000E+00 0.00000000E+00 0.17363565E+02 0.17366513E+02 0.32000000E+00 0.0000E+00 0.9000E+01
        2 -1    0    0  502    0 -.00000000E+00 -.00000000E+00 -.92882309E+03 0.92882314E+03 0.32000000E+00 0.0000E+00 0.9000E+01
       25  1    1    2    0    0 -.19211147E+02 -.84113362E+01 -.54751285E+03 0.56199212E+03 0.12500000E+03 0.0000E+00 0.9000E+01
       24  1    1    2    0    0 0.10528234E+02 -.26744259E+02 -.28092303E+03 0.29361721E+03 0.80419002E+02 0.0000E+00 0.9000E+01
       21  1    1    2  502  501 0.86829136E+01 0.35155596E+02 -.83023639E+02 0.90580329E+02 0.75000000E+00 0.0000E+00 0.9000E+01
#aMCatNLO 1  0  0  5  2 0.14197630D+03 0.00000000D+00  -5  6  0 0.00000000D+00 0.00000000D+00 0.00000000D+00 0.00000000D+00 0.00000000D+00
  <mgrwgt>
 0.3625176739D+00   13    2    0
 0.127000397438419D+03 0.000000000000000D+00 0.000000000000000D+00 0.127000397438419D+03
 0.127000397438419D+03 -.000000000000000D+00 -.000000000000000D+00 -.127000397438419D+03
 0.128800681865348D+03 -.192119411514708D+02 -.841455030875354D+01 -.229065996881340D+02
 0.856994379768569D+02 0.105277055530046D+02 -.267463979372649D+02 0.713970085853192D+01
 0.395006750346340D+02 0.868423559846615D+01 0.351609482460185D+02 0.157668988296021D+02
 0.000000000000000D+00 0.000000000000000D+00 0.000000000000000D+00 0.000000000000000D+00
 0.127000397438419D+03 0.000000000000000D+00 0.000000000000000D+00 0.127000397438419D+03
 0.127000397438419D+03 -.000000000000000D+00 -.000000000000000D+00 -.127000397438419D+03
 0.128795248117595D+03 -.192045581863452D+02 -.838465797663774D+01 -.228931953461079D+02
 0.856945799159423D+02 0.105326178823916D+02 -.267265087763381D+02 0.714861957101782D+01
 0.269855060206362D+00 -.101231049378628D+00 0.249968211787004D+00 0.948268193633309D-02
 0.392411117830947D+02 0.877317135333223D+01 0.348611985411889D+02 0.157350930931537D+02
0.149868524155D-03 0.000000000000D+00 0.000000000000D+00 0.204376013576D-04 0.000000000000D+00  6 -1 2 25 24 21 21 2 0.26715487D-02 0.14289609D+00 0.15421470D+05 0.15421470D+05 0.15421470D+05 0.12464529D+01  1  2  2  3  6  5       21 0.328777763925D+00 0.100000000000D+01
0.725075045918D-05 0.790877930110D-05 -.575534594043D-06 0.204376013576D-04 0.000000000000D+00  6 -1 2 25 24 21 21 4 0.26715487D-02 0.14289609D+00 0.15421470D+05 0.15421470D+05 0.15421470D+05 0.12464529D+01  1  2  3  3  6  5       21 0.247130712610D-01 0.100000000000D+01
0.511100420054D-05 0.000000000000D+00 0.000000000000D+00 0.204376013576D-04 0.000000000000D+00  6 -1 2 25 24 21 21 4 0.26715487D-02 0.14289609D+00 0.15421470D+05 0.15421470D+05 0.15421470D+05 0.12464529D+01  1  2 15  3  6  5       21 0.174200742026D-01 0.100000000000D+01
-.324065878159D-03 0.000000000000D+00 0.000000000000D+00 0.204376013576D-04 0.000000000000D+00  6 -1 2 25 24 21 21 4 0.26715487D-02 0.14289609D+00 0.15421470D+05 0.15421470D+05 0.15421470D+05 0.12464529D+01  1  2  4  3  6  5       21 -.110452886019D+01 0.100000000000D+01
0.319363699792D-03 0.000000000000D+00 -.000000000000D+00 0.204376013576D-04 0.000000000000D+00  6 -1 2 25 24 21 21 4 0.26715487D-02 0.14289609D+00 0.15421470D+05 0.15421470D+05 0.15421470D+05 0.12464529D+01  1  2  6  3  6  5       21 0.108850220616D+01 0.100000000000D+01
-.178666221651D-04 0.000000000000D+00 0.000000000000D+00 0.204376013576D-04 0.000000000000D+00  6 -1 2 25 24 1 -1 4 0.26715487D-02 0.14289609D+00 0.15421470D+05 0.15421470D+05 0.15421470D+05 0.12464529D+01  1  2  5  6  6  5       21 -.608956423541D-01 0.100000000000D+01
0.185328374855D-04 0.000000000000D+00 0.000000000000D+00 0.204376013576D-04 0.602623062596D-05  6 -1 2 25 24 1 -1 4 0.26715487D-02 0.14289609D+00 0.15420432D+05 0.15420432D+05 0.15420432D+05 0.12464562D+01  1  2 11  6  6  5       21 0.631668651273D-01 0.100000000000D+01
-.178666221651D-04 0.000000000000D+00 0.000000000000D+00 0.204376013576D-04 0.000000000000D+00  6 -1 2 25 24 2 -2 4 0.26715487D-02 0.14289609D+00 0.15421470D+05 0.15421470D+05 0.15421470D+05 0.12464529D+01  1  2  5  7  6  5       21 -.608956423541D-01 0.100000000000D+01
0.181215980786D-04 0.000000000000D+00 0.000000000000D+00 0.204376013576D-04 0.601022018419D-05  6 -1 2 25 24 2 -2 4 0.26715487D-02 0.14289609D+00 0.15420432D+05 0.15420432D+05 0.15420432D+05 0.12464562D+01  1  2 11  7  6  5       21 0.617652068992D-01 0.100000000000D+01
-.178666221651D-04 0.000000000000D+00 0.000000000000D+00 0.204376013576D-04 0.000000000000D+00  6 -1 2 25 24 3 -3 4 0.26715487D-02 0.14289609D+00 0.15421470D+05 0.15421470D+05 0.15421470D+05 0.12464529D+01  1  2  5  8  6  5       21 -.608956423541D-01 0.100000000000D+01
-.178666221651D-04 0.000000000000D+00 0.000000000000D+00 0.204376013576D-04 0.000000000000D+00  6 -1 2 25 24 4 -4 4 0.26715487D-02 0.14289609D+00 0.15421470D+05 0.15421470D+05 0.15421470D+05 0.12464529D+01  1  2  5  8  6  5       21 -.608956423541D-01 0.100000000000D+01
0.185255298537D-04 0.000000000000D+00 0.000000000000D+00 0.204376013576D-04 0.602369834892D-05  6 -1 2 25 24 3 -3 4 0.26715487D-02 0.14289609D+00 0.15420432D+05 0.15420432D+05 0.15420432D+05 0.12464562D+01  1  2 11  8  6  5       21 0.631419579757D-01 0.100000000000D+01
0.185255298537D-04 0.000000000000D+00 0.000000000000D+00 0.204376013576D-04 0.602369834892D-05  6 -1 2 25 24 4 -4 4 0.26715487D-02 0.14289609D+00 0.15420432D+05 0.15420432D+05 0.15420432D+05 0.12464562D+01  1  2 11  8  6  5       21 0.631419579757D-01 0.100000000000D+01
  </mgrwgt>
  </event>
  <event>
  5     66 0.43135346E-03 0.40048282E+02 0.75467711E-02 0.12264578E+00
       -1 -1    0    0    0  501 0.00000000E+00 0.00000000E+00 0.10842818E+02 0.10847539E+02 0.32000000E+00 0.0000E+00 0.9000E+01
        2 -1    0    0  502    0 -.00000000E+00 -.00000000E+00 -.18613342E+04 0.18613343E+04 0.32000000E+00 0.0000E+00 0.9000E+01
       25  1    1    2    0    0 -.38684930E+02 -.21177944E+01 -.97912233E+03 0.98782921E+03 0.12500000E+03 0.0000E+00 0.9000E+01
       24  1    1    2    0    0 0.18941670E+02 0.36956974E+02 -.35229446E+03 0.36373508E+03 0.80419002E+02 0.0000E+00 0.9000E+01
       21  1    1    2  502  501 0.19743260E+02 -.34839179E+02 -.51907462E+03 0.52061751E+03 0.75000000E+00 0.0000E+00 0.9000E+01
#aMCatNLO 1  0  0  5  2 0.13646395D+01 0.00000000D+00  -5  6  0 0.00000000D+00 0.00000000D+00 0.00000000D+00 0.00000000D+00 0.00000000D+00
  <mgrwgt>
 0.2374505874D+00   25    2    0
 0.142079389381683D+03 0.000000000000000D+00 0.000000000000000D+00 0.142079389381683D+03
 0.142079389381683D+03 -.000000000000000D+00 -.000000000000000D+00 -.142079389381683D+03
 0.132103669187814D+03 -.386859712520141D+02 -.211595632097067D+01 -.180360131409233D+02
 0.102268820536406D+03 0.189408637702273D+02 0.369583965669449D+02 0.476131946247595D+02
 0.497862890391459D+02 0.197451074817868D+02 -.348424402459742D+02 -.295771814838362D+02
 0.000000000000000D+00 0.000000000000000D+00 -.000000000000000D+00 0.000000000000000D+00
 0.142079389381683D+03 0.000000000000000D+00 0.000000000000000D+00 0.142079389381683D+03
 0.142079389381683D+03 -.000000000000000D+00 -.000000000000000D+00 -.142079389381683D+03
 0.132101949989934D+03 -.386570142454619D+02 -.216705418262711D+01 -.180793892855612D+02
 0.102243058496340D+03 0.189632783268880D+02 0.369188435864502D+02 0.475796187421847D+02
 0.428633961049241D+02 0.172743126123684D+02 -.290287346840662D+02 -.263856288926355D+02
 0.695037417216778D+01 0.241942330620554D+01 -.572305471975692D+01 -.311460056398800D+01
0.315293478922D-04 0.000000000000D+00 0.000000000000D+00 0.145639743857D-04 0.000000000000D+00  6 -1 2 25 24 21 21 2 0.16684911D-02 0.28635948D+00 0.17085631D+05 0.17085631D+05 0.17085631D+05 0.12414280D+01  1  2  2  3  6  5       21 0.426323015369D-01 0.100000000000D+01
0.841525788731D-06 0.166384939995D-05 -.121080997774D-06 0.145639743857D-04 0.000000000000D+00  6 -1 2 25 24 21 21 4 0.16684911D-02 0.28635948D+00 0.17085631D+05 0.17085631D+05 0.17085631D+05 0.12414280D+01  1  2  3  3  6  5       21 0.175361518142D-02 0.100000000000D+01
0.204479086169D-06 0.000000000000D+00 0.000000000000D+00 0.145639743857D-04 0.000000000000D+00  6 -1 2 25 24 21 21 4 0.16684911D-02 0.28635948D+00 0.17085631D+05 0.17085631D+05 0.17085631D+05 0.12414280D+01  1  2 15  3  6  5       21 0.426104148667D-03 0.100000000000D+01
0.658799953235D-07 0.000000000000D+00 0.000000000000D+00 0.145646242826D-04 0.000000000000D+00  6 -1 2 25 24 21 21 4 0.16684911D-02 0.28635948D+00 0.17075922D+05 0.17075922D+05 0.17075922D+05 0.12414557D+01  1  2 12  3  6  5       21 0.137295218984D-03 0.100000000000D+01
0.653822284773D-07 0.000000000000D+00 0.000000000000D+00 0.145646242826D-04 0.000000000000D+00  6 -1 2 25 24 21 21 4 0.16684911D-02 0.28635948D+00 0.17075922D+05 0.17075922D+05 0.17075922D+05 0.12414557D+01  1  2 12  3  6  5       21 0.136257862988D-03 0.100000000000D+01
-.290954214903D-02 0.000000000000D+00 0.000000000000D+00 0.145639743857D-04 0.000000000000D+00  6 -1 2 25 24 21 21 4 0.16684911D-02 0.28635948D+00 0.17085631D+05 0.17085631D+05 0.17085631D+05 0.12414280D+01  1  2  4  3  6  5       21 -.606305516936D+01 0.100000000000D+01
-.271043164390D-02 0.000000000000D+00 0.000000000000D+00 0.145639743857D-04 0.000000000000D+00  6 -1 2 25 24 21 21 4 0.16684911D-02 0.28635948D+00 0.17085631D+05 0.17085631D+05 0.17085631D+05 0.12414280D+01  1  2  5  3  6  5       21 -.564813834893D+01 0.100000000000D+01
0.321148507898D-02 0.000000000000D+00 -.000000000000D+00 0.145639743857D-04 0.000000000000D+00  6 -1 2 25 24 21 21 4 0.16684911D-02 0.28635948D+00 0.17085631D+05 0.17085631D+05 0.17085631D+05 0.12414280D+01  1  2  6  3  6  5       21 0.669225954191D+01 0.100000000000D+01
0.250578876823D-02 0.000000000000D+00 0.000000000000D+00 0.145639743857D-04 0.518535399408D-04  6 -1 2 25 24 21 21 4 0.16684911D-02 0.28635948D+00 0.17075922D+05 0.17075922D+05 0.17075922D+05 0.12414557D+01  1  2 11  3  6  5       21 0.522211357139D+01 0.100000000000D+01
0.117024365637D-08 0.000000000000D+00 0.000000000000D+00 0.145646242826D-04 0.000000000000D+00  6 -1 2 25 24 1 -1 4 0.16684911D-02 0.28635948D+00 0.17075922D+05 0.17075922D+05 0.17075922D+05 0.12414557D+01  1  2 12  6  6  5       21 0.243881102719D-05 0.100000000000D+01
0.116510511948D-08 0.000000000000D+00 0.000000000000D+00 0.145646242826D-04 0.000000000000D+00  6 -1 2 25 24 1 -1 4 0.16684911D-02 0.28635948D+00 0.17075922D+05 0.17075922D+05 0.17075922D+05 0.12414557D+01  1  2 12  6  6  5       21 0.242810221423D-05 0.100000000000D+01
-.236645464737D-04 0.000000000000D+00 0.000000000000D+00 0.145639743857D-04 0.000000000000D+00  6 -1 2 25 24 1 -1 4 0.16684911D-02 0.28635948D+00 0.17085631D+05 0.17085631D+05 0.17085631D+05 0.12414280D+01  1  2  5  6  6  5       21 -.493134120350D-01 0.100000000000D+01
0.222173638803D-04 0.000000000000D+00 0.000000000000D+00 0.145639743857D-04 0.896934605372D-06  6 -1 2 25 24 1 -1 4 0.16684911D-02 0.28635948D+00 0.17075922D+05 0.17075922D+05 0.17075922D+05 0.12414557D+01  1  2 11  6  6  5       21 0.463014276826D-01 0.100000000000D+01
0.117024365637D-08 0.000000000000D+00 0.000000000000D+00 0.145646242826D-04 0.000000000000D+00  6 -1 2 25 24 2 -2 4 0.16684911D-02 0.28635948D+00 0.17075922D+05 0.17075922D+05 0.17075922D+05 0.12414557D+01  1  2 12  7  6  5       21 0.243881102719D-05 0.100000000000D+01
0.116510511948D-08 0.000000000000D+00 0.000000000000D+00 0.145646242826D-04 0.000000000000D+00  6 -1 2 25 24 2 -2 4 0.16684911D-02 0.28635948D+00 0.17075922D+05 0.17075922D+05 0.17075922D+05 0.12414557D+01  1  2 12  7  6  5       21 0.242810221423D-05 0.100000000000D+01
-.236645464737D-04 0.000000000000D+00 0.000000000000D+00 0.145639743857D-04 0.000000000000D+00  6 -1 2 25 24 2 -2 4 0.16684911D-02 0.28635948D+00 0.17085631D+05 0.17085631D+05 0.17085631D+05 0.12414280D+01  1  2  5  7  6  5       21 -.493134120350D-01 0.100000000000D+01
0.224723162413D-04 0.000000000000D+00 0.000000000000D+00 0.145639743857D-04 0.907036007742D-06  6 -1 2 25 24 2 -2 4 0.16684911D-02 0.28635948D+00 0.17075922D+05 0.17075922D+05 0.17075922D+05 0.12414557D+01  1  2 11  7  6  5       21 0.468327534677D-01 0.100000000000D+01
0.117024365637D-08 0.000000000000D+00 0.000000000000D+00 0.145646242826D-04 0.000000000000D+00  6 -1 2 25 24 3 -3 4 0.16684911D-02 0.28635948D+00 0.17075922D+05 0.17075922D+05 0.17075922D+05 0.12414557D+01  1  2 12  8  6  5       21 0.243881102719D-05 0.100000000000D+01
0.117024365637D-08 0.000000000000D+00 0.000000000000D+00 0.145646242826D-04 0.000000000000D+00  6 -1 2 25 24 4 -4 4 0.16684911D-02 0.28635948D+00 0.17075922D+05 0.17075922D+05 0.17075922D+05 0.12414557D+01  1  2 12  8  6  5       21 0.243881102719D-05 0.100000000000D+01
0.116510511948D-08 0.000000000000D+00 0.000000000000D+00 0.145646242826D-04 0.000000000000D+00  6 -1 2 25 24 3 -3 4 0.16684911D-02 0.28635948D+00 0.17075922D+05 0.17075922D+05 0.17075922D+05 0.12414557D+01  1  2 12  8  6  5       21 0.242810221423D-05 0.100000000000D+01
0.116510511948D-08 0.000000000000D+00 0.000000000000D+00 0.145646242826D-04 0.000000000000D+00  6 -1 2 25 24 4 -4 4 0.16684911D-02 0.28635948D+00 0.17075922D+05 0.17075922D+05 0.17075922D+05 0.12414557D+01  1  2 12  8  6  5       21 0.242810221423D-05 0.100000000000D+01
-.236645464737D-04 0.000000000000D+00 0.000000000000D+00 0.145639743857D-04 0.000000000000D+00  6 -1 2 25 24 3 -3 4 0.16684911D-02 0.28635948D+00 0.17085631D+05 0.17085631D+05 0.17085631D+05 0.12414280D+01  1  2  5  8  6  5       21 -.493134120350D-01 0.100000000000D+01
-.236645464737D-04 0.000000000000D+00 0.000000000000D+00 0.145639743857D-04 0.000000000000D+00  6 -1 2 25 24 4 -4 4 0.16684911D-02 0.28635948D+00 0.17085631D+05 0.17085631D+05 0.17085631D+05 0.12414280D+01  1  2  5  8  6  5       21 -.493134120350D-01 0.100000000000D+01
0.223811248967D-04 0.000000000000D+00 0.000000000000D+00 0.145639743857D-04 0.903181317666D-06  6 -1 2 25 24 3 -3 4 0.16684911D-02 0.28635948D+00 0.17075922D+05 0.17075922D+05 0.17075922D+05 0.12414557D+01  1  2 11  8  6  5       21 0.466427088939D-01 0.100000000000D+01
0.223811248967D-04 0.000000000000D+00 0.000000000000D+00 0.145639743857D-04 0.903181317666D-06  6 -1 2 25 24 4 -4 4 0.16684911D-02 0.28635948D+00 0.17075922D+05 0.17075922D+05 0.17075922D+05 0.12414557D+01  1  2 11  8  6  5       21 0.466427088939D-01 0.100000000000D+01
  </mgrwgt>
  </event>
  <event>
  5     66 0.43135346E-03 0.20809634E+02 0.75467711E-02 0.11999116E+00
       -1 -1    0    0    0  501 0.00000000E+00 0.00000000E+00 0.19875208E+02 0.19877784E+02 0.32000000E+00 0.0000E+00 0.9000E+01
        2 -1    0    0  502    0 -.00000000E+00 -.00000000E+00 -.11417870E+04 0.11417871E+04 0.32000000E+00 0.0000E+00 0.9000E+01
       25  1    1    2    0    0 -.76755376E+02 -.39177873E+02 -.57251544E+03 0.59230501E+03 0.12500000E+03 0.0000E+00 0.9000E+01
       24  1    1    2    0    0 0.80153200E+02 0.59695914E+02 -.48542946E+03 0.50209274E+03 0.80419002E+02 0.0000E+00 0.9000E+01
       21  1    1    2  502  501 -.33978236E+01 -.20518041E+02 -.63966908E+02 0.67267102E+02 0.75000000E+00 0.0000E+00 0.9000E+01
#aMCatNLO 1  0  0  5  1 0.65332028D+01 0.00000000D+00  -5  6  0 0.00000000D+00 0.00000000D+00 0.00000000D+00 0.00000000D+00 0.00000000D+00
  <mgrwgt>
 0.6428181672D+00   14    2    0
 0.150647856469435D+03 0.000000000000000D+00 0.000000000000000D+00 0.150647856469435D+03
 0.150647856469435D+03 -.000000000000000D+00 -.000000000000000D+00 -.150647856469435D+03
 0.151835576226134D+03 -.767543001730675D+02 -.391713738480996D+02 -.185015775468510D+01
 0.128297150335804D+03 0.801541093253973D+02 0.597014048642215D+02 -.200096112104319D+01
 0.211629863769313D+02 -.339980915232978D+01 -.205300310161218D+02 0.385111887572827D+01
 0.000000000000000D+00 0.000000000000000D+00 0.000000000000000D+00 0.000000000000000D+00
 0.150647856469435D+03 0.000000000000000D+00 0.000000000000000D+00 0.150647856469435D+03
 0.150647856469435D+03 -.000000000000000D+00 -.000000000000000D+00 -.150647856469435D+03
 0.153429993198714D+03 -.775015486830807D+02 -.436836962756126D+02 -.100371528899565D+01
 0.126187758615345D+03 0.795311649514449D+02 0.559397033258285D+02 -.129532361918139D+01
 0.660229144198052D+01 0.490073731421546D+01 -.650447812511546D+00 -.437606486527617D+01
 0.150756696828303D+02 -.693035358257965D+01 -.116055592377044D+02 0.667510377345319D+01
0.362663922420D-03 0.000000000000D+00 0.000000000000D+00 0.467369939164D-04 0.000000000000D+00  6 -1 2 25 24 21 21 2 0.30579259D-02 0.17565974D+00 0.22637532D+05 0.22637532D+05 0.22637532D+05 0.12279468D+01  1  2  2  3  6  5       21 0.480339783589D+00 0.100000000000D+01
0.995675308801D-04 0.191383009812D-04 -.139272495370D-05 0.467369939164D-04 0.000000000000D+00  6 -1 2 25 24 21 21 4 0.30579259D-02 0.17565974D+00 0.22637532D+05 0.22637532D+05 0.22637532D+05 0.12279468D+01  1  2  3  3  6  5       21 0.198847929162D+00 0.100000000000D+01
0.103763169007D-04 0.000000000000D+00 0.000000000000D+00 0.467369939164D-04 0.000000000000D+00  6 -1 2 25 24 21 21 4 0.30579259D-02 0.17565974D+00 0.22637532D+05 0.22637532D+05 0.22637532D+05 0.12279468D+01  1  2 15  3  6  5       21 0.207227106045D-01 0.100000000000D+01
0.472986626656D-04 0.000000000000D+00 0.000000000000D+00 0.468052679941D-04 0.000000000000D+00  6 -1 2 25 24 21 21 4 0.30579259D-02 0.17565974D+00 0.22211265D+05 0.22211265D+05 0.22211265D+05 0.12288434D+01  1  2 12  3  6  5       21 0.946964410751D-01 0.100000000000D+01
0.501097204701D-04 0.000000000000D+00 0.000000000000D+00 0.468052679941D-04 0.000000000000D+00  6 -1 2 25 24 21 21 4 0.30579259D-02 0.17565974D+00 0.22211265D+05 0.22211265D+05 0.22211265D+05 0.12288434D+01  1  2 12  3  6  5       21 0.100324447339D+00 0.100000000000D+01
-.156359487752D-03 0.000000000000D+00 0.000000000000D+00 0.467369939164D-04 0.000000000000D+00  6 -1 2 25 24 21 21 4 0.30579259D-02 0.17565974D+00 0.22637532D+05 0.22637532D+05 0.22637532D+05 0.12279468D+01  1  2  4  3  6  5       21 -.312268066402D+00 0.100000000000D+01
0.369546072825D-05 0.000000000000D+00 0.000000000000D+00 0.468052679941D-04 0.000000000000D+00  6 -1 2 25 24 1 -1 4 0.30579259D-02 0.17565974D+00 0.22211265D+05 0.22211265D+05 0.22211265D+05 0.12288434D+01  1  2 12  6  6  5       21 0.739866540355D-02 0.100000000000D+01
0.381603422507D-05 0.000000000000D+00 0.000000000000D+00 0.468052679941D-04 0.000000000000D+00  6 -1 2 25 24 1 -1 4 0.30579259D-02 0.17565974D+00 0.22211265D+05 0.22211265D+05 0.22211265D+05 0.12288434D+01  1  2 12  6  6  5       21 0.764006506252D-02 0.100000000000D+01
0.369546072825D-05 0.000000000000D+00 0.000000000000D+00 0.468052679941D-04 0.000000000000D+00  6 -1 2 25 24 2 -2 4 0.30579259D-02 0.17565974D+00 0.22211265D+05 0.22211265D+05 0.22211265D+05 0.12288434D+01  1  2 12  7  6  5       21 0.739866540355D-02 0.100000000000D+01
0.381603422507D-05 0.000000000000D+00 0.000000000000D+00 0.468052679941D-04 0.000000000000D+00  6 -1 2 25 24 2 -2 4 0.30579259D-02 0.17565974D+00 0.22211265D+05 0.22211265D+05 0.22211265D+05 0.12288434D+01  1  2 12  7  6  5       21 0.764006506252D-02 0.100000000000D+01
0.369546072825D-05 0.000000000000D+00 0.000000000000D+00 0.468052679941D-04 0.000000000000D+00  6 -1 2 25 24 3 -3 4 0.30579259D-02 0.17565974D+00 0.22211265D+05 0.22211265D+05 0.22211265D+05 0.12288434D+01  1  2 12  8  6  5       21 0.739866540355D-02 0.100000000000D+01
0.369546072825D-05 0.000000000000D+00 0.000000000000D+00 0.468052679941D-04 0.000000000000D+00  6 -1 2 25 24 4 -4 4 0.30579259D-02 0.17565974D+00 0.22211265D+05 0.22211265D+05 0.22211265D+05 0.12288434D+01  1  2 12  8  6  5       21 0.739866540355D-02 0.100000000000D+01
0.381603422507D-05 0.000000000000D+00 0.000000000000D+00 0.468052679941D-04 0.000000000000D+00  6 -1 2 25 24 3 -3 4 0.30579259D-02 0.17565974D+00 0.22211265D+05 0.22211265D+05 0.22211265D+05 0.12288434D+01  1  2 12  8  6  5       21 0.764006506252D-02 0.100000000000D+01
0.381603422507D-05 0.000000000000D+00 0.000000000000D+00 0.468052679941D-04 0.000000000000D+00  6 -1 2 25 24 4 -4 4 0.30579259D-02 0.17565974D+00 0.22211265D+05 0.22211265D+05 0.22211265D+05 0.12288434D+01  1  2 12  8  6  5       21 0.764006506252D-02 0.100000000000D+01
  </mgrwgt>
  </event>
  <event>
  5     66 0.43135346E-03 0.24287764E+02 0.75467711E-02 0.10706532E+00
       -1 -1    0    0    0  501 0.00000000E+00 0.00000000E+00 0.59797393E+03 0.59797402E+03 0.32000000E+00 0.0000E+00 0.9000E+01
        2 -1    0    0  502    0 0.00000000E+00 0.00000000E+00 -.47387888E+02 0.47388968E+02 0.32000000E+00 0.0000E+00 0.9000E+01
       25  1    1    2    0    0 0.70599333E+02 0.51086619E+02 0.14526556E+03 0.21052599E+03 0.12500000E+03 0.0000E+00 0.9000E+01
       24  1    1    2    0    0 -.57502138E+02 -.71529871E+02 0.38255778E+03 0.40154786E+03 0.80419002E+02 0.0000E+00 0.9000E+01
       21  1    1    2  502  501 -.13097196E+02 0.20443252E+02 0.22762701E+02 0.33289129E+02 0.75000000E+00 0.0000E+00 0.9000E+01
#aMCatNLO 1  0  0  2  5 0.42826339D+01 0.00000000D+00  -5  6  0 0.00000000D+00 0.00000000D+00 0.00000000D+00 0.00000000D+00 0.00000000D+00
  <mgrwgt>
 0.2706965516D+00    5    4    0
 0.168336263996146D+03 0.000000000000000D+00 0.000000000000000D+00 0.168336263996146D+03
 0.168336263996146D+03 0.000000000000000D+00 0.000000000000000D+00 -.168336263996146D+03
 0.165989660108822D+03 0.706019044281719D+02 0.510826062977149D+02 -.658293679750166D+02
 0.144097790603806D+03 -.574999057737201D+02 -.715333548706964D+02 0.766400501010026D+02
 0.265850772796634D+02 -.131019986544518D+02 0.204507485729815D+02 -.108106821259861D+02
 0.000000000000000D+00 0.000000000000000D+00 0.000000000000000D+00 -.000000000000000D+00
 0.284278237929889D+03 0.000000000000000D+00 0.000000000000000D+00 0.284278237929889D+03
 0.461610665959699D+03 0.000000000000000D+00 0.000000000000000D+00 -.461610665959699D+03
 0.145079877887437D+03 -.300737504560834D+02 0.136100996818077D+02 -.658293679750166D+02
 0.244947234305685D+03 -.183411825386677D+03 -.118399056873256D+03 0.766400501010026D+02
 0.378193503907099D+02 -.339460773608614D+02 0.126923696667165D+02 -.108106821259861D+02
 0.318042441305756D+03 0.247431653203621D+03 0.920965875247322D+02 -.177332428029810D+03
 0.168336263996146D+03 0.000000000000000D+00 0.000000000000000D+00 0.168336263996146D+03
 0.168336263996146D+03 0.000000000000000D+00 0.000000000000000D+00 -.168336263996146D+03
 0.165989660108822D+03 0.706019044281719D+02 0.510826062977149D+02 -.658293679750166D+02
 0.144097790603806D+03 -.574999057737201D+02 -.715333548706964D+02 0.766400501010026D+02
 0.000000000000000D+00 0.000000000000000D+00 0.000000000000000D+00 -.000000000000000D+00
 0.265850772796634D+02 -.131019986544518D+02 0.204507485729815D+02 -.108106821259861D+02
 0.284278237929889D+03 0.000000000000000D+00 0.000000000000000D+00 0.284278237929889D+03
 0.461610665959699D+03 0.000000000000000D+00 0.000000000000000D+00 -.461610665959699D+03
 0.145079877887437D+03 -.300737504560834D+02 0.136100996818077D+02 -.658293679750166D+02
 0.244947234305685D+03 -.183411825386677D+03 -.118399056873256D+03 0.766400501010026D+02
 0.318042441305756D+03 0.247431653203621D+03 0.920965875247322D+02 -.177332428029810D+03
 0.378193503907099D+02 -.339460773608614D+02 0.126923696667165D+02 -.108106821259861D+02
0.833167020572D-03 0.000000000000D+00 0.000000000000D+00 0.262514103669D-04 0.000000000000D+00  6 -1 2 25 24 21 21 2 0.91996079D-01 0.72905340D-02 0.22304276D+05 0.22304276D+05 0.22304276D+05 0.12286461D+01  1  2  2  2  6  2        2 0.163642944378D+00 0.100000000000D+01
0.167276176120D-03 0.439674316126D-04 -.319958073691D-05 0.262514103669D-04 0.000000000000D+00  6 -1 2 25 24 21 21 4 0.91996079D-01 0.72905340D-02 0.22304276D+05 0.22304276D+05 0.22304276D+05 0.12286461D+01  1  2  3  2  6  2        2 0.495967198071D-01 0.100000000000D+01
0.913583195384D-05 0.000000000000D+00 0.000000000000D+00 0.262514103669D-04 0.000000000000D+00  6 -1 2 25 24 21 21 4 0.91996079D-01 0.72905340D-02 0.22304276D+05 0.22304276D+05 0.22304276D+05 0.12286461D+01  1  2 15  2  6  2        2 0.270873777803D-02 0.100000000000D+01
0.613265971268D-03 0.000000000000D+00 -.639799740085D-03 0.262514103669D-04 0.000000000000D+00  6 -1 2 25 24 21 21 4 0.91996079D-01 0.33353025D-01 0.22304276D+05 0.22304276D+05 0.22304276D+05 0.12286461D+01  1  2  5  2  6  2        2 0.307006942736D-01 0.100000000000D+01
0.105392685468D-03 0.000000000000D+00 -.117805851034D-03 0.262514103669D-04 0.000000000000D+00  6 -1 21 25 24 -2 21 4 0.91996079D-01 0.33353025D-01 0.22304276D+05 0.22304276D+05 0.22304276D+05 0.12286461D+01  3  4  5  5  5  2        2 0.240474553832D-01 0.100000000000D+01
  </mgrwgt>
  </event>
  <event>
  6     66 -.43135346E-03 0.35814859E+02 0.75467711E-02 0.11863055E+00
       -1 -1    0    0    0  501 0.00000000E+00 0.00000000E+00 0.19232555E+02 0.19235217E+02 0.32000000E+00 0.0000E+00 0.9000E+01
        2 -1    0    0  503    0 0.00000000E+00 0.00000000E+00 -.18378205E+04 0.18378205E+04 0.32000000E+00 0.0000E+00 0.9000E+01
       25  1    1    2    0    0 0.85751149E+02 0.24164287E+02 -.78974358E+03 0.80452290E+03 0.12500000E+03 0.0000E+00 0.9000E+01
       24  1    1    2    0    0 -.10557731E+03 0.77917744E+01 -.38079812E+03 0.40333820E+03 0.80419002E+02 0.0000E+00 0.9000E+01
       21  1    1    2  502  501 0.15628140E+02 -.27949633E+02 -.49403043E+03 0.49506773E+03 0.75000000E+00 0.0000E+00 0.9000E+01
       21  1    1    2  503  502 0.41980222E+01 -.40064286E+01 -.15401583E+03 0.15412694E+03 0.75000000E+00 0.0000E+00 0.9000E+01
#aMCatNLO 2  0  0  2  5 0.58030045D+01 0.00000000D+00  -5  6  0 0.00000000D+00 0.00000000D+00 0.00000000D+00 0.00000000D+00 0.00000000D+00
  <mgrwgt>
 -.1529665926D+00    5    2    0
 0.179675067688849D+03 0.000000000000000D+00 0.000000000000000D+00 0.179675067688849D+03
 0.179675067688849D+03 0.000000000000000D+00 0.000000000000000D+00 -.179675067688849D+03
 0.155066374270032D+03 0.875575801078314D+02 0.224407672276598D+02 -.158323264603914D+02
 0.146142386391431D+03 -.103863114160791D+03 0.615625351416697D+01 0.637568443800637D+02
 0.581413747162352D+02 0.163055340529593D+02 -.285970207418268D+02 -.479245179196723D+02
 0.000000000000000D+00 0.000000000000000D+00 -.000000000000000D+00 -.000000000000000D+00
 0.180210759116014D+03 0.000000000000000D+00 0.000000000000000D+00 0.180210759116014D+03
 0.196132780103127D+03 0.000000000000000D+00 0.000000000000000D+00 -.196132780103127D+03
 0.154313915557029D+03 0.857505671857330D+02 0.241653098618382D+02 -.158323264603914D+02
 0.147443433186209D+03 -.105577875531071D+03 0.779275486638578D+01 0.637568443800637D+02
 0.576396388029301D+02 0.156292861003838D+02 -.279516360789777D+02 -.479245179196723D+02
 0.169465516729724D+02 0.419802224495466D+01 -.400642864924623D+01 -.159220209871137D+02
-.630759798957D-03 0.000000000000D+00 0.000000000000D+00 0.175442875464D-04 0.000000000000D+00  6 -1 2 25 24 21 21 4 0.29501301D-02 0.29622039D+00 0.26288254D+05 0.26288254D+05 0.26288254D+05 0.12209650D+01  1  2 13  2  6  2        2 -.501281777336D+00 0.100000000000D+01
-.120667335023D-04 0.000000000000D+00 0.000000000000D+00 0.175907297662D-04 0.000000000000D+00  6 -1 2 25 24 21 21 4 0.29501301D-02 0.25900477D+00 0.25388689D+05 0.25388689D+05 0.25388689D+05 0.12225799D+01  1  2  8  2  6  2        2 -.128403515093D-01 0.100000000000D+01
-.511104202561D-05 0.000000000000D+00 0.000000000000D+00 0.175907297662D-04 0.000000000000D+00  6 -1 2 25 24 21 21 4 0.29501301D-02 0.28302726D+00 0.25388689D+05 0.25388689D+05 0.25388689D+05 0.12225799D+01  1  2  9  2  6  2        2 -.451951364909D-02 0.100000000000D+01
0.509100314705D-05 0.000000000000D+00 0.000000000000D+00 0.175907297662D-04 0.000000000000D+00  6 -1 2 25 24 21 21 4 0.29501301D-02 0.25900477D+00 0.25388689D+05 0.25388689D+05 0.25388689D+05 0.12225799D+01  1  2 10  2  6  2        2 0.541739567967D-02 0.100000000000D+01
0.410356230819D-03 0.000000000000D+00 0.000000000000D+00 0.175907297662D-04 0.114398422106D-04  6 -1 2 25 24 21 21 4 0.29589257D-02 0.28272885D+00 0.26288254D+05 0.26288254D+05 0.26288254D+05 0.12209650D+01  1  2  1  2  6  2        2 0.360257654230D+00 0.100000000000D+01
  </mgrwgt>
  </event>
  <event>
  6     66 -.43135346E-03 0.68960929E+01 0.75467711E-02 0.12273277E+00
       -1 -1    0    0    0  501 0.00000000E+00 0.00000000E+00 0.24533788E+02 0.24535874E+02 0.32000000E+00 0.0000E+00 0.9000E+01
        2 -1    0    0  502    0 -.00000000E+00 -.00000000E+00 -.15154267E+04 0.15154267E+04 0.32000000E+00 0.0000E+00 0.9000E+01
       25  1    1    2    0    0 -.69353523E+02 0.45354210E+00 -.11026329E+04 0.11118608E+04 0.12500000E+03 0.0000E+00 0.9000E+01
       24  1    1    2    0    0 0.51102083E+02 -.92924994E+01 -.98754961E+02 0.13754102E+03 0.80419002E+02 0.0000E+00 0.9000E+01
       21  1    1    2  502  503 0.68694331E+01 0.74342929E+01 -.20822486E+03 0.20847209E+03 0.75000000E+00 0.0000E+00 0.9000E+01
       21  1    1    2  503  501 0.11382007E+02 0.14046644E+01 -.81280179E+02 0.82088691E+02 0.75000000E+00 0.0000E+00 0.9000E+01
#aMCatNLO 2  0  0  5  2 0.66811699D+01 0.00000000D+00  -5  6  0 0.00000000D+00 0.00000000D+00 0.00000000D+00 0.00000000D+00 0.00000000D+00
  <mgrwgt>
 -.6294917977D+00    3    2    0
 0.192823207486211D+03 0.000000000000000D+00 0.000000000000000D+00 0.192823207486211D+03
 0.192823207486211D+03 -.000000000000000D+00 -.000000000000000D+00 -.192823207486211D+03
 0.176782173917414D+03 -.699048791355774D+02 0.186526780900621D+00 -.103634984902625D+03
 0.168072602549517D+03 0.505794087169045D+02 -.954562450931213D+01 0.138317707615377D+03
 0.407916385054905D+02 0.193254704186730D+02 0.935909772841151D+01 -.346827227127521D+02
 0.000000000000000D+00 0.000000000000000D+00 0.000000000000000D+00 0.000000000000000D+00
 0.192823207486211D+03 0.000000000000000D+00 0.000000000000000D+00 0.192823207486211D+03
 0.192823207486211D+03 -.000000000000000D+00 -.000000000000000D+00 -.192823207486211D+03
 0.177148402499232D+03 -.693528611226016D+02 0.453862603489060D+00 -.104625671662725D+03
 0.167445263967693D+03 0.511027088167938D+02 -.929219643382168D+01 0.137378559855099D+03
 0.270128020854338D+02 0.653492501669802D+01 0.734156653659153D+01 -.251612327265925D+02
 0.140399464200631D+02 0.117152272891098D+02 0.149676729374109D+01 -.759165546578142D+01
-.303948250262D-03 0.000000000000D+00 0.000000000000D+00 0.221100894892D-04 0.000000000000D+00  6 -1 2 25 24 21 21 4 0.37745920D-02 0.23314273D+00 0.16942220D+05 0.16942220D+05 0.16942220D+05 0.12418390D+01  1  2 13  3  6  5       21 -.292295599269D+00 0.100000000000D+01
-.270081424522D-03 0.000000000000D+00 0.000000000000D+00 0.221100894892D-04 0.000000000000D+00  6 -1 2 25 24 21 21 4 0.37745920D-02 0.23314273D+00 0.16942220D+05 0.16942220D+05 0.16942220D+05 0.12418390D+01  1  2 13  3  6  5       21 -.259727146855D+00 0.100000000000D+01
-.805435245925D-04 0.000000000000D+00 0.000000000000D+00 0.221121186580D-04 0.000000000000D+00  6 -1 2 25 24 21 21 4 0.37745920D-02 0.23314273D+00 0.16922441D+05 0.16922441D+05 0.16922441D+05 0.12418959D+01  1  2  8  3  6  5       21 -.774690515552D-01 0.100000000000D+01
  </mgrwgt>
  </event>
  <event>
  5     66 0.43135346E-03 0.31854133E+02 0.75467711E-02 0.12237625E+00
       -1 -1    0    0    0  501 0.00000000E+00 0.00000000E+00 0.86000271E+01 0.86059786E+01 0.32000000E+00 0.0000E+00 0.9000E+01
        2 -1    0    0  502    0 -.00000000E+00 -.00000000E+00 -.22142726E+04 0.22142726E+04 0.32000000E+00 0.0000E+00 0.9000E+01
       25  1    1    2    0    0 0.13621480E+02 -.53639026E+02 -.10708263E+04 0.10795168E+04 0.12500000E+03 0.0000E+00 0.9000E+01
       24  1    1    2    0    0 -.26991640E+02 0.20486412E+02 -.50370950E+03 0.51121298E+03 0.80419002E+02 0.0000E+00 0.9000E+01
       21  1    1    2  502  501 0.13370159E+02 0.33152614E+02 -.63113684E+03 0.63214882E+03 0.75000000E+00 0.0000E+00 0.9000E+01
#aMCatNLO 1  0  0  5  1 0.16749796D+02 0.00000000D+00  -5  6  0 0.00000000D+00 0.00000000D+00 0.00000000D+00 0.00000000D+00 0.00000000D+00
  <mgrwgt>
 0.5936102347D+00    9    2    0
 0.138019726440597D+03 0.000000000000000D+00 0.000000000000000D+00 0.138019726440597D+03
 0.138019726440597D+03 -.000000000000000D+00 -.000000000000000D+00 -.138019726440597D+03
 0.136730243228217D+03 0.136206544106181D+02 -.536410748021164D+02 0.269671666061477D+01
 0.918211229190765D+02 -.269921942719256D+02 0.204850364866013D+02 0.285602413904167D+02
 0.474880867338997D+02 0.133715398613076D+02 0.331560383155151D+02 -.312569580510314D+02
 0.000000000000000D+00 0.000000000000000D+00 -.000000000000000D+00 0.000000000000000D+00
 0.138019726440597D+03 0.000000000000000D+00 0.000000000000000D+00 0.138019726440597D+03
 0.138019726440597D+03 -.000000000000000D+00 -.000000000000000D+00 -.138019726440597D+03
 0.134486454125424D+03 0.164404016875111D+02 -.466492361864857D+02 -.389465002284345D+01
 0.911773417357782D+02 -.250896217997252D+02 0.252026506462731D+02 0.241128382813181D+02
 0.168312480792058D+02 -.141084438067401D+02 0.911032613686311D+01 0.111565359131545D+01
 0.335444089407856D+02 0.227576639189542D+02 0.123362594033496D+02 -.213338418497902D+02
0.462647513261D-03 0.000000000000D+00 0.000000000000D+00 0.199937572712D-04 0.000000000000D+00  6 -1 2 25 24 21 21 2 0.13235407D-02 0.34065778D+00 0.16863737D+05 0.16863737D+05 0.16863737D+05 0.12420655D+01  1  2  2  3  6  5       21 0.575383626505D+00 0.100000000000D+01
0.221477771298D-04 0.244145800275D-04 -.177668826881D-05 0.199937572712D-04 0.000000000000D+00  6 -1 2 25 24 21 21 4 0.13235407D-02 0.34065778D+00 0.16863737D+05 0.16863737D+05 0.16863737D+05 0.12420655D+01  1  2  3  3  6  5       21 0.424938828046D-01 0.100000000000D+01
0.150603335696D-04 0.000000000000D+00 0.000000000000D+00 0.199937572712D-04 0.000000000000D+00  6 -1 2 25 24 21 21 4 0.13235407D-02 0.34065778D+00 0.16863737D+05 0.16863737D+05 0.16863737D+05 0.12420655D+01  1  2 15  3  6  5       21 0.288955431488D-01 0.100000000000D+01
0.695929683940D-04 0.000000000000D+00 0.000000000000D+00 0.199302356008D-04 0.000000000000D+00  6 -1 2 25 24 21 21 4 0.13235407D-02 0.34065778D+00 0.17561758D+05 0.17561758D+05 0.17561758D+05 0.12400909D+01  1  2 12  3  6  5       21 0.132732378049D+00 0.100000000000D+01
-.117682080595D-03 0.000000000000D+00 0.000000000000D+00 0.199937572712D-04 0.000000000000D+00  6 -1 2 25 24 21 21 4 0.13235407D-02 0.34065778D+00 0.16863737D+05 0.16863737D+05 0.16863737D+05 0.12420655D+01  1  2  4  3  6  5       21 -.225790990749D+00 0.100000000000D+01
0.522944521109D-05 0.000000000000D+00 0.000000000000D+00 0.199302356008D-04 0.000000000000D+00  6 -1 2 25 24 1 -1 4 0.13235407D-02 0.34065778D+00 0.17561758D+05 0.17561758D+05 0.17561758D+05 0.12400909D+01  1  2 12  6  6  5       21 0.997394873016D-02 0.100000000000D+01
0.522944521109D-05 0.000000000000D+00 0.000000000000D+00 0.199302356008D-04 0.000000000000D+00  6 -1 2 25 24 2 -2 4 0.13235407D-02 0.34065778D+00 0.17561758D+05 0.17561758D+05 0.17561758D+05 0.12400909D+01  1  2 12  7  6  5       21 0.997394873016D-02 0.100000000000D+01
0.522944521109D-05 0.000000000000D+00 0.000000000000D+00 0.199302356008D-04 0.000000000000D+00  6 -1 2 25 24 3 -3 4 0.13235407D-02 0.34065778D+00 0.17561758D+05 0.17561758D+05 0.17561758D+05 0.12400909D+01  1  2 12  8  6  5       21 0.997394873016D-02 0.100000000000D+01
0.522944521109D-05 0.000000000000D+00 0.000000000000D+00 0.199302356008D-04 0.000000000000D+00  6 -1 2 25 24 4 -4 4 0.13235407D-02 0.34065778D+00 0.17561758D+05 0.17561758D+05 0.17561758D+05 0.12400909D+01  1  2 12  8  6  5       21 0.997394873016D-02 0.100000000000D+01
  </mgrwgt>
  </event>
  <event>
  6     66 0.43135346E-03 0.20862152E+02 0.75467711E-02 0.12027077E+00
       21 -1    0    0  503  501 0.00000000E+00 0.00000000E+00 0.72930615E+02 0.72934471E+02 0.75000000E+00 0.0000E+00 0.9000E+01
        2 -1    0    0  502    0 0.00000000E+00 0.00000000E+00 -.63981717E+03 0.63981725E+03 0.32000000E+00 0.0000E+00 0.9000E+01
       25  1    1    2    0    0 0.68012498E+02 0.23662888E+02 -.96551258E+02 0.17358795E+03 0.12500000E+03 0.0000E+00 0.9000E+01
       24  1    1    2    0    0 -.61684088E+02 -.56919902E+02 -.28369616E+03 0.30658690E+03 0.80419002E+02 0.0000E+00 0.9000E+01
        1  1    1    2  503    0 -.99074665E+01 0.23899684E+02 0.15517782E+02 0.30170462E+02 0.32000000E+00 0.0000E+00 0.9000E+01
       21  1    1    2  502  501 0.35790560E+01 0.93573302E+01 -.20215692E+03 0.20240640E+03 0.75000000E+00 0.0000E+00 0.9000E+01
#aMCatNLO 2  0  0  1  5 0.37544383D+02 0.00000000D+00  -5  6  0 0.00000000D+00 0.00000000D+00 0.00000000D+00 0.00000000D+00 0.00000000D+00
  <mgrwgt>
 0.6207936534D-01    1    2    0
 0.177519723783116D+03 0.000000000000000D+00 0.000000000000000D+00 0.177519723783116D+03
 0.177519723783116D+03 0.000000000000000D+00 0.000000000000000D+00 -.177519723783116D+03
 0.175045711158792D+03 0.631364331154318D+02 0.354246313317292D+02 0.988680297343834D+02
 0.121944843925701D+03 -.651073851444101D+02 -.486624312499497D+02 -.423830766957090D+02
 0.000000000000000D+00 -.000000000000000D+00 0.000000000000000D+00 0.000000000000000D+00
 0.580488924817401D+02 0.197095202897826D+01 0.132377999182205D+02 -.564849530386744D+02
 0.259167063735895D+03 0.000000000000000D+00 0.000000000000000D+00 0.259167063735895D+03
 0.180051830878051D+03 0.000000000000000D+00 0.000000000000000D+00 -.180051830878051D+03
 0.174887058941205D+03 0.680124503496993D+02 0.236622627610961D+02 0.988680297343834D+02
 0.123727085580360D+03 -.616841545567032D+02 -.569202568359418D+02 -.423830766957090D+02
 0.832380494379464D+02 -.990746651230836D+01 0.238996843366332D+02 0.791152328578434D+02
 0.573667006544350D+02 0.357917071931233D+01 0.935830973821253D+01 -.564849530386744D+02
0.695891811943D-05 0.000000000000D+00 0.000000000000D+00 0.965467059583D-04 0.105669414820D-06  6 21 2 25 24 1 21 4 0.11220378D-01 0.98433547D-01 0.21961973D+05 0.21961973D+05 0.21961973D+05 0.12293767D+01  1  2  1  4  5  1       -1 0.620793653417D-01 0.100000000000D+01
  </mgrwgt>
  </event>
  <event>
  6     66 -.43135346E-03 0.56676106E+02 0.75467711E-02 0.11644851E+00
       21 -1    0    0  503  501 0.00000000E+00 0.00000000E+00 0.50776552E+02 0.50782091E+02 0.75000000E+00 0.0000E+00 0.9000E+01
        2 -1    0    0  502    0 0.00000000E+00 0.00000000E+00 -.19374597E+04 0.19374597E+04 0.32000000E+00 0.0000E+00 0.9000E+01
       25  1    1    2    0    0 -.35176784E+02 -.47487730E+02 -.19173162E+03 0.23638635E+03 0.12500000E+03 0.0000E+00 0.9000E+01
       24  1    1    2    0    0 0.10810726E+02 0.78025072E+02 -.19982920E+03 0.22935498E+03 0.80419002E+02 0.0000E+00 0.9000E+01
        1  1    1    2  503    0 -.36126177E+02 0.16268763E+02 -.18205166E+02 0.43603943E+02 0.32000000E+00 0.0000E+00 0.9000E+01
       21  1    1    2  502  501 0.60492235E+02 -.46806106E+02 -.14769171E+04 0.14788965E+04 0.75000000E+00 0.0000E+00 0.9000E+01
#aMCatNLO 2  0  0  1  5 0.39620365D+02 0.00000000D+00  -5  6  0 0.00000000D+00 0.00000000D+00 0.00000000D+00 0.00000000D+00 0.00000000D+00
  <mgrwgt>
 -.5523093079D-01    2    2    0
 0.268717657447626D+03 0.000000000000000D+00 0.000000000000000D+00 0.268717657447626D+03
 0.268717657447626D+03 0.000000000000000D+00 0.000000000000000D+00 -.268717657447626D+03
 0.189674794740230D+03 -.478611891216219D+02 -.417754966759899D+02 0.127732698292516D+03
 0.136788302595327D+03 0.169543488624524D+01 0.821300086148585D+02 0.741323880500950D+02
 0.000000000000000D+00 -.000000000000000D+00 0.000000000000000D+00 0.000000000000000D+00
 0.210972217559695D+03 0.461657542353766D+02 -.403545119388687D+02 -.201865086342612D+03
 0.359305129353714D+03 0.000000000000000D+00 0.000000000000000D+00 0.359305129353714D+03
 0.273814243259307D+03 0.000000000000000D+00 0.000000000000000D+00 -.273814243259307D+03
 0.188236901294606D+03 -.351768668927925D+02 -.474876492523591D+02 0.127732698292516D+03
 0.134787308227392D+03 0.108106662837117D+02 0.780251308317241D+02 0.741323880500950D+02
 0.942256066135890D+02 -.361261771720065D+02 0.162687633036026D+02 0.854908860944077D+02
 0.215869556477434D+03 0.604923777810873D+02 -.468062448829675D+02 -.201865086342612D+03
-.327975369394D-04 0.000000000000D+00 0.000000000000D+00 0.132696914202D-04 0.000000000000D+00  6 21 2 25 24 1 21 4 0.78728408D-02 0.29252277D+00 0.33661731D+05 0.33661731D+05 0.33661731D+05 0.12096839D+01  1  2 13  4  5  1       -1 -.942731830226D-01 0.100000000000D+01
0.139899107441D-04 0.000000000000D+00 0.000000000000D+00 0.135683161578D-04 0.182391619423D-08  6 21 2 25 24 1 21 4 0.78121977D-02 0.29807086D+00 0.33661731D+05 0.33661731D+05 0.33661731D+05 0.12096839D+01  1  2  1  4  5  1       -1 0.390422522375D-01 0.100000000000D+01
  </mgrwgt>
  </event>
  <event>
  5     66 -.43135346E-03 0.22387787E+02 0.75467711E-02 0.12093654E+00
       -1 -1    0    0    0  501 0.00000000E+00 0.00000000E+00 0.48632694E+02 0.48633746E+02 0.32000000E+00 0.0000E+00 0.9000E+01
        2 -1    0    0  502    0 -.00000000E+00 -.00000000E+00 -.50576723E+03 0.50576733E+03 0.32000000E+00 0.0000E+00 0.9000E+01
       25  1    1    2    0    0 0.30120121E+02 -.84181063E+02 -.12919507E+03 0.20077360E+03 0.12500000E+03 0.0000E+00 0.9000E+01
       24  1    1    2    0    0 -.39298041E+02 0.63771667E+02 -.27501543E+03 0.29616189E+03 0.80419002E+02 0.0000E+00 0.9000E+01
       21  1    1    2  502  501 0.91779199E+01 0.20409396E+02 -.52924032E+02 0.57465584E+02 0.75000000E+00 0.0000E+00 0.9000E+01
#aMCatNLO 1  0  0  5  2 0.22549990D+01 0.00000000D+00  -5  6  0 0.00000000D+00 0.00000000D+00 0.00000000D+00 0.00000000D+00 0.00000000D+00
  <mgrwgt>
 -.2013006197D+01   20    2    0
 0.156834762277996D+03 0.000000000000000D+00 0.000000000000000D+00 0.156834762277996D+03
 0.156834762277996D+03 -.000000000000000D+00 -.000000000000000D+00 -.156834762277996D+03
 0.166578339504818D+03 0.301178239693922D+02 -.841861706171483D+02 0.642568949479458D+02
 0.122653689566281D+03 -.392997321292520D+02 0.637679055454026D+02 -.544600485381059D+02
 0.244374954848930D+02 0.918190815985987D+01 0.204182650717457D+02 -.979684640983993D+01
 0.000000000000000D+00 0.000000000000000D+00 0.000000000000000D+00 -.000000000000000D+00
 0.156834762277996D+03 0.000000000000000D+00 0.000000000000000D+00 0.156834762277996D+03
 0.156834762277996D+03 -.000000000000000D+00 -.000000000000000D+00 -.156834762277996D+03
 0.166279711674895D+03 0.303388433318841D+02 -.836946788868044D+02 0.640210732962547D+02
 0.122867750016126D+03 -.391367047010066D+02 0.641304377321687D+02 -.546339943723818D+02
 0.214543870661972D+02 0.100863254116686D+02 0.172040336516221D+02 -.791062514533420D+01
 0.306767579877297D+01 -.128846404254607D+01 0.236020750301364D+01 -.147645377853874D+01
0.270398964025D-03 0.000000000000D+00 0.000000000000D+00 0.340487115660D-04 0.000000000000D+00  6 -1 2 25 24 21 21 2 0.74820416D-02 0.77810432D-01 0.20445269D+05 0.20445269D+05 0.20445269D+05 0.12327746D+01  1  2  2  3  6  5       21 0.264235287576D+00 0.100000000000D+01
0.580660928605D-04 0.142693453597D-04 -.103840321954D-05 0.340487115660D-04 0.000000000000D+00  6 -1 2 25 24 21 21 4 0.74820416D-02 0.77810432D-01 0.20445269D+05 0.20445269D+05 0.20445269D+05 0.12327746D+01  1  2  3  3  6  5       21 0.862334548944D-01 0.100000000000D+01
0.110123930242D-04 0.000000000000D+00 0.000000000000D+00 0.340487115660D-04 0.000000000000D+00  6 -1 2 25 24 21 21 4 0.74820416D-02 0.77810432D-01 0.20445269D+05 0.20445269D+05 0.20445269D+05 0.12327746D+01  1  2 15  3  6  5       21 0.163544101273D-01 0.100000000000D+01
0.149897201942D-06 0.000000000000D+00 0.000000000000D+00 0.340455537288D-04 0.000000000000D+00  6 -1 2 25 24 21 21 4 0.74820416D-02 0.77810432D-01 0.20469796D+05 0.20469796D+05 0.20469796D+05 0.12327175D+01  1  2 12  3  6  5       21 0.222577002116D-03 0.100000000000D+01
0.145181741347D-06 0.000000000000D+00 0.000000000000D+00 0.340455537288D-04 0.000000000000D+00  6 -1 2 25 24 21 21 4 0.74820416D-02 0.77810432D-01 0.20469796D+05 0.20469796D+05 0.20469796D+05 0.12327175D+01  1  2 12  3  6  5       21 0.215575183074D-03 0.100000000000D+01
-.203329995463D-02 0.000000000000D+00 0.000000000000D+00 0.340487115660D-04 0.000000000000D+00  6 -1 2 25 24 21 21 4 0.74820416D-02 0.77810432D-01 0.20445269D+05 0.20445269D+05 0.20445269D+05 0.12327746D+01  1  2  4  3  6  5       21 -.301963626769D+01 0.100000000000D+01
-.166970188965D-02 0.000000000000D+00 0.000000000000D+00 0.340487115660D-04 0.000000000000D+00  6 -1 2 25 24 21 21 4 0.74820416D-02 0.77810432D-01 0.20445269D+05 0.20445269D+05 0.20445269D+05 0.12327746D+01  1  2  5  3  6  5       21 -.247965990986D+01 0.100000000000D+01
0.217570091153D-02 0.000000000000D+00 -.000000000000D+00 0.340487115660D-04 0.000000000000D+00  6 -1 2 25 24 21 21 4 0.74820416D-02 0.77810432D-01 0.20445269D+05 0.20445269D+05 0.20445269D+05 0.12327746D+01  1  2  6  3  6  5       21 0.323111470353D+01 0.100000000000D+01
0.219152363808D-07 0.000000000000D+00 0.000000000000D+00 0.340455537288D-04 0.000000000000D+00  6 -1 2 25 24 1 -1 4 0.74820416D-02 0.77810432D-01 0.20469796D+05 0.20469796D+05 0.20469796D+05 0.12327175D+01  1  2 12  6  6  5       21 0.325411518768D-04 0.100000000000D+01
0.216581856029D-07 0.000000000000D+00 0.000000000000D+00 0.340455537288D-04 0.000000000000D+00  6 -1 2 25 24 1 -1 4 0.74820416D-02 0.77810432D-01 0.20469796D+05 0.20469796D+05 0.20469796D+05 0.12327175D+01  1  2 12  6  6  5       21 0.321594663563D-04 0.100000000000D+01
-.189121070884D-04 0.000000000000D+00 0.000000000000D+00 0.340487115660D-04 0.000000000000D+00  6 -1 2 25 24 1 -1 4 0.74820416D-02 0.77810432D-01 0.20445269D+05 0.20445269D+05 0.20445269D+05 0.12327746D+01  1  2  5  6  6  5       21 -.280862075134D-01 0.100000000000D+01
0.219152363808D-07 0.000000000000D+00 0.000000000000D+00 0.340455537288D-04 0.000000000000D+00  6 -1 2 25 24 2 -2 4 0.74820416D-02 0.77810432D-01 0.20469796D+05 0.20469796D+05 0.20469796D+05 0.12327175D+01  1  2 12  7  6  5       21 0.325411518768D-04 0.100000000000D+01
0.216581856029D-07 0.000000000000D+00 0.000000000000D+00 0.340455537288D-04 0.000000000000D+00  6 -1 2 25 24 2 -2 4 0.74820416D-02 0.77810432D-01 0.20469796D+05 0.20469796D+05 0.20469796D+05 0.12327175D+01  1  2 12  7  6  5       21 0.321594663563D-04 0.100000000000D+01
-.189121070884D-04 0.000000000000D+00 0.000000000000D+00 0.340487115660D-04 0.000000000000D+00  6 -1 2 25 24 2 -2 4 0.74820416D-02 0.77810432D-01 0.20445269D+05 0.20445269D+05 0.20445269D+05 0.12327746D+01  1  2  5  7  6  5       21 -.280862075134D-01 0.100000000000D+01
0.219152363808D-07 0.000000000000D+00 0.000000000000D+00 0.340455537288D-04 0.000000000000D+00  6 -1 2 25 24 3 -3 4 0.74820416D-02 0.77810432D-01 0.20469796D+05 0.20469796D+05 0.20469796D+05 0.12327175D+01  1  2 12  8  6  5       21 0.325411518768D-04 0.100000000000D+01
0.219152363808D-07 0.000000000000D+00 0.000000000000D+00 0.340455537288D-04 0.000000000000D+00  6 -1 2 25 24 4 -4 4 0.74820416D-02 0.77810432D-01 0.20469796D+05 0.20469796D+05 0.20469796D+05 0.12327175D+01  1  2 12  8  6  5       21 0.325411518768D-04 0.100000000000D+01
0.216581856029D-07 0.000000000000D+00 0.000000000000D+00 0.340455537288D-04 0.000000000000D+00  6 -1 2 25 24 3 -3 4 0.74820416D-02 0.77810432D-01 0.20469796D+05 0.20469796D+05 0.20469796D+05 0.12327175D+01  1  2 12  8  6  5       21 0.321594663563D-04 0.100000000000D+01
0.216581856029D-07 0.000000000000D+00 0.000000000000D+00 0.340455537288D-04 0.000000000000D+00  6 -1 2 25 24 4 -4 4 0.74820416D-02 0.77810432D-01 0.20469796D+05 0.20469796D+05 0.20469796D+05 0.12327175D+01  1  2 12  8  6  5       21 0.321594663563D-04 0.100000000000D+01
-.189121070884D-04 0.000000000000D+00 0.000000000000D+00 0.340487115660D-04 0.000000000000D+00  6 -1 2 25 24 3 -3 4 0.74820416D-02 0.77810432D-01 0.20445269D+05 0.20445269D+05 0.20445269D+05 0.12327746D+01  1  2  5  8  6  5       21 -.280862075134D-01 0.100000000000D+01
-.189121070884D-04 0.000000000000D+00 0.000000000000D+00 0.340487115660D-04 0.000000000000D+00  6 -1 2 25 24 4 -4 4 0.74820416D-02 0.77810432D-01 0.20445269D+05 0.20445269D+05 0.20445269D+05 0.12327746D+01  1  2  5  8  6  5       21 -.280862075134D-01 0.100000000000D+01
  </mgrwgt>
  </event>
  <event>
  5     66 0.43135346E-03 0.95427369E+02 0.75467711E-02 0.11114385E+00
       -1 -1    0    0    0  501 0.00000000E+00 0.00000000E+00 0.40973221E+02 0.40974471E+02 0.32000000E+00 0.0000E+00 0.9000E+01
        2 -1    0    0  502    0 0.00000000E+00 0.00000000E+00 -.17465557E+04 0.17465558E+04 0.32000000E+00 0.0000E+00 0.9000E+01
       25  1    1    2    0    0 -.21156876E+02 0.16173093E+03 -.82493278E+03 0.85014328E+03 0.12500000E+03 0.0000E+00 0.9000E+01
       24  1    1    2    0    0 0.11078026E+03 -.12896358E+03 -.34155728E+03 0.38991341E+03 0.80419002E+02 0.0000E+00 0.9000E+01
       21  1    1    2  502  501 -.89623387E+02 -.32767346E+02 -.53909245E+03 0.54747354E+03 0.75000000E+00 0.0000E+00 0.9000E+01
#aMCatNLO 1  0  0  2  5 0.16204943D+02 0.00000000D+00  -5  6  0 0.00000000D+00 0.00000000D+00 0.00000000D+00 0.00000000D+00 0.00000000D+00
  <mgrwgt>
 0.2369886348D+00    9    4    0
 0.267512910158541D+03 0.000000000000000D+00 0.000000000000000D+00 0.267512910158541D+03
 0.267512910158541D+03 0.000000000000000D+00 0.000000000000000D+00 -.267512910158541D+03
 0.210580328585972D+03 -.211560642798541D+02 0.161731225095384D+03 -.459837640989616D+02
 0.213874048292754D+03 0.110781086769644D+03 -.128963280968658D+03 0.101837692210185D+03
 0.110571443438355D+03 -.896250224897898D+02 -.327679441267258D+02 -.558539281112236D+02
 0.000000000000000D+00 0.000000000000000D+00 0.000000000000000D+00 -.000000000000000D+00
 0.270523694498124D+03 0.000000000000000D+00 0.000000000000000D+00 0.270523694498124D+03
 0.290366746040969D+03 0.000000000000000D+00 0.000000000000000D+00 -.290366746040969D+03
 0.206715983803730D+03 -.242431297749713D+02 0.156218635437482D+03 -.459837640989616D+02
 0.215740739511382D+03 0.107602891927645D+03 -.134638600797315D+03 0.101837692210185D+03
 0.112814449627726D+03 -.912775817435036D+02 -.357189281811624D+02 -.558539281112236D+02
 0.256192675962549D+02 0.791781959083027D+01 0.141388935409953D+02 -.198430515428444D+02
 0.267512910158541D+03 0.000000000000000D+00 0.000000000000000D+00 0.267512910158541D+03
 0.267512910158541D+03 0.000000000000000D+00 0.000000000000000D+00 -.267512910158541D+03
 0.210580328585972D+03 -.211560642798541D+02 0.161731225095384D+03 -.459837640989616D+02
 0.213874048292754D+03 0.110781086769644D+03 -.128963280968658D+03 0.101837692210185D+03
 0.000000000000000D+00 0.000000000000000D+00 0.000000000000000D+00 -.000000000000000D+00
 0.110571443438355D+03 -.896250224897898D+02 -.327679441267258D+02 -.558539281112236D+02
 0.270523694498124D+03 0.000000000000000D+00 0.000000000000000D+00 0.270523694498124D+03
 0.290366746040969D+03 0.000000000000000D+00 0.000000000000000D+00 -.290366746040969D+03
 0.206715983803730D+03 -.242431297749713D+02 0.156218635437482D+03 -.459837640989616D+02
 0.215740739511382D+03 0.107602891927645D+03 -.134638600797315D+03 0.101837692210185D+03
 0.256192675962549D+02 0.791781959083027D+01 0.141388935409953D+02 -.198430515428444D+02
 0.112814449627726D+03 -.912775817435036D+02 -.357189281811624D+02 -.558539281112236D+02
0.182040815012D-03 0.000000000000D+00 0.000000000000D+00 0.169317416570D-05 0.000000000000D+00  6 -1 2 25 24 21 21 2 0.63036708D-02 0.26870098D+00 0.59779765D+05 0.59779765D+05 0.59779765D+05 0.11846737D+01  1  2  2  2  6  2        2 0.364633611644D-01 0.100000000000D+01
-.307695122886D-05 0.960655773345D-05 -.699084662093D-06 0.169317416570D-05 0.000000000000D+00  6 -1 2 25 24 21 21 4 0.63036708D-02 0.26870098D+00 0.59779765D+05 0.59779765D+05 0.59779765D+05 0.11846737D+01  1  2  3  2  6  2        2 -.864979968667D-03 0.100000000000D+01
0.222597837295D-05 0.000000000000D+00 0.000000000000D+00 0.169317416570D-05 0.000000000000D+00  6 -1 2 25 24 21 21 4 0.63036708D-02 0.26870098D+00 0.59779765D+05 0.59779765D+05 0.59779765D+05 0.11846737D+01  1  2 15  2  6  2        2 0.625757953271D-03 0.100000000000D+01
0.111021388845D-02 0.000000000000D+00 0.000000000000D+00 0.168499816669D-05 0.000000000000D+00  6 -1 2 25 24 21 21 4 0.63036708D-02 0.30617993D+00 0.63996722D+05 0.63996722D+05 0.63996722D+05 0.11818100D+01  1  2 12  2  6  2        2 0.230181543413D+00 0.100000000000D+01
-.698071881493D-03 0.000000000000D+00 0.000000000000D+00 0.169317416570D-05 0.000000000000D+00  6 -1 2 25 24 21 21 4 0.63036708D-02 0.26870098D+00 0.59779765D+05 0.59779765D+05 0.59779765D+05 0.11846737D+01  1  2  4  2  6  2        2 -.196239117643D+00 0.100000000000D+01
-.333971811883D-02 0.000000000000D+00 -.407788074238D-03 0.169317416570D-05 0.000000000000D+00  6 -1 2 25 24 21 21 4 0.63036708D-02 0.29290722D+00 0.59779765D+05 0.59779765D+05 0.59779765D+05 0.11846737D+01  1  2  5  2  6  2        2 -.776656901918D+00 0.100000000000D+01
0.336388313376D-02 0.000000000000D+00 0.406275745149D-03 0.169317416570D-05 0.000000000000D+00  6 -1 2 25 24 21 21 4 0.63036708D-02 0.26870098D+00 0.59779765D+05 0.59779765D+05 0.59779765D+05 0.11846737D+01  1  2  6  2  6  2        2 0.945641094454D+00 0.100000000000D+01
0.229522198035D-04 0.000000000000D+00 0.000000000000D+00 0.168499816669D-05 0.000000000000D+00  6 -1 21 25 24 -2 21 4 0.63036708D-02 0.30617993D+00 0.63996722D+05 0.63996722D+05 0.63996722D+05 0.11818100D+01  3  4 12  5  5  2        2 0.147230876239D-02 0.100000000000D+01
-.466619554435D-04 0.000000000000D+00 -.582195610064D-05 0.169317416570D-05 0.000000000000D+00  6 -1 21 25 24 -2 21 4 0.63036708D-02 0.29290722D+00 0.59779765D+05 0.59779765D+05 0.59779765D+05 0.11846737D+01  3  4  5  5  5  2        2 -.363443144012D-02 0.100000000000D+01
  </mgrwgt>
  </event>
  <event>
  5     66 0.43135346E-03 0.49422854E+02 0.75467711E-02 0.12074373E+00
       -1 -1    0    0    0  501 0.00000000E+00 0.00000000E+00 0.20201617E+02 0.20204152E+02 0.32000000E+00 0.0000E+00 0.9000E+01
        2 -1    0    0  502    0 -.00000000E+00 -.00000000E+00 -.19263302E+04 0.19263302E+04 0.32000000E+00 0.0000E+00 0.9000E+01
       25  1    1    2    0    0 -.30810340E+02 0.69925500E+02 -.29788561E+03 0.33196338E+03 0.12500000E+03 0.0000E+00 0.9000E+01
       24  1    1    2    0    0 0.46578810E+01 -.15474671E+02 -.98298003E+03 0.98639653E+03 0.80419002E+02 0.0000E+00 0.9000E+01
       21  1    1    2  502  501 0.26152459E+02 -.54450830E+02 -.62526291E+03 0.62817443E+03 0.75000000E+00 0.0000E+00 0.9000E+01
#aMCatNLO 1  0  0  5  1 0.14499090D+01 0.00000000D+00  -5  6  0 0.00000000D+00 0.00000000D+00 0.00000000D+00 0.00000000D+00 0.00000000D+00
  <mgrwgt>
 0.2169053137D-01    1    2    0
 0.197275131062275D+03 0.000000000000000D+00 0.000000000000000D+00 0.197275131062275D+03
 0.197275131062275D+03 -.000000000000000D+00 -.000000000000000D+00 -.197275131062275D+03
 0.198632191974025D+03 -.308109429292966D+02 0.699267549393822D+02 0.134129349613950D+03
 0.117521630895074D+03 0.465752451729346D+01 -.154739284166126D+02 -.841604585217775D+02
 0.783964392554503D+02 0.261534184120031D+02 -.544528265227696D+02 -.499688910921721D+02
 0.000000000000000D+00 0.000000000000000D+00 0.000000000000000D+00 -.000000000000000D+00
 0.197275131062275D+03 0.000000000000000D+00 0.000000000000000D+00 0.197275131062275D+03
 0.197275131062275D+03 -.000000000000000D+00 -.000000000000000D+00 -.197275131062275D+03
 0.195955372756591D+03 -.295744629214194D+02 0.673523369299603D+02 0.131766922879596D+03
 0.118781334345879D+03 0.539800373772202D+01 -.170156460574395D+02 -.855752229299602D+02
 0.884864843088031D+01 0.788767811306853D+01 -.220701356268249D+01 0.334846295665269D+01
 0.709649065911990D+02 0.162887810706288D+02 -.481296773098383D+02 -.495401629062881D+02
0.284722708315D-04 0.000000000000D+00 0.000000000000D+00 0.329000531402D-05 0.000000000000D+00  6 -1 2 25 24 21 21 4 0.31081381D-02 0.29635868D+00 0.20871667D+05 0.20871667D+05 0.20871667D+05 0.12317916D+01  1  2 14  3  6  5       21 0.216905313653D-01 0.100000000000D+01
  </mgrwgt>
  </event>
  <event>
  5     66 0.43135346E-03 0.33931287E+02 0.75467711E-02 0.12097474E+00
       -1 -1    0    0    0  501 0.00000000E+00 0.00000000E+00 0.22514215E+02 0.22516489E+02 0.32000000E+00 0.0000E+00 0.9000E+01
        2 -1    0    0  502    0 -.00000000E+00 -.00000000E+00 -.10377397E+04 0.10377397E+04 0.32000000E+00 0.0000E+00 0.9000E+01
       25  1    1    2    0    0 0.35716845E+02 0.81215072E+02 -.67845494E+03 0.69555566E+03 0.12500000E+03 0.0000E+00 0.9000E+01
       24  1    1    2    0    0 -.29726694E+02 -.47823649E+02 -.18777815E+03 0.21189297E+03 0.80419002E+02 0.0000E+00 0.9000E+01
       21  1    1    2  502  501 -.59901511E+01 -.33391423E+02 -.14899235E+03 0.15280757E+03 0.75000000E+00 0.0000E+00 0.9000E+01
#aMCatNLO 1  0  0  5  2 0.14145224D+00 0.00000000D+00  -5  6  0 0.00000000D+00 0.00000000D+00 0.00000000D+00 0.00000000D+00 0.00000000D+00
  <mgrwgt>
 0.1318364462D+00   15    2    0
 0.152856552736833D+03 0.000000000000000D+00 0.000000000000000D+00 0.152856552736833D+03
 0.152856552736833D+03 -.000000000000000D+00 -.000000000000000D+00 -.152856552736833D+03
 0.159244281395160D+03 0.357175547595271D+02 0.812190263712279D+02 -.431447238300440D+02
 0.111291849866109D+03 -.297261984595013D+02 -.478208848141157D+02 0.524230482993076D+02
 0.351769742123978D+02 -.599135630002582D+01 -.333981415571122D+02 -.927832446926356D+01
 0.000000000000000D+00 0.000000000000000D+00 -.000000000000000D+00 0.000000000000000D+00
 0.152856552736833D+03 0.000000000000000D+00 0.000000000000000D+00 0.152856552736833D+03
 0.152856552736833D+03 -.000000000000000D+00 -.000000000000000D+00 -.152856552736833D+03
 0.159244013917623D+03 0.357174537409276D+02 0.812184632544114D+02 -.431448802693036D+02
 0.111291986327912D+03 -.297262690589793D+02 -.478212783629621D+02 0.524229389676585D+02
 0.170630736566290D+02 -.299977361457347D+01 -.161560325982863D+02 -.459700462866484D+01
 0.181140315715032D+02 -.299141106737485D+01 -.172411522931630D+02 -.468105406969009D+01
0.283611106099D-05 0.000000000000D+00 0.000000000000D+00 0.162730418059D-04 0.000000000000D+00  6 -1 2 25 24 21 21 2 0.34639041D-02 0.15965243D+00 0.20362046D+05 0.20362046D+05 0.20362046D+05 0.12329692D+01  1  2  2  3  6  5       21 0.361493499790D-02 0.100000000000D+01
0.286161145004D-06 0.149665692521D-06 -.108914132394D-07 0.162730418059D-04 0.000000000000D+00  6 -1 2 25 24 21 21 4 0.34639041D-02 0.15965243D+00 0.20362046D+05 0.20362046D+05 0.20362046D+05 0.12329692D+01  1  2  3  3  6  5       21 0.554488291365D-03 0.100000000000D+01
0.357943051703D-07 0.000000000000D+00 0.000000000000D+00 0.162730418059D-04 0.000000000000D+00  6 -1 2 25 24 21 21 4 0.34639041D-02 0.15965243D+00 0.20362046D+05 0.20362046D+05 0.20362046D+05 0.12329692D+01  1  2 15  3  6  5       21 0.693578546947D-04 0.100000000000D+01
-.210606068373D-01 0.000000000000D+00 0.000000000000D+00 0.162730418059D-04 0.000000000000D+00  6 -1 2 25 24 21 21 4 0.34639041D-02 0.15965243D+00 0.20362046D+05 0.20362046D+05 0.20362046D+05 0.12329692D+01  1  2  4  3  6  5       21 -.408086845618D+02 0.100000000000D+01
-.821196648281D-02 0.000000000000D+00 0.000000000000D+00 0.162730418059D-04 0.000000000000D+00  6 -1 2 25 24 21 21 4 0.34639041D-02 0.15965243D+00 0.20362046D+05 0.20362046D+05 0.20362046D+05 0.12329692D+01  1  2  5  3  6  5       21 -.159121507000D+02 0.100000000000D+01
0.211238202375D-01 0.000000000000D+00 -.000000000000D+00 0.162730418059D-04 0.000000000000D+00  6 -1 2 25 24 21 21 4 0.34639041D-02 0.15965243D+00 0.20362046D+05 0.20362046D+05 0.20362046D+05 0.12329692D+01  1  2  6  3  6  5       21 0.409311718068D+02 0.100000000000D+01
0.821439595469D-02 0.000000000000D+00 0.000000000000D+00 0.162730418059D-04 0.417081895131D-02  6 -1 2 25 24 21 21 4 0.34639041D-02 0.15965243D+00 0.20361975D+05 0.20361975D+05 0.20361975D+05 0.12329694D+01  1  2 11  3  6  5       21 0.159168654277D+02 0.100000000000D+01
-.328061145014D-03 0.000000000000D+00 0.000000000000D+00 0.162730418059D-04 0.000000000000D+00  6 -1 2 25 24 1 -1 4 0.34639041D-02 0.15965243D+00 0.20362046D+05 0.20362046D+05 0.20362046D+05 0.12329692D+01  1  2  5  6  6  5       21 -.635677019532D+00 0.100000000000D+01
0.328108259603D-03 0.000000000000D+00 0.000000000000D+00 0.162730418059D-04 0.156447122570D-03  6 -1 2 25 24 1 -1 4 0.34639041D-02 0.15965243D+00 0.20361975D+05 0.20361975D+05 0.20361975D+05 0.12329694D+01  1  2 11  6  6  5       21 0.635768599740D+00 0.100000000000D+01
-.328061145014D-03 0.000000000000D+00 0.000000000000D+00 0.162730418059D-04 0.000000000000D+00  6 -1 2 25 24 2 -2 4 0.34639041D-02 0.15965243D+00 0.20362046D+05 0.20362046D+05 0.20362046D+05 0.12329692D+01  1  2  5  7  6  5       21 -.635677019532D+00 0.100000000000D+01
0.328115640623D-03 0.000000000000D+00 0.000000000000D+00 0.162730418059D-04 0.156450650935D-03  6 -1 2 25 24 2 -2 4 0.34639041D-02 0.15965243D+00 0.20361975D+05 0.20361975D+05 0.20361975D+05 0.12329694D+01  1  2 11  7  6  5       21 0.635782901790D+00 0.100000000000D+01
-.328061145014D-03 0.000000000000D+00 0.000000000000D+00 0.162730418059D-04 0.000000000000D+00  6 -1 2 25 24 3 -3 4 0.34639041D-02 0.15965243D+00 0.20362046D+05 0.20362046D+05 0.20362046D+05 0.12329692D+01  1  2  5  8  6  5       21 -.635677019532D+00 0.100000000000D+01
-.328061145014D-03 0.000000000000D+00 0.000000000000D+00 0.162730418059D-04 0.000000000000D+00  6 -1 2 25 24 4 -4 4 0.34639041D-02 0.15965243D+00 0.20362046D+05 0.20362046D+05 0.20362046D+05 0.12329692D+01  1  2  5  8  6  5       21 -.635677019532D+00 0.100000000000D+01
0.328112148128D-03 0.000000000000D+00 0.000000000000D+00 0.162730418059D-04 0.156448970582D-03  6 -1 2 25 24 3 -3 4 0.34639041D-02 0.15965243D+00 0.20361975D+05 0.20361975D+05 0.20361975D+05 0.12329694D+01  1  2 11  8  6  5       21 0.635776134455D+00 0.100000000000D+01
0.328112148128D-03 0.000000000000D+00 0.000000000000D+00 0.162730418059D-04 0.156448970582D-03  6 -1 2 25 24 4 -4 4 0.34639041D-02 0.15965243D+00 0.20361975D+05 0.20361975D+05 0.20361975D+05 0.12329694D+01  1  2 11  8  6  5       21 0.635776134455D+00 0.100000000000D+01
  </mgrwgt>
  </event>
  <event>
  5     66 0.43135346E-03 0.52070903E+02 0.75467711E-02 0.12241219E+00
       -1 -1    0    0    0  501 0.00000000E+00 0.00000000E+00 0.59063053E+03 0.59063062E+03 0.32000000E+00 0.0000E+00 0.9000E+01
        2 -1    0    0  502    0 0.00000000E+00 0.00000000E+00 -.51655242E+02 0.51656233E+02 0.32000000E+00 0.0000E+00 0.9000E+01
       25  1    1    2    0    0 0.28871933E+02 0.11428416E+02 0.56034075E+02 0.14046001E+03 0.12500000E+03 0.0000E+00 0.9000E+01
       24  1    1    2    0    0 0.22708393E+02 -.43131802E+01 0.27382130E+03 0.28632079E+03 0.80419002E+02 0.0000E+00 0.9000E+01
       21  1    1    2  502  501 -.51580326E+02 -.71152362E+01 0.20911991E+03 0.21550605E+03 0.75000000E+00 0.0000E+00 0.9000E+01
#aMCatNLO 1  0  0  2  1 0.39275377D+02 0.00000000D+00  -5  6  0 0.00000000D+00 0.00000000D+00 0.00000000D+00 0.00000000D+00 0.00000000D+00
  <mgrwgt>
 0.6800168573D-02    1    2    0
 0.174669714881603D+03 0.000000000000000D+00 0.000000000000000D+00 0.174669714881603D+03
 0.174669714881603D+03 0.000000000000000D+00 0.000000000000000D+00 -.174669714881603D+03
 0.171795738145455D+03 0.288732502514255D+02 0.114285981729601D+02 -.113685963111816D+03
 0.103959227693041D+03 0.227091903962104D+02 -.431307022593016D+01 0.616927480741280D+02
 0.735844639247110D+02 -.515824406476359D+02 -.711552794702998D+01 0.519932150376879D+02
 0.000000000000000D+00 0.000000000000000D+00 0.000000000000000D+00 -.000000000000000D+00
 0.193699819514968D+03 0.000000000000000D+00 0.000000000000000D+00 0.193699819514968D+03
 0.219436867005562D+03 0.000000000000000D+00 0.000000000000000D+00 -.219436867005562D+03
 0.169528119670535D+03 0.112912826077690D+02 -.792414584907485D+01 -.113685963111816D+03
 0.103325152571575D+03 0.120317437911957D+02 -.160659010321199D+02 0.616927480741280D+02
 0.806103305459216D+02 -.595251842476583D+02 -.158582288118761D+02 0.519932150376879D+02
 0.596730837324986D+02 0.362021578486936D+02 0.398482756930708D+02 -.257370474905940D+02
0.240693551428D-04 0.000000000000D+00 0.000000000000D+00 0.581173883057D-05 0.000000000000D+00  6 -1 2 25 24 21 21 4 0.90866319D-01 0.79470432D-02 0.17496066D+05 0.17496066D+05 0.17496066D+05 0.12402729D+01  1  2 14  2  6  2        2 0.680016857262D-02 0.100000000000D+01
  </mgrwgt>
  </event>
  <event>
  5     66 0.43135346E-03 0.22243709E+02 0.75467711E-02 0.10362587E+00
       -1 -1    0    0    0  501 0.00000000E+00 0.00000000E+00 0.30729260E+02 0.30730927E+02 0.32000000E+00 0.0000E+00 0.9000E+01
        2 -1    0    0  502    0 0.00000000E+00 0.00000000E+00 -.63579744E+03 0.63579752E+03 0.32000000E+00 0.0000E+00 0.9000E+01
       25  1    1    2    0    0 0.12715817E+02 -.57405297E+02 -.45915287E+03 0.47948244E+03 0.12500000E+03 0.0000E+00 0.9000E+01
       24  1    1    2    0    0 -.15574241E+02 0.35357487E+02 -.89364120E+02 0.12627696E+03 0.80419002E+02 0.0000E+00 0.9000E+01
       21  1    1    2  502  501 0.28584244E+01 0.22047810E+02 -.56551195E+02 0.60769043E+02 0.75000000E+00 0.0000E+00 0.9000E+01
#aMCatNLO 1  0  0  2  1 0.38581449D+03 0.00000000D+00  -5  6  0 0.00000000D+00 0.00000000D+00 0.00000000D+00 0.00000000D+00 0.00000000D+00
  <mgrwgt>
 0.6625411127D+00    5    4    0
 0.139778994341308D+03 0.000000000000000D+00 0.000000000000000D+00 0.139778994341308D+03
 0.139778994341308D+03 0.000000000000000D+00 0.000000000000000D+00 -.139778994341308D+03
 0.149416155345632D+03 0.127149664889589D+02 -.574118555409369D+02 -.569420402585065D+02
 0.107653882297089D+03 -.155748538548209D+02 0.353527617805551D+02 0.602473948080192D+02
 0.224879510398951D+02 0.285988736586192D+01 0.220590937603818D+02 -.330535454951269D+01
 0.000000000000000D+00 0.000000000000000D+00 0.000000000000000D+00 -.000000000000000D+00
 0.358636932764752D+03 0.000000000000000D+00 0.000000000000000D+00 0.358636932764752D+03
 0.547275801904113D+03 0.000000000000000D+00 0.000000000000000D+00 -.547275801904113D+03
 0.297073515379061D+03 -.151177929461662D+03 -.215709321158257D+03 -.569420402585065D+02
 0.165039845100135D+03 -.115672499155686D+03 -.613274724265602D+02 0.602473948080192D+02
 0.143375690007026D+02 -.106576507096441D+02 0.900305489837447D+01 -.330535454951269D+01
 0.429461805188967D+03 0.277508079326993D+03 0.268033738686443D+03 -.188638869139360D+03
 0.139778994341308D+03 0.000000000000000D+00 0.000000000000000D+00 0.139778994341308D+03
 0.139778994341308D+03 0.000000000000000D+00 0.000000000000000D+00 -.139778994341308D+03
 0.149416155345632D+03 0.127149664889589D+02 -.574118555409369D+02 -.569420402585065D+02
 0.107653882297089D+03 -.155748538548209D+02 0.353527617805551D+02 0.602473948080192D+02
 0.000000000000000D+00 0.000000000000000D+00 0.000000000000000D+00 -.000000000000000D+00
 0.224879510398951D+02 0.285988736586192D+01 0.220590937603818D+02 -.330535454951269D+01
 0.358636932764752D+03 0.000000000000000D+00 0.000000000000000D+00 0.358636932764752D+03
 0.547275801904113D+03 0.000000000000000D+00 0.000000000000000D+00 -.547275801904113D+03
 0.297073515379061D+03 -.151177929461662D+03 -.215709321158257D+03 -.569420402585065D+02
 0.165039845100135D+03 -.115672499155686D+03 -.613274724265602D+02 0.602473948080192D+02
 0.429461805188967D+03 0.277508079326993D+03 0.268033738686443D+03 -.188638869139360D+03
 0.143375690007026D+02 -.106576507096441D+02 0.900305489837447D+01 -.330535454951269D+01
0.309187492540D-03 0.000000000000D+00 0.000000000000D+00 0.364083661911D-04 0.000000000000D+00  6 -1 2 25 24 21 21 2 0.47277129D-02 0.97815125D-01 0.15575144D+05 0.15575144D+05 0.15575144D+05 0.12459640D+01  1  2  2  2  6  2        2 0.468850818358D+00 0.100000000000D+01
0.575538548799D-04 0.163162722456D-04 -.118736138229D-05 0.364083661911D-04 0.000000000000D+00  6 -1 2 25 24 21 21 4 0.47277129D-02 0.97815125D-01 0.15575144D+05 0.15575144D+05 0.15575144D+05 0.12459640D+01  1  2  3  2  6  2        2 0.135487159535D+00 0.100000000000D+01
0.167328672786D-04 0.000000000000D+00 0.000000000000D+00 0.364083661911D-04 0.000000000000D+00  6 -1 2 25 24 21 21 4 0.47277129D-02 0.97815125D-01 0.15575144D+05 0.15575144D+05 0.15575144D+05 0.12459640D+01  1  2 15  2  6  2        2 0.393907352199D-01 0.100000000000D+01
0.402962583602D-03 0.000000000000D+00 -.251560185129D-03 0.364083661911D-04 0.000000000000D+00  6 -1 2 25 24 21 21 4 0.47277129D-02 0.56034257D+00 0.15575144D+05 0.15575144D+05 0.15575144D+05 0.12459640D+01  1  2  5  2  6  2        2 0.185812477541D-01 0.100000000000D+01
0.723729656708D-04 0.000000000000D+00 -.537885639271D-04 0.364083661911D-04 0.000000000000D+00  6 -1 21 25 24 -2 21 4 0.47277129D-02 0.56034257D+00 0.15575144D+05 0.15575144D+05 0.15575144D+05 0.12459640D+01  3  4  5  5  5  2        2 0.231151798342D-03 0.100000000000D+01
  </mgrwgt>
  </event>
  <event>
  6     66 0.43135346E-03 0.15134572E+03 0.75467711E-02 0.11018364E+00
       -1 -1    0    0    0  503 0.00000000E+00 0.00000000E+00 0.11487388E+04 0.11487388E+04 0.32000000E+00 0.0000E+00 0.9000E+01
        2 -1    0    0  502    0 0.00000000E+00 0.00000000E+00 -.19733319E+03 0.19733345E+03 0.32000000E+00 0.0000E+00 0.9000E+01
       25  1    1    2    0    0 0.15312138E+03 0.71241874E+02 0.72667275E+03 0.75643893E+03 0.12500000E+03 0.0000E+00 0.9000E+01
       24  1    1    2    0    0 0.39562639E+01 -.13583464E+03 0.21911114E+03 0.27008075E+03 0.80419002E+02 0.0000E+00 0.9000E+01
       21  1    1    2  502  501 -.14654394E+03 0.57928335E+02 -.11701924E+03 0.19627756E+03 0.75000000E+00 0.0000E+00 0.9000E+01
       21  1    1    2  501  503 -.10533703E+02 0.66644336E+01 0.12264090E+03 0.12327500E+03 0.75000000E+00 0.0000E+00 0.9000E+01
#aMCatNLO 2  0  0  1  5 0.12464894D+02 0.00000000D+00  -5  6  0 0.00000000D+00 0.00000000D+00 0.00000000D+00 0.00000000D+00 0.00000000D+00
  <mgrwgt>
 0.1140226357D-01    2    2    0
 0.449507190621884D+03 0.000000000000000D+00 0.000000000000000D+00 0.449507190621884D+03
 0.449507190621884D+03 0.000000000000000D+00 0.000000000000000D+00 -.449507190621884D+03
 0.357717103020293D+03 0.148923135863081D+03 0.738980341170345D+02 0.291028359359659D+03
 0.164308314636253D+03 0.202514257686195D+01 -.134612853948336D+03 0.490437014678020D+02
 0.376988963587220D+03 -.150948278439943D+03 0.607148198313015D+02 -.340072060827461D+03
 0.000000000000000D+00 -.000000000000000D+00 0.000000000000000D+00 0.000000000000000D+00
 0.503434070296158D+03 0.000000000000000D+00 0.000000000000000D+00 0.503434070296158D+03
 0.450271270191728D+03 0.000000000000000D+00 0.000000000000000D+00 -.450271270191728D+03
 0.358948600104717D+03 0.153121500850304D+03 0.712418243934790D+02 0.291028359359659D+03
 0.165345726760653D+03 0.395631910625655D+01 -.135834665270337D+03 0.490437014678020D+02
 0.374806463513957D+03 -.146544116799541D+03 0.579284072614198D+02 -.340072060827461D+03
 0.546045501085606D+02 -.105337031570196D+02 0.666443361543800D+01 0.531628001044294D+02
-.194014376598D-01 0.000000000000D+00 0.000000000000D+00 0.152934753756D-05 0.000000000000D+00  6 -1 2 25 24 21 21 4 0.17688856D+00 0.30307286D-01 0.72376807D+05 0.72376807D+05 0.72376807D+05 0.11766939D+01  1  2 13  1  6  1       -1 -.178014530875D+00 0.100000000000D+01
0.206291436037D-01 0.000000000000D+00 0.000000000000D+00 0.153360695100D-05 0.390613769753D-07  6 -1 2 25 24 21 21 4 0.17672805D+00 0.30358802D-01 0.72376807D+05 0.72376807D+05 0.72376807D+05 0.11766939D+01  1  2  1  1  6  1       -1 0.189416794448D+00 0.100000000000D+01
  </mgrwgt>
  </event>
  <event>
  6     66 -.43135346E-03 0.11963111E+02 0.75467711E-02 0.12332070E+00
       -1 -1    0    0    0  501 0.00000000E+00 0.00000000E+00 0.47836173E+02 0.47837243E+02 0.32000000E+00 0.0000E+00 0.9000E+01
        2 -1    0    0  502    0 -.00000000E+00 -.00000000E+00 -.43789040E+03 0.43789051E+03 0.32000000E+00 0.0000E+00 0.9000E+01
       25  1    1    2    0    0 0.19299355E+02 0.19473636E+02 -.81893625E+02 0.15193174E+03 0.12500000E+03 0.0000E+00 0.9000E+01
       24  1    1    2    0    0 -.37992115E+02 -.36585082E+02 -.21272841E+03 0.23345763E+03 0.80419002E+02 0.0000E+00 0.9000E+01
       21  1    1    2  503  501 0.99131091E+01 0.32179537E+01 -.64132470E+02 0.64978159E+02 0.75000000E+00 0.0000E+00 0.9000E+01
       21  1    1    2  502  503 0.87796511E+01 0.13893492E+02 -.31299714E+02 0.35360232E+02 0.75000000E+00 0.0000E+00 0.9000E+01
#aMCatNLO 2  0  0  5  2 0.88424826D+01 0.00000000D+00  -5  6  0 0.00000000D+00 0.00000000D+00 0.00000000D+00 0.00000000D+00 0.00000000D+00
  <mgrwgt>
 -.3588493667D+00    2    2    0
 0.144731783165838D+03 0.000000000000000D+00 0.000000000000000D+00 0.144731783165838D+03
 0.144731783165838D+03 -.000000000000000D+00 -.000000000000000D+00 -.144731783165838D+03
 0.145016069201320D+03 0.181797464119616D+02 0.184487412369687D+02 0.688026241779353D+02
 0.105222249517661D+03 -.388051860892032D+02 -.373293714740149D+02 -.412938421211163D+02
 0.392252476126942D+02 0.206254396772417D+02 0.188806302370463D+02 -.275087820568190D+02
 0.000000000000000D+00 0.000000000000000D+00 0.000000000000000D+00 0.000000000000000D+00
 0.144731783165838D+03 0.000000000000000D+00 0.000000000000000D+00 0.144731783165838D+03
 0.144731783165838D+03 -.000000000000000D+00 -.000000000000000D+00 -.144731783165838D+03
 0.144594673992400D+03 0.192957358089859D+02 0.194703234908941D+02 0.673141948605067D+02
 0.105095578549406D+03 -.379947449310483D+02 -.365874896002001D+02 -.423747523726519D+02
 0.220117900109856D+02 0.955358876771701D+01 0.284875717302562D+01 -.196247910489313D+02
 0.177615237788838D+02 0.914542035434549D+01 0.142684089362804D+02 -.531465143892357D+01
-.101893823753D-03 0.000000000000D+00 0.000000000000D+00 0.252320717511D-04 0.000000000000D+00  6 -1 2 25 24 21 21 4 0.73595025D-02 0.67367845D-01 0.15757973D+05 0.15757973D+05 0.15757973D+05 0.12453892D+01  1  2 13  3  6  5       21 -.187544655729D+00 0.100000000000D+01
-.930705914381D-04 0.000000000000D+00 0.000000000000D+00 0.252320717511D-04 0.000000000000D+00  6 -1 2 25 24 21 21 4 0.73595025D-02 0.67367845D-01 0.15757973D+05 0.15757973D+05 0.15757973D+05 0.12453892D+01  1  2 13  3  6  5       21 -.171304710990D+00 0.100000000000D+01
  </mgrwgt>
  </event>
  <event>
  5     66 0.43135346E-03 0.42223924E+02 0.75467711E-02 0.11165287E+00
       -3 -1    0    0    0  501 0.00000000E+00 0.00000000E+00 0.17646200E+03 0.17646271E+03 0.50000000E+00 0.0000E+00 0.9000E+01
        4 -1    0    0  502    0 0.00000000E+00 0.00000000E+00 -.22459347E+03 0.22459882E+03 0.15500000E+01 0.0000E+00 0.9000E+01
       25  1    1    2    0    0 0.58863695E+02 -.12680354E+03 -.64008675E+02 0.19815697E+03 0.12500000E+03 0.0000E+00 0.9000E+01
       24  1    1    2    0    0 -.39629771E+02 0.89218269E+02 0.61583370E+02 0.14067745E+03 0.80419002E+02 0.0000E+00 0.9000E+01
       21  1    1    2  502  501 -.19233924E+02 0.37585276E+02 -.45706168E+02 0.62227109E+02 0.75000000E+00 0.0000E+00 0.9000E+01
#aMCatNLO 1  0  0  2  2 0.12343153D+03 0.00000000D+00  -5  6  0 0.00000000D+00 0.00000000D+00 0.00000000D+00 0.00000000D+00 0.00000000D+00
  <mgrwgt>
 0.2425826640D-01    3    2    0
 0.199081460913130D+03 0.000000000000000D+00 0.000000000000000D+00 0.199081460913130D+03
 0.199081460913130D+03 0.000000000000000D+00 0.000000000000000D+00 -.199081460913130D+03
 0.191862864203366D+03 0.588644935029782D+02 -.126805104392674D+03 -.405190765556226D+02
 0.149145782521647D+03 -.396291506797058D+02 0.892170568844118D+02 0.790385707544914D+02
 0.571542751012455D+02 -.192353428232724D+02 0.375880475082618D+02 -.385194941988689D+02
 0.000000000000000D+00 -.000000000000000D+00 0.000000000000000D+00 0.000000000000000D+00
 0.367741446516258D+03 0.000000000000000D+00 0.000000000000000D+00 0.367741446516258D+03
 0.232335902809025D+03 0.000000000000000D+00 0.000000000000000D+00 -.232335902809025D+03
 0.241040205394945D+03 0.106773369963654D+03 -.171560579733579D+03 -.405190765556226D+02
 0.128290293698716D+03 -.892562456770734D+01 0.605344617725790D+02 0.790385707544914D+02
 0.475256585219780D+02 -.765053698551239D+01 0.267657629901387D+02 -.385194941988689D+02
 0.183221191709644D+03 -.901972084104343D+02 0.842603549708611D+02 0.135405543707233D+03
0.668865929473D-03 0.000000000000D+00 0.000000000000D+00 0.922624053034D-05 0.000000000000D+00  6 -3 4 25 24 21 21 2 0.27148466D-01 0.34553308D-01 0.31726757D+05 0.31726757D+05 0.31726757D+05 0.12123558D+01  1  2  2  2  6  2        4 0.211156983093D-01 0.100000000000D+01
0.501458964525D-04 0.352970248293D-04 -.256862128562D-05 0.922624053034D-05 0.000000000000D+00  6 -3 4 25 24 21 21 4 0.27148466D-01 0.34553308D-01 0.31726757D+05 0.31726757D+05 0.31726757D+05 0.12123558D+01  1  2  3  2  6  2        4 0.232681560245D-02 0.100000000000D+01
0.175805250082D-04 0.000000000000D+00 0.000000000000D+00 0.922624053034D-05 0.000000000000D+00  6 -3 4 25 24 21 21 4 0.27148466D-01 0.34553308D-01 0.31726757D+05 0.31726757D+05 0.31726757D+05 0.12123558D+01  1  2 15  2  6  2        4 0.815752489881D-03 0.100000000000D+01
  </mgrwgt>
  </event>
  <event>
  5     66 0.43135346E-03 0.23032838E+02 0.75467711E-02 0.11891034E+00
       -1 -1    0    0    0  501 0.00000000E+00 0.00000000E+00 0.37515899E+02 0.37517264E+02 0.32000000E+00 0.0000E+00 0.9000E+01
        2 -1    0    0  502    0 -.00000000E+00 -.00000000E+00 -.17871242E+04 0.17871242E+04 0.32000000E+00 0.0000E+00 0.9000E+01
       25  1    1    2    0    0 0.20999995E+02 -.90089830E+02 -.21341146E+03 0.26405801E+03 0.12500000E+03 0.0000E+00 0.9000E+01
       24  1    1    2    0    0 -.27591450E+02 0.11215920E+03 -.39797325E+03 0.42212663E+03 0.80419002E+02 0.0000E+00 0.9000E+01
       21  1    1    2  502  501 0.65914552E+01 -.22069367E+02 -.11382236E+04 0.11384568E+04 0.75000000E+00 0.0000E+00 0.9000E+01
#aMCatNLO 1  0  0  5  1 0.10312511D+02 0.00000000D+00  -5  6  0 0.00000000D+00 0.00000000D+00 0.00000000D+00 0.00000000D+00 0.00000000D+00
  <mgrwgt>
 0.6021445801D+00   15    2    0
 0.258934049473334D+03 0.000000000000000D+00 0.000000000000000D+00 0.258934049473334D+03
 0.258934049473334D+03 -.000000000000000D+00 -.000000000000000D+00 -.258934049473334D+03
 0.209367862916117D+03 0.209999678498708D+02 -.900897382107266D+02 0.140188239312323D+03
 0.142763266878067D+03 -.275914689671802D+02 0.112159259234687D+03 0.239404641451923D+02
 0.165736969152484D+03 0.659150111730938D+01 -.220695210239600D+02 -.164128703457515D+03
 0.000000000000000D+00 0.000000000000000D+00 0.000000000000000D+00 -.000000000000000D+00
 0.258934049473334D+03 0.000000000000000D+00 0.000000000000000D+00 0.258934049473334D+03
 0.258934049473334D+03 -.000000000000000D+00 -.000000000000000D+00 -.258934049473334D+03
 0.209008458886799D+03 0.210237559104800D+02 -.901693848791241D+02 0.139595915427966D+03
 0.142650220624575D+03 -.275752409136658D+02 0.112104924818013D+03 0.235363848109775D+02
 0.533307678860664D+02 0.115847048877433D+02 -.108670000784634D+02 -.509104480954162D+02
 0.112878651549227D+03 -.503321988455746D+01 -.110685398604253D+02 -.112221852143527D+03
0.243789586890D-03 0.000000000000D+00 0.000000000000D+00 0.518355302283D-04 0.000000000000D+00  6 -1 2 25 24 21 21 2 0.57717840D-02 0.27494229D+00 0.25485026D+05 0.25485026D+05 0.25485026D+05 0.12224040D+01  1  2  2  3  6  5       21 0.569684161600D-01 0.100000000000D+01
0.628417795650D-04 0.128651299497D-04 -.936216204930D-06 0.518355302283D-04 0.000000000000D+00  6 -1 2 25 24 21 21 4 0.57717840D-02 0.27494229D+00 0.25485026D+05 0.25485026D+05 0.25485026D+05 0.12224040D+01  1  2  3  3  6  5       21 0.219430485562D-01 0.100000000000D+01
0.100140289722D-04 0.000000000000D+00 0.000000000000D+00 0.518355302283D-04 0.000000000000D+00  6 -1 2 25 24 21 21 4 0.57717840D-02 0.27494229D+00 0.25485026D+05 0.25485026D+05 0.25485026D+05 0.12224040D+01  1  2 15  3  6  5       21 0.349669161984D-02 0.100000000000D+01
0.528825585857D-03 0.000000000000D+00 0.000000000000D+00 0.517130638033D-04 0.000000000000D+00  6 -1 2 25 24 21 21 4 0.57717840D-02 0.27494229D+00 0.26291602D+05 0.26291602D+05 0.26291602D+05 0.12209591D+01  1  2 12  3  6  5       21 0.183742304105D+00 0.100000000000D+01
-.923039984609D-03 0.000000000000D+00 0.000000000000D+00 0.518355302283D-04 0.000000000000D+00  6 -1 2 25 24 21 21 4 0.57717840D-02 0.27494229D+00 0.25485026D+05 0.25485026D+05 0.25485026D+05 0.12224040D+01  1  2  4  3  6  5       21 -.322306455065D+00 0.100000000000D+01
-.104053537691D-02 0.000000000000D+00 0.000000000000D+00 0.518355302283D-04 0.000000000000D+00  6 -1 2 25 24 21 21 4 0.57717840D-02 0.27494229D+00 0.25485026D+05 0.25485026D+05 0.25485026D+05 0.12224040D+01  1  2  5  3  6  5       21 -.363333413823D+00 0.100000000000D+01
0.312760884949D-02 0.000000000000D+00 -.000000000000D+00 0.518355302283D-04 0.000000000000D+00  6 -1 2 25 24 21 21 4 0.57717840D-02 0.27494229D+00 0.25485026D+05 0.25485026D+05 0.25485026D+05 0.12224040D+01  1  2  6  3  6  5       21 0.109209626660D+01 0.100000000000D+01
0.600037981082D-04 0.000000000000D+00 0.000000000000D+00 0.517130638033D-04 0.000000000000D+00  6 -1 2 25 24 1 -1 4 0.57717840D-02 0.27494229D+00 0.26291602D+05 0.26291602D+05 0.26291602D+05 0.12209591D+01  1  2 12  6  6  5       21 0.208485300529D-01 0.100000000000D+01
-.110155727002D-03 0.000000000000D+00 0.000000000000D+00 0.518355302283D-04 0.000000000000D+00  6 -1 2 25 24 1 -1 4 0.57717840D-02 0.27494229D+00 0.25485026D+05 0.25485026D+05 0.25485026D+05 0.12224040D+01  1  2  5  6  6  5       21 -.384640995701D-01 0.100000000000D+01
0.600037981082D-04 0.000000000000D+00 0.000000000000D+00 0.517130638033D-04 0.000000000000D+00  6 -1 2 25 24 2 -2 4 0.57717840D-02 0.27494229D+00 0.26291602D+05 0.26291602D+05 0.26291602D+05 0.12209591D+01  1  2 12  7  6  5       21 0.208485300529D-01 0.100000000000D+01
-.110155727002D-03 0.000000000000D+00 0.000000000000D+00 0.518355302283D-04 0.000000000000D+00  6 -1 2 25 24 2 -2 4 0.57717840D-02 0.27494229D+00 0.25485026D+05 0.25485026D+05 0.25485026D+05 0.12224040D+01  1  2  5  7  6  5       21 -.384640995701D-01 0.100000000000D+01
0.600037981082D-04 0.000000000000D+00 0.000000000000D+00 0.517130638033D-04 0.000000000000D+00  6 -1 2 25 24 3 -3 4 0.57717840D-02 0.27494229D+00 0.26291602D+05 0.26291602D+05 0.26291602D+05 0.12209591D+01  1  2 12  8  6  5       21 0.208485300529D-01 0.100000000000D+01
0.600037981082D-04 0.000000000000D+00 0.000000000000D+00 0.517130638033D-04 0.000000000000D+00  6 -1 2 25 24 4 -4 4 0.57717840D-02 0.27494229D+00 0.26291602D+05 0.26291602D+05 0.26291602D+05 0.12209591D+01  1  2 12  8  6  5       21 0.208485300529D-01 0.100000000000D+01
-.110155727002D-03 0.000000000000D+00 0.000000000000D+00 0.518355302283D-04 0.000000000000D+00  6 -1 2 25 24 3 -3 4 0.57717840D-02 0.27494229D+00 0.25485026D+05 0.25485026D+05 0.25485026D+05 0.12224040D+01  1  2  5  8  6  5       21 -.384640995701D-01 0.100000000000D+01
-.110155727002D-03 0.000000000000D+00 0.000000000000D+00 0.518355302283D-04 0.000000000000D+00  6 -1 2 25 24 4 -4 4 0.57717840D-02 0.27494229D+00 0.25485026D+05 0.25485026D+05 0.25485026D+05 0.12224040D+01  1  2  5  8  6  5       21 -.384640995701D-01 0.100000000000D+01
  </mgrwgt>
  </event>
  <event>
  5     66 0.43135346E-03 0.24783244E+02 0.75467711E-02 0.11336768E+00
       -1 -1    0    0    0  501 0.00000000E+00 0.00000000E+00 0.19100241E+02 0.19102922E+02 0.32000000E+00 0.0000E+00 0.9000E+01
        2 -1    0    0  502    0 0.00000000E+00 0.00000000E+00 -.92720341E+03 0.92720346E+03 0.32000000E+00 0.0000E+00 0.9000E+01
       25  1    1    2    0    0 0.47641128E+02 -.44354997E-01 -.35614615E+03 0.38044022E+03 0.12500000E+03 0.0000E+00 0.9000E+01
       24  1    1    2    0    0 -.30667748E+02 0.18098084E+02 -.29815786E+03 0.31085910E+03 0.80419002E+02 0.0000E+00 0.9000E+01
       21  1    1    2  502  501 -.16973379E+02 -.18053729E+02 -.25379915E+03 0.25500707E+03 0.75000000E+00 0.0000E+00 0.9000E+01
#aMCatNLO 1  0  0  2  1 0.55535077D+01 0.00000000D+00  -5  6  0 0.00000000D+00 0.00000000D+00 0.00000000D+00 0.00000000D+00 0.00000000D+00
  <mgrwgt>
 0.4697328234D+00    3    2    0
 0.133083068844737D+03 0.000000000000000D+00 0.000000000000000D+00 0.133083068844737D+03
 0.133083068844737D+03 0.000000000000000D+00 0.000000000000000D+00 -.133083068844737D+03
 0.137492589527120D+03 0.476426153319348D+02 -.427729214646444D-01 0.317709230222171D+02
 0.879519075520409D+02 -.306667970049314D+02 0.180990956110420D+02 0.540728391072225D+00
 0.407216406103130D+02 -.169758183270034D+02 -.180563226895774D+02 -.323116514132894D+02
 0.000000000000000D+00 -.000000000000000D+00 0.000000000000000D+00 0.000000000000000D+00
 0.265540491898805D+03 0.000000000000000D+00 0.000000000000000D+00 0.265540491898805D+03
 0.203488468148295D+03 0.000000000000000D+00 0.000000000000000D+00 -.203488468148295D+03
 0.179071052532348D+03 0.112627105168597D+03 -.524136002073993D+02 0.317709230222171D+02
 0.811252332958978D+02 0.404152158012189D+01 -.987224589785948D+01 0.540728391072225D+00
 0.457359156023901D+02 0.772272219514921D+00 -.323594615924615D+02 -.323116514132894D+02
 0.163096758616463D+03 -.117440898968234D+03 0.946453076977203D+02 0.620520237505101D+02
0.199199841155D-03 0.000000000000D+00 0.000000000000D+00 0.421021109728D-04 0.000000000000D+00  6 -1 2 25 24 21 21 2 0.29387091D-02 0.14264689D+00 0.15191180D+05 0.15191180D+05 0.15191180D+05 0.12471960D+01  1  2  2  2  6  2        2 0.381737564267D+00 0.100000000000D+01
0.213275084350D-04 0.105120644204D-04 -.764979840558D-06 0.421021109728D-04 0.000000000000D+00  6 -1 2 25 24 21 21 4 0.29387091D-02 0.14264689D+00 0.15191180D+05 0.15191180D+05 0.15191180D+05 0.12471960D+01  1  2  3  2  6  2        2 0.635748641899D-01 0.100000000000D+01
0.819232860649D-05 0.000000000000D+00 0.000000000000D+00 0.421021109728D-04 0.000000000000D+00  6 -1 2 25 24 21 21 4 0.29387091D-02 0.14264689D+00 0.15191180D+05 0.15191180D+05 0.15191180D+05 0.12471960D+01  1  2 15  2  6  2        2 0.244203949161D-01 0.100000000000D+01
  </mgrwgt>
  </event>
  <event>
  5     66 0.43135346E-03 0.70580942E+02 0.75467711E-02 0.11252794E+00
       -1 -1    0    0    0  501 0.00000000E+00 0.00000000E+00 0.56371222E+02 0.56372131E+02 0.32000000E+00 0.0000E+00 0.9000E+01
        2 -1    0    0  502    0 0.00000000E+00 0.00000000E+00 -.91058142E+03 0.91058148E+03 0.32000000E+00 0.0000E+00 0.9000E+01
       25  1    1    2    0    0 -.74889251E+01 0.11514409E+03 -.62406887E+03 0.64683939E+03 0.12500000E+03 0.0000E+00 0.9000E+01
       24  1    1    2    0    0 -.63007404E+02 -.11173746E+03 -.16695931E+03 0.22538372E+03 0.80419002E+02 0.0000E+00 0.9000E+01
       21  1    1    2  502  501 0.70496329E+02 -.34066315E+01 -.63182017E+02 0.94730498E+02 0.75000000E+00 0.0000E+00 0.9000E+01
#aMCatNLO 1  0  0  1  1 0.67505653D+02 0.00000000D+00  -5  6  0 0.00000000D+00 0.00000000D+00 0.00000000D+00 0.00000000D+00 0.00000000D+00
  <mgrwgt>
 0.1299890189D+00    4    2    0
 0.226563576688735D+03 0.000000000000000D+00 0.000000000000000D+00 0.226563576688735D+03
 0.226563576688735D+03 0.000000000000000D+00 0.000000000000000D+00 -.226563576688735D+03
 0.203867564828453D+03 -.749021875925659D+01 0.115144152080299D+03 -.112350811540152D+03
 0.166216689658215D+03 -.630084582277205D+02 -.111737407135307D+03 0.685963410468010D+02
 0.830428988908014D+02 0.704986769869771D+02 -.340674494499187D+01 0.437544704933509D+02
 0.000000000000000D+00 -.000000000000000D+00 0.000000000000000D+00 -.000000000000000D+00
 0.235542550727202D+03 0.000000000000000D+00 0.000000000000000D+00 0.235542550727202D+03
 0.404913498335272D+03 0.000000000000000D+00 0.000000000000000D+00 -.404913498335272D+03
 0.190847073681213D+03 0.759521533480075D+01 0.900955791533053D+02 -.112350811540152D+03
 0.177468286510829D+03 -.498733055090588D+02 -.133547640021493D+03 0.685963410468010D+02
 0.898126025885741D+02 0.771049692826161D+02 -.143761471718419D+02 0.437544704933509D+02
 0.182328086281858D+03 -.348268791083580D+02 0.578282080400296D+02 -.169370947608069D+03
0.354622920473D-03 0.000000000000D+00 0.000000000000D+00 0.290250132335D-05 0.000000000000D+00  6 -1 2 25 24 21 21 2 0.86725700D-02 0.14008952D+00 0.38435272D+05 0.38435272D+05 0.38435272D+05 0.12037641D+01  1  2  2  1  6  1       -1 0.132156032871D+00 0.100000000000D+01
-.220716448065D-05 0.187139656505D-04 -.136184538898D-05 0.290250132335D-05 0.000000000000D+00  6 -1 2 25 24 21 21 4 0.86725700D-02 0.14008952D+00 0.38435272D+05 0.38435272D+05 0.38435272D+05 0.12037641D+01  1  2  3  1  6  1       -1 -.119189409642D-02 0.100000000000D+01
0.148412313954D-04 0.000000000000D+00 0.000000000000D+00 0.290250132335D-05 0.000000000000D+00  6 -1 2 25 24 21 21 4 0.86725700D-02 0.14008952D+00 0.38435272D+05 0.38435272D+05 0.38435272D+05 0.12037641D+01  1  2 15  1  6  1       -1 0.801443491813D-02 0.100000000000D+01
-.166469706247D-04 0.000000000000D+00 0.000000000000D+00 0.290250132335D-05 0.000000000000D+00  6 -1 2 25 24 21 21 4 0.86725700D-02 0.14008952D+00 0.38435272D+05 0.38435272D+05 0.38435272D+05 0.12037641D+01  1  2  4  1  6  1       -1 -.898955478160D-02 0.100000000000D+01
  </mgrwgt>
  </event>
  <event>
  5     66 -.43135346E-03 0.26697304E+02 0.75467711E-02 0.12397471E+00
       -1 -1    0    0    0  501 0.00000000E+00 0.00000000E+00 0.31521704E+02 0.31523328E+02 0.32000000E+00 0.0000E+00 0.9000E+01
        2 -1    0    0  502    0 0.00000000E+00 0.00000000E+00 -.65426582E+03 0.65426590E+03 0.32000000E+00 0.0000E+00 0.9000E+01
       25  1    1    2    0    0 0.11316532E+02 0.22174150E+02 -.15868993E+03 0.20353686E+03 0.12500000E+03 0.0000E+00 0.9000E+01
       24  1    1    2    0    0 -.36066749E+02 -.12170817E+02 -.22885346E+03 0.24554034E+03 0.80419002E+02 0.0000E+00 0.9000E+01
       21  1    1    2  502  501 0.24750217E+02 -.10003333E+02 -.23520072E+03 0.23671203E+03 0.75000000E+00 0.0000E+00 0.9000E+01
#aMCatNLO 1  0  0  1  5 0.89211284D+00 0.00000000D+00  -5  6  0 0.00000000D+00 0.00000000D+00 0.00000000D+00 0.00000000D+00 0.00000000D+00
  <mgrwgt>
 -.2173717185D+00   11    4    0
 0.143611131263705D+03 0.000000000000000D+00 0.000000000000000D+00 0.143611131263705D+03
 0.143611131263705D+03 0.000000000000000D+00 0.000000000000000D+00 -.143611131263705D+03
 0.141912514311637D+03 0.113154044009284D+02 0.221746057777519D+02 0.624052097191842D+02
 0.900758385967570D+02 -.360674643973160D+02 -.121705278121382D+02 -.140519396974510D+02
 0.552339096190148D+02 0.247520599963876D+02 -.100040779656137D+02 -.483532700217333D+02
 0.000000000000000D+00 -.000000000000000D+00 0.000000000000000D+00 0.000000000000000D+00
 0.144932739383171D+03 0.000000000000000D+00 0.000000000000000D+00 0.144932739383171D+03
 0.143762451599488D+03 0.000000000000000D+00 0.000000000000000D+00 -.143762451599488D+03
 0.141924068342200D+03 0.117323024556011D+02 0.220314333123473D+02 0.624052097191842D+02
 0.899825994447854D+02 -.358029952727054D+02 -.122613526460983D+02 -.140519396974510D+02
 0.553169801890952D+02 0.249144367079180D+02 -.100598418960364D+02 -.483532700217333D+02
 0.147154300657884D+01 -.843743890813697D+00 0.289761229787409D+00 0.117028778368303D+01
 0.143611131263705D+03 0.000000000000000D+00 0.000000000000000D+00 0.143611131263705D+03
 0.143611131263705D+03 0.000000000000000D+00 0.000000000000000D+00 -.143611131263705D+03
 0.141912514311637D+03 0.113154044009284D+02 0.221746057777519D+02 0.624052097191842D+02
 0.900758385967570D+02 -.360674643973160D+02 -.121705278121382D+02 -.140519396974510D+02
 0.000000000000000D+00 -.000000000000000D+00 0.000000000000000D+00 0.000000000000000D+00
 0.552339096190148D+02 0.247520599963876D+02 -.100040779656137D+02 -.483532700217333D+02
 0.144932739383171D+03 0.000000000000000D+00 0.000000000000000D+00 0.144932739383171D+03
 0.143762451599488D+03 0.000000000000000D+00 0.000000000000000D+00 -.143762451599488D+03
 0.141924068342200D+03 0.117323024556011D+02 0.220314333123473D+02 0.624052097191842D+02
 0.899825994447854D+02 -.358029952727054D+02 -.122613526460983D+02 -.140519396974510D+02
 0.147154300657884D+01 -.843743890813697D+00 0.289761229787409D+00 0.117028778368303D+01
 0.553169801890952D+02 0.249144367079180D+02 -.100598418960364D+02 -.483532700217333D+02
0.536906149329D-04 0.000000000000D+00 0.000000000000D+00 0.352850389057D-04 0.000000000000D+00  6 -1 2 25 24 21 21 2 0.48496238D-02 0.10065641D+00 0.14777470D+05 0.14777470D+05 0.14777470D+05 0.12485632D+01  1  2  2  1  6  1       -1 0.760563949164D-01 0.100000000000D+01
0.426086520994D-05 0.283333159140D-05 -.206186098406D-06 0.352850389057D-04 0.000000000000D+00  6 -1 2 25 24 21 21 4 0.48496238D-02 0.10065641D+00 0.14777470D+05 0.14777470D+05 0.14777470D+05 0.12485632D+01  1  2  3  1  6  1       -1 0.940927636336D-02 0.100000000000D+01
0.202454019881D-05 0.000000000000D+00 0.000000000000D+00 0.352850389057D-04 0.000000000000D+00  6 -1 2 25 24 21 21 4 0.48496238D-02 0.10065641D+00 0.14777470D+05 0.14777470D+05 0.14777470D+05 0.12485632D+01  1  2 15  1  6  1       -1 0.447079578929D-02 0.100000000000D+01
0.236845507326D-09 0.000000000000D+00 0.000000000000D+00 0.352624517085D-04 0.000000000000D+00  6 -1 2 25 24 21 21 4 0.49013363D-02 0.10065641D+00 0.14897088D+05 0.14897088D+05 0.14897088D+05 0.12481635D+01  1  2 12  1  6  1       -1 0.514386069959D-06 0.100000000000D+01
-.448142661549D-02 0.000000000000D+00 0.000000000000D+00 0.352850389057D-04 0.000000000000D+00  6 -1 2 25 24 21 21 4 0.48496238D-02 0.10065641D+00 0.14777470D+05 0.14777470D+05 0.14777470D+05 0.12485632D+01  1  2  4  1  6  1       -1 -.989634251487D+01 0.100000000000D+01
-.152325937540D-01 0.000000000000D+00 -.117190159269D-02 0.352850389057D-04 0.000000000000D+00  6 -1 2 25 24 21 21 4 0.48992254D-02 0.10065641D+00 0.14777470D+05 0.14777470D+05 0.14777470D+05 0.12485632D+01  1  2  5  1  6  1       -1 -.331374714233D+02 0.100000000000D+01
0.152437904089D-01 0.000000000000D+00 0.117184091985D-02 0.352850389057D-04 0.000000000000D+00  6 -1 2 25 24 21 21 4 0.48496238D-02 0.10065641D+00 0.14777470D+05 0.14777470D+05 0.14777470D+05 0.12485632D+01  1  2  6  1  6  1       -1 0.336628899801D+02 0.100000000000D+01
0.450759506880D-02 0.000000000000D+00 0.000000000000D+00 0.352850389057D-04 0.155609172981D-03  6 -1 2 25 24 21 21 4 0.48942534D-02 0.10076247D+00 0.14897088D+05 0.14897088D+05 0.14897088D+05 0.12481635D+01  1  2 11  1  6  1       -1 0.979861674333D+01 0.100000000000D+01
0.367005822510D-10 0.000000000000D+00 0.000000000000D+00 0.352624517085D-04 0.000000000000D+00  6 21 2 25 24 1 21 4 0.49013363D-02 0.10065641D+00 0.14897088D+05 0.14897088D+05 0.14897088D+05 0.12481635D+01  3  4 12  4  5  1       -1 0.140433988337D-05 0.100000000000D+01
-.285801599436D-04 0.000000000000D+00 -.220223744760D-05 0.352850389057D-04 0.000000000000D+00  6 21 2 25 24 1 21 4 0.48992254D-02 0.10065641D+00 0.14777470D+05 0.14777470D+05 0.14777470D+05 0.12485632D+01  3  4  5  4  5  1       -1 -.109565604976D+01 0.100000000000D+01
0.941386880524D-05 0.000000000000D+00 0.000000000000D+00 0.352850389057D-04 0.628641939518D-06  6 21 2 25 24 1 21 4 0.48942534D-02 0.10076247D+00 0.14897088D+05 0.14897088D+05 0.14897088D+05 0.12481635D+01  3  4 11  4  5  1       -1 0.360653160250D+00 0.100000000000D+01
  </mgrwgt>
  </event>
  <event>
  6     66 -.43135346E-03 0.10851953E+02 0.75467711E-02 0.12271754E+00
       -3 -1    0    0    0  501 0.00000000E+00 0.00000000E+00 0.36317102E+03 0.36317136E+03 0.50000000E+00 0.0000E+00 0.9000E+01
        4 -1    0    0  502    0 0.00000000E+00 0.00000000E+00 -.85622143E+02 0.85636171E+02 0.15500000E+01 0.0000E+00 0.9000E+01
       25  1    1    2    0    0 -.32269803E+02 0.35673943E+02 0.26926028E+03 0.30073255E+03 0.12500000E+03 0.0000E+00 0.9000E+01
       24  1    1    2    0    0 -.20399885E+01 -.26288470E+02 -.21848879E+02 0.87406148E+02 0.80419002E+02 0.0000E+00 0.9000E+01
        1  1    1    2  502    0 0.14391023E+02 -.15321461E+02 0.33561223E+02 0.39601853E+02 0.32000000E+00 0.0000E+00 0.9000E+01
       -1  1    1    2    0  501 0.19918769E+02 0.59359879E+01 -.34237455E+01 0.21066982E+02 0.32000000E+00 0.0000E+00 0.9000E+01
#aMCatNLO 2  0  0  5  1 0.19108904D+02 0.00000000D+00  -5  6  0 0.00000000D+00 0.00000000D+00 0.00000000D+00 0.00000000D+00 0.00000000D+00
  <mgrwgt>
 -.2614713681D-03    3    2    0
 0.176348252392202D+03 0.000000000000000D+00 0.000000000000000D+00 0.176348252392202D+03
 0.176348252392202D+03 -.000000000000000D+00 -.000000000000000D+00 -.176348252392202D+03
 0.174208100402272D+03 -.400697169155856D+02 0.378076162023120D+02 0.108113200809021D+03
 0.127139974136117D+03 -.781774191879456D+01 -.247079611298219D+02 -.950039822168535D+02
 0.513484302460153D+02 0.478874588343802D+02 -.130996550724901D+02 -.131092185921674D+02
 0.000000000000000D+00 0.000000000000000D+00 0.000000000000000D+00 0.000000000000000D+00
 0.176348252392202D+03 0.000000000000000D+00 0.000000000000000D+00 0.176348252392202D+03
 0.176348252392202D+03 -.000000000000000D+00 -.000000000000000D+00 -.176348252392202D+03
 0.170805257003991D+03 -.322989015047280D+02 0.356819030408288D+02 0.105985935751741D+03
 0.128412874515059D+03 -.206186617671794D+01 -.262824858320427D+02 -.965796564148351D+02
 0.236647463732244D+02 0.139921646746698D+02 -.151648656106434D+02 0.115873379012216D+02
 0.298136268921298D+02 0.203686030067762D+02 0.576544840185727D+01 -.209936172381273D+02
-.503169569662D-05 0.000000000000D+00 0.000000000000D+00 0.491542080675D-05 0.000000000000D+00  6 -3 4 25 24 1 -1 4 0.55873570D-01 0.13173743D-01 0.16949206D+05 0.16949206D+05 0.16949206D+05 0.12418188D+01  1  2 13  8  6  5       21 -.353676124105D-03 0.100000000000D+01
-.474999112019D-05 0.000000000000D+00 0.000000000000D+00 0.491542080675D-05 0.000000000000D+00  6 -3 4 25 24 1 -1 4 0.55873570D-01 0.13173743D-01 0.16949206D+05 0.16949206D+05 0.16949206D+05 0.12418188D+01  1  2 13  8  6  5       21 -.333875208322D-03 0.100000000000D+01
0.606177397022D-05 0.000000000000D+00 0.000000000000D+00 0.491542080675D-05 0.201583068248D-08  6 -3 4 25 24 1 -1 4 0.55873570D-01 0.13173743D-01 0.16949206D+05 0.16949206D+05 0.16949206D+05 0.12418188D+01  1  2  1  8  6  5       21 0.426079964341D-03 0.100000000000D+01
  </mgrwgt>
  </event>
  <event>
  6     66 0.43135346E-03 0.19008428E+02 0.75467711E-02 0.12343457E+00
       -1 -1    0    0    0  503 0.00000000E+00 0.00000000E+00 0.31149353E+02 0.31150997E+02 0.32000000E+00 0.0000E+00 0.9000E+01
        2 -1    0    0  502    0 0.00000000E+00 0.00000000E+00 -.16632041E+04 0.16632041E+04 0.32000000E+00 0.0000E+00 0.9000E+01
       25  1    1    2    0    0 -.24575451E+02 -.14910431E+02 -.80909551E+03 0.81919889E+03 0.12500000E+03 0.0000E+00 0.9000E+01
       24  1    1    2    0    0 0.12590326E+02 0.17291274E+02 -.63624509E+03 0.64166388E+03 0.80419002E+02 0.0000E+00 0.9000E+01
       21  1    1    2  502  501 -.13158256E+02 0.35036230E+01 -.20267004E+03 0.20312834E+03 0.75000000E+00 0.0000E+00 0.9000E+01
       21  1    1    2  501  503 0.25143381E+02 -.58844658E+01 0.15955937E+02 0.30363975E+02 0.75000000E+00 0.0000E+00 0.9000E+01
#aMCatNLO 2  0  0  1  2 0.87184970D+02 0.00000000D+00  -5  6  0 0.00000000D+00 0.00000000D+00 0.00000000D+00 0.00000000D+00 0.00000000D+00
  <mgrwgt>
 0.5272621331D+00    1    2    0
 0.114302802824187D+03 0.000000000000000D+00 0.000000000000000D+00 0.114302802824187D+03
 0.114302802824187D+03 0.000000000000000D+00 0.000000000000000D+00 -.114302802824187D+03
 0.127781687287754D+03 -.104768179127142D+02 -.182102858305208D+02 0.161796595297897D+02
 0.848591793942690D+02 0.218180414804965D+02 0.151314785826071D+02 -.537362028409472D+01
 0.159647389663510D+02 -.113412235677823D+02 0.307880724791378D+01 -.108060392456949D+02
 0.000000000000000D+00 0.000000000000000D+00 -.000000000000000D+00 0.000000000000000D+00
 0.448445481180241D+03 0.000000000000000D+00 0.000000000000000D+00 0.448445481180241D+03
 0.115529701729047D+03 0.000000000000000D+00 0.000000000000000D+00 -.115529701729047D+03
 0.129277872951959D+03 -.245684664309403D+02 -.149123274412377D+02 0.161796595297897D+02
 0.833886613889176D+02 0.125949282297921D+02 0.172900226082494D+02 -.537362028409472D+01
 0.173928916122394D+02 -.131698426048490D+02 0.350677062539207D+01 -.108060392456949D+02
 0.333915756956172D+03 0.251433808059971D+02 -.588446579240378D+01 0.332915779451194D+03
0.917257291284D-03 0.000000000000D+00 0.000000000000D+00 0.179577468839D-03 0.188754867913D-05  6 -1 2 25 24 21 21 4 0.47923196D-02 0.25587675D+00 0.15741248D+05 0.15741248D+05 0.15741248D+05 0.12454415D+01  1  2  1  1  6  1       -1 0.527262133067D+00 0.100000000000D+01
  </mgrwgt>
  </event>
  <event>
  6     66 0.43135346E-03 0.64264799E+02 0.75467711E-02 0.12016047E+00
       -1 -1    0    0    0  501 0.00000000E+00 0.00000000E+00 0.57400258E+02 0.57401150E+02 0.32000000E+00 0.0000E+00 0.9000E+01
       21 -1    0    0  502  503 0.00000000E+00 0.00000000E+00 -.48270506E+03 0.48270564E+03 0.75000000E+00 0.0000E+00 0.9000E+01
       25  1    1    2    0    0 -.24168722E+02 0.13530425E+02 -.25227944E+03 0.28290831E+03 0.12500000E+03 0.0000E+00 0.9000E+01
       24  1    1    2    0    0 -.34291962E+02 -.22126366E+02 -.33657873E+02 0.96257899E+02 0.80419002E+02 0.0000E+00 0.9000E+01
       -2  1    1    2    0  503 -.10109795E+02 -.26737927E+01 -.25198891E+02 0.27284494E+02 0.32000000E+00 0.0000E+00 0.9000E+01
       21  1    1    2  502  501 0.68570479E+02 0.11269734E+02 -.11416860E+03 0.13365609E+03 0.75000000E+00 0.0000E+00 0.9000E+01
#aMCatNLO 2  0  0  2  2 0.10457396D+02 0.00000000D+00  -5  6  0 0.00000000D+00 0.00000000D+00 0.00000000D+00 0.00000000D+00 0.00000000D+00
  <mgrwgt>
 0.7460149165D-02    1    2    0
 0.160306435499052D+03 0.000000000000000D+00 0.000000000000000D+00 0.160306435499052D+03
 0.160306435499052D+03 0.000000000000000D+00 0.000000000000000D+00 -.160306435499052D+03
 0.138333241885447D+03 -.285198812118546D+02 0.123798251567512D+02 -.504424634141477D+02
 0.113228621943870D+03 -.378418892187165D+02 -.230650917523297D+02 0.662532854713809D+02
 0.000000000000000D+00 -.000000000000000D+00 -.000000000000000D+00 -.000000000000000D+00
 0.690510071687871D+02 0.663617704305710D+02 0.106852665955785D+02 -.158108220572332D+02
 0.163357347898391D+03 0.000000000000000D+00 0.000000000000000D+00 0.163357347898391D+03
 0.169610290959926D+03 0.000000000000000D+00 0.000000000000000D+00 -.169610290959926D+03
 0.137610739852799D+03 -.241704059447099D+02 0.135301546190378D+02 -.504424634141477D+02
 0.111903223811349D+03 -.342933233511419D+02 -.221265831701174D+02 0.662532854713809D+02
 0.121842693211678D+02 -.101097949919920D+02 -.267379265834992D+01 -.625294306153494D+01
 0.712694058730005D+02 0.685735242878438D+02 0.112702212094295D+02 -.158108220572332D+02
0.303870380703D-05 0.000000000000D+00 0.000000000000D+00 0.432354824748D-05 0.374634518718D-08  6 -1 21 25 24 -2 21 4 0.88308099D-02 0.74261484D-01 0.22225656D+05 0.22225656D+05 0.22225656D+05 0.12288128D+01  1  2  1  5  5  2        2 0.746014916479D-02 0.100000000000D+01
  </mgrwgt>
  </event>
  <event>
  5     66 0.43135346E-03 0.39404888E+02 0.75467711E-02 0.12147955E+00
       -1 -1    0    0    0  501 0.00000000E+00 0.00000000E+00 0.14895927E+04 0.14895928E+04 0.32000000E+00 0.0000E+00 0.9000E+01
        2 -1    0    0  502    0 0.00000000E+00 0.00000000E+00 -.33005731E+02 0.33007283E+02 0.32000000E+00 0.0000E+00 0.9000E+01
       25  1    1    2    0    0 -.75174960E+02 0.55501326E+01 0.10904097E+04 0.11001366E+04 0.12500000E+03 0.0000E+00 0.9000E+01
       24  1    1    2    0    0 0.36770718E+02 -.18480437E+02 0.37082347E+03 0.38166854E+03 0.80419002E+02 0.0000E+00 0.9000E+01
       21  1    1    2  502  501 0.38404241E+02 0.12930304E+02 -.46461930E+01 0.40794952E+02 0.75000000E+00 0.0000E+00 0.9000E+01
#aMCatNLO 1  0  0  5  1 0.13504574D+01 0.00000000D+00  -5  6  0 0.00000000D+00 0.00000000D+00 0.00000000D+00 0.00000000D+00 0.00000000D+00
  <mgrwgt>
 0.1396188259D+00   18    2    0
 0.221734762233016D+03 0.000000000000000D+00 0.000000000000000D+00 0.221734762233016D+03
 0.221734762233016D+03 -.000000000000000D+00 -.000000000000000D+00 -.221734762233016D+03
 0.195710421464662D+03 -.751751573627701D+02 0.555006611622306D+01 0.130366642786658D+03
 0.924345631922402D+02 0.367706249918143D+02 -.184804684466666D+02 0.195787114456708D+02
 0.155324539809128D+03 0.384045323709557D+02 0.129304023304436D+02 -.149945354232329D+03
 0.000000000000000D+00 0.000000000000000D+00 0.000000000000000D+00 0.000000000000000D+00
 0.221734762233016D+03 0.000000000000000D+00 0.000000000000000D+00 0.221734762233016D+03
 0.221734762233016D+03 -.000000000000000D+00 -.000000000000000D+00 -.221734762233016D+03
 0.195509361804922D+03 -.751075525901209D+02 0.557282793249432D+01 0.130102689004205D+03
 0.924187920472643D+02 0.368025685938222D+02 -.184697133716704D+02 0.194539919289151D+02
 0.179305510956078D+01 -.175473119277917D+00 0.136524873508712D+01 -.114906557761947D+01
 0.153748315504284D+03 0.384804571155766D+02 0.115316367040889D+02 -.148407615355500D+03
0.403132000271D-02 0.000000000000D+00 0.000000000000D+00 0.222785785846D-04 0.000000000000D+00  6 -1 2 25 24 21 21 2 0.22916824D+00 0.50779268D-02 0.19158669D+05 0.19158669D+05 0.19158669D+05 0.12358862D+01  1  2  2  3  6  5       21 0.117642894388D+00 0.100000000000D+01
0.301221064799D-03 0.212738601206D-03 -.154813302813D-04 0.222785785846D-04 0.000000000000D+00  6 -1 2 25 24 21 21 4 0.22916824D+00 0.50779268D-02 0.19158669D+05 0.19158669D+05 0.19158669D+05 0.12358862D+01  1  2  3  3  6  5       21 0.134264348799D-01 0.100000000000D+01
0.159995987384D-03 0.000000000000D+00 0.000000000000D+00 0.222785785846D-04 0.000000000000D+00  6 -1 2 25 24 21 21 4 0.22916824D+00 0.50779268D-02 0.19158669D+05 0.19158669D+05 0.19158669D+05 0.12358862D+01  1  2 15  3  6  5       21 0.713155870123D-02 0.100000000000D+01
0.513223457641D-10 0.000000000000D+00 0.000000000000D+00 0.222660696439D-04 0.000000000000D+00  6 -1 2 25 24 21 21 4 0.22916824D+00 0.50779268D-02 0.19297565D+05 0.19297565D+05 0.19297565D+05 0.12355392D+01  1  2 12  3  6  5       21 0.228492244468D-08 0.100000000000D+01
-.912759705193D-08 0.000000000000D+00 0.000000000000D+00 0.222785785846D-04 0.000000000000D+00  6 -1 2 25 24 21 21 4 0.22916824D+00 0.50779268D-02 0.19158669D+05 0.19158669D+05 0.19158669D+05 0.12358862D+01  1  2  5  3  6  5       21 -.406847666877D-06 0.100000000000D+01
0.347044367026D-06 0.000000000000D+00 0.000000000000D+00 0.222785785846D-04 0.527798033859D-04  6 -1 2 25 24 21 21 4 0.22916824D+00 0.50779268D-02 0.19297565D+05 0.19297565D+05 0.19297565D+05 0.12355392D+01  1  2 11  3  6  5       21 0.154507642180D-04 0.100000000000D+01
0.178316399997D-07 0.000000000000D+00 0.000000000000D+00 0.222660696439D-04 0.000000000000D+00  6 -1 2 25 24 1 -1 4 0.22916824D+00 0.50779268D-02 0.19297565D+05 0.19297565D+05 0.19297565D+05 0.12355392D+01  1  2 12  6  6  5       21 0.793882544810D-06 0.100000000000D+01
-.339094793623D-03 0.000000000000D+00 0.000000000000D+00 0.222785785846D-04 0.000000000000D+00  6 -1 2 25 24 1 -1 4 0.22916824D+00 0.50779268D-02 0.19158669D+05 0.19158669D+05 0.19158669D+05 0.12358862D+01  1  2  5  6  6  5       21 -.151145942192D-01 0.100000000000D+01
0.362184807481D-03 0.000000000000D+00 0.000000000000D+00 0.222785785846D-04 0.164550820211D-06  6 -1 2 25 24 1 -1 4 0.22916824D+00 0.50779268D-02 0.19297565D+05 0.19297565D+05 0.19297565D+05 0.12355392D+01  1  2 11  6  6  5       21 0.161248318528D-01 0.100000000000D+01
0.178316399997D-07 0.000000000000D+00 0.000000000000D+00 0.222660696439D-04 0.000000000000D+00  6 -1 2 25 24 2 -2 4 0.22916824D+00 0.50779268D-02 0.19297565D+05 0.19297565D+05 0.19297565D+05 0.12355392D+01  1  2 12  7  6  5       21 0.793882544810D-06 0.100000000000D+01
-.339094793623D-03 0.000000000000D+00 0.000000000000D+00 0.222785785846D-04 0.000000000000D+00  6 -1 2 25 24 2 -2 4 0.22916824D+00 0.50779268D-02 0.19158669D+05 0.19158669D+05 0.19158669D+05 0.12358862D+01  1  2  5  7  6  5       21 -.151145942192D-01 0.100000000000D+01
0.302831603484D-03 0.000000000000D+00 0.000000000000D+00 0.222785785846D-04 0.213602362779D-06  6 -1 2 25 24 2 -2 4 0.22916824D+00 0.50779268D-02 0.19297565D+05 0.19297565D+05 0.19297565D+05 0.12355392D+01  1  2 11  7  6  5       21 0.134823675235D-01 0.100000000000D+01
0.178316399997D-07 0.000000000000D+00 0.000000000000D+00 0.222660696439D-04 0.000000000000D+00  6 -1 2 25 24 3 -3 4 0.22916824D+00 0.50779268D-02 0.19297565D+05 0.19297565D+05 0.19297565D+05 0.12355392D+01  1  2 12  8  6  5       21 0.793882544810D-06 0.100000000000D+01
0.178316399997D-07 0.000000000000D+00 0.000000000000D+00 0.222660696439D-04 0.000000000000D+00  6 -1 2 25 24 4 -4 4 0.22916824D+00 0.50779268D-02 0.19297565D+05 0.19297565D+05 0.19297565D+05 0.12355392D+01  1  2 12  8  6  5       21 0.793882544810D-06 0.100000000000D+01
-.339094793623D-03 0.000000000000D+00 0.000000000000D+00 0.222785785846D-04 0.000000000000D+00  6 -1 2 25 24 3 -3 4 0.22916824D+00 0.50779268D-02 0.19158669D+05 0.19158669D+05 0.19158669D+05 0.12358862D+01  1  2  5  8  6  5       21 -.151145942192D-01 0.100000000000D+01
-.339094793623D-03 0.000000000000D+00 0.000000000000D+00 0.222785785846D-04 0.000000000000D+00  6 -1 2 25 24 4 -4 4 0.22916824D+00 0.50779268D-02 0.19158669D+05 0.19158669D+05 0.19158669D+05 0.12358862D+01  1  2  5  8  6  5       21 -.151145942192D-01 0.100000000000D+01
0.362198620791D-03 0.000000000000D+00 0.000000000000D+00 0.222785785846D-04 0.164548149085D-06  6 -1 2 25 24 3 -3 4 0.22916824D+00 0.50779268D-02 0.19297565D+05 0.19297565D+05 0.19297565D+05 0.12355392D+01  1  2 11  8  6  5       21 0.161254468352D-01 0.100000000000D+01
0.362198620791D-03 0.000000000000D+00 0.000000000000D+00 0.222785785846D-04 0.164548149085D-06  6 -1 2 25 24 4 -4 4 0.22916824D+00 0.50779268D-02 0.19297565D+05 0.19297565D+05 0.19297565D+05 0.12355392D+01  1  2 11  8  6  5       21 0.161254468352D-01 0.100000000000D+01
  </mgrwgt>
  </event>
  <event>
  5     66 0.43135346E-03 0.94866942E+02 0.75467711E-02 0.11756451E+00
       -1 -1    0    0    0  501 0.00000000E+00 0.00000000E+00 0.13741725E+02 0.13745450E+02 0.32000000E+00 0.0000E+00 0.9000E+01
        2 -1    0    0  502    0 -.00000000E+00 -.00000000E+00 -.22825300E+04 0.22825300E+04 0.32000000E+00 0.0000E+00 0.9000E+01
       25  1    1    2    0    0 -.26239054E+02 0.34416513E+02 -.63430174E+03 0.64794806E+03 0.12500000E+03 0.0000E+00 0.9000E+01
       24  1    1    2    0    0 -.27378130E+02 0.43843848E+02 -.44971233E+03 0.45976107E+03 0.80419002E+02 0.0000E+00 0.9000E+01
       21  1    1    2  502  501 0.53617184E+02 -.78260361E+02 -.11847742E+04 0.11885663E+04 0.75000000E+00 0.0000E+00 0.9000E+01
#aMCatNLO 1  0  0  5  2 0.50195223D+02 0.00000000D+00  -5  6  0 0.00000000D+00 0.00000000D+00 0.00000000D+00 0.00000000D+00 0.00000000D+00
  <mgrwgt>
 0.4556790895D-01    4    2    0
 0.177116352167876D+03 0.000000000000000D+00 0.000000000000000D+00 0.177116352167876D+03
 0.177116352167876D+03 -.000000000000000D+00 -.000000000000000D+00 -.177116352167876D+03
 0.137680718676897D+03 -.262394856541779D+02 0.344171432006055D+02 0.381828487923595D+02
 0.100036351929160D+03 -.273784434904106D+02 0.438443054348947D+02 0.294644440962041D+02
 0.116515633729694D+03 0.536179291445884D+02 -.782614486355002D+02 -.676472928885636D+02
 0.000000000000000D+00 0.000000000000000D+00 0.000000000000000D+00 0.000000000000000D+00
 0.177116352167876D+03 0.000000000000000D+00 0.000000000000000D+00 0.177116352167876D+03
 0.177116352167876D+03 -.000000000000000D+00 -.000000000000000D+00 -.177116352167876D+03
 0.125162901785121D+03 0.207334405728819D+00 -.418499012888736D+01 0.481610354303807D+01
 0.829143232647949D+02 -.897029807608377D+01 0.169755294526436D+02 0.623972758355758D+01
 0.662114769552809D+02 -.628985755826776D+02 0.358588108157754D+01 0.203683658435988D+02
 0.799440023305546D+02 0.716615392530325D+02 -.163764204053338D+02 -.314241969701945D+02
0.941842612618D-04 0.000000000000D+00 0.000000000000D+00 0.402822321627D-05 0.000000000000D+00  6 -1 2 25 24 21 21 2 0.21143998D-02 0.35115874D+00 0.26041225D+05 0.26041225D+05 0.26041225D+05 0.12214022D+01  1  2  2  3  6  5       21 0.532671777362D-01 0.100000000000D+01
-.683021628532D-05 0.497024001642D-05 -.361692362531D-06 0.402822321627D-05 0.000000000000D+00  6 -1 2 25 24 21 21 4 0.21143998D-02 0.35115874D+00 0.26041225D+05 0.26041225D+05 0.26041225D+05 0.12214022D+01  1  2  3  3  6  5       21 -.576279579656D-02 0.100000000000D+01
0.340950475824D-05 0.000000000000D+00 0.000000000000D+00 0.402822321627D-05 0.000000000000D+00  6 -1 2 25 24 21 21 4 0.21143998D-02 0.35115874D+00 0.26041225D+05 0.26041225D+05 0.26041225D+05 0.12214022D+01  1  2 15  3  6  5       21 0.287667020609D-02 0.100000000000D+01
-.570466318719D-05 0.000000000000D+00 0.000000000000D+00 0.402822321627D-05 0.000000000000D+00  6 -1 2 25 24 21 21 4 0.21143998D-02 0.35115874D+00 0.26041225D+05 0.26041225D+05 0.26041225D+05 0.12214022D+01  1  2  4  3  6  5       21 -.481314319528D-02 0.100000000000D+01
  </mgrwgt>
  </event>
  <event>
  5     66 0.43135346E-03 0.59912051E+02 0.75467711E-02 0.11780846E+00
       -1 -1    0    0    0  501 0.00000000E+00 0.00000000E+00 0.25179117E+03 0.25179137E+03 0.32000000E+00 0.0000E+00 0.9000E+01
        2 -1    0    0  502    0 0.00000000E+00 0.00000000E+00 -.11862784E+03 0.11862827E+03 0.32000000E+00 0.0000E+00 0.9000E+01
       25  1    1    2    0    0 -.13008791E+02 0.11933712E+03 0.85423393E+02 0.19321680E+03 0.12500000E+03 0.0000E+00 0.9000E+01
       24  1    1    2    0    0 -.16951933E+02 -.67458227E+02 0.49455381E+02 0.11726479E+03 0.80419002E+02 0.0000E+00 0.9000E+01
       21  1    1    2  502  501 0.29960724E+02 -.51878891E+02 -.17154429E+01 0.59938048E+02 0.75000000E+00 0.0000E+00 0.9000E+01
#aMCatNLO 1  0  0  2  2 0.54626386D+01 0.00000000D+00  -5  6  0 0.00000000D+00 0.00000000D+00 0.00000000D+00 0.00000000D+00 0.00000000D+00
  <mgrwgt>
 0.8397197341D-02    1    2    0
 0.172828120874170D+03 0.000000000000000D+00 0.000000000000000D+00 0.172828120874170D+03
 0.172828120874170D+03 0.000000000000000D+00 0.000000000000000D+00 -.172828120874170D+03
 0.174151354996730D+03 -.130097995142134D+02 0.119338864367141D+03 0.171077472321248D+02
 0.106612718267657D+03 -.169525503956749D+02 -.674571583910988D+02 0.782295078142106D+01
 0.648921684839523D+02 0.299623499098883D+02 -.518817059760417D+02 -.249306980135459D+02
 0.000000000000000D+00 -.000000000000000D+00 0.000000000000000D+00 -.000000000000000D+00
 0.256362062464661D+03 0.000000000000000D+00 0.000000000000000D+00 0.256362062464661D+03
 0.292053638240195D+03 0.000000000000000D+00 0.000000000000000D+00 -.292053638240195D+03
 0.143507885677036D+03 0.288309068385863D+02 0.620130393304488D+02 0.171077472321248D+02
 0.138741045220666D+03 0.153643900745445D+02 -.111734500639959D+03 0.782295078142106D+01
 0.997278516044823D+02 0.516453895900906D+02 -.815895729630373D+02 -.249306980135459D+02
 0.166438918202672D+03 -.958406865032215D+02 0.131311034272548D+03 -.356915757755343D+02
0.169663034454D-04 0.000000000000D+00 0.000000000000D+00 0.586877309729D-05 0.000000000000D+00  6 -1 2 25 24 21 21 4 0.38737152D-01 0.18250485D-01 0.28822939D+05 0.28822939D+05 0.28822939D+05 0.12167270D+01  1  2 14  2  6  2        2 0.839719734105D-02 0.100000000000D+01
  </mgrwgt>
  </event>
  <event>
  5     66 0.43135346E-03 0.27606391E+02 0.75467711E-02 0.11188998E+00
       -1 -1    0    0    0  501 0.00000000E+00 0.00000000E+00 0.18206862E+02 0.18209674E+02 0.32000000E+00 0.0000E+00 0.9000E+01
        2 -1    0    0  502    0 0.00000000E+00 0.00000000E+00 -.13183437E+04 0.13183437E+04 0.32000000E+00 0.0000E+00 0.9000E+01
       25  1    1    2    0    0 0.73875111E+01 0.60919487E+02 -.75315325E+03 0.76591813E+03 0.12500000E+03 0.0000E+00 0.9000E+01
       24  1    1    2    0    0 0.59338591E+01 -.36742907E+02 -.16191394E+03 0.18457680E+03 0.80419002E+02 0.0000E+00 0.9000E+01
       21  1    1    2  502  501 -.13321370E+02 -.24176581E+02 -.38506965E+03 0.38605849E+03 0.75000000E+00 0.0000E+00 0.9000E+01
#aMCatNLO 1  0  0  1  5 0.55918465D+01 0.00000000D+00  -5  6  0 0.00000000D+00 0.00000000D+00 0.00000000D+00 0.00000000D+00 0.00000000D+00
  <mgrwgt>
 0.6337218728D+00    3    2    0
 0.154934848958531D+03 0.000000000000000D+00 0.000000000000000D+00 0.154934848958531D+03
 0.154934848958531D+03 0.000000000000000D+00 0.000000000000000D+00 -.154934848958531D+03
 0.143570726212395D+03 0.738821910625842D+01 0.609207724831137D+02 -.349517828394088D+02
 0.116780465409761D+03 0.593443498523305D+01 -.367418617406893D+02 0.760610230287755D+02
 0.495185062949066D+02 -.133226540914915D+02 -.241789107424244D+02 -.411092401893667D+02
 0.000000000000000D+00 -.000000000000000D+00 0.000000000000000D+00 -.000000000000000D+00
 0.198307103347974D+03 0.000000000000000D+00 0.000000000000000D+00 0.198307103347974D+03
 0.511190390834629D+03 0.000000000000000D+00 0.000000000000000D+00 -.511190390834629D+03
 0.141163602941033D+03 0.551984310855712D+02 0.580248889115621D+01 -.349517828394088D+02
 0.150553141013881D+03 0.508228628411566D+02 -.884917493511120D+02 0.760610230287755D+02
 0.617094319387204D+02 0.535381291823854D+01 -.457101853911033D+02 -.411092401893667D+02
 0.356071318288968D+03 -.111375106844966D+03 0.128399445851059D+03 -.312883287486656D+03
0.432529016070D-03 0.000000000000D+00 0.000000000000D+00 0.252152175837D-04 0.000000000000D+00  6 -1 2 25 24 21 21 2 0.28012750D-02 0.20282233D+00 0.16316416D+05 0.16316416D+05 0.16316416D+05 0.12436791D+01  1  2  2  1  6  1       -1 0.530175846926D+00 0.100000000000D+01
0.332663834045D-04 0.228251832645D-04 -.166102530922D-05 0.252152175837D-04 0.000000000000D+00  6 -1 2 25 24 21 21 4 0.28012750D-02 0.20282233D+00 0.16316416D+05 0.16316416D+05 0.16316416D+05 0.12436791D+01  1  2  3  1  6  1       -1 0.630705948040D-01 0.100000000000D+01
0.213486365883D-04 0.000000000000D+00 0.000000000000D+00 0.252152175837D-04 0.000000000000D+00  6 -1 2 25 24 21 21 4 0.28012750D-02 0.20282233D+00 0.16316416D+05 0.16316416D+05 0.16316416D+05 0.12436791D+01  1  2 15  1  6  1       -1 0.404754310532D-01 0.100000000000D+01
  </mgrwgt>
  </event>
  <event>
  6     66 -.43135346E-03 0.11969266E+03 0.75467711E-02 0.11171860E+00
       -1 -1    0    0    0  501 0.00000000E+00 0.00000000E+00 0.51540635E+02 0.51541628E+02 0.32000000E+00 0.0000E+00 0.9000E+01
        2 -1    0    0  503    0 0.00000000E+00 0.00000000E+00 -.20985068E+04 0.20985068E+04 0.32000000E+00 0.0000E+00 0.9000E+01
       25  1    1    2    0    0 -.16140310E+02 -.54449685E+01 -.98313750E+03 0.99119852E+03 0.12500000E+03 0.0000E+00 0.9000E+01
       24  1    1    2    0    0 0.14319254E+03 -.23715358E+02 -.69786997E+03 0.71732575E+03 0.80419002E+02 0.0000E+00 0.9000E+01
       21  1    1    2  502  501 -.14385419E+03 -.18730061E+02 -.11399850E+03 0.18450221E+03 0.75000000E+00 0.0000E+00 0.9000E+01
       21  1    1    2  503  502 0.16801957E+02 0.47890388E+02 -.25196015E+03 0.25702194E+03 0.75000000E+00 0.0000E+00 0.9000E+01
#aMCatNLO 2  0  0  2  5 0.50752291D+02 0.00000000D+00  -5  6  0 0.00000000D+00 0.00000000D+00 0.00000000D+00 0.00000000D+00 0.00000000D+00
  <mgrwgt>
 -.4340513234D-01    2    2    0
 0.299552583832222D+03 0.000000000000000D+00 0.000000000000000D+00 0.299552583832222D+03
 0.299552583832222D+03 0.000000000000000D+00 0.000000000000000D+00 -.299552583832222D+03
 0.185435767414086D+03 -.109457149239482D+02 0.936050092821051D+01 -.136213054380363D+03
 0.177775480160393D+03 0.148131106060790D+03 -.963962721205751D+01 -.556880453626025D+02
 0.235893920089964D+03 -.137185391136842D+03 0.279126283846996D+00 0.191901099742966D+03
 0.000000000000000D+00 0.000000000000000D+00 0.000000000000000D+00 -.000000000000000D+00
 0.316147418715232D+03 0.000000000000000D+00 0.000000000000000D+00 0.316147418715232D+03
 0.342111963204158D+03 0.000000000000000D+00 0.000000000000000D+00 -.342111963204158D+03
 0.185658683880898D+03 -.161401007219494D+02 -.544498534845799D+01 -.136213054380363D+03
 0.175028439998923D+03 0.143192741539414D+03 -.237153795711825D+02 -.556880453626025D+02
 0.240563902674901D+03 -.143854598232986D+03 -.187300228202153D+02 0.191901099742966D+03
 0.570083553646670D+02 0.168019574155221D+02 0.478903877398559D+02 -.259645444889257D+02
-.681002908702D-03 0.000000000000D+00 0.000000000000D+00 0.216485665926D-05 0.000000000000D+00  6 -1 2 25 24 21 21 4 0.75131284D-02 0.33300847D+00 0.59513913D+05 0.59513913D+05 0.59513913D+05 0.11848617D+01  1  2 13  2  6  2        2 -.885472545809D-01 0.100000000000D+01
0.347910240770D-03 0.000000000000D+00 0.000000000000D+00 0.220317734283D-05 0.258853426574D-08  6 -1 2 25 24 21 21 4 0.79293462D-02 0.32284481D+00 0.59513913D+05 0.59513913D+05 0.59513913D+05 0.11848617D+01  1  2  1  2  6  2        2 0.451421222442D-01 0.100000000000D+01
  </mgrwgt>
  </event>
  <event>
  6     66 -.43135346E-03 0.25795631E+02 0.75467711E-02 0.11672493E+00
       -1 -1    0    0    0  501 0.00000000E+00 0.00000000E+00 0.14185502E+03 0.14185538E+03 0.32000000E+00 0.0000E+00 0.9000E+01
        2 -1    0    0  502    0 -.00000000E+00 -.00000000E+00 -.81855602E+03 0.81855608E+03 0.32000000E+00 0.0000E+00 0.9000E+01
       25  1    1    2    0    0 0.94948155E+01 -.10507211E+03 -.65555010E+03 0.67564875E+03 0.12500000E+03 0.0000E+00 0.9000E+01
       24  1    1    2    0    0 0.31962815E+02 0.99356304E+02 -.10361025E+03 0.16761741E+03 0.80419002E+02 0.0000E+00 0.9000E+01
       21  1    1    2  503  501 -.79009174E+01 0.26025860E+02 0.15819620E+01 0.27254999E+02 0.75000000E+00 0.0000E+00 0.9000E+01
       21  1    1    2  502  503 -.33556713E+02 -.20310056E+02 0.80877393E+02 0.89890303E+02 0.75000000E+00 0.0000E+00 0.9000E+01
#aMCatNLO 2  0  0  5  2 0.24944702D+02 0.00000000D+00  -5  6  0 0.00000000D+00 0.00000000D+00 0.00000000D+00 0.00000000D+00 0.00000000D+00
  <mgrwgt>
 -.3503423901D-01    2    2    0
 0.340758690954567D+03 0.000000000000000D+00 0.000000000000000D+00 0.340758690954567D+03
 0.340758690954567D+03 -.000000000000000D+00 -.000000000000000D+00 -.340758690954567D+03
 0.305269282970047D+03 0.103371477094084D+02 -.105188241126919D+03 -.257668221616298D+03
 0.133081910976664D+03 0.323328267085490D+02 0.993052897459992D+02 0.183473927392506D+02
 0.243166187962423D+03 -.426699744179573D+02 0.588295138091979D+01 0.239320828877048D+03
 0.000000000000000D+00 0.000000000000000D+00 0.000000000000000D+00 0.000000000000000D+00
 0.340758690954567D+03 0.000000000000000D+00 0.000000000000000D+00 0.340758690954567D+03
 0.340758690954567D+03 -.000000000000000D+00 -.000000000000000D+00 -.340758690954567D+03
 0.301307742762109D+03 0.951229764072616D+01 -.105074518235898D+03 -.253041928659037D+03
 0.133327077629876D+03 0.319705520703291D+02 0.993552369070243D+02 0.203792633434066D+02
 0.391409610796223D+02 -.773430312359510D+01 0.255326531849616D+02 0.286405134514962D+02
 0.207741600437528D+03 -.337485465874601D+02 -.198133718560880D+02 0.204022151864134D+03
-.306764980123D-03 0.000000000000D+00 0.000000000000D+00 0.117730096975D-04 0.000000000000D+00  6 -1 2 25 24 21 21 4 0.21823882D-01 0.12593173D+00 0.32606717D+05 0.32606717D+05 0.32606717D+05 0.12111188D+01  1  2 13  3  6  5       21 -.456522483138D-01 0.100000000000D+01
0.713488060758D-04 0.000000000000D+00 0.000000000000D+00 0.118873912336D-04 0.644200478164D-07  6 -1 2 25 24 21 21 4 0.21823882D-01 0.12593173D+00 0.32606717D+05 0.32606717D+05 0.32606717D+05 0.12111188D+01  1  2  1  3  6  5       21 0.106180093000D-01 0.100000000000D+01
  </mgrwgt>
  </event>
  <event>
  6     66 -.43135346E-03 0.49583736E+01 0.75467711E-02 0.11382244E+00
       -3 -1    0    0    0  501 0.00000000E+00 0.00000000E+00 0.15651932E+03 0.15652012E+03 0.50000000E+00 0.0000E+00 0.9000E+01
        4 -1    0    0  502    0 -.00000000E+00 -.00000000E+00 -.30039694E+03 0.30040094E+03 0.15500000E+01 0.0000E+00 0.9000E+01
       25  1    1    2    0    0 -.21042139E+02 -.16837462E+03 -.53490072E+02 0.21743728E+03 0.12500000E+03 0.0000E+00 0.9000E+01
       24  1    1    2    0    0 0.10623728E+02 0.17929040E+03 -.71135291E+02 0.20924951E+03 0.80419002E+02 0.0000E+00 0.9000E+01
       21  1    1    2  502  503 0.27958916E+01 -.92907601E+01 -.20126673E+02 0.22355775E+02 0.75000000E+00 0.0000E+00 0.9000E+01
       21  1    1    2  503  501 0.76225196E+01 -.16250143E+01 0.87441708E+00 0.78784885E+01 0.75000000E+00 0.0000E+00 0.9000E+01
#aMCatNLO 2  0  0  5  1 0.82045803D+01 0.00000000D+00  -5  6  0 0.00000000D+00 0.00000000D+00 0.00000000D+00 0.00000000D+00 0.00000000D+00
  <mgrwgt>
 -.8703924544D-01    3    2    0
 0.216838695855856D+03 0.000000000000000D+00 0.000000000000000D+00 0.216838695855856D+03
 0.216838695855856D+03 -.000000000000000D+00 -.000000000000000D+00 -.216838695855856D+03
 0.210033567125204D+03 -.230631377361210D+02 -.166257142807549D+03 0.177694530746560D+02
 0.198540323064695D+03 0.872730344933082D+01 0.181277353617172D+03 -.366048744311936D+01
 0.251035015218134D+02 0.143358342867902D+02 -.150202108096224D+02 -.141089656315366D+02
 0.000000000000000D+00 0.000000000000000D+00 0.000000000000000D+00 0.000000000000000D+00
 0.216838695855856D+03 0.000000000000000D+00 0.000000000000000D+00 0.216838695855856D+03
 0.216838695855856D+03 -.000000000000000D+00 -.000000000000000D+00 -.216838695855856D+03
 0.211379162944564D+03 -.209908824405827D+02 -.168428325228305D+03 0.157299918085990D+02
 0.196822962895330D+03 0.106714631875914D+02 0.179240381890792D+03 -.557388030052783D+01
 0.164072736315104D+02 0.216262462161751D+01 -.888926759592080D+01 -.136199340810939D+02
 0.906799224030861D+01 0.815679463137373D+01 -.192278906656653D+01 0.346382257302276D+01
-.311022153132D-03 0.000000000000D+00 0.000000000000D+00 0.382078432240D-04 0.000000000000D+00  6 -3 4 25 24 21 21 4 0.24080264D-01 0.46215282D-01 0.45170277D+05 0.45170277D+05 0.45170277D+05 0.11966758D+01  1  2 13  3  6  5       21 -.979650580311D-02 0.100000000000D+01
-.286414021960D-03 0.000000000000D+00 0.000000000000D+00 0.382078432240D-04 0.000000000000D+00  6 -3 4 25 24 21 21 4 0.24080264D-01 0.46215282D-01 0.45170277D+05 0.45170277D+05 0.45170277D+05 0.11966758D+01  1  2 13  3  6  5       21 -.902140442401D-02 0.100000000000D+01
-.216896285056D-02 0.000000000000D+00 0.000000000000D+00 0.381625386128D-04 0.000000000000D+00  6 -3 4 25 24 21 21 4 0.24080264D-01 0.46215282D-01 0.45913908D+05 0.45913908D+05 0.45913908D+05 0.11959661D+01  1  2  8  3  6  5       21 -.682213352133D-01 0.100000000000D+01
  </mgrwgt>
  </event>
  <event>
  5     66 0.43135346E-03 0.52837648E+02 0.75467711E-02 0.10719242E+00
       -1 -1    0    0    0  501 0.00000000E+00 0.00000000E+00 0.13620161E+03 0.13620199E+03 0.32000000E+00 0.0000E+00 0.9000E+01
        2 -1    0    0  502    0 0.00000000E+00 0.00000000E+00 -.14349905E+03 0.14349941E+03 0.32000000E+00 0.0000E+00 0.9000E+01
       25  1    1    2    0    0 0.11170976E+02 0.46633801E+02 0.17704675E+02 0.13504798E+03 0.12500000E+03 0.0000E+00 0.9000E+01
       24  1    1    2    0    0 0.29832292E+02 -.13315656E+02 -.29367188E+02 0.91634710E+02 0.80419002E+02 0.0000E+00 0.9000E+01
       21  1    1    2  502  501 -.41003268E+02 -.33318145E+02 0.43650737E+01 0.53018706E+02 0.75000000E+00 0.0000E+00 0.9000E+01
#aMCatNLO 1  0  0  1  5 0.27132857D+03 0.00000000D+00  -5  6  0 0.00000000D+00 0.00000000D+00 0.00000000D+00 0.00000000D+00 0.00000000D+00
  <mgrwgt>
 0.1288854090D+00    5    4    0
 0.139803093332471D+03 0.000000000000000D+00 0.000000000000000D+00 0.139803093332471D+03
 0.139803093332471D+03 0.000000000000000D+00 0.000000000000000D+00 -.139803093332471D+03
 0.135556716432950D+03 0.111729555436986D+02 0.466354095144051D+02 0.212350421220569D+02
 0.908997922591528D+02 0.298336196581867D+02 -.133145776683736D+02 -.269858006735044D+02
 0.531496779728385D+02 -.410065752018853D+02 -.333208318460315D+02 0.575075855144743D+01
 0.000000000000000D+00 -.000000000000000D+00 -.000000000000000D+00 0.000000000000000D+00
 0.434636461243993D+03 0.000000000000000D+00 0.000000000000000D+00 0.434636461243993D+03
 0.271547968780913D+03 0.000000000000000D+00 0.000000000000000D+00 -.271547968780913D+03
 0.235306122706216D+03 0.565712877237749D+02 0.189980877391335D+03 0.212350421220569D+02
 0.123086592761183D+03 0.560282769921923D+02 0.693951878914008D+02 -.269858006735044D+02
 0.312209527620347D+02 -.306785360561056D+02 -.709995004479694D+00 0.575075855144743D+01
 0.316570761795472D+03 -.819210286598616D+02 -.258666070278256D+03 0.163088492463080D+03
 0.139803093332471D+03 0.000000000000000D+00 0.000000000000000D+00 0.139803093332471D+03
 0.139803093332471D+03 0.000000000000000D+00 0.000000000000000D+00 -.139803093332471D+03
 0.135556716432950D+03 0.111729555436986D+02 0.466354095144051D+02 0.212350421220569D+02
 0.908997922591528D+02 0.298336196581867D+02 -.133145776683736D+02 -.269858006735044D+02
 0.000000000000000D+00 -.000000000000000D+00 -.000000000000000D+00 0.000000000000000D+00
 0.531496779728385D+02 -.410065752018853D+02 -.333208318460315D+02 0.575075855144743D+01
 0.434636461243993D+03 0.000000000000000D+00 0.000000000000000D+00 0.434636461243993D+03
 0.271547968780913D+03 0.000000000000000D+00 0.000000000000000D+00 -.271547968780913D+03
 0.235306122706216D+03 0.565712877237749D+02 0.189980877391335D+03 0.212350421220569D+02
 0.123086592761183D+03 0.560282769921923D+02 0.693951878914008D+02 -.269858006735044D+02
 0.316570761795472D+03 -.819210286598616D+02 -.258666070278256D+03 0.163088492463080D+03
 0.312209527620347D+02 -.306785360561056D+02 -.709995004479694D+00 0.575075855144743D+01
0.139183304006D-03 0.000000000000D+00 0.000000000000D+00 0.894679495876D-05 0.000000000000D+00  6 -1 2 25 24 21 21 2 0.20954151D-01 0.22076834D-01 0.18703641D+05 0.18703641D+05 0.18703641D+05 0.12370430D+01  1  2  2  1  6  1       -1 0.107483747082D+00 0.100000000000D+01
-.892522167489D-06 0.734490474224D-05 -.534500535187D-06 0.894679495876D-05 0.000000000000D+00  6 -1 2 25 24 21 21 4 0.20954151D-01 0.22076834D-01 0.18703641D+05 0.18703641D+05 0.18703641D+05 0.12370430D+01  1  2  3  1  6  1       -1 -.105473727111D-02 0.100000000000D+01
0.589522696035D-05 0.000000000000D+00 0.000000000000D+00 0.894679495876D-05 0.000000000000D+00  6 -1 2 25 24 21 21 4 0.20954151D-01 0.22076834D-01 0.18703641D+05 0.18703641D+05 0.18703641D+05 0.12370430D+01  1  2 15  1  6  1       -1 0.696667917419D-02 0.100000000000D+01
0.126505744658D-03 0.000000000000D+00 -.104829766240D-03 0.894679495876D-05 0.000000000000D+00  6 -1 2 25 24 21 21 4 0.11489013D+00 0.22076834D-01 0.18703641D+05 0.18703641D+05 0.18703641D+05 0.12370430D+01  1  2  5  1  6  1       -1 0.625220623238D-02 0.100000000000D+01
0.214973515173D-04 0.000000000000D+00 -.218294173443D-04 0.894679495876D-05 0.000000000000D+00  6 21 2 25 24 1 21 4 0.11489013D+00 0.22076834D-01 0.18703641D+05 0.18703641D+05 0.18703641D+05 0.12370430D+01  3  4  5  4  5  1       -1 0.923751376277D-02 0.100000000000D+01
  </mgrwgt>
  </event>
  <event>
  5     66 -.43135346E-03 0.25709901E+02 0.75467711E-02 0.11998739E+00
       -1 -1    0    0    0  501 0.00000000E+00 0.00000000E+00 0.90664410E+02 0.90664975E+02 0.32000000E+00 0.0000E+00 0.9000E+01
        2 -1    0    0  502    0 0.00000000E+00 0.00000000E+00 -.25435286E+03 0.25435306E+03 0.32000000E+00 0.0000E+00 0.9000E+01
       25  1    1    2    0    0 0.83148226E+02 0.50176710E+02 -.10888154E+03 0.19212371E+03 0.12500000E+03 0.0000E+00 0.9000E+01
       24  1    1    2    0    0 -.58730174E+02 -.42152348E+02 -.20566608E+02 0.11007386E+03 0.80419002E+02 0.0000E+00 0.9000E+01
       21  1    1    2  502  501 -.24418051E+02 -.80243619E+01 -.34240298E+02 0.42820464E+02 0.75000000E+00 0.0000E+00 0.9000E+01
#aMCatNLO 1  0  0  1  1 0.85716859D+01 0.00000000D+00  -5  6  0 0.00000000D+00 0.00000000D+00 0.00000000D+00 0.00000000D+00 0.00000000D+00
  <mgrwgt>
 -.2736704952D+00    9    4    0
 0.151858105655276D+03 0.000000000000000D+00 0.000000000000000D+00 0.151858105655276D+03
 0.151858105655276D+03 0.000000000000000D+00 0.000000000000000D+00 -.151858105655276D+03
 0.159570498082173D+03 0.831521863186855D+02 0.501780114445242D+02 -.201401324744528D+02
 0.113956973048322D+03 -.587273458327853D+02 -.421514184529151D+02 0.359629326641914D+02
 0.301887401800573D+02 -.244248404859002D+02 -.802659299160909D+01 -.158228001897386D+02
 0.000000000000000D+00 0.000000000000000D+00 -.000000000000000D+00 0.000000000000000D+00
 0.160599936954462D+03 0.000000000000000D+00 0.000000000000000D+00 0.160599936954462D+03
 0.154034420873761D+03 0.000000000000000D+00 0.000000000000000D+00 -.154034420873761D+03
 0.157948541898385D+03 0.789684476809786D+02 0.517793513149208D+02 -.201401324744528D+02
 0.115125031396017D+03 -.617458080744695D+02 -.409960919964936D+02 0.359629326641914D+02
 0.307635719193967D+02 -.252279688375217D+02 -.771919294541441D+01 -.158228001897386D+02
 0.107972126144242D+02 0.800532923101265D+01 -.306406637301275D+01 0.656551608070141D+01
 0.151858105655276D+03 0.000000000000000D+00 0.000000000000000D+00 0.151858105655276D+03
 0.151858105655276D+03 0.000000000000000D+00 0.000000000000000D+00 -.151858105655276D+03
 0.159570498082173D+03 0.831521863186855D+02 0.501780114445242D+02 -.201401324744528D+02
 0.113956973048322D+03 -.587273458327853D+02 -.421514184529151D+02 0.359629326641914D+02
 0.000000000000000D+00 0.000000000000000D+00 -.000000000000000D+00 0.000000000000000D+00
 0.301887401800573D+02 -.244248404859002D+02 -.802659299160909D+01 -.158228001897386D+02
 0.160599936954462D+03 0.000000000000000D+00 0.000000000000000D+00 0.160599936954462D+03
 0.154034420873761D+03 0.000000000000000D+00 0.000000000000000D+00 -.154034420873761D+03
 0.157948541898385D+03 0.789684476809786D+02 0.517793513149208D+02 -.201401324744528D+02
 0.115125031396017D+03 -.617458080744695D+02 -.409960919964936D+02 0.359629326641914D+02
 0.107972126144242D+02 0.800532923101265D+01 -.306406637301275D+01 0.656551608070141D+01
 0.307635719193967D+02 -.252279688375217D+02 -.771919294541441D+01 -.158228001897386D+02
0.101104696364D-03 0.000000000000D+00 0.000000000000D+00 0.302803527345D-04 0.000000000000D+00  6 -1 2 25 24 21 21 2 0.13948430D-01 0.39131268D-01 0.21336128D+05 0.21336128D+05 0.21336128D+05 0.12307460D+01  1  2  2  1  6  1       -1 0.793117785181D-01 0.100000000000D+01
0.172971197039D-04 0.533544141009D-05 -.388268655515D-06 0.302803527345D-04 0.000000000000D+00  6 -1 2 25 24 21 21 4 0.13948430D-01 0.39131268D-01 0.21336128D+05 0.21336128D+05 0.21336128D+05 0.12307460D+01  1  2  3  1  6  1       -1 0.205530847694D-01 0.100000000000D+01
0.405036449385D-05 0.000000000000D+00 0.000000000000D+00 0.302803527345D-04 0.000000000000D+00  6 -1 2 25 24 21 21 4 0.13948430D-01 0.39131268D-01 0.21336128D+05 0.21336128D+05 0.21336128D+05 0.12307460D+01  1  2 15  1  6  1       -1 0.481279462789D-02 0.100000000000D+01
-.246444390014D-03 0.000000000000D+00 0.000000000000D+00 0.302803527345D-04 0.000000000000D+00  6 -1 2 25 24 21 21 4 0.13948430D-01 0.39131268D-01 0.21336128D+05 0.21336128D+05 0.21336128D+05 0.12307460D+01  1  2  4  1  6  1       -1 -.292834444439D+00 0.100000000000D+01
-.233331004532D-02 0.000000000000D+00 -.331704097283D-03 0.302803527345D-04 0.000000000000D+00  6 -1 2 25 24 21 21 4 0.14948444D-01 0.39131268D-01 0.21336128D+05 0.21336128D+05 0.21336128D+05 0.12307460D+01  1  2  5  1  6  1       -1 -.248769794838D+01 0.100000000000D+01
0.235143198079D-02 0.000000000000D+00 0.330910552563D-03 0.302803527345D-04 0.000000000000D+00  6 -1 2 25 24 21 21 4 0.13948430D-01 0.39131268D-01 0.21336128D+05 0.21336128D+05 0.21336128D+05 0.12307460D+01  1  2  6  1  6  1       -1 0.279405945371D+01 0.100000000000D+01
0.281365213067D-06 0.000000000000D+00 0.000000000000D+00 0.302803527345D-04 0.114718731277D-05  6 -1 2 25 24 21 21 4 0.14751382D-01 0.39692068D-01 0.22646822D+05 0.22646822D+05 0.22646822D+05 0.12279275D+01  1  2 11  1  6  1       -1 0.299395592397D-03 0.100000000000D+01
-.268381312368D-04 0.000000000000D+00 -.389294116265D-05 0.302803527345D-04 0.000000000000D+00  6 21 2 25 24 1 21 4 0.14948444D-01 0.39131268D-01 0.21336128D+05 0.21336128D+05 0.21336128D+05 0.12307460D+01  3  4  5  4  5  1       -1 -.392236958959D+00 0.100000000000D+01
0.426535487692D-08 0.000000000000D+00 0.000000000000D+00 0.302803527345D-04 0.329846317430D-07  6 21 2 25 24 1 21 4 0.14751382D-01 0.39692068D-01 0.22646822D+05 0.22646822D+05 0.22646822D+05 0.12279275D+01  3  4 11  4  5  1       -1 0.623493803676D-04 0.100000000000D+01
  </mgrwgt>
  </event>
  <event>
  5     66 0.43135346E-03 0.48922197E+02 0.75467711E-02 0.12202353E+00
       -1 -1    0    0    0  501 0.00000000E+00 0.00000000E+00 0.65677011E+02 0.65677791E+02 0.32000000E+00 0.0000E+00 0.9000E+01
        2 -1    0    0  502    0 -.00000000E+00 -.00000000E+00 -.34301405E+03 0.34301420E+03 0.32000000E+00 0.0000E+00 0.9000E+01
       25  1    1    2    0    0 0.10124437E+02 0.27741896E+02 -.55721513E+02 0.14000716E+03 0.12500000E+03 0.0000E+00 0.9000E+01
       24  1    1    2    0    0 0.36420987E+02 -.42795912E+02 -.11356629E+03 0.15007497E+03 0.80419002E+02 0.0000E+00 0.9000E+01
       21  1    1    2  502  501 -.46545424E+02 0.15054016E+02 -.10804923E+03 0.11860986E+03 0.75000000E+00 0.0000E+00 0.9000E+01
#aMCatNLO 1  0  0  5  2 0.10386910D+02 0.00000000D+00  -5  6  0 0.00000000D+00 0.00000000D+00 0.00000000D+00 0.00000000D+00 0.00000000D+00
  <mgrwgt>
 0.8412265622D-01   20    2    0
 0.150094394958113D+03 0.000000000000000D+00 0.000000000000000D+00 0.150094394958113D+03
 0.150094394958113D+03 -.000000000000000D+00 -.000000000000000D+00 -.150094394958113D+03
 0.139133498771204D+03 0.101260334160704D+02 0.277413795088385D+02 0.534884080013599D+02
 0.993988760323201D+02 0.364221274145542D+02 -.427962806605613D+02 -.159633204045539D+02
 0.616564151127018D+02 -.465481608306246D+02 0.150549011517228D+02 -.375250875968060D+02
 0.000000000000000D+00 -.000000000000000D+00 0.000000000000000D+00 0.000000000000000D+00
 0.150094394958113D+03 0.000000000000000D+00 0.000000000000000D+00 0.150094394958113D+03
 0.150094394958113D+03 -.000000000000000D+00 -.000000000000000D+00 -.150094394958113D+03
 0.138357687923772D+03 0.756481039096050D+01 0.285697464901002D+02 0.514236622271515D+02
 0.987381916242209D+02 0.345933370091584D+02 -.422048016785960D+02 -.174376110947573D+02
 0.512818184285032D+02 -.316759336494714D+02 0.110623401604140D+02 -.387825316211248D+02
 0.118110919397299D+02 -.104822137506474D+02 0.257271502808187D+01 0.479648048873051D+01
0.853125655348D-04 0.000000000000D+00 0.000000000000D+00 0.101550461376D-04 0.000000000000D+00  6 -1 2 25 24 21 21 2 0.10104227D-01 0.52771464D-01 0.18971202D+05 0.18971202D+05 0.18971202D+05 0.12363590D+01  1  2  2  3  6  5       21 0.806019985177D-01 0.100000000000D+01
-.129586937373D-06 0.450206777060D-05 -.327622714968D-06 0.101550461376D-04 0.000000000000D+00  6 -1 2 25 24 21 21 4 0.10104227D-01 0.52771464D-01 0.18971202D+05 0.18971202D+05 0.18971202D+05 0.12363590D+01  1  2  3  3  6  5       21 -.187147159141D-03 0.100000000000D+01
0.290527444939D-05 0.000000000000D+00 0.000000000000D+00 0.101550461376D-04 0.000000000000D+00  6 -1 2 25 24 21 21 4 0.10104227D-01 0.52771464D-01 0.18971202D+05 0.18971202D+05 0.18971202D+05 0.12363590D+01  1  2 15  3  6  5       21 0.419574588881D-02 0.100000000000D+01
0.118566437881D-03 0.000000000000D+00 0.000000000000D+00 0.101869960224D-04 0.000000000000D+00  6 -1 2 25 24 21 21 4 0.10104227D-01 0.52771464D-01 0.18222017D+05 0.18222017D+05 0.18222017D+05 0.12383024D+01  1  2 12  3  6  5       21 0.172110137093D+00 0.100000000000D+01
0.864630095775D-04 0.000000000000D+00 0.000000000000D+00 0.101869960224D-04 0.000000000000D+00  6 -1 2 25 24 21 21 4 0.10104227D-01 0.52771464D-01 0.18222017D+05 0.18222017D+05 0.18222017D+05 0.12383024D+01  1  2 12  3  6  5       21 0.125509045374D+00 0.100000000000D+01
-.249516585581D-03 0.000000000000D+00 0.000000000000D+00 0.101550461376D-04 0.000000000000D+00  6 -1 2 25 24 21 21 4 0.10104227D-01 0.52771464D-01 0.18971202D+05 0.18971202D+05 0.18971202D+05 0.12363590D+01  1  2  4  3  6  5       21 -.360347432360D+00 0.100000000000D+01
-.192181499568D-03 0.000000000000D+00 0.000000000000D+00 0.101550461376D-04 0.000000000000D+00  6 -1 2 25 24 21 21 4 0.10104227D-01 0.52771464D-01 0.18971202D+05 0.18971202D+05 0.18971202D+05 0.12363590D+01  1  2  5  3  6  5       21 -.277545116912D+00 0.100000000000D+01
0.230505955711D-03 0.000000000000D+00 -.000000000000D+00 0.101550461376D-04 0.000000000000D+00  6 -1 2 25 24 21 21 4 0.10104227D-01 0.52771464D-01 0.18971202D+05 0.18971202D+05 0.18971202D+05 0.12363590D+01  1  2  6  3  6  5       21 0.332892617502D+00 0.100000000000D+01
0.143753347715D-05 0.000000000000D+00 0.000000000000D+00 0.101869960224D-04 0.000000000000D+00  6 -1 2 25 24 1 -1 4 0.10104227D-01 0.52771464D-01 0.18222017D+05 0.18222017D+05 0.18222017D+05 0.12383024D+01  1  2 12  6  6  5       21 0.208671263344D-02 0.100000000000D+01
0.121364293819D-05 0.000000000000D+00 0.000000000000D+00 0.101869960224D-04 0.000000000000D+00  6 -1 2 25 24 1 -1 4 0.10104227D-01 0.52771464D-01 0.18222017D+05 0.18222017D+05 0.18222017D+05 0.12383024D+01  1  2 12  6  6  5       21 0.176171483437D-02 0.100000000000D+01
-.147157697640D-05 0.000000000000D+00 0.000000000000D+00 0.101550461376D-04 0.000000000000D+00  6 -1 2 25 24 1 -1 4 0.10104227D-01 0.52771464D-01 0.18971202D+05 0.18971202D+05 0.18971202D+05 0.12363590D+01  1  2  5  6  6  5       21 -.212522539826D-02 0.100000000000D+01
0.143753347715D-05 0.000000000000D+00 0.000000000000D+00 0.101869960224D-04 0.000000000000D+00  6 -1 2 25 24 2 -2 4 0.10104227D-01 0.52771464D-01 0.18222017D+05 0.18222017D+05 0.18222017D+05 0.12383024D+01  1  2 12  7  6  5       21 0.208671263344D-02 0.100000000000D+01
0.121364293819D-05 0.000000000000D+00 0.000000000000D+00 0.101869960224D-04 0.000000000000D+00  6 -1 2 25 24 2 -2 4 0.10104227D-01 0.52771464D-01 0.18222017D+05 0.18222017D+05 0.18222017D+05 0.12383024D+01  1  2 12  7  6  5       21 0.176171483437D-02 0.100000000000D+01
-.147157697640D-05 0.000000000000D+00 0.000000000000D+00 0.101550461376D-04 0.000000000000D+00  6 -1 2 25 24 2 -2 4 0.10104227D-01 0.52771464D-01 0.18971202D+05 0.18971202D+05 0.18971202D+05 0.12363590D+01  1  2  5  7  6  5       21 -.212522539826D-02 0.100000000000D+01
0.143753347715D-05 0.000000000000D+00 0.000000000000D+00 0.101869960224D-04 0.000000000000D+00  6 -1 2 25 24 3 -3 4 0.10104227D-01 0.52771464D-01 0.18222017D+05 0.18222017D+05 0.18222017D+05 0.12383024D+01  1  2 12  8  6  5       21 0.208671263344D-02 0.100000000000D+01
0.143753347715D-05 0.000000000000D+00 0.000000000000D+00 0.101869960224D-04 0.000000000000D+00  6 -1 2 25 24 4 -4 4 0.10104227D-01 0.52771464D-01 0.18222017D+05 0.18222017D+05 0.18222017D+05 0.12383024D+01  1  2 12  8  6  5       21 0.208671263344D-02 0.100000000000D+01
0.121364293819D-05 0.000000000000D+00 0.000000000000D+00 0.101869960224D-04 0.000000000000D+00  6 -1 2 25 24 3 -3 4 0.10104227D-01 0.52771464D-01 0.18222017D+05 0.18222017D+05 0.18222017D+05 0.12383024D+01  1  2 12  8  6  5       21 0.176171483437D-02 0.100000000000D+01
0.121364293819D-05 0.000000000000D+00 0.000000000000D+00 0.101869960224D-04 0.000000000000D+00  6 -1 2 25 24 4 -4 4 0.10104227D-01 0.52771464D-01 0.18222017D+05 0.18222017D+05 0.18222017D+05 0.12383024D+01  1  2 12  8  6  5       21 0.176171483437D-02 0.100000000000D+01
-.147157697640D-05 0.000000000000D+00 0.000000000000D+00 0.101550461376D-04 0.000000000000D+00  6 -1 2 25 24 3 -3 4 0.10104227D-01 0.52771464D-01 0.18971202D+05 0.18971202D+05 0.18971202D+05 0.12363590D+01  1  2  5  8  6  5       21 -.212522539826D-02 0.100000000000D+01
-.147157697640D-05 0.000000000000D+00 0.000000000000D+00 0.101550461376D-04 0.000000000000D+00  6 -1 2 25 24 4 -4 4 0.10104227D-01 0.52771464D-01 0.18971202D+05 0.18971202D+05 0.18971202D+05 0.12363590D+01  1  2  5  8  6  5       21 -.212522539826D-02 0.100000000000D+01
  </mgrwgt>
  </event>
  <event>
  6     66 -.43135346E-03 0.20249695E+02 0.75467711E-02 0.12349245E+00
       -1 -1    0    0    0  501 0.00000000E+00 0.00000000E+00 0.76194555E+02 0.76195227E+02 0.32000000E+00 0.0000E+00 0.9000E+01
        2 -1    0    0  502    0 -.00000000E+00 -.00000000E+00 -.83274642E+03 0.83274648E+03 0.32000000E+00 0.0000E+00 0.9000E+01
       25  1    1    2    0    0 0.44828711E+01 -.23963343E+02 -.17639180E+02 0.12857091E+03 0.12500000E+03 0.0000E+00 0.9000E+01
       24  1    1    2    0    0 -.21952298E+02 0.35269268E+02 -.81582616E+02 0.12185550E+03 0.80419002E+02 0.0000E+00 0.9000E+01
       21  1    1    2  502  503 0.23483570E+02 -.60239121E+01 -.61181885E+03 0.61229947E+03 0.75000000E+00 0.0000E+00 0.9000E+01
       21  1    1    2  503  501 -.60141434E+01 -.52820128E+01 -.45511213E+02 0.46215826E+02 0.75000000E+00 0.0000E+00 0.9000E+01
#aMCatNLO 2  0  0  5  1 0.84998019D+01 0.00000000D+00  -5  6  0 0.00000000D+00 0.00000000D+00 0.00000000D+00 0.00000000D+00 0.00000000D+00
  <mgrwgt>
 -.2956536272D+01    3    2    0
 0.251894970801248D+03 0.000000000000000D+00 0.000000000000000D+00 0.251894970801248D+03
 0.251894970801248D+03 -.000000000000000D+00 -.000000000000000D+00 -.251894970801248D+03
 0.206373844137711D+03 0.438086633000778D+01 -.238973274572563D+02 0.162403476855563D+03
 0.975620810126161D+02 -.220005692464880D+02 0.353005086302997D+02 0.363454638216979D+02
 0.199854016452169D+03 0.176197029164803D+02 -.114031811730434D+02 -.198748940677261D+03
 0.000000000000000D+00 0.000000000000000D+00 0.000000000000000D+00 -.000000000000000D+00
 0.251894970801248D+03 0.000000000000000D+00 0.000000000000000D+00 0.251894970801248D+03
 0.251894970801248D+03 -.000000000000000D+00 -.000000000000000D+00 -.251894970801248D+03
 0.205477658823789D+03 0.448308177202828D+01 -.239634796057669D+02 0.161250494258823D+03
 0.973378660517130D+02 -.219521979668017D+02 0.352692035357445D+02 0.357998393782885D+02
 0.185943549659820D+03 0.235172519570208D+02 -.600326114893961D+01 -.184352660344410D+03
 0.150308670671738D+02 -.604813576224730D+01 -.530246278103811D+01 -.126976732927014D+02
-.709097656052D-02 0.000000000000D+00 0.000000000000D+00 0.126857237203D-03 0.000000000000D+00  6 -1 2 25 24 21 21 4 0.11722296D-01 0.12811489D+00 0.15648176D+05 0.15648176D+05 0.15648176D+05 0.12457335D+01  1  2 13  3  6  5       21 -.308543093952D+01 0.100000000000D+01
-.172523141040D-02 0.000000000000D+00 0.000000000000D+00 0.127793120035D-03 0.000000000000D+00  6 -1 2 25 24 21 21 4 0.11722296D-01 0.12811489D+00 0.14264276D+05 0.14264276D+05 0.14264276D+05 0.12503202D+01  1  2  8  3  6  5       21 -.761240585947D+00 0.100000000000D+01
0.204572014041D-02 0.000000000000D+00 0.000000000000D+00 0.127793120035D-03 0.498647239370D-05  6 -1 2 25 24 21 21 4 0.11722296D-01 0.12811489D+00 0.15648176D+05 0.15648176D+05 0.15648176D+05 0.12457335D+01  1  2  1  3  6  5       21 0.890135253015D+00 0.100000000000D+01
  </mgrwgt>
  </event>
  <event>
  5     66 -.43135346E-03 0.55191049E+02 0.75467711E-02 0.11878093E+00
       -3 -1    0    0    0  501 0.00000000E+00 0.00000000E+00 0.12610046E+04 0.12610047E+04 0.50000000E+00 0.0000E+00 0.9000E+01
        4 -1    0    0  502    0 0.00000000E+00 0.00000000E+00 -.30401454E+02 0.30440942E+02 0.15500000E+01 0.0000E+00 0.9000E+01
       25  1    1    2    0    0 -.88339989E+01 -.19281482E+02 0.14202432E+03 0.19038309E+03 0.12500000E+03 0.0000E+00 0.9000E+01
       24  1    1    2    0    0 0.51612989E+02 0.54148234E+02 0.75548175E+03 0.76342375E+03 0.80419002E+02 0.0000E+00 0.9000E+01
       21  1    1    2  502  501 -.42778991E+02 -.34866752E+02 0.33309704E+03 0.33763876E+03 0.75000000E+00 0.0000E+00 0.9000E+01
#aMCatNLO 1  0  0  2  1 0.28258262D+02 0.00000000D+00  -5  6  0 0.00000000D+00 0.00000000D+00 0.00000000D+00 0.00000000D+00 0.00000000D+00
  <mgrwgt>
 -.1272977442D+00    7    4    0
 0.195862028957292D+03 0.000000000000000D+00 0.000000000000000D+00 0.195862028957292D+03
 0.195862028957292D+03 0.000000000000000D+00 0.000000000000000D+00 -.195862028957292D+03
 0.181490210063763D+03 -.883274614273082D+01 -.192804609227303D+02 -.129861244300115D+03
 0.143524746895827D+03 0.516139800741988D+02 0.541490415111984D+02 0.923905589411562D+02
 0.667091009549936D+02 -.427812339314680D+02 -.348685805884682D+02 0.374706853589583D+02
 0.000000000000000D+00 -.000000000000000D+00 0.000000000000000D+00 -.000000000000000D+00
 0.205583111330007D+03 0.000000000000000D+00 0.000000000000000D+00 0.205583111330007D+03
 0.218041613769813D+03 0.000000000000000D+00 0.000000000000000D+00 -.218041613769813D+03
 0.181366905292414D+03 0.423224602527512D+01 -.196748483540512D+02 -.129861244300115D+03
 0.147501489691379D+03 0.620926377628149D+02 0.538327266725547D+02 0.923905589411562D+02
 0.638735901582647D+02 -.380794883559479D+02 -.350105102074384D+02 0.374706853589583D+02
 0.308827399577620D+02 -.282453954321421D+02 0.852631888934901D+00 -.124585024398059D+02
 0.195862028957292D+03 0.000000000000000D+00 0.000000000000000D+00 0.195862028957292D+03
 0.195862028957292D+03 0.000000000000000D+00 0.000000000000000D+00 -.195862028957292D+03
 0.181490210063763D+03 -.883274614273082D+01 -.192804609227303D+02 -.129861244300115D+03
 0.143524746895827D+03 0.516139800741988D+02 0.541490415111984D+02 0.923905589411562D+02
 0.000000000000000D+00 -.000000000000000D+00 0.000000000000000D+00 -.000000000000000D+00
 0.667091009549936D+02 -.427812339314680D+02 -.348685805884682D+02 0.374706853589583D+02
 0.205583111330007D+03 0.000000000000000D+00 0.000000000000000D+00 0.205583111330007D+03
 0.218041613769813D+03 0.000000000000000D+00 0.000000000000000D+00 -.218041613769813D+03
 0.181366905292414D+03 0.423224602527512D+01 -.196748483540512D+02 -.129861244300115D+03
 0.147501489691379D+03 0.620926377628149D+02 0.538327266725547D+02 0.923905589411562D+02
 0.308827399577620D+02 -.282453954321421D+02 0.852631888934901D+00 -.124585024398059D+02
 0.638735901582647D+02 -.380794883559479D+02 -.350105102074384D+02 0.374706853589583D+02
0.283276795859D-02 0.000000000000D+00 0.000000000000D+00 0.385485330007D-05 0.000000000000D+00  6 -3 4 25 24 21 21 2 0.19400375D+00 0.46801919D-02 0.21288346D+05 0.21288346D+05 0.21288346D+05 0.12308524D+01  1  2  2  2  6  2        4 0.401959068530D-01 0.100000000000D+01
-.667253021936D-04 0.149489272161D-03 -.108785748459D-04 0.385485330007D-05 0.000000000000D+00  6 -3 4 25 24 21 21 4 0.19400375D+00 0.46801919D-02 0.21288346D+05 0.21288346D+05 0.21288346D+05 0.12308524D+01  1  2  3  2  6  2        4 -.143441004691D-02 0.100000000000D+01
0.108489022235D-03 0.000000000000D+00 0.000000000000D+00 0.385485330007D-05 0.000000000000D+00  6 -3 4 25 24 21 21 4 0.19400375D+00 0.46801919D-02 0.21288346D+05 0.21288346D+05 0.21288346D+05 0.12308524D+01  1  2 15  2  6  2        4 0.233221489237D-02 0.100000000000D+01
-.372320206993D-02 0.000000000000D+00 0.000000000000D+00 0.385485330007D-05 0.000000000000D+00  6 -3 4 25 24 21 21 4 0.19400375D+00 0.46801919D-02 0.21288346D+05 0.21288346D+05 0.21288346D+05 0.12308524D+01  1  2  4  2  6  2        4 -.800385802718D-01 0.100000000000D+01
-.197344273896D-01 0.000000000000D+00 -.492876680709D-02 0.385485330007D-05 0.000000000000D+00  6 -3 4 25 24 21 21 4 0.19400375D+00 0.54808139D-02 0.21288346D+05 0.21288346D+05 0.21288346D+05 0.12308524D+01  1  2  5  2  6  2        4 -.328925766899D+00 0.100000000000D+01
0.203196904022D-01 0.000000000000D+00 0.486794463791D-02 0.385485330007D-05 0.000000000000D+00  6 -3 4 25 24 21 21 4 0.19400375D+00 0.46801919D-02 0.21288346D+05 0.21288346D+05 0.21288346D+05 0.12308524D+01  1  2  6  2  6  2        4 0.436817325735D+00 0.100000000000D+01
-.431696065833D-03 0.000000000000D+00 -.117185684854D-03 0.385485330007D-05 0.000000000000D+00  6 -3 21 25 24 -4 21 4 0.19400375D+00 0.54808139D-02 0.21288346D+05 0.21288346D+05 0.21288346D+05 0.12308524D+01  3  4  5  5  5  2        4 -.196244434441D+00 0.100000000000D+01
  </mgrwgt>
  </event>
  <event>
  5     66 -.43135346E-03 0.51258227E+02 0.75467711E-02 0.12038847E+00
       -1 -1    0    0    0  501 0.00000000E+00 0.00000000E+00 0.46458774E+02 0.46459876E+02 0.32000000E+00 0.0000E+00 0.9000E+01
        2 -1    0    0  502    0 0.00000000E+00 0.00000000E+00 -.65265969E+03 0.65265976E+03 0.32000000E+00 0.0000E+00 0.9000E+01
       25  1    1    2    0    0 -.48019616E+02 0.87981485E+01 -.14427883E+03 0.19703977E+03 0.12500000E+03 0.0000E+00 0.9000E+01
       24  1    1    2    0    0 -.23525332E+02 0.23379620E+01 -.89258946E+02 0.12244706E+03 0.80419002E+02 0.0000E+00 0.9000E+01
       21  1    1    2  502  501 0.71544948E+02 -.11136110E+02 -.37266314E+03 0.37963281E+03 0.75000000E+00 0.0000E+00 0.9000E+01
#aMCatNLO 1  0  0  1  5 0.38877613D+01 0.00000000D+00  -5  6  0 0.00000000D+00 0.00000000D+00 0.00000000D+00 0.00000000D+00 0.00000000D+00
  <mgrwgt>
 -.1723089546D-01   11    4    0
 0.174132654276229D+03 0.000000000000000D+00 0.000000000000000D+00 0.174132654276229D+03
 0.174132654276229D+03 0.000000000000000D+00 0.000000000000000D+00 -.174132654276229D+03
 0.144408857184778D+03 -.480202647001328D+02 0.879824942474204D+01 0.533438189353066D+02
 0.904379278341231D+02 -.235257382896364D+02 0.233802518332957D+01 0.339540294034326D+02
 0.113418523533557D+03 0.715460029897692D+02 -.111362746080716D+02 -.872978483387392D+02
 0.000000000000000D+00 -.000000000000000D+00 0.000000000000000D+00 0.000000000000000D+00
 0.176923265658836D+03 0.000000000000000D+00 0.000000000000000D+00 0.176923265658836D+03
 0.175502854971998D+03 0.000000000000000D+00 0.000000000000000D+00 -.175502854971998D+03
 0.144162504327659D+03 -.475343950068391D+02 0.726263910389474D+01 0.533438189353066D+02
 0.903394553312369D+02 -.232213620991072D+02 0.137603223326848D+01 0.339540294034326D+02
 0.113785048179932D+03 0.719285472905102D+02 -.123453209521994D+02 -.872978483387392D+02
 0.413911279200544D+01 -.117279018456395D+01 0.370664961503622D+01 0.142041068683862D+01
 0.174132654276229D+03 0.000000000000000D+00 0.000000000000000D+00 0.174132654276229D+03
 0.174132654276229D+03 0.000000000000000D+00 0.000000000000000D+00 -.174132654276229D+03
 0.144408857184778D+03 -.480202647001328D+02 0.879824942474204D+01 0.533438189353066D+02
 0.904379278341231D+02 -.235257382896364D+02 0.233802518332957D+01 0.339540294034326D+02
 0.000000000000000D+00 -.000000000000000D+00 0.000000000000000D+00 0.000000000000000D+00
 0.113418523533557D+03 0.715460029897692D+02 -.111362746080716D+02 -.872978483387392D+02
 0.176923265658836D+03 0.000000000000000D+00 0.000000000000000D+00 0.176923265658836D+03
 0.175502854971998D+03 0.000000000000000D+00 0.000000000000000D+00 -.175502854971998D+03
 0.144162504327659D+03 -.475343950068391D+02 0.726263910389474D+01 0.533438189353066D+02
 0.903394553312369D+02 -.232213620991072D+02 0.137603223326848D+01 0.339540294034326D+02
 0.413911279200544D+01 -.117279018456395D+01 0.370664961503622D+01 0.142041068683862D+01
 0.113785048179932D+03 0.719285472905102D+02 -.123453209521994D+02 -.872978483387392D+02
0.115122098801D-04 0.000000000000D+00 0.000000000000D+00 0.741518410198D-05 0.000000000000D+00  6 -1 2 25 24 21 21 2 0.71475944D-02 0.10040927D+00 0.21086642D+05 0.21086642D+05 0.21086642D+05 0.12313044D+01  1  2  2  1  6  1       -1 0.901744635533D-02 0.100000000000D+01
-.541491505203D-06 0.607516005931D-06 -.442099171739D-07 0.741518410198D-05 0.000000000000D+00  6 -1 2 25 24 21 21 4 0.71475944D-02 0.10040927D+00 0.21086642D+05 0.21086642D+05 0.21086642D+05 0.12313044D+01  1  2  3  1  6  1       -1 -.643053928101D-03 0.100000000000D+01
0.568637828163D-06 0.000000000000D+00 0.000000000000D+00 0.741518410198D-05 0.000000000000D+00  6 -1 2 25 24 21 21 4 0.71475944D-02 0.10040927D+00 0.21086642D+05 0.21086642D+05 0.21086642D+05 0.12313044D+01  1  2 15  1  6  1       -1 0.675291829241D-03 0.100000000000D+01
0.126262551079D-05 0.000000000000D+00 0.000000000000D+00 0.739921766974D-05 0.000000000000D+00  6 -1 2 25 24 21 21 4 0.73105419D-02 0.10040927D+00 0.21684618D+05 0.21684618D+05 0.21684618D+05 0.12299781D+01  1  2 12  1  6  1       -1 0.144410859341D-02 0.100000000000D+01
-.961749420343D-04 0.000000000000D+00 0.000000000000D+00 0.741518410198D-05 0.000000000000D+00  6 -1 2 25 24 21 21 4 0.71475944D-02 0.10040927D+00 0.21086642D+05 0.21086642D+05 0.21086642D+05 0.12313044D+01  1  2  4  1  6  1       -1 -.114213563215D+00 0.100000000000D+01
-.861546970815D-03 0.000000000000D+00 -.108461233933D-03 0.741518410198D-05 0.000000000000D+00  6 -1 2 25 24 21 21 4 0.73189060D-02 0.10040927D+00 0.21086642D+05 0.21086642D+05 0.21086642D+05 0.12313044D+01  1  2  5  1  6  1       -1 -.987332172582D+00 0.100000000000D+01
0.863903962701D-03 0.000000000000D+00 0.108430818798D-03 0.741518410198D-05 0.000000000000D+00  6 -1 2 25 24 21 21 4 0.71475944D-02 0.10040927D+00 0.21086642D+05 0.21086642D+05 0.21086642D+05 0.12313044D+01  1  2  6  1  6  1       -1 0.102593823057D+01 0.100000000000D+01
0.928809882296D-04 0.000000000000D+00 0.000000000000D+00 0.741518410198D-05 0.157337320969D-05  6 -1 2 25 24 21 21 4 0.72621402D-02 0.10119937D+00 0.21684618D+05 0.21684618D+05 0.21684618D+05 0.12299781D+01  1  2 11  1  6  1       -1 0.106320769389D+00 0.100000000000D+01
0.601094386860D-07 0.000000000000D+00 0.000000000000D+00 0.739921766974D-05 0.000000000000D+00  6 21 2 25 24 1 21 4 0.73105419D-02 0.10040927D+00 0.21684618D+05 0.21684618D+05 0.21684618D+05 0.12299781D+01  3  4 12  4  5  1       -1 0.110825902303D-02 0.100000000000D+01
-.367155578611D-05 0.000000000000D+00 -.465004900600D-06 0.741518410198D-05 0.000000000000D+00  6 21 2 25 24 1 21 4 0.73189060D-02 0.10040927D+00 0.21086642D+05 0.21086642D+05 0.21086642D+05 0.12313044D+01  3  4  5  4  5  1       -1 -.678403227941D-01 0.100000000000D+01
0.448832966293D-06 0.000000000000D+00 0.000000000000D+00 0.741518410198D-05 0.124667057089D-07  6 21 2 25 24 1 21 4 0.72621402D-02 0.10119937D+00 0.21684618D+05 0.21684618D+05 0.21684618D+05 0.12299781D+01  3  4 11  4  5  1       -1 0.829411129759D-02 0.100000000000D+01
  </mgrwgt>
  </event>
  <event>
  5     66 0.43135346E-03 0.23062375E+02 0.75467711E-02 0.12114391E+00
       -1 -1    0    0    0  501 0.00000000E+00 0.00000000E+00 0.77357472E+01 0.77423630E+01 0.32000000E+00 0.0000E+00 0.9000E+01
        2 -1    0    0  502    0 -.00000000E+00 -.00000000E+00 -.30245233E+04 0.30245233E+04 0.32000000E+00 0.0000E+00 0.9000E+01
       25  1    1    2    0    0 -.62712659E+02 0.62587814E+02 -.21560439E+04 0.21614811E+04 0.12500000E+03 0.0000E+00 0.9000E+01
       24  1    1    2    0    0 0.40320539E+02 -.57093696E+02 -.76006811E+03 0.76749996E+03 0.80419002E+02 0.0000E+00 0.9000E+01
       21  1    1    2  502  501 0.22392120E+02 -.54941177E+01 -.10067554E+03 0.10328465E+03 0.75000000E+00 0.0000E+00 0.9000E+01
#aMCatNLO 1  0  0  5  1 0.76428743D+01 0.00000000D+00  -5  6  0 0.00000000D+00 0.00000000D+00 0.00000000D+00 0.00000000D+00 0.00000000D+00
  <mgrwgt>
 0.2717611853D+00   20    2    0
 0.152993475227146D+03 0.000000000000000D+00 0.000000000000000D+00 0.152993475227146D+03
 0.152993475227146D+03 -.000000000000000D+00 -.000000000000000D+00 -.152993475227146D+03
 0.162945874429626D+03 -.627161618692716D+02 0.625886736580469D+02 -.554589845178324D+02
 0.112093657799438D+03 0.403181294370103D+02 -.570931051393429D+02 0.348223771264319D+02
 0.309474182252286D+02 0.223980324322613D+02 -.549556851870398D+01 0.206366073914005D+02
 0.000000000000000D+00 0.000000000000000D+00 0.000000000000000D+00 0.000000000000000D+00
 0.152993475227146D+03 0.000000000000000D+00 0.000000000000000D+00 0.152993475227146D+03
 0.152993475227146D+03 -.000000000000000D+00 -.000000000000000D+00 -.152993475227146D+03
 0.161447185510404D+03 -.608073659971210D+02 0.621203325867788D+02 -.537003000832496D+02
 0.113125457520064D+03 0.416433653028169D+02 -.574182642588330D+02 0.360433938539665D+02
 0.213590047701744D+02 0.190720492485861D+02 -.580868628671207D+01 0.766310549675547D+01
 0.100553026536502D+02 0.919514457180517D-01 0.110661795876626D+01 0.999380073252768D+01
0.193063380566D-03 0.000000000000D+00 0.000000000000D+00 0.357377263621D-04 0.000000000000D+00  6 -1 2 25 24 21 21 2 0.11906252D-02 0.46531178D+00 0.19997871D+05 0.19997871D+05 0.19997871D+05 0.12338311D+01  1  2  2  3  6  5       21 0.997674372849D-01 0.100000000000D+01
0.335447662190D-04 0.101882344984D-04 -.741414216129D-06 0.357377263621D-04 0.000000000000D+00  6 -1 2 25 24 21 21 4 0.11906252D-02 0.46531178D+00 0.19997871D+05 0.19997871D+05 0.19997871D+05 0.12338311D+01  1  2  3  3  6  5       21 0.263891335464D-01 0.100000000000D+01
0.545682670268D-05 0.000000000000D+00 0.000000000000D+00 0.357377263621D-04 0.000000000000D+00  6 -1 2 25 24 21 21 4 0.11906252D-02 0.46531178D+00 0.19997871D+05 0.19997871D+05 0.19997871D+05 0.12338311D+01  1  2 15  3  6  5       21 0.429279869344D-02 0.100000000000D+01
0.103910959313D-03 0.000000000000D+00 0.000000000000D+00 0.357829332471D-04 0.000000000000D+00  6 -1 2 25 24 21 21 4 0.11906252D-02 0.46531178D+00 0.19674539D+05 0.19674539D+05 0.19674539D+05 0.12346113D+01  1  2 12  3  6  5       21 0.819621356810D-01 0.100000000000D+01
0.118302700488D-03 0.000000000000D+00 0.000000000000D+00 0.357829332471D-04 0.000000000000D+00  6 -1 2 25 24 21 21 4 0.11906252D-02 0.46531178D+00 0.19674539D+05 0.19674539D+05 0.19674539D+05 0.12346113D+01  1  2 12  3  6  5       21 0.933139492976D-01 0.100000000000D+01
-.219583666424D-03 0.000000000000D+00 0.000000000000D+00 0.357377263621D-04 0.000000000000D+00  6 -1 2 25 24 21 21 4 0.11906252D-02 0.46531178D+00 0.19997871D+05 0.19997871D+05 0.19997871D+05 0.12338311D+01  1  2  4  3  6  5       21 -.172742974568D+00 0.100000000000D+01
-.251292797924D-03 0.000000000000D+00 0.000000000000D+00 0.357377263621D-04 0.000000000000D+00  6 -1 2 25 24 21 21 4 0.11906252D-02 0.46531178D+00 0.19997871D+05 0.19997871D+05 0.19997871D+05 0.12338311D+01  1  2  5  3  6  5       21 -.197688043505D+00 0.100000000000D+01
0.410497051182D-03 0.000000000000D+00 -.000000000000D+00 0.357377263621D-04 0.000000000000D+00  6 -1 2 25 24 21 21 4 0.11906252D-02 0.46531178D+00 0.19997871D+05 0.19997871D+05 0.19997871D+05 0.12338311D+01  1  2  6  3  6  5       21 0.322931494986D+00 0.100000000000D+01
0.263700769167D-05 0.000000000000D+00 0.000000000000D+00 0.357829332471D-04 0.000000000000D+00  6 -1 2 25 24 1 -1 4 0.11906252D-02 0.46531178D+00 0.19674539D+05 0.19674539D+05 0.19674539D+05 0.12346113D+01  1  2 12  6  6  5       21 0.207999987340D-02 0.100000000000D+01
0.292659699722D-05 0.000000000000D+00 0.000000000000D+00 0.357829332471D-04 0.000000000000D+00  6 -1 2 25 24 1 -1 4 0.11906252D-02 0.46531178D+00 0.19674539D+05 0.19674539D+05 0.19674539D+05 0.12346113D+01  1  2 12  6  6  5       21 0.230842003341D-02 0.100000000000D+01
-.127701379942D-05 0.000000000000D+00 0.000000000000D+00 0.357377263621D-04 0.000000000000D+00  6 -1 2 25 24 1 -1 4 0.11906252D-02 0.46531178D+00 0.19997871D+05 0.19997871D+05 0.19997871D+05 0.12338311D+01  1  2  5  6  6  5       21 -.100460642574D-02 0.100000000000D+01
0.263700769167D-05 0.000000000000D+00 0.000000000000D+00 0.357829332471D-04 0.000000000000D+00  6 -1 2 25 24 2 -2 4 0.11906252D-02 0.46531178D+00 0.19674539D+05 0.19674539D+05 0.19674539D+05 0.12346113D+01  1  2 12  7  6  5       21 0.207999987340D-02 0.100000000000D+01
0.292659699722D-05 0.000000000000D+00 0.000000000000D+00 0.357829332471D-04 0.000000000000D+00  6 -1 2 25 24 2 -2 4 0.11906252D-02 0.46531178D+00 0.19674539D+05 0.19674539D+05 0.19674539D+05 0.12346113D+01  1  2 12  7  6  5       21 0.230842003341D-02 0.100000000000D+01
-.127701379942D-05 0.000000000000D+00 0.000000000000D+00 0.357377263621D-04 0.000000000000D+00  6 -1 2 25 24 2 -2 4 0.11906252D-02 0.46531178D+00 0.19997871D+05 0.19997871D+05 0.19997871D+05 0.12338311D+01  1  2  5  7  6  5       21 -.100460642574D-02 0.100000000000D+01
0.263700769167D-05 0.000000000000D+00 0.000000000000D+00 0.357829332471D-04 0.000000000000D+00  6 -1 2 25 24 3 -3 4 0.11906252D-02 0.46531178D+00 0.19674539D+05 0.19674539D+05 0.19674539D+05 0.12346113D+01  1  2 12  8  6  5       21 0.207999987340D-02 0.100000000000D+01
0.263700769167D-05 0.000000000000D+00 0.000000000000D+00 0.357829332471D-04 0.000000000000D+00  6 -1 2 25 24 4 -4 4 0.11906252D-02 0.46531178D+00 0.19674539D+05 0.19674539D+05 0.19674539D+05 0.12346113D+01  1  2 12  8  6  5       21 0.207999987340D-02 0.100000000000D+01
0.292659699722D-05 0.000000000000D+00 0.000000000000D+00 0.357829332471D-04 0.000000000000D+00  6 -1 2 25 24 3 -3 4 0.11906252D-02 0.46531178D+00 0.19674539D+05 0.19674539D+05 0.19674539D+05 0.12346113D+01  1  2 12  8  6  5       21 0.230842003341D-02 0.100000000000D+01
0.292659699722D-05 0.000000000000D+00 0.000000000000D+00 0.357829332471D-04 0.000000000000D+00  6 -1 2 25 24 4 -4 4 0.11906252D-02 0.46531178D+00 0.19674539D+05 0.19674539D+05 0.19674539D+05 0.12346113D+01  1  2 12  8  6  5       21 0.230842003341D-02 0.100000000000D+01
-.127701379942D-05 0.000000000000D+00 0.000000000000D+00 0.357377263621D-04 0.000000000000D+00  6 -1 2 25 24 3 -3 4 0.11906252D-02 0.46531178D+00 0.19997871D+05 0.19997871D+05 0.19997871D+05 0.12338311D+01  1  2  5  8  6  5       21 -.100460642574D-02 0.100000000000D+01
-.127701379942D-05 0.000000000000D+00 0.000000000000D+00 0.357377263621D-04 0.000000000000D+00  6 -1 2 25 24 4 -4 4 0.11906252D-02 0.46531178D+00 0.19997871D+05 0.19997871D+05 0.19997871D+05 0.12338311D+01  1  2  5  8  6  5       21 -.100460642574D-02 0.100000000000D+01
  </mgrwgt>
  </event>
  <event>
  5     66 0.43135346E-03 0.17878098E+03 0.75467711E-02 0.10911266E+00
       -1 -1    0    0    0  501 0.00000000E+00 0.00000000E+00 0.88292223E+02 0.88292803E+02 0.32000000E+00 0.0000E+00 0.9000E+01
        2 -1    0    0  502    0 -.00000000E+00 -.00000000E+00 -.15579808E+04 0.15579808E+04 0.32000000E+00 0.0000E+00 0.9000E+01
       25  1    1    2    0    0 -.19574266E+03 -.10004587E+02 -.17057177E+03 0.28833142E+03 0.12500000E+03 0.0000E+00 0.9000E+01
       24  1    1    2    0    0 -.44274086E+02 0.61996651E+02 -.17350981E+03 0.20585590E+03 0.80419002E+02 0.0000E+00 0.9000E+01
       21  1    1    2  502  501 0.24001674E+03 -.51992064E+02 -.11256070E+04 0.11520863E+04 0.75000000E+00 0.0000E+00 0.9000E+01
#aMCatNLO 1  0  0  5  1 0.88005840D+02 0.00000000D+00  -5  6  0 0.00000000D+00 0.00000000D+00 0.00000000D+00 0.00000000D+00 0.00000000D+00
  <mgrwgt>
 0.9299822079D-02   13    2    0
 0.370888245231365D+03 0.000000000000000D+00 0.000000000000000D+00 0.370888245231365D+03
 0.370888245231365D+03 -.000000000000000D+00 -.000000000000000D+00 -.370888245231365D+03
 0.301957890942778D+03 -.195742914877009D+03 -.100045316068131D+02 0.192712709817985D+03
 0.113093090136355D+03 -.442741821191290D+02 0.619966718005612D+02 0.227824617975084D+02
 0.326725509383597D+03 0.240017096996138D+03 -.519921401937481D+02 -.215495171615493D+03
 0.000000000000000D+00 0.000000000000000D+00 0.000000000000000D+00 -.000000000000000D+00
 0.370888245231365D+03 0.000000000000000D+00 0.000000000000000D+00 0.370888245231365D+03
 0.370888245231365D+03 -.000000000000000D+00 -.000000000000000D+00 -.370888245231365D+03
 0.282962990522014D+03 -.179959872154906D+03 -.134234304276112D+02 0.178542179707503D+03
 0.109175027038633D+03 -.382766749343127D+02 0.606975008737042D+02 0.173977043938391D+02
 0.130600275774508D+03 0.102907460471692D+03 -.794337762759348D+02 -.125204551909798D+02
 0.219038197127575D+03 0.115329086617527D+03 0.321597058298418D+02 -.183419428910362D+03
0.167819451790D-03 0.000000000000D+00 0.000000000000D+00 0.911449976654D-06 0.000000000000D+00  6 -1 2 25 24 21 21 2 0.13583466D-01 0.23968940D+00 0.86678489D+05 0.86678489D+05 0.86678489D+05 0.11693187D+01  1  2  2  3  6  5       21 0.125017096994D-01 0.100000000000D+01
-.167154302429D-04 0.885607577790D-05 -.644470882750D-06 0.911449976654D-06 0.000000000000D+00  6 -1 2 25 24 21 21 4 0.13583466D-01 0.23968940D+00 0.86678489D+05 0.86678489D+05 0.86678489D+05 0.11693187D+01  1  2  3  3  6  5       21 -.170259156111D-02 0.100000000000D+01
0.688313469141D-05 0.000000000000D+00 0.000000000000D+00 0.911449976654D-06 0.000000000000D+00  6 -1 2 25 24 21 21 4 0.13583466D-01 0.23968940D+00 0.86678489D+05 0.86678489D+05 0.86678489D+05 0.11693187D+01  1  2 15  3  6  5       21 0.701098737471D-03 0.100000000000D+01
0.371255848730D-04 0.000000000000D+00 0.000000000000D+00 0.914012299986D-06 0.000000000000D+00  6 -1 2 25 24 21 21 4 0.13583466D-01 0.23968940D+00 0.83241361D+05 0.83241361D+05 0.83241361D+05 0.11709612D+01  1  2 12  3  6  5       21 0.380579834333D-02 0.100000000000D+01
-.529977964701D-04 0.000000000000D+00 0.000000000000D+00 0.911449976654D-06 0.000000000000D+00  6 -1 2 25 24 21 21 4 0.13583466D-01 0.23968940D+00 0.86678489D+05 0.86678489D+05 0.86678489D+05 0.11693187D+01  1  2  5  3  6  5       21 -.539822186544D-02 0.100000000000D+01
0.252467412955D-05 0.000000000000D+00 0.000000000000D+00 0.914012299986D-06 0.000000000000D+00  6 -1 2 25 24 1 -1 4 0.13583466D-01 0.23968940D+00 0.83241361D+05 0.83241361D+05 0.83241361D+05 0.11709612D+01  1  2 12  6  6  5       21 0.258808060602D-03 0.100000000000D+01
-.403309495738D-05 0.000000000000D+00 0.000000000000D+00 0.911449976654D-06 0.000000000000D+00  6 -1 2 25 24 1 -1 4 0.13583466D-01 0.23968940D+00 0.86678489D+05 0.86678489D+05 0.86678489D+05 0.11693187D+01  1  2  5  6  6  5       21 -.410800879176D-03 0.100000000000D+01
0.252467412955D-05 0.000000000000D+00 0.000000000000D+00 0.914012299986D-06 0.000000000000D+00  6 -1 2 25 24 2 -2 4 0.13583466D-01 0.23968940D+00 0.83241361D+05 0.83241361D+05 0.83241361D+05 0.11709612D+01  1  2 12  7  6  5       21 0.258808060602D-03 0.100000000000D+01
-.403309495738D-05 0.000000000000D+00 0.000000000000D+00 0.911449976654D-06 0.000000000000D+00  6 -1 2 25 24 2 -2 4 0.13583466D-01 0.23968940D+00 0.86678489D+05 0.86678489D+05 0.86678489D+05 0.11693187D+01  1  2  5  7  6  5       21 -.410800879176D-03 0.100000000000D+01
0.252467412955D-05 0.000000000000D+00 0.000000000000D+00 0.914012299986D-06 0.000000000000D+00  6 -1 2 25 24 3 -3 4 0.13583466D-01 0.23968940D+00 0.83241361D+05 0.83241361D+05 0.83241361D+05 0.11709612D+01  1  2 12  8  6  5       21 0.258808060602D-03 0.100000000000D+01
0.252467412955D-05 0.000000000000D+00 0.000000000000D+00 0.914012299986D-06 0.000000000000D+00  6 -1 2 25 24 4 -4 4 0.13583466D-01 0.23968940D+00 0.83241361D+05 0.83241361D+05 0.83241361D+05 0.11709612D+01  1  2 12  8  6  5       21 0.258808060602D-03 0.100000000000D+01
-.403309495738D-05 0.000000000000D+00 0.000000000000D+00 0.911449976654D-06 0.000000000000D+00  6 -1 2 25 24 3 -3 4 0.13583466D-01 0.23968940D+00 0.86678489D+05 0.86678489D+05 0.86678489D+05 0.11693187D+01  1  2  5  8  6  5       21 -.410800879176D-03 0.100000000000D+01
-.403309495738D-05 0.000000000000D+00 0.000000000000D+00 0.911449976654D-06 0.000000000000D+00  6 -1 2 25 24 4 -4 4 0.13583466D-01 0.23968940D+00 0.86678489D+05 0.86678489D+05 0.86678489D+05 0.11693187D+01  1  2  5  8  6  5       21 -.410800879176D-03 0.100000000000D+01
  </mgrwgt>
  </event>
  <event>
  5     66 -.43135346E-03 0.32737738E+02 0.75467711E-02 0.11953249E+00
       -1 -1    0    0    0  501 0.00000000E+00 0.00000000E+00 0.92317747E+03 0.92317753E+03 0.32000000E+00 0.0000E+00 0.9000E+01
        2 -1    0    0  502    0 0.00000000E+00 0.00000000E+00 -.27200755E+02 0.27202637E+02 0.32000000E+00 0.0000E+00 0.9000E+01
       25  1    1    2    0    0 -.26545566E+02 -.10338032E+03 0.57484748E+03 0.59788526E+03 0.12500000E+03 0.0000E+00 0.9000E+01
       24  1    1    2    0    0 0.57031207E+01 0.78143248E+02 0.25830968E+03 0.28165582E+03 0.80419002E+02 0.0000E+00 0.9000E+01
       21  1    1    2  502  501 0.20842445E+02 0.25237069E+02 0.62819553E+02 0.70839085E+02 0.75000000E+00 0.0000E+00 0.9000E+01
#aMCatNLO 1  0  0  5  1 0.25391452D+01 0.00000000D+00  -5  6  0 0.00000000D+00 0.00000000D+00 0.00000000D+00 0.00000000D+00 0.00000000D+00
  <mgrwgt>
 -.2700604946D+00   25    2    0
 0.158467804161075D+03 0.000000000000000D+00 0.000000000000000D+00 0.158467804161075D+03
 0.158467804161075D+03 -.000000000000000D+00 -.000000000000000D+00 -.158467804161075D+03
 0.167760128536150D+03 -.265481246254450D+02 -.103383414973407D+03 0.335488794712094D+02
 0.114345304238849D+03 0.570137680463917D+01 0.781411365273193D+02 -.216584794446603D+02
 0.348301755471521D+02 0.208467478208058D+02 0.252422784460872D+02 -.118904000265492D+02
 0.000000000000000D+00 0.000000000000000D+00 0.000000000000000D+00 -.000000000000000D+00
 0.158467804161075D+03 0.000000000000000D+00 0.000000000000000D+00 0.158467804161075D+03
 0.158467804161075D+03 -.000000000000000D+00 -.000000000000000D+00 -.158467804161075D+03
 0.167467556400995D+03 -.262604438125566D+02 -.103035076746027D+03 0.333847944074571D+02
 0.114539157100767D+03 0.589779753852945D+01 0.783789725149785D+02 -.217705123199816D+02
 0.305070114761201D+02 0.187794645718369D+02 0.226745554488918D+02 -.799212079453109D+01
 0.442188334426885D+01 0.158318170219026D+01 0.198154878215688D+01 -.362216129294442D+01
0.526212245257D-03 0.000000000000D+00 0.000000000000D+00 0.182987482414D-04 0.000000000000D+00  6 -1 2 25 24 21 21 2 0.14202745D+00 0.41848806D-02 0.23929682D+05 0.23929682D+05 0.23929682D+05 0.12253403D+01  1  2  2  3  6  5       21 0.772523621137D-01 0.100000000000D+01
0.694033840808D-04 0.277689830919D-04 -.202079357665D-05 0.182987482414D-04 0.000000000000D+00  6 -1 2 25 24 21 21 4 0.14202745D+00 0.41848806D-02 0.23929682D+05 0.23929682D+05 0.23929682D+05 0.12253403D+01  1  2  3  3  6  5       21 0.152983599701D-01 0.100000000000D+01
0.196609572826D-04 0.000000000000D+00 0.000000000000D+00 0.182987482414D-04 0.000000000000D+00  6 -1 2 25 24 21 21 4 0.14202745D+00 0.41848806D-02 0.23929682D+05 0.23929682D+05 0.23929682D+05 0.12253403D+01  1  2 15  3  6  5       21 0.433380022962D-02 0.100000000000D+01
0.225083253423D-05 0.000000000000D+00 0.000000000000D+00 0.183064360883D-04 0.000000000000D+00  6 -1 2 25 24 21 21 4 0.14202745D+00 0.41848806D-02 0.23798493D+05 0.23798493D+05 0.23798493D+05 0.12255976D+01  1  2 12  3  6  5       21 0.496525643282D-03 0.100000000000D+01
0.220717078539D-05 0.000000000000D+00 0.000000000000D+00 0.183064360883D-04 0.000000000000D+00  6 -1 2 25 24 21 21 4 0.14202745D+00 0.41848806D-02 0.23798493D+05 0.23798493D+05 0.23798493D+05 0.12255976D+01  1  2 12  3  6  5       21 0.486894016938D-03 0.100000000000D+01
-.151534632548D-01 0.000000000000D+00 0.000000000000D+00 0.182987482414D-04 0.000000000000D+00  6 -1 2 25 24 21 21 4 0.14202745D+00 0.41848806D-02 0.23929682D+05 0.23929682D+05 0.23929682D+05 0.12253403D+01  1  2  4  3  6  5       21 -.334022812770D+01 0.100000000000D+01
-.573013447816D-02 0.000000000000D+00 0.000000000000D+00 0.182987482414D-04 0.000000000000D+00  6 -1 2 25 24 21 21 4 0.14202745D+00 0.41848806D-02 0.23929682D+05 0.23929682D+05 0.23929682D+05 0.12253403D+01  1  2  5  3  6  5       21 -.126307472013D+01 0.100000000000D+01
0.700848735726D-02 0.000000000000D+00 -.000000000000D+00 0.182987482414D-04 0.000000000000D+00  6 -1 2 25 24 21 21 4 0.14202745D+00 0.41848806D-02 0.23929682D+05 0.23929682D+05 0.23929682D+05 0.12253403D+01  1  2  6  3  6  5       21 0.154485784601D+01 0.100000000000D+01
0.121673976471D-01 0.000000000000D+00 0.000000000000D+00 0.182987482414D-04 0.458277209771D-04  6 -1 2 25 24 21 21 4 0.14202745D+00 0.41848806D-02 0.23798493D+05 0.23798493D+05 0.23798493D+05 0.12255976D+01  1  2 11  3  6  5       21 0.268408460066D+01 0.100000000000D+01
0.150790366338D-06 0.000000000000D+00 0.000000000000D+00 0.183064360883D-04 0.000000000000D+00  6 -1 2 25 24 1 -1 4 0.14202745D+00 0.41848806D-02 0.23798493D+05 0.23798493D+05 0.23798493D+05 0.12255976D+01  1  2 12  6  6  5       21 0.332638179464D-04 0.100000000000D+01
0.149634161847D-06 0.000000000000D+00 0.000000000000D+00 0.183064360883D-04 0.000000000000D+00  6 -1 2 25 24 1 -1 4 0.14202745D+00 0.41848806D-02 0.23798493D+05 0.23798493D+05 0.23798493D+05 0.12255976D+01  1  2 12  6  6  5       21 0.330087633522D-04 0.100000000000D+01
-.375368411467D-04 0.000000000000D+00 0.000000000000D+00 0.182987482414D-04 0.000000000000D+00  6 -1 2 25 24 1 -1 4 0.14202745D+00 0.41848806D-02 0.23929682D+05 0.23929682D+05 0.23929682D+05 0.12253403D+01  1  2  5  6  6  5       21 -.827412258935D-02 0.100000000000D+01
0.449968335519D-04 0.000000000000D+00 0.000000000000D+00 0.182987482414D-04 0.296323057261D-06  6 -1 2 25 24 1 -1 4 0.14202745D+00 0.41848806D-02 0.23798493D+05 0.23798493D+05 0.23798493D+05 0.12255976D+01  1  2 11  6  6  5       21 0.992614127671D-02 0.100000000000D+01
0.150790366338D-06 0.000000000000D+00 0.000000000000D+00 0.183064360883D-04 0.000000000000D+00  6 -1 2 25 24 2 -2 4 0.14202745D+00 0.41848806D-02 0.23798493D+05 0.23798493D+05 0.23798493D+05 0.12255976D+01  1  2 12  7  6  5       21 0.332638179464D-04 0.100000000000D+01
0.149634161847D-06 0.000000000000D+00 0.000000000000D+00 0.183064360883D-04 0.000000000000D+00  6 -1 2 25 24 2 -2 4 0.14202745D+00 0.41848806D-02 0.23798493D+05 0.23798493D+05 0.23798493D+05 0.12255976D+01  1  2 12  7  6  5       21 0.330087633522D-04 0.100000000000D+01
-.375368411467D-04 0.000000000000D+00 0.000000000000D+00 0.182987482414D-04 0.000000000000D+00  6 -1 2 25 24 2 -2 4 0.14202745D+00 0.41848806D-02 0.23929682D+05 0.23929682D+05 0.23929682D+05 0.12253403D+01  1  2  5  7  6  5       21 -.827412258935D-02 0.100000000000D+01
0.442465189711D-04 0.000000000000D+00 0.000000000000D+00 0.182987482414D-04 0.290504109260D-06  6 -1 2 25 24 2 -2 4 0.14202745D+00 0.41848806D-02 0.23798493D+05 0.23798493D+05 0.23798493D+05 0.12255976D+01  1  2 11  7  6  5       21 0.976062455155D-02 0.100000000000D+01
0.150790366338D-06 0.000000000000D+00 0.000000000000D+00 0.183064360883D-04 0.000000000000D+00  6 -1 2 25 24 3 -3 4 0.14202745D+00 0.41848806D-02 0.23798493D+05 0.23798493D+05 0.23798493D+05 0.12255976D+01  1  2 12  8  6  5       21 0.332638179464D-04 0.100000000000D+01
0.150790366338D-06 0.000000000000D+00 0.000000000000D+00 0.183064360883D-04 0.000000000000D+00  6 -1 2 25 24 4 -4 4 0.14202745D+00 0.41848806D-02 0.23798493D+05 0.23798493D+05 0.23798493D+05 0.12255976D+01  1  2 12  8  6  5       21 0.332638179464D-04 0.100000000000D+01
0.149634161847D-06 0.000000000000D+00 0.000000000000D+00 0.183064360883D-04 0.000000000000D+00  6 -1 2 25 24 3 -3 4 0.14202745D+00 0.41848806D-02 0.23798493D+05 0.23798493D+05 0.23798493D+05 0.12255976D+01  1  2 12  8  6  5       21 0.330087633522D-04 0.100000000000D+01
0.149634161847D-06 0.000000000000D+00 0.000000000000D+00 0.183064360883D-04 0.000000000000D+00  6 -1 2 25 24 4 -4 4 0.14202745D+00 0.41848806D-02 0.23798493D+05 0.23798493D+05 0.23798493D+05 0.12255976D+01  1  2 12  8  6  5       21 0.330087633522D-04 0.100000000000D+01
-.375368411467D-04 0.000000000000D+00 0.000000000000D+00 0.182987482414D-04 0.000000000000D+00  6 -1 2 25 24 3 -3 4 0.14202745D+00 0.41848806D-02 0.23929682D+05 0.23929682D+05 0.23929682D+05 0.12253403D+01  1  2  5  8  6  5       21 -.827412258935D-02 0.100000000000D+01
-.375368411467D-04 0.000000000000D+00 0.000000000000D+00 0.182987482414D-04 0.000000000000D+00  6 -1 2 25 24 4 -4 4 0.14202745D+00 0.41848806D-02 0.23929682D+05 0.23929682D+05 0.23929682D+05 0.12253403D+01  1  2  5  8  6  5       21 -.827412258935D-02 0.100000000000D+01
0.443719736963D-04 0.000000000000D+00 0.000000000000D+00 0.182987482414D-04 0.291088753535D-06  6 -1 2 25 24 3 -3 4 0.14202745D+00 0.41848806D-02 0.23798493D+05 0.23798493D+05 0.23798493D+05 0.12255976D+01  1  2 11  8  6  5       21 0.978829941728D-02 0.100000000000D+01
0.443719736963D-04 0.000000000000D+00 0.000000000000D+00 0.182987482414D-04 0.291088753535D-06  6 -1 2 25 24 4 -4 4 0.14202745D+00 0.41848806D-02 0.23798493D+05 0.23798493D+05 0.23798493D+05 0.12255976D+01  1  2 11  8  6  5       21 0.978829941728D-02 0.100000000000D+01
  </mgrwgt>
  </event>
  <event>
  5     66 0.43135346E-03 0.47830285E+02 0.75467711E-02 0.11112825E+00
       -1 -1    0    0    0  501 0.00000000E+00 0.00000000E+00 0.49925099E+03 0.49925109E+03 0.32000000E+00 0.0000E+00 0.9000E+01
        2 -1    0    0  502    0 0.00000000E+00 0.00000000E+00 -.23462126E+03 0.23462148E+03 0.32000000E+00 0.0000E+00 0.9000E+01
       25  1    1    2    0    0 0.10465561E+03 -.18628137E+03 0.16129626E+03 0.29545732E+03 0.12500000E+03 0.0000E+00 0.9000E+01
       24  1    1    2    0    0 -.12464814E+03 0.14283015E+03 0.22660130E+03 0.30619108E+03 0.80419002E+02 0.0000E+00 0.9000E+01
       21  1    1    2  502  501 0.19992537E+02 0.43451222E+02 -.12326783E+03 0.13222417E+03 0.75000000E+00 0.0000E+00 0.9000E+01
#aMCatNLO 1  0  0  5  1 0.11712736D+02 0.00000000D+00  -5  6  0 0.00000000D+00 0.00000000D+00 0.00000000D+00 0.00000000D+00 0.00000000D+00
  <mgrwgt>
 0.2560917837D+00   20    2    0
 0.342249928601006D+03 0.000000000000000D+00 0.000000000000000D+00 0.342249928601006D+03
 0.342249928601006D+03 -.000000000000000D+00 -.000000000000000D+00 -.342249928601006D+03
 0.254411113641050D+03 0.104655546842323D+03 -.186281501469789D+03 0.587063324469734D+02
 0.240671989537280D+03 -.124648197307728D+03 0.142830033297537D+03 0.124572063841057D+03
 0.189416754023683D+03 0.199926504654052D+02 0.434514681722524D+02 -.183278396288030D+03
 0.000000000000000D+00 0.000000000000000D+00 0.000000000000000D+00 0.000000000000000D+00
 0.342249928601006D+03 0.000000000000000D+00 0.000000000000000D+00 0.342249928601006D+03
 0.342249928601006D+03 -.000000000000000D+00 -.000000000000000D+00 -.342249928601006D+03
 0.254214510351362D+03 0.104715375686854D+03 -.186151471129969D+03 0.581578641637734D+02
 0.240447631271927D+03 -.124591603951758D+03 0.142953031716878D+03 0.124053256215189D+03
 0.115503269105623D+03 0.219998971402702D+02 0.200690322719098D+02 -.111598582623493D+03
 0.743344464731009D+02 -.212366887536587D+01 0.231294071411811D+02 -.706125377554693D+02
0.471803567422D-03 0.000000000000D+00 0.000000000000D+00 0.893051054437D-05 0.000000000000D+00  6 -1 2 25 24 21 21 2 0.76807869D-01 0.36095603D-01 0.62825340D+05 0.62825340D+05 0.62825340D+05 0.11825840D+01  1  2  2  3  6  5       21 0.192095567001D-01 0.100000000000D+01
0.670299549724D-04 0.248977582801D-04 -.181184992763D-05 0.893051054437D-05 0.000000000000D+00  6 -1 2 25 24 21 21 4 0.76807869D-01 0.36095603D-01 0.62825340D+05 0.62825340D+05 0.62825340D+05 0.11825840D+01  1  2  3  3  6  5       21 0.381670884411D-02 0.100000000000D+01
0.109672999201D-04 0.000000000000D+00 0.000000000000D+00 0.893051054437D-05 0.000000000000D+00  6 -1 2 25 24 21 21 4 0.76807869D-01 0.36095603D-01 0.62825340D+05 0.62825340D+05 0.62825340D+05 0.11825840D+01  1  2 15  3  6  5       21 0.624481854692D-03 0.100000000000D+01
0.414067671452D-02 0.000000000000D+00 0.000000000000D+00 0.891757230292D-05 0.000000000000D+00  6 -1 2 25 24 21 21 4 0.76807869D-01 0.36095603D-01 0.64123709D+05 0.64123709D+05 0.64123709D+05 0.11817270D+01  1  2 12  3  6  5       21 0.235040880000D+00 0.100000000000D+01
0.345210524950D-02 0.000000000000D+00 0.000000000000D+00 0.891757230292D-05 0.000000000000D+00  6 -1 2 25 24 21 21 4 0.76807869D-01 0.36095603D-01 0.64123709D+05 0.64123709D+05 0.64123709D+05 0.11817270D+01  1  2 12  3  6  5       21 0.195954891347D+00 0.100000000000D+01
-.794445192059D-02 0.000000000000D+00 0.000000000000D+00 0.893051054437D-05 0.000000000000D+00  6 -1 2 25 24 21 21 4 0.76807869D-01 0.36095603D-01 0.62825340D+05 0.62825340D+05 0.62825340D+05 0.11825840D+01  1  2  4  3  6  5       21 -.452359842990D+00 0.100000000000D+01
-.801203263779D-02 0.000000000000D+00 0.000000000000D+00 0.893051054437D-05 0.000000000000D+00  6 -1 2 25 24 21 21 4 0.76807869D-01 0.36095603D-01 0.62825340D+05 0.62825340D+05 0.62825340D+05 0.11825840D+01  1  2  5  3  6  5       21 -.456207912426D+00 0.100000000000D+01
0.127213562357D-01 0.000000000000D+00 -.000000000000D+00 0.893051054437D-05 0.000000000000D+00  6 -1 2 25 24 21 21 4 0.76807869D-01 0.36095603D-01 0.62825340D+05 0.62825340D+05 0.62825340D+05 0.11825840D+01  1  2  6  3  6  5       21 0.724358428617D+00 0.100000000000D+01
0.160671737057D-03 0.000000000000D+00 0.000000000000D+00 0.891757230292D-05 0.000000000000D+00  6 -1 2 25 24 1 -1 4 0.76807869D-01 0.36095603D-01 0.64123709D+05 0.64123709D+05 0.64123709D+05 0.11817270D+01  1  2 12  6  6  5       21 0.912035135138D-02 0.100000000000D+01
0.136617173854D-03 0.000000000000D+00 0.000000000000D+00 0.891757230292D-05 0.000000000000D+00  6 -1 2 25 24 1 -1 4 0.76807869D-01 0.36095603D-01 0.64123709D+05 0.64123709D+05 0.64123709D+05 0.11817270D+01  1  2 12  6  6  5       21 0.775492098989D-02 0.100000000000D+01
-.359351948963D-03 0.000000000000D+00 0.000000000000D+00 0.893051054437D-05 0.000000000000D+00  6 -1 2 25 24 1 -1 4 0.76807869D-01 0.36095603D-01 0.62825340D+05 0.62825340D+05 0.62825340D+05 0.11825840D+01  1  2  5  6  6  5       21 -.204616243934D-01 0.100000000000D+01
0.160671737057D-03 0.000000000000D+00 0.000000000000D+00 0.891757230292D-05 0.000000000000D+00  6 -1 2 25 24 2 -2 4 0.76807869D-01 0.36095603D-01 0.64123709D+05 0.64123709D+05 0.64123709D+05 0.11817270D+01  1  2 12  7  6  5       21 0.912035135138D-02 0.100000000000D+01
0.136617173854D-03 0.000000000000D+00 0.000000000000D+00 0.891757230292D-05 0.000000000000D+00  6 -1 2 25 24 2 -2 4 0.76807869D-01 0.36095603D-01 0.64123709D+05 0.64123709D+05 0.64123709D+05 0.11817270D+01  1  2 12  7  6  5       21 0.775492098989D-02 0.100000000000D+01
-.359351948963D-03 0.000000000000D+00 0.000000000000D+00 0.893051054437D-05 0.000000000000D+00  6 -1 2 25 24 2 -2 4 0.76807869D-01 0.36095603D-01 0.62825340D+05 0.62825340D+05 0.62825340D+05 0.11825840D+01  1  2  5  7  6  5       21 -.204616243934D-01 0.100000000000D+01
0.160671737057D-03 0.000000000000D+00 0.000000000000D+00 0.891757230292D-05 0.000000000000D+00  6 -1 2 25 24 3 -3 4 0.76807869D-01 0.36095603D-01 0.64123709D+05 0.64123709D+05 0.64123709D+05 0.11817270D+01  1  2 12  8  6  5       21 0.912035135138D-02 0.100000000000D+01
0.160671737057D-03 0.000000000000D+00 0.000000000000D+00 0.891757230292D-05 0.000000000000D+00  6 -1 2 25 24 4 -4 4 0.76807869D-01 0.36095603D-01 0.64123709D+05 0.64123709D+05 0.64123709D+05 0.11817270D+01  1  2 12  8  6  5       21 0.912035135138D-02 0.100000000000D+01
0.136617173854D-03 0.000000000000D+00 0.000000000000D+00 0.891757230292D-05 0.000000000000D+00  6 -1 2 25 24 3 -3 4 0.76807869D-01 0.36095603D-01 0.64123709D+05 0.64123709D+05 0.64123709D+05 0.11817270D+01  1  2 12  8  6  5       21 0.775492098989D-02 0.100000000000D+01
0.136617173854D-03 0.000000000000D+00 0.000000000000D+00 0.891757230292D-05 0.000000000000D+00  6 -1 2 25 24 4 -4 4 0.76807869D-01 0.36095603D-01 0.64123709D+05 0.64123709D+05 0.64123709D+05 0.11817270D+01  1  2 12  8  6  5       21 0.775492098989D-02 0.100000000000D+01
-.359351948963D-03 0.000000000000D+00 0.000000000000D+00 0.893051054437D-05 0.000000000000D+00  6 -1 2 25 24 3 -3 4 0.76807869D-01 0.36095603D-01 0.62825340D+05 0.62825340D+05 0.62825340D+05 0.11825840D+01  1  2  5  8  6  5       21 -.204616243934D-01 0.100000000000D+01
-.359351948963D-03 0.000000000000D+00 0.000000000000D+00 0.893051054437D-05 0.000000000000D+00  6 -1 2 25 24 4 -4 4 0.76807869D-01 0.36095603D-01 0.62825340D+05 0.62825340D+05 0.62825340D+05 0.11825840D+01  1  2  5  8  6  5       21 -.204616243934D-01 0.100000000000D+01
  </mgrwgt>
  </event>
  <event>
  5     66 -.43135346E-03 0.24841692E+02 0.75467711E-02 0.11584062E+00
       -1 -1    0    0    0  501 0.00000000E+00 0.00000000E+00 0.10651008E+03 0.10651056E+03 0.32000000E+00 0.0000E+00 0.9000E+01
        2 -1    0    0  502    0 0.00000000E+00 0.00000000E+00 -.29436373E+03 0.29436390E+03 0.32000000E+00 0.0000E+00 0.9000E+01
       25  1    1    2    0    0 -.33366585E+02 0.12228878E+03 -.83544837E+02 0.19665354E+03 0.12500000E+03 0.0000E+00 0.9000E+01
       24  1    1    2    0    0 0.55031751E+02 -.11015029E+03 -.72813093E+02 0.16410528E+03 0.80419002E+02 0.0000E+00 0.9000E+01
       21  1    1    2  502  501 -.21665167E+02 -.12138493E+02 -.31495718E+02 0.40115648E+02 0.75000000E+00 0.0000E+00 0.9000E+01
#aMCatNLO 1  0  0  1  5 0.29092338D+02 0.00000000D+00  -5  6  0 0.00000000D+00 0.00000000D+00 0.00000000D+00 0.00000000D+00 0.00000000D+00
  <mgrwgt>
 -.1051243874D+01    5    4    0
 0.177067321015366D+03 0.000000000000000D+00 0.000000000000000D+00 0.177067321015366D+03
 0.177067321015366D+03 0.000000000000000D+00 0.000000000000000D+00 -.177067321015366D+03
 0.178292324653344D+03 -.333628589852237D+02 0.122290869106970D+03 0.974761528207476D+01
 0.147140035748270D+03 0.550348259988821D+02 -.110148566261477D+03 0.462984270202222D+01
 0.287022816291184D+02 -.216719670136584D+02 -.121423028454926D+02 -.143774579840970D+02
 0.000000000000000D+00 -.000000000000000D+00 0.000000000000000D+00 0.000000000000000D+00
 0.731515007513632D+03 0.000000000000000D+00 0.000000000000000D+00 0.731515007513632D+03
 0.178045839773329D+03 0.000000000000000D+00 0.000000000000000D+00 -.178045839773329D+03
 0.170140052366852D+03 -.227344368875558D+02 0.112742036504196D+03 0.974761528207476D+01
 0.157046311913683D+03 0.643135874244077D+02 -.118484830929857D+03 0.462984270202222D+01
 0.281412434834214D+02 -.199380380843717D+02 -.137001067169157D+02 -.143774579840970D+02
 0.554233239523005D+03 -.216411124524801D+02 0.194429011425775D+02 0.553469167740303D+03
 0.177067321015366D+03 0.000000000000000D+00 0.000000000000000D+00 0.177067321015366D+03
 0.177067321015366D+03 0.000000000000000D+00 0.000000000000000D+00 -.177067321015366D+03
 0.178292324653344D+03 -.333628589852237D+02 0.122290869106970D+03 0.974761528207476D+01
 0.147140035748270D+03 0.550348259988821D+02 -.110148566261477D+03 0.462984270202222D+01
 0.000000000000000D+00 -.000000000000000D+00 0.000000000000000D+00 0.000000000000000D+00
 0.287022816291184D+02 -.216719670136584D+02 -.121423028454926D+02 -.143774579840970D+02
 0.731515007513632D+03 0.000000000000000D+00 0.000000000000000D+00 0.731515007513632D+03
 0.178045839773329D+03 0.000000000000000D+00 0.000000000000000D+00 -.178045839773329D+03
 0.170140052366852D+03 -.227344368875558D+02 0.112742036504196D+03 0.974761528207476D+01
 0.157046311913683D+03 0.643135874244077D+02 -.118484830929857D+03 0.462984270202222D+01
 0.554233239523005D+03 -.216411124524801D+02 0.194429011425775D+02 0.553469167740303D+03
 0.281412434834214D+02 -.199380380843717D+02 -.137001067169157D+02 -.143774579840970D+02
0.594596674859D-04 0.000000000000D+00 0.000000000000D+00 0.298946780724D-04 0.000000000000D+00  6 -1 2 25 24 21 21 2 0.16386217D-01 0.45286778D-01 0.30613544D+05 0.30613544D+05 0.30613544D+05 0.12139767D+01  1  2  2  1  6  1       -1 0.303964051619D-01 0.100000000000D+01
0.143897123508D-04 0.313777285867D-05 -.228340779236D-06 0.298946780724D-04 0.000000000000D+00  6 -1 2 25 24 21 21 4 0.16386217D-01 0.45286778D-01 0.30613544D+05 0.30613544D+05 0.30613544D+05 0.12139767D+01  1  2  3  1  6  1       -1 0.108410801927D-01 0.100000000000D+01
-.135912808171D-05 0.000000000000D+00 0.000000000000D+00 0.298946780724D-04 0.000000000000D+00  6 -1 2 25 24 21 21 4 0.16386217D-01 0.45286778D-01 0.30613544D+05 0.30613544D+05 0.30613544D+05 0.12139767D+01  1  2 15  1  6  1       -1 -.102395490381D-02 0.100000000000D+01
-.655360247020D-02 0.000000000000D+00 -.374916604148D-04 0.298946780724D-04 0.000000000000D+00  6 -1 2 25 24 21 21 4 0.67775993D-01 0.45286778D-01 0.30613544D+05 0.30613544D+05 0.30613544D+05 0.12139767D+01  1  2  5  1  6  1       -1 -.420190972706D+00 0.100000000000D+01
-.111482369530D-02 0.000000000000D+00 -.637895427506D-05 0.298946780724D-04 0.000000000000D+00  6 21 2 25 24 1 21 4 0.67775993D-01 0.45286778D-01 0.30613544D+05 0.30613544D+05 0.30613544D+05 0.12139767D+01  3  4  5  4  5  1       -1 -.671266431969D+00 0.100000000000D+01
  </mgrwgt>
  </event>
  <event>
  5     66 0.43135346E-03 0.21532283E+02 0.75467711E-02 0.11617688E+00
       -1 -1    0    0    0  501 0.00000000E+00 0.00000000E+00 0.12033426E+03 0.12033469E+03 0.32000000E+00 0.0000E+00 0.9000E+01
        2 -1    0    0  502    0 0.00000000E+00 0.00000000E+00 -.29380804E+03 0.29380822E+03 0.32000000E+00 0.0000E+00 0.9000E+01
       25  1    1    2    0    0 -.57514454E+02 0.97743355E+02 -.14082206E+03 0.21981248E+03 0.12500000E+03 0.0000E+00 0.9000E+01
       24  1    1    2    0    0 0.68976853E+02 -.79519521E+02 0.23183556E+02 0.13448366E+03 0.80419002E+02 0.0000E+00 0.9000E+01
       21  1    1    2  502  501 -.11462400E+02 -.18223834E+02 -.55835278E+02 0.59846767E+02 0.75000000E+00 0.0000E+00 0.9000E+01
#aMCatNLO 1  0  0  2  1 0.68240193D+02 0.00000000D+00  -5  6  0 0.00000000D+00 0.00000000D+00 0.00000000D+00 0.00000000D+00 0.00000000D+00
  <mgrwgt>
 0.5204415085D+00    7    4    0
 0.188030047063821D+03 0.000000000000000D+00 0.000000000000000D+00 0.188030047063821D+03
 0.188030047063821D+03 0.000000000000000D+00 0.000000000000000D+00 -.188030047063821D+03
 0.177111917289950D+03 -.575135115118113D+02 0.977448527010456D+02 -.536821293369933D+02
 0.158798008759593D+03 0.689776980083185D+02 -.795181783233197D+02 0.875701326095565D+02
 0.401501680780991D+02 -.114641864965072D+02 -.182266743777258D+02 -.338880032725633D+02
 0.000000000000000D+00 -.000000000000000D+00 0.000000000000000D+00 -.000000000000000D+00
 0.205065593048685D+03 0.000000000000000D+00 0.000000000000000D+00 0.205065593048685D+03
 0.220633094896041D+03 0.000000000000000D+00 0.000000000000000D+00 -.220633094896041D+03
 0.165013918718665D+03 -.489432092375895D+02 0.795448592321466D+02 -.536821293369933D+02
 0.171857243926769D+03 0.772606604911927D+02 -.971079736733482D+02 0.875701326095565D+02
 0.417983391986102D+02 -.941136439316573D+01 -.225860712435754D+02 -.338880032725633D+02
 0.470291861006817D+02 -.189060868604375D+02 0.401491856847770D+02 -.155675018473564D+02
 0.188030047063821D+03 0.000000000000000D+00 0.000000000000000D+00 0.188030047063821D+03
 0.188030047063821D+03 0.000000000000000D+00 0.000000000000000D+00 -.188030047063821D+03
 0.177111917289950D+03 -.575135115118113D+02 0.977448527010456D+02 -.536821293369933D+02
 0.158798008759593D+03 0.689776980083185D+02 -.795181783233197D+02 0.875701326095565D+02
 0.000000000000000D+00 -.000000000000000D+00 0.000000000000000D+00 -.000000000000000D+00
 0.401501680780991D+02 -.114641864965072D+02 -.182266743777258D+02 -.338880032725633D+02
 0.205065593048685D+03 0.000000000000000D+00 0.000000000000000D+00 0.205065593048685D+03
 0.220633094896041D+03 0.000000000000000D+00 0.000000000000000D+00 -.220633094896041D+03
 0.165013918718665D+03 -.489432092375895D+02 0.795448592321466D+02 -.536821293369933D+02
 0.171857243926769D+03 0.772606604911927D+02 -.971079736733482D+02 0.875701326095565D+02
 0.470291861006817D+02 -.189060868604375D+02 0.401491856847770D+02 -.155675018473564D+02
 0.417983391986102D+02 -.941136439316573D+01 -.225860712435754D+02 -.338880032725633D+02
0.555897770928D-03 0.000000000000D+00 0.000000000000D+00 0.335369038719D-04 0.000000000000D+00  6 -1 2 25 24 21 21 2 0.18513010D-01 0.45201284D-01 0.26047170D+05 0.26047170D+05 0.26047170D+05 0.12213917D+01  1  2  2  2  6  2        2 0.236549436223D+00 0.100000000000D+01
0.106504056245D-03 0.293355313201D-04 -.213479381161D-05 0.335369038719D-04 0.000000000000D+00  6 -1 2 25 24 21 21 4 0.18513010D-01 0.45201284D-01 0.26047170D+05 0.26047170D+05 0.26047170D+05 0.12213917D+01  1  2  3  2  6  2        2 0.676087698742D-01 0.100000000000D+01
0.145878013315D-04 0.000000000000D+00 0.000000000000D+00 0.335369038719D-04 0.000000000000D+00  6 -1 2 25 24 21 21 4 0.18513010D-01 0.45201284D-01 0.26047170D+05 0.26047170D+05 0.26047170D+05 0.12213917D+01  1  2 15  2  6  2        2 0.926033559622D-02 0.100000000000D+01
-.136795856555D-03 0.000000000000D+00 0.000000000000D+00 0.335369038719D-04 0.000000000000D+00  6 -1 2 25 24 21 21 4 0.18513010D-01 0.45201284D-01 0.26047170D+05 0.26047170D+05 0.26047170D+05 0.12213917D+01  1  2  4  2  6  2        2 -.868380032800D-01 0.100000000000D+01
-.216088628397D-02 0.000000000000D+00 -.656773308410D-03 0.335369038719D-04 0.000000000000D+00  6 -1 2 25 24 21 21 4 0.18513010D-01 0.57178908D-01 0.26047170D+05 0.26047170D+05 0.26047170D+05 0.12213917D+01  1  2  5  2  6  2        2 -.106735730972D+01 0.100000000000D+01
0.227000147084D-02 0.000000000000D+00 0.639037494831D-03 0.335369038719D-04 0.000000000000D+00  6 -1 2 25 24 21 21 4 0.18513010D-01 0.45201284D-01 0.26047170D+05 0.26047170D+05 0.26047170D+05 0.12213917D+01  1  2  6  2  6  2        2 0.144099682648D+01 0.100000000000D+01
-.599239331971D-04 0.000000000000D+00 -.212348427268D-04 0.335369038719D-04 0.000000000000D+00  6 -1 21 25 24 -2 21 4 0.18513010D-01 0.57178908D-01 0.26047170D+05 0.26047170D+05 0.26047170D+05 0.12213917D+01  3  4  5  5  5  2        2 -.797785467092D-01 0.100000000000D+01
  </mgrwgt>
  </event>
  <event>
  5     66 -.43135346E-03 0.33541464E+02 0.75467711E-02 0.12175196E+00
       -1 -1    0    0    0  501 0.00000000E+00 0.00000000E+00 0.16243384E+04 0.16243384E+04 0.32000000E+00 0.0000E+00 0.9000E+01
        2 -1    0    0  502    0 0.00000000E+00 0.00000000E+00 -.22540223E+02 0.22542495E+02 0.32000000E+00 0.0000E+00 0.9000E+01
       25  1    1    2    0    0 -.16284624E+02 -.15174171E+02 0.10069058E+04 0.10148792E+04 0.12500000E+03 0.0000E+00 0.9000E+01
       24  1    1    2    0    0 0.31764598E+02 0.44929397E+02 0.59012452E+03 0.59811521E+03 0.80419002E+02 0.0000E+00 0.9000E+01
       21  1    1    2  502  501 -.15479974E+02 -.29755225E+02 0.47678605E+01 0.33886546E+02 0.75000000E+00 0.0000E+00 0.9000E+01
#aMCatNLO 1  0  0  2  5 0.13042680D+02 0.00000000D+00  -5  6  0 0.00000000D+00 0.00000000D+00 0.00000000D+00 0.00000000D+00 0.00000000D+00
  <mgrwgt>
 -.3675267857D+00    7    4    0
 0.191350061327840D+03 0.000000000000000D+00 0.000000000000000D+00 0.191350061327840D+03
 0.191350061327840D+03 0.000000000000000D+00 0.000000000000000D+00 -.191350061327840D+03
 0.152927693112962D+03 -.162845146387873D+02 -.151739603049422D+02 0.852434445133194D+02
 0.103904492821385D+03 0.317646729445119D+02 0.449295402648578D+02 0.360731151748133D+02
 0.125867936721333D+03 -.154801583057246D+02 -.297555799599155D+02 -.121316559688133D+03
 0.000000000000000D+00 0.000000000000000D+00 0.000000000000000D+00 -.000000000000000D+00
 0.192290030210017D+03 0.000000000000000D+00 0.000000000000000D+00 0.192290030210017D+03
 0.242769084163724D+03 0.000000000000000D+00 0.000000000000000D+00 -.242769084163724D+03
 0.153746218774533D+03 -.209340866916353D+02 -.175561661349590D+02 0.852434445133194D+02
 0.102303133948337D+03 0.286382993556677D+02 0.433277443779453D+02 0.360731151748133D+02
 0.126872957124485D+03 -.193120362421447D+02 -.317188406334352D+02 -.121316559688133D+03
 0.521368045263870D+02 0.116078235781122D+02 0.594726239044885D+01 -.504790539537070D+02
 0.191350061327840D+03 0.000000000000000D+00 0.000000000000000D+00 0.191350061327840D+03
 0.191350061327840D+03 0.000000000000000D+00 0.000000000000000D+00 -.191350061327840D+03
 0.152927693112962D+03 -.162845146387873D+02 -.151739603049422D+02 0.852434445133194D+02
 0.103904492821385D+03 0.317646729445119D+02 0.449295402648578D+02 0.360731151748133D+02
 0.000000000000000D+00 0.000000000000000D+00 0.000000000000000D+00 -.000000000000000D+00
 0.125867936721333D+03 -.154801583057246D+02 -.297555799599155D+02 -.121316559688133D+03
 0.192290030210017D+03 0.000000000000000D+00 0.000000000000000D+00 0.192290030210017D+03
 0.242769084163724D+03 0.000000000000000D+00 0.000000000000000D+00 -.242769084163724D+03
 0.153746218774533D+03 -.209340866916353D+02 -.175561661349590D+02 0.852434445133194D+02
 0.102303133948337D+03 0.286382993556677D+02 0.433277443779453D+02 0.360731151748133D+02
 0.521368045263870D+02 0.116078235781122D+02 0.594726239044885D+01 -.504790539537070D+02
 0.126872957124485D+03 -.193120362421447D+02 -.317188406334352D+02 -.121316559688133D+03
0.478729521454D-03 0.000000000000D+00 0.000000000000D+00 0.346240652901D-04 0.000000000000D+00  6 -1 2 25 24 21 21 2 0.24989839D+00 0.34679038D-02 0.16634471D+05 0.16634471D+05 0.16634471D+05 0.12427342D+01  1  2  2  2  6  2        2 0.173560226332D-01 0.100000000000D+01
0.435294925258D-04 0.252632509158D-04 -.183844741476D-05 0.346240652901D-04 0.000000000000D+00  6 -1 2 25 24 21 21 4 0.24989839D+00 0.34679038D-02 0.16634471D+05 0.16634471D+05 0.16634471D+05 0.12427342D+01  1  2  3  2  6  2        2 0.243724994918D-02 0.100000000000D+01
0.231891873629D-04 0.000000000000D+00 0.000000000000D+00 0.346240652901D-04 0.000000000000D+00  6 -1 2 25 24 21 21 4 0.24989839D+00 0.34679038D-02 0.16634471D+05 0.16634471D+05 0.16634471D+05 0.12427342D+01  1  2 15  2  6  2        2 0.129838053334D-02 0.100000000000D+01
-.542155304499D-02 0.000000000000D+00 0.000000000000D+00 0.346240652901D-04 0.000000000000D+00  6 -1 2 25 24 21 21 4 0.24989839D+00 0.34679038D-02 0.16634471D+05 0.16634471D+05 0.16634471D+05 0.12427342D+01  1  2  4  2  6  2        2 -.303556947638D+00 0.100000000000D+01
-.151579738596D-01 0.000000000000D+00 -.575602755365D-03 0.346240652901D-04 0.000000000000D+00  6 -1 2 25 24 21 21 4 0.24989839D+00 0.44188354D-02 0.16634471D+05 0.16634471D+05 0.16634471D+05 0.12427342D+01  1  2  5  2  6  2        2 -.615805104011D+00 0.100000000000D+01
0.148750667348D-01 0.000000000000D+00 0.559106393495D-03 0.346240652901D-04 0.000000000000D+00  6 -1 2 25 24 21 21 4 0.24989839D+00 0.34679038D-02 0.16634471D+05 0.16634471D+05 0.16634471D+05 0.12427342D+01  1  2  6  2  6  2        2 0.832866489815D+00 0.100000000000D+01
-.492138709750D-03 0.000000000000D+00 -.190362734103D-04 0.346240652901D-04 0.000000000000D+00  6 -1 21 25 24 -2 21 4 0.24989839D+00 0.44188354D-02 0.16634471D+05 0.16634471D+05 0.16634471D+05 0.12427342D+01  3  4  5  5  5  2        2 -.302122876939D+00 0.100000000000D+01
  </mgrwgt>
  </event>
  <event>
  5     66 0.43135346E-03 0.21853786E+02 0.75467711E-02 0.10676997E+00
       -1 -1    0    0    0  501 0.00000000E+00 0.00000000E+00 0.64813010E+02 0.64813800E+02 0.32000000E+00 0.0000E+00 0.9000E+01
        2 -1    0    0  502    0 0.00000000E+00 0.00000000E+00 -.29216314E+03 0.29216332E+03 0.32000000E+00 0.0000E+00 0.9000E+01
       25  1    1    2    0    0 -.40099667E+02 -.20602020E+02 -.20732566E+03 0.24625465E+03 0.12500000E+03 0.0000E+00 0.9000E+01
       24  1    1    2    0    0 0.29748118E+02 0.13619312E+01 -.22671667E+02 0.88701893E+02 0.80419002E+02 0.0000E+00 0.9000E+01
       21  1    1    2  502  501 0.10351548E+02 0.19240089E+02 0.26471875E+01 0.22020574E+02 0.75000000E+00 0.0000E+00 0.9000E+01
#aMCatNLO 1  0  0  1  5 0.38649981D+02 0.00000000D+00  -5  6  0 0.00000000D+00 0.00000000D+00 0.00000000D+00 0.00000000D+00 0.00000000D+00
  <mgrwgt>
 0.1383764278D+00    3    2    0
 0.137608666034743D+03 0.000000000000000D+00 0.000000000000000D+00 0.137608666034743D+03
 0.137608666034743D+03 0.000000000000000D+00 0.000000000000000D+00 -.137608666034743D+03
 0.148146279211578D+03 -.401013248191329D+02 -.206051019607279D+02 -.654952942215952D+02
 0.963229961648718D+02 0.297470402347588D+02 0.135992719016523D+01 0.438653374672583D+02
 0.307480566930366D+02 0.103542845843741D+02 0.192451747705627D+02 0.216299567543369D+02
 0.000000000000000D+00 0.000000000000000D+00 -.000000000000000D+00 -.000000000000000D+00
 0.320397470786585D+03 0.000000000000000D+00 0.000000000000000D+00 0.320397470786585D+03
 0.385589805799654D+03 0.000000000000000D+00 0.000000000000000D+00 -.385589805799654D+03
 0.242802945243161D+03 -.185942991487394D+03 0.668119792424925D+02 -.654952942215952D+02
 0.114643772031833D+03 -.489530649472790D+02 0.485325469398365D+02 0.438653374672583D+02
 0.461813599790490D+02 -.183438522617138D+02 0.364467565706530D+02 0.216299567543369D+02
 0.302359199332195D+03 0.253239908696387D+03 -.151791282752982D+03 -.651923350130691D+02
0.935116761347D-04 0.000000000000D+00 0.000000000000D+00 0.411738245379D-04 0.000000000000D+00  6 -1 2 25 24 21 21 2 0.99713065D-02 0.44948250D-01 0.14459004D+05 0.14459004D+05 0.14459004D+05 0.12496453D+01  1  2  2  1  6  1       -1 0.108199998890D+00 0.100000000000D+01
0.125862561213D-04 0.493474672414D-05 -.359109458547D-06 0.411738245379D-04 0.000000000000D+00  6 -1 2 25 24 21 21 4 0.99713065D-02 0.44948250D-01 0.14459004D+05 0.14459004D+05 0.14459004D+05 0.12496453D+01  1  2  3  1  6  1       -1 0.227421485591D-01 0.100000000000D+01
0.411437628651D-05 0.000000000000D+00 0.000000000000D+00 0.411738245379D-04 0.000000000000D+00  6 -1 2 25 24 21 21 4 0.99713065D-02 0.44948250D-01 0.14459004D+05 0.14459004D+05 0.14459004D+05 0.12496453D+01  1  2 15  1  6  1       -1 0.743428036371D-02 0.100000000000D+01
  </mgrwgt>
  </event>
  <event>
  5     66 0.43135346E-03 0.24106669E+02 0.75467711E-02 0.12365013E+00
       -1 -1    0    0    0  501 0.00000000E+00 0.00000000E+00 0.14493757E+02 0.14497289E+02 0.32000000E+00 0.0000E+00 0.9000E+01
        2 -1    0    0  502    0 -.00000000E+00 -.00000000E+00 -.11921446E+04 0.11921446E+04 0.32000000E+00 0.0000E+00 0.9000E+01
       25  1    1    2    0    0 -.11015469E+02 0.30372058E+02 -.41682097E+03 0.43635826E+03 0.12500000E+03 0.0000E+00 0.9000E+01
       24  1    1    2    0    0 0.34117194E+02 -.37234624E+02 -.55756774E+03 0.56559650E+03 0.80419002E+02 0.0000E+00 0.9000E+01
       21  1    1    2  502  501 -.23101724E+02 0.68625663E+01 -.20326213E+03 0.20468717E+03 0.75000000E+00 0.0000E+00 0.9000E+01
#aMCatNLO 1  0  0  5  1 0.69905088D+01 0.00000000D+00  -5  6  0 0.00000000D+00 0.00000000D+00 0.00000000D+00 0.00000000D+00 0.00000000D+00
  <mgrwgt>
 0.9840539108D+00   14    2    0
 0.131456496652406D+03 0.000000000000000D+00 0.000000000000000D+00 0.131456496652406D+03
 0.131456496652406D+03 -.000000000000000D+00 -.000000000000000D+00 -.131456496652406D+03
 0.135629144815851D+03 -.110114689843442D+02 0.303708695845217D+02 0.415526503964052D+02
 0.983311880607108D+02 0.341200937688607D+02 -.372354857559236D+02 -.255175310871741D+02
 0.289526604282494D+02 -.231086247845165D+02 0.686461617140186D+01 -.160351193092311D+02
 0.000000000000000D+00 0.000000000000000D+00 0.000000000000000D+00 0.000000000000000D+00
 0.131456496652406D+03 0.000000000000000D+00 0.000000000000000D+00 0.131456496652406D+03
 0.131456496652406D+03 -.000000000000000D+00 -.000000000000000D+00 -.131456496652406D+03
 0.135492027308954D+03 -.138344789124653D+02 0.312094690159164D+02 0.395937583623411D+02
 0.977924161934514D+02 0.320779851514875D+02 -.366288597896751D+02 -.269345541955301D+02
 0.224808368930592D+02 -.148939739770395D+02 0.117090514613824D+02 -.121018874750305D+02
 0.714771290934646D+01 -.334953226198268D+01 -.628966068762363D+01 -.557316691780529D+00
0.303387290589D-03 0.000000000000D+00 0.000000000000D+00 0.389714312981D-04 0.000000000000D+00  6 -1 2 25 24 21 21 2 0.22300837D-02 0.18340714D+00 0.15397866D+05 0.15397866D+05 0.15397866D+05 0.12465285D+01  1  2  2  3  6  5       21 0.607591473398D+00 0.100000000000D+01
0.421827493212D-04 0.160101871794D-04 -.116508707957D-05 0.389714312981D-04 0.000000000000D+00  6 -1 2 25 24 21 21 4 0.22300837D-02 0.18340714D+00 0.15397866D+05 0.15397866D+05 0.15397866D+05 0.12465285D+01  1  2  3  3  6  5       21 0.131266406902D+00 0.100000000000D+01
0.671554863314D-05 0.000000000000D+00 0.000000000000D+00 0.389714312981D-04 0.000000000000D+00  6 -1 2 25 24 21 21 4 0.22300837D-02 0.18340714D+00 0.15397866D+05 0.15397866D+05 0.15397866D+05 0.12465285D+01  1  2 15  3  6  5       21 0.208977829477D-01 0.100000000000D+01
0.160301987290D-03 0.000000000000D+00 0.000000000000D+00 0.389346949537D-04 0.000000000000D+00  6 -1 2 25 24 21 21 4 0.22300837D-02 0.18340714D+00 0.15582449D+05 0.15582449D+05 0.15582449D+05 0.12459408D+01  1  2 12  3  6  5       21 0.498068457006D+00 0.100000000000D+01
0.126589381437D-03 0.000000000000D+00 0.000000000000D+00 0.389346949537D-04 0.000000000000D+00  6 -1 2 25 24 21 21 4 0.22300837D-02 0.18340714D+00 0.15582449D+05 0.15582449D+05 0.15582449D+05 0.12459408D+01  1  2 12  3  6  5       21 0.393321249172D+00 0.100000000000D+01
-.240529109044D-03 0.000000000000D+00 0.000000000000D+00 0.389714312981D-04 0.000000000000D+00  6 -1 2 25 24 21 21 4 0.22300837D-02 0.18340714D+00 0.15397866D+05 0.15397866D+05 0.15397866D+05 0.12465285D+01  1  2  4  3  6  5       21 -.748490613053D+00 0.100000000000D+01
0.349507964857D-05 0.000000000000D+00 0.000000000000D+00 0.389346949537D-04 0.000000000000D+00  6 -1 2 25 24 1 -1 4 0.22300837D-02 0.18340714D+00 0.15582449D+05 0.15582449D+05 0.15582449D+05 0.12459408D+01  1  2 12  6  6  5       21 0.108594344780D-01 0.100000000000D+01
0.305444483843D-05 0.000000000000D+00 0.000000000000D+00 0.389346949537D-04 0.000000000000D+00  6 -1 2 25 24 1 -1 4 0.22300837D-02 0.18340714D+00 0.15582449D+05 0.15582449D+05 0.15582449D+05 0.12459408D+01  1  2 12  6  6  5       21 0.949035413349D-02 0.100000000000D+01
0.349507964857D-05 0.000000000000D+00 0.000000000000D+00 0.389346949537D-04 0.000000000000D+00  6 -1 2 25 24 2 -2 4 0.22300837D-02 0.18340714D+00 0.15582449D+05 0.15582449D+05 0.15582449D+05 0.12459408D+01  1  2 12  7  6  5       21 0.108594344780D-01 0.100000000000D+01
0.305444483843D-05 0.000000000000D+00 0.000000000000D+00 0.389346949537D-04 0.000000000000D+00  6 -1 2 25 24 2 -2 4 0.22300837D-02 0.18340714D+00 0.15582449D+05 0.15582449D+05 0.15582449D+05 0.12459408D+01  1  2 12  7  6  5       21 0.949035413349D-02 0.100000000000D+01
0.349507964857D-05 0.000000000000D+00 0.000000000000D+00 0.389346949537D-04 0.000000000000D+00  6 -1 2 25 24 3 -3 4 0.22300837D-02 0.18340714D+00 0.15582449D+05 0.15582449D+05 0.15582449D+05 0.12459408D+01  1  2 12  8  6  5       21 0.108594344780D-01 0.100000000000D+01
0.349507964857D-05 0.000000000000D+00 0.000000000000D+00 0.389346949537D-04 0.000000000000D+00  6 -1 2 25 24 4 -4 4 0.22300837D-02 0.18340714D+00 0.15582449D+05 0.15582449D+05 0.15582449D+05 0.12459408D+01  1  2 12  8  6  5       21 0.108594344780D-01 0.100000000000D+01
0.305444483843D-05 0.000000000000D+00 0.000000000000D+00 0.389346949537D-04 0.000000000000D+00  6 -1 2 25 24 3 -3 4 0.22300837D-02 0.18340714D+00 0.15582449D+05 0.15582449D+05 0.15582449D+05 0.12459408D+01  1  2 12  8  6  5       21 0.949035413349D-02 0.100000000000D+01
0.305444483843D-05 0.000000000000D+00 0.000000000000D+00 0.389346949537D-04 0.000000000000D+00  6 -1 2 25 24 4 -4 4 0.22300837D-02 0.18340714D+00 0.15582449D+05 0.15582449D+05 0.15582449D+05 0.12459408D+01  1  2 12  8  6  5       21 0.949035413349D-02 0.100000000000D+01
  </mgrwgt>
  </event>
  <event>
  6     66 -.43135346E-03 0.33413274E+02 0.75467711E-02 0.11835858E+00
       -1 -1    0    0    0  501 0.00000000E+00 0.00000000E+00 0.88648158E+02 0.88648736E+02 0.32000000E+00 0.0000E+00 0.9000E+01
        2 -1    0    0  503    0 0.00000000E+00 0.00000000E+00 -.14012754E+04 0.14012754E+04 0.32000000E+00 0.0000E+00 0.9000E+01
       25  1    1    2    0    0 -.65127260E+02 -.40691489E+02 -.10761155E+04 0.10860694E+04 0.12500000E+03 0.0000E+00 0.9000E+01
       24  1    1    2    0    0 0.86101111E+01 0.26661953E+02 -.22128067E+03 0.23710197E+03 0.80419002E+02 0.0000E+00 0.9000E+01
       21  1    1    2  502  501 0.47267776E+02 -.27585853E+02 0.59417781E+02 0.80785253E+02 0.75000000E+00 0.0000E+00 0.9000E+01
       21  1    1    2  503  502 0.92493734E+01 0.41615389E+02 -.74648878E+02 0.85967488E+02 0.75000000E+00 0.0000E+00 0.9000E+01
#aMCatNLO 2  0  0  2  5 0.42630875D+02 0.00000000D+00  -5  6  0 0.00000000D+00 0.00000000D+00 0.00000000D+00 0.00000000D+00 0.00000000D+00
  <mgrwgt>
 -.5050315082D+00    2    2    0
 0.330411313599015D+03 0.000000000000000D+00 0.000000000000000D+00 0.330411313599015D+03
 0.330411313599015D+03 0.000000000000000D+00 0.000000000000000D+00 -.330411313599015D+03
 0.287961202841091D+03 -.610809451862968D+02 -.224856714995893D+02 -.251117834997933D+03
 0.909917771608327D+02 0.986847865176172D+01 0.323237997979399D+02 -.258857615734699D+02
 0.281869647196107D+03 0.512124665345350D+02 -.983812829835055D+01 0.277003596571403D+03
 0.000000000000000D+00 0.000000000000000D+00 0.000000000000000D+00 0.000000000000000D+00
 0.353673520278231D+03 0.000000000000000D+00 0.000000000000000D+00 0.353673520278231D+03
 0.351223969316272D+03 0.000000000000000D+00 0.000000000000000D+00 -.351223969316272D+03
 0.290830768827249D+03 -.651273446706418D+02 -.406914981138751D+02 -.251117834997933D+03
 0.890072021544320D+02 0.861008563192681D+01 0.266619551826522D+02 -.258857615734699D+02
 0.282358326305930D+03 0.472678855921789D+02 -.275858462338614D+02 0.277003596571403D+03
 0.427011923068915D+02 0.924937344653610D+01 0.416153891650843D+02 0.244955096195843D+01
-.345706495094D-02 0.000000000000D+00 0.000000000000D+00 0.208907268444D-04 0.000000000000D+00  6 -1 2 25 24 21 21 4 0.12741078D-01 0.22351329D+00 0.27097198D+05 0.27097198D+05 0.27097198D+05 0.12195646D+01  1  2 13  2  6  2        2 -.534279090792D+00 0.100000000000D+01
0.197586284659D-03 0.000000000000D+00 0.000000000000D+00 0.214120062111D-04 0.386309165386D-07  6 -1 2 25 24 21 21 4 0.13638098D-01 0.21557886D+00 0.27097198D+05 0.27097198D+05 0.27097198D+05 0.12195646D+01  1  2  1  2  6  2        2 0.292475825806D-01 0.100000000000D+01
  </mgrwgt>
  </event>
  <event>
  5     66 -.43135346E-03 0.41782287E+02 0.75467711E-02 0.11769925E+00
       -1 -1    0    0    0  501 0.00000000E+00 0.00000000E+00 0.22697691E+02 0.22699947E+02 0.32000000E+00 0.0000E+00 0.9000E+01
        2 -1    0    0  502    0 0.00000000E+00 0.00000000E+00 -.16162738E+04 0.16162738E+04 0.32000000E+00 0.0000E+00 0.9000E+01
       25  1    1    2    0    0 -.83110585E+02 0.66609088E+02 -.82611538E+03 0.84228009E+03 0.12500000E+03 0.0000E+00 0.9000E+01
       24  1    1    2    0    0 0.48680016E+02 -.90275390E+02 -.29647677E+03 0.32385966E+03 0.80419002E+02 0.0000E+00 0.9000E+01
       21  1    1    2  502  501 0.34430569E+02 0.23666302E+02 -.47098392E+03 0.47283398E+03 0.75000000E+00 0.0000E+00 0.9000E+01
#aMCatNLO 1  0  0  2  5 0.53213465D+01 0.00000000D+00  -5  6  0 0.00000000D+00 0.00000000D+00 0.00000000D+00 0.00000000D+00 0.00000000D+00
  <mgrwgt>
 -.3683019427D+00   11    4    0
 0.191539963027962D+03 0.000000000000000D+00 0.000000000000000D+00 0.191539963027962D+03
 0.191539963027962D+03 0.000000000000000D+00 0.000000000000000D+00 -.191539963027962D+03
 0.167059774706604D+03 -.831116247003170D+02 0.666083731930500D+02 -.306553549199864D+02
 0.152290650652301D+03 0.486790682674465D+02 -.902760418468909D+02 0.787769693679708D+02
 0.637295006970185D+02 0.344325564328705D+02 0.236676686538410D+02 -.481216144479844D+02
 0.000000000000000D+00 0.000000000000000D+00 0.000000000000000D+00 -.000000000000000D+00
 0.191755991777468D+03 0.000000000000000D+00 0.000000000000000D+00 0.191755991777468D+03
 0.227393330943008D+03 0.000000000000000D+00 0.000000000000000D+00 -.227393330943008D+03
 0.166421125666221D+03 -.836106586731387D+02 0.643467018501000D+02 -.306553549199864D+02
 0.153384210657979D+03 0.482216443482330D+02 -.923491323096813D+02 0.787769693679708D+02
 0.633115472445544D+02 0.342424471978444D+02 0.228060747898849D+02 -.481216144479844D+02
 0.360324391517219D+02 0.114656712706135D+01 0.519635566969644D+01 -.356373391655395D+02
 0.191539963027962D+03 0.000000000000000D+00 0.000000000000000D+00 0.191539963027962D+03
 0.191539963027962D+03 0.000000000000000D+00 0.000000000000000D+00 -.191539963027962D+03
 0.167059774706604D+03 -.831116247003170D+02 0.666083731930500D+02 -.306553549199864D+02
 0.152290650652301D+03 0.486790682674465D+02 -.902760418468909D+02 0.787769693679708D+02
 0.000000000000000D+00 0.000000000000000D+00 0.000000000000000D+00 -.000000000000000D+00
 0.637295006970185D+02 0.344325564328705D+02 0.236676686538410D+02 -.481216144479844D+02
 0.191755991777468D+03 0.000000000000000D+00 0.000000000000000D+00 0.191755991777468D+03
 0.227393330943008D+03 0.000000000000000D+00 0.000000000000000D+00 -.227393330943008D+03
 0.166421125666221D+03 -.836106586731387D+02 0.643467018501000D+02 -.306553549199864D+02
 0.153384210657979D+03 0.482216443482330D+02 -.923491323096813D+02 0.787769693679708D+02
 0.360324391517219D+02 0.114656712706135D+01 0.519635566969644D+01 -.356373391655395D+02
 0.633115472445544D+02 0.342424471978444D+02 0.228060747898849D+02 -.481216144479844D+02
0.147523354845D-04 0.000000000000D+00 0.000000000000D+00 0.100622784678D-04 0.000000000000D+00  6 -1 2 25 24 21 21 2 0.34921285D-02 0.24865768D+00 0.28280835D+05 0.28280835D+05 0.28280835D+05 0.12175975D+01  1  2  2  2  6  2        2 0.882142052544D-02 0.100000000000D+01
0.862413717148D-06 0.778502131653D-06 -.566528526395D-07 0.100622784678D-04 0.000000000000D+00  6 -1 2 25 24 21 21 4 0.34921285D-02 0.24865768D+00 0.28280835D+05 0.28280835D+05 0.28280835D+05 0.12175975D+01  1  2  3  2  6  2        2 0.764541197700D-03 0.100000000000D+01
0.236161007517D-06 0.000000000000D+00 0.000000000000D+00 0.100622784678D-04 0.000000000000D+00  6 -1 2 25 24 21 21 4 0.34921285D-02 0.24865768D+00 0.28280835D+05 0.28280835D+05 0.28280835D+05 0.12175975D+01  1  2 15  2  6  2        2 0.209359865163D-03 0.100000000000D+01
0.676368232553D-03 0.000000000000D+00 0.000000000000D+00 0.100385826934D-04 0.000000000000D+00  6 -1 2 25 24 21 21 4 0.34921285D-02 0.29886440D+00 0.29180426D+05 0.29180426D+05 0.29180426D+05 0.12161630D+01  1  2 12  2  6  2        2 0.404826777415D+00 0.100000000000D+01
-.184787169807D-02 0.000000000000D+00 0.000000000000D+00 0.100622784678D-04 0.000000000000D+00  6 -1 2 25 24 21 21 4 0.34921285D-02 0.24865768D+00 0.28280835D+05 0.28280835D+05 0.28280835D+05 0.12175975D+01  1  2  4  2  6  2        2 -.163816276706D+01 0.100000000000D+01
-.142822896103D-02 0.000000000000D+00 -.179573352850D-04 0.100622784678D-04 0.000000000000D+00  6 -1 2 25 24 21 21 4 0.34921285D-02 0.29531065D+00 0.28280835D+05 0.28280835D+05 0.28280835D+05 0.12175975D+01  1  2  5  2  6  2        2 -.882818925263D+00 0.100000000000D+01
0.141067283666D-02 0.000000000000D+00 0.176950943657D-04 0.100622784678D-04 0.000000000000D+00  6 -1 2 25 24 21 21 4 0.34921285D-02 0.24865768D+00 0.28280835D+05 0.28280835D+05 0.28280835D+05 0.12175975D+01  1  2  6  2  6  2        2 0.125058017824D+01 0.100000000000D+01
0.794443133073D-03 0.000000000000D+00 0.000000000000D+00 0.100622784678D-04 0.191008747303D-05  6 -1 2 25 24 21 21 4 0.34960671D-02 0.29520261D+00 0.29180426D+05 0.29180426D+05 0.29180426D+05 0.12161630D+01  1  2 11  2  6  2        2 0.488325974949D+00 0.100000000000D+01
0.181405334824D-04 0.000000000000D+00 0.000000000000D+00 0.100385826934D-04 0.000000000000D+00  6 -1 21 25 24 -2 21 4 0.34921285D-02 0.29886440D+00 0.29180426D+05 0.29180426D+05 0.29180426D+05 0.12161630D+01  3  4 12  5  5  2        2 0.371297776178D-02 0.100000000000D+01
-.361787864202D-04 0.000000000000D+00 -.456879606413D-06 0.100622784678D-04 0.000000000000D+00  6 -1 21 25 24 -2 21 4 0.34921285D-02 0.29531065D+00 0.28280835D+05 0.28280835D+05 0.28280835D+05 0.12175975D+01  3  4  5  5  5  2        2 -.781440055001D-02 0.100000000000D+01
0.151705589660D-04 0.000000000000D+00 0.000000000000D+00 0.100622784678D-04 0.729146528606D-07  6 -1 21 25 24 -2 21 4 0.34960671D-02 0.29520261D+00 0.29180426D+05 0.29180426D+05 0.29180426D+05 0.12161630D+01  3  4 11  5  5  2        2 0.325292018017D-02 0.100000000000D+01
  </mgrwgt>
  </event>
  <event>
  6     66 -.43135346E-03 0.44887126E+02 0.75467711E-02 0.11417947E+00
       -1 -1    0    0    0  501 0.00000000E+00 0.00000000E+00 0.13311032E+03 0.13311070E+03 0.32000000E+00 0.0000E+00 0.9000E+01
        2 -1    0    0  502    0 -.00000000E+00 -.00000000E+00 -.94871675E+03 0.94871680E+03 0.32000000E+00 0.0000E+00 0.9000E+01
       25  1    1    2    0    0 0.15501793E+03 -.44634041E+02 -.10114895E+03 0.22776933E+03 0.12500000E+03 0.0000E+00 0.9000E+01
       24  1    1    2    0    0 -.11423926E+03 0.28878819E+02 -.75498367E+03 0.76834378E+03 0.80419002E+02 0.0000E+00 0.9000E+01
       21  1    1    2  502  503 -.54018503E+02 0.29359247E+01 0.39961623E+02 0.67261520E+02 0.75000000E+00 0.0000E+00 0.9000E+01
       21  1    1    2  503  501 0.13239832E+02 0.12819298E+02 0.56456683E+00 0.18452880E+02 0.75000000E+00 0.0000E+00 0.9000E+01
#aMCatNLO 2  0  0  5  2 0.21470911D+02 0.00000000D+00  -5  6  0 0.00000000D+00 0.00000000D+00 0.00000000D+00 0.00000000D+00 0.00000000D+00
  <mgrwgt>
 -.2380167971D+00    3    2    0
 0.355364916742587D+03 0.000000000000000D+00 0.000000000000000D+00 0.355364916742587D+03
 0.355364916742587D+03 -.000000000000000D+00 -.000000000000000D+00 -.355364916742587D+03
 0.229688160612106D+03 0.155905389391549D+03 -.449769191549357D+02 0.103933812724120D+03
 0.306735091880237D+03 -.113063457853527D+03 0.284245365669617D+02 -.272080688134171D+03
 0.174306580992832D+03 -.428419315380220D+02 0.165523825879739D+02 0.168146875410052D+03
 0.000000000000000D+00 0.000000000000000D+00 0.000000000000000D+00 0.000000000000000D+00
 0.355364916742587D+03 0.000000000000000D+00 0.000000000000000D+00 0.355364916742587D+03
 0.355364916742587D+03 -.000000000000000D+00 -.000000000000000D+00 -.355364916742587D+03
 0.230625857602359D+03 0.155013653420575D+03 -.446323885880559D+02 0.107433716015756D+03
 0.303116168779293D+03 -.114244882456200D+03 0.288809910572298D+02 -.267443809068723D+03
 0.148079140558885D+03 -.540773024599989D+02 0.285624342334184D+01 0.137822055930153D+03
 0.289086665446383D+02 0.133085314956238D+02 0.128951541074842D+02 0.221880371228127D+02
-.259929902313D-02 0.000000000000D+00 0.000000000000D+00 0.479732933525D-05 0.000000000000D+00  6 -1 2 25 24 21 21 4 0.20478544D-01 0.14595646D+00 0.43978853D+05 0.43978853D+05 0.43978853D+05 0.11978404D+01  1  2 13  3  6  5       21 -.337315416409D+00 0.100000000000D+01
-.916869951889D-04 0.000000000000D+00 0.000000000000D+00 0.484437565178D-05 0.000000000000D+00  6 -1 2 25 24 21 21 4 0.20478544D-01 0.14595646D+00 0.38491339D+05 0.38491339D+05 0.38491339D+05 0.12036995D+01  1  2  8  3  6  5       21 -.121485512256D-01 0.100000000000D+01
0.858794195103D-03 0.000000000000D+00 0.000000000000D+00 0.484437565178D-05 0.229172522568D-07  6 -1 2 25 24 21 21 4 0.20478544D-01 0.14595646D+00 0.43978853D+05 0.43978853D+05 0.43978853D+05 0.11978404D+01  1  2  1  3  6  5       21 0.111447170546D+00 0.100000000000D+01
  </mgrwgt>
  </event>
  <event>
  5     66 0.43135346E-03 0.40237866E+02 0.75467711E-02 0.10511351E+00
       -1 -1    0    0    0  501 0.00000000E+00 0.00000000E+00 0.28351637E+02 0.28353443E+02 0.32000000E+00 0.0000E+00 0.9000E+01
        2 -1    0    0  502    0 0.00000000E+00 0.00000000E+00 -.78267987E+03 0.78267994E+03 0.32000000E+00 0.0000E+00 0.9000E+01
       25  1    1    2    0    0 -.73933843E+02 -.33684423E+02 -.43714187E+03 0.46186456E+03 0.12500000E+03 0.0000E+00 0.9000E+01
       24  1    1    2    0    0 0.61787803E+02 -.46705357E+01 -.18540211E+03 0.21137810E+03 0.80419002E+02 0.0000E+00 0.9000E+01
       21  1    1    2  502  501 0.12146040E+02 0.38354958E+02 -.13178426E+03 0.13779072E+03 0.75000000E+00 0.0000E+00 0.9000E+01
#aMCatNLO 1  0  0  2  2 0.32413264D+03 0.00000000D+00  -5  6  0 0.00000000D+00 0.00000000D+00 0.00000000D+00 0.00000000D+00 0.00000000D+00
  <mgrwgt>
 0.2386089677D+00    3    2    0
 0.148966489038553D+03 0.000000000000000D+00 0.000000000000000D+00 0.148966489038553D+03
 0.148966489038553D+03 0.000000000000000D+00 0.000000000000000D+00 -.148966489038553D+03
 0.150501777443044D+03 -.739348485223616D+02 -.336875978366646D+02 -.206050707226715D+02
 0.105999046897065D+03 0.617870945770238D+02 -.467277191421942D+01 0.304811767339003D+02
 0.414321537369956D+02 0.121477539453378D+02 0.383603697508840D+02 -.987610601122876D+01
 0.000000000000000D+00 -.000000000000000D+00 0.000000000000000D+00 0.000000000000000D+00
 0.795330751187053D+03 0.000000000000000D+00 0.000000000000000D+00 0.795330751187053D+03
 0.265791430688232D+03 0.000000000000000D+00 0.000000000000000D+00 -.265791430688232D+03
 0.232900176427687D+03 -.228306562693327D+02 -.194091948248435D+03 -.206050707226715D+02
 0.181884620068889D+03 0.100159518386046D+03 -.125115018302462D+03 0.304811767339003D+02
 0.254719752015202D+02 0.210655005381164D+02 0.103696064438554D+02 -.987610601122876D+01
 0.620865410177189D+03 -.983943626548300D+02 0.308837360107042D+03 0.529539320498820D+03
0.156901241963D-03 0.000000000000D+00 0.000000000000D+00 0.131986438883D-04 0.000000000000D+00  6 -1 2 25 24 21 21 2 0.43619343D-02 0.12041243D+00 0.21147610D+05 0.21147610D+05 0.21147610D+05 0.12311673D+01  1  2  2  2  6  2        2 0.206101219519D+00 0.100000000000D+01
0.102491465076D-04 0.827990601597D-05 -.602542082184D-06 0.131986438883D-04 0.000000000000D+00  6 -1 2 25 24 21 21 4 0.43619343D-02 0.12041243D+00 0.21147610D+05 0.21147610D+05 0.21147610D+05 0.12311673D+01  1  2  3  2  6  2        2 0.204068517716D-01 0.100000000000D+01
0.607755973118D-05 0.000000000000D+00 0.000000000000D+00 0.131986438883D-04 0.000000000000D+00  6 -1 2 25 24 21 21 4 0.43619343D-02 0.12041243D+00 0.21147610D+05 0.21147610D+05 0.21147610D+05 0.12311673D+01  1  2 15  2  6  2        2 0.121008964478D-01 0.100000000000D+01
  </mgrwgt>
  </event>
  <event>
  5     66 -.43135346E-03 0.25007498E+02 0.75467711E-02 0.12058910E+00
       -1 -1    0    0    0  501 0.00000000E+00 0.00000000E+00 0.72461595E+02 0.72462302E+02 0.32000000E+00 0.0000E+00 0.9000E+01
        2 -1    0    0  502    0 0.00000000E+00 0.00000000E+00 -.26938026E+03 0.26938045E+03 0.32000000E+00 0.0000E+00 0.9000E+01
       25  1    1    2    0    0 -.71264506E+02 0.12448410E+01 -.79513147E+02 0.16440049E+03 0.12500000E+03 0.0000E+00 0.9000E+01
       24  1    1    2    0    0 0.46607064E+02 0.29026025E+01 -.50083489E+02 0.10562299E+03 0.80419002E+02 0.0000E+00 0.9000E+01
       21  1    1    2  502  501 0.24657442E+02 -.41474435E+01 -.67322032E+02 0.71819282E+02 0.75000000E+00 0.0000E+00 0.9000E+01
#aMCatNLO 1  0  0  1  2 0.65743674D+00 0.00000000D+00  -5  6  0 0.00000000D+00 0.00000000D+00 0.00000000D+00 0.00000000D+00 0.00000000D+00
  <mgrwgt>
 -.5661157067D+00    5    4    0
 0.139713552998649D+03 0.000000000000000D+00 0.000000000000000D+00 0.139713552998649D+03
 0.139713552998649D+03 0.000000000000000D+00 0.000000000000000D+00 -.139713552998649D+03
 0.145089350994416D+03 -.712667109463426D+02 0.124521187223990D+01 0.185856162196640D+02
 0.939205769920280D+02 0.466056367159284D+02 0.290284256035937D+01 0.131661292534141D+02
 0.404171780108526D+02 0.246610742304143D+02 -.414805443259927D+01 -.317517454730781D+02
 0.000000000000000D+00 0.000000000000000D+00 0.000000000000000D+00 0.000000000000000D+00
 0.575558185760998D+03 0.000000000000000D+00 0.000000000000000D+00 0.575558185760998D+03
 0.140847778989879D+03 0.000000000000000D+00 0.000000000000000D+00 -.140847778989879D+03
 0.146196644364609D+03 -.723151439569687D+02 -.131739761533966D+02 0.185856162196640D+02
 0.937600170008431D+02 0.459301132327156D+02 -.638768913928798D+01 0.131661292534141D+02
 0.408505177606024D+02 0.243685653686707D+02 -.817095359153243D+01 -.317517454730781D+02
 0.435598785624822D+03 0.201646535558247D+01 0.277326188842170D+02 0.434710406771120D+03
 0.139713552998649D+03 0.000000000000000D+00 0.000000000000000D+00 0.139713552998649D+03
 0.139713552998649D+03 0.000000000000000D+00 0.000000000000000D+00 -.139713552998649D+03
 0.145089350994416D+03 -.712667109463426D+02 0.124521187223990D+01 0.185856162196640D+02
 0.939205769920280D+02 0.466056367159284D+02 0.290284256035937D+01 0.131661292534141D+02
 0.000000000000000D+00 0.000000000000000D+00 0.000000000000000D+00 0.000000000000000D+00
 0.404171780108526D+02 0.246610742304143D+02 -.414805443259927D+01 -.317517454730781D+02
 0.575558185760998D+03 0.000000000000000D+00 0.000000000000000D+00 0.575558185760998D+03
 0.140847778989879D+03 0.000000000000000D+00 0.000000000000000D+00 -.140847778989879D+03
 0.146196644364609D+03 -.723151439569687D+02 -.131739761533966D+02 0.185856162196640D+02
 0.937600170008431D+02 0.459301132327156D+02 -.638768913928798D+01 0.131661292534141D+02
 0.435598785624822D+03 0.201646535558247D+01 0.277326188842170D+02 0.434710406771120D+03
 0.408505177606024D+02 0.243685653686707D+02 -.817095359153243D+01 -.317517454730781D+02
0.178242999078D-04 0.000000000000D+00 0.000000000000D+00 0.388353742233D-04 0.000000000000D+00  6 -1 2 25 24 21 21 2 0.11148007D-01 0.41443186D-01 0.17147208D+05 0.17147208D+05 0.17147208D+05 0.12412527D+01  1  2  2  1  6  1       -1 0.188051696342D-01 0.100000000000D+01
0.215049276296D-05 0.940614148047D-06 -.684500048917D-07 0.388353742233D-04 0.000000000000D+00  6 -1 2 25 24 21 21 4 0.11148007D-01 0.41443186D-01 0.17147208D+05 0.17147208D+05 0.17147208D+05 0.12412527D+01  1  2  3  1  6  1       -1 0.349561180967D-02 0.100000000000D+01
0.460578449084D-06 0.000000000000D+00 0.000000000000D+00 0.388353742233D-04 0.000000000000D+00  6 -1 2 25 24 21 21 4 0.11148007D-01 0.41443186D-01 0.17147208D+05 0.17147208D+05 0.17147208D+05 0.12412527D+01  1  2 15  1  6  1       -1 0.748667232752D-03 0.100000000000D+01
-.133336952156D-02 0.000000000000D+00 -.112862918496D-04 0.388353742233D-04 0.000000000000D+00  6 -1 2 25 24 21 21 4 0.46020599D-01 0.41443186D-01 0.17147208D+05 0.17147208D+05 0.17147208D+05 0.12412527D+01  1  2  5  1  6  1       -1 -.212728879005D+00 0.100000000000D+01
-.226429218142D-03 0.000000000000D+00 -.191721949162D-05 0.388353742233D-04 0.000000000000D+00  6 21 2 25 24 1 21 4 0.46020599D-01 0.41443186D-01 0.17147208D+05 0.17147208D+05 0.17147208D+05 0.12412527D+01  3  4  5  4  5  1       -1 -.376436276394D+00 0.100000000000D+01
  </mgrwgt>
  </event>
  <event>
  5     66 0.43135346E-03 0.39645936E+02 0.75467711E-02 0.11952380E+00
       -1 -1    0    0    0  501 0.00000000E+00 0.00000000E+00 0.16364970E+03 0.16365001E+03 0.32000000E+00 0.0000E+00 0.9000E+01
        2 -1    0    0  502    0 0.00000000E+00 0.00000000E+00 -.25760874E+03 0.25760894E+03 0.32000000E+00 0.0000E+00 0.9000E+01
       25  1    1    2    0    0 -.47556461E+02 0.25577636E+02 0.10577184E+03 0.17241959E+03 0.12500000E+03 0.0000E+00 0.9000E+01
       24  1    1    2    0    0 0.13236168E+02 -.57313397E+01 -.54302604E+02 0.98102157E+02 0.80419002E+02 0.0000E+00 0.9000E+01
       21  1    1    2  502  501 0.34320293E+02 -.19846296E+02 -.14542827E+03 0.15073720E+03 0.75000000E+00 0.0000E+00 0.9000E+01
#aMCatNLO 1  0  0  2  1 0.51303722D+02 0.00000000D+00  -5  6  0 0.00000000D+00 0.00000000D+00 0.00000000D+00 0.00000000D+00 0.00000000D+00
  <mgrwgt>
 0.1827859395D+00    4    2    0
 0.205323402128321D+03 0.000000000000000D+00 0.000000000000000D+00 0.205323402128321D+03
 0.205323402128321D+03 0.000000000000000D+00 0.000000000000000D+00 -.205323402128321D+03
 0.201077613060229D+03 -.475567817506211D+02 0.255778218045018D+02 0.147957203323326D+03
 0.882123188176048D+02 0.132360271695896D+02 -.573125830751838D+01 -.332589461616963D+02
 0.121356872378809D+03 0.343207545810315D+02 -.198465634969834D+02 -.114698257161630D+03
 0.000000000000000D+00 0.000000000000000D+00 -.000000000000000D+00 0.000000000000000D+00
 0.331978318781336D+03 0.000000000000000D+00 0.000000000000000D+00 0.331978318781336D+03
 0.212181263484756D+03 0.000000000000000D+00 0.000000000000000D+00 -.212181263484756D+03
 0.207223283303066D+03 -.539236069881219D+02 0.501736956684817D+02 0.147957203323326D+03
 0.877905070443007D+02 0.104915334798868D+02 0.487107772250509D+01 -.332589461616963D+02
 0.118825393081944D+03 0.305754811247249D+02 -.537808508252196D+01 -.114698257161630D+03
 0.130320398836781D+03 0.128565923835102D+02 -.496666883084648D+02 0.119797055296579D+03
0.602778194468D-03 0.000000000000D+00 0.000000000000D+00 0.133533673495D-04 0.000000000000D+00  6 -1 2 25 24 21 21 2 0.25176916D-01 0.39632153D-01 0.16578242D+05 0.16578242D+05 0.16578242D+05 0.12428997D+01  1  2  2  2  6  2        2 0.184110992073D+00 0.100000000000D+01
0.193133226083D-04 0.318094792382D-04 -.231482698190D-05 0.133533673495D-04 0.000000000000D+00  6 -1 2 25 24 21 21 4 0.25176916D-01 0.39632153D-01 0.16578242D+05 0.16578242D+05 0.16578242D+05 0.12428997D+01  1  2  3  2  6  2        2 0.911278995852D-02 0.100000000000D+01
0.332546051115D-04 0.000000000000D+00 0.000000000000D+00 0.133533673495D-04 0.000000000000D+00  6 -1 2 25 24 21 21 4 0.25176916D-01 0.39632153D-01 0.16578242D+05 0.16578242D+05 0.16578242D+05 0.12428997D+01  1  2 15  2  6  2        2 0.156908387894D-01 0.100000000000D+01
-.553761969351D-04 0.000000000000D+00 0.000000000000D+00 0.133533673495D-04 0.000000000000D+00  6 -1 2 25 24 21 21 4 0.25176916D-01 0.39632153D-01 0.16578242D+05 0.16578242D+05 0.16578242D+05 0.12428997D+01  1  2  4  2  6  2        2 -.261286813049D-01 0.100000000000D+01
  </mgrwgt>
  </event>
  <event>
  5     66 -.43135346E-03 0.21175945E+02 0.75467711E-02 0.12302384E+00
       -1 -1    0    0    0  501 0.00000000E+00 0.00000000E+00 0.42116431E+02 0.42117647E+02 0.32000000E+00 0.0000E+00 0.9000E+01
        2 -1    0    0  502    0 -.00000000E+00 -.00000000E+00 -.13226496E+04 0.13226497E+04 0.32000000E+00 0.0000E+00 0.9000E+01
       25  1    1    2    0    0 -.54181950E+02 0.78229052E+00 -.17282569E+03 0.22006820E+03 0.12500000E+03 0.0000E+00 0.9000E+01
       24  1    1    2    0    0 0.51708940E+02 0.20248638E+02 -.11150541E+03 0.14827169E+03 0.80419002E+02 0.0000E+00 0.9000E+01
       21  1    1    2  502  501 0.24730106E+01 -.21030928E+02 -.99620211E+03 0.99642743E+03 0.75000000E+00 0.0000E+00 0.9000E+01
#aMCatNLO 1  0  0  5  5 0.67919324D+00 0.00000000D+00  -5  6  0 0.00000000D+00 0.00000000D+00 0.00000000D+00 0.00000000D+00 0.00000000D+00
  <mgrwgt>
 -.6391778340D+00   19    2    0
 0.236021478227731D+03 0.000000000000000D+00 0.000000000000000D+00 0.236021478227731D+03
 0.236021478227731D+03 -.000000000000000D+00 -.000000000000000D+00 -.236021478227731D+03
 0.167427589008077D+03 -.541819580580251D+02 0.782356422932091D+00 0.973175261732618D+02
 0.126196367648930D+03 0.517089338279805D+02 0.202486872510291D+02 0.798403662341112D+02
 0.178418999798454D+03 0.247302423004460D+01 -.210310436739612D+02 -.177157892407373D+03
 0.000000000000000D+00 0.000000000000000D+00 0.000000000000000D+00 -.000000000000000D+00
 0.236021478227731D+03 0.000000000000000D+00 0.000000000000000D+00 0.236021478227731D+03
 0.236021478227731D+03 -.000000000000000D+00 -.000000000000000D+00 -.236021478227731D+03
 0.167337185376925D+03 -.541798045557448D+02 0.764042651494464D+00 0.971632575977114D+02
 0.126121286647925D+03 0.517105569576687D+02 0.202348838636836D+02 0.797240915000502D+02
 0.177837934053404D+03 0.215918153424168D+01 -.215651256632376D+02 -.176512362395992D+03
 0.746550377207846D+00 0.310066063834371D+00 0.566199148059608D+00 -.374986701769558D+00
0.507657040564D-03 0.000000000000D+00 0.000000000000D+00 0.113294061745D-03 0.000000000000D+00  6 -1 2 25 24 21 21 2 0.64795474D-02 0.20348466D+00 0.16274770D+05 0.16274770D+05 0.16274770D+05 0.12438043D+01  1  2  2  3  6  5       21 0.180499398724D+00 0.100000000000D+01
0.134715271192D-03 0.267897980387D-04 -.194953670493D-05 0.113294061745D-03 0.000000000000D+00  6 -1 2 25 24 21 21 4 0.64795474D-02 0.20348466D+00 0.16274770D+05 0.16274770D+05 0.16274770D+05 0.12438043D+01  1  2  3  3  6  5       21 0.741013800375D-01 0.100000000000D+01
0.278956711238D-04 0.000000000000D+00 0.000000000000D+00 0.113294061745D-03 0.000000000000D+00  6 -1 2 25 24 21 21 4 0.64795474D-02 0.20348466D+00 0.16274770D+05 0.16274770D+05 0.16274770D+05 0.12438043D+01  1  2 15  3  6  5       21 0.153442717299D-01 0.100000000000D+01
-.214303767339D-01 0.000000000000D+00 0.000000000000D+00 0.113294061745D-03 0.000000000000D+00  6 -1 2 25 24 21 21 4 0.64795474D-02 0.20348466D+00 0.16274770D+05 0.16274770D+05 0.16274770D+05 0.12438043D+01  1  2  4  3  6  5       21 -.117879767947D+02 0.100000000000D+01
-.729235309328D-01 0.000000000000D+00 0.000000000000D+00 0.113294061745D-03 0.000000000000D+00  6 -1 2 25 24 21 21 4 0.64795474D-02 0.20348466D+00 0.16274770D+05 0.16274770D+05 0.16274770D+05 0.12438043D+01  1  2  5  3  6  5       21 -.401122621920D+02 0.100000000000D+01
0.732271366477D-01 0.000000000000D+00 -.000000000000D+00 0.113294061745D-03 0.000000000000D+00  6 -1 2 25 24 21 21 4 0.64795474D-02 0.20348466D+00 0.16274770D+05 0.16274770D+05 0.16274770D+05 0.12438043D+01  1  2  6  3  6  5       21 0.402792633215D+02 0.100000000000D+01
0.195114650652D-01 0.000000000000D+00 0.000000000000D+00 0.113294061745D-03 0.909070152300D-03  6 -1 2 25 24 21 21 4 0.64795474D-02 0.20348466D+00 0.16420474D+05 0.16420474D+05 0.16420474D+05 0.12433677D+01  1  2 11  3  6  5       21 0.107178238947D+02 0.100000000000D+01
0.173476393667D-11 0.000000000000D+00 0.000000000000D+00 0.113214527921D-03 0.000000000000D+00  6 -1 2 25 24 1 -1 4 0.64795474D-02 0.20348466D+00 0.16420474D+05 0.16420474D+05 0.16420474D+05 0.12433677D+01  1  2 12  6  6  5       21 0.952921490514D-09 0.100000000000D+01
-.252821164735D-04 0.000000000000D+00 0.000000000000D+00 0.113294061745D-03 0.000000000000D+00  6 -1 2 25 24 1 -1 4 0.64795474D-02 0.20348466D+00 0.16274770D+05 0.16274770D+05 0.16274770D+05 0.12438043D+01  1  2  5  6  6  5       21 -.139066618385D-01 0.100000000000D+01
0.195423720385D-04 0.000000000000D+00 0.000000000000D+00 0.113294061745D-03 0.993963410550D-06  6 -1 2 25 24 1 -1 4 0.64795474D-02 0.20348466D+00 0.16420474D+05 0.16420474D+05 0.16420474D+05 0.12433677D+01  1  2 11  6  6  5       21 0.107348013741D-01 0.100000000000D+01
0.173476393667D-11 0.000000000000D+00 0.000000000000D+00 0.113214527921D-03 0.000000000000D+00  6 -1 2 25 24 2 -2 4 0.64795474D-02 0.20348466D+00 0.16420474D+05 0.16420474D+05 0.16420474D+05 0.12433677D+01  1  2 12  7  6  5       21 0.952921490514D-09 0.100000000000D+01
-.252821164735D-04 0.000000000000D+00 0.000000000000D+00 0.113294061745D-03 0.000000000000D+00  6 -1 2 25 24 2 -2 4 0.64795474D-02 0.20348466D+00 0.16274770D+05 0.16274770D+05 0.16274770D+05 0.12438043D+01  1  2  5  7  6  5       21 -.139066618385D-01 0.100000000000D+01
0.262768151996D-04 0.000000000000D+00 0.000000000000D+00 0.113294061745D-03 0.129554279129D-05  6 -1 2 25 24 2 -2 4 0.64795474D-02 0.20348466D+00 0.16420474D+05 0.16420474D+05 0.16420474D+05 0.12433677D+01  1  2 11  7  6  5       21 0.144340917958D-01 0.100000000000D+01
0.173476393667D-11 0.000000000000D+00 0.000000000000D+00 0.113214527921D-03 0.000000000000D+00  6 -1 2 25 24 3 -3 4 0.64795474D-02 0.20348466D+00 0.16420474D+05 0.16420474D+05 0.16420474D+05 0.12433677D+01  1  2 12  8  6  5       21 0.952921490514D-09 0.100000000000D+01
0.173476393667D-11 0.000000000000D+00 0.000000000000D+00 0.113214527921D-03 0.000000000000D+00  6 -1 2 25 24 4 -4 4 0.64795474D-02 0.20348466D+00 0.16420474D+05 0.16420474D+05 0.16420474D+05 0.12433677D+01  1  2 12  8  6  5       21 0.952921490514D-09 0.100000000000D+01
-.252821164735D-04 0.000000000000D+00 0.000000000000D+00 0.113294061745D-03 0.000000000000D+00  6 -1 2 25 24 3 -3 4 0.64795474D-02 0.20348466D+00 0.16274770D+05 0.16274770D+05 0.16274770D+05 0.12438043D+01  1  2  5  8  6  5       21 -.139066618385D-01 0.100000000000D+01
-.252821164735D-04 0.000000000000D+00 0.000000000000D+00 0.113294061745D-03 0.000000000000D+00  6 -1 2 25 24 4 -4 4 0.64795474D-02 0.20348466D+00 0.16274770D+05 0.16274770D+05 0.16274770D+05 0.12438043D+01  1  2  5  8  6  5       21 -.139066618385D-01 0.100000000000D+01
0.222885799207D-04 0.000000000000D+00 0.000000000000D+00 0.113294061745D-03 0.977015436181D-06  6 -1 2 25 24 3 -3 4 0.64795474D-02 0.20348466D+00 0.16420474D+05 0.16420474D+05 0.16420474D+05 0.12433677D+01  1  2 11  8  6  5       21 0.122433181544D-01 0.100000000000D+01
0.222885799207D-04 0.000000000000D+00 0.000000000000D+00 0.113294061745D-03 0.977015436181D-06  6 -1 2 25 24 4 -4 4 0.64795474D-02 0.20348466D+00 0.16420474D+05 0.16420474D+05 0.16420474D+05 0.12433677D+01  1  2 11  8  6  5       21 0.122433181544D-01 0.100000000000D+01
  </mgrwgt>
  </event>
  <event>
  5     66 0.43135346E-03 0.32694984E+02 0.75467711E-02 0.11850359E+00
       -1 -1    0    0    0  501 0.00000000E+00 0.00000000E+00 0.18179393E+02 0.18182209E+02 0.32000000E+00 0.0000E+00 0.9000E+01
        2 -1    0    0  502    0 0.00000000E+00 0.00000000E+00 -.11860161E+04 0.11860161E+04 0.32000000E+00 0.0000E+00 0.9000E+01
       25  1    1    2    0    0 0.16594232E+02 0.30978963E+02 -.30802981E+03 0.33427897E+03 0.12500000E+03 0.0000E+00 0.9000E+01
       24  1    1    2    0    0 0.27957481E+01 -.57297618E+02 -.60272024E+03 0.61076160E+03 0.80419002E+02 0.0000E+00 0.9000E+01
       21  1    1    2  502  501 -.19389980E+02 0.26318655E+02 -.25708664E+03 0.25915776E+03 0.75000000E+00 0.0000E+00 0.9000E+01
#aMCatNLO 1  0  0  2  1 0.59542865D+02 0.00000000D+00  -5  6  0 0.00000000D+00 0.00000000D+00 0.00000000D+00 0.00000000D+00 0.00000000D+00
  <mgrwgt>
 0.5185506006D+00    7    4    0
 0.146842683136050D+03 0.000000000000000D+00 0.000000000000000D+00 0.146842683136050D+03
 0.146842683136050D+03 0.000000000000000D+00 0.000000000000000D+00 -.146842683136050D+03
 0.145767725728627D+03 0.165958973946219D+02 0.309767030776666D+02 0.662438670384030D+02
 0.107596074152818D+03 0.279697730043134D+01 -.572992863156746D+02 -.426458429911223D+02
 0.403215663906542D+02 -.193928746950532D+02 0.263225832380080D+02 -.235980240472807D+02
 0.000000000000000D+00 0.000000000000000D+00 0.000000000000000D+00 -.000000000000000D+00
 0.169770922801200D+03 0.000000000000000D+00 0.000000000000000D+00 0.169770922801200D+03
 0.194279096337263D+03 0.000000000000000D+00 0.000000000000000D+00 -.194279096337263D+03
 0.141709256098507D+03 0.742458843030957D+01 0.362475246481787D+01 0.662438670384030D+02
 0.120619277097663D+03 -.448372212605631D+01 -.790127987396036D+02 -.426458429911223D+02
 0.373320199653930D+02 -.218702383717265D+02 0.189342454120655D+02 -.235980240472807D+02
 0.643894659768996D+02 0.189293720674733D+02 0.564538008627202D+02 -.245081735360635D+02
 0.146842683136050D+03 0.000000000000000D+00 0.000000000000000D+00 0.146842683136050D+03
 0.146842683136050D+03 0.000000000000000D+00 0.000000000000000D+00 -.146842683136050D+03
 0.145767725728627D+03 0.165958973946219D+02 0.309767030776666D+02 0.662438670384030D+02
 0.107596074152818D+03 0.279697730043134D+01 -.572992863156746D+02 -.426458429911223D+02
 0.000000000000000D+00 0.000000000000000D+00 0.000000000000000D+00 -.000000000000000D+00
 0.403215663906542D+02 -.193928746950532D+02 0.263225832380080D+02 -.235980240472807D+02
 0.169770922801200D+03 0.000000000000000D+00 0.000000000000000D+00 0.169770922801200D+03
 0.194279096337263D+03 0.000000000000000D+00 0.000000000000000D+00 -.194279096337263D+03
 0.141709256098507D+03 0.742458843030957D+01 0.362475246481787D+01 0.662438670384030D+02
 0.120619277097663D+03 -.448372212605631D+01 -.790127987396036D+02 -.426458429911223D+02
 0.643894659768996D+02 0.189293720674733D+02 0.564538008627202D+02 -.245081735360635D+02
 0.373320199653930D+02 -.218702383717265D+02 0.189342454120655D+02 -.235980240472807D+02
0.147440925211D-03 0.000000000000D+00 0.000000000000D+00 0.182193126153D-04 0.000000000000D+00  6 -1 2 25 24 21 21 2 0.27970496D-02 0.18246423D+00 0.17072664D+05 0.17072664D+05 0.17072664D+05 0.12414650D+01  1  2  2  2  6  2        2 0.213268629265D+00 0.100000000000D+01
0.100848246588D-04 0.778067138528D-05 -.566211974899D-06 0.182193126153D-04 0.000000000000D+00  6 -1 2 25 24 21 21 4 0.27970496D-02 0.18246423D+00 0.17072664D+05 0.17072664D+05 0.17072664D+05 0.12414650D+01  1  2  3  2  6  2        2 0.224825849757D-01 0.100000000000D+01
0.586681039575D-05 0.000000000000D+00 0.000000000000D+00 0.182193126153D-04 0.000000000000D+00  6 -1 2 25 24 21 21 4 0.27970496D-02 0.18246423D+00 0.17072664D+05 0.17072664D+05 0.17072664D+05 0.12414650D+01  1  2 15  2  6  2        2 0.130791627739D-01 0.100000000000D+01
-.283511281527D-04 0.000000000000D+00 0.000000000000D+00 0.182193126153D-04 0.000000000000D+00  6 -1 2 25 24 21 21 4 0.27970496D-02 0.18246423D+00 0.17072664D+05 0.17072664D+05 0.17072664D+05 0.12414650D+01  1  2  4  2  6  2        2 -.632045344778D-01 0.100000000000D+01
-.271888823023D-03 0.000000000000D+00 -.107515511149D-03 0.182193126153D-04 0.000000000000D+00  6 -1 2 25 24 21 21 4 0.27970496D-02 0.26107036D+00 0.17072664D+05 0.17072664D+05 0.17072664D+05 0.12414650D+01  1  2  5  2  6  2        2 -.326041833938D+00 0.100000000000D+01
0.297648822369D-03 0.000000000000D+00 0.100967221484D-03 0.182193126153D-04 0.000000000000D+00  6 -1 2 25 24 21 21 4 0.27970496D-02 0.18246423D+00 0.17072664D+05 0.17072664D+05 0.17072664D+05 0.12414650D+01  1  2  6  2  6  2        2 0.663562844991D+00 0.100000000000D+01
-.879934521659D-05 0.000000000000D+00 -.472319239663D-05 0.182193126153D-04 0.000000000000D+00  6 -1 21 25 24 -2 21 4 0.27970496D-02 0.26107036D+00 0.17072664D+05 0.17072664D+05 0.17072664D+05 0.12414650D+01  3  4  5  5  5  2        2 -.459625298481D-02 0.100000000000D+01
  </mgrwgt>
  </event>
  <event>
  5     66 0.43135346E-03 0.23436247E+02 0.75467711E-02 0.12026361E+00
       -1 -1    0    0    0  501 0.00000000E+00 0.00000000E+00 0.31982839E+03 0.31982855E+03 0.32000000E+00 0.0000E+00 0.9000E+01
        2 -1    0    0  502    0 0.00000000E+00 0.00000000E+00 -.14574991E+03 0.14575026E+03 0.32000000E+00 0.0000E+00 0.9000E+01
       25  1    1    2    0    0 -.73135816E+01 0.85807415E+02 0.85836620E+02 0.17438270E+03 0.12500000E+03 0.0000E+00 0.9000E+01
       24  1    1    2    0    0 0.25137109E+02 -.70590316E+02 -.70596288E+02 0.13063659E+03 0.80419002E+02 0.0000E+00 0.9000E+01
       21  1    1    2  502  501 -.17823528E+02 -.15217099E+02 0.15883815E+03 0.16055952E+03 0.75000000E+00 0.0000E+00 0.9000E+01
#aMCatNLO 1  0  0  5  2 0.20001829D+02 0.00000000D+00  -5  6  0 0.00000000D+00 0.00000000D+00 0.00000000D+00 0.00000000D+00 0.00000000D+00
  <mgrwgt>
 0.2098633117D+00   15    2    0
 0.215905250371154D+03 0.000000000000000D+00 0.000000000000000D+00 0.215905250371154D+03
 0.215905250371154D+03 -.000000000000000D+00 -.000000000000000D+00 -.215905250371154D+03
 0.153415799596446D+03 -.731343187825400D+01 0.858075430901504D+02 0.222482994588572D+02
 0.169313233552937D+03 0.251372744656986D+02 -.705901751260464D+02 -.128782373444083D+03
 0.109081467592926D+03 -.178238425874446D+02 -.152173679641040D+02 0.106534073985226D+03
 0.000000000000000D+00 0.000000000000000D+00 -.000000000000000D+00 0.000000000000000D+00
 0.215905250371154D+03 0.000000000000000D+00 0.000000000000000D+00 0.215905250371154D+03
 0.215905250371154D+03 -.000000000000000D+00 -.000000000000000D+00 -.215905250371154D+03
 0.153723686842482D+03 -.791700959489599D+01 0.852922297303059D+02 0.258559162118162D+02
 0.166474556176091D+03 0.244773982975420D+02 -.711535541175471D+02 -.124838257792557D+03
 0.820307157733680D+02 -.786474511037611D+01 0.790030905122608D+01 0.812697313366730D+02
 0.295815419503680D+02 -.869564359226992D+01 -.220389846639849D+02 0.177126102440672D+02
0.627316296611D-03 0.000000000000D+00 0.000000000000D+00 0.342883189475D-04 0.000000000000D+00  6 -1 2 25 24 21 21 2 0.49204407D-01 0.22423102D-01 0.20327450D+05 0.20327450D+05 0.20327450D+05 0.12330503D+01  1  2  2  3  6  5       21 0.110693785271D+00 0.100000000000D+01
0.102019038202D-03 0.331043904639D-04 -.240905975516D-05 0.342883189475D-04 0.000000000000D+00  6 -1 2 25 24 21 21 4 0.49204407D-01 0.22423102D-01 0.20327450D+05 0.20327450D+05 0.20327450D+05 0.12330503D+01  1  2  3  3  6  5       21 0.273702968181D-01 0.100000000000D+01
0.295387444406D-04 0.000000000000D+00 0.000000000000D+00 0.342883189475D-04 0.000000000000D+00  6 -1 2 25 24 21 21 4 0.49204407D-01 0.22423102D-01 0.20327450D+05 0.20327450D+05 0.20327450D+05 0.12330503D+01  1  2 15  3  6  5       21 0.792483655225D-02 0.100000000000D+01
0.846922027337D-03 0.000000000000D+00 0.000000000000D+00 0.340822829261D-04 0.000000000000D+00  6 -1 2 25 24 21 21 4 0.49204407D-01 0.22423102D-01 0.21978990D+05 0.21978990D+05 0.21978990D+05 0.12293401D+01  1  2 12  3  6  5       21 0.224678391943D+00 0.100000000000D+01
-.948726503442D-03 0.000000000000D+00 0.000000000000D+00 0.342883189475D-04 0.000000000000D+00  6 -1 2 25 24 21 21 4 0.49204407D-01 0.22423102D-01 0.20327450D+05 0.20327450D+05 0.20327450D+05 0.12330503D+01  1  2  4  3  6  5       21 -.254530198049D+00 0.100000000000D+01
-.145202245669D-02 0.000000000000D+00 0.000000000000D+00 0.342883189475D-04 0.000000000000D+00  6 -1 2 25 24 21 21 4 0.49204407D-01 0.22423102D-01 0.20327450D+05 0.20327450D+05 0.20327450D+05 0.12330503D+01  1  2  5  3  6  5       21 -.389557540695D+00 0.100000000000D+01
0.182406385023D-02 0.000000000000D+00 -.000000000000D+00 0.342883189475D-04 0.000000000000D+00  6 -1 2 25 24 21 21 4 0.49204407D-01 0.22423102D-01 0.20327450D+05 0.20327450D+05 0.20327450D+05 0.12330503D+01  1  2  6  3  6  5       21 0.489371100488D+00 0.100000000000D+01
0.139939978969D-04 0.000000000000D+00 0.000000000000D+00 0.340822829261D-04 0.000000000000D+00  6 -1 2 25 24 1 -1 4 0.49204407D-01 0.22423102D-01 0.21978990D+05 0.21978990D+05 0.21978990D+05 0.12293401D+01  1  2 12  6  6  5       21 0.371244204643D-02 0.100000000000D+01
-.195100710633D-04 0.000000000000D+00 0.000000000000D+00 0.342883189475D-04 0.000000000000D+00  6 -1 2 25 24 1 -1 4 0.49204407D-01 0.22423102D-01 0.20327450D+05 0.20327450D+05 0.20327450D+05 0.12330503D+01  1  2  5  6  6  5       21 -.523428220217D-02 0.100000000000D+01
0.139939978969D-04 0.000000000000D+00 0.000000000000D+00 0.340822829261D-04 0.000000000000D+00  6 -1 2 25 24 2 -2 4 0.49204407D-01 0.22423102D-01 0.21978990D+05 0.21978990D+05 0.21978990D+05 0.12293401D+01  1  2 12  7  6  5       21 0.371244204643D-02 0.100000000000D+01
-.195100710633D-04 0.000000000000D+00 0.000000000000D+00 0.342883189475D-04 0.000000000000D+00  6 -1 2 25 24 2 -2 4 0.49204407D-01 0.22423102D-01 0.20327450D+05 0.20327450D+05 0.20327450D+05 0.12330503D+01  1  2  5  7  6  5       21 -.523428220217D-02 0.100000000000D+01
0.139939978969D-04 0.000000000000D+00 0.000000000000D+00 0.340822829261D-04 0.000000000000D+00  6 -1 2 25 24 3 -3 4 0.49204407D-01 0.22423102D-01 0.21978990D+05 0.21978990D+05 0.21978990D+05 0.12293401D+01  1  2 12  8  6  5       21 0.371244204643D-02 0.100000000000D+01
0.139939978969D-04 0.000000000000D+00 0.000000000000D+00 0.340822829261D-04 0.000000000000D+00  6 -1 2 25 24 4 -4 4 0.49204407D-01 0.22423102D-01 0.21978990D+05 0.21978990D+05 0.21978990D+05 0.12293401D+01  1  2 12  8  6  5       21 0.371244204643D-02 0.100000000000D+01
-.195100710633D-04 0.000000000000D+00 0.000000000000D+00 0.342883189475D-04 0.000000000000D+00  6 -1 2 25 24 3 -3 4 0.49204407D-01 0.22423102D-01 0.20327450D+05 0.20327450D+05 0.20327450D+05 0.12330503D+01  1  2  5  8  6  5       21 -.523428220217D-02 0.100000000000D+01
-.195100710633D-04 0.000000000000D+00 0.000000000000D+00 0.342883189475D-04 0.000000000000D+00  6 -1 2 25 24 4 -4 4 0.49204407D-01 0.22423102D-01 0.20327450D+05 0.20327450D+05 0.20327450D+05 0.12330503D+01  1  2  5  8  6  5       21 -.523428220217D-02 0.100000000000D+01
  </mgrwgt>
  </event>
  <event>
  5     66 0.43135346E-03 0.47323224E+02 0.75467711E-02 0.11439300E+00
       -1 -1    0    0    0  501 0.00000000E+00 0.00000000E+00 0.24156315E+02 0.24158434E+02 0.32000000E+00 0.0000E+00 0.9000E+01
        2 -1    0    0  502    0 0.00000000E+00 0.00000000E+00 -.15381683E+04 0.15381683E+04 0.32000000E+00 0.0000E+00 0.9000E+01
       25  1    1    2    0    0 -.48856871E+02 0.80906490E+02 -.67325433E+03 0.69125194E+03 0.12500000E+03 0.0000E+00 0.9000E+01
       24  1    1    2    0    0 0.15352421E+01 -.80772175E+02 -.21341747E+03 0.24195193E+03 0.80419002E+02 0.0000E+00 0.9000E+01
       21  1    1    2  502  501 0.47321629E+02 -.13431506E+00 -.62734014E+03 0.62912286E+03 0.75000000E+00 0.0000E+00 0.9000E+01
#aMCatNLO 1  0  0  1  1 0.28780307D+02 0.00000000D+00  -5  6  0 0.00000000D+00 0.00000000D+00 0.00000000D+00 0.00000000D+00 0.00000000D+00
  <mgrwgt>
 0.1269772241D+00    4    2    0
 0.192764514168364D+03 0.000000000000000D+00 0.000000000000000D+00 0.192764514168364D+03
 0.192764514168364D+03 0.000000000000000D+00 0.000000000000000D+00 -.192764514168364D+03
 0.157306797823309D+03 -.488576081698187D+02 0.809064917953176D+02 -.136931497735898D+02
 0.142379910180822D+03 0.153457502941590D+01 -.807721727482449D+02 0.853130942923485D+02
 0.858423203325967D+02 0.473230331404028D+02 -.134319047072678D+00 -.716199445187586D+02
 0.000000000000000D+00 -.000000000000000D+00 0.000000000000000D+00 -.000000000000000D+00
 0.209415481530287D+03 0.000000000000000D+00 0.000000000000000D+00 0.209415481530287D+03
 0.323937084220718D+03 0.000000000000000D+00 0.000000000000000D+00 -.323937084220718D+03
 0.141171501850449D+03 -.358734768648867D+02 0.531975962014613D+02 -.136931497735898D+02
 0.160695675796493D+03 0.147186932984823D+02 -.108907852219990D+03 0.853130942923485D+02
 0.918521185275184D+02 0.550529348747593D+02 -.166303814387626D+02 -.716199445187586D+02
 0.139633269576545D+03 -.338981513083549D+02 0.723406374572910D+02 -.114521602690430D+03
0.200398184673D-03 0.000000000000D+00 0.000000000000D+00 0.897387603904D-05 0.000000000000D+00  6 -1 2 25 24 21 21 2 0.37165217D-02 0.23664144D+00 0.25284639D+05 0.25284639D+05 0.25284639D+05 0.12227709D+01  1  2  2  1  6  1       -1 0.121014861755D+00 0.100000000000D+01
0.445417757048D-05 0.105753027452D-04 -.769581795197D-06 0.897387603904D-05 0.000000000000D+00  6 -1 2 25 24 21 21 4 0.37165217D-02 0.23664144D+00 0.25284639D+05 0.25284639D+05 0.25284639D+05 0.12227709D+01  1  2  3  1  6  1       -1 0.402163462274D-02 0.100000000000D+01
0.859263894443D-05 0.000000000000D+00 0.000000000000D+00 0.897387603904D-05 0.000000000000D+00  6 -1 2 25 24 21 21 4 0.37165217D-02 0.23664144D+00 0.25284639D+05 0.25284639D+05 0.25284639D+05 0.12227709D+01  1  2 15  1  6  1       -1 0.775821209029D-02 0.100000000000D+01
-.644317817647D-05 0.000000000000D+00 0.000000000000D+00 0.897387603904D-05 0.000000000000D+00  6 -1 2 25 24 21 21 4 0.37165217D-02 0.23664144D+00 0.25284639D+05 0.25284639D+05 0.25284639D+05 0.12227709D+01  1  2  4  1  6  1       -1 -.581748437842D-02 0.100000000000D+01
  </mgrwgt>
  </event>
  <event>
  6     66 0.43135346E-03 0.47668525E+02 0.75467711E-02 0.11243017E+00
       -1 -1    0    0    0  501 0.00000000E+00 0.00000000E+00 0.16239202E+03 0.16239234E+03 0.32000000E+00 0.0000E+00 0.9000E+01
        2 -1    0    0  502    0 -.00000000E+00 -.00000000E+00 -.35523519E+03 0.35523533E+03 0.32000000E+00 0.0000E+00 0.9000E+01
       25  1    1    2    0    0 0.10432041E+03 -.11265121E+03 -.63176793E+02 0.20782048E+03 0.12500000E+03 0.0000E+00 0.9000E+01
       24  1    1    2    0    0 -.16462055E+03 0.85797151E+02 -.10968367E+03 0.23012779E+03 0.80419002E+02 0.0000E+00 0.9000E+01
       21  1    1    2  503  501 0.48211226E+02 0.24964142E+02 0.21933483E+01 0.54340629E+02 0.75000000E+00 0.0000E+00 0.9000E+01
       21  1    1    2  502  503 0.12088911E+02 0.18899137E+01 -.22176049E+02 0.25338769E+02 0.75000000E+00 0.0000E+00 0.9000E+01
#aMCatNLO 2  0  0  5  2 0.15946557D+02 0.00000000D+00  -5  6  0 0.00000000D+00 0.00000000D+00 0.00000000D+00 0.00000000D+00 0.00000000D+00
  <mgrwgt>
 0.2339097357D+00    4    2    0
 0.240182178291469D+03 0.000000000000000D+00 0.000000000000000D+00 0.240182178291469D+03
 0.240182178291469D+03 -.000000000000000D+00 -.000000000000000D+00 -.240182178291469D+03
 0.197444380532922D+03 0.100179575048030D+03 -.114495287753690D+03 0.146343851741436D+02
 0.206739036598981D+03 -.168914698827128D+03 0.838847962981704D+02 -.265514363012457D+02
 0.761809394510360D+02 0.687351237790985D+02 0.306104914555199D+02 0.119170511271020D+02
 0.000000000000000D+00 0.000000000000000D+00 0.000000000000000D+00 0.000000000000000D+00
 0.240182178291469D+03 0.000000000000000D+00 0.000000000000000D+00 0.240182178291469D+03
 0.240182178291469D+03 -.000000000000000D+00 -.000000000000000D+00 -.240182178291469D+03
 0.198592412227281D+03 0.104366238856456D+03 -.112630799415140D+03 0.153602540445824D+02
 0.203916588616783D+03 -.164573493476396D+03 0.858181081479071D+02 -.257987735682274D+02
 0.591591603400128D+02 0.478536487753849D+02 0.248529904838746D+02 0.243344080475751D+02
 0.186961953988616D+02 0.123536058445551D+02 0.195970078335802D+01 -.138958885239301D+02
-.435320022304D-03 0.000000000000D+00 0.000000000000D+00 0.294562345766D-05 0.000000000000D+00  6 -1 2 25 24 21 21 4 0.24983423D-01 0.54651602D-01 0.54453660D+05 0.54453660D+05 0.54453660D+05 0.11886291D+01  1  2 13  3  6  5       21 -.125147216880D+00 0.100000000000D+01
-.451861329257D-03 0.000000000000D+00 0.000000000000D+00 0.294562345766D-05 0.000000000000D+00  6 -1 2 25 24 21 21 4 0.24983423D-01 0.54651602D-01 0.54453660D+05 0.54453660D+05 0.54453660D+05 0.11886291D+01  1  2 13  3  6  5       21 -.129902565641D+00 0.100000000000D+01
-.856975754905D-04 0.000000000000D+00 0.000000000000D+00 0.293628825444D-05 0.000000000000D+00  6 -1 2 25 24 21 21 4 0.24983423D-01 0.54651602D-01 0.56923115D+05 0.56923115D+05 0.56923115D+05 0.11867441D+01  1  2  8  3  6  5       21 -.244876565881D-01 0.100000000000D+01
0.178600724155D-02 0.000000000000D+00 0.000000000000D+00 0.293628825444D-05 0.217456783480D-06  6 -1 2 25 24 21 21 4 0.24983423D-01 0.54651602D-01 0.54453660D+05 0.54453660D+05 0.54453660D+05 0.11886291D+01  1  2  1  3  6  5       21 0.513447174852D+00 0.100000000000D+01
  </mgrwgt>
  </event>
  <event>
  6     66 0.43135346E-03 0.18464841E+03 0.75467711E-02 0.11116160E+00
       -1 -1    0    0    0  501 0.00000000E+00 0.00000000E+00 0.35142920E+03 0.35142934E+03 0.32000000E+00 0.0000E+00 0.9000E+01
        2 -1    0    0  502    0 0.00000000E+00 0.00000000E+00 -.32048756E+03 0.32048772E+03 0.32000000E+00 0.0000E+00 0.9000E+01
       25  1    1    2    0    0 0.37208754E+02 -.53855505E+02 -.13385823E+03 0.19449404E+03 0.12500000E+03 0.0000E+00 0.9000E+01
       24  1    1    2    0    0 -.52548278E+02 -.13824228E+03 -.59445453E+02 0.17853074E+03 0.80419002E+02 0.0000E+00 0.9000E+01
       21  1    1    2  502  503 0.24821986E+02 0.17105881E+03 0.18372487E+03 0.25225510E+03 0.75000000E+00 0.0000E+00 0.9000E+01
       21  1    1    2  503  501 -.94824625E+01 0.21038977E+02 0.40520461E+02 0.46637173E+02 0.75000000E+00 0.0000E+00 0.9000E+01
#aMCatNLO 2  0  0  5  1 0.15691685D+02 0.00000000D+00  -5  6  0 0.00000000D+00 0.00000000D+00 0.00000000D+00 0.00000000D+00 0.00000000D+00
  <mgrwgt>
 0.1121833308D-01    3    2    0
 0.335602126898131D+03 0.000000000000000D+00 0.000000000000000D+00 0.335602126898131D+03
 0.335602126898131D+03 -.000000000000000D+00 -.000000000000000D+00 -.335602126898131D+03
 0.201569082501095D+03 0.371549636799755D+02 -.545291252508151D+02 -.143705178033549D+03
 0.182188518967729D+03 -.525968832146638D+02 -.138850967053104D+03 -.684062666267126D+02
 0.287446652327438D+03 0.154419195346883D+02 0.193380092303919D+03 0.212111444660261D+03
 0.000000000000000D+00 0.000000000000000D+00 0.000000000000000D+00 0.000000000000000D+00
 0.335602126898131D+03 0.000000000000000D+00 0.000000000000000D+00 0.335602126898131D+03
 0.335602126898131D+03 -.000000000000000D+00 -.000000000000000D+00 -.335602126898131D+03
 0.200870534832278D+03 0.372088118389504D+02 -.538547814990837D+02 -.142965515405027D+03
 0.181459917043063D+03 -.525482254832928D+02 -.138241623340187D+03 -.677379001278575D+02
 0.243956718000322D+03 0.248473036422916D+02 0.171011363612561D+03 0.172199318449781D+03
 0.449170839205996D+02 -.950788999794920D+01 0.210850412267101D+02 0.385040970831030D+02
-.842827320261D-03 0.000000000000D+00 0.000000000000D+00 0.154409038276D-05 0.000000000000D+00  6 -1 2 25 24 21 21 4 0.54066054D-01 0.49305801D-01 0.63852642D+05 0.63852642D+05 0.63852642D+05 0.11819043D+01  1  2 13  3  6  5       21 -.680375327720D-01 0.100000000000D+01
-.940949075376D-03 0.000000000000D+00 0.000000000000D+00 0.154409038276D-05 0.000000000000D+00  6 -1 2 25 24 21 21 4 0.54066054D-01 0.49305801D-01 0.63852642D+05 0.63852642D+05 0.63852642D+05 0.11819043D+01  1  2 13  3  6  5       21 -.759584460704D-01 0.100000000000D+01
0.192274553838D-02 0.000000000000D+00 0.000000000000D+00 0.154460220530D-05 0.528084323368D-07  6 -1 2 25 24 21 21 4 0.54066054D-01 0.49305801D-01 0.63852642D+05 0.63852642D+05 0.63852642D+05 0.11819043D+01  1  2  1  3  6  5       21 0.155214311918D+00 0.100000000000D+01
  </mgrwgt>
  </event>
  <event>
  5     66 0.43135346E-03 0.23423958E+02 0.75467711E-02 0.11760470E+00
       -1 -1    0    0    0  501 0.00000000E+00 0.00000000E+00 0.20602131E+03 0.20602156E+03 0.32000000E+00 0.0000E+00 0.9000E+01
        2 -1    0    0  502    0 0.00000000E+00 0.00000000E+00 -.88097188E+03 0.88097193E+03 0.32000000E+00 0.0000E+00 0.9000E+01
       25  1    1    2    0    0 0.39627406E+02 0.69419214E+02 0.72736626E+02 0.16524217E+03 0.12500000E+03 0.0000E+00 0.9000E+01
       24  1    1    2    0    0 -.25742211E+02 -.50554378E+02 0.58985381E+02 0.11473839E+03 0.80419002E+02 0.0000E+00 0.9000E+01
       21  1    1    2  502  501 -.13885195E+02 -.18864837E+02 -.80667257E+03 0.80701294E+03 0.75000000E+00 0.0000E+00 0.9000E+01
#aMCatNLO 1  0  0  2  5 0.30877804D+02 0.00000000D+00  -5  6  0 0.00000000D+00 0.00000000D+00 0.00000000D+00 0.00000000D+00 0.00000000D+00
  <mgrwgt>
 0.7149950371D+00    4    2    0
 0.426027169553946D+03 0.000000000000000D+00 0.000000000000000D+00 0.426027169553946D+03
 0.426027169553946D+03 0.000000000000000D+00 0.000000000000000D+00 -.426027169553946D+03
 0.268422971343687D+03 0.396274144966424D+02 0.694192254409933D+02 0.223688467973782D+03
 0.193100611673870D+03 -.257422054748523D+02 -.505543700593071D+02 0.166139172983523D+03
 0.390530756090335D+03 -.138852090217901D+02 -.188648553816861D+02 -.389827640957306D+03
 0.000000000000000D+00 0.000000000000000D+00 -.000000000000000D+00 0.000000000000000D+00
 0.477884166453081D+03 0.000000000000000D+00 0.000000000000000D+00 0.477884166453081D+03
 0.449668277868769D+03 0.000000000000000D+00 0.000000000000000D+00 -.449668277868769D+03
 0.273477929123322D+03 0.329631209245972D+02 0.896776431003473D+02 0.223688467973782D+03
 0.190548114934005D+03 -.304603148938491D+02 -.362120500310443D+02 0.166139172983523D+03
 0.390671718369814D+03 -.234924317160576D+02 0.103396098452507D+02 -.389827640957306D+03
 0.728546818947082D+02 0.209896256853095D+02 -.638052029145537D+02 0.282158885843127D+02
0.242119596143D-01 0.000000000000D+00 0.000000000000D+00 0.245407356093D-03 0.000000000000D+00  6 -1 2 25 24 21 21 2 0.31695610D-01 0.13553416D+00 0.18253616D+05 0.18253616D+05 0.18253616D+05 0.12382187D+01  1  2  2  2  6  2        2 0.126578696418D+01 0.100000000000D+01
0.912899780801D-02 0.127770021168D-02 -.929803000743D-04 0.245407356093D-03 0.000000000000D+00  6 -1 2 25 24 21 21 4 0.31695610D-01 0.13553416D+00 0.18253616D+05 0.18253616D+05 0.18253616D+05 0.12382187D+01  1  2  3  2  6  2        2 0.731725962281D+00 0.100000000000D+01
0.139472044022D-02 0.000000000000D+00 0.000000000000D+00 0.245407356093D-03 0.000000000000D+00  6 -1 2 25 24 21 21 4 0.31695610D-01 0.13553416D+00 0.18253616D+05 0.18253616D+05 0.18253616D+05 0.12382187D+01  1  2 15  2  6  2        2 0.111792463718D+00 0.100000000000D+01
-.173953868157D-01 0.000000000000D+00 0.000000000000D+00 0.245407356093D-03 0.000000000000D+00  6 -1 2 25 24 21 21 4 0.31695610D-01 0.13553416D+00 0.18253616D+05 0.18253616D+05 0.18253616D+05 0.12382187D+01  1  2  4  2  6  2        2 -.139431035308D+01 0.100000000000D+01
  </mgrwgt>
  </event>
  <event>
  6     66 -.43135346E-03 0.18431087E+02 0.75467711E-02 0.11666856E+00
       -1 -1    0    0    0  501 0.00000000E+00 0.00000000E+00 0.10042007E+03 0.10042058E+03 0.32000000E+00 0.0000E+00 0.9000E+01
        2 -1    0    0  503    0 0.00000000E+00 0.00000000E+00 -.51154827E+03 0.51154837E+03 0.32000000E+00 0.0000E+00 0.9000E+01
       25  1    1    2    0    0 -.12029146E+03 -.58468314E+02 -.37185616E+02 0.18680565E+03 0.12500000E+03 0.0000E+00 0.9000E+01
       24  1    1    2    0    0 0.12264502E+03 0.36662834E+02 -.34791224E+03 0.37933640E+03 0.80419002E+02 0.0000E+00 0.9000E+01
       21  1    1    2  502  501 0.40546641E+01 0.21255543E+02 -.29456963E+01 0.21851271E+02 0.75000000E+00 0.0000E+00 0.9000E+01
       21  1    1    2  503  502 -.64082197E+01 0.54993705E+00 -.23084641E+02 0.23975630E+02 0.75000000E+00 0.0000E+00 0.9000E+01
#aMCatNLO 2  0  0  2  5 0.64317735D+01 0.00000000D+00  -5  6  0 0.00000000D+00 0.00000000D+00 0.00000000D+00 0.00000000D+00 0.00000000D+00
  <mgrwgt>
 -.5565500826D+00    3    2    0
 0.220860236853648D+03 0.000000000000000D+00 0.000000000000000D+00 0.220860236853648D+03
 0.220860236853648D+03 0.000000000000000D+00 0.000000000000000D+00 -.220860236853648D+03
 0.217670485783420D+03 -.123437559693886D+03 -.582026002444559D+02 0.114590865965802D+03
 0.197583550227345D+03 0.119765672021159D+03 0.369060496492435D+02 -.129869822016814D+03
 0.264664376965302D+02 0.367188767272661D+01 0.212965505952124D+02 0.152789560510118D+02
 0.000000000000000D+00 -.000000000000000D+00 0.000000000000000D+00 -.000000000000000D+00
 0.221855865097199D+03 0.000000000000000D+00 0.000000000000000D+00 0.221855865097199D+03
 0.231521120495123D+03 0.000000000000000D+00 0.000000000000000D+00 -.231521120495123D+03
 0.215975261656984D+03 -.120292188255387D+03 -.584725279917061D+02 0.114590865965802D+03
 0.199296036436491D+03 0.122644366724806D+03 0.366590074185977D+02 -.129869822016814D+03
 0.264959987971402D+02 0.405604118061589D+01 0.212635835218443D+02 0.152789560510118D+02
 0.116096887017076D+02 -.640821965003504D+01 0.549937051264094D+00 -.966525539792449D+01
-.332252720751D-02 0.000000000000D+00 0.000000000000D+00 0.240777712229D-04 0.000000000000D+00  6 -1 2 25 24 21 21 4 0.15379121D-01 0.80479110D-01 0.32818754D+05 0.32818754D+05 0.32818754D+05 0.12108263D+01  1  2 13  2  6  2        2 -.147102938952D+01 0.100000000000D+01
-.243535954642D-02 0.000000000000D+00 0.000000000000D+00 0.241453006833D-04 0.000000000000D+00  6 -1 2 25 24 21 21 4 0.15379121D-01 0.75071802D-01 0.31609809D+05 0.31609809D+05 0.31609809D+05 0.12125231D+01  1  2  8  2  6  2        2 -.117093418619D+01 0.100000000000D+01
0.462661464740D-02 0.000000000000D+00 0.000000000000D+00 0.241453006833D-04 0.216273796134D-05  6 -1 2 25 24 21 21 4 0.15448449D-01 0.78695504D-01 0.32818754D+05 0.32818754D+05 0.32818754D+05 0.12108263D+01  1  2  1  2  6  2        2 0.208541349311D+01 0.100000000000D+01
  </mgrwgt>
  </event>
  <event>
  5     66 0.43135346E-03 0.37827976E+02 0.75467711E-02 0.12146963E+00
       -1 -1    0    0    0  501 0.00000000E+00 0.00000000E+00 0.86714286E+01 0.86773311E+01 0.32000000E+00 0.0000E+00 0.9000E+01
        2 -1    0    0  502    0 -.00000000E+00 -.00000000E+00 -.32800226E+04 0.32800226E+04 0.32000000E+00 0.0000E+00 0.9000E+01
       25  1    1    2    0    0 -.52123960E+02 0.47798955E+02 -.74650075E+03 0.76019078E+03 0.12500000E+03 0.0000E+00 0.9000E+01
       24  1    1    2    0    0 0.52906229E+02 -.99845650E+01 -.19653152E+04 0.19676966E+04 0.80419002E+02 0.0000E+00 0.9000E+01
       21  1    1    2  502  501 -.78226906E+00 -.37814390E+02 -.55953523E+03 0.56081260E+03 0.75000000E+00 0.0000E+00 0.9000E+01
#aMCatNLO 1  0  0  5  1 0.11477468D+01 0.00000000D+00  -5  6  0 0.00000000D+00 0.00000000D+00 0.00000000D+00 0.00000000D+00 0.00000000D+00
  <mgrwgt>
 0.8029110726D-01   25    2    0
 0.168677838494109D+03 0.000000000000000D+00 0.000000000000000D+00 0.168677838494109D+03
 0.168677838494109D+03 -.000000000000000D+00 -.000000000000000D+00 -.168677838494109D+03
 0.171847744907842D+03 -.521238937172905D+02 0.478021431329771D+02 0.943647298812095D+02
 0.124281806335588D+03 0.529062764366801D+02 -.998225922804234D+01 -.779745589662158D+02
 0.412261257447877D+02 -.782382719389562D+00 -.378198839049347D+02 -.163901709149937D+02
 0.000000000000000D+00 0.000000000000000D+00 -.000000000000000D+00 0.000000000000000D+00
 0.168677838494109D+03 0.000000000000000D+00 0.000000000000000D+00 0.168677838494109D+03
 0.168677838494109D+03 -.000000000000000D+00 -.000000000000000D+00 -.168677838494109D+03
 0.171636264009627D+03 -.521324932282314D+02 0.473864482340958D+02 0.941845783382201D+02
 0.124385544314787D+03 0.529000507680986D+02 -.102832040944700D+02 -.781049807784334D+02
 0.119115713515565D+01 -.415975911432346D+00 0.141100865538196D+00 -.110720815905795D+01
 0.401427115286473D+02 -.351581628434866D+00 -.372443450051640D+02 -.149723894007288D+02
0.711830764999D-03 0.000000000000D+00 0.000000000000D+00 0.987682555200D-05 0.000000000000D+00  6 -1 2 25 24 21 21 2 0.13345212D-02 0.50461932D+00 0.19352507D+05 0.19352507D+05 0.19352507D+05 0.12354027D+01  1  2  2  3  6  5       21 0.220459682885D+00 0.100000000000D+01
0.398523695644D-04 0.375643414910D-04 -.273361756694D-05 0.987682555200D-05 0.000000000000D+00  6 -1 2 25 24 21 21 4 0.13345212D-02 0.50461932D+00 0.19352507D+05 0.19352507D+05 0.19352507D+05 0.12354027D+01  1  2  3  3  6  5       21 0.188375162282D-01 0.100000000000D+01
0.256399165685D-04 0.000000000000D+00 0.000000000000D+00 0.987682555200D-05 0.000000000000D+00  6 -1 2 25 24 21 21 4 0.13345212D-02 0.50461932D+00 0.19352507D+05 0.19352507D+05 0.19352507D+05 0.12354027D+01  1  2 15  3  6  5       21 0.121195389315D-01 0.100000000000D+01
0.986576407034D-10 0.000000000000D+00 0.000000000000D+00 0.987820188208D-05 0.000000000000D+00  6 -1 2 25 24 21 21 4 0.13345212D-02 0.50461932D+00 0.19317840D+05 0.19317840D+05 0.19317840D+05 0.12354887D+01  1  2 12  3  6  5       21 0.466480477250D-07 0.100000000000D+01
0.876069768943D-10 0.000000000000D+00 0.000000000000D+00 0.987820188208D-05 0.000000000000D+00  6 -1 2 25 24 21 21 4 0.13345212D-02 0.50461932D+00 0.19317840D+05 0.19317840D+05 0.19317840D+05 0.12354887D+01  1  2 12  3  6  5       21 0.414229897459D-07 0.100000000000D+01
-.937155673790D-03 0.000000000000D+00 0.000000000000D+00 0.987682555200D-05 0.000000000000D+00  6 -1 2 25 24 21 21 4 0.13345212D-02 0.50461932D+00 0.19352507D+05 0.19352507D+05 0.19352507D+05 0.12354027D+01  1  2  4  3  6  5       21 -.442977052714D+00 0.100000000000D+01
-.352168298285D-05 0.000000000000D+00 0.000000000000D+00 0.987682555200D-05 0.000000000000D+00  6 -1 2 25 24 21 21 4 0.13345212D-02 0.50461932D+00 0.19352507D+05 0.19352507D+05 0.19352507D+05 0.12354027D+01  1  2  5  3  6  5       21 -.166463778854D-02 0.100000000000D+01
0.579547108427D-03 0.000000000000D+00 -.000000000000D+00 0.987682555200D-05 0.000000000000D+00  6 -1 2 25 24 21 21 4 0.13345212D-02 0.50461932D+00 0.19352507D+05 0.19352507D+05 0.19352507D+05 0.12354027D+01  1  2  6  3  6  5       21 0.273941755015D+00 0.100000000000D+01
0.394946389932D-05 0.000000000000D+00 0.000000000000D+00 0.987682555200D-05 0.180430650256D-03  6 -1 2 25 24 21 21 4 0.13345212D-02 0.50461932D+00 0.19317840D+05 0.19317840D+05 0.19317840D+05 0.12354887D+01  1  2 11  3  6  5       21 0.186741522654D-02 0.100000000000D+01
0.425880303233D-09 0.000000000000D+00 0.000000000000D+00 0.987820188208D-05 0.000000000000D+00  6 -1 2 25 24 1 -1 4 0.13345212D-02 0.50461932D+00 0.19317840D+05 0.19317840D+05 0.19317840D+05 0.12354887D+01  1  2 12  6  6  5       21 0.201367928208D-06 0.100000000000D+01
0.421736449420D-09 0.000000000000D+00 0.000000000000D+00 0.987820188208D-05 0.000000000000D+00  6 -1 2 25 24 1 -1 4 0.13345212D-02 0.50461932D+00 0.19317840D+05 0.19317840D+05 0.19317840D+05 0.12354887D+01  1  2 12  6  6  5       21 0.199408600081D-06 0.100000000000D+01
-.253511867353D-04 0.000000000000D+00 0.000000000000D+00 0.987682555200D-05 0.000000000000D+00  6 -1 2 25 24 1 -1 4 0.13345212D-02 0.50461932D+00 0.19352507D+05 0.19352507D+05 0.19352507D+05 0.12354027D+01  1  2  5  6  6  5       21 -.119830614026D-01 0.100000000000D+01
0.295963650998D-04 0.000000000000D+00 0.000000000000D+00 0.987682555200D-05 0.201540043045D-06  6 -1 2 25 24 1 -1 4 0.13345212D-02 0.50461932D+00 0.19317840D+05 0.19317840D+05 0.19317840D+05 0.12354887D+01  1  2 11  6  6  5       21 0.139939759538D-01 0.100000000000D+01
0.425880303233D-09 0.000000000000D+00 0.000000000000D+00 0.987820188208D-05 0.000000000000D+00  6 -1 2 25 24 2 -2 4 0.13345212D-02 0.50461932D+00 0.19317840D+05 0.19317840D+05 0.19317840D+05 0.12354887D+01  1  2 12  7  6  5       21 0.201367928208D-06 0.100000000000D+01
0.421736449420D-09 0.000000000000D+00 0.000000000000D+00 0.987820188208D-05 0.000000000000D+00  6 -1 2 25 24 2 -2 4 0.13345212D-02 0.50461932D+00 0.19317840D+05 0.19317840D+05 0.19317840D+05 0.12354887D+01  1  2 12  7  6  5       21 0.199408600081D-06 0.100000000000D+01
-.253511867353D-04 0.000000000000D+00 0.000000000000D+00 0.987682555200D-05 0.000000000000D+00  6 -1 2 25 24 2 -2 4 0.13345212D-02 0.50461932D+00 0.19352507D+05 0.19352507D+05 0.19352507D+05 0.12354027D+01  1  2  5  7  6  5       21 -.119830614026D-01 0.100000000000D+01
0.778616615870D-05 0.000000000000D+00 0.000000000000D+00 0.987682555200D-05 0.271002354337D-06  6 -1 2 25 24 2 -2 4 0.13345212D-02 0.50461932D+00 0.19317840D+05 0.19317840D+05 0.19317840D+05 0.12354887D+01  1  2 11  7  6  5       21 0.368151364634D-02 0.100000000000D+01
0.425880303233D-09 0.000000000000D+00 0.000000000000D+00 0.987820188208D-05 0.000000000000D+00  6 -1 2 25 24 3 -3 4 0.13345212D-02 0.50461932D+00 0.19317840D+05 0.19317840D+05 0.19317840D+05 0.12354887D+01  1  2 12  8  6  5       21 0.201367928208D-06 0.100000000000D+01
0.425880303233D-09 0.000000000000D+00 0.000000000000D+00 0.987820188208D-05 0.000000000000D+00  6 -1 2 25 24 4 -4 4 0.13345212D-02 0.50461932D+00 0.19317840D+05 0.19317840D+05 0.19317840D+05 0.12354887D+01  1  2 12  8  6  5       21 0.201367928208D-06 0.100000000000D+01
0.421736449420D-09 0.000000000000D+00 0.000000000000D+00 0.987820188208D-05 0.000000000000D+00  6 -1 2 25 24 3 -3 4 0.13345212D-02 0.50461932D+00 0.19317840D+05 0.19317840D+05 0.19317840D+05 0.12354887D+01  1  2 12  8  6  5       21 0.199408600081D-06 0.100000000000D+01
0.421736449420D-09 0.000000000000D+00 0.000000000000D+00 0.987820188208D-05 0.000000000000D+00  6 -1 2 25 24 4 -4 4 0.13345212D-02 0.50461932D+00 0.19317840D+05 0.19317840D+05 0.19317840D+05 0.12354887D+01  1  2 12  8  6  5       21 0.199408600081D-06 0.100000000000D+01
-.253511867353D-04 0.000000000000D+00 0.000000000000D+00 0.987682555200D-05 0.000000000000D+00  6 -1 2 25 24 3 -3 4 0.13345212D-02 0.50461932D+00 0.19352507D+05 0.19352507D+05 0.19352507D+05 0.12354027D+01  1  2  5  8  6  5       21 -.119830614026D-01 0.100000000000D+01
-.253511867353D-04 0.000000000000D+00 0.000000000000D+00 0.987682555200D-05 0.000000000000D+00  6 -1 2 25 24 4 -4 4 0.13345212D-02 0.50461932D+00 0.19352507D+05 0.19352507D+05 0.19352507D+05 0.12354027D+01  1  2  5  8  6  5       21 -.119830614026D-01 0.100000000000D+01
0.295688734758D-04 0.000000000000D+00 0.000000000000D+00 0.987682555200D-05 0.201303623179D-06  6 -1 2 25 24 3 -3 4 0.13345212D-02 0.50461932D+00 0.19317840D+05 0.19317840D+05 0.19317840D+05 0.12354887D+01  1  2 11  8  6  5       21 0.139809771573D-01 0.100000000000D+01
0.295688734758D-04 0.000000000000D+00 0.000000000000D+00 0.987682555200D-05 0.201303623179D-06  6 -1 2 25 24 4 -4 4 0.13345212D-02 0.50461932D+00 0.19317840D+05 0.19317840D+05 0.19317840D+05 0.12354887D+01  1  2 11  8  6  5       21 0.139809771573D-01 0.100000000000D+01
  </mgrwgt>
  </event>
  <event>
  6     66 0.43135346E-03 0.34805212E+02 0.75467711E-02 0.11711611E+00
       -1 -1    0    0    0  501 0.00000000E+00 0.00000000E+00 0.17702584E+03 0.17702613E+03 0.32000000E+00 0.0000E+00 0.9000E+01
        2 -1    0    0  503    0 0.00000000E+00 0.00000000E+00 -.12447478E+04 0.12447479E+04 0.32000000E+00 0.0000E+00 0.9000E+01
       25  1    1    2    0    0 -.52028608E+02 0.83646160E+02 -.96794459E+02 0.18627352E+03 0.12500000E+03 0.0000E+00 0.9000E+01
       24  1    1    2    0    0 0.24281681E+02 -.11867665E+03 0.91579312E+02 0.17183635E+03 0.80419002E+02 0.0000E+00 0.9000E+01
       21  1    1    2  502  501 0.81310505E+01 0.25546482E+02 -.47909862E+03 0.47984872E+03 0.75000000E+00 0.0000E+00 0.9000E+01
       21  1    1    2  503  502 0.19615876E+02 0.94840041E+01 -.58340821E+03 0.58381541E+03 0.75000000E+00 0.0000E+00 0.9000E+01
#aMCatNLO 2  0  0  2  1 0.21788275D+02 0.00000000D+00  -5  6  0 0.00000000D+00 0.00000000D+00 0.00000000D+00 0.00000000D+00 0.00000000D+00
  <mgrwgt>
 0.7389980430D+00    1    2    0
 0.341738218367801D+03 0.000000000000000D+00 0.000000000000000D+00 0.341738218367801D+03
 0.341738218367801D+03 0.000000000000000D+00 0.000000000000000D+00 -.341738218367801D+03
 0.159454400650153D+03 -.474498146444326D+02 0.858599207173171D+02 0.133152165331481D+02
 0.274619448947552D+03 0.321728803270868D+02 -.114861400623738D+03 0.233923898317591D+03
 0.249402587137897D+03 0.152769343173458D+02 0.290014799064206D+02 -.247239114850739D+03
 0.000000000000000D+00 0.000000000000000D+00 0.000000000000000D+00 -.000000000000000D+00
 0.342305042948801D+03 0.000000000000000D+00 0.000000000000000D+00 0.342305042948801D+03
 0.643730423190069D+03 0.000000000000000D+00 0.000000000000000D+00 -.643730423190069D+03
 0.159705816344705D+03 -.520286247147516D+02 0.836461295774980D+02 0.133152165331481D+02
 0.275429418482803D+03 0.242816421362122D+02 -.118676704801214D+03 0.233923898317591D+03
 0.248688403628198D+03 0.813110622533249D+01 0.255465711694728D+02 -.247239114850739D+03
 0.302211827683164D+03 0.196158763532069D+02 0.948400405424368D+01 -.301425380241268D+03
0.128182914257D-01 0.000000000000D+00 0.000000000000D+00 0.230280208932D-04 0.860115980574D-06  6 -1 2 25 24 21 21 4 0.27234733D-01 0.19149943D+00 0.31178163D+05 0.31178163D+05 0.31178163D+05 0.12131465D+01  1  2  1  2  6  2        2 0.738998042966D+00 0.100000000000D+01
  </mgrwgt>
  </event>
  <event>
  5     66 -.43135346E-03 0.20940845E+02 0.75467711E-02 0.11993156E+00
       -1 -1    0    0    0  501 0.00000000E+00 0.00000000E+00 0.21394532E+03 0.21394556E+03 0.32000000E+00 0.0000E+00 0.9000E+01
        2 -1    0    0  502    0 0.00000000E+00 0.00000000E+00 -.12731653E+03 0.12731694E+03 0.32000000E+00 0.0000E+00 0.9000E+01
       25  1    1    2    0    0 0.70973139E+02 0.78130946E+02 0.78425584E+02 0.18143099E+03 0.12500000E+03 0.0000E+00 0.9000E+01
       24  1    1    2    0    0 -.53446900E+02 -.66679503E+02 -.25560250E+02 0.12009692E+03 0.80419002E+02 0.0000E+00 0.9000E+01
       21  1    1    2  502  501 -.17526238E+02 -.11451442E+02 0.33763455E+02 0.39734594E+02 0.75000000E+00 0.0000E+00 0.9000E+01
#aMCatNLO 1  0  0  5  2 0.34907938D+01 0.00000000D+00  -5  6  0 0.00000000D+00 0.00000000D+00 0.00000000D+00 0.00000000D+00 0.00000000D+00
  <mgrwgt>
 -.1258393116D+00   20    2    0
 0.165042075474010D+03 0.000000000000000D+00 0.000000000000000D+00 0.165042075474010D+03
 0.165042075474010D+03 -.000000000000000D+00 -.000000000000000D+00 -.165042075474010D+03
 0.166993890948918D+03 0.709755421941715D+02 0.781325159133919D+02 0.334625459513475D+02
 0.130871934970684D+03 -.534450169344321D+02 -.666782727463831D+02 -.579472649659801D+02
 0.322183250284188D+02 -.175305252597394D+02 -.114542431670088D+02 0.244847190146326D+02
 0.000000000000000D+00 0.000000000000000D+00 -.000000000000000D+00 0.000000000000000D+00
 0.165042075474010D+03 0.000000000000000D+00 0.000000000000000D+00 0.165042075474010D+03
 0.165042075474010D+03 -.000000000000000D+00 -.000000000000000D+00 -.165042075474010D+03
 0.166876845430147D+03 0.707144952304569D+02 0.779619508358432D+02 0.338271477793860D+02
 0.130897616755228D+03 -.536496893996266D+02 -.668120033763096D+02 -.576614008674395D+02
 0.230237223913605D+02 -.131202962637213D+02 -.482806338409078D+01 0.182931523435906D+02
 0.928596637128505D+01 -.394450956710892D+01 -.632188407544273D+01 0.554110074446284D+01
0.556800991140D-04 0.000000000000D+00 0.000000000000D+00 0.411935624986D-04 0.000000000000D+00  6 -1 2 25 24 21 21 2 0.32914714D-01 0.19587209D-01 0.22784633D+05 0.22784633D+05 0.22784633D+05 0.12276418D+01  1  2  2  3  6  5       21 0.230558468463D-01 0.100000000000D+01
0.113743743725D-04 0.293831955602D-05 -.213826241504D-06 0.411935624986D-04 0.000000000000D+00  6 -1 2 25 24 21 21 4 0.32914714D-01 0.19587209D-01 0.22784633D+05 0.22784633D+05 0.22784633D+05 0.12276418D+01  1  2  3  3  6  5       21 0.709826064876D-02 0.100000000000D+01
0.216685191439D-05 0.000000000000D+00 0.000000000000D+00 0.411935624986D-04 0.000000000000D+00  6 -1 2 25 24 21 21 4 0.32914714D-01 0.19587209D-01 0.22784633D+05 0.22784633D+05 0.22784633D+05 0.12276418D+01  1  2 15  3  6  5       21 0.135223961969D-02 0.100000000000D+01
0.503157449173D-05 0.000000000000D+00 0.000000000000D+00 0.411838205855D-04 0.000000000000D+00  6 -1 2 25 24 21 21 4 0.32914714D-01 0.19587209D-01 0.22855019D+05 0.22855019D+05 0.22855019D+05 0.12274966D+01  1  2 12  3  6  5       21 0.313871338379D-02 0.100000000000D+01
0.521347618607D-05 0.000000000000D+00 0.000000000000D+00 0.411838205855D-04 0.000000000000D+00  6 -1 2 25 24 21 21 4 0.32914714D-01 0.19587209D-01 0.22855019D+05 0.22855019D+05 0.22855019D+05 0.12274966D+01  1  2 12  3  6  5       21 0.325218428311D-02 0.100000000000D+01
-.484525457271D-03 0.000000000000D+00 0.000000000000D+00 0.411935624986D-04 0.000000000000D+00  6 -1 2 25 24 21 21 4 0.32914714D-01 0.19587209D-01 0.22784633D+05 0.22784633D+05 0.22784633D+05 0.12276418D+01  1  2  4  3  6  5       21 -.302371618344D+00 0.100000000000D+01
-.358322465101D-03 0.000000000000D+00 0.000000000000D+00 0.411935624986D-04 0.000000000000D+00  6 -1 2 25 24 21 21 4 0.32914714D-01 0.19587209D-01 0.22784633D+05 0.22784633D+05 0.22784633D+05 0.12276418D+01  1  2  5  3  6  5       21 -.223613727692D+00 0.100000000000D+01
0.618196946843D-03 0.000000000000D+00 -.000000000000D+00 0.411935624986D-04 0.000000000000D+00  6 -1 2 25 24 21 21 4 0.32914714D-01 0.19587209D-01 0.22784633D+05 0.22784633D+05 0.22784633D+05 0.12276418D+01  1  2  6  3  6  5       21 0.385790278854D+00 0.100000000000D+01
0.148373641001D-06 0.000000000000D+00 0.000000000000D+00 0.411838205855D-04 0.000000000000D+00  6 -1 2 25 24 1 -1 4 0.32914714D-01 0.19587209D-01 0.22855019D+05 0.22855019D+05 0.22855019D+05 0.12274966D+01  1  2 12  6  6  5       21 0.925559849262D-04 0.100000000000D+01
0.152521156881D-06 0.000000000000D+00 0.000000000000D+00 0.411838205855D-04 0.000000000000D+00  6 -1 2 25 24 1 -1 4 0.32914714D-01 0.19587209D-01 0.22855019D+05 0.22855019D+05 0.22855019D+05 0.12274966D+01  1  2 12  6  6  5       21 0.951432195228D-04 0.100000000000D+01
-.973159372876D-05 0.000000000000D+00 0.000000000000D+00 0.411935624986D-04 0.000000000000D+00  6 -1 2 25 24 1 -1 4 0.32914714D-01 0.19587209D-01 0.22784633D+05 0.22784633D+05 0.22784633D+05 0.12276418D+01  1  2  5  6  6  5       21 -.607307149847D-02 0.100000000000D+01
0.148373641001D-06 0.000000000000D+00 0.000000000000D+00 0.411838205855D-04 0.000000000000D+00  6 -1 2 25 24 2 -2 4 0.32914714D-01 0.19587209D-01 0.22855019D+05 0.22855019D+05 0.22855019D+05 0.12274966D+01  1  2 12  7  6  5       21 0.925559849262D-04 0.100000000000D+01
0.152521156881D-06 0.000000000000D+00 0.000000000000D+00 0.411838205855D-04 0.000000000000D+00  6 -1 2 25 24 2 -2 4 0.32914714D-01 0.19587209D-01 0.22855019D+05 0.22855019D+05 0.22855019D+05 0.12274966D+01  1  2 12  7  6  5       21 0.951432195228D-04 0.100000000000D+01
-.973159372876D-05 0.000000000000D+00 0.000000000000D+00 0.411935624986D-04 0.000000000000D+00  6 -1 2 25 24 2 -2 4 0.32914714D-01 0.19587209D-01 0.22784633D+05 0.22784633D+05 0.22784633D+05 0.12276418D+01  1  2  5  7  6  5       21 -.607307149847D-02 0.100000000000D+01
0.148373641001D-06 0.000000000000D+00 0.000000000000D+00 0.411838205855D-04 0.000000000000D+00  6 -1 2 25 24 3 -3 4 0.32914714D-01 0.19587209D-01 0.22855019D+05 0.22855019D+05 0.22855019D+05 0.12274966D+01  1  2 12  8  6  5       21 0.925559849262D-04 0.100000000000D+01
0.148373641001D-06 0.000000000000D+00 0.000000000000D+00 0.411838205855D-04 0.000000000000D+00  6 -1 2 25 24 4 -4 4 0.32914714D-01 0.19587209D-01 0.22855019D+05 0.22855019D+05 0.22855019D+05 0.12274966D+01  1  2 12  8  6  5       21 0.925559849262D-04 0.100000000000D+01
0.152521156881D-06 0.000000000000D+00 0.000000000000D+00 0.411838205855D-04 0.000000000000D+00  6 -1 2 25 24 3 -3 4 0.32914714D-01 0.19587209D-01 0.22855019D+05 0.22855019D+05 0.22855019D+05 0.12274966D+01  1  2 12  8  6  5       21 0.951432195228D-04 0.100000000000D+01
0.152521156881D-06 0.000000000000D+00 0.000000000000D+00 0.411838205855D-04 0.000000000000D+00  6 -1 2 25 24 4 -4 4 0.32914714D-01 0.19587209D-01 0.22855019D+05 0.22855019D+05 0.22855019D+05 0.12274966D+01  1  2 12  8  6  5       21 0.951432195228D-04 0.100000000000D+01
-.973159372876D-05 0.000000000000D+00 0.000000000000D+00 0.411935624986D-04 0.000000000000D+00  6 -1 2 25 24 3 -3 4 0.32914714D-01 0.19587209D-01 0.22784633D+05 0.22784633D+05 0.22784633D+05 0.12276418D+01  1  2  5  8  6  5       21 -.607307149847D-02 0.100000000000D+01
-.973159372876D-05 0.000000000000D+00 0.000000000000D+00 0.411935624986D-04 0.000000000000D+00  6 -1 2 25 24 4 -4 4 0.32914714D-01 0.19587209D-01 0.22784633D+05 0.22784633D+05 0.22784633D+05 0.12276418D+01  1  2  5  8  6  5       21 -.607307149847D-02 0.100000000000D+01
  </mgrwgt>
  </event>
  <event>
  5     66 -.43135346E-03 0.23610034E+02 0.75467711E-02 0.12487081E+00
       -1 -1    0    0    0  501 0.00000000E+00 0.00000000E+00 0.83375862E+02 0.83376476E+02 0.32000000E+00 0.0000E+00 0.9000E+01
        2 -1    0    0  502    0 -.00000000E+00 -.00000000E+00 -.57587153E+03 0.57587162E+03 0.32000000E+00 0.0000E+00 0.9000E+01
       25  1    1    2    0    0 -.63197123E+01 0.35160634E+01 0.18244967E+02 0.12653134E+03 0.12500000E+03 0.0000E+00 0.9000E+01
       24  1    1    2    0    0 -.12706222E+01 -.25872466E+02 -.15786926E+03 0.17905563E+03 0.80419002E+02 0.0000E+00 0.9000E+01
       21  1    1    2  502  501 0.75903345E+01 0.22356402E+02 -.35287138E+03 0.35366113E+03 0.75000000E+00 0.0000E+00 0.9000E+01
#aMCatNLO 1  0  0  5  1 0.67944024D+00 0.00000000D+00  -5  6  0 0.00000000D+00 0.00000000D+00 0.00000000D+00 0.00000000D+00 0.00000000D+00
  <mgrwgt>
 -.1951419876D+01   25    2    0
 0.219121010512535D+03 0.000000000000000D+00 0.000000000000000D+00 0.219121010512535D+03
 0.219121010512535D+03 -.000000000000000D+00 -.000000000000000D+00 -.219121010512535D+03
 0.210845731684495D+03 -.631976831968706D+01 0.351589852114036D+01 0.169642628945512D+03
 0.919402716020966D+02 -.127064659778364D+01 -.258725374806538D+02 -.362600999644577D+02
 0.135456017738479D+03 0.759041491747070D+01 0.223566389595134D+02 -.133382528981054D+03
 0.000000000000000D+00 0.000000000000000D+00 0.000000000000000D+00 -.000000000000000D+00
 0.219121010512535D+03 0.000000000000000D+00 0.000000000000000D+00 0.219121010512535D+03
 0.219121010512535D+03 -.000000000000000D+00 -.000000000000000D+00 -.219121010512535D+03
 0.210843009183980D+03 -.631957549865568D+01 0.351646645190953D+01 0.169639240598882D+03
 0.919407834751497D+02 -.127056251649036D+01 -.258722898294862D+02 -.362615774825722D+02
 0.530500099368166D+02 0.271478292438306D+01 0.937729528948560D+01 -.521440297735379D+02
 0.824082184291242D+02 0.487535509076299D+01 0.129785280880910D+02 -.812336333427716D+02
0.114543178322D-04 0.000000000000D+00 0.000000000000D+00 0.373954585818D-04 0.000000000000D+00  6 -1 2 25 24 21 21 2 0.12827110D-01 0.88595675D-01 0.13608044D+05 0.13608044D+05 0.13608044D+05 0.12526733D+01  1  2  2  3  6  5       21 0.436359749550D-02 0.100000000000D+01
0.166846554986D-05 0.604460958635D-06 -.439875964670D-07 0.373954585818D-04 0.000000000000D+00  6 -1 2 25 24 21 21 4 0.12827110D-01 0.88595675D-01 0.13608044D+05 0.13608044D+05 0.13608044D+05 0.12526733D+01  1  2  3  3  6  5       21 0.997397637451D-03 0.100000000000D+01
0.533240957066D-06 0.000000000000D+00 0.000000000000D+00 0.373954585818D-04 0.000000000000D+00  6 -1 2 25 24 21 21 4 0.12827110D-01 0.88595675D-01 0.13608044D+05 0.13608044D+05 0.13608044D+05 0.12526733D+01  1  2 15  3  6  5       21 0.318767906724D-03 0.100000000000D+01
0.898213877697D-09 0.000000000000D+00 0.000000000000D+00 0.373950409432D-04 0.000000000000D+00  6 -1 2 25 24 21 21 4 0.12827110D-01 0.88595675D-01 0.13609944D+05 0.13609944D+05 0.13609944D+05 0.12526663D+01  1  2 12  3  6  5       21 0.536935465184D-06 0.100000000000D+01
0.896013085980D-09 0.000000000000D+00 0.000000000000D+00 0.373950409432D-04 0.000000000000D+00  6 -1 2 25 24 21 21 4 0.12827110D-01 0.88595675D-01 0.13609944D+05 0.13609944D+05 0.13609944D+05 0.12526663D+01  1  2 12  3  6  5       21 0.535619873037D-06 0.100000000000D+01
-.331140747667D-01 0.000000000000D+00 0.000000000000D+00 0.373954585818D-04 0.000000000000D+00  6 -1 2 25 24 21 21 4 0.12827110D-01 0.88595675D-01 0.13608044D+05 0.13608044D+05 0.13608044D+05 0.12526733D+01  1  2  4  3  6  5       21 -.197953742237D+02 0.100000000000D+01
-.130533915613D-01 0.000000000000D+00 0.000000000000D+00 0.373954585818D-04 0.000000000000D+00  6 -1 2 25 24 21 21 4 0.12827110D-01 0.88595675D-01 0.13608044D+05 0.13608044D+05 0.13608044D+05 0.12526733D+01  1  2  5  3  6  5       21 -.780323088185D+01 0.100000000000D+01
0.301716283128D-01 0.000000000000D+00 -.000000000000D+00 0.373954585818D-04 0.000000000000D+00  6 -1 2 25 24 21 21 4 0.12827110D-01 0.88595675D-01 0.13608044D+05 0.13608044D+05 0.13608044D+05 0.12526733D+01  1  2  6  3  6  5       21 0.180363992531D+02 0.100000000000D+01
0.127743740028D-01 0.000000000000D+00 0.000000000000D+00 0.373954585818D-04 0.437564804295D-03  6 -1 2 25 24 21 21 4 0.12827110D-01 0.88595675D-01 0.13609944D+05 0.13609944D+05 0.13609944D+05 0.12526663D+01  1  2 11  3  6  5       21 0.763628197911D+01 0.100000000000D+01
0.490873156359D-10 0.000000000000D+00 0.000000000000D+00 0.373950409432D-04 0.000000000000D+00  6 -1 2 25 24 1 -1 4 0.12827110D-01 0.88595675D-01 0.13609944D+05 0.13609944D+05 0.13609944D+05 0.12526663D+01  1  2 12  6  6  5       21 0.293434796657D-07 0.100000000000D+01
0.489716876891D-10 0.000000000000D+00 0.000000000000D+00 0.373950409432D-04 0.000000000000D+00  6 -1 2 25 24 1 -1 4 0.12827110D-01 0.88595675D-01 0.13609944D+05 0.13609944D+05 0.13609944D+05 0.12526663D+01  1  2 12  6  6  5       21 0.292743594406D-07 0.100000000000D+01
-.727185894872D-03 0.000000000000D+00 0.000000000000D+00 0.373954585818D-04 0.000000000000D+00  6 -1 2 25 24 1 -1 4 0.12827110D-01 0.88595675D-01 0.13608044D+05 0.13608044D+05 0.13608044D+05 0.12526733D+01  1  2  5  6  6  5       21 -.434706903955D+00 0.100000000000D+01
0.713813458599D-03 0.000000000000D+00 0.000000000000D+00 0.373954585818D-04 0.141319553373D-04  6 -1 2 25 24 1 -1 4 0.12827110D-01 0.88595675D-01 0.13609944D+05 0.13609944D+05 0.13609944D+05 0.12526663D+01  1  2 11  6  6  5       21 0.426704341766D+00 0.100000000000D+01
0.490873156359D-10 0.000000000000D+00 0.000000000000D+00 0.373950409432D-04 0.000000000000D+00  6 -1 2 25 24 2 -2 4 0.12827110D-01 0.88595675D-01 0.13609944D+05 0.13609944D+05 0.13609944D+05 0.12526663D+01  1  2 12  7  6  5       21 0.293434796657D-07 0.100000000000D+01
0.489716876891D-10 0.000000000000D+00 0.000000000000D+00 0.373950409432D-04 0.000000000000D+00  6 -1 2 25 24 2 -2 4 0.12827110D-01 0.88595675D-01 0.13609944D+05 0.13609944D+05 0.13609944D+05 0.12526663D+01  1  2 12  7  6  5       21 0.292743594406D-07 0.100000000000D+01
-.727185894872D-03 0.000000000000D+00 0.000000000000D+00 0.373954585818D-04 0.000000000000D+00  6 -1 2 25 24 2 -2 4 0.12827110D-01 0.88595675D-01 0.13608044D+05 0.13608044D+05 0.13608044D+05 0.12526733D+01  1  2  5  7  6  5       21 -.434706903955D+00 0.100000000000D+01
0.715264289308D-03 0.000000000000D+00 0.000000000000D+00 0.373954585818D-04 0.141655041664D-04  6 -1 2 25 24 2 -2 4 0.12827110D-01 0.88595675D-01 0.13609944D+05 0.13609944D+05 0.13609944D+05 0.12526663D+01  1  2 11  7  6  5       21 0.427571621242D+00 0.100000000000D+01
0.490873156359D-10 0.000000000000D+00 0.000000000000D+00 0.373950409432D-04 0.000000000000D+00  6 -1 2 25 24 3 -3 4 0.12827110D-01 0.88595675D-01 0.13609944D+05 0.13609944D+05 0.13609944D+05 0.12526663D+01  1  2 12  8  6  5       21 0.293434796657D-07 0.100000000000D+01
0.490873156359D-10 0.000000000000D+00 0.000000000000D+00 0.373950409432D-04 0.000000000000D+00  6 -1 2 25 24 4 -4 4 0.12827110D-01 0.88595675D-01 0.13609944D+05 0.13609944D+05 0.13609944D+05 0.12526663D+01  1  2 12  8  6  5       21 0.293434796657D-07 0.100000000000D+01
0.489716876891D-10 0.000000000000D+00 0.000000000000D+00 0.373950409432D-04 0.000000000000D+00  6 -1 2 25 24 3 -3 4 0.12827110D-01 0.88595675D-01 0.13609944D+05 0.13609944D+05 0.13609944D+05 0.12526663D+01  1  2 12  8  6  5       21 0.292743594406D-07 0.100000000000D+01
0.489716876891D-10 0.000000000000D+00 0.000000000000D+00 0.373950409432D-04 0.000000000000D+00  6 -1 2 25 24 4 -4 4 0.12827110D-01 0.88595675D-01 0.13609944D+05 0.13609944D+05 0.13609944D+05 0.12526663D+01  1  2 12  8  6  5       21 0.292743594406D-07 0.100000000000D+01
-.727185894872D-03 0.000000000000D+00 0.000000000000D+00 0.373954585818D-04 0.000000000000D+00  6 -1 2 25 24 3 -3 4 0.12827110D-01 0.88595675D-01 0.13608044D+05 0.13608044D+05 0.13608044D+05 0.12526733D+01  1  2  5  8  6  5       21 -.434706903955D+00 0.100000000000D+01
-.727185894872D-03 0.000000000000D+00 0.000000000000D+00 0.373954585818D-04 0.000000000000D+00  6 -1 2 25 24 4 -4 4 0.12827110D-01 0.88595675D-01 0.13608044D+05 0.13608044D+05 0.13608044D+05 0.12526733D+01  1  2  5  8  6  5       21 -.434706903955D+00 0.100000000000D+01
0.713784933177D-03 0.000000000000D+00 0.000000000000D+00 0.373954585818D-04 0.141313886114D-04  6 -1 2 25 24 3 -3 4 0.12827110D-01 0.88595675D-01 0.13609944D+05 0.13609944D+05 0.13609944D+05 0.12526663D+01  1  2 11  8  6  5       21 0.426687289802D+00 0.100000000000D+01
0.713784933177D-03 0.000000000000D+00 0.000000000000D+00 0.373954585818D-04 0.141313886114D-04  6 -1 2 25 24 4 -4 4 0.12827110D-01 0.88595675D-01 0.13609944D+05 0.13609944D+05 0.13609944D+05 0.12526663D+01  1  2 11  8  6  5       21 0.426687289802D+00 0.100000000000D+01
  </mgrwgt>
  </event>
  <event>
  5     66 0.43135346E-03 0.25431485E+02 0.75467711E-02 0.96315598E-01
       -1 -1    0    0    0  501 0.00000000E+00 0.00000000E+00 0.94711944E+02 0.94712484E+02 0.32000000E+00 0.0000E+00 0.9000E+01
        2 -1    0    0  502    0 0.00000000E+00 0.00000000E+00 -.31274010E+03 0.31274026E+03 0.32000000E+00 0.0000E+00 0.9000E+01
       25  1    1    2    0    0 -.49781161E+02 -.10553569E+03 -.10416767E+03 0.20022950E+03 0.12500000E+03 0.0000E+00 0.9000E+01
       24  1    1    2    0    0 0.27693969E+02 0.11812427E+03 -.84226712E+02 0.16817150E+03 0.80419002E+02 0.0000E+00 0.9000E+01
       21  1    1    2  502  501 0.22087192E+02 -.12588575E+02 -.29633768E+02 0.39051748E+02 0.75000000E+00 0.0000E+00 0.9000E+01
#aMCatNLO 1  0  0  2  5 0.53754712D+02 0.00000000D+00  -5  6  0 0.00000000D+00 0.00000000D+00 0.00000000D+00 0.00000000D+00 0.00000000D+00
  <mgrwgt>
 0.3964628866D+00    5    4    0
 0.172105682598335D+03 0.000000000000000D+00 0.000000000000000D+00 0.172105682598335D+03
 0.172105682598335D+03 0.000000000000000D+00 0.000000000000000D+00 -.172105682598335D+03
 0.171035899389427D+03 -.497852580059689D+02 -.105533359546738D+03 0.352377468181251D+01
 0.145720053828035D+03 0.276904782073027D+02 0.118126259195053D+03 0.682220188127670D+01
 0.274554119792086D+02 0.220947797986662D+02 -.125928996483150D+02 -.103459765630892D+02
 0.000000000000000D+00 -.000000000000000D+00 -.000000000000000D+00 -.000000000000000D+00
 0.472478713973198D+03 0.000000000000000D+00 0.000000000000000D+00 0.472478713973198D+03
 0.206293890432589D+04 0.000000000000000D+00 0.000000000000000D+00 -.206293890432589D+04
 0.152575808129891D+03 0.516753961091701D+02 0.705096707937391D+02 0.352377468181251D+01
 0.576208397409953D+03 0.254033750669295D+03 0.510851458228081D+03 0.682220188127670D+01
 0.634443245889074D+02 0.505942021520566D+02 0.368560687010360D+02 -.103459765630892D+02
 0.174318908817034D+04 -.356303348930522D+03 -.618217197722857D+03 -.159046019035269D+04
 0.172105682598335D+03 0.000000000000000D+00 0.000000000000000D+00 0.172105682598335D+03
 0.172105682598335D+03 0.000000000000000D+00 0.000000000000000D+00 -.172105682598335D+03
 0.171035899389427D+03 -.497852580059689D+02 -.105533359546738D+03 0.352377468181251D+01
 0.145720053828035D+03 0.276904782073027D+02 0.118126259195053D+03 0.682220188127670D+01
 0.000000000000000D+00 -.000000000000000D+00 -.000000000000000D+00 -.000000000000000D+00
 0.274554119792086D+02 0.220947797986662D+02 -.125928996483150D+02 -.103459765630892D+02
 0.472478713973198D+03 0.000000000000000D+00 0.000000000000000D+00 0.472478713973198D+03
 0.206293890432589D+04 0.000000000000000D+00 0.000000000000000D+00 -.206293890432589D+04
 0.152575808129891D+03 0.516753961091701D+02 0.705096707937391D+02 0.352377468181251D+01
 0.576208397409953D+03 0.254033750669295D+03 0.510851458228081D+03 0.682220188127670D+01
 0.174318908817034D+04 -.356303348930522D+03 -.618217197722857D+03 -.159046019035269D+04
 0.634443245889074D+02 0.505942021520566D+02 0.368560687010360D+02 -.103459765630892D+02
0.499520819310D-03 0.000000000000D+00 0.000000000000D+00 0.289240259717D-04 0.000000000000D+00  6 -1 2 25 24 21 21 2 0.14571122D-01 0.48113915D-01 0.29239521D+05 0.29239521D+05 0.29239521D+05 0.12160705D+01  1  2  2  2  6  2        2 0.288879217408D+00 0.100000000000D+01
0.119108149003D-03 0.263604378471D-04 -.191829147300D-05 0.289240259717D-04 0.000000000000D+00  6 -1 2 25 24 21 21 4 0.14571122D-01 0.48113915D-01 0.29239521D+05 0.29239521D+05 0.29239521D+05 0.12160705D+01  1  2  3  2  6  2        2 0.101864222323D+00 0.100000000000D+01
0.533857498305D-05 0.000000000000D+00 0.000000000000D+00 0.289240259717D-04 0.000000000000D+00  6 -1 2 25 24 21 21 4 0.14571122D-01 0.48113915D-01 0.29239521D+05 0.29239521D+05 0.29239521D+05 0.12160705D+01  1  2 15  2  6  2        2 0.456568079945D-02 0.100000000000D+01
0.110329207869D-02 0.000000000000D+00 -.966399648123D-03 0.289240259717D-04 0.000000000000D+00  6 -1 2 25 24 21 21 4 0.14571122D-01 0.72046904D+00 0.29239521D+05 0.29239521D+05 0.29239521D+05 0.12160705D+01  1  2  5  2  6  2        2 0.115105984003D-02 0.100000000000D+01
0.122906167628D-03 0.000000000000D+00 -.294729747229D-03 0.289240259717D-04 0.000000000000D+00  6 -1 21 25 24 -2 21 4 0.14571122D-01 0.72046904D+00 0.29239521D+05 0.29239521D+05 0.29239521D+05 0.12160705D+01  3  4  5  5  5  2        2 0.270624369708D-05 0.100000000000D+01
  </mgrwgt>
  </event>
  <event>
  5     66 0.43135346E-03 0.23460817E+02 0.75467711E-02 0.11483363E+00
       -1 -1    0    0    0  501 0.00000000E+00 0.00000000E+00 0.21917509E+03 0.21917532E+03 0.32000000E+00 0.0000E+00 0.9000E+01
        2 -1    0    0  502    0 0.00000000E+00 0.00000000E+00 -.21587426E+03 0.21587449E+03 0.32000000E+00 0.0000E+00 0.9000E+01
       25  1    1    2    0    0 -.10278315E+03 0.91520199E+02 -.75117053E+02 0.20051906E+03 0.12500000E+03 0.0000E+00 0.9000E+01
       24  1    1    2    0    0 0.11563730E+03 -.11114365E+03 0.31633222E+02 0.18218884E+03 0.80419002E+02 0.0000E+00 0.9000E+01
       21  1    1    2  502  501 -.12854149E+02 0.19623453E+02 0.46784664E+02 0.52341918E+02 0.75000000E+00 0.0000E+00 0.9000E+01
#aMCatNLO 1  0  0  5  2 0.17112427D+02 0.00000000D+00  -5  6  0 0.00000000D+00 0.00000000D+00 0.00000000D+00 0.00000000D+00 0.00000000D+00
  <mgrwgt>
 0.4137186787D+00   15    2    0
 0.217518648082319D+03 0.000000000000000D+00 0.000000000000000D+00 0.217518648082319D+03
 0.217518648082319D+03 -.000000000000000D+00 -.000000000000000D+00 -.217518648082319D+03
 0.201094887252114D+03 -.102782531105434D+03 0.915192549073657D+02 -.766428793802897D+02
 0.181954608453494D+03 0.115637857984332D+03 -.111144506663614D+03 0.302497606997316D+02
 0.519878004590288D+02 -.128553268788980D+02 0.196252517562484D+02 0.463931186805581D+02
 0.000000000000000D+00 0.000000000000000D+00 0.000000000000000D+00 0.000000000000000D+00
 0.217518648082319D+03 0.000000000000000D+00 0.000000000000000D+00 0.217518648082319D+03
 0.217518648082319D+03 -.000000000000000D+00 -.000000000000000D+00 -.217518648082319D+03
 0.200934351249042D+03 -.104234850175287D+03 0.937364001923329D+02 -.714016582425903D+02
 0.180759372478243D+03 0.114327564152537D+03 -.109144180529096D+03 0.349784321537931D+02
 0.283817767986873D+02 -.172230140461517D+02 -.384712008543728D+01 0.222281962485666D+02
 0.249617956386646D+02 0.713030006890152D+01 0.192549004222000D+02 0.141950298402307D+02
0.131327469823D-02 0.000000000000D+00 0.000000000000D+00 0.297247896871D-04 0.000000000000D+00  6 -1 2 25 24 21 21 2 0.33719281D-01 0.33211460D-01 0.37791364D+05 0.37791364D+05 0.37791364D+05 0.12045133D+01  1  2  2  3  6  5       21 0.281876470275D+00 0.100000000000D+01
0.282893909758D-03 0.693034098294D-04 -.504332063438D-05 0.297247896871D-04 0.000000000000D+00  6 -1 2 25 24 21 21 4 0.33719281D-01 0.33211460D-01 0.37791364D+05 0.37791364D+05 0.37791364D+05 0.12045133D+01  1  2  3  3  6  5       21 0.880947558411D-01 0.100000000000D+01
0.677712976817D-05 0.000000000000D+00 0.000000000000D+00 0.297247896871D-04 0.000000000000D+00  6 -1 2 25 24 21 21 4 0.33719281D-01 0.33211460D-01 0.37791364D+05 0.37791364D+05 0.37791364D+05 0.12045133D+01  1  2 15  3  6  5       21 0.211043635666D-02 0.100000000000D+01
0.468244776538D-03 0.000000000000D+00 0.000000000000D+00 0.295647725595D-04 0.000000000000D+00  6 -1 2 25 24 21 21 4 0.33719281D-01 0.33211460D-01 0.40671417D+05 0.40671417D+05 0.40671417D+05 0.12012668D+01  1  2 12  3  6  5       21 0.144351011207D+00 0.100000000000D+01
-.117929593793D-02 0.000000000000D+00 0.000000000000D+00 0.297247896871D-04 0.000000000000D+00  6 -1 2 25 24 21 21 4 0.33719281D-01 0.33211460D-01 0.37791364D+05 0.37791364D+05 0.37791364D+05 0.12045133D+01  1  2  4  3  6  5       21 -.367239393047D+00 0.100000000000D+01
-.619950964293D-03 0.000000000000D+00 0.000000000000D+00 0.297247896871D-04 0.000000000000D+00  6 -1 2 25 24 21 21 4 0.33719281D-01 0.33211460D-01 0.37791364D+05 0.37791364D+05 0.37791364D+05 0.12045133D+01  1  2  5  3  6  5       21 -.193056219837D+00 0.100000000000D+01
0.158018889741D-02 0.000000000000D+00 -.000000000000D+00 0.297247896871D-04 0.000000000000D+00  6 -1 2 25 24 21 21 4 0.33719281D-01 0.33211460D-01 0.37791364D+05 0.37791364D+05 0.37791364D+05 0.12045133D+01  1  2  6  3  6  5       21 0.492079717162D+00 0.100000000000D+01
0.152750951656D-04 0.000000000000D+00 0.000000000000D+00 0.295647725595D-04 0.000000000000D+00  6 -1 2 25 24 1 -1 4 0.33719281D-01 0.33211460D-01 0.40671417D+05 0.40671417D+05 0.40671417D+05 0.12012668D+01  1  2 12  6  6  5       21 0.470902302367D-02 0.100000000000D+01
-.428172987427D-04 0.000000000000D+00 0.000000000000D+00 0.297247896871D-04 0.000000000000D+00  6 -1 2 25 24 1 -1 4 0.33719281D-01 0.33211460D-01 0.37791364D+05 0.37791364D+05 0.37791364D+05 0.12045133D+01  1  2  5  6  6  5       21 -.133335478369D-01 0.100000000000D+01
0.152750951656D-04 0.000000000000D+00 0.000000000000D+00 0.295647725595D-04 0.000000000000D+00  6 -1 2 25 24 2 -2 4 0.33719281D-01 0.33211460D-01 0.40671417D+05 0.40671417D+05 0.40671417D+05 0.12012668D+01  1  2 12  7  6  5       21 0.470902302367D-02 0.100000000000D+01
-.428172987427D-04 0.000000000000D+00 0.000000000000D+00 0.297247896871D-04 0.000000000000D+00  6 -1 2 25 24 2 -2 4 0.33719281D-01 0.33211460D-01 0.37791364D+05 0.37791364D+05 0.37791364D+05 0.12045133D+01  1  2  5  7  6  5       21 -.133335478369D-01 0.100000000000D+01
0.152750951656D-04 0.000000000000D+00 0.000000000000D+00 0.295647725595D-04 0.000000000000D+00  6 -1 2 25 24 3 -3 4 0.33719281D-01 0.33211460D-01 0.40671417D+05 0.40671417D+05 0.40671417D+05 0.12012668D+01  1  2 12  8  6  5       21 0.470902302367D-02 0.100000000000D+01
0.152750951656D-04 0.000000000000D+00 0.000000000000D+00 0.295647725595D-04 0.000000000000D+00  6 -1 2 25 24 4 -4 4 0.33719281D-01 0.33211460D-01 0.40671417D+05 0.40671417D+05 0.40671417D+05 0.12012668D+01  1  2 12  8  6  5       21 0.470902302367D-02 0.100000000000D+01
-.428172987427D-04 0.000000000000D+00 0.000000000000D+00 0.297247896871D-04 0.000000000000D+00  6 -1 2 25 24 3 -3 4 0.33719281D-01 0.33211460D-01 0.37791364D+05 0.37791364D+05 0.37791364D+05 0.12045133D+01  1  2  5  8  6  5       21 -.133335478369D-01 0.100000000000D+01
-.428172987427D-04 0.000000000000D+00 0.000000000000D+00 0.297247896871D-04 0.000000000000D+00  6 -1 2 25 24 4 -4 4 0.33719281D-01 0.33211460D-01 0.37791364D+05 0.37791364D+05 0.37791364D+05 0.12045133D+01  1  2  5  8  6  5       21 -.133335478369D-01 0.100000000000D+01
  </mgrwgt>
  </event>
  <event>
  6     66 0.43135346E-03 0.12885887E+03 0.75467711E-02 0.10664897E+00
       21 -1    0    0  503  501 0.00000000E+00 0.00000000E+00 0.64071029E+03 0.64071073E+03 0.75000000E+00 0.0000E+00 0.9000E+01
        2 -1    0    0  502    0 0.00000000E+00 0.00000000E+00 -.43845630E+03 0.43845641E+03 0.32000000E+00 0.0000E+00 0.9000E+01
       25  1    1    2    0    0 -.10933283E+03 0.56026774E+02 -.10460109E+03 0.20410550E+03 0.12500000E+03 0.0000E+00 0.9000E+01
       24  1    1    2    0    0 0.13173412E+03 0.10958255E+02 -.18344506E+03 0.23998597E+03 0.80419002E+02 0.0000E+00 0.9000E+01
        1  1    1    2  503    0 -.15771628E+03 -.12789336E+03 0.11932023E+03 0.23551763E+03 0.32000000E+00 0.0000E+00 0.9000E+01
       21  1    1    2  502  501 0.13531498E+03 0.60908335E+02 0.37097991E+03 0.39955804E+03 0.75000000E+00 0.0000E+00 0.9000E+01
#aMCatNLO 2  0  0  1  5 0.57161673D+02 0.00000000D+00  -5  6  0 0.00000000D+00 0.00000000D+00 0.00000000D+00 0.00000000D+00 0.00000000D+00
  <mgrwgt>
 0.3234118909D-01    1    2    0
 0.407319084184522D+03 0.000000000000000D+00 0.000000000000000D+00 0.407319084184522D+03
 0.407319084184522D+03 0.000000000000000D+00 0.000000000000000D+00 -.407319084184522D+03
 0.234394498825323D+03 -.152220562728334D+03 0.212488079230584D+02 -.125272381330015D+03
 0.239983706926469D+03 0.841333355239430D+02 -.276415603501992D+02 -.208044441480230D+03
 0.000000000000000D+00 -.000000000000000D+00 -.000000000000000D+00 0.000000000000000D+00
 0.340259962617252D+03 0.680872272043911D+02 0.639275242714085D+01 0.333316822810245D+03
 0.580538149074840D+03 0.000000000000000D+00 0.000000000000000D+00 0.580538149074840D+03
 0.483902110093626D+03 0.000000000000000D+00 0.000000000000000D+00 -.483902110093626D+03
 0.215431757786055D+03 -.109332845882482D+03 0.560267931434086D+02 -.125272381330015D+03
 0.259275268462840D+03 0.131734108610308D+03 0.109582790589469D+02 -.208044441480230D+03
 0.224876990456433D+03 -.157716277777949D+03 -.127893363903810D+03 0.966360389812144D+02
 0.364856242463139D+03 0.135315015050124D+03 0.609082917014548D+02 0.333316822810245D+03
0.251188804620D-03 0.000000000000D+00 0.000000000000D+00 0.112855661345D-04 0.586777343576D-09  6 21 2 25 24 1 21 4 0.98570834D-01 0.67454843D-01 0.11609003D+06 0.11609003D+06 0.11609003D+06 0.11576660D+01  1  2  1  4  5  1       -1 0.323411890948D-01 0.100000000000D+01
  </mgrwgt>
  </event>
  <event>
  6     66 0.43135346E-03 0.19268069E+02 0.75467711E-02 0.12391641E+00
       21 -1    0    0  503  501 0.00000000E+00 0.00000000E+00 0.33068547E+02 0.33077051E+02 0.75000000E+00 0.0000E+00 0.9000E+01
        2 -1    0    0  502    0 0.00000000E+00 0.00000000E+00 -.71714210E+03 0.71714217E+03 0.32000000E+00 0.0000E+00 0.9000E+01
       25  1    1    2    0    0 0.11925978E+00 -.47208122E+02 -.48597492E+03 0.50400917E+03 0.12500000E+03 0.0000E+00 0.9000E+01
       24  1    1    2    0    0 -.11516114E+02 0.27581136E+02 -.13170959E+03 0.15718770E+03 0.80419002E+02 0.0000E+00 0.9000E+01
        1  1    1    2  503    0 0.73222089E+01 0.20021863E+02 0.11528955E+01 0.21352314E+02 0.32000000E+00 0.0000E+00 0.9000E+01
       21  1    1    2  502  501 0.40746454E+01 -.39487654E+00 -.67541927E+02 0.67670031E+02 0.75000000E+00 0.0000E+00 0.9000E+01
#aMCatNLO 2  0  0  1  2 0.97233835D+02 0.00000000D+00  -5  6  0 0.00000000D+00 0.00000000D+00 0.00000000D+00 0.00000000D+00 0.00000000D+00
  <mgrwgt>
 0.1982468068D+00    1    2    0
 0.123750954541454D+03 0.000000000000000D+00 0.000000000000000D+00 0.123750954541454D+03
 0.123750954541454D+03 0.000000000000000D+00 0.000000000000000D+00 -.123750954541454D+03
 0.134979431796007D+03 0.414957855864396D+01 -.361760233529411D+02 -.356163352989340D+02
 0.100148514659496D+03 -.859544535373162D+01 0.355760156985967D+02 0.471484300938745D+02
 0.000000000000000D+00 0.000000000000000D+00 0.000000000000000D+00 0.000000000000000D+00
 0.123739626274055D+02 0.444586679508766D+01 0.600007654344412D+00 -.115320947949405D+02
 0.188262783635080D+03 0.000000000000000D+00 0.000000000000000D+00 0.188262783635080D+03
 0.125983048034331D+03 0.000000000000000D+00 0.000000000000000D+00 -.125983048034331D+03
 0.138282962546558D+03 0.114889040588444D+00 -.472084864302501D+02 -.356163352989340D+02
 0.978956891189272D+02 -.115195464728002D+02 0.275803477578355D+02 0.471484300938745D+02
 0.658274653455676D+02 0.732220890396828D+01 0.200218626528430D+02 0.622797356007493D+02
 0.122397146583577D+02 0.408244852824347D+01 -.393723980428434D+00 -.115320947949405D+02
0.614919428185D-05 0.000000000000D+00 0.000000000000D+00 0.104495364543D-02 0.126622701651D-05  6 21 2 25 24 1 21 4 0.50881129D-02 0.11032988D+00 0.14985630D+05 0.14985630D+05 0.14985630D+05 0.12478700D+01  1  2  1  4  5  1       -1 0.198246806772D+00 0.100000000000D+01
  </mgrwgt>
  </event>
  <event>
  6     66 -.43135346E-03 0.17461690E+02 0.75467711E-02 0.12309006E+00
       -1 -1    0    0    0  501 0.00000000E+00 0.00000000E+00 0.17094636E+03 0.17094666E+03 0.32000000E+00 0.0000E+00 0.9000E+01
        2 -1    0    0  502    0 0.00000000E+00 0.00000000E+00 -.98458702E+02 0.98459222E+02 0.32000000E+00 0.0000E+00 0.9000E+01
       25  1    1    2    0    0 0.12255914E+02 -.37146019E+02 0.55136492E+02 0.14210935E+03 0.12500000E+03 0.0000E+00 0.9000E+01
       24  1    1    2    0    0 -.19883276E+02 0.50773475E+02 0.15683663E+02 0.98419935E+02 0.80419002E+02 0.0000E+00 0.9000E+01
       21  1    1    2  503  501 0.10470158E+02 -.17227573E+02 0.74075056E+01 0.21490628E+02 0.75000000E+00 0.0000E+00 0.9000E+01
       21  1    1    2  502  503 -.28427953E+01 0.36001165E+01 -.57400066E+01 0.73859663E+01 0.75000000E+00 0.0000E+00 0.9000E+01
#aMCatNLO 2  0  0  5  2 0.96530592D+01 0.00000000D+00  -5  6  0 0.00000000D+00 0.00000000D+00 0.00000000D+00 0.00000000D+00 0.00000000D+00
  <mgrwgt>
 -.7136201075D+00    3    2    0
 0.129735372187428D+03 0.000000000000000D+00 0.000000000000000D+00 0.129735372187428D+03
 0.129735372187428D+03 -.000000000000000D+00 -.000000000000000D+00 -.129735372187428D+03
 0.130861872532358D+03 0.927860087537244D+01 -.318265904352105D+02 0.200201246184942D+02
 0.100223957933456D+03 -.221250225297208D+02 0.547786991880104D+02 -.934897228605616D+01
 0.283849139090426D+02 0.128464216543484D+02 -.229521087527998D+02 -.106711523324380D+02
 0.000000000000000D+00 -.000000000000000D+00 0.000000000000000D+00 0.000000000000000D+00
 0.129735372187428D+03 0.000000000000000D+00 0.000000000000000D+00 0.129735372187428D+03
 0.129735372187428D+03 -.000000000000000D+00 -.000000000000000D+00 -.129735372187428D+03
 0.132195118483700D+03 0.123540644362570D+02 -.373213792576529D+02 0.174654256498555D+02
 0.977318481404638D+02 -.198106728297020D+02 0.506437573780580D+02 -.112714358999664D+02
 0.198515290524763D+02 0.102814102194541D+02 -.168117822244604D+02 0.239578547827984D+01
 0.969224869821686D+01 -.282480182600906D+01 0.348940410405524D+01 -.858977522816894D+01
-.297059226482D-03 0.000000000000D+00 0.000000000000D+00 0.347127335607D-04 0.000000000000D+00  6 -1 2 25 24 21 21 4 0.26299503D-01 0.15147556D-01 0.15915324D+05 0.15915324D+05 0.15915324D+05 0.12449006D+01  1  2 13  3  6  5       21 -.380314388281D+00 0.100000000000D+01
-.243212340797D-03 0.000000000000D+00 0.000000000000D+00 0.347127335607D-04 0.000000000000D+00  6 -1 2 25 24 21 21 4 0.26299503D-01 0.15147556D-01 0.15915324D+05 0.15915324D+05 0.15915324D+05 0.12449006D+01  1  2 13  3  6  5       21 -.311376130976D+00 0.100000000000D+01
-.171813916948D-04 0.000000000000D+00 0.000000000000D+00 0.346459380706D-04 0.000000000000D+00  6 -1 2 25 24 21 21 4 0.26299503D-01 0.15147556D-01 0.16308698D+05 0.16308698D+05 0.16308698D+05 0.12437022D+01  1  2  8  3  6  5       21 -.219295882032D-01 0.100000000000D+01
  </mgrwgt>
  </event>
  <event>
  5     66 0.43135346E-03 0.45395071E+02 0.75467711E-02 0.10698599E+00
       -1 -1    0    0    0  501 0.00000000E+00 0.00000000E+00 0.19677451E+03 0.19677477E+03 0.32000000E+00 0.0000E+00 0.9000E+01
        2 -1    0    0  502    0 0.00000000E+00 0.00000000E+00 -.16023468E+03 0.16023500E+03 0.32000000E+00 0.0000E+00 0.9000E+01
       25  1    1    2    0    0 0.15122076E+01 -.76438902E+02 0.66484767E+02 0.16090499E+03 0.12500000E+03 0.0000E+00 0.9000E+01
       24  1    1    2    0    0 -.22518341E+02 0.11667742E+03 -.34192991E+01 0.14352562E+03 0.80419002E+02 0.0000E+00 0.9000E+01
       21  1    1    2  502  501 0.21006133E+02 -.40238518E+02 -.26525638E+02 0.52579159E+02 0.75000000E+00 0.0000E+00 0.9000E+01
#aMCatNLO 1  0  0  1  5 0.15545394D+03 0.00000000D+00  -5  6  0 0.00000000D+00 0.00000000D+00 0.00000000D+00 0.00000000D+00 0.00000000D+00
  <mgrwgt>
 0.1599729759D+00    5    4    0
 0.177567464841851D+03 0.000000000000000D+00 0.000000000000000D+00 0.177567464841851D+03
 0.177567464841851D+03 0.000000000000000D+00 0.000000000000000D+00 -.177567464841851D+03
 0.154913448801303D+03 0.151137337980283D+01 -.764373042037601D+02 0.502815164457340D+02
 0.144636313099913D+03 -.225191199194379D+02 0.116678912180511D+03 -.182035107381014D+02
 0.555851677824848D+02 0.210077465396351D+02 -.402416079767512D+02 -.320780057076326D+02
 0.000000000000000D+00 0.000000000000000D+00 0.000000000000000D+00 0.000000000000000D+00
 0.431160193628100D+03 0.000000000000000D+00 0.000000000000000D+00 0.431160193628100D+03
 0.286782935442472D+03 0.000000000000000D+00 0.000000000000000D+00 -.286782935442472D+03
 0.237757221799706D+03 -.423279189732263D+02 -.191268431522894D+03 0.502815164457340D+02
 0.105978330056361D+03 -.504987207194213D+02 0.433901128101118D+02 -.182035107381014D+02
 0.885538155367617D+02 0.491550563065851D+01 -.823930676715879D+02 -.320780057076326D+02
 0.285653761677743D+03 0.879111340619890D+02 0.230271386384371D+03 0.144377258185629D+03
 0.177567464841851D+03 0.000000000000000D+00 0.000000000000000D+00 0.177567464841851D+03
 0.177567464841851D+03 0.000000000000000D+00 0.000000000000000D+00 -.177567464841851D+03
 0.154913448801303D+03 0.151137337980283D+01 -.764373042037601D+02 0.502815164457340D+02
 0.144636313099913D+03 -.225191199194379D+02 0.116678912180511D+03 -.182035107381014D+02
 0.000000000000000D+00 0.000000000000000D+00 0.000000000000000D+00 0.000000000000000D+00
 0.555851677824848D+02 0.210077465396351D+02 -.402416079767512D+02 -.320780057076326D+02
 0.431160193628100D+03 0.000000000000000D+00 0.000000000000000D+00 0.431160193628100D+03
 0.286782935442472D+03 0.000000000000000D+00 0.000000000000000D+00 -.286782935442472D+03
 0.237757221799706D+03 -.423279189732263D+02 -.191268431522894D+03 0.502815164457340D+02
 0.105978330056361D+03 -.504987207194213D+02 0.433901128101118D+02 -.182035107381014D+02
 0.285653761677743D+03 0.879111340619890D+02 0.230271386384371D+03 0.144377258185629D+03
 0.885538155367617D+02 0.491550563065851D+01 -.823930676715879D+02 -.320780057076326D+02
0.361354899582D-03 0.000000000000D+00 0.000000000000D+00 0.932209572009D-05 0.000000000000D+00  6 -1 2 25 24 21 21 2 0.30273046D-01 0.24651534D-01 0.28124557D+05 0.28124557D+05 0.28124557D+05 0.12178519D+01  1  2  2  1  6  1       -1 0.131620517828D+00 0.100000000000D+01
0.200191767134D-04 0.190692219482D-04 -.138769796132D-05 0.932209572009D-05 0.000000000000D+00  6 -1 2 25 24 21 21 4 0.30273046D-01 0.24651534D-01 0.28124557D+05 0.28124557D+05 0.28124557D+05 0.12178519D+01  1  2  3  1  6  1       -1 0.108149572921D-01 0.100000000000D+01
0.111277456080D-04 0.000000000000D+00 0.000000000000D+00 0.932209572009D-05 0.000000000000D+00  6 -1 2 25 24 21 21 4 0.30273046D-01 0.24651534D-01 0.28124557D+05 0.28124557D+05 0.28124557D+05 0.12178519D+01  1  2 15  1  6  1       -1 0.601154059585D-02 0.100000000000D+01
0.883778480282D-04 0.000000000000D+00 -.209450005379D-03 0.932209572009D-05 0.000000000000D+00  6 -1 2 25 24 21 21 4 0.10960109D+00 0.24651534D-01 0.28124557D+05 0.28124557D+05 0.28124557D+05 0.12178519D+01  1  2  5  1  6  1       -1 0.402521019263D-02 0.100000000000D+01
0.190654782395D-04 0.000000000000D+00 -.317002199256D-04 0.932209572009D-05 0.000000000000D+00  6 21 2 25 24 1 21 4 0.10960109D+00 0.24651534D-01 0.28124557D+05 0.28124557D+05 0.28124557D+05 0.12178519D+01  3  4  5  4  5  1       -1 0.750074997608D-02 0.100000000000D+01
  </mgrwgt>
  </event>
  <event>
  5     66 0.43135346E-03 0.23129050E+02 0.75467711E-02 0.11351337E+00
       -1 -1    0    0    0  501 0.00000000E+00 0.00000000E+00 0.19828921E+03 0.19828947E+03 0.32000000E+00 0.0000E+00 0.9000E+01
        2 -1    0    0  502    0 -.00000000E+00 -.00000000E+00 -.26153541E+03 0.26153560E+03 0.32000000E+00 0.0000E+00 0.9000E+01
       25  1    1    2    0    0 -.43036644E+02 -.18166849E+03 -.62123126E+02 0.23310915E+03 0.12500000E+03 0.0000E+00 0.9000E+01
       24  1    1    2    0    0 0.54895107E+02 0.16181740E+03 0.26478722E+02 0.19070051E+03 0.80419002E+02 0.0000E+00 0.9000E+01
       21  1    1    2  502  501 -.11858463E+02 0.19851088E+02 -.27601789E+02 0.36015415E+02 0.75000000E+00 0.0000E+00 0.9000E+01
#aMCatNLO 1  0  0  5  1 0.88603417D+01 0.00000000D+00  -5  6  0 0.00000000D+00 0.00000000D+00 0.00000000D+00 0.00000000D+00 0.00000000D+00
  <mgrwgt>
 0.2939882164D+00   20    2    0
 0.227727367794651D+03 0.000000000000000D+00 0.000000000000000D+00 0.227727367794651D+03
 0.227727367794651D+03 -.000000000000000D+00 -.000000000000000D+00 -.227727367794651D+03
 0.226720706858827D+03 -.430350740415841D+02 -.181671118703489D+03 -.303457731788865D+02
 0.196206534045548D+03 0.548964653340958D+02 0.161815128467284D+03 0.532168238505003D+02
 0.325274946849260D+02 -.118613912925117D+02 0.198559902362054D+02 -.228710506716139D+02
 0.000000000000000D+00 0.000000000000000D+00 0.000000000000000D+00 0.000000000000000D+00
 0.227727367794651D+03 0.000000000000000D+00 0.000000000000000D+00 0.227727367794651D+03
 0.227727367794651D+03 -.000000000000000D+00 -.000000000000000D+00 -.227727367794651D+03
 0.225880814355566D+03 -.439902945382560D+02 -.180072077883774D+03 -.321876225743904D+02
 0.196698232618603D+03 0.540672354955599D+02 0.163203260699962D+03 0.516179087495761D+02
 0.150607700165558D+02 -.262656884399885D+01 0.137333510456487D+01 -.147662412376979D+02
 0.178149185985763D+02 -.745037211330503D+01 0.154954820792475D+02 -.466404493748780D+01
0.138041818823D-02 0.000000000000D+00 0.000000000000D+00 0.294437395393D-04 0.000000000000D+00  6 -1 2 25 24 21 21 2 0.30506068D-01 0.40236251D-01 0.47668309D+05 0.47668309D+05 0.47668309D+05 0.11943413D+01  1  2  2  3  6  5       21 0.281557851020D+00 0.100000000000D+01
0.422136616176D-03 0.728466691419D-04 -.530116931524D-05 0.294437395393D-04 0.000000000000D+00  6 -1 2 25 24 21 21 4 0.30506068D-01 0.40236251D-01 0.47668309D+05 0.47668309D+05 0.47668309D+05 0.11943413D+01  1  2  3  3  6  5       21 0.122819370956D+00 0.100000000000D+01
0.179683609959D-04 0.000000000000D+00 0.000000000000D+00 0.294437395393D-04 0.000000000000D+00  6 -1 2 25 24 21 21 4 0.30506068D-01 0.40236251D-01 0.47668309D+05 0.47668309D+05 0.47668309D+05 0.11943413D+01  1  2 15  3  6  5       21 0.522784025377D-02 0.100000000000D+01
0.434518430928D-03 0.000000000000D+00 0.000000000000D+00 0.294743842171D-04 0.000000000000D+00  6 -1 2 25 24 21 21 4 0.30506068D-01 0.40236251D-01 0.46988755D+05 0.46988755D+05 0.46988755D+05 0.11949626D+01  1  2 12  3  6  5       21 0.126669331759D+00 0.100000000000D+01
0.406307833962D-03 0.000000000000D+00 0.000000000000D+00 0.294743842171D-04 0.000000000000D+00  6 -1 2 25 24 21 21 4 0.30506068D-01 0.40236251D-01 0.46988755D+05 0.46988755D+05 0.46988755D+05 0.11949626D+01  1  2 12  3  6  5       21 0.118445474698D+00 0.100000000000D+01
-.310070115527D-02 0.000000000000D+00 0.000000000000D+00 0.294437395393D-04 0.000000000000D+00  6 -1 2 25 24 21 21 4 0.30506068D-01 0.40236251D-01 0.47668309D+05 0.47668309D+05 0.47668309D+05 0.11943413D+01  1  2  4  3  6  5       21 -.902139617413D+00 0.100000000000D+01
-.842249997943D-03 0.000000000000D+00 0.000000000000D+00 0.294437395393D-04 0.000000000000D+00  6 -1 2 25 24 21 21 4 0.30506068D-01 0.40236251D-01 0.47668309D+05 0.47668309D+05 0.47668309D+05 0.11943413D+01  1  2  5  3  6  5       21 -.245050087984D+00 0.100000000000D+01
0.255345559874D-02 0.000000000000D+00 -.000000000000D+00 0.294437395393D-04 0.000000000000D+00  6 -1 2 25 24 21 21 4 0.30506068D-01 0.40236251D-01 0.47668309D+05 0.47668309D+05 0.47668309D+05 0.11943413D+01  1  2  6  3  6  5       21 0.742920178882D+00 0.100000000000D+01
0.207482238223D-04 0.000000000000D+00 0.000000000000D+00 0.294743842171D-04 0.000000000000D+00  6 -1 2 25 24 1 -1 4 0.30506068D-01 0.40236251D-01 0.46988755D+05 0.46988755D+05 0.46988755D+05 0.11949626D+01  1  2 12  6  6  5       21 0.604845148027D-02 0.100000000000D+01
0.194168478193D-04 0.000000000000D+00 0.000000000000D+00 0.294743842171D-04 0.000000000000D+00  6 -1 2 25 24 1 -1 4 0.30506068D-01 0.40236251D-01 0.46988755D+05 0.46988755D+05 0.46988755D+05 0.11949626D+01  1  2 12  6  6  5       21 0.566033328640D-02 0.100000000000D+01
-.283321802430D-05 0.000000000000D+00 0.000000000000D+00 0.294437395393D-04 0.000000000000D+00  6 -1 2 25 24 1 -1 4 0.30506068D-01 0.40236251D-01 0.47668309D+05 0.47668309D+05 0.47668309D+05 0.11943413D+01  1  2  5  6  6  5       21 -.824316209946D-03 0.100000000000D+01
0.207482238223D-04 0.000000000000D+00 0.000000000000D+00 0.294743842171D-04 0.000000000000D+00  6 -1 2 25 24 2 -2 4 0.30506068D-01 0.40236251D-01 0.46988755D+05 0.46988755D+05 0.46988755D+05 0.11949626D+01  1  2 12  7  6  5       21 0.604845148027D-02 0.100000000000D+01
0.194168478193D-04 0.000000000000D+00 0.000000000000D+00 0.294743842171D-04 0.000000000000D+00  6 -1 2 25 24 2 -2 4 0.30506068D-01 0.40236251D-01 0.46988755D+05 0.46988755D+05 0.46988755D+05 0.11949626D+01  1  2 12  7  6  5       21 0.566033328640D-02 0.100000000000D+01
-.283321802430D-05 0.000000000000D+00 0.000000000000D+00 0.294437395393D-04 0.000000000000D+00  6 -1 2 25 24 2 -2 4 0.30506068D-01 0.40236251D-01 0.47668309D+05 0.47668309D+05 0.47668309D+05 0.11943413D+01  1  2  5  7  6  5       21 -.824316209946D-03 0.100000000000D+01
0.207482238223D-04 0.000000000000D+00 0.000000000000D+00 0.294743842171D-04 0.000000000000D+00  6 -1 2 25 24 3 -3 4 0.30506068D-01 0.40236251D-01 0.46988755D+05 0.46988755D+05 0.46988755D+05 0.11949626D+01  1  2 12  8  6  5       21 0.604845148027D-02 0.100000000000D+01
0.207482238223D-04 0.000000000000D+00 0.000000000000D+00 0.294743842171D-04 0.000000000000D+00  6 -1 2 25 24 4 -4 4 0.30506068D-01 0.40236251D-01 0.46988755D+05 0.46988755D+05 0.46988755D+05 0.11949626D+01  1  2 12  8  6  5       21 0.604845148027D-02 0.100000000000D+01
0.194168478193D-04 0.000000000000D+00 0.000000000000D+00 0.294743842171D-04 0.000000000000D+00  6 -1 2 25 24 3 -3 4 0.30506068D-01 0.40236251D-01 0.46988755D+05 0.46988755D+05 0.46988755D+05 0.11949626D+01  1  2 12  8  6  5       21 0.566033328640D-02 0.100000000000D+01
0.194168478193D-04 0.000000000000D+00 0.000000000000D+00 0.294743842171D-04 0.000000000000D+00  6 -1 2 25 24 4 -4 4 0.30506068D-01 0.40236251D-01 0.46988755D+05 0.46988755D+05 0.46988755D+05 0.11949626D+01  1  2 12  8  6  5       21 0.566033328640D-02 0.100000000000D+01
-.283321802430D-05 0.000000000000D+00 0.000000000000D+00 0.294437395393D-04 0.000000000000D+00  6 -1 2 25 24 3 -3 4 0.30506068D-01 0.40236251D-01 0.47668309D+05 0.47668309D+05 0.47668309D+05 0.11943413D+01  1  2  5  8  6  5       21 -.824316209946D-03 0.100000000000D+01
-.283321802430D-05 0.000000000000D+00 0.000000000000D+00 0.294437395393D-04 0.000000000000D+00  6 -1 2 25 24 4 -4 4 0.30506068D-01 0.40236251D-01 0.47668309D+05 0.47668309D+05 0.47668309D+05 0.11943413D+01  1  2  5  8  6  5       21 -.824316209946D-03 0.100000000000D+01
  </mgrwgt>
  </event>
  <event>
  5     66 -.43135346E-03 0.70985546E+02 0.75467711E-02 0.11733609E+00
       -1 -1    0    0    0  501 0.00000000E+00 0.00000000E+00 0.12729858E+03 0.12729898E+03 0.32000000E+00 0.0000E+00 0.9000E+01
        2 -1    0    0  502    0 0.00000000E+00 0.00000000E+00 -.40034894E+03 0.40034907E+03 0.32000000E+00 0.0000E+00 0.9000E+01
       25  1    1    2    0    0 -.45883115E+02 -.78634505E+01 -.11500362E+03 0.17611907E+03 0.12500000E+03 0.0000E+00 0.9000E+01
       24  1    1    2    0    0 0.10544165E+03 0.46485148E+02 -.21749188E+03 0.25893772E+03 0.80419002E+02 0.0000E+00 0.9000E+01
       21  1    1    2  502  501 -.59558537E+02 -.38621697E+02 0.59445134E+02 0.92591259E+02 0.75000000E+00 0.0000E+00 0.9000E+01
#aMCatNLO 1  0  0  1  5 0.41155945D+01 0.00000000D+00  -5  6  0 0.00000000D+00 0.00000000D+00 0.00000000D+00 0.00000000D+00 0.00000000D+00
  <mgrwgt>
 -.3518713587D+00   11    4    0
 0.225752056696828D+03 0.000000000000000D+00 0.000000000000000D+00 0.225752056696828D+03
 0.225752056696828D+03 0.000000000000000D+00 0.000000000000000D+00 -.225752056696828D+03
 0.136271427483433D+03 -.458828712836469D+02 -.786329269991196D+01 -.278896521860059D+02
 0.171077117535175D+03 0.105441957448820D+03 0.464853457919457D+02 -.975769974212059D+02
 0.144155568375048D+03 -.595590861651733D+02 -.386220530920338D+02 0.125466649607212D+03
 0.000000000000000D+00 -.000000000000000D+00 -.000000000000000D+00 0.000000000000000D+00
 0.270214692400079D+03 0.000000000000000D+00 0.000000000000000D+00 0.270214692400079D+03
 0.225856693247027D+03 0.000000000000000D+00 0.000000000000000D+00 -.225856693247027D+03
 0.136193365856741D+03 -.458470154463391D+02 -.662203737492507D+01 -.278896521860059D+02
 0.171535528261855D+03 0.105487044607189D+03 0.480461704614011D+02 -.975769974212059D+02
 0.143793976320709D+03 -.595211925646796D+02 -.373102545976319D+02 0.125466649607212D+03
 0.445485152078010D+02 -.118836596170368D+00 -.411387848884417D+01 0.443579991530515D+02
 0.225752056696828D+03 0.000000000000000D+00 0.000000000000000D+00 0.225752056696828D+03
 0.225752056696828D+03 0.000000000000000D+00 0.000000000000000D+00 -.225752056696828D+03
 0.136271427483433D+03 -.458828712836469D+02 -.786329269991196D+01 -.278896521860059D+02
 0.171077117535175D+03 0.105441957448820D+03 0.464853457919457D+02 -.975769974212059D+02
 0.000000000000000D+00 -.000000000000000D+00 -.000000000000000D+00 0.000000000000000D+00
 0.144155568375048D+03 -.595590861651733D+02 -.386220530920338D+02 0.125466649607212D+03
 0.270214692400079D+03 0.000000000000000D+00 0.000000000000000D+00 0.270214692400079D+03
 0.225856693247027D+03 0.000000000000000D+00 0.000000000000000D+00 -.225856693247027D+03
 0.136193365856741D+03 -.458470154463391D+02 -.662203737492507D+01 -.278896521860059D+02
 0.171535528261855D+03 0.105487044607189D+03 0.480461704614011D+02 -.975769974212059D+02
 0.445485152078010D+02 -.118836596170368D+00 -.411387848884417D+01 0.443579991530515D+02
 0.143793976320709D+03 -.595211925646796D+02 -.373102545976319D+02 0.125466649607212D+03
0.235727125904D-04 0.000000000000D+00 0.000000000000D+00 0.534830416031D-05 0.000000000000D+00  6 -1 2 25 24 21 21 2 0.19584437D-01 0.61592186D-01 0.29737849D+05 0.29737849D+05 0.29737849D+05 0.12152987D+01  1  2  2  1  6  1       -1 0.652892356582D-02 0.100000000000D+01
-.354625486813D-06 0.124396621944D-05 -.905254231848D-07 0.534830416031D-05 0.000000000000D+00  6 -1 2 25 24 21 21 4 0.19584437D-01 0.61592186D-01 0.29737849D+05 0.29737849D+05 0.29737849D+05 0.12152987D+01  1  2  3  1  6  1       -1 -.145066790176D-03 0.100000000000D+01
0.705409157347D-06 0.000000000000D+00 0.000000000000D+00 0.534830416031D-05 0.000000000000D+00  6 -1 2 25 24 21 21 4 0.19584437D-01 0.61592186D-01 0.29737849D+05 0.29737849D+05 0.29737849D+05 0.12152987D+01  1  2 15  1  6  1       -1 0.288562007025D-03 0.100000000000D+01
0.747952198272D-03 0.000000000000D+00 0.000000000000D+00 0.533938853960D-05 0.000000000000D+00  6 -1 2 25 24 21 21 4 0.23559565D-01 0.61592186D-01 0.30406583D+05 0.30406583D+05 0.30406583D+05 0.12142853D+01  1  2 12  1  6  1       -1 0.225816475011D+00 0.100000000000D+01
-.777829692224D-02 0.000000000000D+00 0.000000000000D+00 0.534830416031D-05 0.000000000000D+00  6 -1 2 25 24 21 21 4 0.19584437D-01 0.61592186D-01 0.29737849D+05 0.29737849D+05 0.29737849D+05 0.12152987D+01  1  2  4  1  6  1       -1 -.318187104284D+01 0.100000000000D+01
-.625936665744D-02 0.000000000000D+00 -.316598589962D-04 0.534830416031D-05 0.000000000000D+00  6 -1 2 25 24 21 21 4 0.23446677D-01 0.61592186D-01 0.29737849D+05 0.29737849D+05 0.29737849D+05 0.12152987D+01  1  2  5  1  6  1       -1 -.191077555062D+01 0.100000000000D+01
0.616542854986D-02 0.000000000000D+00 0.311538391051D-04 0.534830416031D-05 0.000000000000D+00  6 -1 2 25 24 21 21 4 0.19584437D-01 0.61592186D-01 0.29737849D+05 0.29737849D+05 0.29737849D+05 0.12152987D+01  1  2  6  1  6  1       -1 0.252209433062D+01 0.100000000000D+01
0.662219949505D-02 0.000000000000D+00 0.000000000000D+00 0.534830416031D-05 0.156945552946D-05  6 -1 2 25 24 21 21 4 0.23441659D-01 0.61620734D-01 0.30406583D+05 0.30406583D+05 0.30406583D+05 0.12142853D+01  1  2 11  1  6  1       -1 0.201485814616D+01 0.100000000000D+01
0.201355053670D-04 0.000000000000D+00 0.000000000000D+00 0.533938853960D-05 0.000000000000D+00  6 21 2 25 24 1 21 4 0.23559565D-01 0.61592186D-01 0.30406583D+05 0.30406583D+05 0.30406583D+05 0.12142853D+01  3  4 12  4  5  1       -1 0.740337015199D-01 0.100000000000D+01
-.164775493152D-03 0.000000000000D+00 -.834969864384D-06 0.534830416031D-05 0.000000000000D+00  6 21 2 25 24 1 21 4 0.23446677D-01 0.61592186D-01 0.29737849D+05 0.29737849D+05 0.29737849D+05 0.12152987D+01  3  4  5  4  5  1       -1 -.613606888354D+00 0.100000000000D+01
0.137710929467D-03 0.000000000000D+00 0.000000000000D+00 0.534830416031D-05 0.652664508555D-07  6 21 2 25 24 1 21 4 0.23441659D-01 0.61620734D-01 0.30406583D+05 0.30406583D+05 0.30406583D+05 0.12142853D+01  3  4 11  4  5  1       -1 0.510907051044D+00 0.100000000000D+01
  </mgrwgt>
  </event>
  <event>
  5     66 0.43135346E-03 0.22424346E+02 0.75467711E-02 0.11221276E+00
       -3 -1    0    0    0  501 0.00000000E+00 0.00000000E+00 0.21463173E+02 0.21468996E+02 0.50000000E+00 0.0000E+00 0.9000E+01
        4 -1    0    0  502    0 0.00000000E+00 0.00000000E+00 -.12979363E+04 0.12979372E+04 0.15500000E+01 0.0000E+00 0.9000E+01
       25  1    1    2    0    0 -.60450679E+02 0.82061558E+02 -.71355507E+03 0.73155602E+03 0.12500000E+03 0.0000E+00 0.9000E+01
       24  1    1    2    0    0 0.66029092E+02 -.10376904E+03 -.48662031E+03 0.50832509E+03 0.80419002E+02 0.0000E+00 0.9000E+01
       21  1    1    2  502  501 -.55784135E+01 0.21707480E+02 -.76297728E+02 0.79525086E+02 0.75000000E+00 0.0000E+00 0.9000E+01
#aMCatNLO 1  0  0  2  5 0.13015502D+01 0.00000000D+00  -5  6  0 0.00000000D+00 0.00000000D+00 0.00000000D+00 0.00000000D+00 0.00000000D+00
  <mgrwgt>
 0.7132330100D-02    5    4    0
 0.166919989539896D+03 0.000000000000000D+00 0.000000000000000D+00 0.166919989539896D+03
 0.166919989539896D+03 0.000000000000000D+00 0.000000000000000D+00 -.166919989539896D+03
 0.162906084104170D+03 -.604491739622719D+02 0.820557035771974D+02 -.229379841286239D+02
 0.148367359882264D+03 0.660304622458814D+02 -.103774370889097D+03 0.204087120179080D+02
 0.225665350933588D+02 -.558128828360956D+01 0.217186673119000D+02 0.252927211071588D+01
 0.000000000000000D+00 0.000000000000000D+00 -.000000000000000D+00 -.000000000000000D+00
 0.197038702170885D+03 0.000000000000000D+00 0.000000000000000D+00 0.197038702170885D+03
 0.365448030784118D+03 0.000000000000000D+00 0.000000000000000D+00 -.365448030784118D+03
 0.199203180473691D+03 -.123414218892093D+03 0.911026156057196D+02 -.229379841286239D+02
 0.128771141846937D+03 0.178404822587489D+02 -.968503623366418D+02 0.204087120179080D+02
 0.271262791813688D+02 -.142220787564661D+02 0.229601890379934D+02 0.252927211071588D+01
 0.207386131453006D+03 0.119795815389810D+03 -.172124423070712D+02 -.168409328613232D+03
 0.166919989539896D+03 0.000000000000000D+00 0.000000000000000D+00 0.166919989539896D+03
 0.166919989539896D+03 0.000000000000000D+00 0.000000000000000D+00 -.166919989539896D+03
 0.162906084104170D+03 -.604491739622719D+02 0.820557035771974D+02 -.229379841286239D+02
 0.148367359882264D+03 0.660304622458814D+02 -.103774370889097D+03 0.204087120179080D+02
 0.000000000000000D+00 0.000000000000000D+00 -.000000000000000D+00 -.000000000000000D+00
 0.225665350933588D+02 -.558128828360956D+01 0.217186673119000D+02 0.252927211071588D+01
 0.197038702170885D+03 0.000000000000000D+00 0.000000000000000D+00 0.197038702170885D+03
 0.365448030784118D+03 0.000000000000000D+00 0.000000000000000D+00 -.365448030784118D+03
 0.199203180473691D+03 -.123414218892093D+03 0.911026156057196D+02 -.229379841286239D+02
 0.128771141846937D+03 0.178404822587489D+02 -.968503623366418D+02 0.204087120179080D+02
 0.207386131453006D+03 0.119795815389810D+03 -.172124423070712D+02 -.168409328613232D+03
 0.271262791813688D+02 -.142220787564661D+02 0.229601890379934D+02 0.252927211071588D+01
0.275122755583D-03 0.000000000000D+00 0.000000000000D+00 0.368162544129D-04 0.000000000000D+00  6 -3 4 25 24 21 21 2 0.33025457D-02 0.19968302D+00 0.27334744D+05 0.27334744D+05 0.27334744D+05 0.12191622D+01  1  2  2  2  6  2        4 0.532486184388D-02 0.100000000000D+01
0.778917498054D-04 0.145186266889D-04 -.105654382293D-05 0.368162544129D-04 0.000000000000D+00  6 -3 4 25 24 21 21 4 0.33025457D-02 0.19968302D+00 0.27334744D+05 0.27334744D+05 0.27334744D+05 0.12191622D+01  1  2  3  2  6  2        4 0.224076473916D-02 0.100000000000D+01
0.684949945615D-05 0.000000000000D+00 0.000000000000D+00 0.368162544129D-04 0.000000000000D+00  6 -3 4 25 24 21 21 4 0.33025457D-02 0.19968302D+00 0.27334744D+05 0.27334744D+05 0.27334744D+05 0.12191622D+01  1  2 15  2  6  2        4 0.197044191465D-03 0.100000000000D+01
-.328776498277D-03 0.000000000000D+00 -.134424288586D-03 0.368162544129D-04 0.000000000000D+00  6 -3 4 25 24 21 21 4 0.33025457D-02 0.45636020D+00 0.27334744D+05 0.27334744D+05 0.27334744D+05 0.12191622D+01  1  2  5  2  6  2        4 -.238668564773D-03 0.100000000000D+01
-.210503708113D-04 0.000000000000D+00 -.120837665751D-04 0.368162544129D-04 0.000000000000D+00  6 -3 21 25 24 -4 21 4 0.33025457D-02 0.45636020D+00 0.27334744D+05 0.27334744D+05 0.27334744D+05 0.12191622D+01  3  4  5  5  5  2        4 -.391672109723D-03 0.100000000000D+01
  </mgrwgt>
  </event>
  <event>
  5     66 -.43135346E-03 0.20546573E+02 0.75467711E-02 0.12448447E+00
       -1 -1    0    0    0  501 0.00000000E+00 0.00000000E+00 0.14594085E+03 0.14594120E+03 0.32000000E+00 0.0000E+00 0.9000E+01
        2 -1    0    0  502    0 0.00000000E+00 0.00000000E+00 -.98986312E+02 0.98986829E+02 0.32000000E+00 0.0000E+00 0.9000E+01
       25  1    1    2    0    0 0.91354181E+01 -.41697450E+02 0.14698642E+02 0.13290291E+03 0.12500000E+03 0.0000E+00 0.9000E+01
       24  1    1    2    0    0 0.58863292E+01 0.27696625E+02 0.33103176E+02 0.91459216E+02 0.80419002E+02 0.0000E+00 0.9000E+01
       21  1    1    2  502  501 -.15021747E+02 0.14000825E+02 -.84728093E+00 0.20565903E+02 0.75000000E+00 0.0000E+00 0.9000E+01
#aMCatNLO 1  0  0  5  2 0.24727398D+01 0.00000000D+00  -5  6  0 0.00000000D+00 0.00000000D+00 0.00000000D+00 0.00000000D+00 0.00000000D+00
  <mgrwgt>
 -.1001415082D+02   20    2    0
 0.120192564796857D+03 0.000000000000000D+00 0.000000000000000D+00 0.120192564796857D+03
 0.120192564796857D+03 -.000000000000000D+00 -.000000000000000D+00 -.120192564796857D+03
 0.132545224215683D+03 0.914064570608130D+01 -.417023226715397D+02 -.109818642433939D+02
 0.867210091695385D+02 0.588974946183102D+01 0.276934373993290D+02 0.158651143487517D+02
 0.211188962084916D+02 -.150303951679123D+02 0.140088852722107D+02 -.488325010535777D+01
 0.000000000000000D+00 0.000000000000000D+00 0.000000000000000D+00 -.000000000000000D+00
 0.120192564796857D+03 0.000000000000000D+00 0.000000000000000D+00 0.120192564796857D+03
 0.120192564796857D+03 -.000000000000000D+00 -.000000000000000D+00 -.120192564796857D+03
 0.132363682574750D+03 0.859290272330332D+01 -.411918059140843D+02 -.111598213728292D+02
 0.867835405284316D+02 0.553100010633163D+01 0.280278050926947D+02 0.157485596734774D+02
 0.181270305340583D+02 -.126869302212211D+02 0.128141122263472D+02 -.185190858174188D+01
 0.311087595647297D+01 -.143697260841386D+01 0.349888595042360D+00 -.273682971890638D+01
0.603527638024D-03 0.000000000000D+00 0.000000000000D+00 0.597641666865D-04 0.000000000000D+00  6 -1 2 25 24 21 21 2 0.22452505D-01 0.15228730D-01 0.14148331D+05 0.14148331D+05 0.14148331D+05 0.12507270D+01  1  2  2  3  6  5       21 0.644926414085D+00 0.100000000000D+01
0.119525156237D-03 0.318490284612D-04 -.231770504249D-05 0.597641666865D-04 0.000000000000D+00  6 -1 2 25 24 21 21 4 0.22452505D-01 0.15228730D-01 0.14148331D+05 0.14148331D+05 0.14148331D+05 0.12507270D+01  1  2  3  3  6  5       21 0.199800867535D+00 0.100000000000D+01
0.307769061603D-04 0.000000000000D+00 0.000000000000D+00 0.597641666865D-04 0.000000000000D+00  6 -1 2 25 24 21 21 4 0.22452505D-01 0.15228730D-01 0.14148331D+05 0.14148331D+05 0.14148331D+05 0.12507270D+01  1  2 15  3  6  5       21 0.514473500344D-01 0.100000000000D+01
0.807627278213D-06 0.000000000000D+00 0.000000000000D+00 0.598102834754D-04 0.000000000000D+00  6 -1 2 25 24 21 21 4 0.22452505D-01 0.15228730D-01 0.14012187D+05 0.14012187D+05 0.14012187D+05 0.12512095D+01  1  2 12  3  6  5       21 0.135166198176D-02 0.100000000000D+01
0.788885540048D-06 0.000000000000D+00 0.000000000000D+00 0.598102834754D-04 0.000000000000D+00  6 -1 2 25 24 21 21 4 0.22452505D-01 0.15228730D-01 0.14012187D+05 0.14012187D+05 0.14012187D+05 0.12512095D+01  1  2 12  3  6  5       21 0.132029541499D-02 0.100000000000D+01
-.721478347572D-02 0.000000000000D+00 0.000000000000D+00 0.597641666865D-04 0.000000000000D+00  6 -1 2 25 24 21 21 4 0.22452505D-01 0.15228730D-01 0.14148331D+05 0.14148331D+05 0.14148331D+05 0.12507270D+01  1  2  4  3  6  5       21 -.120603899874D+02 0.100000000000D+01
-.254762888420D-02 0.000000000000D+00 0.000000000000D+00 0.597641666865D-04 0.000000000000D+00  6 -1 2 25 24 21 21 4 0.22452505D-01 0.15228730D-01 0.14148331D+05 0.14148331D+05 0.14148331D+05 0.12507270D+01  1  2  5  3  6  5       21 -.425867220963D+01 0.100000000000D+01
0.330979869234D-02 0.000000000000D+00 -.000000000000D+00 0.597641666865D-04 0.000000000000D+00  6 -1 2 25 24 21 21 4 0.22452505D-01 0.15228730D-01 0.14148331D+05 0.14148331D+05 0.14148331D+05 0.12507270D+01  1  2  6  3  6  5       21 0.553273194457D+01 0.100000000000D+01
0.685168489889D-07 0.000000000000D+00 0.000000000000D+00 0.598102834754D-04 0.000000000000D+00  6 -1 2 25 24 1 -1 4 0.22452505D-01 0.15228730D-01 0.14012187D+05 0.14012187D+05 0.14012187D+05 0.12512095D+01  1  2 12  6  6  5       21 0.114671238066D-03 0.100000000000D+01
0.678564236624D-07 0.000000000000D+00 0.000000000000D+00 0.598102834754D-04 0.000000000000D+00  6 -1 2 25 24 1 -1 4 0.22452505D-01 0.15228730D-01 0.14012187D+05 0.14012187D+05 0.14012187D+05 0.12512095D+01  1  2 12  6  6  5       21 0.113565936363D-03 0.100000000000D+01
-.190802872710D-04 0.000000000000D+00 0.000000000000D+00 0.597641666865D-04 0.000000000000D+00  6 -1 2 25 24 1 -1 4 0.22452505D-01 0.15228730D-01 0.14148331D+05 0.14148331D+05 0.14148331D+05 0.12507270D+01  1  2  5  6  6  5       21 -.318950258637D-01 0.100000000000D+01
0.685168489889D-07 0.000000000000D+00 0.000000000000D+00 0.598102834754D-04 0.000000000000D+00  6 -1 2 25 24 2 -2 4 0.22452505D-01 0.15228730D-01 0.14012187D+05 0.14012187D+05 0.14012187D+05 0.12512095D+01  1  2 12  7  6  5       21 0.114671238066D-03 0.100000000000D+01
0.678564236624D-07 0.000000000000D+00 0.000000000000D+00 0.598102834754D-04 0.000000000000D+00  6 -1 2 25 24 2 -2 4 0.22452505D-01 0.15228730D-01 0.14012187D+05 0.14012187D+05 0.14012187D+05 0.12512095D+01  1  2 12  7  6  5       21 0.113565936363D-03 0.100000000000D+01
-.190802872710D-04 0.000000000000D+00 0.000000000000D+00 0.597641666865D-04 0.000000000000D+00  6 -1 2 25 24 2 -2 4 0.22452505D-01 0.15228730D-01 0.14148331D+05 0.14148331D+05 0.14148331D+05 0.12507270D+01  1  2  5  7  6  5       21 -.318950258637D-01 0.100000000000D+01
0.685168489889D-07 0.000000000000D+00 0.000000000000D+00 0.598102834754D-04 0.000000000000D+00  6 -1 2 25 24 3 -3 4 0.22452505D-01 0.15228730D-01 0.14012187D+05 0.14012187D+05 0.14012187D+05 0.12512095D+01  1  2 12  8  6  5       21 0.114671238066D-03 0.100000000000D+01
0.685168489889D-07 0.000000000000D+00 0.000000000000D+00 0.598102834754D-04 0.000000000000D+00  6 -1 2 25 24 4 -4 4 0.22452505D-01 0.15228730D-01 0.14012187D+05 0.14012187D+05 0.14012187D+05 0.12512095D+01  1  2 12  8  6  5       21 0.114671238066D-03 0.100000000000D+01
0.678564236624D-07 0.000000000000D+00 0.000000000000D+00 0.598102834754D-04 0.000000000000D+00  6 -1 2 25 24 3 -3 4 0.22452505D-01 0.15228730D-01 0.14012187D+05 0.14012187D+05 0.14012187D+05 0.12512095D+01  1  2 12  8  6  5       21 0.113565936363D-03 0.100000000000D+01
0.678564236624D-07 0.000000000000D+00 0.000000000000D+00 0.598102834754D-04 0.000000000000D+00  6 -1 2 25 24 4 -4 4 0.22452505D-01 0.15228730D-01 0.14012187D+05 0.14012187D+05 0.14012187D+05 0.12512095D+01  1  2 12  8  6  5       21 0.113565936363D-03 0.100000000000D+01
-.190802872710D-04 0.000000000000D+00 0.000000000000D+00 0.597641666865D-04 0.000000000000D+00  6 -1 2 25 24 3 -3 4 0.22452505D-01 0.15228730D-01 0.14148331D+05 0.14148331D+05 0.14148331D+05 0.12507270D+01  1  2  5  8  6  5       21 -.318950258637D-01 0.100000000000D+01
-.190802872710D-04 0.000000000000D+00 0.000000000000D+00 0.597641666865D-04 0.000000000000D+00  6 -1 2 25 24 4 -4 4 0.22452505D-01 0.15228730D-01 0.14148331D+05 0.14148331D+05 0.14148331D+05 0.12507270D+01  1  2  5  8  6  5       21 -.318950258637D-01 0.100000000000D+01
  </mgrwgt>
  </event>
  <event>
  5     66 0.43135346E-03 0.34178297E+02 0.75467711E-02 0.11804479E+00
       -1 -1    0    0    0  501 0.00000000E+00 0.00000000E+00 0.74244651E+02 0.74245340E+02 0.32000000E+00 0.0000E+00 0.9000E+01
        2 -1    0    0  502    0 -.00000000E+00 -.00000000E+00 -.51088624E+03 0.51088634E+03 0.32000000E+00 0.0000E+00 0.9000E+01
       25  1    1    2    0    0 -.60116150E+02 -.10683766E+03 -.22681034E+03 0.28652429E+03 0.12500000E+03 0.0000E+00 0.9000E+01
       24  1    1    2    0    0 0.66600566E+02 0.73281465E+02 -.22697337E+03 0.26036500E+03 0.80419002E+02 0.0000E+00 0.9000E+01
       21  1    1    2  502  501 -.64844161E+01 0.33556199E+02 0.17142113E+02 0.38242394E+02 0.75000000E+00 0.0000E+00 0.9000E+01
#aMCatNLO 1  0  0  5  1 0.12795866D+01 0.00000000D+00  -5  6  0 0.00000000D+00 0.00000000D+00 0.00000000D+00 0.00000000D+00 0.00000000D+00
  <mgrwgt>
 0.8242731753D-01   11    2    0
 0.194758315661972D+03 0.000000000000000D+00 0.000000000000000D+00 0.194758315661972D+03
 0.194758315661972D+03 -.000000000000000D+00 -.000000000000000D+00 -.194758315661972D+03
 0.176166620421621D+03 -.601160096499445D+02 -.106838390828006D+03 -.195269500902109D+02
 0.136687008594810D+03 0.666006750124809D+02 0.732809015266165D+02 -.490956405758729D+02
 0.766630023075134D+02 -.648466536253638D+01 0.335574893013891D+02 0.686225906660837D+02
 0.000000000000000D+00 0.000000000000000D+00 0.000000000000000D+00 -.000000000000000D+00
 0.194758315661972D+03 0.000000000000000D+00 0.000000000000000D+00 0.194758315661972D+03
 0.194758315661972D+03 -.000000000000000D+00 -.000000000000000D+00 -.194758315661972D+03
 0.175272669305159D+03 -.603458884895620D+02 -.105648791015247D+03 -.170943062093106D+02
 0.136432640642118D+03 0.664220255846036D+02 0.742053942998793D+02 -.472051210383836D+02
 0.746905930988017D+02 -.573851301298563D+01 0.316864605405502D+02 0.673923021142824D+02
 0.312072827786566D+01 -.337624082056011D+00 -.243063825182801D+00 -.309287486658832D+01
0.122729942816D-03 0.000000000000D+00 0.000000000000D+00 0.178569924159D-04 0.000000000000D+00  6 -1 2 25 24 21 21 2 0.11422315D-01 0.78597944D-01 0.28362745D+05 0.28362745D+05 0.28362745D+05 0.12174648D+01  1  2  2  3  6  5       21 0.611202878726D-01 0.100000000000D+01
0.122391210729D-04 0.647663701794D-05 -.471315295949D-06 0.178569924159D-04 0.000000000000D+00  6 -1 2 25 24 21 21 4 0.11422315D-01 0.78597944D-01 0.28362745D+05 0.28362745D+05 0.28362745D+05 0.12174648D+01  1  2  3  3  6  5       21 0.903437067246D-02 0.100000000000D+01
0.464765419019D-05 0.000000000000D+00 0.000000000000D+00 0.178569924159D-04 0.000000000000D+00  6 -1 2 25 24 21 21 4 0.11422315D-01 0.78597944D-01 0.28362745D+05 0.28362745D+05 0.28362745D+05 0.12174648D+01  1  2 15  3  6  5       21 0.343069003579D-02 0.100000000000D+01
-.699660972337D-04 0.000000000000D+00 0.000000000000D+00 0.178569924159D-04 0.000000000000D+00  6 -1 2 25 24 21 21 4 0.11422315D-01 0.78597944D-01 0.28362745D+05 0.28362745D+05 0.28362745D+05 0.12174648D+01  1  2  4  3  6  5       21 -.516458374054D-01 0.100000000000D+01
0.171863500281D-08 0.000000000000D+00 0.000000000000D+00 0.178569924159D-04 0.000000000000D+00  6 -1 2 25 24 21 21 4 0.11422315D-01 0.78597944D-01 0.28362745D+05 0.28362745D+05 0.28362745D+05 0.12174648D+01  1  2  5  3  6  5       21 0.126861933742D-05 0.100000000000D+01
-.178509674080D-08 0.000000000000D+00 0.000000000000D+00 0.178569924159D-04 0.000000000000D+00  6 -1 2 25 24 21 21 4 0.11422315D-01 0.78597944D-01 0.28362745D+05 0.28362745D+05 0.28362745D+05 0.12174648D+01  1  2  6  3  6  5       21 -.131767841388D-05 0.100000000000D+01
0.781721722248D-04 0.000000000000D+00 0.000000000000D+00 0.178569924159D-04 0.452484771809D-03  6 -1 2 25 24 21 21 4 0.11422315D-01 0.78597944D-01 0.28066471D+05 0.28066471D+05 0.28066471D+05 0.12179468D+01  1  2 11  3  6  5       21 0.577842023976D-01 0.100000000000D+01
0.858451888152D-06 0.000000000000D+00 0.000000000000D+00 0.178711363759D-04 0.162091669780D-07  6 -1 2 25 24 1 -1 4 0.11422315D-01 0.78597944D-01 0.28066471D+05 0.28066471D+05 0.28066471D+05 0.12179468D+01  1  2 11  6  6  5       21 0.634560307611D-03 0.100000000000D+01
0.931894005952D-06 0.000000000000D+00 0.000000000000D+00 0.178711363759D-04 0.143969123477D-07  6 -1 2 25 24 2 -2 4 0.11422315D-01 0.78597944D-01 0.28066471D+05 0.28066471D+05 0.28066471D+05 0.12179468D+01  1  2 11  7  6  5       21 0.688848094155D-03 0.100000000000D+01
0.933617795715D-06 0.000000000000D+00 0.000000000000D+00 0.178711363759D-04 0.143939627573D-07  6 -1 2 25 24 3 -3 4 0.11422315D-01 0.78597944D-01 0.28066471D+05 0.28066471D+05 0.28066471D+05 0.12179468D+01  1  2 11  8  6  5       21 0.690122304833D-03 0.100000000000D+01
0.933617795715D-06 0.000000000000D+00 0.000000000000D+00 0.178711363759D-04 0.143939627573D-07  6 -1 2 25 24 4 -4 4 0.11422315D-01 0.78597944D-01 0.28066471D+05 0.28066471D+05 0.28066471D+05 0.12179468D+01  1  2 11  8  6  5       21 0.690122304833D-03 0.100000000000D+01
  </mgrwgt>
  </event>
  <event>
  5     66 0.43135346E-03 0.22510161E+02 0.75467711E-02 0.11753324E+00
       -1 -1    0    0    0  501 0.00000000E+00 0.00000000E+00 0.44241831E+02 0.44242988E+02 0.32000000E+00 0.0000E+00 0.9000E+01
        2 -1    0    0  502    0 0.00000000E+00 0.00000000E+00 -.72757623E+03 0.72757630E+03 0.32000000E+00 0.0000E+00 0.9000E+01
       25  1    1    2    0    0 0.72020932E+02 0.88193304E+01 -.58391315E+03 0.60153500E+03 0.12500000E+03 0.0000E+00 0.9000E+01
       24  1    1    2    0    0 -.71487446E+02 -.31312014E+02 -.66205098E+02 0.13015847E+03 0.80419002E+02 0.0000E+00 0.9000E+01
       21  1    1    2  502  501 -.53348541E+00 0.22492684E+02 -.33216148E+02 0.40125807E+02 0.75000000E+00 0.0000E+00 0.9000E+01
#aMCatNLO 1  0  0  2  1 0.31613191D+01 0.00000000D+00  -5  6  0 0.00000000D+00 0.00000000D+00 0.00000000D+00 0.00000000D+00 0.00000000D+00
  <mgrwgt>
 0.3650368316D+00    7    4    0
 0.179415099941242D+03 0.000000000000000D+00 0.000000000000000D+00 0.179415099941242D+03
 0.179415099941242D+03 0.000000000000000D+00 0.000000000000000D+00 -.179415099941242D+03
 0.181892671296251D+03 0.720210749140694D+02 0.881329157098337D+01 -.110432035801179D+03
 0.153885248236701D+03 -.714873251008912D+02 -.313171233374862D+02 0.105462096538448D+03
 0.230522803495309D+02 -.533749813178143D+00 0.225038317665028D+02 0.496993926273117D+01
 0.000000000000000D+00 0.000000000000000D+00 -.000000000000000D+00 -.000000000000000D+00
 0.197492821608428D+03 0.000000000000000D+00 0.000000000000000D+00 0.197492821608428D+03
 0.238885466280257D+03 0.000000000000000D+00 0.000000000000000D+00 -.238885466280257D+03
 0.176589862356957D+03 0.502814103616954D+02 0.289054446098813D+02 -.110432035801179D+03
 0.161193755269926D+03 -.905948441588676D+02 -.136576421536057D+02 0.105462096538448D+03
 0.259739068267831D+02 -.350687336436912D+01 0.252516411105783D+02 0.496993926273117D+01
 0.726207634350184D+02 0.438203071615413D+02 -.404994435668540D+02 -.413926446718290D+02
 0.179415099941242D+03 0.000000000000000D+00 0.000000000000000D+00 0.179415099941242D+03
 0.179415099941242D+03 0.000000000000000D+00 0.000000000000000D+00 -.179415099941242D+03
 0.181892671296251D+03 0.720210749140694D+02 0.881329157098337D+01 -.110432035801179D+03
 0.153885248236701D+03 -.714873251008912D+02 -.313171233374862D+02 0.105462096538448D+03
 0.000000000000000D+00 0.000000000000000D+00 -.000000000000000D+00 -.000000000000000D+00
 0.230522803495309D+02 -.533749813178143D+00 0.225038317665028D+02 0.496993926273117D+01
 0.197492821608428D+03 0.000000000000000D+00 0.000000000000000D+00 0.197492821608428D+03
 0.238885466280257D+03 0.000000000000000D+00 0.000000000000000D+00 -.238885466280257D+03
 0.176589862356957D+03 0.502814103616954D+02 0.289054446098813D+02 -.110432035801179D+03
 0.161193755269926D+03 -.905948441588676D+02 -.136576421536057D+02 0.105462096538448D+03
 0.726207634350184D+02 0.438203071615413D+02 -.404994435668540D+02 -.413926446718290D+02
 0.259739068267831D+02 -.350687336436912D+01 0.252516411105783D+02 0.496993926273117D+01
0.201560379053D-03 0.000000000000D+00 0.000000000000D+00 0.228214083995D-04 0.000000000000D+00  6 -1 2 25 24 21 21 2 0.68065300D-02 0.11193490D+00 0.19475211D+05 0.19475211D+05 0.19475211D+05 0.12350994D+01  1  2  2  2  6  2        2 0.150054528585D+00 0.100000000000D+01
0.426007453057D-04 0.106366334276D-04 -.774044927630D-06 0.228214083995D-04 0.000000000000D+00  6 -1 2 25 24 21 21 4 0.68065300D-02 0.11193490D+00 0.19475211D+05 0.19475211D+05 0.19475211D+05 0.12350994D+01  1  2  3  2  6  2        2 0.483798983219D-01 0.100000000000D+01
0.466081455260D-05 0.000000000000D+00 0.000000000000D+00 0.228214083995D-04 0.000000000000D+00  6 -1 2 25 24 21 21 4 0.68065300D-02 0.11193490D+00 0.19475211D+05 0.19475211D+05 0.19475211D+05 0.12350994D+01  1  2 15  2  6  2        2 0.529309364271D-02 0.100000000000D+01
-.543030119399D-04 0.000000000000D+00 0.000000000000D+00 0.228214083995D-04 0.000000000000D+00  6 -1 2 25 24 21 21 4 0.68065300D-02 0.11193490D+00 0.19475211D+05 0.19475211D+05 0.19475211D+05 0.12350994D+01  1  2  4  2  6  2        2 -.616696768419D-01 0.100000000000D+01
-.470268581258D-03 0.000000000000D+00 -.163789077343D-03 0.228214083995D-04 0.000000000000D+00  6 -1 2 25 24 21 21 4 0.68065300D-02 0.15815768D+00 0.19475211D+05 0.19475211D+05 0.19475211D+05 0.12350994D+01  1  2  5  2  6  2        2 -.341884941180D+00 0.100000000000D+01
0.505692471936D-03 0.000000000000D+00 0.154468024389D-03 0.228214083995D-04 0.000000000000D+00  6 -1 2 25 24 21 21 4 0.68065300D-02 0.11193490D+00 0.19475211D+05 0.19475211D+05 0.19475211D+05 0.12350994D+01  1  2  6  2  6  2        2 0.574293951875D+00 0.100000000000D+01
-.155849914814D-04 0.000000000000D+00 -.701230136849D-05 0.228214083995D-04 0.000000000000D+00  6 -1 21 25 24 -2 21 4 0.68065300D-02 0.15815768D+00 0.19475211D+05 0.19475211D+05 0.19475211D+05 0.12350994D+01  3  4  5  5  5  2        2 -.943002283579D-02 0.100000000000D+01
  </mgrwgt>
  </event>
  <event>
  6     66 0.43135346E-03 0.16617160E+02 0.75467711E-02 0.11809964E+00
       -1 -1    0    0    0  501 0.00000000E+00 0.00000000E+00 0.19082428E+02 0.19085111E+02 0.32000000E+00 0.0000E+00 0.9000E+01
        2 -1    0    0  502    0 -.00000000E+00 -.00000000E+00 -.20243204E+04 0.20243205E+04 0.32000000E+00 0.0000E+00 0.9000E+01
       25  1    1    2    0    0 -.94392807E+02 -.53669761E+02 -.59704983E+03 0.61958368E+03 0.12500000E+03 0.0000E+00 0.9000E+01
       24  1    1    2    0    0 0.85594997E+02 0.77282396E+02 -.64625382E+03 0.66137001E+03 0.80419002E+02 0.0000E+00 0.9000E+01
        3  1    1    2  502    0 -.29538248E+01 -.70771770E+01 -.18051710E+03 0.18068062E+03 0.50000000E+00 0.0000E+00 0.9000E+01
       -3  1    1    2    0  501 0.11751635E+02 -.16535459E+02 -.58141725E+03 0.58177126E+03 0.50000000E+00 0.0000E+00 0.9000E+01
#aMCatNLO 2  0  0  5  2 0.51058763D+01 0.00000000D+00  -5  6  0 0.00000000D+00 0.00000000D+00 0.00000000D+00 0.00000000D+00 0.00000000D+00
  <mgrwgt>
 0.5421809748D-02    3    2    0
 0.196549524833553D+03 0.000000000000000D+00 0.000000000000000D+00 0.196549524833553D+03
 0.196549524833553D+03 -.000000000000000D+00 -.000000000000000D+00 -.196549524833553D+03
 0.175229359720113D+03 -.944452392523367D+02 -.535290370686196D+02 0.574026783434010D+02
 0.141396066195544D+03 0.855526845036239D+02 0.773959605618114D+02 0.147049326466302D+02
 0.764736237514504D+02 0.889255474871280D+01 -.238669234931918D+02 -.721076109900312D+02
 0.000000000000000D+00 0.000000000000000D+00 0.000000000000000D+00 0.000000000000000D+00
 0.196549524833553D+03 0.000000000000000D+00 0.000000000000000D+00 0.196549524833553D+03
 0.196549524833553D+03 -.000000000000000D+00 -.000000000000000D+00 -.196549524833553D+03
 0.175111321878779D+03 -.943953433221950D+02 -.536629538541740D+02 0.569980841157225D+02
 0.141327726279912D+03 0.855929503572335D+02 0.772878901507039D+02 0.143784264186326D+02
 0.180061532598195D+02 -.285929332094488D+01 -.692927058803551D+01 -.163716586221035D+02
 0.586538482485968D+02 0.116616862859064D+02 -.166956657084944D+02 -.550048519122516D+02
-.134462562942D-04 0.000000000000D+00 0.000000000000D+00 0.320940225161D-04 0.000000000000D+00  6 -1 2 25 24 3 -3 4 0.29359665D-02 0.31143412D+00 0.27894167D+05 0.27894167D+05 0.27894167D+05 0.12182298D+01  1  2 13  8  6  5       21 -.948398683626D-02 0.100000000000D+01
-.118836699542D-04 0.000000000000D+00 0.000000000000D+00 0.320940225161D-04 0.000000000000D+00  6 -1 2 25 24 3 -3 4 0.29359665D-02 0.31143412D+00 0.27894167D+05 0.27894167D+05 0.27894167D+05 0.12182298D+01  1  2 13  8  6  5       21 -.838185491534D-02 0.100000000000D+01
0.330168879351D-04 0.000000000000D+00 0.000000000000D+00 0.321285731475D-04 0.272426876433D-06  6 -1 2 25 24 3 -3 4 0.29359665D-02 0.31143412D+00 0.27894167D+05 0.27894167D+05 0.27894167D+05 0.12182298D+01  1  2  1  8  6  5       21 0.232876514994D-01 0.100000000000D+01
  </mgrwgt>
  </event>
  <event>
  6     66 0.43135346E-03 0.57811464E+02 0.75467711E-02 0.12028954E+00
       -1 -1    0    0    0  501 0.00000000E+00 0.00000000E+00 0.15289656E+02 0.15293004E+02 0.32000000E+00 0.0000E+00 0.9000E+01
        2 -1    0    0  503    0 0.00000000E+00 0.00000000E+00 -.14952308E+04 0.14952308E+04 0.32000000E+00 0.0000E+00 0.9000E+01
       25  1    1    2    0    0 0.39938312E+02 -.47194473E+02 -.57102784E+03 0.58780964E+03 0.12500000E+03 0.0000E+00 0.9000E+01
       24  1    1    2    0    0 0.94585426E+01 0.27077911E+02 -.42289355E+03 0.43142653E+03 0.80419002E+02 0.0000E+00 0.9000E+01
       21  1    1    2  502  501 -.57524063E+02 0.23895379E+02 -.44102833E+03 0.44540606E+03 0.75000000E+00 0.0000E+00 0.9000E+01
       21  1    1    2  503  502 0.81272086E+01 -.37788171E+01 -.44991421E+02 0.45881602E+02 0.75000000E+00 0.0000E+00 0.9000E+01
#aMCatNLO 2  0  0  2  1 0.89627550D+01 0.00000000D+00  -5  6  0 0.00000000D+00 0.00000000D+00 0.00000000D+00 0.00000000D+00 0.00000000D+00
  <mgrwgt>
 0.5664338831D-01    2    2    0
 0.146642285223269D+03 0.000000000000000D+00 0.000000000000000D+00 0.146642285223269D+03
 0.146642285223269D+03 0.000000000000000D+00 0.000000000000000D+00 -.146642285223269D+03
 0.143334508097943D+03 0.438864658650872D+02 -.490301076848199D+02 0.242859602644579D+02
 0.853406005645841D+02 0.118246060087883D+02 0.259778446974143D+02 -.106415598824301D+01
 0.646094617840100D+02 -.557110718738754D+02 0.230522629874055D+02 -.232218042762149D+02
 0.000000000000000D+00 0.000000000000000D+00 -.000000000000000D+00 -.000000000000000D+00
 0.151093483581337D+03 0.000000000000000D+00 0.000000000000000D+00 0.151093483581337D+03
 0.151292980472664D+03 0.000000000000000D+00 0.000000000000000D+00 -.151292980472664D+03
 0.141553558260996D+03 0.399401205015688D+02 -.471952197230032D+02 0.242859602644579D+02
 0.853874806294023D+02 0.945963516162966D+01 0.270774586789007D+02 -.106415598824301D+01
 0.664804501653943D+02 -.575269642446488D+02 0.238965781053596D+02 -.232218042762149D+02
 0.896497499820814D+01 0.812720858145031D+01 -.377881706125720D+01 -.199496891326544D+00
-.157653382819D-04 0.000000000000D+00 0.000000000000D+00 0.731491283317D-05 0.000000000000D+00  6 -1 2 25 24 21 21 4 0.22829736D-02 0.22294146D+00 0.20576193D+05 0.20576193D+05 0.20576193D+05 0.12324704D+01  1  2  8  2  6  2        2 -.332146258215D-01 0.100000000000D+01
0.474870776701D-04 0.000000000000D+00 0.000000000000D+00 0.731491283317D-05 0.166537764263D-06  6 -1 2 25 24 21 21 4 0.23522713D-02 0.23001195D+00 0.21917486D+05 0.21917486D+05 0.21917486D+05 0.12294726D+01  1  2  1  2  6  2        2 0.898580141301D-01 0.100000000000D+01
  </mgrwgt>
  </event>
  <event>
  5     66 0.43135346E-03 0.36726894E+02 0.75467711E-02 0.11128903E+00
       -1 -1    0    0    0  501 0.00000000E+00 0.00000000E+00 0.31892587E+02 0.31894192E+02 0.32000000E+00 0.0000E+00 0.9000E+01
        2 -1    0    0  502    0 -.00000000E+00 -.00000000E+00 -.21239569E+04 0.21239569E+04 0.32000000E+00 0.0000E+00 0.9000E+01
       25  1    1    2    0    0 -.18812192E+03 0.26747601E+02 -.86478890E+03 0.89419804E+03 0.12500000E+03 0.0000E+00 0.9000E+01
       24  1    1    2    0    0 0.22471600E+03 -.23673529E+02 -.11643151E+04 0.11887618E+04 0.80419002E+02 0.0000E+00 0.9000E+01
       21  1    1    2  502  501 -.36594079E+02 -.30740719E+01 -.62960320E+02 0.72891295E+02 0.75000000E+00 0.0000E+00 0.9000E+01
#aMCatNLO 1  0  0  5  2 0.63842409D+01 0.00000000D+00  -5  6  0 0.00000000D+00 0.00000000D+00 0.00000000D+00 0.00000000D+00 0.00000000D+00
  <mgrwgt>
 0.4805805184D+00   25    2    0
 0.260269543865443D+03 0.000000000000000D+00 0.000000000000000D+00 0.260269543865443D+03
 0.260269543865443D+03 -.000000000000000D+00 -.000000000000000D+00 -.260269543865443D+03
 0.227769633033066D+03 -.188120036971737D+03 0.267477595612934D+02 0.122235338679627D+02
 0.243924975482133D+03 0.224718026078956D+03 -.236733591794997D+02 -.444247513209114D+02
 0.488444792156878D+02 -.365979891072187D+02 -.307440038179373D+01 0.322012174529487D+02
 0.000000000000000D+00 -.000000000000000D+00 0.000000000000000D+00 0.000000000000000D+00
 0.260269543865443D+03 0.000000000000000D+00 0.000000000000000D+00 0.260269543865443D+03
 0.260269543865443D+03 -.000000000000000D+00 -.000000000000000D+00 -.260269543865443D+03
 0.228817118498240D+03 -.189329584258209D+03 0.266461519940462D+02 0.132877698039097D+02
 0.242543893513264D+03 0.223429317857631D+03 -.237816166314612D+02 -.432908646052586D+02
 0.411638774666239D+02 -.262500450563174D+02 -.261854943790907D+01 0.315997332499779D+02
 0.801419825275932D+01 -.784968854310484D+01 -.245985924675916D+00 -.159663844862905D+01
0.145532893003D-02 0.000000000000D+00 0.000000000000D+00 0.114696816389D-04 0.000000000000D+00  6 -1 2 25 24 21 21 2 0.49066772D-02 0.32676272D+00 0.63507461D+05 0.63507461D+05 0.63507461D+05 0.11821313D+01  1  2  2  3  6  5       21 0.268198569809D+00 0.100000000000D+01
0.308392741918D-03 0.767998175933D-04 -.558884628821D-05 0.114696816389D-04 0.000000000000D+00  6 -1 2 25 24 21 21 4 0.49066772D-02 0.32676272D+00 0.63507461D+05 0.63507461D+05 0.63507461D+05 0.11821313D+01  1  2  3  3  6  5       21 0.794201866969D-01 0.100000000000D+01
0.234397128218D-04 0.000000000000D+00 0.000000000000D+00 0.114696816389D-04 0.000000000000D+00  6 -1 2 25 24 21 21 4 0.49066772D-02 0.32676272D+00 0.63507461D+05 0.63507461D+05 0.63507461D+05 0.11821313D+01  1  2 15  3  6  5       21 0.603641433599D-02 0.100000000000D+01
0.423236937679D-03 0.000000000000D+00 0.000000000000D+00 0.114784201686D-04 0.000000000000D+00  6 -1 2 25 24 21 21 4 0.49066772D-02 0.32676272D+00 0.62828942D+05 0.62828942D+05 0.62828942D+05 0.11825816D+01  1  2 12  3  6  5       21 0.109179278446D+00 0.100000000000D+01
0.477714107737D-03 0.000000000000D+00 0.000000000000D+00 0.114784201686D-04 0.000000000000D+00  6 -1 2 25 24 21 21 4 0.49066772D-02 0.32676272D+00 0.62828942D+05 0.62828942D+05 0.62828942D+05 0.11825816D+01  1  2 12  3  6  5       21 0.123232347990D+00 0.100000000000D+01
-.318151459067D-02 0.000000000000D+00 0.000000000000D+00 0.114696816389D-04 0.000000000000D+00  6 -1 2 25 24 21 21 4 0.49066772D-02 0.32676272D+00 0.63507461D+05 0.63507461D+05 0.63507461D+05 0.11821313D+01  1  2  4  3  6  5       21 -.819333429181D+00 0.100000000000D+01
-.527820558707D-02 0.000000000000D+00 0.000000000000D+00 0.114696816389D-04 0.000000000000D+00  6 -1 2 25 24 21 21 4 0.49066772D-02 0.32676272D+00 0.63507461D+05 0.63507461D+05 0.63507461D+05 0.11821313D+01  1  2  5  3  6  5       21 -.135929292805D+01 0.100000000000D+01
0.694615289440D-02 0.000000000000D+00 -.000000000000D+00 0.114696816389D-04 0.000000000000D+00  6 -1 2 25 24 21 21 4 0.49066772D-02 0.32676272D+00 0.63507461D+05 0.63507461D+05 0.63507461D+05 0.11821313D+01  1  2  6  3  6  5       21 0.178883833733D+01 0.100000000000D+01
0.101399942076D-02 0.000000000000D+00 0.000000000000D+00 0.114696816389D-04 0.252201773059D-05  6 -1 2 25 24 21 21 4 0.49066772D-02 0.32676272D+00 0.62828942D+05 0.62828942D+05 0.62828942D+05 0.11825816D+01  1  2 11  3  6  5       21 0.261573873278D+00 0.100000000000D+01
0.276450081549D-04 0.000000000000D+00 0.000000000000D+00 0.114784201686D-04 0.000000000000D+00  6 -1 2 25 24 1 -1 4 0.49066772D-02 0.32676272D+00 0.62828942D+05 0.62828942D+05 0.62828942D+05 0.11825816D+01  1  2 12  6  6  5       21 0.713137671664D-02 0.100000000000D+01
0.292357754681D-04 0.000000000000D+00 0.000000000000D+00 0.114784201686D-04 0.000000000000D+00  6 -1 2 25 24 1 -1 4 0.49066772D-02 0.32676272D+00 0.62828942D+05 0.62828942D+05 0.62828942D+05 0.11825816D+01  1  2 12  6  6  5       21 0.754173510451D-02 0.100000000000D+01
-.373220318744D-04 0.000000000000D+00 0.000000000000D+00 0.114696816389D-04 0.000000000000D+00  6 -1 2 25 24 1 -1 4 0.49066772D-02 0.32676272D+00 0.63507461D+05 0.63507461D+05 0.63507461D+05 0.11821313D+01  1  2  5  6  6  5       21 -.961151913285D-02 0.100000000000D+01
0.246195692074D-05 0.000000000000D+00 0.000000000000D+00 0.114696816389D-04 0.112576772185D-07  6 -1 2 25 24 1 -1 4 0.49066772D-02 0.32676272D+00 0.62828942D+05 0.62828942D+05 0.62828942D+05 0.11825816D+01  1  2 11  6  6  5       21 0.635092677982D-03 0.100000000000D+01
0.276450081549D-04 0.000000000000D+00 0.000000000000D+00 0.114784201686D-04 0.000000000000D+00  6 -1 2 25 24 2 -2 4 0.49066772D-02 0.32676272D+00 0.62828942D+05 0.62828942D+05 0.62828942D+05 0.11825816D+01  1  2 12  7  6  5       21 0.713137671664D-02 0.100000000000D+01
0.292357754681D-04 0.000000000000D+00 0.000000000000D+00 0.114784201686D-04 0.000000000000D+00  6 -1 2 25 24 2 -2 4 0.49066772D-02 0.32676272D+00 0.62828942D+05 0.62828942D+05 0.62828942D+05 0.11825816D+01  1  2 12  7  6  5       21 0.754173510451D-02 0.100000000000D+01
-.373220318744D-04 0.000000000000D+00 0.000000000000D+00 0.114696816389D-04 0.000000000000D+00  6 -1 2 25 24 2 -2 4 0.49066772D-02 0.32676272D+00 0.63507461D+05 0.63507461D+05 0.63507461D+05 0.11821313D+01  1  2  5  7  6  5       21 -.961151913285D-02 0.100000000000D+01
0.237970161233D-05 0.000000000000D+00 0.000000000000D+00 0.114696816389D-04 0.106954763551D-07  6 -1 2 25 24 2 -2 4 0.49066772D-02 0.32676272D+00 0.62828942D+05 0.62828942D+05 0.62828942D+05 0.11825816D+01  1  2 11  7  6  5       21 0.613873889117D-03 0.100000000000D+01
0.276450081549D-04 0.000000000000D+00 0.000000000000D+00 0.114784201686D-04 0.000000000000D+00  6 -1 2 25 24 3 -3 4 0.49066772D-02 0.32676272D+00 0.62828942D+05 0.62828942D+05 0.62828942D+05 0.11825816D+01  1  2 12  8  6  5       21 0.713137671664D-02 0.100000000000D+01
0.276450081549D-04 0.000000000000D+00 0.000000000000D+00 0.114784201686D-04 0.000000000000D+00  6 -1 2 25 24 4 -4 4 0.49066772D-02 0.32676272D+00 0.62828942D+05 0.62828942D+05 0.62828942D+05 0.11825816D+01  1  2 12  8  6  5       21 0.713137671664D-02 0.100000000000D+01
0.292357754681D-04 0.000000000000D+00 0.000000000000D+00 0.114784201686D-04 0.000000000000D+00  6 -1 2 25 24 3 -3 4 0.49066772D-02 0.32676272D+00 0.62828942D+05 0.62828942D+05 0.62828942D+05 0.11825816D+01  1  2 12  8  6  5       21 0.754173510451D-02 0.100000000000D+01
0.292357754681D-04 0.000000000000D+00 0.000000000000D+00 0.114784201686D-04 0.000000000000D+00  6 -1 2 25 24 4 -4 4 0.49066772D-02 0.32676272D+00 0.62828942D+05 0.62828942D+05 0.62828942D+05 0.11825816D+01  1  2 12  8  6  5       21 0.754173510451D-02 0.100000000000D+01
-.373220318744D-04 0.000000000000D+00 0.000000000000D+00 0.114696816389D-04 0.000000000000D+00  6 -1 2 25 24 3 -3 4 0.49066772D-02 0.32676272D+00 0.63507461D+05 0.63507461D+05 0.63507461D+05 0.11821313D+01  1  2  5  8  6  5       21 -.961151913285D-02 0.100000000000D+01
-.373220318744D-04 0.000000000000D+00 0.000000000000D+00 0.114696816389D-04 0.000000000000D+00  6 -1 2 25 24 4 -4 4 0.49066772D-02 0.32676272D+00 0.63507461D+05 0.63507461D+05 0.63507461D+05 0.11821313D+01  1  2  5  8  6  5       21 -.961151913285D-02 0.100000000000D+01
0.238897170682D-05 0.000000000000D+00 0.000000000000D+00 0.114696816389D-04 0.107277212488D-07  6 -1 2 25 24 3 -3 4 0.49066772D-02 0.32676272D+00 0.62828942D+05 0.62828942D+05 0.62828942D+05 0.11825816D+01  1  2 11  8  6  5       21 0.616265226302D-03 0.100000000000D+01
0.238897170682D-05 0.000000000000D+00 0.000000000000D+00 0.114696816389D-04 0.107277212488D-07  6 -1 2 25 24 4 -4 4 0.49066772D-02 0.32676272D+00 0.62828942D+05 0.62828942D+05 0.62828942D+05 0.11825816D+01  1  2 11  8  6  5       21 0.616265226302D-03 0.100000000000D+01
  </mgrwgt>
  </event>
  <event>
  5     66 0.43135346E-03 0.28840220E+02 0.75467711E-02 0.12280617E+00
       -1 -1    0    0    0  501 0.00000000E+00 0.00000000E+00 0.11286486E+02 0.11291021E+02 0.32000000E+00 0.0000E+00 0.9000E+01
        2 -1    0    0  502    0 0.00000000E+00 0.00000000E+00 -.14876803E+04 0.14876803E+04 0.32000000E+00 0.0000E+00 0.9000E+01
       25  1    1    2    0    0 -.54173578E+02 0.12960934E+02 -.72098852E+03 0.73386116E+03 0.12500000E+03 0.0000E+00 0.9000E+01
       24  1    1    2    0    0 0.42773288E+02 0.13521612E+02 -.54242218E+03 0.55018308E+03 0.80419002E+02 0.0000E+00 0.9000E+01
       21  1    1    2  502  501 0.11400289E+02 -.26482546E+02 -.21298307E+03 0.21492706E+03 0.75000000E+00 0.0000E+00 0.9000E+01
#aMCatNLO 1  0  0  1  5 0.14010533D+01 0.00000000D+00  -5  6  0 0.00000000D+00 0.00000000D+00 0.00000000D+00 0.00000000D+00 0.00000000D+00
  <mgrwgt>
 0.1259382330D+00   11    4    0
 0.129592078061723D+03 0.000000000000000D+00 0.000000000000000D+00 0.129592078061723D+03
 0.129592078061723D+03 0.000000000000000D+00 0.000000000000000D+00 -.129592078061723D+03
 0.137254538003397D+03 -.541754911075495D+02 0.129653787580455D+02 0.105225148820199D+02
 0.921348084756469D+02 0.427720039676278D+02 0.135245961414880D+02 -.304104493167890D+01
 0.297948096444017D+02 0.114034871399217D+02 -.264899748995335D+02 -.748146995034104D+01
 0.000000000000000D+00 -.000000000000000D+00 0.000000000000000D+00 0.000000000000000D+00
 0.140315912620231D+03 0.000000000000000D+00 0.000000000000000D+00 0.140315912620231D+03
 0.129639740914718D+03 0.000000000000000D+00 0.000000000000000D+00 -.129639740914718D+03
 0.137143369545748D+03 -.540643688862054D+02 0.122321097058295D+02 0.105225148820199D+02
 0.920985137418539D+02 0.428466124666258D+02 0.130322724398401D+02 -.304104493167890D+01
 0.299460595952136D+02 0.114276802474940D+02 -.266496194498771D+02 -.748146995034104D+01
 0.107677106521342D+02 -.209923827914349D+00 0.138523730420747D+01 0.106761717055128D+02
 0.129592078061723D+03 0.000000000000000D+00 0.000000000000000D+00 0.129592078061723D+03
 0.129592078061723D+03 0.000000000000000D+00 0.000000000000000D+00 -.129592078061723D+03
 0.137254538003397D+03 -.541754911075495D+02 0.129653787580455D+02 0.105225148820199D+02
 0.921348084756469D+02 0.427720039676278D+02 0.135245961414880D+02 -.304104493167890D+01
 0.000000000000000D+00 -.000000000000000D+00 0.000000000000000D+00 0.000000000000000D+00
 0.297948096444017D+02 0.114034871399217D+02 -.264899748995335D+02 -.748146995034104D+01
 0.140315912620231D+03 0.000000000000000D+00 0.000000000000000D+00 0.140315912620231D+03
 0.129639740914718D+03 0.000000000000000D+00 0.000000000000000D+00 -.129639740914718D+03
 0.137143369545748D+03 -.540643688862054D+02 0.122321097058295D+02 0.105225148820199D+02
 0.920985137418539D+02 0.428466124666258D+02 0.130322724398401D+02 -.304104493167890D+01
 0.107677106521342D+02 -.209923827914349D+00 0.138523730420747D+01 0.106761717055128D+02
 0.299460595952136D+02 0.114276802474940D+02 -.266496194498771D+02 -.748146995034104D+01
0.513027856247D-05 0.000000000000D+00 0.000000000000D+00 0.293332336176D-04 0.000000000000D+00  6 -1 2 25 24 21 21 2 0.17367339D-02 0.22887424D+00 0.16612042D+05 0.16612042D+05 0.16612042D+05 0.12428001D+01  1  2  2  1  6  1       -1 0.101985648566D-01 0.100000000000D+01
0.621373995523D-06 0.270732237690D-06 -.197016205132D-07 0.293332336176D-04 0.000000000000D+00  6 -1 2 25 24 21 21 4 0.17367339D-02 0.22887424D+00 0.16612042D+05 0.16612042D+05 0.16612042D+05 0.12428001D+01  1  2  3  1  6  1       -1 0.190789189308D-02 0.100000000000D+01
0.672644297568D-07 0.000000000000D+00 0.000000000000D+00 0.293332336176D-04 0.000000000000D+00  6 -1 2 25 24 21 21 4 0.17367339D-02 0.22887424D+00 0.16612042D+05 0.16612042D+05 0.16612042D+05 0.12428001D+01  1  2 15  1  6  1       -1 0.206531430588D-03 0.100000000000D+01
0.176418145159D-06 0.000000000000D+00 0.000000000000D+00 0.293080834745D-04 0.000000000000D+00  6 -1 2 25 24 21 21 4 0.18827285D-02 0.22887424D+00 0.16794202D+05 0.16794202D+05 0.16794202D+05 0.12422672D+01  1  2 12  1  6  1       -1 0.481631684731D-03 0.100000000000D+01
-.144433586482D-02 0.000000000000D+00 0.000000000000D+00 0.293332336176D-04 0.000000000000D+00  6 -1 2 25 24 21 21 4 0.17367339D-02 0.22887424D+00 0.16612042D+05 0.16612042D+05 0.16612042D+05 0.12428001D+01  1  2  4  1  6  1       -1 -.443474736185D+01 0.100000000000D+01
-.168222026490D-02 0.000000000000D+00 -.148782127590D-04 0.293332336176D-04 0.000000000000D+00  6 -1 2 25 24 21 21 4 0.18809605D-02 0.22887424D+00 0.16612042D+05 0.16612042D+05 0.16612042D+05 0.12428001D+01  1  2  5  1  6  1       -1 -.460549043894D+01 0.100000000000D+01
0.167811162006D-02 0.000000000000D+00 0.148309936648D-04 0.293332336176D-04 0.000000000000D+00  6 -1 2 25 24 21 21 4 0.17367339D-02 0.22887424D+00 0.16612042D+05 0.16612042D+05 0.16612042D+05 0.12428001D+01  1  2  6  1  6  1       -1 0.515254191301D+01 0.100000000000D+01
0.148300474450D-02 0.000000000000D+00 0.000000000000D+00 0.293332336176D-04 0.565798822971D-04  6 -1 2 25 24 21 21 4 0.18804499D-02 0.22895841D+00 0.16794202D+05 0.16794202D+05 0.16794202D+05 0.12422672D+01  1  2 11  1  6  1       -1 0.405309065227D+01 0.100000000000D+01
0.259268116840D-08 0.000000000000D+00 0.000000000000D+00 0.293080834745D-04 0.000000000000D+00  6 21 2 25 24 1 21 4 0.18827285D-02 0.22887424D+00 0.16794202D+05 0.16794202D+05 0.16794202D+05 0.12422672D+01  3  4 12  4  5  1       -1 0.148770983757D-03 0.100000000000D+01
-.223815381152D-04 0.000000000000D+00 -.198232769703D-06 0.293332336176D-04 0.000000000000D+00  6 21 2 25 24 1 21 4 0.18809605D-02 0.22887424D+00 0.16612042D+05 0.16612042D+05 0.16612042D+05 0.12428001D+01  3  4  5  4  5  1       -1 -.128829887004D+01 0.100000000000D+01
0.215105705523D-04 0.000000000000D+00 0.000000000000D+00 0.293332336176D-04 0.164083829084D-05  6 21 2 25 24 1 21 4 0.18804499D-02 0.22895841D+00 0.16794202D+05 0.16794202D+05 0.16794202D+05 0.12422672D+01  3  4 11  4  5  1       -1 0.123589894771D+01 0.100000000000D+01
  </mgrwgt>
  </event>
  <event>
  6     66 -.43135346E-03 0.46233317E+02 0.75467711E-02 0.11971465E+00
       -1 -1    0    0    0  501 0.00000000E+00 0.00000000E+00 0.40232185E+03 0.40232197E+03 0.32000000E+00 0.0000E+00 0.9000E+01
        2 -1    0    0  502    0 0.00000000E+00 0.00000000E+00 -.84667269E+02 0.84667874E+02 0.32000000E+00 0.0000E+00 0.9000E+01
       25  1    1    2    0    0 0.57895789E+02 -.33690881E+02 0.16077317E+03 0.21438286E+03 0.12500000E+03 0.0000E+00 0.9000E+01
       24  1    1    2    0    0 -.63356986E+02 -.20256314E+02 0.18068663E+03 0.20866073E+03 0.80419002E+02 0.0000E+00 0.9000E+01
       21  1    1    2  502  503 0.14665546E+02 0.39637198E+02 -.15783772E+02 0.45120679E+02 0.75000000E+00 0.0000E+00 0.9000E+01
       21  1    1    2  503  501 -.92043494E+01 0.14309997E+02 -.80214559E+01 0.18825576E+02 0.75000000E+00 0.0000E+00 0.9000E+01
#aMCatNLO 2  0  0  5  1 0.11067673D+02 0.00000000D+00  -5  6  0 0.00000000D+00 0.00000000D+00 0.00000000D+00 0.00000000D+00 0.00000000D+00
  <mgrwgt>
 -.3202143250D-01    3    2    0
 0.184563458801246D+03 0.000000000000000D+00 0.000000000000000D+00 0.184563458801246D+03
 0.184563458801246D+03 -.000000000000000D+00 -.000000000000000D+00 -.184563458801246D+03
 0.144777266137702D+03 0.578365377462447D+02 -.342761838669878D+02 0.285575718742118D+02
 0.120288257711280D+03 -.634061644387206D+02 -.207421142719404D+02 0.595942278710313D+02
 0.104061393753510D+03 0.556962669247592D+01 0.550182981389282D+02 -.881517997452431D+02
 0.000000000000000D+00 0.000000000000000D+00 0.000000000000000D+00 -.000000000000000D+00
 0.184563458801246D+03 0.000000000000000D+00 0.000000000000000D+00 0.184563458801246D+03
 0.184563458801246D+03 -.000000000000000D+00 -.000000000000000D+00 -.184563458801246D+03
 0.144481162138637D+03 0.578958202635058D+02 -.336905749224052D+02 0.276192934439791D+02
 0.119795186541871D+03 -.633569601648369D+02 -.202560609761431D+02 0.588154601838077D+02
 0.727686098791211D+02 0.147094285258347D+02 0.394594287451943D+02 -.593452338379926D+02
 0.320819590428635D+02 -.924828862450358D+01 0.144872071533541D+02 -.270895197897942D+02
-.233220008478D-03 0.000000000000D+00 0.000000000000D+00 0.922958427879D-05 0.000000000000D+00  6 -1 2 25 24 21 21 4 0.61895725D-01 0.13025790D-01 0.23329370D+05 0.23329370D+05 0.23329370D+05 0.12265311D+01  1  2 13  3  6  5       21 -.748603518787D-01 0.100000000000D+01
-.199843056083D-03 0.000000000000D+00 0.000000000000D+00 0.922958427879D-05 0.000000000000D+00  6 -1 2 25 24 21 21 4 0.61895725D-01 0.13025790D-01 0.23329370D+05 0.23329370D+05 0.23329370D+05 0.12265311D+01  1  2 13  3  6  5       21 -.641468182621D-01 0.100000000000D+01
0.333303464548D-03 0.000000000000D+00 0.000000000000D+00 0.924711115385D-05 0.373400384946D-06  6 -1 2 25 24 21 21 4 0.61895725D-01 0.13025790D-01 0.23329370D+05 0.23329370D+05 0.23329370D+05 0.12265311D+01  1  2  1  3  6  5       21 0.106985737636D+00 0.100000000000D+01
  </mgrwgt>
  </event>
  <event>
  5     66 0.43135346E-03 0.51075497E+02 0.75467711E-02 0.11926955E+00
       -1 -1    0    0    0  501 0.00000000E+00 0.00000000E+00 0.10150330E+02 0.10155373E+02 0.32000000E+00 0.0000E+00 0.9000E+01
        2 -1    0    0  502    0 -.00000000E+00 -.00000000E+00 -.29099366E+04 0.29099366E+04 0.32000000E+00 0.0000E+00 0.9000E+01
       25  1    1    2    0    0 -.78039976E+02 0.13123941E+02 -.80893244E+03 0.82234978E+03 0.12500000E+03 0.0000E+00 0.9000E+01
       24  1    1    2    0    0 0.41429353E+01 -.35293290E+02 -.86309720E+03 0.86756370E+03 0.80419002E+02 0.0000E+00 0.9000E+01
       21  1    1    2  502  501 0.73897040E+02 0.22169349E+02 -.12277566E+04 0.12301785E+04 0.75000000E+00 0.0000E+00 0.9000E+01
#aMCatNLO 1  0  0  5  1 0.11067673D+02 0.00000000D+00  -5  6  0 0.00000000D+00 0.00000000D+00 0.00000000D+00 0.00000000D+00 0.00000000D+00
  <mgrwgt>
 0.9430582876D-02    1    2    0
 0.171884279113891D+03 0.000000000000000D+00 0.000000000000000D+00 0.171884279113891D+03
 0.171884279113891D+03 -.000000000000000D+00 -.000000000000000D+00 -.171884279113891D+03
 0.161754539197714D+03 -.780411042521535D+02 0.131236026308846D+02 0.653979208549923D+02
 0.889214340229690D+02 0.414231493171317D+01 -.352934761037497D+02 -.133047828186425D+02
 0.930925850070986D+02 0.738987893204404D+02 0.221698734728651D+02 -.520931380363498D+02
 0.000000000000000D+00 0.000000000000000D+00 0.000000000000000D+00 -.000000000000000D+00
 0.171884279113891D+03 0.000000000000000D+00 0.000000000000000D+00 0.171884279113891D+03
 0.171884279113891D+03 -.000000000000000D+00 -.000000000000000D+00 -.171884279113891D+03
 0.159532706023775D+03 -.750112086454410D+02 0.140325810167893D+02 0.632620703014494D+02
 0.890018645852550D+02 0.582021851737600D+01 -.347900996542045D+02 -.144875797751745D+02
 0.539034543790735D+02 0.371416562491994D+02 0.304060075598364D+02 -.245266073751412D+02
 0.413305332396780D+02 0.320493338788656D+02 -.964848892242127D+01 -.242478831511338D+02
0.157154077803D-04 0.000000000000D+00 0.000000000000D+00 0.428965135948D-05 0.000000000000D+00  6 -1 2 25 24 21 21 4 0.15619785D-02 0.44768294D+00 0.24495042D+05 0.24495042D+05 0.24495042D+05 0.12242489D+01  1  2 14  3  6  5       21 0.943058287577D-02 0.100000000000D+01
  </mgrwgt>
  </event>
  <event>
  5     66 0.43135346E-03 0.20871781E+02 0.75467711E-02 0.12399469E+00
       -1 -1    0    0    0  501 0.00000000E+00 0.00000000E+00 0.27797303E+03 0.27797321E+03 0.32000000E+00 0.0000E+00 0.9000E+01
        2 -1    0    0  502    0 0.00000000E+00 0.00000000E+00 -.56434206E+02 0.56435114E+02 0.32000000E+00 0.0000E+00 0.9000E+01
       25  1    1    2    0    0 0.20448083E+02 0.22321775E+02 0.13503782E+03 0.18648484E+03 0.12500000E+03 0.0000E+00 0.9000E+01
       24  1    1    2    0    0 -.40408416E+02 -.28396854E+02 0.84970114E+02 0.12698960E+03 0.80419002E+02 0.0000E+00 0.9000E+01
       21  1    1    2  502  501 0.19960333E+02 0.60750788E+01 0.15308941E+01 0.20933886E+02 0.75000000E+00 0.0000E+00 0.9000E+01
#aMCatNLO 1  0  0  5  1 0.69928023D+01 0.00000000D+00  -5  6  0 0.00000000D+00 0.00000000D+00 0.00000000D+00 0.00000000D+00 0.00000000D+00
  <mgrwgt>
 0.1604788499D+01   20    2    0
 0.125249230789822D+03 0.000000000000000D+00 0.000000000000000D+00 0.125249230789822D+03
 0.125249230789822D+03 -.000000000000000D+00 -.000000000000000D+00 -.125249230789822D+03
 0.129525148830405D+03 0.204439755702101D+02 0.223205248899525D+02 0.153493391082552D+02
 0.943822024178218D+02 -.404114086822508D+02 -.283977647730522D+02 0.112658025841655D+01
 0.265911103314176D+02 0.199674331120407D+02 0.607723988309971D+01 -.164759193666718D+02
 0.000000000000000D+00 0.000000000000000D+00 0.000000000000000D+00 0.000000000000000D+00
 0.125249230789822D+03 0.000000000000000D+00 0.000000000000000D+00 0.125249230789822D+03
 0.125249230789822D+03 -.000000000000000D+00 -.000000000000000D+00 -.125249230789822D+03
 0.129721526139962D+03 0.220364904896919D+02 0.228052188978803D+02 0.140352920168551D+02
 0.937807048011911D+02 -.392555510918937D+02 -.280459707388423D+02 0.172836412063282D+00
 0.113137449381167D+02 0.397599611630012D+01 0.841608533191778D+01 -.643131301475877D+01
 0.156824857003743D+02 0.132430644859017D+02 -.317533349095584D+01 -.777681541415960D+01
0.120831868877D-02 0.000000000000D+00 0.000000000000D+00 0.578240741554D-04 0.000000000000D+00  6 -1 2 25 24 21 21 2 0.42765165D-01 0.86822695D-02 0.14866889D+05 0.14866889D+05 0.14866889D+05 0.12482641D+01  1  2  2  3  6  5       21 0.855102214818D+00 0.100000000000D+01
0.205719207419D-03 0.637647290434D-04 -.464026192250D-05 0.578240741554D-04 0.000000000000D+00  6 -1 2 25 24 21 21 4 0.42765165D-01 0.86822695D-02 0.14866889D+05 0.14866889D+05 0.14866889D+05 0.12482641D+01  1  2  3  3  6  5       21 0.226842453023D+00 0.100000000000D+01
0.429877391427D-04 0.000000000000D+00 0.000000000000D+00 0.578240741554D-04 0.000000000000D+00  6 -1 2 25 24 21 21 4 0.42765165D-01 0.86822695D-02 0.14866889D+05 0.14866889D+05 0.14866889D+05 0.12482641D+01  1  2 15  3  6  5       21 0.474017196517D-01 0.100000000000D+01
0.342486761255D-03 0.000000000000D+00 0.000000000000D+00 0.577563425056D-04 0.000000000000D+00  6 -1 2 25 24 21 21 4 0.42765165D-01 0.86822695D-02 0.15088068D+05 0.15088068D+05 0.15088068D+05 0.12475328D+01  1  2 12  3  6  5       21 0.376946357752D+00 0.100000000000D+01
0.317532000714D-03 0.000000000000D+00 0.000000000000D+00 0.577563425056D-04 0.000000000000D+00  6 -1 2 25 24 21 21 4 0.42765165D-01 0.86822695D-02 0.15088068D+05 0.15088068D+05 0.15088068D+05 0.12475328D+01  1  2 12  3  6  5       21 0.349480752775D+00 0.100000000000D+01
-.152089776753D-02 0.000000000000D+00 0.000000000000D+00 0.578240741554D-04 0.000000000000D+00  6 -1 2 25 24 21 21 4 0.42765165D-01 0.86822695D-02 0.14866889D+05 0.14866889D+05 0.14866889D+05 0.12482641D+01  1  2  4  3  6  5       21 -.167706353098D+01 0.100000000000D+01
-.520850037455D-03 0.000000000000D+00 0.000000000000D+00 0.578240741554D-04 0.000000000000D+00  6 -1 2 25 24 21 21 4 0.42765165D-01 0.86822695D-02 0.14866889D+05 0.14866889D+05 0.14866889D+05 0.12482641D+01  1  2  5  3  6  5       21 -.574330912685D+00 0.100000000000D+01
0.191469390055D-02 0.000000000000D+00 -.000000000000D+00 0.578240741554D-04 0.000000000000D+00  6 -1 2 25 24 21 21 4 0.42765165D-01 0.86822695D-02 0.14866889D+05 0.14866889D+05 0.14866889D+05 0.12482641D+01  1  2  6  3  6  5       21 0.211129464594D+01 0.100000000000D+01
0.182448885454D-04 0.000000000000D+00 0.000000000000D+00 0.577563425056D-04 0.000000000000D+00  6 -1 2 25 24 1 -1 4 0.42765165D-01 0.86822695D-02 0.15088068D+05 0.15088068D+05 0.15088068D+05 0.12475328D+01  1  2 12  6  6  5       21 0.200806135092D-01 0.100000000000D+01
0.169701507501D-04 0.000000000000D+00 0.000000000000D+00 0.577563425056D-04 0.000000000000D+00  6 -1 2 25 24 1 -1 4 0.42765165D-01 0.86822695D-02 0.15088068D+05 0.15088068D+05 0.15088068D+05 0.12475328D+01  1  2 12  6  6  5       21 0.186776168875D-01 0.100000000000D+01
-.602890517490D-04 0.000000000000D+00 0.000000000000D+00 0.578240741554D-04 0.000000000000D+00  6 -1 2 25 24 1 -1 4 0.42765165D-01 0.86822695D-02 0.14866889D+05 0.14866889D+05 0.14866889D+05 0.12482641D+01  1  2  5  6  6  5       21 -.664795308167D-01 0.100000000000D+01
0.182448885454D-04 0.000000000000D+00 0.000000000000D+00 0.577563425056D-04 0.000000000000D+00  6 -1 2 25 24 2 -2 4 0.42765165D-01 0.86822695D-02 0.15088068D+05 0.15088068D+05 0.15088068D+05 0.12475328D+01  1  2 12  7  6  5       21 0.200806135092D-01 0.100000000000D+01
0.169701507501D-04 0.000000000000D+00 0.000000000000D+00 0.577563425056D-04 0.000000000000D+00  6 -1 2 25 24 2 -2 4 0.42765165D-01 0.86822695D-02 0.15088068D+05 0.15088068D+05 0.15088068D+05 0.12475328D+01  1  2 12  7  6  5       21 0.186776168875D-01 0.100000000000D+01
-.602890517490D-04 0.000000000000D+00 0.000000000000D+00 0.578240741554D-04 0.000000000000D+00  6 -1 2 25 24 2 -2 4 0.42765165D-01 0.86822695D-02 0.14866889D+05 0.14866889D+05 0.14866889D+05 0.12482641D+01  1  2  5  7  6  5       21 -.664795308167D-01 0.100000000000D+01
0.182448885454D-04 0.000000000000D+00 0.000000000000D+00 0.577563425056D-04 0.000000000000D+00  6 -1 2 25 24 3 -3 4 0.42765165D-01 0.86822695D-02 0.15088068D+05 0.15088068D+05 0.15088068D+05 0.12475328D+01  1  2 12  8  6  5       21 0.200806135092D-01 0.100000000000D+01
0.182448885454D-04 0.000000000000D+00 0.000000000000D+00 0.577563425056D-04 0.000000000000D+00  6 -1 2 25 24 4 -4 4 0.42765165D-01 0.86822695D-02 0.15088068D+05 0.15088068D+05 0.15088068D+05 0.12475328D+01  1  2 12  8  6  5       21 0.200806135092D-01 0.100000000000D+01
0.169701507501D-04 0.000000000000D+00 0.000000000000D+00 0.577563425056D-04 0.000000000000D+00  6 -1 2 25 24 3 -3 4 0.42765165D-01 0.86822695D-02 0.15088068D+05 0.15088068D+05 0.15088068D+05 0.12475328D+01  1  2 12  8  6  5       21 0.186776168875D-01 0.100000000000D+01
0.169701507501D-04 0.000000000000D+00 0.000000000000D+00 0.577563425056D-04 0.000000000000D+00  6 -1 2 25 24 4 -4 4 0.42765165D-01 0.86822695D-02 0.15088068D+05 0.15088068D+05 0.15088068D+05 0.12475328D+01  1  2 12  8  6  5       21 0.186776168875D-01 0.100000000000D+01
-.602890517490D-04 0.000000000000D+00 0.000000000000D+00 0.578240741554D-04 0.000000000000D+00  6 -1 2 25 24 3 -3 4 0.42765165D-01 0.86822695D-02 0.14866889D+05 0.14866889D+05 0.14866889D+05 0.12482641D+01  1  2  5  8  6  5       21 -.664795308167D-01 0.100000000000D+01
-.602890517490D-04 0.000000000000D+00 0.000000000000D+00 0.578240741554D-04 0.000000000000D+00  6 -1 2 25 24 4 -4 4 0.42765165D-01 0.86822695D-02 0.14866889D+05 0.14866889D+05 0.14866889D+05 0.12482641D+01  1  2  5  8  6  5       21 -.664795308167D-01 0.100000000000D+01
  </mgrwgt>
  </event>
  <event>
  5     66 0.43135346E-03 0.28284806E+02 0.75467711E-02 0.12433360E+00
       -1 -1    0    0    0  501 0.00000000E+00 0.00000000E+00 0.46711282E+02 0.46712378E+02 0.32000000E+00 0.0000E+00 0.9000E+01
        2 -1    0    0  502    0 -.00000000E+00 -.00000000E+00 -.34039132E+03 0.34039147E+03 0.32000000E+00 0.0000E+00 0.9000E+01
       25  1    1    2    0    0 -.85593144E+01 0.26875463E+02 -.99490353E+02 0.16223095E+03 0.12500000E+03 0.0000E+00 0.9000E+01
       24  1    1    2    0    0 0.12468205E+02 0.11328207E+01 -.11584370E+03 0.14157584E+03 0.80419002E+02 0.0000E+00 0.9000E+01
       21  1    1    2  502  501 -.39088908E+01 -.28008284E+02 -.78345980E+02 0.83297049E+02 0.75000000E+00 0.0000E+00 0.9000E+01
#aMCatNLO 1  0  0  5  2 0.87224745D+01 0.00000000D+00  -5  6  0 0.00000000D+00 0.00000000D+00 0.00000000D+00 0.00000000D+00 0.00000000D+00
  <mgrwgt>
 0.1890964282D+01   25    2    0
 0.126096613925189D+03 0.000000000000000D+00 0.000000000000000D+00 0.126096613925189D+03
 0.126096613925189D+03 -.000000000000000D+00 -.000000000000000D+00 -.126096613925189D+03
 0.133160687980164D+03 -.855888144407965D+01 0.268785655063333D+02 0.362085223131020D+02
 0.824111092264834D+02 0.124684731082007D+02 0.113474063183709D+01 -.129469885153801D+02
 0.366214306437307D+02 -.390959166412102D+01 -.280133061381704D+02 -.232615337977218D+02
 0.000000000000000D+00 0.000000000000000D+00 0.000000000000000D+00 -.000000000000000D+00
 0.126096613925189D+03 0.000000000000000D+00 0.000000000000000D+00 0.126096613925189D+03
 0.126096613925189D+03 -.000000000000000D+00 -.000000000000000D+00 -.126096613925189D+03
 0.131971958231251D+03 -.897212312364337D+01 0.239175745197534D+02 0.337497910384229D+02
 0.826222037735644D+02 0.122112484909284D+02 -.708344930281541D+00 -.144774396832592D+02
 0.281861522269591D+02 0.960565530509482D+00 -.258201443030834D+02 -.112630652750865D+02
 0.941291361860342D+01 -.419969089779455D+01 0.261091471361151D+01 -.800928608007719D+01
0.374942399292D-03 0.000000000000D+00 0.000000000000D+00 0.327216468576D-04 0.000000000000D+00  6 -1 2 25 24 21 21 2 0.71864469D-02 0.52367991D-01 0.14139099D+05 0.14139099D+05 0.14139099D+05 0.12507595D+01  1  2  2  3  6  5       21 0.605644673033D+00 0.100000000000D+01
0.304616226995D-04 0.197862540073D-04 -.143987753788D-05 0.327216468576D-04 0.000000000000D+00  6 -1 2 25 24 21 21 4 0.71864469D-02 0.52367991D-01 0.14139099D+05 0.14139099D+05 0.14139099D+05 0.12507595D+01  1  2  3  3  6  5       21 0.769757689374D-01 0.100000000000D+01
0.158194917698D-04 0.000000000000D+00 0.000000000000D+00 0.327216468576D-04 0.000000000000D+00  6 -1 2 25 24 21 21 4 0.71864469D-02 0.52367991D-01 0.14139099D+05 0.14139099D+05 0.14139099D+05 0.12507595D+01  1  2 15  3  6  5       21 0.399754653647D-01 0.100000000000D+01
0.308098533583D-03 0.000000000000D+00 0.000000000000D+00 0.326802870699D-04 0.000000000000D+00  6 -1 2 25 24 21 21 4 0.71864469D-02 0.52367991D-01 0.14365286D+05 0.14365286D+05 0.14365286D+05 0.12499688D+01  1  2 12  3  6  5       21 0.777056681962D+00 0.100000000000D+01
0.223935082958D-03 0.000000000000D+00 0.000000000000D+00 0.326802870699D-04 0.000000000000D+00  6 -1 2 25 24 21 21 4 0.71864469D-02 0.52367991D-01 0.14365286D+05 0.14365286D+05 0.14365286D+05 0.12499688D+01  1  2 12  3  6  5       21 0.564787668786D+00 0.100000000000D+01
-.266323297171D-03 0.000000000000D+00 0.000000000000D+00 0.327216468576D-04 0.000000000000D+00  6 -1 2 25 24 21 21 4 0.71864469D-02 0.52367991D-01 0.14139099D+05 0.14139099D+05 0.14139099D+05 0.12507595D+01  1  2  4  3  6  5       21 -.672992400566D+00 0.100000000000D+01
-.451800710039D-03 0.000000000000D+00 0.000000000000D+00 0.327216468576D-04 0.000000000000D+00  6 -1 2 25 24 21 21 4 0.71864469D-02 0.52367991D-01 0.14139099D+05 0.14139099D+05 0.14139099D+05 0.12507595D+01  1  2  5  3  6  5       21 -.114168924633D+01 0.100000000000D+01
0.635283419850D-03 0.000000000000D+00 -.000000000000D+00 0.327216468576D-04 0.000000000000D+00  6 -1 2 25 24 21 21 4 0.71864469D-02 0.52367991D-01 0.14139099D+05 0.14139099D+05 0.14139099D+05 0.12507595D+01  1  2  6  3  6  5       21 0.160534552668D+01 0.100000000000D+01
0.205094801844D-06 0.000000000000D+00 0.000000000000D+00 0.327216468576D-04 0.445239134860D-05  6 -1 2 25 24 21 21 4 0.71864469D-02 0.52367991D-01 0.14365286D+05 0.14365286D+05 0.14365286D+05 0.12499688D+01  1  2 11  3  6  5       21 0.517270511985D-03 0.100000000000D+01
0.489680757185D-05 0.000000000000D+00 0.000000000000D+00 0.326802870699D-04 0.000000000000D+00  6 -1 2 25 24 1 -1 4 0.71864469D-02 0.52367991D-01 0.14365286D+05 0.14365286D+05 0.14365286D+05 0.12499688D+01  1  2 12  6  6  5       21 0.123502601578D-01 0.100000000000D+01
0.398656849890D-05 0.000000000000D+00 0.000000000000D+00 0.326802870699D-04 0.000000000000D+00  6 -1 2 25 24 1 -1 4 0.71864469D-02 0.52367991D-01 0.14365286D+05 0.14365286D+05 0.14365286D+05 0.12499688D+01  1  2 12  6  6  5       21 0.100545421432D-01 0.100000000000D+01
-.537511482380D-05 0.000000000000D+00 0.000000000000D+00 0.327216468576D-04 0.000000000000D+00  6 -1 2 25 24 1 -1 4 0.71864469D-02 0.52367991D-01 0.14139099D+05 0.14139099D+05 0.14139099D+05 0.12507595D+01  1  2  5  6  6  5       21 -.135827825317D-01 0.100000000000D+01
0.542741141543D-08 0.000000000000D+00 0.000000000000D+00 0.327216468576D-04 0.809489295905D-07  6 -1 2 25 24 1 -1 4 0.71864469D-02 0.52367991D-01 0.14365286D+05 0.14365286D+05 0.14365286D+05 0.12499688D+01  1  2 11  6  6  5       21 0.136884984718D-04 0.100000000000D+01
0.489680757185D-05 0.000000000000D+00 0.000000000000D+00 0.326802870699D-04 0.000000000000D+00  6 -1 2 25 24 2 -2 4 0.71864469D-02 0.52367991D-01 0.14365286D+05 0.14365286D+05 0.14365286D+05 0.12499688D+01  1  2 12  7  6  5       21 0.123502601578D-01 0.100000000000D+01
0.398656849890D-05 0.000000000000D+00 0.000000000000D+00 0.326802870699D-04 0.000000000000D+00  6 -1 2 25 24 2 -2 4 0.71864469D-02 0.52367991D-01 0.14365286D+05 0.14365286D+05 0.14365286D+05 0.12499688D+01  1  2 12  7  6  5       21 0.100545421432D-01 0.100000000000D+01
-.537511482380D-05 0.000000000000D+00 0.000000000000D+00 0.327216468576D-04 0.000000000000D+00  6 -1 2 25 24 2 -2 4 0.71864469D-02 0.52367991D-01 0.14139099D+05 0.14139099D+05 0.14139099D+05 0.12507595D+01  1  2  5  7  6  5       21 -.135827825317D-01 0.100000000000D+01
0.538985829900D-08 0.000000000000D+00 0.000000000000D+00 0.327216468576D-04 0.805186411123D-07  6 -1 2 25 24 2 -2 4 0.71864469D-02 0.52367991D-01 0.14365286D+05 0.14365286D+05 0.14365286D+05 0.12499688D+01  1  2 11  7  6  5       21 0.135937855898D-04 0.100000000000D+01
0.489680757185D-05 0.000000000000D+00 0.000000000000D+00 0.326802870699D-04 0.000000000000D+00  6 -1 2 25 24 3 -3 4 0.71864469D-02 0.52367991D-01 0.14365286D+05 0.14365286D+05 0.14365286D+05 0.12499688D+01  1  2 12  8  6  5       21 0.123502601578D-01 0.100000000000D+01
0.489680757185D-05 0.000000000000D+00 0.000000000000D+00 0.326802870699D-04 0.000000000000D+00  6 -1 2 25 24 4 -4 4 0.71864469D-02 0.52367991D-01 0.14365286D+05 0.14365286D+05 0.14365286D+05 0.12499688D+01  1  2 12  8  6  5       21 0.123502601578D-01 0.100000000000D+01
0.398656849890D-05 0.000000000000D+00 0.000000000000D+00 0.326802870699D-04 0.000000000000D+00  6 -1 2 25 24 3 -3 4 0.71864469D-02 0.52367991D-01 0.14365286D+05 0.14365286D+05 0.14365286D+05 0.12499688D+01  1  2 12  8  6  5       21 0.100545421432D-01 0.100000000000D+01
0.398656849890D-05 0.000000000000D+00 0.000000000000D+00 0.326802870699D-04 0.000000000000D+00  6 -1 2 25 24 4 -4 4 0.71864469D-02 0.52367991D-01 0.14365286D+05 0.14365286D+05 0.14365286D+05 0.12499688D+01  1  2 12  8  6  5       21 0.100545421432D-01 0.100000000000D+01
-.537511482380D-05 0.000000000000D+00 0.000000000000D+00 0.327216468576D-04 0.000000000000D+00  6 -1 2 25 24 3 -3 4 0.71864469D-02 0.52367991D-01 0.14139099D+05 0.14139099D+05 0.14139099D+05 0.12507595D+01  1  2  5  8  6  5       21 -.135827825317D-01 0.100000000000D+01
-.537511482380D-05 0.000000000000D+00 0.000000000000D+00 0.327216468576D-04 0.000000000000D+00  6 -1 2 25 24 4 -4 4 0.71864469D-02 0.52367991D-01 0.14139099D+05 0.14139099D+05 0.14139099D+05 0.12507595D+01  1  2  5  8  6  5       21 -.135827825317D-01 0.100000000000D+01
0.545419627781D-08 0.000000000000D+00 0.000000000000D+00 0.327216468576D-04 0.784007701411D-07  6 -1 2 25 24 3 -3 4 0.71864469D-02 0.52367991D-01 0.14365286D+05 0.14365286D+05 0.14365286D+05 0.12499688D+01  1  2 11  8  6  5       21 0.137560526924D-04 0.100000000000D+01
0.545419627781D-08 0.000000000000D+00 0.000000000000D+00 0.327216468576D-04 0.784007701411D-07  6 -1 2 25 24 4 -4 4 0.71864469D-02 0.52367991D-01 0.14365286D+05 0.14365286D+05 0.14365286D+05 0.12499688D+01  1  2 11  8  6  5       21 0.137560526924D-04 0.100000000000D+01
  </mgrwgt>
  </event>
  <event>
  5     66 0.43135346E-03 0.26507610E+02 0.75467711E-02 0.12374203E+00
       -1 -1    0    0    0  501 0.00000000E+00 0.00000000E+00 0.15856566E+02 0.15859795E+02 0.32000000E+00 0.0000E+00 0.9000E+01
        2 -1    0    0  502    0 -.00000000E+00 -.00000000E+00 -.15802638E+04 0.15802638E+04 0.32000000E+00 0.0000E+00 0.9000E+01
       25  1    1    2    0    0 0.23205361E+02 0.76788810E+01 -.52513557E+03 0.54036083E+03 0.12500000E+03 0.0000E+00 0.9000E+01
       24  1    1    2    0    0 -.31834417E+02 -.32741748E+02 -.25856854E+03 0.27460947E+03 0.80419002E+02 0.0000E+00 0.9000E+01
       21  1    1    2  502  501 0.86290557E+01 0.25062867E+02 -.78070312E+03 0.78115334E+03 0.75000000E+00 0.0000E+00 0.9000E+01
#aMCatNLO 1  0  0  5  1 0.78999397D+01 0.00000000D+00  -5  6  0 0.00000000D+00 0.00000000D+00 0.00000000D+00 0.00000000D+00 0.00000000D+00
  <mgrwgt>
 0.5069103015D+00   25    2    0
 0.158304011837143D+03 0.000000000000000D+00 0.000000000000000D+00 0.158304011837143D+03
 0.158304011837143D+03 -.000000000000000D+00 -.000000000000000D+00 -.158304011837143D+03
 0.129361386128600D+03 0.232052083519030D+02 0.767843627891212D+01 0.226258291067576D+02
 0.106770458014308D+03 -.318345435965358D+02 -.327421149103281D+02 0.533594461685436D+02
 0.804761795313772D+02 0.862933524463272D+01 0.250636786314160D+02 -.759852752753012D+02
 0.000000000000000D+00 0.000000000000000D+00 0.000000000000000D+00 -.000000000000000D+00
 0.158304011837143D+03 0.000000000000000D+00 0.000000000000000D+00 0.158304011837143D+03
 0.158304011837143D+03 -.000000000000000D+00 -.000000000000000D+00 -.158304011837143D+03
 0.129281622392980D+03 0.232736348002301D+02 0.787717910928546D+01 0.220233026820858D+02
 0.106455984367179D+03 -.317781325293085D+02 -.325782704402550D+02 0.528627207139954D+02
 0.403464388421114D+02 0.958573526747694D+01 0.176406980582240D+02 -.349964938049608D+02
 0.405239780720148D+02 -.108123753839858D+01 0.706039327274555D+01 -.398895295911204D+02
0.478271446429D-04 0.000000000000D+00 0.000000000000D+00 0.425216013674D-04 0.000000000000D+00  6 -1 2 25 24 21 21 2 0.24397226D-02 0.24311776D+00 0.15172791D+05 0.15172791D+05 0.15172791D+05 0.12472559D+01  1  2  2  3  6  5       21 0.524624198510D-01 0.100000000000D+01
0.480542264139D-05 0.252390776326D-05 -.183668828605D-06 0.425216013674D-04 0.000000000000D+00  6 -1 2 25 24 21 21 4 0.24397226D-02 0.24311776D+00 0.15172791D+05 0.15172791D+05 0.15172791D+05 0.12472559D+01  1  2  3  3  6  5       21 0.820005125644D-02 0.100000000000D+01
0.209106373990D-05 0.000000000000D+00 0.000000000000D+00 0.425216013674D-04 0.000000000000D+00  6 -1 2 25 24 21 21 4 0.24397226D-02 0.24311776D+00 0.15172791D+05 0.15172791D+05 0.15172791D+05 0.12472559D+01  1  2 15  3  6  5       21 0.356822513382D-02 0.100000000000D+01
0.126257584877D-03 0.000000000000D+00 0.000000000000D+00 0.425035904127D-04 0.000000000000D+00  6 -1 2 25 24 21 21 4 0.24397226D-02 0.24311776D+00 0.15254108D+05 0.15254108D+05 0.15254108D+05 0.12469917D+01  1  2 12  3  6  5       21 0.215284389740D+00 0.100000000000D+01
0.102218720136D-03 0.000000000000D+00 0.000000000000D+00 0.425035904127D-04 0.000000000000D+00  6 -1 2 25 24 21 21 4 0.24397226D-02 0.24311776D+00 0.15254108D+05 0.15254108D+05 0.15254108D+05 0.12469917D+01  1  2 12  3  6  5       21 0.174295229914D+00 0.100000000000D+01
-.167539220459D-03 0.000000000000D+00 0.000000000000D+00 0.425216013674D-04 0.000000000000D+00  6 -1 2 25 24 21 21 4 0.24397226D-02 0.24311776D+00 0.15172791D+05 0.15172791D+05 0.15172791D+05 0.12472559D+01  1  2  4  3  6  5       21 -.285891647364D+00 0.100000000000D+01
-.260851726304D-03 0.000000000000D+00 0.000000000000D+00 0.425216013674D-04 0.000000000000D+00  6 -1 2 25 24 21 21 4 0.24397226D-02 0.24311776D+00 0.15172791D+05 0.15172791D+05 0.15172791D+05 0.12472559D+01  1  2  5  3  6  5       21 -.445121623144D+00 0.100000000000D+01
0.441817198110D-03 0.000000000000D+00 -.000000000000D+00 0.425216013674D-04 0.000000000000D+00  6 -1 2 25 24 21 21 4 0.24397226D-02 0.24311776D+00 0.15172791D+05 0.15172791D+05 0.15172791D+05 0.12472559D+01  1  2  6  3  6  5       21 0.753924043906D+00 0.100000000000D+01
0.165386938803D-05 0.000000000000D+00 0.000000000000D+00 0.425216013674D-04 0.890900223397D-05  6 -1 2 25 24 21 21 4 0.24397226D-02 0.24311776D+00 0.15254108D+05 0.15254108D+05 0.15254108D+05 0.12469917D+01  1  2 11  3  6  5       21 0.282004651252D-02 0.100000000000D+01
0.467467232318D-05 0.000000000000D+00 0.000000000000D+00 0.425035904127D-04 0.000000000000D+00  6 -1 2 25 24 1 -1 4 0.24397226D-02 0.24311776D+00 0.15254108D+05 0.15254108D+05 0.15254108D+05 0.12469917D+01  1  2 12  6  6  5       21 0.797087936783D-02 0.100000000000D+01
0.378464041337D-05 0.000000000000D+00 0.000000000000D+00 0.425035904127D-04 0.000000000000D+00  6 -1 2 25 24 1 -1 4 0.24397226D-02 0.24311776D+00 0.15254108D+05 0.15254108D+05 0.15254108D+05 0.12469917D+01  1  2 12  6  6  5       21 0.645326775870D-02 0.100000000000D+01
-.447688518685D-05 0.000000000000D+00 0.000000000000D+00 0.425216013674D-04 0.000000000000D+00  6 -1 2 25 24 1 -1 4 0.24397226D-02 0.24311776D+00 0.15172791D+05 0.15172791D+05 0.15172791D+05 0.12472559D+01  1  2  5  6  6  5       21 -.763942960711D-02 0.100000000000D+01
0.335449853657D-07 0.000000000000D+00 0.000000000000D+00 0.425216013674D-04 0.736741449118D-07  6 -1 2 25 24 1 -1 4 0.24397226D-02 0.24311776D+00 0.15254108D+05 0.15254108D+05 0.15254108D+05 0.12469917D+01  1  2 11  6  6  5       21 0.571982404884D-04 0.100000000000D+01
0.467467232318D-05 0.000000000000D+00 0.000000000000D+00 0.425035904127D-04 0.000000000000D+00  6 -1 2 25 24 2 -2 4 0.24397226D-02 0.24311776D+00 0.15254108D+05 0.15254108D+05 0.15254108D+05 0.12469917D+01  1  2 12  7  6  5       21 0.797087936783D-02 0.100000000000D+01
0.378464041337D-05 0.000000000000D+00 0.000000000000D+00 0.425035904127D-04 0.000000000000D+00  6 -1 2 25 24 2 -2 4 0.24397226D-02 0.24311776D+00 0.15254108D+05 0.15254108D+05 0.15254108D+05 0.12469917D+01  1  2 12  7  6  5       21 0.645326775870D-02 0.100000000000D+01
-.447688518685D-05 0.000000000000D+00 0.000000000000D+00 0.425216013674D-04 0.000000000000D+00  6 -1 2 25 24 2 -2 4 0.24397226D-02 0.24311776D+00 0.15172791D+05 0.15172791D+05 0.15172791D+05 0.12472559D+01  1  2  5  7  6  5       21 -.763942960711D-02 0.100000000000D+01
0.348336429741D-07 0.000000000000D+00 0.000000000000D+00 0.425216013674D-04 0.807545560782D-07  6 -1 2 25 24 2 -2 4 0.24397226D-02 0.24311776D+00 0.15254108D+05 0.15254108D+05 0.15254108D+05 0.12469917D+01  1  2 11  7  6  5       21 0.593955569275D-04 0.100000000000D+01
0.467467232318D-05 0.000000000000D+00 0.000000000000D+00 0.425035904127D-04 0.000000000000D+00  6 -1 2 25 24 3 -3 4 0.24397226D-02 0.24311776D+00 0.15254108D+05 0.15254108D+05 0.15254108D+05 0.12469917D+01  1  2 12  8  6  5       21 0.797087936783D-02 0.100000000000D+01
0.467467232318D-05 0.000000000000D+00 0.000000000000D+00 0.425035904127D-04 0.000000000000D+00  6 -1 2 25 24 4 -4 4 0.24397226D-02 0.24311776D+00 0.15254108D+05 0.15254108D+05 0.15254108D+05 0.12469917D+01  1  2 12  8  6  5       21 0.797087936783D-02 0.100000000000D+01
0.378464041337D-05 0.000000000000D+00 0.000000000000D+00 0.425035904127D-04 0.000000000000D+00  6 -1 2 25 24 3 -3 4 0.24397226D-02 0.24311776D+00 0.15254108D+05 0.15254108D+05 0.15254108D+05 0.12469917D+01  1  2 12  8  6  5       21 0.645326775870D-02 0.100000000000D+01
0.378464041337D-05 0.000000000000D+00 0.000000000000D+00 0.425035904127D-04 0.000000000000D+00  6 -1 2 25 24 4 -4 4 0.24397226D-02 0.24311776D+00 0.15254108D+05 0.15254108D+05 0.15254108D+05 0.12469917D+01  1  2 12  8  6  5       21 0.645326775870D-02 0.100000000000D+01
-.447688518685D-05 0.000000000000D+00 0.000000000000D+00 0.425216013674D-04 0.000000000000D+00  6 -1 2 25 24 3 -3 4 0.24397226D-02 0.24311776D+00 0.15172791D+05 0.15172791D+05 0.15172791D+05 0.12472559D+01  1  2  5  8  6  5       21 -.763942960711D-02 0.100000000000D+01
-.447688518685D-05 0.000000000000D+00 0.000000000000D+00 0.425216013674D-04 0.000000000000D+00  6 -1 2 25 24 4 -4 4 0.24397226D-02 0.24311776D+00 0.15172791D+05 0.15172791D+05 0.15172791D+05 0.12472559D+01  1  2  5  8  6  5       21 -.763942960711D-02 0.100000000000D+01
0.333412962251D-07 0.000000000000D+00 0.000000000000D+00 0.425216013674D-04 0.731557575785D-07  6 -1 2 25 24 3 -3 4 0.24397226D-02 0.24311776D+00 0.15254108D+05 0.15254108D+05 0.15254108D+05 0.12469917D+01  1  2 11  8  6  5       21 0.568509259697D-04 0.100000000000D+01
0.333412962251D-07 0.000000000000D+00 0.000000000000D+00 0.425216013674D-04 0.731557575785D-07  6 -1 2 25 24 4 -4 4 0.24397226D-02 0.24311776D+00 0.15254108D+05 0.15254108D+05 0.15254108D+05 0.12469917D+01  1  2 11  8  6  5       21 0.568509259697D-04 0.100000000000D+01
  </mgrwgt>
  </event>
  <event>
  5     66 0.43135346E-03 0.36170569E+02 0.75467711E-02 0.11189724E+00
       -1 -1    0    0    0  501 0.00000000E+00 0.00000000E+00 0.93922933E+03 0.93922938E+03 0.32000000E+00 0.0000E+00 0.9000E+01
        2 -1    0    0  502    0 0.00000000E+00 0.00000000E+00 -.24307528E+02 0.24309634E+02 0.32000000E+00 0.0000E+00 0.9000E+01
       25  1    1    2    0    0 0.65216998E+02 -.41266324E+02 0.67626812E+03 0.69204027E+03 0.12500000E+03 0.0000E+00 0.9000E+01
       24  1    1    2    0    0 -.45894136E+02 0.10696405E+02 0.16806429E+03 0.19218092E+03 0.80419002E+02 0.0000E+00 0.9000E+01
       21  1    1    2  502  501 -.19322862E+02 0.30569919E+02 0.70589398E+02 0.79317833E+02 0.75000000E+00 0.0000E+00 0.9000E+01
#aMCatNLO 1  0  0  2  5 0.94328456D+01 0.00000000D+00  -5  6  0 0.00000000D+00 0.00000000D+00 0.00000000D+00 0.00000000D+00 0.00000000D+00
  <mgrwgt>
 0.1299352714D+00    5    4    0
 0.151100576019220D+03 0.000000000000000D+00 0.000000000000000D+00 0.151100576019220D+03
 0.151100576019220D+03 0.000000000000000D+00 0.000000000000000D+00 -.151100576019220D+03
 0.159086047297668D+03 0.652188613978539D+02 -.412692723926358D+02 0.610468485586757D+02
 0.103930059497395D+03 -.458929183063106D+02 0.106944792290941D+02 -.459750962599360D+02
 0.391850452433767D+02 -.193259430915433D+02 0.305747931635416D+02 -.150717522987397D+02
 0.000000000000000D+00 0.000000000000000D+00 -.000000000000000D+00 -.000000000000000D+00
 0.211287019620754D+03 0.000000000000000D+00 0.000000000000000D+00 0.211287019620754D+03
 0.338680442161339D+03 0.000000000000000D+00 0.000000000000000D+00 -.338680442161339D+03
 0.139362744209024D+03 -.232598086845692D+01 -.805273664810112D+01 0.610468485586757D+02
 0.142775934183438D+03 -.101727345864888D+03 0.381521828308411D+02 -.459750962599360D+02
 0.611185935762848D+02 -.420266329774298D+02 0.417383143402909D+02 -.150717522987397D+02
 0.206710189813347D+03 0.146079959710775D+03 -.718377605230309D+02 -.127393422540585D+03
 0.151100576019220D+03 0.000000000000000D+00 0.000000000000000D+00 0.151100576019220D+03
 0.151100576019220D+03 0.000000000000000D+00 0.000000000000000D+00 -.151100576019220D+03
 0.159086047297668D+03 0.652188613978539D+02 -.412692723926358D+02 0.610468485586757D+02
 0.103930059497395D+03 -.458929183063106D+02 0.106944792290941D+02 -.459750962599360D+02
 0.000000000000000D+00 0.000000000000000D+00 -.000000000000000D+00 -.000000000000000D+00
 0.391850452433767D+02 -.193259430915433D+02 0.305747931635416D+02 -.150717522987397D+02
 0.211287019620754D+03 0.000000000000000D+00 0.000000000000000D+00 0.211287019620754D+03
 0.338680442161339D+03 0.000000000000000D+00 0.000000000000000D+00 -.338680442161339D+03
 0.139362744209024D+03 -.232598086845692D+01 -.805273664810112D+01 0.610468485586757D+02
 0.142775934183438D+03 -.101727345864888D+03 0.381521828308411D+02 -.459750962599360D+02
 0.206710189813347D+03 0.146079959710775D+03 -.718377605230309D+02 -.127393422540585D+03
 0.611185935762848D+02 -.420266329774298D+02 0.417383143402909D+02 -.150717522987397D+02
0.647834541605D-03 0.000000000000D+00 0.000000000000D+00 0.143111884570D-04 0.000000000000D+00  6 -1 2 25 24 21 21 2 0.14449699D+00 0.37397859D-02 0.19083435D+05 0.19083435D+05 0.19083435D+05 0.12360753D+01  1  2  2  2  6  2        2 0.107214696965D+00 0.100000000000D+01
0.456525503359D-04 0.341871679999D-04 -.248785521851D-05 0.143111884570D-04 0.000000000000D+00  6 -1 2 25 24 21 21 4 0.14449699D+00 0.37397859D-02 0.19083435D+05 0.19083435D+05 0.19083435D+05 0.12360753D+01  1  2  3  2  6  2        2 0.115437025823D-01 0.100000000000D+01
0.301777660064D-04 0.000000000000D+00 0.000000000000D+00 0.143111884570D-04 0.000000000000D+00  6 -1 2 25 24 21 21 4 0.14449699D+00 0.37397859D-02 0.19083435D+05 0.19083435D+05 0.19083435D+05 0.12360753D+01  1  2 15  2  6  2        2 0.763074905595D-02 0.100000000000D+01
-.514340733724D-04 0.000000000000D+00 -.414112973169D-03 0.143111884570D-04 0.000000000000D+00  6 -1 2 25 24 21 21 4 0.14449699D+00 0.11832080D-01 0.19083435D+05 0.19083435D+05 0.19083435D+05 0.12360753D+01  1  2  5  2  6  2        2 -.299868009947D-02 0.100000000000D+01
0.116285839037D-04 0.000000000000D+00 -.548143953531D-04 0.143111884570D-04 0.000000000000D+00  6 -1 21 25 24 -2 21 4 0.14449699D+00 0.11832080D-01 0.19083435D+05 0.19083435D+05 0.19083435D+05 0.12360753D+01  3  4  5  5  5  2        2 0.654480293358D-02 0.100000000000D+01
  </mgrwgt>
  </event>
  <event>
  5     66 0.43135346E-03 0.41699473E+02 0.75467711E-02 0.11028505E+00
       -1 -1    0    0    0  501 0.00000000E+00 0.00000000E+00 0.56783798E+02 0.56784700E+02 0.32000000E+00 0.0000E+00 0.9000E+01
        2 -1    0    0  502    0 0.00000000E+00 0.00000000E+00 -.11361499E+04 0.11361500E+04 0.32000000E+00 0.0000E+00 0.9000E+01
       25  1    1    2    0    0 -.62626216E+02 -.18591335E+03 -.34855885E+03 0.41905141E+03 0.12500000E+03 0.0000E+00 0.9000E+01
       24  1    1    2    0    0 0.20987975E+02 0.18370604E+03 -.49627376E+03 0.53567085E+03 0.80419002E+02 0.0000E+00 0.9000E+01
       21  1    1    2  502  501 0.41638241E+02 0.22073114E+01 -.23453351E+03 0.23821239E+03 0.75000000E+00 0.0000E+00 0.9000E+01
#aMCatNLO 1  0  0  2  1 0.40705770D+02 0.00000000D+00  -5  6  0 0.00000000D+00 0.00000000D+00 0.00000000D+00 0.00000000D+00 0.00000000D+00
  <mgrwgt>
 0.1817990119D+00    4    2    0
 0.253998960756671D+03 0.000000000000000D+00 0.000000000000000D+00 0.253998960756671D+03
 0.253998960756671D+03 0.000000000000000D+00 0.000000000000000D+00 -.253998960756671D+03
 0.243463226442765D+03 -.626277208846865D+02 -.185913427433989D+03 0.718561667949100D+02
 0.203463545908200D+03 0.209867169277082D+02 0.183705969584157D+03 -.272373458859097D+02
 0.610711491623770D+02 0.416410039569783D+02 0.220745784983169D+01 -.446188209090002D+02
 0.000000000000000D+00 -.000000000000000D+00 -.000000000000000D+00 0.000000000000000D+00
 0.306398333218894D+03 0.000000000000000D+00 0.000000000000000D+00 0.306398333218894D+03
 0.269844411316405D+03 0.000000000000000D+00 0.000000000000000D+00 -.269844411316405D+03
 0.233797866141418D+03 -.379212122484143D+02 -.180097515716995D+03 0.718561667949100D+02
 0.211286743597267D+03 0.424572113149199D+02 0.188760123601407D+03 -.272373458859097D+02
 0.657950544901535D+02 0.482085222502056D+02 0.375345154547980D+01 -.446188209090002D+02
 0.653630803064610D+02 -.527445213167113D+02 -.124160594298919D+02 0.365539219024888D+02
0.715595485869D-03 0.000000000000D+00 0.000000000000D+00 0.895096699613D-05 0.000000000000D+00  6 -1 2 25 24 21 21 2 0.87360418D-02 0.17479237D+00 0.56631970D+05 0.56631970D+05 0.56631970D+05 0.11869616D+01  1  2  2  2  6  2        2 0.187605563433D+00 0.100000000000D+01
0.105392561360D-03 0.377630112695D-04 -.274807508636D-05 0.895096699613D-05 0.000000000000D+00  6 -1 2 25 24 21 21 4 0.87360418D-02 0.17479237D+00 0.56631970D+05 0.56631970D+05 0.56631970D+05 0.11869616D+01  1  2  3  2  6  2        2 0.389279401275D-01 0.100000000000D+01
-.103617155181D-05 0.000000000000D+00 0.000000000000D+00 0.895096699613D-05 0.000000000000D+00  6 -1 2 25 24 21 21 4 0.87360418D-02 0.17479237D+00 0.56631970D+05 0.56631970D+05 0.56631970D+05 0.11869616D+01  1  2 15  2  6  2        2 -.382721736811D-03 0.100000000000D+01
-.120076906538D-03 0.000000000000D+00 0.000000000000D+00 0.895096699613D-05 0.000000000000D+00  6 -1 2 25 24 21 21 4 0.87360418D-02 0.17479237D+00 0.56631970D+05 0.56631970D+05 0.56631970D+05 0.11869616D+01  1  2  4  2  6  2        2 -.443517698791D-01 0.100000000000D+01
  </mgrwgt>
  </event>
  <event>
  5     66 -.43135346E-03 0.26422642E+02 0.75467711E-02 0.12012855E+00
       -1 -1    0    0    0  501 0.00000000E+00 0.00000000E+00 0.27679279E+02 0.27681129E+02 0.32000000E+00 0.0000E+00 0.9000E+01
        2 -1    0    0  502    0 -.00000000E+00 -.00000000E+00 -.97464120E+03 0.97464126E+03 0.32000000E+00 0.0000E+00 0.9000E+01
       25  1    1    2    0    0 -.71146637E+02 -.59223289E+02 -.37602942E+03 0.40693042E+03 0.12500000E+03 0.0000E+00 0.9000E+01
       24  1    1    2    0    0 0.47141800E+02 0.70259773E+02 -.28133098E+03 0.30458681E+03 0.80419002E+02 0.0000E+00 0.9000E+01
       21  1    1    2  502  501 0.24004837E+02 -.11036484E+02 -.28960152E+03 0.29080516E+03 0.75000000E+00 0.0000E+00 0.9000E+01
#aMCatNLO 1  0  0  5  1 0.48317758D+00 0.00000000D+00  -5  6  0 0.00000000D+00 0.00000000D+00 0.00000000D+00 0.00000000D+00 0.00000000D+00
  <mgrwgt>
 -.3564068855D+00   15    2    0
 0.164250781442451D+03 0.000000000000000D+00 0.000000000000000D+00 0.164250781442451D+03
 0.164250781442451D+03 -.000000000000000D+00 -.000000000000000D+00 -.164250781442451D+03
 0.157655726250063D+03 -.711478139134472D+02 -.592227475315007D+02 0.257095851695883D+02
 0.118369300212483D+03 0.471409168221358D+02 0.702601788684019D+02 0.196294805069048D+02
 0.524765364223571D+02 0.240068970913114D+02 -.110374313369012D+02 -.453390656764931D+02
 0.000000000000000D+00 0.000000000000000D+00 0.000000000000000D+00 -.000000000000000D+00
 0.164250781442451D+03 0.000000000000000D+00 0.000000000000000D+00 0.164250781442451D+03
 0.164250781442451D+03 -.000000000000000D+00 -.000000000000000D+00 -.164250781442451D+03
 0.157650786481702D+03 -.711393905947843D+02 -.592266202436224D+02 0.256936770163346D+02
 0.118368113075600D+03 0.471472411909358D+02 0.702572711712466D+02 0.196175363988722D+02
 0.492214565791880D+02 0.229135135382093D+02 -.104839591093671D+02 -.422824938538907D+02
 0.326120674841245D+01 0.107863586563913D+01 -.546691818257022D+00 -.302871956131608D+01
0.965871765289D-05 0.000000000000D+00 0.000000000000D+00 0.313329574795D-04 0.000000000000D+00  6 -1 2 25 24 21 21 2 0.42584970D-02 0.14994495D+00 0.22305170D+05 0.22305170D+05 0.22305170D+05 0.12286443D+01  1  2  2  3  6  5       21 0.986453976044D-02 0.100000000000D+01
0.125834994877D-05 0.509704533884D-06 -.370920189859D-07 0.313329574795D-04 0.000000000000D+00  6 -1 2 25 24 21 21 4 0.42584970D-02 0.14994495D+00 0.22305170D+05 0.22305170D+05 0.22305170D+05 0.12286443D+01  1  2  3  3  6  5       21 0.194004187423D-02 0.100000000000D+01
0.243287141054D-06 0.000000000000D+00 0.000000000000D+00 0.313329574795D-04 0.000000000000D+00  6 -1 2 25 24 21 21 4 0.42584970D-02 0.14994495D+00 0.22305170D+05 0.22305170D+05 0.22305170D+05 0.12286443D+01  1  2 15  3  6  5       21 0.375084245500D-03 0.100000000000D+01
-.658198680217D-02 0.000000000000D+00 0.000000000000D+00 0.313329574795D-04 0.000000000000D+00  6 -1 2 25 24 21 21 4 0.42584970D-02 0.14994495D+00 0.22305170D+05 0.22305170D+05 0.22305170D+05 0.12286443D+01  1  2  4  3  6  5       21 -.101476779368D+02 0.100000000000D+01
-.416396026324D-02 0.000000000000D+00 0.000000000000D+00 0.313329574795D-04 0.000000000000D+00  6 -1 2 25 24 21 21 4 0.42584970D-02 0.14994495D+00 0.22305170D+05 0.22305170D+05 0.22305170D+05 0.12286443D+01  1  2  5  3  6  5       21 -.641972233658D+01 0.100000000000D+01
0.452437717626D-02 0.000000000000D+00 -.000000000000D+00 0.313329574795D-04 0.000000000000D+00  6 -1 2 25 24 21 21 4 0.42584970D-02 0.14994495D+00 0.22305170D+05 0.22305170D+05 0.22305170D+05 0.12286443D+01  1  2  6  3  6  5       21 0.697538962461D+01 0.100000000000D+01
0.597867339746D-02 0.000000000000D+00 0.000000000000D+00 0.313329574795D-04 0.156447251024D-02  6 -1 2 25 24 21 21 4 0.42584970D-02 0.14994495D+00 0.22302648D+05 0.22302648D+05 0.22302648D+05 0.12286496D+01  1  2 11  3  6  5       21 0.921766646733D+01 0.100000000000D+01
-.176819725524D-04 0.000000000000D+00 0.000000000000D+00 0.313329574795D-04 0.000000000000D+00  6 -1 2 25 24 1 -1 4 0.42584970D-02 0.14994495D+00 0.22305170D+05 0.22305170D+05 0.22305170D+05 0.12286443D+01  1  2  5  6  6  5       21 -.272609119620D-01 0.100000000000D+01
0.186618486563D-04 0.000000000000D+00 0.000000000000D+00 0.313329574795D-04 0.961884326714D-05  6 -1 2 25 24 1 -1 4 0.42584970D-02 0.14994495D+00 0.22302648D+05 0.22302648D+05 0.22302648D+05 0.12286496D+01  1  2 11  6  6  5       21 0.287720511126D-01 0.100000000000D+01
-.176819725524D-04 0.000000000000D+00 0.000000000000D+00 0.313329574795D-04 0.000000000000D+00  6 -1 2 25 24 2 -2 4 0.42584970D-02 0.14994495D+00 0.22305170D+05 0.22305170D+05 0.22305170D+05 0.12286443D+01  1  2  5  7  6  5       21 -.272609119620D-01 0.100000000000D+01
0.185886356739D-04 0.000000000000D+00 0.000000000000D+00 0.313329574795D-04 0.958099439705D-05  6 -1 2 25 24 2 -2 4 0.42584970D-02 0.14994495D+00 0.22302648D+05 0.22302648D+05 0.22302648D+05 0.12286496D+01  1  2 11  7  6  5       21 0.286591744245D-01 0.100000000000D+01
-.176819725524D-04 0.000000000000D+00 0.000000000000D+00 0.313329574795D-04 0.000000000000D+00  6 -1 2 25 24 3 -3 4 0.42584970D-02 0.14994495D+00 0.22305170D+05 0.22305170D+05 0.22305170D+05 0.12286443D+01  1  2  5  8  6  5       21 -.272609119620D-01 0.100000000000D+01
-.176819725524D-04 0.000000000000D+00 0.000000000000D+00 0.313329574795D-04 0.000000000000D+00  6 -1 2 25 24 4 -4 4 0.42584970D-02 0.14994495D+00 0.22305170D+05 0.22305170D+05 0.22305170D+05 0.12286443D+01  1  2  5  8  6  5       21 -.272609119620D-01 0.100000000000D+01
0.186054033825D-04 0.000000000000D+00 0.000000000000D+00 0.313329574795D-04 0.958892524711D-05  6 -1 2 25 24 3 -3 4 0.42584970D-02 0.14994495D+00 0.22302648D+05 0.22302648D+05 0.22302648D+05 0.12286496D+01  1  2 11  8  6  5       21 0.286850261703D-01 0.100000000000D+01
0.186054033825D-04 0.000000000000D+00 0.000000000000D+00 0.313329574795D-04 0.958892524711D-05  6 -1 2 25 24 4 -4 4 0.42584970D-02 0.14994495D+00 0.22302648D+05 0.22302648D+05 0.22302648D+05 0.12286496D+01  1  2 11  8  6  5       21 0.286850261703D-01 0.100000000000D+01
  </mgrwgt>
  </event>
  <event>
  5     66 0.43135346E-03 0.40607787E+02 0.75467711E-02 0.10650931E+00
       -1 -1    0    0    0  501 0.00000000E+00 0.00000000E+00 0.16393311E+02 0.16396434E+02 0.32000000E+00 0.0000E+00 0.9000E+01
        2 -1    0    0  502    0 0.00000000E+00 0.00000000E+00 -.13944398E+04 0.13944398E+04 0.32000000E+00 0.0000E+00 0.9000E+01
       25  1    1    2    0    0 -.59068914E+02 -.31831570E+02 -.46676474E+03 0.48784906E+03 0.12500000E+03 0.0000E+00 0.9000E+01
       24  1    1    2    0    0 0.22974511E+02 0.50425228E+02 -.76374428E+03 0.76996303E+03 0.80419002E+02 0.0000E+00 0.9000E+01
       21  1    1    2  502  501 0.36094402E+02 -.18593659E+02 -.14753743E+03 0.15302414E+03 0.75000000E+00 0.0000E+00 0.9000E+01
#aMCatNLO 1  0  0  2  2 0.14335032D+03 0.00000000D+00  -5  6  0 0.00000000D+00 0.00000000D+00 0.00000000D+00 0.00000000D+00 0.00000000D+00
  <mgrwgt>
 0.1838184873D+00    5    4    0
 0.151200902586508D+03 0.000000000000000D+00 0.000000000000000D+00 0.151200902586508D+03
 0.151200902586508D+03 0.000000000000000D+00 0.000000000000000D+00 -.151200902586508D+03
 0.148980009286098D+03 -.590718050392660D+02 -.318300801177967D+02 0.454687916705889D+02
 0.111827201871442D+03 0.229723411549807D+02 0.504263461316155D+02 -.544753364532921D+02
 0.415945940154771D+02 0.360994638842852D+02 -.185962660138187D+02 0.900654478270323D+01
 0.000000000000000D+00 -.000000000000000D+00 -.000000000000000D+00 -.000000000000000D+00
 0.271976691039305D+03 0.000000000000000D+00 0.000000000000000D+00 0.271976691039305D+03
 0.532932847270945D+03 0.000000000000000D+00 0.000000000000000D+00 -.532932847270945D+03
 0.143725893679692D+03 0.543177374614751D+02 -.378218126336321D+01 0.454687916705889D+02
 0.186853857599200D+03 0.138676562845962D+03 0.790468012057542D+02 -.544753364532921D+02
 0.863789684355242D+02 0.856743564692326D+02 -.633348108430970D+01 0.900654478270323D+01
 0.387950818595834D+03 -.278668656776670D+03 -.689311388580813D+02 -.260956156231640D+03
 0.151200902586508D+03 0.000000000000000D+00 0.000000000000000D+00 0.151200902586508D+03
 0.151200902586508D+03 0.000000000000000D+00 0.000000000000000D+00 -.151200902586508D+03
 0.148980009286098D+03 -.590718050392660D+02 -.318300801177967D+02 0.454687916705889D+02
 0.111827201871442D+03 0.229723411549807D+02 0.504263461316155D+02 -.544753364532921D+02
 0.000000000000000D+00 -.000000000000000D+00 -.000000000000000D+00 -.000000000000000D+00
 0.415945940154771D+02 0.360994638842852D+02 -.185962660138187D+02 0.900654478270323D+01
 0.271976691039305D+03 0.000000000000000D+00 0.000000000000000D+00 0.271976691039305D+03
 0.532932847270945D+03 0.000000000000000D+00 0.000000000000000D+00 -.532932847270945D+03
 0.143725893679692D+03 0.543177374614751D+02 -.378218126336321D+01 0.454687916705889D+02
 0.186853857599200D+03 0.138676562845962D+03 0.790468012057542D+02 -.544753364532921D+02
 0.387950818595834D+03 -.278668656776670D+03 -.689311388580813D+02 -.260956156231640D+03
 0.863789684355242D+02 0.856743564692326D+02 -.633348108430970D+01 0.900654478270323D+01
0.127799619746D-03 0.000000000000D+00 0.000000000000D+00 0.115932209036D-04 0.000000000000D+00  6 -1 2 25 24 21 21 2 0.25222908D-02 0.21452944D+00 0.19619764D+05 0.19619764D+05 0.19619764D+05 0.12347448D+01  1  2  2  2  6  2        2 0.164391529254D+00 0.100000000000D+01
0.664250727847D-05 0.674417121963D-05 -.490784190237D-06 0.115932209036D-04 0.000000000000D+00  6 -1 2 25 24 21 21 4 0.25222908D-02 0.21452944D+00 0.19619764D+05 0.19619764D+05 0.19619764D+05 0.12347448D+01  1  2  3  2  6  2        2 0.130267583763D-01 0.100000000000D+01
0.323202001581D-05 0.000000000000D+00 0.000000000000D+00 0.115932209036D-04 0.000000000000D+00  6 -1 2 25 24 21 21 4 0.25222908D-02 0.21452944D+00 0.19619764D+05 0.19619764D+05 0.19619764D+05 0.12347448D+01  1  2 15  2  6  2        2 0.633838128407D-02 0.100000000000D+01
0.176026355749D-04 0.000000000000D+00 -.694590241881D-04 0.115932209036D-04 0.000000000000D+00  6 -1 2 25 24 21 21 4 0.25222908D-02 0.80735366D+00 0.19619764D+05 0.19619764D+05 0.19619764D+05 0.12347448D+01  1  2  5  2  6  2        2 0.616544134491D-04 0.100000000000D+01
0.424584008454D-05 0.000000000000D+00 -.108933547311D-04 0.115932209036D-04 0.000000000000D+00  6 -1 21 25 24 -2 21 4 0.25222908D-02 0.80735366D+00 0.19619764D+05 0.19619764D+05 0.19619764D+05 0.12347448D+01  3  4  5  5  5  2        2 0.164008813251D-06 0.100000000000D+01
  </mgrwgt>
  </event>
  <event>
  5     66 0.43135346E-03 0.24060940E+02 0.75467711E-02 0.11722686E+00
       -1 -1    0    0    0  501 0.00000000E+00 0.00000000E+00 0.65901163E+02 0.65901940E+02 0.32000000E+00 0.0000E+00 0.9000E+01
        2 -1    0    0  502    0 0.00000000E+00 0.00000000E+00 -.28640369E+03 0.28640387E+03 0.32000000E+00 0.0000E+00 0.9000E+01
       25  1    1    2    0    0 -.53895251E+02 -.42213429E+02 -.15992223E+03 0.21421202E+03 0.12500000E+03 0.0000E+00 0.9000E+01
       24  1    1    2    0    0 0.54506453E+02 0.18170920E+02 -.40721556E+02 0.10689526E+03 0.80419002E+02 0.0000E+00 0.9000E+01
       21  1    1    2  502  501 -.61120205E+00 0.24042508E+02 -.19858740E+02 0.31198523E+02 0.75000000E+00 0.0000E+00 0.9000E+01
#aMCatNLO 1  0  0  1  5 0.75193448D+02 0.00000000D+00  -5  6  0 0.00000000D+00 0.00000000D+00 0.00000000D+00 0.00000000D+00 0.00000000D+00
  <mgrwgt>
 0.2531548169D+00    3    2    0
 0.137384513514025D+03 0.000000000000000D+00 0.000000000000000D+00 0.137384513514025D+03
 0.137384513514025D+03 0.000000000000000D+00 0.000000000000000D+00 -.137384513514025D+03
 0.146324188413857D+03 -.538950923360932D+02 -.422196509168071D+02 -.331449575881573D+02
 0.104380127686671D+03 0.545065654023570D+02 0.181664817460712D+02 0.335709453325859D+02
 0.240647109275224D+02 -.611473066263757D+00 0.240531691707360D+02 -.425987744428653D+00
 0.000000000000000D+00 0.000000000000000D+00 0.000000000000000D+00 -.000000000000000D+00
 0.152228406863969D+03 0.000000000000000D+00 0.000000000000000D+00 0.152228406863969D+03
 0.286784155587471D+03 0.000000000000000D+00 0.000000000000000D+00 -.286784155587471D+03
 0.166228670118980D+03 -.631640916364215D+02 -.831786035212770D+02 -.331449575881573D+02
 0.100076942116025D+03 0.484432312007622D+02 -.862689800738138D+01 0.335709453325859D+02
 0.185664165890502D+02 -.187573247178700D+01 0.184665098785352D+02 -.425987744428653D+00
 0.154140533627384D+03 0.165965929074463D+02 0.733389916501232D+02 -.134555748723502D+03
0.164215714567D-03 0.000000000000D+00 0.000000000000D+00 0.361792296755D-04 0.000000000000D+00  6 -1 2 25 24 21 21 2 0.10138714D-01 0.44062179D-01 0.17611408D+05 0.17611408D+05 0.17611408D+05 0.12399538D+01  1  2  2  1  6  1       -1 0.187517562147D+00 0.100000000000D+01
0.305555114383D-04 0.866590133987D-05 -.630631582926D-06 0.361792296755D-04 0.000000000000D+00  6 -1 2 25 24 21 21 4 0.10138714D-01 0.44062179D-01 0.17611408D+05 0.17611408D+05 0.17611408D+05 0.12399538D+01  1  2  3  1  6  1       -1 0.536448192062D-01 0.100000000000D+01
0.683076215958D-05 0.000000000000D+00 0.000000000000D+00 0.361792296755D-04 0.000000000000D+00  6 -1 2 25 24 21 21 4 0.10138714D-01 0.44062179D-01 0.17611408D+05 0.17611408D+05 0.17611408D+05 0.12399538D+01  1  2 15  1  6  1       -1 0.119924355326D-01 0.100000000000D+01
  </mgrwgt>
  </event>
  <event>
  5     66 -.43135346E-03 0.37567796E+02 0.75467711E-02 0.11925447E+00
       -1 -1    0    0    0  501 0.00000000E+00 0.00000000E+00 0.31472898E+02 0.31474525E+02 0.32000000E+00 0.0000E+00 0.9000E+01
        2 -1    0    0  502    0 0.00000000E+00 0.00000000E+00 -.11957173E+04 0.11957173E+04 0.32000000E+00 0.0000E+00 0.9000E+01
       25  1    1    2    0    0 -.32839760E+02 0.99845491E+02 -.47010630E+03 0.49766706E+03 0.12500000E+03 0.0000E+00 0.9000E+01
       24  1    1    2    0    0 0.37470056E+01 -.71539907E+02 -.15433965E+03 0.18820187E+03 0.80419002E+02 0.0000E+00 0.9000E+01
       21  1    1    2  502  501 0.29092754E+02 -.28305584E+02 -.53979840E+03 0.54132289E+03 0.75000000E+00 0.0000E+00 0.9000E+01
#aMCatNLO 1  0  0  2  5 0.19345367D+01 0.00000000D+00  -5  6  0 0.00000000D+00 0.00000000D+00 0.00000000D+00 0.00000000D+00 0.00000000D+00
  <mgrwgt>
 -.5526094539D+00   11    4    0
 0.193994102031738D+03 0.000000000000000D+00 0.000000000000000D+00 0.193994102031738D+03
 0.193994102031738D+03 0.000000000000000D+00 0.000000000000000D+00 -.193994102031738D+03
 0.163444362748014D+03 -.328401637558076D+02 0.998458837750168D+02 0.643295047252685D+01
 0.132145413779471D+03 0.374667916095143D+01 -.715395895943957D+02 0.765718221312991D+02
 0.923984275359914D+02 0.290934845948561D+02 -.283062941806211D+02 -.830047726038260D+02
 0.000000000000000D+00 0.000000000000000D+00 -.000000000000000D+00 -.000000000000000D+00
 0.194017700357835D+03 0.000000000000000D+00 0.000000000000000D+00 0.194017700357835D+03
 0.238156240839784D+03 0.000000000000000D+00 0.000000000000000D+00 -.238156240839784D+03
 0.163952771331671D+03 -.328867737598353D+02 0.100660759421050D+03 0.643295047252685D+01
 0.131789870218876D+03 0.370910392473320D+01 -.708826674265714D+02 0.765718221312991D+02
 0.922503853513904D+02 0.290671970039871D+02 -.278467122080610D+02 -.830047726038260D+02
 0.441809142956825D+02 0.110472831115015D+00 -.193137978641755D+01 -.441385404819490D+02
 0.193994102031738D+03 0.000000000000000D+00 0.000000000000000D+00 0.193994102031738D+03
 0.193994102031738D+03 0.000000000000000D+00 0.000000000000000D+00 -.193994102031738D+03
 0.163444362748014D+03 -.328401637558076D+02 0.998458837750168D+02 0.643295047252685D+01
 0.132145413779471D+03 0.374667916095143D+01 -.715395895943957D+02 0.765718221312991D+02
 0.000000000000000D+00 0.000000000000000D+00 -.000000000000000D+00 -.000000000000000D+00
 0.923984275359914D+02 0.290934845948561D+02 -.283062941806211D+02 -.830047726038260D+02
 0.194017700357835D+03 0.000000000000000D+00 0.000000000000000D+00 0.194017700357835D+03
 0.238156240839784D+03 0.000000000000000D+00 0.000000000000000D+00 -.238156240839784D+03
 0.163952771331671D+03 -.328867737598353D+02 0.100660759421050D+03 0.643295047252685D+01
 0.131789870218876D+03 0.370910392473320D+01 -.708826674265714D+02 0.765718221312991D+02
 0.441809142956825D+02 0.110472831115015D+00 -.193137978641755D+01 -.441385404819490D+02
 0.922503853513904D+02 0.290671970039871D+02 -.278467122080610D+02 -.830047726038260D+02
0.732416705607D-05 0.000000000000D+00 0.000000000000D+00 0.136101824923D-04 0.000000000000D+00  6 -1 2 25 24 21 21 2 0.48421127D-02 0.18395663D+00 0.24275001D+05 0.24275001D+05 0.24275001D+05 0.12246703D+01  1  2  2  2  6  2        2 0.458168609665D-02 0.100000000000D+01
0.376579977507D-06 0.386506914227D-06 -.281267299928D-07 0.136101824923D-04 0.000000000000D+00  6 -1 2 25 24 21 21 4 0.48421127D-02 0.18395663D+00 0.24275001D+05 0.24275001D+05 0.24275001D+05 0.12246703D+01  1  2  3  2  6  2        2 0.353315482410D-03 0.100000000000D+01
0.160766828631D-06 0.000000000000D+00 0.000000000000D+00 0.136101824923D-04 0.000000000000D+00  6 -1 2 25 24 21 21 4 0.48421127D-02 0.18395663D+00 0.24275001D+05 0.24275001D+05 0.24275001D+05 0.12246703D+01  1  2 15  2  6  2        2 0.150834916899D-03 0.100000000000D+01
0.695547706391D-05 0.000000000000D+00 0.000000000000D+00 0.135990989682D-04 0.000000000000D+00  6 -1 2 25 24 21 21 4 0.48421127D-02 0.22633918D+00 0.24535683D+05 0.24535683D+05 0.24535683D+05 0.12241715D+01  1  2 12  2  6  2        2 0.462689049518D-02 0.100000000000D+01
-.827169300304D-02 0.000000000000D+00 0.000000000000D+00 0.136101824923D-04 0.000000000000D+00  6 -1 2 25 24 21 21 4 0.48421127D-02 0.18395663D+00 0.24275001D+05 0.24275001D+05 0.24275001D+05 0.12246703D+01  1  2  4  2  6  2        2 -.776068133803D+01 0.100000000000D+01
-.706680900138D-02 0.000000000000D+00 -.829911704973D-05 0.136101824923D-04 0.000000000000D+00  6 -1 2 25 24 21 21 4 0.48421127D-02 0.22584333D+00 0.24275001D+05 0.24275001D+05 0.24275001D+05 0.12246703D+01  1  2  5  2  6  2        2 -.472681357957D+01 0.100000000000D+01
0.692251144601D-02 0.000000000000D+00 0.812750152660D-05 0.136101824923D-04 0.000000000000D+00  6 -1 2 25 24 21 21 4 0.48421127D-02 0.18395663D+00 0.24275001D+05 0.24275001D+05 0.24275001D+05 0.12246703D+01  1  2  6  2  6  2        2 0.649485001095D+01 0.100000000000D+01
0.813494328409D-02 0.000000000000D+00 0.000000000000D+00 0.136101824923D-04 0.172044479367D-04  6 -1 2 25 24 21 21 4 0.48427017D-02 0.22583377D+00 0.24535683D+05 0.24535683D+05 0.24535683D+05 0.12241715D+01  1  2 11  2  6  2        2 0.543209469537D+01 0.100000000000D+01
0.204599551423D-06 0.000000000000D+00 0.000000000000D+00 0.135990989682D-04 0.000000000000D+00  6 -1 21 25 24 -2 21 4 0.48421127D-02 0.22633918D+00 0.24535683D+05 0.24535683D+05 0.24535683D+05 0.12241715D+01  3  4 12  5  5  2        2 0.705956784657D-04 0.100000000000D+01
-.206095714659D-03 0.000000000000D+00 -.242151865076D-06 0.136101824923D-04 0.000000000000D+00  6 -1 21 25 24 -2 21 4 0.48421127D-02 0.22584333D+00 0.24275001D+05 0.24275001D+05 0.24275001D+05 0.12246703D+01  3  4  5  5  5  2        2 -.717579442777D-01 0.100000000000D+01
0.201255219663D-03 0.000000000000D+00 0.000000000000D+00 0.136101824923D-04 0.851250117957D-06  6 -1 21 25 24 -2 21 4 0.48427017D-02 0.22583377D+00 0.24535683D+05 0.24535683D+05 0.24535683D+05 0.12241715D+01  3  4 11  5  5  2        2 0.699153790078D-01 0.100000000000D+01
  </mgrwgt>
  </event>
  <event>
  6     66 0.43135346E-03 0.30118786E+02 0.75467711E-02 0.12157803E+00
       21 -1    0    0  503  501 0.00000000E+00 0.00000000E+00 0.19796603E+02 0.19810805E+02 0.75000000E+00 0.0000E+00 0.9000E+01
        2 -1    0    0  502    0 0.00000000E+00 0.00000000E+00 -.23434417E+04 0.23434417E+04 0.32000000E+00 0.0000E+00 0.9000E+01
       25  1    1    2    0    0 -.34395583E+02 0.24804535E+02 -.98111481E+03 0.98995434E+03 0.12500000E+03 0.0000E+00 0.9000E+01
       24  1    1    2    0    0 0.81875199E+01 -.33643268E+02 -.10768196E+04 0.10803733E+04 0.80419002E+02 0.0000E+00 0.9000E+01
        1  1    1    2  503    0 0.28680707E+02 0.26462901E+02 -.15356795E+02 0.41938069E+02 0.32000000E+00 0.0000E+00 0.9000E+01
       21  1    1    2  502  501 -.24726435E+01 -.17624167E+02 -.25035388E+03 0.25098676E+03 0.75000000E+00 0.0000E+00 0.9000E+01
#aMCatNLO 2  0  0  1  1 0.11773065D+03 0.00000000D+00  -5  6  0 0.00000000D+00 0.00000000D+00 0.00000000D+00 0.00000000D+00 0.00000000D+00
  <mgrwgt>
 0.8678232277D+00    1    2    0
 0.121226084774615D+03 0.000000000000000D+00 0.000000000000000D+00 0.121226084774615D+03
 0.121226084774615D+03 0.000000000000000D+00 0.000000000000000D+00 -.121226084774615D+03
 0.135986323164950D+03 -.184348014314474D+02 0.395392139655612D+02 0.310497784708831D+02
 0.891730599300111D+02 0.187593646331826D+02 -.238836031295426D+02 -.237124103165542D+02
 0.000000000000000D+00 0.000000000000000D+00 0.000000000000000D+00 0.000000000000000D+00
 0.172927864542688D+02 -.324563201735191D+00 -.156556108360186D+02 -.733736815432900D+01
 0.373344748216364D+03 0.000000000000000D+00 0.000000000000000D+00 0.373344748216364D+03
 0.124305795103184D+03 0.000000000000000D+00 0.000000000000000D+00 -.124305795103184D+03
 0.135601680041207D+03 -.343957438768579D+02 0.248124906058320D+02 0.310497784708831D+02
 0.907084542125652D+02 0.818791648256757D+01 -.336375880811389D+02 -.237124103165542D+02
 0.252077901132441D+03 0.286807069535514D+02 0.264629008287581D+02 0.249038953113180D+03
 0.192625079333348D+02 -.247287955926107D+01 -.176378033534512D+02 -.733736815432900D+01
0.931203488035D-04 0.000000000000D+00 0.000000000000D+00 0.940532714081D-04 0.973111130046D-07  6 21 2 25 24 1 21 4 0.30467229D-02 0.36053029D+00 0.19097507D+05 0.19097507D+05 0.19097507D+05 0.12360399D+01  1  2  1  4  5  1       -1 0.867823227713D+00 0.100000000000D+01
  </mgrwgt>
  </event>
  <event>
  6     66 0.43135346E-03 0.32683564E+02 0.75467711E-02 0.11709849E+00
       21 -1    0    0  503  501 0.00000000E+00 0.00000000E+00 0.86692293E+03 0.86692325E+03 0.75000000E+00 0.0000E+00 0.9000E+01
        2 -1    0    0  502    0 0.00000000E+00 0.00000000E+00 -.12825594E+03 0.12825633E+03 0.32000000E+00 0.0000E+00 0.9000E+01
       25  1    1    2    0    0 0.27418710E+02 -.10554270E+03 0.50395045E+02 0.17336582E+03 0.12500000E+03 0.0000E+00 0.9000E+01
       24  1    1    2    0    0 0.34260649E+01 0.11374559E+03 0.18253745E+02 0.14053545E+03 0.80419002E+02 0.0000E+00 0.9000E+01
        1  1    1    2  503    0 -.33162894E+02 -.18310213E+02 0.66980892E+03 0.67087937E+03 0.32000000E+00 0.0000E+00 0.9000E+01
       21  1    1    2  502  501 0.23181186E+01 0.10107326E+02 0.20928216E+00 0.10398943E+02 0.75000000E+00 0.0000E+00 0.9000E+01
#aMCatNLO 2  0  0  1  1 0.80250861D+01 0.00000000D+00  -5  6  0 0.00000000D+00 0.00000000D+00 0.00000000D+00 0.00000000D+00 0.00000000D+00
  <mgrwgt>
 0.3128979450D+00    1    2    0
 0.157316681322122D+03 0.000000000000000D+00 0.000000000000000D+00 0.157316681322122D+03
 0.157316681322122D+03 0.000000000000000D+00 0.000000000000000D+00 -.157316681322122D+03
 0.170925746434628D+03 0.970067889560989D+01 -.115339341548329D+03 0.139048162302522D+02
 0.133868403766631D+03 -.109491849743562D+02 0.105797631840441D+03 -.118536921677191D+02
 0.000000000000000D+00 -.000000000000000D+00 -.000000000000000D+00 0.000000000000000D+00
 0.983921244298443D+01 0.124850607874632D+01 0.954170970788837D+01 -.205112406253315D+01
 0.698784234006421D+03 0.000000000000000D+00 0.000000000000000D+00 0.698784234006421D+03
 0.159116791172347D+03 0.000000000000000D+00 0.000000000000000D+00 -.159116791172347D+03
 0.166470427309335D+03 0.274177687115682D+02 -.105557212984402D+03 0.139048162302522D+02
 0.139838078122287D+03 0.342348045639007D+01 0.113733204923285D+03 -.118536921677191D+02
 0.540995369935361D+03 -.331628938705409D+02 -.183102131762794D+02 0.539667442834074D+03
 0.105971498117855D+02 0.232164470258259D+01 0.101342212373962D+02 -.205112406253315D+01
0.102561338870D-02 0.000000000000D+00 0.000000000000D+00 0.201468931545D-03 0.425427306544D-06  6 21 2 25 24 1 21 4 0.13337277D+00 0.19731732D-01 0.31240944D+05 0.31240944D+05 0.31240944D+05 0.12130552D+01  1  2  1  4  5  1       -1 0.312897944990D+00 0.100000000000D+01
  </mgrwgt>
  </event>
  <event>
  5     66 0.43135346E-03 0.38750701E+02 0.75467711E-02 0.12307955E+00
       -1 -1    0    0    0  501 0.00000000E+00 0.00000000E+00 0.16037791E+03 0.16037823E+03 0.32000000E+00 0.0000E+00 0.9000E+01
        2 -1    0    0  502    0 0.00000000E+00 0.00000000E+00 -.11485049E+03 0.11485094E+03 0.32000000E+00 0.0000E+00 0.9000E+01
       25  1    1    2    0    0 0.36304060E+02 -.32442108E+02 0.61540180E+02 0.14758953E+03 0.12500000E+03 0.0000E+00 0.9000E+01
       24  1    1    2    0    0 -.22123936E+02 -.78004670E+01 -.73290786E+01 0.84090708E+02 0.80419002E+02 0.0000E+00 0.9000E+01
       21  1    1    2  502  501 -.14180124E+02 0.40242576E+02 -.86836814E+01 0.43548934E+02 0.75000000E+00 0.0000E+00 0.9000E+01
#aMCatNLO 1  0  0  5  1 0.85787833D+01 0.00000000D+00  -5  6  0 0.00000000D+00 0.00000000D+00 0.00000000D+00 0.00000000D+00 0.00000000D+00
  <mgrwgt>
 0.6765024733D+00   19    2    0
 0.135718780967806D+03 0.000000000000000D+00 0.000000000000000D+00 0.135718780967806D+03
 0.135718780967806D+03 -.000000000000000D+00 -.000000000000000D+00 -.135718780967806D+03
 0.139330406706300D+03 0.363050438054648D+02 -.324449013842825D+02 0.376461737948294D+02
 0.864944510815658D+02 -.221233249302529D+02 -.780220084614624D+01 -.215350474695943D+02
 0.456127041477461D+02 -.141817188752119D+02 0.402471022304288D+02 -.161111263252351D+02
 0.000000000000000D+00 0.000000000000000D+00 0.000000000000000D+00 0.000000000000000D+00
 0.135718780967806D+03 0.000000000000000D+00 0.000000000000000D+00 0.135718780967806D+03
 0.135718780967806D+03 -.000000000000000D+00 -.000000000000000D+00 -.135718780967806D+03
 0.137231268106056D+03 0.345118696384037D+02 -.273559509789252D+02 0.356090402299294D+02
 0.868868571773292D+02 -.232474969010513D+02 -.461184961782025D+01 -.228121618160420D+02
 0.386225900473214D+02 -.162946190095775D+02 0.291990963013786D+02 -.193288030793161D+02
 0.869684660490539D+01 0.503024627222516D+01 0.276870429536684D+01 0.653192466542875D+01
0.340502282242D-03 0.000000000000D+00 0.000000000000D+00 0.134171313108D-04 0.000000000000D+00  6 -1 2 25 24 21 21 2 0.24673584D-01 0.17669365D-01 0.16976977D+05 0.16976977D+05 0.16976977D+05 0.12417390D+01  1  2  2  3  6  5       21 0.260639088111D+00 0.100000000000D+01
0.786755494428D-05 0.179687990988D-04 -.130761842012D-05 0.134171313108D-04 0.000000000000D+00  6 -1 2 25 24 21 21 4 0.24673584D-01 0.17669365D-01 0.16976977D+05 0.16976977D+05 0.16976977D+05 0.12417390D+01  1  2  3  3  6  5       21 0.928581330270D-02 0.100000000000D+01
0.870086977200D-05 0.000000000000D+00 0.000000000000D+00 0.134171313108D-04 0.000000000000D+00  6 -1 2 25 24 21 21 4 0.24673584D-01 0.17669365D-01 0.16976977D+05 0.16976977D+05 0.16976977D+05 0.12417390D+01  1  2 15  3  6  5       21 0.102693470648D-01 0.100000000000D+01
0.327200329215D-03 0.000000000000D+00 0.000000000000D+00 0.134584418784D-04 0.000000000000D+00  6 -1 2 25 24 21 21 4 0.24673584D-01 0.17669365D-01 0.16326379D+05 0.16326379D+05 0.16326379D+05 0.12436492D+01  1  2 12  3  6  5       21 0.388090957508D+00 0.100000000000D+01
0.240094892467D-03 0.000000000000D+00 0.000000000000D+00 0.134584418784D-04 0.000000000000D+00  6 -1 2 25 24 21 21 4 0.24673584D-01 0.17669365D-01 0.16326379D+05 0.16326379D+05 0.16326379D+05 0.12436492D+01  1  2 12  3  6  5       21 0.284775559163D+00 0.100000000000D+01
-.262405505823D-03 0.000000000000D+00 0.000000000000D+00 0.134171313108D-04 0.000000000000D+00  6 -1 2 25 24 21 21 4 0.24673584D-01 0.17669365D-01 0.16976977D+05 0.16976977D+05 0.16976977D+05 0.12417390D+01  1  2  4  3  6  5       21 -.309708486808D+00 0.100000000000D+01
0.514283735101D-06 0.000000000000D+00 0.000000000000D+00 0.134171313108D-04 0.262404023270D-05  6 -1 2 25 24 21 21 4 0.24673584D-01 0.17669365D-01 0.16326379D+05 0.16326379D+05 0.16326379D+05 0.12436492D+01  1  2 11  3  6  5       21 0.609989811640D-03 0.100000000000D+01
0.364225244578D-05 0.000000000000D+00 0.000000000000D+00 0.134584418784D-04 0.000000000000D+00  6 -1 2 25 24 1 -1 4 0.24673584D-01 0.17669365D-01 0.16326379D+05 0.16326379D+05 0.16326379D+05 0.12436492D+01  1  2 12  6  6  5       21 0.432006056522D-02 0.100000000000D+01
0.321218972932D-05 0.000000000000D+00 0.000000000000D+00 0.134584418784D-04 0.000000000000D+00  6 -1 2 25 24 1 -1 4 0.24673584D-01 0.17669365D-01 0.16326379D+05 0.16326379D+05 0.16326379D+05 0.12436492D+01  1  2 12  6  6  5       21 0.380996495553D-02 0.100000000000D+01
0.208779651371D-08 0.000000000000D+00 0.000000000000D+00 0.134584418784D-04 0.191097094625D-07  6 -1 2 25 24 1 -1 4 0.24673584D-01 0.17669365D-01 0.16326379D+05 0.16326379D+05 0.16326379D+05 0.12436492D+01  1  2 11  6  6  5       21 0.247632681188D-05 0.100000000000D+01
0.364225244578D-05 0.000000000000D+00 0.000000000000D+00 0.134584418784D-04 0.000000000000D+00  6 -1 2 25 24 2 -2 4 0.24673584D-01 0.17669365D-01 0.16326379D+05 0.16326379D+05 0.16326379D+05 0.12436492D+01  1  2 12  7  6  5       21 0.432006056522D-02 0.100000000000D+01
0.321218972932D-05 0.000000000000D+00 0.000000000000D+00 0.134584418784D-04 0.000000000000D+00  6 -1 2 25 24 2 -2 4 0.24673584D-01 0.17669365D-01 0.16326379D+05 0.16326379D+05 0.16326379D+05 0.12436492D+01  1  2 12  7  6  5       21 0.380996495553D-02 0.100000000000D+01
0.498765734175D-08 0.000000000000D+00 0.000000000000D+00 0.134584418784D-04 0.164604715849D-07  6 -1 2 25 24 2 -2 4 0.24673584D-01 0.17669365D-01 0.16326379D+05 0.16326379D+05 0.16326379D+05 0.12436492D+01  1  2 11  7  6  5       21 0.591583974909D-05 0.100000000000D+01
0.364225244578D-05 0.000000000000D+00 0.000000000000D+00 0.134584418784D-04 0.000000000000D+00  6 -1 2 25 24 3 -3 4 0.24673584D-01 0.17669365D-01 0.16326379D+05 0.16326379D+05 0.16326379D+05 0.12436492D+01  1  2 12  8  6  5       21 0.432006056522D-02 0.100000000000D+01
0.364225244578D-05 0.000000000000D+00 0.000000000000D+00 0.134584418784D-04 0.000000000000D+00  6 -1 2 25 24 4 -4 4 0.24673584D-01 0.17669365D-01 0.16326379D+05 0.16326379D+05 0.16326379D+05 0.12436492D+01  1  2 12  8  6  5       21 0.432006056522D-02 0.100000000000D+01
0.321218972932D-05 0.000000000000D+00 0.000000000000D+00 0.134584418784D-04 0.000000000000D+00  6 -1 2 25 24 3 -3 4 0.24673584D-01 0.17669365D-01 0.16326379D+05 0.16326379D+05 0.16326379D+05 0.12436492D+01  1  2 12  8  6  5       21 0.380996495553D-02 0.100000000000D+01
0.321218972932D-05 0.000000000000D+00 0.000000000000D+00 0.134584418784D-04 0.000000000000D+00  6 -1 2 25 24 4 -4 4 0.24673584D-01 0.17669365D-01 0.16326379D+05 0.16326379D+05 0.16326379D+05 0.12436492D+01  1  2 12  8  6  5       21 0.380996495553D-02 0.100000000000D+01
0.493676131219D-08 0.000000000000D+00 0.000000000000D+00 0.134584418784D-04 0.151640526099D-07  6 -1 2 25 24 3 -3 4 0.24673584D-01 0.17669365D-01 0.16326379D+05 0.16326379D+05 0.16326379D+05 0.12436492D+01  1  2 11  8  6  5       21 0.585547217887D-05 0.100000000000D+01
0.493676131219D-08 0.000000000000D+00 0.000000000000D+00 0.134584418784D-04 0.151640526099D-07  6 -1 2 25 24 4 -4 4 0.24673584D-01 0.17669365D-01 0.16326379D+05 0.16326379D+05 0.16326379D+05 0.12436492D+01  1  2 11  8  6  5       21 0.585547217887D-05 0.100000000000D+01
  </mgrwgt>
  </event>
  <event>
  5     66 0.43135346E-03 0.22492777E+02 0.75467711E-02 0.12224187E+00
       -1 -1    0    0    0  501 0.00000000E+00 0.00000000E+00 0.27447949E+03 0.27447967E+03 0.32000000E+00 0.0000E+00 0.9000E+01
        2 -1    0    0  502    0 0.00000000E+00 0.00000000E+00 -.80070697E+02 0.80071337E+02 0.32000000E+00 0.0000E+00 0.9000E+01
       25  1    1    2    0    0 0.44062802E+02 0.56037620E+02 0.17503932E+03 0.22659547E+03 0.12500000E+03 0.0000E+00 0.9000E+01
       24  1    1    2    0    0 -.21576633E+02 -.56309681E+02 0.27199966E+02 0.10413158E+03 0.80419002E+02 0.0000E+00 0.9000E+01
       21  1    1    2  502  501 -.22486169E+02 0.27206068E+00 -.78304964E+01 0.23823959E+02 0.75000000E+00 0.0000E+00 0.9000E+01
#aMCatNLO 1  0  0  5  1 0.94355443D+01 0.00000000D+00  -5  6  0 0.00000000D+00 0.00000000D+00 0.00000000D+00 0.00000000D+00 0.00000000D+00
  <mgrwgt>
 0.1632462257D+00   20    2    0
 0.148249486731834D+03 0.000000000000000D+00 0.000000000000000D+00 0.148249486731834D+03
 0.148249486731834D+03 -.000000000000000D+00 -.000000000000000D+00 -.148249486731834D+03
 0.156193095434523D+03 0.440657505715935D+02 0.560375843937481D+02 0.607394585363886D+02
 0.106684025883112D+03 -.215746194842068D+02 -.563097051091772D+02 -.357493822168594D+02
 0.336218521460325D+02 -.224911310873867D+02 0.272120715429128D+00 -.249900763195291D+02
 0.000000000000000D+00 -.000000000000000D+00 0.000000000000000D+00 0.000000000000000D+00
 0.148249486731834D+03 0.000000000000000D+00 0.000000000000000D+00 0.148249486731834D+03
 0.148249486731834D+03 -.000000000000000D+00 -.000000000000000D+00 -.148249486731834D+03
 0.154491586225194D+03 0.416216561775473D+02 0.560671555483734D+02 0.580238056329380D+02
 0.107667358649163D+03 -.232608790528880D+02 -.562893030156388D+02 -.376229987616277D+02
 0.227243214195072D+02 -.681539249502683D+01 0.243461287897133D+00 -.216768525325312D+02
 0.116157071698035D+02 -.115453846296324D+02 -.213138206317335D-01 0.127604566122088D+01
0.480948487206D-03 0.000000000000D+00 0.000000000000D+00 0.385605990662D-04 0.000000000000D+00  6 -1 2 25 24 21 21 2 0.42227677D-01 0.12318632D-01 0.17809975D+05 0.17809975D+05 0.17809975D+05 0.12394098D+01  1  2  2  3  6  5       21 0.225097703638D+00 0.100000000000D+01
0.729997690199D-04 0.253803489556D-04 -.184696882752D-05 0.385605990662D-04 0.000000000000D+00  6 -1 2 25 24 21 21 4 0.42227677D-01 0.12318632D-01 0.17809975D+05 0.17809975D+05 0.17809975D+05 0.12394098D+01  1  2  3  3  6  5       21 0.524836281013D-01 0.100000000000D+01
0.758731988216D-05 0.000000000000D+00 0.000000000000D+00 0.385605990662D-04 0.000000000000D+00  6 -1 2 25 24 21 21 4 0.42227677D-01 0.12318632D-01 0.17809975D+05 0.17809975D+05 0.17809975D+05 0.12394098D+01  1  2 15  3  6  5       21 0.545494979405D-02 0.100000000000D+01
0.285388160285D-03 0.000000000000D+00 0.000000000000D+00 0.386630495682D-04 0.000000000000D+00  6 -1 2 25 24 21 21 4 0.42227677D-01 0.12318632D-01 0.17216908D+05 0.17216908D+05 0.17216908D+05 0.12410552D+01  1  2 12  3  6  5       21 0.206098581312D+00 0.100000000000D+01
0.219941095054D-03 0.000000000000D+00 0.000000000000D+00 0.386630495682D-04 0.000000000000D+00  6 -1 2 25 24 21 21 4 0.42227677D-01 0.12318632D-01 0.17216908D+05 0.17216908D+05 0.17216908D+05 0.12410552D+01  1  2 12  3  6  5       21 0.158834716961D+00 0.100000000000D+01
-.101451423505D-02 0.000000000000D+00 0.000000000000D+00 0.385605990662D-04 0.000000000000D+00  6 -1 2 25 24 21 21 4 0.42227677D-01 0.12318632D-01 0.17809975D+05 0.17809975D+05 0.17809975D+05 0.12394098D+01  1  2  4  3  6  5       21 -.729391182064D+00 0.100000000000D+01
-.477955988063D-03 0.000000000000D+00 0.000000000000D+00 0.385605990662D-04 0.000000000000D+00  6 -1 2 25 24 21 21 4 0.42227677D-01 0.12318632D-01 0.17809975D+05 0.17809975D+05 0.17809975D+05 0.12394098D+01  1  2  5  3  6  5       21 -.343629365724D+00 0.100000000000D+01
0.780196751001D-03 0.000000000000D+00 -.000000000000D+00 0.385605990662D-04 0.000000000000D+00  6 -1 2 25 24 21 21 4 0.42227677D-01 0.12318632D-01 0.17809975D+05 0.17809975D+05 0.17809975D+05 0.12394098D+01  1  2  6  3  6  5       21 0.560927201210D+00 0.100000000000D+01
0.628832684710D-05 0.000000000000D+00 0.000000000000D+00 0.386630495682D-04 0.000000000000D+00  6 -1 2 25 24 1 -1 4 0.42227677D-01 0.12318632D-01 0.17216908D+05 0.17216908D+05 0.17216908D+05 0.12410552D+01  1  2 12  6  6  5       21 0.454123689195D-02 0.100000000000D+01
0.505528040573D-05 0.000000000000D+00 0.000000000000D+00 0.386630495682D-04 0.000000000000D+00  6 -1 2 25 24 1 -1 4 0.42227677D-01 0.12318632D-01 0.17216908D+05 0.17216908D+05 0.17216908D+05 0.12410552D+01  1  2 12  6  6  5       21 0.365076854874D-02 0.100000000000D+01
-.187703720634D-05 0.000000000000D+00 0.000000000000D+00 0.385605990662D-04 0.000000000000D+00  6 -1 2 25 24 1 -1 4 0.42227677D-01 0.12318632D-01 0.17809975D+05 0.17809975D+05 0.17809975D+05 0.12394098D+01  1  2  5  6  6  5       21 -.134950732026D-02 0.100000000000D+01
0.628832684710D-05 0.000000000000D+00 0.000000000000D+00 0.386630495682D-04 0.000000000000D+00  6 -1 2 25 24 2 -2 4 0.42227677D-01 0.12318632D-01 0.17216908D+05 0.17216908D+05 0.17216908D+05 0.12410552D+01  1  2 12  7  6  5       21 0.454123689195D-02 0.100000000000D+01
0.505528040573D-05 0.000000000000D+00 0.000000000000D+00 0.386630495682D-04 0.000000000000D+00  6 -1 2 25 24 2 -2 4 0.42227677D-01 0.12318632D-01 0.17216908D+05 0.17216908D+05 0.17216908D+05 0.12410552D+01  1  2 12  7  6  5       21 0.365076854874D-02 0.100000000000D+01
-.187703720634D-05 0.000000000000D+00 0.000000000000D+00 0.385605990662D-04 0.000000000000D+00  6 -1 2 25 24 2 -2 4 0.42227677D-01 0.12318632D-01 0.17809975D+05 0.17809975D+05 0.17809975D+05 0.12394098D+01  1  2  5  7  6  5       21 -.134950732026D-02 0.100000000000D+01
0.628832684710D-05 0.000000000000D+00 0.000000000000D+00 0.386630495682D-04 0.000000000000D+00  6 -1 2 25 24 3 -3 4 0.42227677D-01 0.12318632D-01 0.17216908D+05 0.17216908D+05 0.17216908D+05 0.12410552D+01  1  2 12  8  6  5       21 0.454123689195D-02 0.100000000000D+01
0.628832684710D-05 0.000000000000D+00 0.000000000000D+00 0.386630495682D-04 0.000000000000D+00  6 -1 2 25 24 4 -4 4 0.42227677D-01 0.12318632D-01 0.17216908D+05 0.17216908D+05 0.17216908D+05 0.12410552D+01  1  2 12  8  6  5       21 0.454123689195D-02 0.100000000000D+01
0.505528040573D-05 0.000000000000D+00 0.000000000000D+00 0.386630495682D-04 0.000000000000D+00  6 -1 2 25 24 3 -3 4 0.42227677D-01 0.12318632D-01 0.17216908D+05 0.17216908D+05 0.17216908D+05 0.12410552D+01  1  2 12  8  6  5       21 0.365076854874D-02 0.100000000000D+01
0.505528040573D-05 0.000000000000D+00 0.000000000000D+00 0.386630495682D-04 0.000000000000D+00  6 -1 2 25 24 4 -4 4 0.42227677D-01 0.12318632D-01 0.17216908D+05 0.17216908D+05 0.17216908D+05 0.12410552D+01  1  2 12  8  6  5       21 0.365076854874D-02 0.100000000000D+01
-.187703720634D-05 0.000000000000D+00 0.000000000000D+00 0.385605990662D-04 0.000000000000D+00  6 -1 2 25 24 3 -3 4 0.42227677D-01 0.12318632D-01 0.17809975D+05 0.17809975D+05 0.17809975D+05 0.12394098D+01  1  2  5  8  6  5       21 -.134950732026D-02 0.100000000000D+01
-.187703720634D-05 0.000000000000D+00 0.000000000000D+00 0.385605990662D-04 0.000000000000D+00  6 -1 2 25 24 4 -4 4 0.42227677D-01 0.12318632D-01 0.17809975D+05 0.17809975D+05 0.17809975D+05 0.12394098D+01  1  2  5  8  6  5       21 -.134950732026D-02 0.100000000000D+01
  </mgrwgt>
  </event>
  <event>
  5     66 -.43135346E-03 0.43839166E+02 0.75467711E-02 0.11907582E+00
       -1 -1    0    0    0  501 0.00000000E+00 0.00000000E+00 0.65685251E+02 0.65686031E+02 0.32000000E+00 0.0000E+00 0.9000E+01
        2 -1    0    0  502    0 -.00000000E+00 -.00000000E+00 -.39477241E+03 0.39477254E+03 0.32000000E+00 0.0000E+00 0.9000E+01
       25  1    1    2    0    0 -.59944627E+02 0.23228120E+02 -.15253123E+03 0.20742150E+03 0.12500000E+03 0.0000E+00 0.9000E+01
       24  1    1    2    0    0 0.95300239E+02 -.49139759E+02 -.11025192E+03 0.17354986E+03 0.80419002E+02 0.0000E+00 0.9000E+01
       21  1    1    2  502  501 -.35355612E+02 0.25911639E+02 -.66304007E+02 0.79487207E+02 0.75000000E+00 0.0000E+00 0.9000E+01
#aMCatNLO 1  0  0  5  1 0.56489751D+01 0.00000000D+00  -5  6  0 0.00000000D+00 0.00000000D+00 0.00000000D+00 0.00000000D+00 0.00000000D+00
  <mgrwgt>
 -.1560533152D+00   25    2    0
 0.161030848354410D+03 0.000000000000000D+00 0.000000000000000D+00 0.161030848354410D+03
 0.161030848354410D+03 -.000000000000000D+00 -.000000000000000D+00 -.161030848354410D+03
 0.140695293660002D+03 -.599425638149329D+02 0.232266083550516D+02 -.613020111317969D+01
 0.135473061403688D+03 0.953022252097882D+02 -.491412148507623D+02 0.197068841974314D+02
 0.458933416451293D+02 -.353596613948553D+02 0.259146064957107D+02 -.135766830842517D+02
 0.000000000000000D+00 0.000000000000000D+00 0.000000000000000D+00 -.000000000000000D+00
 0.161030848354410D+03 0.000000000000000D+00 0.000000000000000D+00 0.161030848354410D+03
 0.161030848354410D+03 -.000000000000000D+00 -.000000000000000D+00 -.161030848354410D+03
 0.141115980456668D+03 -.606840535104453D+02 0.237700358914539D+02 -.641490323444138D+01
 0.134745362616858D+03 0.945912381225012D+02 -.486201422538043D+02 0.194338938468368D+02
 0.999837964526991D+01 -.729931344095895D+01 0.617856827319978D+01 0.291768965364602D+01
 0.362019739900234D+02 -.266078711710970D+02 0.186715380891506D+02 -.159366802660414D+02
0.966601873807D-04 0.000000000000D+00 0.000000000000D+00 0.106724222132D-04 0.000000000000D+00  6 -1 2 25 24 21 21 2 0.10105493D-01 0.60734286D-01 0.25349877D+05 0.25349877D+05 0.25349877D+05 0.12226511D+01  1  2  2  3  6  5       21 0.774668696292D-01 0.100000000000D+01
0.635473406566D-05 0.510089822735D-05 -.371200570754D-06 0.106724222132D-04 0.000000000000D+00  6 -1 2 25 24 21 21 4 0.10105493D-01 0.60734286D-01 0.25349877D+05 0.25349877D+05 0.25349877D+05 0.12226511D+01  1  2  3  3  6  5       21 0.761326257286D-02 0.100000000000D+01
0.433799876525D-05 0.000000000000D+00 0.000000000000D+00 0.106724222132D-04 0.000000000000D+00  6 -1 2 25 24 21 21 4 0.10105493D-01 0.60734286D-01 0.25349877D+05 0.25349877D+05 0.25349877D+05 0.12226511D+01  1  2 15  3  6  5       21 0.519712127987D-02 0.100000000000D+01
0.126347050242D-04 0.000000000000D+00 0.000000000000D+00 0.106829545374D-04 0.000000000000D+00  6 -1 2 25 24 21 21 4 0.10105493D-01 0.60734286D-01 0.25023334D+05 0.25023334D+05 0.25023334D+05 0.12232542D+01  1  2 12  3  6  5       21 0.151617230903D-01 0.100000000000D+01
0.123598318519D-04 0.000000000000D+00 0.000000000000D+00 0.106829545374D-04 0.000000000000D+00  6 -1 2 25 24 21 21 4 0.10105493D-01 0.60734286D-01 0.25023334D+05 0.25023334D+05 0.25023334D+05 0.12232542D+01  1  2 12  3  6  5       21 0.148318736070D-01 0.100000000000D+01
-.452715669722D-03 0.000000000000D+00 0.000000000000D+00 0.106724222132D-04 0.000000000000D+00  6 -1 2 25 24 21 21 4 0.10105493D-01 0.60734286D-01 0.25349877D+05 0.25349877D+05 0.25349877D+05 0.12226511D+01  1  2  4  3  6  5       21 -.542374114924D+00 0.100000000000D+01
-.340205845776D-04 0.000000000000D+00 0.000000000000D+00 0.106724222132D-04 0.000000000000D+00  6 -1 2 25 24 21 21 4 0.10105493D-01 0.60734286D-01 0.25349877D+05 0.25349877D+05 0.25349877D+05 0.12226511D+01  1  2  5  3  6  5       21 -.407582190844D-01 0.100000000000D+01
0.229933108561D-03 0.000000000000D+00 -.000000000000D+00 0.106724222132D-04 0.000000000000D+00  6 -1 2 25 24 21 21 4 0.10105493D-01 0.60734286D-01 0.25349877D+05 0.25349877D+05 0.25349877D+05 0.12226511D+01  1  2  6  3  6  5       21 0.275470399167D+00 0.100000000000D+01
0.165915333429D-04 0.000000000000D+00 0.000000000000D+00 0.106724222132D-04 0.288293831678D-05  6 -1 2 25 24 21 21 4 0.10105493D-01 0.60734286D-01 0.25023334D+05 0.25023334D+05 0.25023334D+05 0.12232542D+01  1  2 11  3  6  5       21 0.199099412061D-01 0.100000000000D+01
0.248695009733D-05 0.000000000000D+00 0.000000000000D+00 0.106829545374D-04 0.000000000000D+00  6 -1 2 25 24 1 -1 4 0.10105493D-01 0.60734286D-01 0.25023334D+05 0.25023334D+05 0.25023334D+05 0.12232542D+01  1  2 12  6  6  5       21 0.298435528514D-02 0.100000000000D+01
0.245356737268D-05 0.000000000000D+00 0.000000000000D+00 0.106829545374D-04 0.000000000000D+00  6 -1 2 25 24 1 -1 4 0.10105493D-01 0.60734286D-01 0.25023334D+05 0.25023334D+05 0.25023334D+05 0.12232542D+01  1  2 12  6  6  5       21 0.294429581195D-02 0.100000000000D+01
-.365549453235D-05 0.000000000000D+00 0.000000000000D+00 0.106724222132D-04 0.000000000000D+00  6 -1 2 25 24 1 -1 4 0.10105493D-01 0.60734286D-01 0.25349877D+05 0.25349877D+05 0.25349877D+05 0.12226511D+01  1  2  5  6  6  5       21 -.437944993778D-02 0.100000000000D+01
0.107429580270D-05 0.000000000000D+00 0.000000000000D+00 0.106724222132D-04 0.238336011520D-07  6 -1 2 25 24 1 -1 4 0.10105493D-01 0.60734286D-01 0.25023334D+05 0.25023334D+05 0.25023334D+05 0.12232542D+01  1  2 11  6  6  5       21 0.128916151555D-02 0.100000000000D+01
0.248695009733D-05 0.000000000000D+00 0.000000000000D+00 0.106829545374D-04 0.000000000000D+00  6 -1 2 25 24 2 -2 4 0.10105493D-01 0.60734286D-01 0.25023334D+05 0.25023334D+05 0.25023334D+05 0.12232542D+01  1  2 12  7  6  5       21 0.298435528514D-02 0.100000000000D+01
0.245356737268D-05 0.000000000000D+00 0.000000000000D+00 0.106829545374D-04 0.000000000000D+00  6 -1 2 25 24 2 -2 4 0.10105493D-01 0.60734286D-01 0.25023334D+05 0.25023334D+05 0.25023334D+05 0.12232542D+01  1  2 12  7  6  5       21 0.294429581195D-02 0.100000000000D+01
-.365549453235D-05 0.000000000000D+00 0.000000000000D+00 0.106724222132D-04 0.000000000000D+00  6 -1 2 25 24 2 -2 4 0.10105493D-01 0.60734286D-01 0.25349877D+05 0.25349877D+05 0.25349877D+05 0.12226511D+01  1  2  5  7  6  5       21 -.437944993778D-02 0.100000000000D+01
0.112118910646D-05 0.000000000000D+00 0.000000000000D+00 0.106724222132D-04 0.250996925998D-07  6 -1 2 25 24 2 -2 4 0.10105493D-01 0.60734286D-01 0.25023334D+05 0.25023334D+05 0.25023334D+05 0.12232542D+01  1  2 11  7  6  5       21 0.134543376608D-02 0.100000000000D+01
0.248695009733D-05 0.000000000000D+00 0.000000000000D+00 0.106829545374D-04 0.000000000000D+00  6 -1 2 25 24 3 -3 4 0.10105493D-01 0.60734286D-01 0.25023334D+05 0.25023334D+05 0.25023334D+05 0.12232542D+01  1  2 12  8  6  5       21 0.298435528514D-02 0.100000000000D+01
0.248695009733D-05 0.000000000000D+00 0.000000000000D+00 0.106829545374D-04 0.000000000000D+00  6 -1 2 25 24 4 -4 4 0.10105493D-01 0.60734286D-01 0.25023334D+05 0.25023334D+05 0.25023334D+05 0.12232542D+01  1  2 12  8  6  5       21 0.298435528514D-02 0.100000000000D+01
0.245356737268D-05 0.000000000000D+00 0.000000000000D+00 0.106829545374D-04 0.000000000000D+00  6 -1 2 25 24 3 -3 4 0.10105493D-01 0.60734286D-01 0.25023334D+05 0.25023334D+05 0.25023334D+05 0.12232542D+01  1  2 12  8  6  5       21 0.294429581195D-02 0.100000000000D+01
0.245356737268D-05 0.000000000000D+00 0.000000000000D+00 0.106829545374D-04 0.000000000000D+00  6 -1 2 25 24 4 -4 4 0.10105493D-01 0.60734286D-01 0.25023334D+05 0.25023334D+05 0.25023334D+05 0.12232542D+01  1  2 12  8  6  5       21 0.294429581195D-02 0.100000000000D+01
-.365549453235D-05 0.000000000000D+00 0.000000000000D+00 0.106724222132D-04 0.000000000000D+00  6 -1 2 25 24 3 -3 4 0.10105493D-01 0.60734286D-01 0.25349877D+05 0.25349877D+05 0.25349877D+05 0.12226511D+01  1  2  5  8  6  5       21 -.437944993778D-02 0.100000000000D+01
-.365549453235D-05 0.000000000000D+00 0.000000000000D+00 0.106724222132D-04 0.000000000000D+00  6 -1 2 25 24 4 -4 4 0.10105493D-01 0.60734286D-01 0.25349877D+05 0.25349877D+05 0.25349877D+05 0.12226511D+01  1  2  5  8  6  5       21 -.437944993778D-02 0.100000000000D+01
0.108183965909D-05 0.000000000000D+00 0.000000000000D+00 0.106724222132D-04 0.239703294508D-07  6 -1 2 25 24 3 -3 4 0.10105493D-01 0.60734286D-01 0.25023334D+05 0.25023334D+05 0.25023334D+05 0.12232542D+01  1  2 11  8  6  5       21 0.129821418923D-02 0.100000000000D+01
0.108183965909D-05 0.000000000000D+00 0.000000000000D+00 0.106724222132D-04 0.239703294508D-07  6 -1 2 25 24 4 -4 4 0.10105493D-01 0.60734286D-01 0.25023334D+05 0.25023334D+05 0.25023334D+05 0.12232542D+01  1  2 11  8  6  5       21 0.129821418923D-02 0.100000000000D+01
  </mgrwgt>
  </event>
  <event>
  5     66 0.43135346E-03 0.27569806E+02 0.75467711E-02 0.11617840E+00
       -1 -1    0    0    0  501 0.00000000E+00 0.00000000E+00 0.73948044E+02 0.73948736E+02 0.32000000E+00 0.0000E+00 0.9000E+01
        2 -1    0    0  502    0 -.00000000E+00 -.00000000E+00 -.82281647E+03 0.82281653E+03 0.32000000E+00 0.0000E+00 0.9000E+01
       25  1    1    2    0    0 0.62483236E+02 -.65010880E+02 -.15794901E+03 0.22068860E+03 0.12500000E+03 0.0000E+00 0.9000E+01
       24  1    1    2    0    0 -.35508356E+02 0.70706508E+02 -.33094047E+02 0.11756992E+03 0.80419002E+02 0.0000E+00 0.9000E+01
       21  1    1    2  502  501 -.26974879E+02 -.56956279E+01 -.55782537E+03 0.55850675E+03 0.75000000E+00 0.0000E+00 0.9000E+01
#aMCatNLO 1  0  0  5  2 0.11512123D+02 0.00000000D+00  -5  6  0 0.00000000D+00 0.00000000D+00 0.00000000D+00 0.00000000D+00 0.00000000D+00
  <mgrwgt>
 0.3478875147D+00   10    2    0
 0.246669833857016D+03 0.000000000000000D+00 0.000000000000000D+00 0.246669833857016D+03
 0.246669833857016D+03 -.000000000000000D+00 -.000000000000000D+00 -.246669833857016D+03
 0.161395776096143D+03 0.624833229784113D+02 -.650108619388231D+02 0.478854750547938D+02
 0.163477066520449D+03 -.355082675328346D+02 0.707065270313799D+02 0.118310123386539D+03
 0.168466825097440D+03 -.269750554455767D+02 -.569566509255682D+01 -.166195598441333D+03
 0.000000000000000D+00 0.000000000000000D+00 0.000000000000000D+00 -.000000000000000D+00
 0.246669833857016D+03 0.000000000000000D+00 0.000000000000000D+00 0.246669833857016D+03
 0.246669833857016D+03 -.000000000000000D+00 -.000000000000000D+00 -.246669833857016D+03
 0.156771822667759D+03 0.599913390516004D+02 -.655370334564975D+02 0.325321512828334D+02
 0.153138764781440D+03 -.379880975521185D+02 0.701829217581746D+02 0.103031680866962D+03
 0.687955901730440D+02 -.461737249156772D+02 -.414423240396514D+02 -.297212740787019D+02
 0.114633490091789D+03 0.241704834161953D+02 0.367964357379743D+02 -.105842558071093D+03
0.772784141906D-03 0.000000000000D+00 0.000000000000D+00 0.429900233289D-04 0.000000000000D+00  6 -1 2 25 24 21 21 2 0.11376680D-01 0.12658721D+00 0.21684672D+05 0.21684672D+05 0.21684672D+05 0.12299780D+01  1  2  2  3  6  5       21 0.225115351471D+00 0.100000000000D+01
0.148930475132D-03 0.407809395614D-04 -.296769458366D-05 0.429900233289D-04 0.000000000000D+00  6 -1 2 25 24 21 21 4 0.11376680D-01 0.12658721D+00 0.21684672D+05 0.21684672D+05 0.21684672D+05 0.12299780D+01  1  2  3  3  6  5       21 0.656334370724D-01 0.100000000000D+01
0.411886103523D-04 0.000000000000D+00 0.000000000000D+00 0.429900233289D-04 0.000000000000D+00  6 -1 2 25 24 21 21 4 0.11376680D-01 0.12658721D+00 0.21684672D+05 0.21684672D+05 0.21684672D+05 0.12299780D+01  1  2 15  3  6  5       21 0.181517588207D-01 0.100000000000D+01
-.149021966073D-03 0.000000000000D+00 0.000000000000D+00 0.429900233289D-04 0.000000000000D+00  6 -1 2 25 24 21 21 4 0.11376680D-01 0.12658721D+00 0.21684672D+05 0.21684672D+05 0.21684672D+05 0.12299780D+01  1  2  4  3  6  5       21 -.656737569931D-01 0.100000000000D+01
-.147581072491D-03 0.000000000000D+00 0.000000000000D+00 0.429900233289D-04 0.000000000000D+00  6 -1 2 25 24 21 21 4 0.11376680D-01 0.12658721D+00 0.21684672D+05 0.21684672D+05 0.21684672D+05 0.12299780D+01  1  2  5  3  6  5       21 -.650387573521D-01 0.100000000000D+01
0.430889016654D-03 0.000000000000D+00 -.000000000000D+00 0.429900233289D-04 0.000000000000D+00  6 -1 2 25 24 21 21 4 0.11376680D-01 0.12658721D+00 0.21684672D+05 0.21684672D+05 0.21684672D+05 0.12299780D+01  1  2  6  3  6  5       21 0.189892143530D+00 0.100000000000D+01
-.114549186405D-04 0.000000000000D+00 0.000000000000D+00 0.429900233289D-04 0.000000000000D+00  6 -1 2 25 24 1 -1 4 0.11376680D-01 0.12658721D+00 0.21684672D+05 0.21684672D+05 0.21684672D+05 0.12299780D+01  1  2  5  6  6  5       21 -.504816546844D-02 0.100000000000D+01
-.114549186405D-04 0.000000000000D+00 0.000000000000D+00 0.429900233289D-04 0.000000000000D+00  6 -1 2 25 24 2 -2 4 0.11376680D-01 0.12658721D+00 0.21684672D+05 0.21684672D+05 0.21684672D+05 0.12299780D+01  1  2  5  7  6  5       21 -.504816546844D-02 0.100000000000D+01
-.114549186405D-04 0.000000000000D+00 0.000000000000D+00 0.429900233289D-04 0.000000000000D+00  6 -1 2 25 24 3 -3 4 0.11376680D-01 0.12658721D+00 0.21684672D+05 0.21684672D+05 0.21684672D+05 0.12299780D+01  1  2  5  8  6  5       21 -.504816546844D-02 0.100000000000D+01
-.114549186405D-04 0.000000000000D+00 0.000000000000D+00 0.429900233289D-04 0.000000000000D+00  6 -1 2 25 24 4 -4 4 0.11376680D-01 0.12658721D+00 0.21684672D+05 0.21684672D+05 0.21684672D+05 0.12299780D+01  1  2  5  8  6  5       21 -.504816546844D-02 0.100000000000D+01
  </mgrwgt>
  </event>
  <event>
  5     66 0.43135346E-03 0.78705951E+02 0.75467711E-02 0.11247333E+00
       -1 -1    0    0    0  501 0.00000000E+00 0.00000000E+00 0.13613174E+04 0.13613174E+04 0.32000000E+00 0.0000E+00 0.9000E+01
        2 -1    0    0  502    0 0.00000000E+00 0.00000000E+00 -.61797531E+02 0.61798359E+02 0.32000000E+00 0.0000E+00 0.9000E+01
       25  1    1    2    0    0 -.94294980E+02 -.94571152E+02 0.16339166E+03 0.24526940E+03 0.12500000E+03 0.0000E+00 0.9000E+01
       24  1    1    2    0    0 0.16084197E+03 0.13659075E+03 0.93459078E+03 0.96148547E+03 0.80419002E+02 0.0000E+00 0.9000E+01
       21  1    1    2  502  501 -.66546987E+02 -.42019602E+02 0.20153740E+03 0.21636089E+03 0.75000000E+00 0.0000E+00 0.9000E+01
#aMCatNLO 1  0  0  5  2 0.37736622D+02 0.00000000D+00  -5  6  0 0.00000000D+00 0.00000000D+00 0.00000000D+00 0.00000000D+00 0.00000000D+00
  <mgrwgt>
 0.2029424906D+00   14    2    0
 0.290045975973343D+03 0.000000000000000D+00 0.000000000000000D+00 0.290045975973343D+03
 0.290045975973343D+03 -.000000000000000D+00 -.000000000000000D+00 -.290045975973343D+03
 0.235679290464255D+03 -.942937711246873D+02 -.945703889355201D+02 -.148609737962909D+03
 0.265107195495587D+03 0.160843327742844D+03 0.136591613081574D+03 0.138876795417905D+03
 0.793054659868443D+02 -.665495566181566D+02 -.420212241460543D+02 0.973294254500388D+01
 0.000000000000000D+00 0.000000000000000D+00 0.000000000000000D+00 0.000000000000000D+00
 0.290045975973343D+03 0.000000000000000D+00 0.000000000000000D+00 0.290045975973343D+03
 0.290045975973343D+03 -.000000000000000D+00 -.000000000000000D+00 -.290045975973343D+03
 0.246041560622285D+03 -.111561981762347D+03 -.105474013041836D+03 -.146084244022270D+03
 0.249788043705644D+03 0.142385917342608D+03 0.124937095470973D+03 0.141576211072705D+03
 0.439220986485095D+02 -.900182473361387D+01 -.341939479404458D+02 -.260555526788586D+02
 0.403402489702481D+02 -.218221108466472D+02 0.147308655113090D+02 0.305635856284235D+02
0.815846948627D-02 0.000000000000D+00 0.000000000000D+00 0.172383073033D-05 0.000000000000D+00  6 -1 2 25 24 21 21 2 0.20943351D+00 0.95073791D-02 0.59401197D+05 0.59401197D+05 0.59401197D+05 0.11849417D+01  1  2  2  3  6  5       21 0.129402378300D+00 0.100000000000D+01
0.203716481140D-03 0.430534263051D-03 -.313306710016D-04 0.172383073033D-05 0.000000000000D+00  6 -1 2 25 24 21 21 4 0.20943351D+00 0.95073791D-02 0.59401197D+05 0.59401197D+05 0.59401197D+05 0.11849417D+01  1  2  3  3  6  5       21 0.453684252098D-02 0.100000000000D+01
0.931720600486D-04 0.000000000000D+00 0.000000000000D+00 0.172383073033D-05 0.000000000000D+00  6 -1 2 25 24 21 21 4 0.20943351D+00 0.95073791D-02 0.59401197D+05 0.59401197D+05 0.59401197D+05 0.11849417D+01  1  2 15  3  6  5       21 0.207497675903D-02 0.100000000000D+01
0.226157852649D-02 0.000000000000D+00 0.000000000000D+00 0.173524197121D-05 0.000000000000D+00  6 -1 2 25 24 21 21 4 0.20943351D+00 0.95073791D-02 0.54162996D+05 0.54162996D+05 0.54162996D+05 0.11888572D+01  1  2 12  3  6  5       21 0.511164727108D-01 0.100000000000D+01
0.236039456043D-02 0.000000000000D+00 0.000000000000D+00 0.173524197121D-05 0.000000000000D+00  6 -1 2 25 24 21 21 4 0.20943351D+00 0.95073791D-02 0.54162996D+05 0.54162996D+05 0.54162996D+05 0.11888572D+01  1  2 12  3  6  5       21 0.533499247193D-01 0.100000000000D+01
-.232207126119D-02 0.000000000000D+00 0.000000000000D+00 0.172383073033D-05 0.000000000000D+00  6 -1 2 25 24 21 21 4 0.20943351D+00 0.95073791D-02 0.59401197D+05 0.59401197D+05 0.59401197D+05 0.11849417D+01  1  2  4  3  6  5       21 -.517133988156D-01 0.100000000000D+01
0.767355127072D-04 0.000000000000D+00 0.000000000000D+00 0.173524197121D-05 0.000000000000D+00  6 -1 2 25 24 1 -1 4 0.20943351D+00 0.95073791D-02 0.54162996D+05 0.54162996D+05 0.54162996D+05 0.11888572D+01  1  2 12  6  6  5       21 0.173438538406D-02 0.100000000000D+01
0.800561231107D-04 0.000000000000D+00 0.000000000000D+00 0.173524197121D-05 0.000000000000D+00  6 -1 2 25 24 1 -1 4 0.20943351D+00 0.95073791D-02 0.54162996D+05 0.54162996D+05 0.54162996D+05 0.11888572D+01  1  2 12  6  6  5       21 0.180943822396D-02 0.100000000000D+01
0.767355127072D-04 0.000000000000D+00 0.000000000000D+00 0.173524197121D-05 0.000000000000D+00  6 -1 2 25 24 2 -2 4 0.20943351D+00 0.95073791D-02 0.54162996D+05 0.54162996D+05 0.54162996D+05 0.11888572D+01  1  2 12  7  6  5       21 0.173438538406D-02 0.100000000000D+01
0.800561231107D-04 0.000000000000D+00 0.000000000000D+00 0.173524197121D-05 0.000000000000D+00  6 -1 2 25 24 2 -2 4 0.20943351D+00 0.95073791D-02 0.54162996D+05 0.54162996D+05 0.54162996D+05 0.11888572D+01  1  2 12  7  6  5       21 0.180943822396D-02 0.100000000000D+01
0.767355127072D-04 0.000000000000D+00 0.000000000000D+00 0.173524197121D-05 0.000000000000D+00  6 -1 2 25 24 3 -3 4 0.20943351D+00 0.95073791D-02 0.54162996D+05 0.54162996D+05 0.54162996D+05 0.11888572D+01  1  2 12  8  6  5       21 0.173438538406D-02 0.100000000000D+01
0.767355127072D-04 0.000000000000D+00 0.000000000000D+00 0.173524197121D-05 0.000000000000D+00  6 -1 2 25 24 4 -4 4 0.20943351D+00 0.95073791D-02 0.54162996D+05 0.54162996D+05 0.54162996D+05 0.11888572D+01  1  2 12  8  6  5       21 0.173438538406D-02 0.100000000000D+01
0.800561231107D-04 0.000000000000D+00 0.000000000000D+00 0.173524197121D-05 0.000000000000D+00  6 -1 2 25 24 3 -3 4 0.20943351D+00 0.95073791D-02 0.54162996D+05 0.54162996D+05 0.54162996D+05 0.11888572D+01  1  2 12  8  6  5       21 0.180943822396D-02 0.100000000000D+01
0.800561231107D-04 0.000000000000D+00 0.000000000000D+00 0.173524197121D-05 0.000000000000D+00  6 -1 2 25 24 4 -4 4 0.20943351D+00 0.95073791D-02 0.54162996D+05 0.54162996D+05 0.54162996D+05 0.11888572D+01  1  2 12  8  6  5       21 0.180943822396D-02 0.100000000000D+01
  </mgrwgt>
  </event>
  <event>
  5     66 0.43135346E-03 0.75888087E+02 0.75467711E-02 0.11702945E+00
       -1 -1    0    0    0  501 0.00000000E+00 0.00000000E+00 0.24052518E+03 0.24052540E+03 0.32000000E+00 0.0000E+00 0.9000E+01
        2 -1    0    0  502    0 -.00000000E+00 -.00000000E+00 -.25812609E+03 0.25812629E+03 0.32000000E+00 0.0000E+00 0.9000E+01
       25  1    1    2    0    0 -.33268872E+01 0.10801570E+03 -.30777595E+02 0.16807950E+03 0.12500000E+03 0.0000E+00 0.9000E+01
       24  1    1    2    0    0 0.96002073E+01 0.21740475E+01 -.12793023E+03 0.15142738E+03 0.80419002E+02 0.0000E+00 0.9000E+01
       21  1    1    2  502  501 -.62733201E+01 -.11018975E+03 0.14110692E+03 0.17914480E+03 0.75000000E+00 0.0000E+00 0.9000E+01
#aMCatNLO 1  0  0  5  1 0.21187936D+02 0.00000000D+00  -5  6  0 0.00000000D+00 0.00000000D+00 0.00000000D+00 0.00000000D+00 0.00000000D+00
  <mgrwgt>
 0.5533042979D-01   20    2    0
 0.249170479831991D+03 0.000000000000000D+00 0.000000000000000D+00 0.249170479831991D+03
 0.249170479831991D+03 -.000000000000000D+00 -.000000000000000D+00 -.249170479831991D+03
 0.167097529964839D+03 -.332686981721167D+01 0.108016005157300D+03 -.248607941833668D+02
 0.147003734229407D+03 0.960022266724202D+01 0.217431684760004D+01 -.122662096810732D+03
 0.184239695469736D+03 -.627335285003036D+01 -.110190322004900D+03 0.147522890994098D+03
 0.000000000000000D+00 0.000000000000000D+00 0.000000000000000D+00 0.000000000000000D+00
 0.249170479831991D+03 0.000000000000000D+00 0.000000000000000D+00 0.249170479831991D+03
 0.249170479831991D+03 -.000000000000000D+00 -.000000000000000D+00 -.249170479831991D+03
 0.166238373042780D+03 -.338523518123904D+01 0.106990827965796D+03 -.234882861416427D+02
 0.145984625111793D+03 0.954892194597426D+01 0.127322884398961D+01 -.121455719472740D+03
 0.747841131869529D+02 0.358940225267839D+01 -.592893906247850D+02 0.454372967502371D+02
 0.111333848322456D+03 -.975308901741363D+01 -.489746661850008D+02 0.995067088641455D+02
0.899820220186D-04 0.000000000000D+00 0.000000000000D+00 0.284479353921D-05 0.000000000000D+00  6 -1 2 25 24 21 21 2 0.37003906D-01 0.39711738D-01 0.31795476D+05 0.31795476D+05 0.31795476D+05 0.12122578D+01  1  2  2  3  6  5       21 0.137114851482D-01 0.100000000000D+01
-.627451529520D-05 0.474848175909D-05 -.345554657362D-06 0.284479353921D-05 0.000000000000D+00  6 -1 2 25 24 21 21 4 0.37003906D-01 0.39711738D-01 0.31795476D+05 0.31795476D+05 0.31795476D+05 0.12122578D+01  1  2  3  3  6  5       21 -.140507313951D-02 0.100000000000D+01
0.575293034454D-05 0.000000000000D+00 0.000000000000D+00 0.284479353921D-05 0.000000000000D+00  6 -1 2 25 24 21 21 4 0.37003906D-01 0.39711738D-01 0.31795476D+05 0.31795476D+05 0.31795476D+05 0.12122578D+01  1  2 15  3  6  5       21 0.128827288170D-02 0.100000000000D+01
0.965865123843D-04 0.000000000000D+00 0.000000000000D+00 0.284685791334D-05 0.000000000000D+00  6 -1 2 25 24 21 21 4 0.37003906D-01 0.39711738D-01 0.31488307D+05 0.31488307D+05 0.31488307D+05 0.12126976D+01  1  2 12  3  6  5       21 0.216590464973D-01 0.100000000000D+01
0.108422848929D-03 0.000000000000D+00 0.000000000000D+00 0.284685791334D-05 0.000000000000D+00  6 -1 2 25 24 21 21 4 0.37003906D-01 0.39711738D-01 0.31488307D+05 0.31488307D+05 0.31488307D+05 0.12126976D+01  1  2 12  3  6  5       21 0.243132862792D-01 0.100000000000D+01
-.293469535914D-03 0.000000000000D+00 0.000000000000D+00 0.284479353921D-05 0.000000000000D+00  6 -1 2 25 24 21 21 4 0.37003906D-01 0.39711738D-01 0.31795476D+05 0.31795476D+05 0.31795476D+05 0.12122578D+01  1  2  4  3  6  5       21 -.657176120828D-01 0.100000000000D+01
-.211441099929D-03 0.000000000000D+00 0.000000000000D+00 0.284479353921D-05 0.000000000000D+00  6 -1 2 25 24 21 21 4 0.37003906D-01 0.39711738D-01 0.31795476D+05 0.31795476D+05 0.31795476D+05 0.12122578D+01  1  2  5  3  6  5       21 -.473487107962D-01 0.100000000000D+01
0.470370349392D-03 0.000000000000D+00 -.000000000000D+00 0.284479353921D-05 0.000000000000D+00  6 -1 2 25 24 21 21 4 0.37003906D-01 0.39711738D-01 0.31795476D+05 0.31795476D+05 0.31795476D+05 0.12122578D+01  1  2  6  3  6  5       21 0.105331601320D+00 0.100000000000D+01
0.568979281867D-05 0.000000000000D+00 0.000000000000D+00 0.284685791334D-05 0.000000000000D+00  6 -1 2 25 24 1 -1 4 0.37003906D-01 0.39711738D-01 0.31488307D+05 0.31488307D+05 0.31488307D+05 0.12126976D+01  1  2 12  6  6  5       21 0.127590782789D-02 0.100000000000D+01
0.635250796698D-05 0.000000000000D+00 0.000000000000D+00 0.284685791334D-05 0.000000000000D+00  6 -1 2 25 24 1 -1 4 0.37003906D-01 0.39711738D-01 0.31488307D+05 0.31488307D+05 0.31488307D+05 0.12126976D+01  1  2 12  6  6  5       21 0.142451841396D-02 0.100000000000D+01
-.815373386267D-05 0.000000000000D+00 0.000000000000D+00 0.284479353921D-05 0.000000000000D+00  6 -1 2 25 24 1 -1 4 0.37003906D-01 0.39711738D-01 0.31795476D+05 0.31795476D+05 0.31795476D+05 0.12122578D+01  1  2  5  6  6  5       21 -.182589282170D-02 0.100000000000D+01
0.568979281867D-05 0.000000000000D+00 0.000000000000D+00 0.284685791334D-05 0.000000000000D+00  6 -1 2 25 24 2 -2 4 0.37003906D-01 0.39711738D-01 0.31488307D+05 0.31488307D+05 0.31488307D+05 0.12126976D+01  1  2 12  7  6  5       21 0.127590782789D-02 0.100000000000D+01
0.635250796698D-05 0.000000000000D+00 0.000000000000D+00 0.284685791334D-05 0.000000000000D+00  6 -1 2 25 24 2 -2 4 0.37003906D-01 0.39711738D-01 0.31488307D+05 0.31488307D+05 0.31488307D+05 0.12126976D+01  1  2 12  7  6  5       21 0.142451841396D-02 0.100000000000D+01
-.815373386267D-05 0.000000000000D+00 0.000000000000D+00 0.284479353921D-05 0.000000000000D+00  6 -1 2 25 24 2 -2 4 0.37003906D-01 0.39711738D-01 0.31795476D+05 0.31795476D+05 0.31795476D+05 0.12122578D+01  1  2  5  7  6  5       21 -.182589282170D-02 0.100000000000D+01
0.568979281867D-05 0.000000000000D+00 0.000000000000D+00 0.284685791334D-05 0.000000000000D+00  6 -1 2 25 24 3 -3 4 0.37003906D-01 0.39711738D-01 0.31488307D+05 0.31488307D+05 0.31488307D+05 0.12126976D+01  1  2 12  8  6  5       21 0.127590782789D-02 0.100000000000D+01
0.568979281867D-05 0.000000000000D+00 0.000000000000D+00 0.284685791334D-05 0.000000000000D+00  6 -1 2 25 24 4 -4 4 0.37003906D-01 0.39711738D-01 0.31488307D+05 0.31488307D+05 0.31488307D+05 0.12126976D+01  1  2 12  8  6  5       21 0.127590782789D-02 0.100000000000D+01
0.635250796698D-05 0.000000000000D+00 0.000000000000D+00 0.284685791334D-05 0.000000000000D+00  6 -1 2 25 24 3 -3 4 0.37003906D-01 0.39711738D-01 0.31488307D+05 0.31488307D+05 0.31488307D+05 0.12126976D+01  1  2 12  8  6  5       21 0.142451841396D-02 0.100000000000D+01
0.635250796698D-05 0.000000000000D+00 0.000000000000D+00 0.284685791334D-05 0.000000000000D+00  6 -1 2 25 24 4 -4 4 0.37003906D-01 0.39711738D-01 0.31488307D+05 0.31488307D+05 0.31488307D+05 0.12126976D+01  1  2 12  8  6  5       21 0.142451841396D-02 0.100000000000D+01
-.815373386267D-05 0.000000000000D+00 0.000000000000D+00 0.284479353921D-05 0.000000000000D+00  6 -1 2 25 24 3 -3 4 0.37003906D-01 0.39711738D-01 0.31795476D+05 0.31795476D+05 0.31795476D+05 0.12122578D+01  1  2  5  8  6  5       21 -.182589282170D-02 0.100000000000D+01
-.815373386267D-05 0.000000000000D+00 0.000000000000D+00 0.284479353921D-05 0.000000000000D+00  6 -1 2 25 24 4 -4 4 0.37003906D-01 0.39711738D-01 0.31795476D+05 0.31795476D+05 0.31795476D+05 0.12122578D+01  1  2  5  8  6  5       21 -.182589282170D-02 0.100000000000D+01
  </mgrwgt>
  </event>
  <event>
  5     66 -.43135346E-03 0.22841568E+02 0.75467711E-02 0.12019327E+00
       -1 -1    0    0    0  501 0.00000000E+00 0.00000000E+00 0.16046179E+04 0.16046179E+04 0.32000000E+00 0.0000E+00 0.9000E+01
        2 -1    0    0  502    0 0.00000000E+00 0.00000000E+00 -.14557653E+02 0.14561170E+02 0.32000000E+00 0.0000E+00 0.9000E+01
       25  1    1    2    0    0 0.86649649E+02 -.46622890E+02 0.70937139E+03 0.72699011E+03 0.12500000E+03 0.0000E+00 0.9000E+01
       24  1    1    2    0    0 -.64576798E+02 0.52460404E+02 0.80013181E+03 0.80845556E+03 0.80419002E+02 0.0000E+00 0.9000E+01
       21  1    1    2  502  501 -.22072852E+02 -.58375140E+01 0.80557035E+02 0.83733420E+02 0.75000000E+00 0.0000E+00 0.9000E+01
#aMCatNLO 1  0  0  5  1 0.33679958D+01 0.00000000D+00  -5  6  0 0.00000000D+00 0.00000000D+00 0.00000000D+00 0.00000000D+00 0.00000000D+00
  <mgrwgt>
 -.1294847525D+01   20    2    0
 0.152847451865341D+03 0.000000000000000D+00 0.000000000000000D+00 0.152847451865341D+03
 0.152847451865341D+03 -.000000000000000D+00 -.000000000000000D+00 -.152847451865341D+03
 0.160894471860822D+03 0.866550975281457D+02 -.466214493403312D+02 -.240700147313471D+02
 0.120303508383750D+03 -.645727237194956D+02 0.524614815943419D+02 0.329222489426345D+02
 0.244969234861099D+02 -.220823738086500D+02 -.584003225401069D+01 -.885223421128739D+01
 0.000000000000000D+00 0.000000000000000D+00 0.000000000000000D+00 -.000000000000000D+00
 0.152847451865341D+03 0.000000000000000D+00 0.000000000000000D+00 0.152847451865341D+03
 0.152847451865341D+03 -.000000000000000D+00 -.000000000000000D+00 -.152847451865341D+03
 0.160615929727988D+03 0.859581500427877D+02 -.468057681019422D+02 -.243494023744880D+02
 0.120467483910397D+03 -.650946500298026D+02 0.523234499446279D+02 0.327130226167012D+02
 0.191737502952916D+02 -.184681597981932D+02 -.260026088746986D+01 -.444954125407221D+01
 0.543773979700558D+01 -.239534021479197D+01 -.291742095521581D+01 -.391407898814092D+01
0.217879609413D-02 0.000000000000D+00 0.000000000000D+00 0.374171675063D-04 0.000000000000D+00  6 -1 2 25 24 21 21 2 0.24686456D+00 0.22399119D-02 0.22146872D+05 0.22146872D+05 0.22146872D+05 0.12289805D+01  1  2  2  3  6  5       21 0.145498976242D+00 0.100000000000D+01
0.496701507317D-03 0.114978228736D-03 -.836715069164D-05 0.374171675063D-04 0.000000000000D+00  6 -1 2 25 24 21 21 4 0.24686456D+00 0.22399119D-02 0.22146872D+05 0.22146872D+05 0.22146872D+05 0.12289805D+01  1  2  3  3  6  5       21 0.500989737218D-01 0.100000000000D+01
0.870060183533D-04 0.000000000000D+00 0.000000000000D+00 0.374171675063D-04 0.000000000000D+00  6 -1 2 25 24 21 21 4 0.24686456D+00 0.22399119D-02 0.22146872D+05 0.22146872D+05 0.22146872D+05 0.12289805D+01  1  2 15  3  6  5       21 0.877571773572D-02 0.100000000000D+01
0.383906946355D-04 0.000000000000D+00 0.000000000000D+00 0.374270558757D-04 0.000000000000D+00  6 -1 2 25 24 21 21 4 0.24686456D+00 0.22399119D-02 0.22070880D+05 0.22070880D+05 0.22070880D+05 0.12291429D+01  1  2 12  3  6  5       21 0.387420229327D-02 0.100000000000D+01
0.376463360295D-04 0.000000000000D+00 0.000000000000D+00 0.374270558757D-04 0.000000000000D+00  6 -1 2 25 24 21 21 4 0.24686456D+00 0.22399119D-02 0.22070880D+05 0.22070880D+05 0.22070880D+05 0.12291429D+01  1  2 12  3  6  5       21 0.379908524092D-02 0.100000000000D+01
-.189548898671D-01 0.000000000000D+00 0.000000000000D+00 0.374171675063D-04 0.000000000000D+00  6 -1 2 25 24 21 21 4 0.24686456D+00 0.22399119D-02 0.22146872D+05 0.22146872D+05 0.22146872D+05 0.12289805D+01  1  2  4  3  6  5       21 -.191185352846D+01 0.100000000000D+01
-.853931710530D-02 0.000000000000D+00 0.000000000000D+00 0.374171675063D-04 0.000000000000D+00  6 -1 2 25 24 21 21 4 0.24686456D+00 0.22399119D-02 0.22146872D+05 0.22146872D+05 0.22146872D+05 0.12289805D+01  1  2  5  3  6  5       21 -.861304056779D+00 0.100000000000D+01
0.129975140580D-01 0.000000000000D+00 -.000000000000D+00 0.374171675063D-04 0.000000000000D+00  6 -1 2 25 24 21 21 4 0.24686456D+00 0.22399119D-02 0.22146872D+05 0.22146872D+05 0.22146872D+05 0.12289805D+01  1  2  6  3  6  5       21 0.131097269819D+01 0.100000000000D+01
0.231037703700D-05 0.000000000000D+00 0.000000000000D+00 0.374270558757D-04 0.000000000000D+00  6 -1 2 25 24 1 -1 4 0.24686456D+00 0.22399119D-02 0.22070880D+05 0.22070880D+05 0.22070880D+05 0.12291429D+01  1  2 12  6  6  5       21 0.233152020302D-03 0.100000000000D+01
0.228277278487D-05 0.000000000000D+00 0.000000000000D+00 0.374270558757D-04 0.000000000000D+00  6 -1 2 25 24 1 -1 4 0.24686456D+00 0.22399119D-02 0.22070880D+05 0.22070880D+05 0.22070880D+05 0.12291429D+01  1  2 12  6  6  5       21 0.230366333355D-03 0.100000000000D+01
-.115412761484D-03 0.000000000000D+00 0.000000000000D+00 0.374171675063D-04 0.000000000000D+00  6 -1 2 25 24 1 -1 4 0.24686456D+00 0.22399119D-02 0.22146872D+05 0.22146872D+05 0.22146872D+05 0.12289805D+01  1  2  5  6  6  5       21 -.116409167670D-01 0.100000000000D+01
0.231037703700D-05 0.000000000000D+00 0.000000000000D+00 0.374270558757D-04 0.000000000000D+00  6 -1 2 25 24 2 -2 4 0.24686456D+00 0.22399119D-02 0.22070880D+05 0.22070880D+05 0.22070880D+05 0.12291429D+01  1  2 12  7  6  5       21 0.233152020302D-03 0.100000000000D+01
0.228277278487D-05 0.000000000000D+00 0.000000000000D+00 0.374270558757D-04 0.000000000000D+00  6 -1 2 25 24 2 -2 4 0.24686456D+00 0.22399119D-02 0.22070880D+05 0.22070880D+05 0.22070880D+05 0.12291429D+01  1  2 12  7  6  5       21 0.230366333355D-03 0.100000000000D+01
-.115412761484D-03 0.000000000000D+00 0.000000000000D+00 0.374171675063D-04 0.000000000000D+00  6 -1 2 25 24 2 -2 4 0.24686456D+00 0.22399119D-02 0.22146872D+05 0.22146872D+05 0.22146872D+05 0.12289805D+01  1  2  5  7  6  5       21 -.116409167670D-01 0.100000000000D+01
0.231037703700D-05 0.000000000000D+00 0.000000000000D+00 0.374270558757D-04 0.000000000000D+00  6 -1 2 25 24 3 -3 4 0.24686456D+00 0.22399119D-02 0.22070880D+05 0.22070880D+05 0.22070880D+05 0.12291429D+01  1  2 12  8  6  5       21 0.233152020302D-03 0.100000000000D+01
0.231037703700D-05 0.000000000000D+00 0.000000000000D+00 0.374270558757D-04 0.000000000000D+00  6 -1 2 25 24 4 -4 4 0.24686456D+00 0.22399119D-02 0.22070880D+05 0.22070880D+05 0.22070880D+05 0.12291429D+01  1  2 12  8  6  5       21 0.233152020302D-03 0.100000000000D+01
0.228277278487D-05 0.000000000000D+00 0.000000000000D+00 0.374270558757D-04 0.000000000000D+00  6 -1 2 25 24 3 -3 4 0.24686456D+00 0.22399119D-02 0.22070880D+05 0.22070880D+05 0.22070880D+05 0.12291429D+01  1  2 12  8  6  5       21 0.230366333355D-03 0.100000000000D+01
0.228277278487D-05 0.000000000000D+00 0.000000000000D+00 0.374270558757D-04 0.000000000000D+00  6 -1 2 25 24 4 -4 4 0.24686456D+00 0.22399119D-02 0.22070880D+05 0.22070880D+05 0.22070880D+05 0.12291429D+01  1  2 12  8  6  5       21 0.230366333355D-03 0.100000000000D+01
-.115412761484D-03 0.000000000000D+00 0.000000000000D+00 0.374171675063D-04 0.000000000000D+00  6 -1 2 25 24 3 -3 4 0.24686456D+00 0.22399119D-02 0.22146872D+05 0.22146872D+05 0.22146872D+05 0.12289805D+01  1  2  5  8  6  5       21 -.116409167670D-01 0.100000000000D+01
-.115412761484D-03 0.000000000000D+00 0.000000000000D+00 0.374171675063D-04 0.000000000000D+00  6 -1 2 25 24 4 -4 4 0.24686456D+00 0.22399119D-02 0.22146872D+05 0.22146872D+05 0.22146872D+05 0.12289805D+01  1  2  5  8  6  5       21 -.116409167670D-01 0.100000000000D+01
  </mgrwgt>
  </event>
  <event>
  6     66 -.43135346E-03 0.89292745E+01 0.75467711E-02 0.12293733E+00
       -1 -1    0    0    0  501 0.00000000E+00 0.00000000E+00 0.43251282E+02 0.43252466E+02 0.32000000E+00 0.0000E+00 0.9000E+01
        2 -1    0    0  502    0 -.00000000E+00 -.00000000E+00 -.68044900E+03 0.68044907E+03 0.32000000E+00 0.0000E+00 0.9000E+01
       25  1    1    2    0    0 0.62504329E+01 -.43666974E+02 -.18814514E+03 0.23015097E+03 0.12500000E+03 0.0000E+00 0.9000E+01
       24  1    1    2    0    0 -.24792994E+02 0.55199798E+02 -.10316367E+03 0.14412380E+03 0.80419002E+02 0.0000E+00 0.9000E+01
       21  1    1    2  502  503 0.11679373E+02 -.64958611E+01 -.33636264E+03 0.33662886E+03 0.75000000E+00 0.0000E+00 0.9000E+01
       21  1    1    2  503  501 0.68631881E+01 -.50369630E+01 -.95262569E+01 0.12797907E+02 0.75000000E+00 0.0000E+00 0.9000E+01
#aMCatNLO 2  0  0  5  1 0.92903090D+01 0.00000000D+00  -5  6  0 0.00000000D+00 0.00000000D+00 0.00000000D+00 0.00000000D+00 0.00000000D+00
  <mgrwgt>
 -.4330634563D+00    2    2    0
 0.171553919363319D+03 0.000000000000000D+00 0.000000000000000D+00 0.171553919363319D+03
 0.171553919363319D+03 -.000000000000000D+00 -.000000000000000D+00 -.171553919363319D+03
 0.136838448081644D+03 0.525203146168366D+01 -.430460033823646D+02 0.349173113472911D+02
 0.114492053873023D+03 -.256231715615714D+02 0.557161396961452D+02 0.536691652830431D+02
 0.917773367719710D+02 0.203711400998877D+02 -.126701363137806D+02 -.885864766303342D+02
 0.000000000000000D+00 0.000000000000000D+00 0.000000000000000D+00 0.000000000000000D+00
 0.171553919363319D+03 0.000000000000000D+00 0.000000000000000D+00 0.171553919363319D+03
 0.171553919363319D+03 -.000000000000000D+00 -.000000000000000D+00 -.171553919363319D+03
 0.136028256500664D+03 0.626076764031527D+01 -.436734019877070D+02 0.305306946200804D+02
 0.112383749260897D+03 -.247844549763888D+02 0.551944873285907D+02 0.500219002400249D+02
 0.853083905451826D+02 0.115761250298483D+02 -.642212919596792D+01 -.842749730542408D+02
 0.938744241989432D+01 0.694756230622523D+01 -.509895614491572D+01 0.372237819413557D+01
-.223340577315D-03 0.000000000000D+00 0.000000000000D+00 0.519204255104D-04 0.000000000000D+00  6 -1 2 25 24 21 21 4 0.66541403D-02 0.10468456D+00 0.16262808D+05 0.16262808D+05 0.16262808D+05 0.12438404D+01  1  2 13  3  6  5       21 -.291057063128D+00 0.100000000000D+01
-.109237501168D-03 0.000000000000D+00 0.000000000000D+00 0.518444874385D-04 0.000000000000D+00  6 -1 2 25 24 21 21 4 0.66541403D-02 0.10468456D+00 0.16567841D+05 0.16567841D+05 0.16567841D+05 0.12429304D+01  1  2  8  3  6  5       21 -.142006393221D+00 0.100000000000D+01
  </mgrwgt>
  </event>
  <event>
  5     66 0.43135346E-03 0.36129582E+02 0.75467711E-02 0.12248595E+00
       -1 -1    0    0    0  501 0.00000000E+00 0.00000000E+00 0.36739015E+02 0.36740408E+02 0.32000000E+00 0.0000E+00 0.9000E+01
        2 -1    0    0  502    0 -.00000000E+00 -.00000000E+00 -.51985583E+03 0.51985592E+03 0.32000000E+00 0.0000E+00 0.9000E+01
       25  1    1    2    0    0 0.33496463E+02 0.45648727E+02 -.17252334E+03 0.22044302E+03 0.12500000E+03 0.0000E+00 0.9000E+01
       24  1    1    2    0    0 0.26264991E+01 -.45488158E+02 -.22526465E+03 0.24349014E+03 0.80419002E+02 0.0000E+00 0.9000E+01
       21  1    1    2  502  501 -.36122962E+02 -.16056866E+00 -.85328816E+02 0.92663172E+02 0.75000000E+00 0.0000E+00 0.9000E+01
#aMCatNLO 1  0  0  5  1 0.12063201D+02 0.00000000D+00  -5  6  0 0.00000000D+00 0.00000000D+00 0.00000000D+00 0.00000000D+00 0.00000000D+00
  <mgrwgt>
 0.3672363381D+00   20    2    0
 0.138200600815770D+03 0.000000000000000D+00 0.000000000000000D+00 0.138200600815770D+03
 0.138200600815770D+03 -.000000000000000D+00 -.000000000000000D+00 -.138200600815770D+03
 0.142362499309822D+03 0.335001946220471D+02 0.456487436343559D+02 0.378947275307368D+02
 0.965862052216256D+02 0.262903078907602D+01 -.454881471385465D+02 -.280284810818475D+02
 0.374524971000924D+02 -.361292254111231D+02 -.160596495809432D+00 -.986624644888928D+01
 0.000000000000000D+00 0.000000000000000D+00 -.000000000000000D+00 0.000000000000000D+00
 0.138200600815770D+03 0.000000000000000D+00 0.000000000000000D+00 0.138200600815770D+03
 0.138200600815770D+03 -.000000000000000D+00 -.000000000000000D+00 -.138200600815770D+03
 0.140943475063519D+03 0.286502483798626D+02 0.456271853429036D+02 0.365702937975263D+02
 0.968260870672282D+02 -.682015588443913D+00 -.455028649311269D+02 -.289326687358196D+02
 0.240577968774877D+02 -.184253607167488D+02 0.101117255402768D+02 -.117062666830317D+02
 0.145738426233044D+02 -.954287207466986D+01 -.102360459520535D+02 0.406864162132502D+01
0.150608939358D-03 0.000000000000D+00 0.000000000000D+00 0.170616935759D-04 0.000000000000D+00  6 -1 2 25 24 21 21 2 0.56522709D-02 0.79977934D-01 0.17660536D+05 0.17660536D+05 0.17660536D+05 0.12398186D+01  1  2  2  3  6  5       21 0.218701121255D+00 0.100000000000D+01
0.102700029486D-04 0.794785208480D-05 -.578377983377D-06 0.170616935759D-04 0.000000000000D+00  6 -1 2 25 24 21 21 4 0.56522709D-02 0.79977934D-01 0.17660536D+05 0.17660536D+05 0.17660536D+05 0.12398186D+01  1  2  3  3  6  5       21 0.229238255227D-01 0.100000000000D+01
0.451535609600D-05 0.000000000000D+00 0.000000000000D+00 0.170616935759D-04 0.000000000000D+00  6 -1 2 25 24 21 21 4 0.56522709D-02 0.79977934D-01 0.17660536D+05 0.17660536D+05 0.17660536D+05 0.12398186D+01  1  2 15  3  6  5       21 0.100787931450D-01 0.100000000000D+01
0.723568185613D-04 0.000000000000D+00 0.000000000000D+00 0.170844891948D-04 0.000000000000D+00  6 -1 2 25 24 21 21 4 0.56522709D-02 0.79977934D-01 0.17362117D+05 0.17362117D+05 0.17362117D+05 0.12406465D+01  1  2 12  3  6  5       21 0.161848681640D+00 0.100000000000D+01
0.685125038231D-04 0.000000000000D+00 0.000000000000D+00 0.170844891948D-04 0.000000000000D+00  6 -1 2 25 24 21 21 4 0.56522709D-02 0.79977934D-01 0.17362117D+05 0.17362117D+05 0.17362117D+05 0.12406465D+01  1  2 12  3  6  5       21 0.153249667967D+00 0.100000000000D+01
-.175400442913D-03 0.000000000000D+00 0.000000000000D+00 0.170616935759D-04 0.000000000000D+00  6 -1 2 25 24 21 21 4 0.56522709D-02 0.79977934D-01 0.17660536D+05 0.17660536D+05 0.17660536D+05 0.12398186D+01  1  2  4  3  6  5       21 -.391513923613D+00 0.100000000000D+01
-.962639539884D-04 0.000000000000D+00 0.000000000000D+00 0.170616935759D-04 0.000000000000D+00  6 -1 2 25 24 21 21 4 0.56522709D-02 0.79977934D-01 0.17660536D+05 0.17660536D+05 0.17660536D+05 0.12398186D+01  1  2  5  3  6  5       21 -.214872195888D+00 0.100000000000D+01
0.183102783133D-03 0.000000000000D+00 -.000000000000D+00 0.170616935759D-04 0.000000000000D+00  6 -1 2 25 24 21 21 4 0.56522709D-02 0.79977934D-01 0.17660536D+05 0.17660536D+05 0.17660536D+05 0.12398186D+01  1  2  6  3  6  5       21 0.408706431172D+00 0.100000000000D+01
0.169383777395D-05 0.000000000000D+00 0.000000000000D+00 0.170844891948D-04 0.000000000000D+00  6 -1 2 25 24 1 -1 4 0.56522709D-02 0.79977934D-01 0.17362117D+05 0.17362117D+05 0.17362117D+05 0.12406465D+01  1  2 12  6  6  5       21 0.378879856906D-02 0.100000000000D+01
0.161407408275D-05 0.000000000000D+00 0.000000000000D+00 0.170844891948D-04 0.000000000000D+00  6 -1 2 25 24 1 -1 4 0.56522709D-02 0.79977934D-01 0.17362117D+05 0.17362117D+05 0.17362117D+05 0.12406465D+01  1  2 12  6  6  5       21 0.361038209746D-02 0.100000000000D+01
-.352611633189D-05 0.000000000000D+00 0.000000000000D+00 0.170616935759D-04 0.000000000000D+00  6 -1 2 25 24 1 -1 4 0.56522709D-02 0.79977934D-01 0.17660536D+05 0.17660536D+05 0.17660536D+05 0.12398186D+01  1  2  5  6  6  5       21 -.787069643206D-02 0.100000000000D+01
0.169383777395D-05 0.000000000000D+00 0.000000000000D+00 0.170844891948D-04 0.000000000000D+00  6 -1 2 25 24 2 -2 4 0.56522709D-02 0.79977934D-01 0.17362117D+05 0.17362117D+05 0.17362117D+05 0.12406465D+01  1  2 12  7  6  5       21 0.378879856906D-02 0.100000000000D+01
0.161407408275D-05 0.000000000000D+00 0.000000000000D+00 0.170844891948D-04 0.000000000000D+00  6 -1 2 25 24 2 -2 4 0.56522709D-02 0.79977934D-01 0.17362117D+05 0.17362117D+05 0.17362117D+05 0.12406465D+01  1  2 12  7  6  5       21 0.361038209746D-02 0.100000000000D+01
-.352611633189D-05 0.000000000000D+00 0.000000000000D+00 0.170616935759D-04 0.000000000000D+00  6 -1 2 25 24 2 -2 4 0.56522709D-02 0.79977934D-01 0.17660536D+05 0.17660536D+05 0.17660536D+05 0.12398186D+01  1  2  5  7  6  5       21 -.787069643206D-02 0.100000000000D+01
0.169383777395D-05 0.000000000000D+00 0.000000000000D+00 0.170844891948D-04 0.000000000000D+00  6 -1 2 25 24 3 -3 4 0.56522709D-02 0.79977934D-01 0.17362117D+05 0.17362117D+05 0.17362117D+05 0.12406465D+01  1  2 12  8  6  5       21 0.378879856906D-02 0.100000000000D+01
0.169383777395D-05 0.000000000000D+00 0.000000000000D+00 0.170844891948D-04 0.000000000000D+00  6 -1 2 25 24 4 -4 4 0.56522709D-02 0.79977934D-01 0.17362117D+05 0.17362117D+05 0.17362117D+05 0.12406465D+01  1  2 12  8  6  5       21 0.378879856906D-02 0.100000000000D+01
0.161407408275D-05 0.000000000000D+00 0.000000000000D+00 0.170844891948D-04 0.000000000000D+00  6 -1 2 25 24 3 -3 4 0.56522709D-02 0.79977934D-01 0.17362117D+05 0.17362117D+05 0.17362117D+05 0.12406465D+01  1  2 12  8  6  5       21 0.361038209746D-02 0.100000000000D+01
0.161407408275D-05 0.000000000000D+00 0.000000000000D+00 0.170844891948D-04 0.000000000000D+00  6 -1 2 25 24 4 -4 4 0.56522709D-02 0.79977934D-01 0.17362117D+05 0.17362117D+05 0.17362117D+05 0.12406465D+01  1  2 12  8  6  5       21 0.361038209746D-02 0.100000000000D+01
-.352611633189D-05 0.000000000000D+00 0.000000000000D+00 0.170616935759D-04 0.000000000000D+00  6 -1 2 25 24 3 -3 4 0.56522709D-02 0.79977934D-01 0.17660536D+05 0.17660536D+05 0.17660536D+05 0.12398186D+01  1  2  5  8  6  5       21 -.787069643206D-02 0.100000000000D+01
-.352611633189D-05 0.000000000000D+00 0.000000000000D+00 0.170616935759D-04 0.000000000000D+00  6 -1 2 25 24 4 -4 4 0.56522709D-02 0.79977934D-01 0.17660536D+05 0.17660536D+05 0.17660536D+05 0.12398186D+01  1  2  5  8  6  5       21 -.787069643206D-02 0.100000000000D+01
  </mgrwgt>
  </event>
  <event>
  5     66 0.43135346E-03 0.37736550E+02 0.75467711E-02 0.11857160E+00
       -1 -1    0    0    0  501 0.00000000E+00 0.00000000E+00 0.17947752E+02 0.17950604E+02 0.32000000E+00 0.0000E+00 0.9000E+01
        2 -1    0    0  502    0 0.00000000E+00 0.00000000E+00 -.13571568E+04 0.13571568E+04 0.32000000E+00 0.0000E+00 0.9000E+01
       25  1    1    2    0    0 0.30994090E+02 0.11924805E+02 -.32571316E+03 0.35045241E+03 0.12500000E+03 0.0000E+00 0.9000E+01
       24  1    1    2    0    0 -.45926613E+02 -.46578589E+02 -.55424797E+03 0.56385889E+03 0.80419002E+02 0.0000E+00 0.9000E+01
       21  1    1    2  502  501 0.14932523E+02 0.34653784E+02 -.45924791E+03 0.46079613E+03 0.75000000E+00 0.0000E+00 0.9000E+01
#aMCatNLO 1  0  0  2  1 0.51019878D+02 0.00000000D+00  -5  6  0 0.00000000D+00 0.00000000D+00 0.00000000D+00 0.00000000D+00 0.00000000D+00
  <mgrwgt>
 0.8364223515D-01    7    4    0
 0.156076585775862D+03 0.000000000000000D+00 0.000000000000000D+00 0.156076585775862D+03
 0.156076585775862D+03 0.000000000000000D+00 0.000000000000000D+00 -.156076585775862D+03
 0.146440602908652D+03 0.309935362102137D+02 0.119235194763511D+02 0.686810059385623D+02
 0.106078558086422D+03 -.459270147361287D+02 -.465795208567966D+02 -.225056012028688D+02
 0.596340105566488D+02 0.149334785259149D+02 0.346560013804454D+02 -.461754047356934D+02
 0.000000000000000D+00 0.000000000000000D+00 -.000000000000000D+00 -.000000000000000D+00
 0.163911765697493D+03 0.000000000000000D+00 0.000000000000000D+00 0.163911765697493D+03
 0.271044219271134D+03 0.000000000000000D+00 0.000000000000000D+00 -.271044219271134D+03
 0.143745679232320D+03 0.781113826903185D+01 0.161160119189037D+02 0.686810059385623D+02
 0.113517990008559D+03 -.634701409200695D+02 -.434068799534902D+02 -.225056012028688D+02
 0.590314942582116D+02 0.545353021749377D+01 0.363704319471057D+02 -.461754047356934D+02
 0.118660821469537D+03 0.502054724335439D+02 -.907956391251915D+01 -.107132453573641D+03
 0.156076585775862D+03 0.000000000000000D+00 0.000000000000000D+00 0.156076585775862D+03
 0.156076585775862D+03 0.000000000000000D+00 0.000000000000000D+00 -.156076585775862D+03
 0.146440602908652D+03 0.309935362102137D+02 0.119235194763511D+02 0.686810059385623D+02
 0.106078558086422D+03 -.459270147361287D+02 -.465795208567966D+02 -.225056012028688D+02
 0.000000000000000D+00 0.000000000000000D+00 -.000000000000000D+00 -.000000000000000D+00
 0.596340105566488D+02 0.149334785259149D+02 0.346560013804454D+02 -.461754047356934D+02
 0.163911765697493D+03 0.000000000000000D+00 0.000000000000000D+00 0.163911765697493D+03
 0.271044219271134D+03 0.000000000000000D+00 0.000000000000000D+00 -.271044219271134D+03
 0.143745679232320D+03 0.781113826903185D+01 0.161160119189037D+02 0.686810059385623D+02
 0.113517990008559D+03 -.634701409200695D+02 -.434068799534902D+02 -.225056012028688D+02
 0.118660821469537D+03 0.502054724335439D+02 -.907956391251915D+01 -.107132453573641D+03
 0.590314942582116D+02 0.545353021749377D+01 0.363704319471057D+02 -.461754047356934D+02
0.301886628356D-04 0.000000000000D+00 0.000000000000D+00 0.155705275692D-04 0.000000000000D+00  6 -1 2 25 24 21 21 2 0.27614149D-02 0.20879358D+00 0.18324510D+05 0.18324510D+05 0.18324510D+05 0.12380313D+01  1  2  2  2  6  2        2 0.357780326424D-01 0.100000000000D+01
0.106098188031D-05 0.159309950577D-05 -.115932414146D-06 0.155705275692D-04 0.000000000000D+00  6 -1 2 25 24 21 21 4 0.27614149D-02 0.20879358D+00 0.18324510D+05 0.18324510D+05 0.18324510D+05 0.12380313D+01  1  2  3  2  6  2        2 0.192727551547D-02 0.100000000000D+01
0.134084174943D-05 0.000000000000D+00 0.000000000000D+00 0.155705275692D-04 0.000000000000D+00  6 -1 2 25 24 21 21 4 0.27614149D-02 0.20879358D+00 0.18324510D+05 0.18324510D+05 0.18324510D+05 0.12380313D+01  1  2 15  2  6  2        2 0.243564147680D-02 0.100000000000D+01
-.444835432464D-04 0.000000000000D+00 0.000000000000D+00 0.155705275692D-04 0.000000000000D+00  6 -1 2 25 24 21 21 4 0.27614149D-02 0.20879358D+00 0.18324510D+05 0.18324510D+05 0.18324510D+05 0.12380313D+01  1  2  4  2  6  2        2 -.808044372214D-01 0.100000000000D+01
-.104231528012D-03 0.000000000000D+00 -.162406733973D-04 0.155705275692D-04 0.000000000000D+00  6 -1 2 25 24 21 21 4 0.27614149D-02 0.36744517D+00 0.18324510D+05 0.18324510D+05 0.18324510D+05 0.12380313D+01  1  2  5  2  6  2        2 -.555107087322D-01 0.100000000000D+01
0.993951360760D-04 0.000000000000D+00 0.139519916004D-04 0.155705275692D-04 0.000000000000D+00  6 -1 2 25 24 21 21 4 0.27614149D-02 0.20879358D+00 0.18324510D+05 0.18324510D+05 0.18324510D+05 0.12380313D+01  1  2  6  2  6  2        2 0.180551445479D+00 0.100000000000D+01
-.566474182590D-05 0.000000000000D+00 -.101238963057D-05 0.155705275692D-04 0.000000000000D+00  6 -1 21 25 24 -2 21 4 0.27614149D-02 0.36744517D+00 0.18324510D+05 0.18324510D+05 0.18324510D+05 0.12380313D+01  3  4  5  5  5  2        2 -.735014009845D-03 0.100000000000D+01
  </mgrwgt>
  </event>
  <event>
  6     66 0.43135346E-03 0.42052366E+02 0.75467711E-02 0.11589323E+00
       -1 -1    0    0    0  501 0.00000000E+00 0.00000000E+00 0.42003220E+02 0.42004439E+02 0.32000000E+00 0.0000E+00 0.9000E+01
        2 -1    0    0  503    0 0.00000000E+00 0.00000000E+00 -.88790387E+03 0.88790393E+03 0.32000000E+00 0.0000E+00 0.9000E+01
       25  1    1    2    0    0 -.71764935E+00 0.81577101E+02 -.30531392E+03 0.33984839E+03 0.12500000E+03 0.0000E+00 0.9000E+01
       24  1    1    2    0    0 0.11596308E+02 -.13465075E+03 -.34142376E+03 0.37590252E+03 0.80419002E+02 0.0000E+00 0.9000E+01
       21  1    1    2  502  501 -.28742603E+02 0.43540580E+02 -.98405257E+02 0.11138257E+03 0.75000000E+00 0.0000E+00 0.9000E+01
       21  1    1    2  503  502 0.17863945E+02 0.95330716E+01 -.10075771E+03 0.10277489E+03 0.75000000E+00 0.0000E+00 0.9000E+01
#aMCatNLO 2  0  0  2  5 0.20248456D+02 0.00000000D+00  -5  6  0 0.00000000D+00 0.00000000D+00 0.00000000D+00 0.00000000D+00 0.00000000D+00
  <mgrwgt>
 0.1597525923D+00    1    2    0
 0.179235726186173D+03 0.000000000000000D+00 0.000000000000000D+00 0.179235726186173D+03
 0.179235726186173D+03 0.000000000000000D+00 0.000000000000000D+00 -.179235726186173D+03
 0.151649308093137D+03 0.677572147977135D+01 0.855733549490306D+02 0.195017084459017D+01
 0.154646146355002D+03 0.193663455873333D+02 -.130506905889713D+03 -.641145863028392D+01
 0.521759979242054D+02 -.261420670671046D+02 0.449335509406825D+02 0.446128778569377D+01
 0.000000000000000D+00 0.000000000000000D+00 0.000000000000000D+00 -.000000000000000D+00
 0.183933130679227D+03 0.000000000000000D+00 0.000000000000000D+00 0.183933130679227D+03
 0.202755129583136D+03 0.000000000000000D+00 0.000000000000000D+00 -.202755129583136D+03
 0.149277674275717D+03 -.716453818465322D+00 0.815751651225413D+02 0.195017084459017D+01
 0.157398219901553D+03 0.115973809221586D+02 -.134652804010112D+03 -.641145863028392D+01
 0.523669753418797D+02 -.287448721587010D+02 0.435445673113213D+02 0.446128778569377D+01
 0.276453907432135D+02 0.178639450550078D+02 0.953307157624924D+01 -.188219989039083D+02
0.181381068045D-03 0.000000000000D+00 0.000000000000D+00 0.708662340430D-05 0.566130920794D-07  6 -1 2 25 24 21 21 4 0.64619562D-02 0.13659698D+00 0.35902210D+05 0.35902210D+05 0.35902210D+05 0.12067963D+01  1  2  1  2  6  2        2 0.159752592350D+00 0.100000000000D+01
  </mgrwgt>
  </event>
  <event>
  6     66 -.43135346E-03 0.37671883E+02 0.75467711E-02 0.11490794E+00
       -1 -1    0    0    0  501 0.00000000E+00 0.00000000E+00 0.13040334E+03 0.13040373E+03 0.32000000E+00 0.0000E+00 0.9000E+01
        2 -1    0    0  503    0 0.00000000E+00 0.00000000E+00 -.79030517E+03 0.79030524E+03 0.32000000E+00 0.0000E+00 0.9000E+01
       25  1    1    2    0    0 0.11875116E+03 0.35182811E+02 -.41018142E+03 0.44633335E+03 0.12500000E+03 0.0000E+00 0.9000E+01
       24  1    1    2    0    0 -.67863911E+02 -.84395978E+02 -.18651355E+03 0.23017974E+03 0.80419002E+02 0.0000E+00 0.9000E+01
       21  1    1    2  502  501 -.15739406E+02 0.53065833E+02 0.79666456E+02 0.97010402E+02 0.75000000E+00 0.0000E+00 0.9000E+01
       21  1    1    2  503  502 -.35147839E+02 -.38526656E+01 -.14287333E+03 0.14718547E+03 0.75000000E+00 0.0000E+00 0.9000E+01
#aMCatNLO 2  0  0  2  5 0.35358360D+02 0.00000000D+00  -5  6  0 0.00000000D+00 0.00000000D+00 0.00000000D+00 0.00000000D+00 0.00000000D+00
  <mgrwgt>
 -.1552866178D+00    2    2    0
 0.287127976377166D+03 0.000000000000000D+00 0.000000000000000D+00 0.287127976377166D+03
 0.287127976377166D+03 0.000000000000000D+00 0.000000000000000D+00 -.287127976377166D+03
 0.224402829532434D+03 0.104813440081636D+03 0.336549075075491D+02 -.150376593527963D+03
 0.146845851947124D+03 -.766906614312821D+02 -.853636012564786D+02 -.439099796112860D+02
 0.203007271274775D+03 -.281227786503537D+02 0.517086937489295D+02 0.194286573139249D+03
 0.000000000000000D+00 -.000000000000000D+00 -.000000000000000D+00 -.000000000000000D+00
 0.292506026368631D+03 0.000000000000000D+00 0.000000000000000D+00 0.292506026368631D+03
 0.352325170157936D+03 0.000000000000000D+00 0.000000000000000D+00 -.352325170157936D+03
 0.231468790003603D+03 0.118751253587753D+03 0.351826752251043D+02 -.150376593527963D+03
 0.141857326407870D+03 -.678638538694723D+02 -.843960670276638D+02 -.439099796112860D+02
 0.202017357447126D+03 -.157395604402454D+02 0.530660573707445D+02 0.194286573139249D+03
 0.694877226679678D+02 -.351478392780351D+02 -.385266556818498D+01 -.598191437893049D+02
-.149252458256D-02 0.000000000000D+00 0.000000000000D+00 0.908873389178D-05 0.000000000000D+00  6 -1 2 25 24 21 21 4 0.19693089D-01 0.12281663D+00 0.40314143D+05 0.40314143D+05 0.40314143D+05 0.12016554D+01  1  2 13  2  6  2        2 -.262265857489D+00 0.100000000000D+01
0.619466550689D-03 0.000000000000D+00 0.000000000000D+00 0.921578959229D-05 0.318623402575D-07  6 -1 2 25 24 21 21 4 0.20061950D-01 0.12158462D+00 0.40314143D+05 0.40314143D+05 0.40314143D+05 0.12016554D+01  1  2  1  2  6  2        2 0.106979239656D+00 0.100000000000D+01
  </mgrwgt>
  </event>
  <event>
  5     66 0.43135346E-03 0.28712262E+02 0.75467711E-02 0.11991967E+00
       -1 -1    0    0    0  501 0.00000000E+00 0.00000000E+00 0.58854292E+02 0.58855162E+02 0.32000000E+00 0.0000E+00 0.9000E+01
        2 -1    0    0  502    0 -.00000000E+00 -.00000000E+00 -.17436597E+04 0.17436597E+04 0.32000000E+00 0.0000E+00 0.9000E+01
       25  1    1    2    0    0 0.18116526E+02 -.74993410E+02 -.63169622E+03 0.64855018E+03 0.12500000E+03 0.0000E+00 0.9000E+01
       24  1    1    2    0    0 0.65634888E+00 0.96718256E+02 -.10955341E+04 0.11027316E+04 0.80419002E+02 0.0000E+00 0.9000E+01
       21  1    1    2  502  501 -.18772875E+02 -.21724846E+02 0.42424934E+02 0.51233068E+02 0.75000000E+00 0.0000E+00 0.9000E+01
#aMCatNLO 1  0  0  5  2 0.68043596D+01 0.00000000D+00  -5  6  0 0.00000000D+00 0.00000000D+00 0.00000000D+00 0.00000000D+00 0.00000000D+00
  <mgrwgt>
 0.2142497129D+01   20    2    0
 0.320347728840649D+03 0.000000000000000D+00 0.000000000000000D+00 0.320347728840649D+03
 0.320347728840649D+03 -.000000000000000D+00 -.000000000000000D+00 -.320347728840649D+03
 0.163472705806083D+03 0.181165463650073D+02 -.749933863069995D+02 -.717363805999147D+02
 0.221522727580773D+03 0.656376803248380D+00 0.967182882278010D+02 -.182346496462726D+03
 0.255700024294443D+03 -.187729231682557D+02 -.217249019208015D+02 0.254082877062641D+03
 0.000000000000000D+00 0.000000000000000D+00 0.000000000000000D+00 0.000000000000000D+00
 0.320347728840649D+03 0.000000000000000D+00 0.000000000000000D+00 0.320347728840649D+03
 0.320347728840649D+03 -.000000000000000D+00 -.000000000000000D+00 -.320347728840649D+03
 0.163421271824525D+03 0.181072199014516D+02 -.750041793254441D+02 -.716101512070916D+02
 0.221375544939660D+03 0.643740673860289D+00 0.967036651097520D+02 -.182175472265744D+03
 0.194589535664247D+03 -.180226958522115D+02 -.221528606428683D+02 0.192482520218288D+03
 0.613091052528659D+02 -.728264723100408D+00 0.453374858560464D+00 0.613031032545474D+02
0.175834154981D-03 0.000000000000D+00 0.000000000000D+00 0.539674492376D-04 0.000000000000D+00  6 -1 2 25 24 21 21 2 0.90545756D-02 0.26825541D+00 0.22708975D+05 0.22708975D+05 0.22708975D+05 0.12277984D+01  1  2  2  3  6  5       21 0.221691917064D-01 0.100000000000D+01
0.432867417095D-04 0.927902328510D-05 -.675249453322D-06 0.539674492376D-04 0.000000000000D+00  6 -1 2 25 24 21 21 4 0.90545756D-02 0.26825541D+00 0.22708975D+05 0.22708975D+05 0.22708975D+05 0.12277984D+01  1  2  3  3  6  5       21 0.822726827293D-02 0.100000000000D+01
0.440854187023D-05 0.000000000000D+00 0.000000000000D+00 0.539674492376D-04 0.000000000000D+00  6 -1 2 25 24 21 21 4 0.90545756D-02 0.26825541D+00 0.22708975D+05 0.22708975D+05 0.22708975D+05 0.12277984D+01  1  2 15  3  6  5       21 0.837906833050D-03 0.100000000000D+01
0.941567642297D-02 0.000000000000D+00 0.000000000000D+00 0.539483361599D-04 0.000000000000D+00  6 -1 2 25 24 21 21 4 0.90545756D-02 0.26825541D+00 0.22814097D+05 0.22814097D+05 0.22814097D+05 0.12275810D+01  1  2 12  3  6  5       21 0.178819764147D+01 0.100000000000D+01
-.233243243495D-02 0.000000000000D+00 0.000000000000D+00 0.539674492376D-04 0.000000000000D+00  6 -1 2 25 24 21 21 4 0.90545756D-02 0.26825541D+00 0.22708975D+05 0.22708975D+05 0.22708975D+05 0.12277984D+01  1  2  4  3  6  5       21 -.443312354153D+00 0.100000000000D+01
-.200085276839D-01 0.000000000000D+00 0.000000000000D+00 0.539674492376D-04 0.000000000000D+00  6 -1 2 25 24 21 21 4 0.90545756D-02 0.26825541D+00 0.22708975D+05 0.22708975D+05 0.22708975D+05 0.12277984D+01  1  2  5  3  6  5       21 -.380290866212D+01 0.100000000000D+01
0.244152725386D-01 0.000000000000D+00 -.000000000000D+00 0.539674492376D-04 0.000000000000D+00  6 -1 2 25 24 21 21 4 0.90545756D-02 0.26825541D+00 0.22708975D+05 0.22708975D+05 0.22708975D+05 0.12277984D+01  1  2  6  3  6  5       21 0.464047394650D+01 0.100000000000D+01
0.825311157554D-04 0.000000000000D+00 0.000000000000D+00 0.539674492376D-04 0.257159789232D-03  6 -1 2 25 24 21 21 4 0.90545756D-02 0.26825541D+00 0.22814097D+05 0.22814097D+05 0.22814097D+05 0.12275810D+01  1  2 11  3  6  5       21 0.156740673651D-01 0.100000000000D+01
0.114061176890D-03 0.000000000000D+00 0.000000000000D+00 0.539483361599D-04 0.000000000000D+00  6 -1 2 25 24 1 -1 4 0.90545756D-02 0.26825541D+00 0.22814097D+05 0.22814097D+05 0.22814097D+05 0.12275810D+01  1  2 12  6  6  5       21 0.216621640694D-01 0.100000000000D+01
-.241544045138D-03 0.000000000000D+00 0.000000000000D+00 0.539674492376D-04 0.000000000000D+00  6 -1 2 25 24 1 -1 4 0.90545756D-02 0.26825541D+00 0.22708975D+05 0.22708975D+05 0.22708975D+05 0.12277984D+01  1  2  5  6  6  5       21 -.459089222381D-01 0.100000000000D+01
0.262624353990D-05 0.000000000000D+00 0.000000000000D+00 0.539674492376D-04 0.149632411410D-04  6 -1 2 25 24 1 -1 4 0.90545756D-02 0.26825541D+00 0.22814097D+05 0.22814097D+05 0.22814097D+05 0.12275810D+01  1  2 11  6  6  5       21 0.498768467927D-03 0.100000000000D+01
0.114061176890D-03 0.000000000000D+00 0.000000000000D+00 0.539483361599D-04 0.000000000000D+00  6 -1 2 25 24 2 -2 4 0.90545756D-02 0.26825541D+00 0.22814097D+05 0.22814097D+05 0.22814097D+05 0.12275810D+01  1  2 12  7  6  5       21 0.216621640694D-01 0.100000000000D+01
-.241544045138D-03 0.000000000000D+00 0.000000000000D+00 0.539674492376D-04 0.000000000000D+00  6 -1 2 25 24 2 -2 4 0.90545756D-02 0.26825541D+00 0.22708975D+05 0.22708975D+05 0.22708975D+05 0.12277984D+01  1  2  5  7  6  5       21 -.459089222381D-01 0.100000000000D+01
0.168956416057D-04 0.000000000000D+00 0.000000000000D+00 0.539674492376D-04 0.178463419780D-06  6 -1 2 25 24 2 -2 4 0.90545756D-02 0.26825541D+00 0.22814097D+05 0.22814097D+05 0.22814097D+05 0.12275810D+01  1  2 11  7  6  5       21 0.320877068341D-02 0.100000000000D+01
0.114061176890D-03 0.000000000000D+00 0.000000000000D+00 0.539483361599D-04 0.000000000000D+00  6 -1 2 25 24 3 -3 4 0.90545756D-02 0.26825541D+00 0.22814097D+05 0.22814097D+05 0.22814097D+05 0.12275810D+01  1  2 12  8  6  5       21 0.216621640694D-01 0.100000000000D+01
0.114061176890D-03 0.000000000000D+00 0.000000000000D+00 0.539483361599D-04 0.000000000000D+00  6 -1 2 25 24 4 -4 4 0.90545756D-02 0.26825541D+00 0.22814097D+05 0.22814097D+05 0.22814097D+05 0.12275810D+01  1  2 12  8  6  5       21 0.216621640694D-01 0.100000000000D+01
-.241544045138D-03 0.000000000000D+00 0.000000000000D+00 0.539674492376D-04 0.000000000000D+00  6 -1 2 25 24 3 -3 4 0.90545756D-02 0.26825541D+00 0.22708975D+05 0.22708975D+05 0.22708975D+05 0.12277984D+01  1  2  5  8  6  5       21 -.459089222381D-01 0.100000000000D+01
-.241544045138D-03 0.000000000000D+00 0.000000000000D+00 0.539674492376D-04 0.000000000000D+00  6 -1 2 25 24 4 -4 4 0.90545756D-02 0.26825541D+00 0.22708975D+05 0.22708975D+05 0.22708975D+05 0.12277984D+01  1  2  5  8  6  5       21 -.459089222381D-01 0.100000000000D+01
0.168958403043D-04 0.000000000000D+00 0.000000000000D+00 0.539674492376D-04 0.178459651510D-06  6 -1 2 25 24 3 -3 4 0.90545756D-02 0.26825541D+00 0.22814097D+05 0.22814097D+05 0.22814097D+05 0.12275810D+01  1  2 11  8  6  5       21 0.320880841967D-02 0.100000000000D+01
0.168958403043D-04 0.000000000000D+00 0.000000000000D+00 0.539674492376D-04 0.178459651510D-06  6 -1 2 25 24 4 -4 4 0.90545756D-02 0.26825541D+00 0.22814097D+05 0.22814097D+05 0.22814097D+05 0.12275810D+01  1  2 11  8  6  5       21 0.320880841967D-02 0.100000000000D+01
  </mgrwgt>
  </event>
  <event>
  5     66 0.43135346E-03 0.31269006E+02 0.75467711E-02 0.12292229E+00
       -1 -1    0    0    0  501 0.00000000E+00 0.00000000E+00 0.14733913E+02 0.14737388E+02 0.32000000E+00 0.0000E+00 0.9000E+01
        2 -1    0    0  502    0 -.00000000E+00 -.00000000E+00 -.13337008E+04 0.13337009E+04 0.32000000E+00 0.0000E+00 0.9000E+01
       25  1    1    2    0    0 -.16261958E+02 -.39695181E+02 -.40803575E+03 0.42890364E+03 0.12500000E+03 0.0000E+00 0.9000E+01
       24  1    1    2    0    0 -.14155871E+02 0.46913931E+02 -.67269203E+03 0.67925186E+03 0.80419002E+02 0.0000E+00 0.9000E+01
       21  1    1    2  502  501 0.30417829E+02 -.72187507E+01 -.23823912E+03 0.24028274E+03 0.75000000E+00 0.0000E+00 0.9000E+01
#aMCatNLO 1  0  0  5  1 0.16676844D+01 0.00000000D+00  -5  6  0 0.00000000D+00 0.00000000D+00 0.00000000D+00 0.00000000D+00 0.00000000D+00
  <mgrwgt>
 0.1159498982D+00   25    2    0
 0.140189160609964D+03 0.000000000000000D+00 0.000000000000000D+00 0.140189160609964D+03
 0.140189160609964D+03 -.000000000000000D+00 -.000000000000000D+00 -.140189160609964D+03
 0.143251680768864D+03 -.162655535979578D+02 -.396943273397408D+02 0.552796181815861D+02
 0.102257179169474D+03 -.141584379830925D+02 0.469145406073781D+02 -.398482026044468D+02
 0.348694612815908D+02 0.304239915810503D+02 -.722021326763726D+01 -.154314155771393D+02
 0.000000000000000D+00 0.000000000000000D+00 -.000000000000000D+00 0.000000000000000D+00
 0.140189160609964D+03 0.000000000000000D+00 0.000000000000000D+00 0.140189160609964D+03
 0.140189160609964D+03 -.000000000000000D+00 -.000000000000000D+00 -.140189160609964D+03
 0.143234330657082D+03 -.161942131718092D+02 -.397112578299437D+02 0.552434334567640D+02
 0.102254665450361D+03 -.141075106722790D+02 0.469024545520608D+02 -.398740335508989D+02
 0.168270658826088D+02 0.149284549623009D+02 -.183575928173385D+01 -.754462500829159D+01
 0.180622592298772D+02 0.153732688817873D+02 -.535543744038321D+01 -.782477489757349D+01
0.285880787332D-04 0.000000000000D+00 0.000000000000D+00 0.208497675612D-04 0.000000000000D+00  6 -1 2 25 24 21 21 2 0.22670261D-02 0.20518501D+00 0.16589250D+05 0.16589250D+05 0.16589250D+05 0.12428673D+01  1  2  2  3  6  5       21 0.466675954548D-01 0.100000000000D+01
0.247581345610D-05 0.150863436214D-05 -.109785749749D-06 0.208497675612D-04 0.000000000000D+00  6 -1 2 25 24 21 21 4 0.22670261D-02 0.20518501D+00 0.16589250D+05 0.16589250D+05 0.16589250D+05 0.12428673D+01  1  2  3  3  6  5       21 0.624306517822D-02 0.100000000000D+01
0.448838245878D-06 0.000000000000D+00 0.000000000000D+00 0.208497675612D-04 0.000000000000D+00  6 -1 2 25 24 21 21 4 0.22670261D-02 0.20518501D+00 0.16589250D+05 0.16589250D+05 0.16589250D+05 0.12428673D+01  1  2 15  3  6  5       21 0.113180030450D-02 0.100000000000D+01
0.100933523789D-06 0.000000000000D+00 0.000000000000D+00 0.208493352949D-04 0.000000000000D+00  6 -1 2 25 24 21 21 4 0.22670261D-02 0.20518501D+00 0.16593621D+05 0.16593621D+05 0.16593621D+05 0.12428544D+01  1  2 12  3  6  5       21 0.254507250885D-03 0.100000000000D+01
0.100806043589D-06 0.000000000000D+00 0.000000000000D+00 0.208493352949D-04 0.000000000000D+00  6 -1 2 25 24 21 21 4 0.22670261D-02 0.20518501D+00 0.16593621D+05 0.16593621D+05 0.16593621D+05 0.12428544D+01  1  2 12  3  6  5       21 0.254185805304D-03 0.100000000000D+01
-.143416898981D-02 0.000000000000D+00 0.000000000000D+00 0.208497675612D-04 0.000000000000D+00  6 -1 2 25 24 21 21 4 0.22670261D-02 0.20518501D+00 0.16589250D+05 0.16589250D+05 0.16589250D+05 0.12428673D+01  1  2  4  3  6  5       21 -.361643178646D+01 0.100000000000D+01
-.517884258753D-03 0.000000000000D+00 0.000000000000D+00 0.208497675612D-04 0.000000000000D+00  6 -1 2 25 24 21 21 4 0.22670261D-02 0.20518501D+00 0.16589250D+05 0.16589250D+05 0.16589250D+05 0.12428673D+01  1  2  5  3  6  5       21 -.130590823561D+01 0.100000000000D+01
0.145640593881D-02 0.000000000000D+00 -.000000000000D+00 0.208497675612D-04 0.000000000000D+00  6 -1 2 25 24 21 21 4 0.22670261D-02 0.20518501D+00 0.16589250D+05 0.16589250D+05 0.16589250D+05 0.12428673D+01  1  2  6  3  6  5       21 0.367250496177D+01 0.100000000000D+01
0.519799679529D-03 0.000000000000D+00 0.000000000000D+00 0.208497675612D-04 0.350784584706D-04  6 -1 2 25 24 21 21 4 0.22670261D-02 0.20518501D+00 0.16593621D+05 0.16593621D+05 0.16593621D+05 0.12428544D+01  1  2 11  3  6  5       21 0.131069225052D+01 0.100000000000D+01
0.852683116824D-08 0.000000000000D+00 0.000000000000D+00 0.208493352949D-04 0.000000000000D+00  6 -1 2 25 24 1 -1 4 0.22670261D-02 0.20518501D+00 0.16593621D+05 0.16593621D+05 0.16593621D+05 0.12428544D+01  1  2 12  6  6  5       21 0.215006895423D-04 0.100000000000D+01
0.851611348602D-08 0.000000000000D+00 0.000000000000D+00 0.208493352949D-04 0.000000000000D+00  6 -1 2 25 24 1 -1 4 0.22670261D-02 0.20518501D+00 0.16593621D+05 0.16593621D+05 0.16593621D+05 0.12428544D+01  1  2 12  6  6  5       21 0.214736645486D-04 0.100000000000D+01
-.450310739372D-04 0.000000000000D+00 0.000000000000D+00 0.208497675612D-04 0.000000000000D+00  6 -1 2 25 24 1 -1 4 0.22670261D-02 0.20518501D+00 0.16589250D+05 0.16589250D+05 0.16589250D+05 0.12428673D+01  1  2  5  6  6  5       21 -.113551337619D+00 0.100000000000D+01
0.450686867140D-04 0.000000000000D+00 0.000000000000D+00 0.208497675612D-04 0.282032205536D-05  6 -1 2 25 24 1 -1 4 0.22670261D-02 0.20518501D+00 0.16593621D+05 0.16593621D+05 0.16593621D+05 0.12428544D+01  1  2 11  6  6  5       21 0.113642198608D+00 0.100000000000D+01
0.852683116824D-08 0.000000000000D+00 0.000000000000D+00 0.208493352949D-04 0.000000000000D+00  6 -1 2 25 24 2 -2 4 0.22670261D-02 0.20518501D+00 0.16593621D+05 0.16593621D+05 0.16593621D+05 0.12428544D+01  1  2 12  7  6  5       21 0.215006895423D-04 0.100000000000D+01
0.851611348602D-08 0.000000000000D+00 0.000000000000D+00 0.208493352949D-04 0.000000000000D+00  6 -1 2 25 24 2 -2 4 0.22670261D-02 0.20518501D+00 0.16593621D+05 0.16593621D+05 0.16593621D+05 0.12428544D+01  1  2 12  7  6  5       21 0.214736645486D-04 0.100000000000D+01
-.450310739372D-04 0.000000000000D+00 0.000000000000D+00 0.208497675612D-04 0.000000000000D+00  6 -1 2 25 24 2 -2 4 0.22670261D-02 0.20518501D+00 0.16589250D+05 0.16589250D+05 0.16589250D+05 0.12428673D+01  1  2  5  7  6  5       21 -.113551337619D+00 0.100000000000D+01
0.450967753612D-04 0.000000000000D+00 0.000000000000D+00 0.208497675612D-04 0.282270025657D-05  6 -1 2 25 24 2 -2 4 0.22670261D-02 0.20518501D+00 0.16593621D+05 0.16593621D+05 0.16593621D+05 0.12428544D+01  1  2 11  7  6  5       21 0.113713025070D+00 0.100000000000D+01
0.852683116824D-08 0.000000000000D+00 0.000000000000D+00 0.208493352949D-04 0.000000000000D+00  6 -1 2 25 24 3 -3 4 0.22670261D-02 0.20518501D+00 0.16593621D+05 0.16593621D+05 0.16593621D+05 0.12428544D+01  1  2 12  8  6  5       21 0.215006895423D-04 0.100000000000D+01
0.852683116824D-08 0.000000000000D+00 0.000000000000D+00 0.208493352949D-04 0.000000000000D+00  6 -1 2 25 24 4 -4 4 0.22670261D-02 0.20518501D+00 0.16593621D+05 0.16593621D+05 0.16593621D+05 0.12428544D+01  1  2 12  8  6  5       21 0.215006895423D-04 0.100000000000D+01
0.851611348602D-08 0.000000000000D+00 0.000000000000D+00 0.208493352949D-04 0.000000000000D+00  6 -1 2 25 24 3 -3 4 0.22670261D-02 0.20518501D+00 0.16593621D+05 0.16593621D+05 0.16593621D+05 0.12428544D+01  1  2 12  8  6  5       21 0.214736645486D-04 0.100000000000D+01
0.851611348602D-08 0.000000000000D+00 0.000000000000D+00 0.208493352949D-04 0.000000000000D+00  6 -1 2 25 24 4 -4 4 0.22670261D-02 0.20518501D+00 0.16593621D+05 0.16593621D+05 0.16593621D+05 0.12428544D+01  1  2 12  8  6  5       21 0.214736645486D-04 0.100000000000D+01
-.450310739372D-04 0.000000000000D+00 0.000000000000D+00 0.208497675612D-04 0.000000000000D+00  6 -1 2 25 24 3 -3 4 0.22670261D-02 0.20518501D+00 0.16589250D+05 0.16589250D+05 0.16589250D+05 0.12428673D+01  1  2  5  8  6  5       21 -.113551337619D+00 0.100000000000D+01
-.450310739372D-04 0.000000000000D+00 0.000000000000D+00 0.208497675612D-04 0.000000000000D+00  6 -1 2 25 24 4 -4 4 0.22670261D-02 0.20518501D+00 0.16589250D+05 0.16589250D+05 0.16589250D+05 0.12428673D+01  1  2  5  8  6  5       21 -.113551337619D+00 0.100000000000D+01
0.450558743090D-04 0.000000000000D+00 0.000000000000D+00 0.208497675612D-04 0.281935077854D-05  6 -1 2 25 24 3 -3 4 0.22670261D-02 0.20518501D+00 0.16593621D+05 0.16593621D+05 0.16593621D+05 0.12428544D+01  1  2 11  8  6  5       21 0.113609891701D+00 0.100000000000D+01
0.450558743090D-04 0.000000000000D+00 0.000000000000D+00 0.208497675612D-04 0.281935077854D-05  6 -1 2 25 24 4 -4 4 0.22670261D-02 0.20518501D+00 0.16593621D+05 0.16593621D+05 0.16593621D+05 0.12428544D+01  1  2 11  8  6  5       21 0.113609891701D+00 0.100000000000D+01
  </mgrwgt>
  </event>
  <event>
  5     66 0.43135346E-03 0.35473223E+02 0.75467711E-02 0.12202462E+00
       -1 -1    0    0    0  501 0.00000000E+00 0.00000000E+00 0.62149203E+02 0.62150027E+02 0.32000000E+00 0.0000E+00 0.9000E+01
        2 -1    0    0  502    0 0.00000000E+00 0.00000000E+00 -.44692329E+03 0.44692341E+03 0.32000000E+00 0.0000E+00 0.9000E+01
       25  1    1    2    0    0 0.45807978E+02 -.81539113E+01 -.12259513E+03 0.18116132E+03 0.12500000E+03 0.0000E+00 0.9000E+01
       24  1    1    2    0    0 -.10357679E+02 0.69016085E+01 -.20871783E+02 0.84010481E+02 0.80419002E+02 0.0000E+00 0.9000E+01
       21  1    1    2  502  501 -.35450299E+02 0.12523028E+01 -.24130717E+03 0.24390163E+03 0.75000000E+00 0.0000E+00 0.9000E+01
#aMCatNLO 1  0  0  2  5 0.17117964D+02 0.00000000D+00  -5  6  0 0.00000000D+00 0.00000000D+00 0.00000000D+00 0.00000000D+00 0.00000000D+00
  <mgrwgt>
 0.3230698428D+00    9    4    0
 0.166661829217569D+03 0.000000000000000D+00 0.000000000000000D+00 0.166661829217569D+03
 0.166661829217569D+03 0.000000000000000D+00 0.000000000000000D+00 -.166661829217569D+03
 0.135163214695258D+03 0.458084364048458D+02 -.815392746694975D+01 0.218905282659692D+02
 0.104213279610719D+03 -.103573261234820D+02 0.690159602324956D+01 0.651021156396241D+02
 0.939471641291617D+02 -.354511102813638D+02 0.125233144370019D+01 -.869926439055933D+02
 0.000000000000000D+00 0.000000000000000D+00 0.000000000000000D+00 -.000000000000000D+00
 0.167752158770243D+03 0.000000000000000D+00 0.000000000000000D+00 0.167752158770243D+03
 0.251016324161701D+03 0.000000000000000D+00 0.000000000000000D+00 -.251016324161701D+03
 0.133962749371415D+03 0.408972578652772D+02 -.130091233557968D+02 0.218905282659692D+02
 0.104479694814804D+03 -.141656857550464D+02 0.313664798125746D+01 0.651021156396241D+02
 0.953204746158623D+02 -.389049842651059D+02 -.216217174150334D+01 -.869926439055933D+02
 0.850055641298630D+02 0.121734121548751D+02 0.120346471160427D+02 -.832641653914582D+02
 0.166661829217569D+03 0.000000000000000D+00 0.000000000000000D+00 0.166661829217569D+03
 0.166661829217569D+03 0.000000000000000D+00 0.000000000000000D+00 -.166661829217569D+03
 0.135163214695258D+03 0.458084364048458D+02 -.815392746694975D+01 0.218905282659692D+02
 0.104213279610719D+03 -.103573261234820D+02 0.690159602324956D+01 0.651021156396241D+02
 0.000000000000000D+00 0.000000000000000D+00 0.000000000000000D+00 -.000000000000000D+00
 0.939471641291617D+02 -.354511102813638D+02 0.125233144370019D+01 -.869926439055933D+02
 0.167752158770243D+03 0.000000000000000D+00 0.000000000000000D+00 0.167752158770243D+03
 0.251016324161701D+03 0.000000000000000D+00 0.000000000000000D+00 -.251016324161701D+03
 0.133962749371415D+03 0.408972578652772D+02 -.130091233557968D+02 0.218905282659692D+02
 0.104479694814804D+03 -.141656857550464D+02 0.313664798125746D+01 0.651021156396241D+02
 0.850055641298630D+02 0.121734121548751D+02 0.120346471160427D+02 -.832641653914582D+02
 0.953204746158623D+02 -.389049842651059D+02 -.216217174150334D+01 -.869926439055933D+02
0.402081508768D-04 0.000000000000D+00 0.000000000000D+00 0.251973518095D-04 0.000000000000D+00  6 -1 2 25 24 21 21 2 0.95614880D-02 0.68757502D-01 0.15653566D+05 0.15653566D+05 0.15653566D+05 0.12457165D+01  1  2  2  2  6  2        2 0.314568479117D-01 0.100000000000D+01
0.189487461965D-05 0.212184241610D-05 -.154409886416D-06 0.251973518095D-04 0.000000000000D+00  6 -1 2 25 24 21 21 4 0.95614880D-02 0.68757502D-01 0.15653566D+05 0.15653566D+05 0.15653566D+05 0.12457165D+01  1  2  3  2  6  2        2 0.230048827940D-02 0.100000000000D+01
0.112774082358D-05 0.000000000000D+00 0.000000000000D+00 0.251973518095D-04 0.000000000000D+00  6 -1 2 25 24 21 21 4 0.95614880D-02 0.68757502D-01 0.15653566D+05 0.15653566D+05 0.15653566D+05 0.12457165D+01  1  2 15  2  6  2        2 0.136914311899D-02 0.100000000000D+01
0.717188243410D-03 0.000000000000D+00 0.000000000000D+00 0.248985345131D-04 0.000000000000D+00  6 -1 2 25 24 21 21 4 0.95614880D-02 0.11507479D+00 0.18219927D+05 0.18219927D+05 0.18219927D+05 0.12383080D+01  1  2 12  2  6  2        2 0.475909507281D+00 0.100000000000D+01
-.445875202260D-03 0.000000000000D+00 0.000000000000D+00 0.251973518095D-04 0.000000000000D+00  6 -1 2 25 24 21 21 4 0.95614880D-02 0.68757502D-01 0.15653566D+05 0.15653566D+05 0.15653566D+05 0.12457165D+01  1  2  4  2  6  2        2 -.541318494762D+00 0.100000000000D+01
-.100830710431D-02 0.000000000000D+00 -.303695617986D-04 0.251973518095D-04 0.000000000000D+00  6 -1 2 25 24 21 21 4 0.95614880D-02 0.10382074D+00 0.15653566D+05 0.15653566D+05 0.15653566D+05 0.12457165D+01  1  2  5  2  6  2        2 -.772733753719D+00 0.100000000000D+01
0.942102213896D-03 0.000000000000D+00 0.279616908120D-04 0.251973518095D-04 0.000000000000D+00  6 -1 2 25 24 21 21 4 0.95614880D-02 0.68757502D-01 0.15653566D+05 0.15653566D+05 0.15653566D+05 0.12457165D+01  1  2  6  2  6  2        2 0.114376702215D+01 0.100000000000D+01
0.414021770005D-04 0.000000000000D+00 0.000000000000D+00 0.248985345131D-04 0.000000000000D+00  6 -1 21 25 24 -2 21 4 0.95614880D-02 0.11507479D+00 0.18219927D+05 0.18219927D+05 0.18219927D+05 0.12383080D+01  3  4 12  5  5  2        2 0.338664985030D-01 0.100000000000D+01
-.479794072509D-04 0.000000000000D+00 -.147760302910D-05 0.251973518095D-04 0.000000000000D+00  6 -1 21 25 24 -2 21 4 0.95614880D-02 0.10382074D+00 0.15653566D+05 0.15653566D+05 0.15653566D+05 0.12457165D+01  3  4  5  5  5  2        2 -.515474159831D-01 0.100000000000D+01
  </mgrwgt>
  </event>
  <event>
  5     66 0.43135346E-03 0.60920899E+02 0.75467711E-02 0.12033458E+00
       -1 -1    0    0    0  501 0.00000000E+00 0.00000000E+00 0.21047075E+02 0.21049508E+02 0.32000000E+00 0.0000E+00 0.9000E+01
        2 -1    0    0  502    0 -.00000000E+00 -.00000000E+00 -.13116340E+04 0.13116340E+04 0.32000000E+00 0.0000E+00 0.9000E+01
       25  1    1    2    0    0 -.26820512E+02 0.76211108E+02 -.42428299E+03 0.44963155E+03 0.12500000E+03 0.0000E+00 0.9000E+01
       24  1    1    2    0    0 0.41952056E+01 -.19649036E+02 -.24240806E+03 0.25618854E+03 0.80419002E+02 0.0000E+00 0.9000E+01
       21  1    1    2  502  501 0.22625306E+02 -.56562072E+02 -.62389586E+03 0.62686344E+03 0.75000000E+00 0.0000E+00 0.9000E+01
#aMCatNLO 1  0  0  5  1 0.22009899D+02 0.00000000D+00  -5  6  0 0.00000000D+00 0.00000000D+00 0.00000000D+00 0.00000000D+00 0.00000000D+00
  <mgrwgt>
 0.1555326634D+00   15    2    0
 0.166155668820782D+03 0.000000000000000D+00 0.000000000000000D+00 0.166155668820782D+03
 0.166155668820782D+03 -.000000000000000D+00 -.000000000000000D+00 -.166155668820782D+03
 0.155404735869225D+03 -.268208719482679D+02 0.762120077818375D+02 0.446990226781237D+02
 0.859723610293804D+02 0.419500650676151D+01 -.196485382159434D+02 0.228115710327110D+02
 0.909342407429587D+02 0.226258654415064D+02 -.565634695658941D+02 -.675105937108347D+02
 0.000000000000000D+00 0.000000000000000D+00 0.000000000000000D+00 -.000000000000000D+00
 0.166155668820782D+03 0.000000000000000D+00 0.000000000000000D+00 0.166155668820782D+03
 0.166155668820782D+03 -.000000000000000D+00 -.000000000000000D+00 -.166155668820782D+03
 0.151059326103999D+03 -.248311592738554D+02 0.712378310991835D+02 0.387621587685053D+02
 0.858978625903432D+02 0.531087099047431D+01 -.224381405375573D+02 0.194820774497567D+02
 0.247922779499423D+02 -.114128344918351D+02 -.219958291019773D+02 -.766653067418098D+00
 0.705618709972802D+02 0.309331227752162D+02 -.268038614596489D+02 -.574775831508438D+02
0.109876481663D-03 0.000000000000D+00 0.000000000000D+00 0.802627296974D-05 0.000000000000D+00  6 -1 2 25 24 21 21 2 0.32382017D-02 0.20179003D+00 0.21410897D+05 0.21410897D+05 0.21410897D+05 0.12305801D+01  1  2  2  3  6  5       21 0.108202412909D+00 0.100000000000D+01
-.281080582581D-05 0.579834123778D-05 -.421954620728D-06 0.802627296974D-05 0.000000000000D+00  6 -1 2 25 24 21 21 4 0.32382017D-02 0.20179003D+00 0.21410897D+05 0.21410897D+05 0.21410897D+05 0.12305801D+01  1  2  3  3  6  5       21 -.419162859877D-02 0.100000000000D+01
0.223703085378D-05 0.000000000000D+00 0.000000000000D+00 0.802627296974D-05 0.000000000000D+00  6 -1 2 25 24 21 21 4 0.32382017D-02 0.20179003D+00 0.21410897D+05 0.21410897D+05 0.21410897D+05 0.12305801D+01  1  2 15  3  6  5       21 0.333598372997D-02 0.100000000000D+01
0.126301856360D-04 0.000000000000D+00 0.000000000000D+00 0.801483286704D-05 0.000000000000D+00  6 -1 2 25 24 21 21 4 0.32382017D-02 0.20179003D+00 0.21811112D+05 0.21811112D+05 0.21811112D+05 0.12297028D+01  1  2 12  3  6  5       21 0.187870183349D-01 0.100000000000D+01
-.217709543623D-04 0.000000000000D+00 0.000000000000D+00 0.802627296974D-05 0.000000000000D+00  6 -1 2 25 24 21 21 4 0.32382017D-02 0.20179003D+00 0.21410897D+05 0.21410897D+05 0.21410897D+05 0.12305801D+01  1  2  4  3  6  5       21 -.324660473127D-01 0.100000000000D+01
-.130016658585D-04 0.000000000000D+00 0.000000000000D+00 0.802627296974D-05 0.000000000000D+00  6 -1 2 25 24 21 21 4 0.32382017D-02 0.20179003D+00 0.21410897D+05 0.21410897D+05 0.21410897D+05 0.12305801D+01  1  2  5  3  6  5       21 -.193888008711D-01 0.100000000000D+01
0.598915479551D-04 0.000000000000D+00 -.000000000000D+00 0.802627296974D-05 0.000000000000D+00  6 -1 2 25 24 21 21 4 0.32382017D-02 0.20179003D+00 0.21410897D+05 0.21410897D+05 0.21410897D+05 0.12305801D+01  1  2  6  3  6  5       21 0.893135779525D-01 0.100000000000D+01
0.167063131859D-05 0.000000000000D+00 0.000000000000D+00 0.801483286704D-05 0.000000000000D+00  6 -1 2 25 24 1 -1 4 0.32382017D-02 0.20179003D+00 0.21811112D+05 0.21811112D+05 0.21811112D+05 0.12297028D+01  1  2 12  6  6  5       21 0.248501345252D-02 0.100000000000D+01
-.301757663983D-05 0.000000000000D+00 0.000000000000D+00 0.802627296974D-05 0.000000000000D+00  6 -1 2 25 24 1 -1 4 0.32382017D-02 0.20179003D+00 0.21410897D+05 0.21410897D+05 0.21410897D+05 0.12305801D+01  1  2  5  6  6  5       21 -.449997663529D-02 0.100000000000D+01
0.167063131859D-05 0.000000000000D+00 0.000000000000D+00 0.801483286704D-05 0.000000000000D+00  6 -1 2 25 24 2 -2 4 0.32382017D-02 0.20179003D+00 0.21811112D+05 0.21811112D+05 0.21811112D+05 0.12297028D+01  1  2 12  7  6  5       21 0.248501345252D-02 0.100000000000D+01
-.301757663983D-05 0.000000000000D+00 0.000000000000D+00 0.802627296974D-05 0.000000000000D+00  6 -1 2 25 24 2 -2 4 0.32382017D-02 0.20179003D+00 0.21410897D+05 0.21410897D+05 0.21410897D+05 0.12305801D+01  1  2  5  7  6  5       21 -.449997663529D-02 0.100000000000D+01
0.167063131859D-05 0.000000000000D+00 0.000000000000D+00 0.801483286704D-05 0.000000000000D+00  6 -1 2 25 24 3 -3 4 0.32382017D-02 0.20179003D+00 0.21811112D+05 0.21811112D+05 0.21811112D+05 0.12297028D+01  1  2 12  8  6  5       21 0.248501345252D-02 0.100000000000D+01
0.167063131859D-05 0.000000000000D+00 0.000000000000D+00 0.801483286704D-05 0.000000000000D+00  6 -1 2 25 24 4 -4 4 0.32382017D-02 0.20179003D+00 0.21811112D+05 0.21811112D+05 0.21811112D+05 0.12297028D+01  1  2 12  8  6  5       21 0.248501345252D-02 0.100000000000D+01
-.301757663983D-05 0.000000000000D+00 0.000000000000D+00 0.802627296974D-05 0.000000000000D+00  6 -1 2 25 24 3 -3 4 0.32382017D-02 0.20179003D+00 0.21410897D+05 0.21410897D+05 0.21410897D+05 0.12305801D+01  1  2  5  8  6  5       21 -.449997663529D-02 0.100000000000D+01
-.301757663983D-05 0.000000000000D+00 0.000000000000D+00 0.802627296974D-05 0.000000000000D+00  6 -1 2 25 24 4 -4 4 0.32382017D-02 0.20179003D+00 0.21410897D+05 0.21410897D+05 0.21410897D+05 0.12305801D+01  1  2  5  8  6  5       21 -.449997663529D-02 0.100000000000D+01
  </mgrwgt>
  </event>
  <event>
  5     66 0.43135346E-03 0.40530214E+02 0.75467711E-02 0.12326115E+00
       -1 -1    0    0    0  501 0.00000000E+00 0.00000000E+00 0.54032819E+02 0.54033766E+02 0.32000000E+00 0.0000E+00 0.9000E+01
        2 -1    0    0  502    0 -.00000000E+00 -.00000000E+00 -.53013153E+03 0.53013163E+03 0.32000000E+00 0.0000E+00 0.9000E+01
       25  1    1    2    0    0 0.38235403E+02 0.26437697E+02 -.10073754E+03 0.16713453E+03 0.12500000E+03 0.0000E+00 0.9000E+01
       24  1    1    2    0    0 -.84743395E+01 0.10716068E+01 -.36679058E+03 0.37560020E+03 0.80419002E+02 0.0000E+00 0.9000E+01
       21  1    1    2  502  501 -.29761064E+02 -.27509304E+02 -.85705869E+01 0.41430667E+02 0.75000000E+00 0.0000E+00 0.9000E+01
#aMCatNLO 1  0  0  5  2 0.28123143D+01 0.00000000D+00  -5  6  0 0.00000000D+00 0.00000000D+00 0.00000000D+00 0.00000000D+00 0.00000000D+00
  <mgrwgt>
 0.1919156032D+00   14    2    0
 0.169247764901828D+03 0.000000000000000D+00 0.000000000000000D+00 0.169247764901828D+03
 0.169247764901828D+03 -.000000000000000D+00 -.000000000000000D+00 -.169247764901828D+03
 0.146746780505542D+03 0.382364302089071D+02 0.264386463494298D+02 0.612257378300249D+02
 0.132304433237257D+03 -.847341360164417D+01 0.107246267857598D+01 -.104710544767945D+03
 0.594443160608580D+02 -.297630166072630D+02 -.275111090280058D+02 0.434848069379197D+02
 0.000000000000000D+00 0.000000000000000D+00 0.000000000000000D+00 -.000000000000000D+00
 0.169247764901828D+03 0.000000000000000D+00 0.000000000000000D+00 0.169247764901828D+03
 0.169247764901828D+03 -.000000000000000D+00 -.000000000000000D+00 -.169247764901828D+03
 0.146917011143848D+03 0.373601989077175D+02 0.256287118196450D+02 0.625059423693691D+02
 0.131445495138175D+03 -.926038819470198D+01 0.345031581198552D+00 -.103560747397075D+03
 0.571590039354757D+02 -.262321523871211D+02 -.265354935466951D+02 0.433000403494948D+02
 0.297401958615841D+01 -.186765832589439D+01 0.561750145851537D+00 -.224523532178856D+01
0.109416899833D-03 0.000000000000D+00 0.000000000000D+00 0.912489857570D-05 0.000000000000D+00  6 -1 2 25 24 21 21 2 0.83128217D-02 0.81558777D-01 0.16226399D+05 0.16226399D+05 0.16226399D+05 0.12439503D+01  1  2  2  3  6  5       21 0.876554928638D-01 0.100000000000D+01
0.413204917378D-07 0.577408843831D-05 -.420189705490D-06 0.912489857570D-05 0.000000000000D+00  6 -1 2 25 24 21 21 4 0.83128217D-02 0.81558777D-01 0.16226399D+05 0.16226399D+05 0.16226399D+05 0.12439503D+01  1  2  3  3  6  5       21 0.512231446635D-04 0.100000000000D+01
0.480404778599D-05 0.000000000000D+00 0.000000000000D+00 0.912489857570D-05 0.000000000000D+00  6 -1 2 25 24 21 21 4 0.83128217D-02 0.81558777D-01 0.16226399D+05 0.16226399D+05 0.16226399D+05 0.12439503D+01  1  2 15  3  6  5       21 0.595536075111D-02 0.100000000000D+01
0.283377259336D-06 0.000000000000D+00 0.000000000000D+00 0.913393891649D-05 0.000000000000D+00  6 -1 2 25 24 21 21 4 0.83128217D-02 0.81558777D-01 0.16023970D+05 0.16023970D+05 0.16023970D+05 0.12445663D+01  1  2 12  3  6  5       21 0.351872004699D-03 0.100000000000D+01
-.471920874392D-03 0.000000000000D+00 0.000000000000D+00 0.912489857570D-05 0.000000000000D+00  6 -1 2 25 24 21 21 4 0.83128217D-02 0.81558777D-01 0.16226399D+05 0.16226399D+05 0.16226399D+05 0.12439503D+01  1  2  4  3  6  5       21 -.585018962797D+00 0.100000000000D+01
0.543165554847D-03 0.000000000000D+00 0.000000000000D+00 0.912489857570D-05 0.131512279481D-04  6 -1 2 25 24 21 21 4 0.83128217D-02 0.81558777D-01 0.16023970D+05 0.16023970D+05 0.16023970D+05 0.12445663D+01  1  2 11  3  6  5       21 0.674453388092D+00 0.100000000000D+01
0.126184611151D-07 0.000000000000D+00 0.000000000000D+00 0.913393891649D-05 0.000000000000D+00  6 -1 2 25 24 1 -1 4 0.83128217D-02 0.81558777D-01 0.16023970D+05 0.16023970D+05 0.16023970D+05 0.12445663D+01  1  2 12  6  6  5       21 0.156684527869D-04 0.100000000000D+01
0.165041314165D-05 0.000000000000D+00 0.000000000000D+00 0.913393891649D-05 0.240507551769D-07  6 -1 2 25 24 1 -1 4 0.83128217D-02 0.81558777D-01 0.16023970D+05 0.16023970D+05 0.16023970D+05 0.12445663D+01  1  2 11  6  6  5       21 0.204933233561D-02 0.100000000000D+01
0.126184611151D-07 0.000000000000D+00 0.000000000000D+00 0.913393891649D-05 0.000000000000D+00  6 -1 2 25 24 2 -2 4 0.83128217D-02 0.81558777D-01 0.16023970D+05 0.16023970D+05 0.16023970D+05 0.12445663D+01  1  2 12  7  6  5       21 0.156684527869D-04 0.100000000000D+01
0.170424509278D-05 0.000000000000D+00 0.000000000000D+00 0.913393891649D-05 0.219052597124D-07  6 -1 2 25 24 2 -2 4 0.83128217D-02 0.81558777D-01 0.16023970D+05 0.16023970D+05 0.16023970D+05 0.12445663D+01  1  2 11  7  6  5       21 0.211617593699D-02 0.100000000000D+01
0.126184611151D-07 0.000000000000D+00 0.000000000000D+00 0.913393891649D-05 0.000000000000D+00  6 -1 2 25 24 3 -3 4 0.83128217D-02 0.81558777D-01 0.16023970D+05 0.16023970D+05 0.16023970D+05 0.12445663D+01  1  2 12  8  6  5       21 0.156684527869D-04 0.100000000000D+01
0.126184611151D-07 0.000000000000D+00 0.000000000000D+00 0.913393891649D-05 0.000000000000D+00  6 -1 2 25 24 4 -4 4 0.83128217D-02 0.81558777D-01 0.16023970D+05 0.16023970D+05 0.16023970D+05 0.12445663D+01  1  2 12  8  6  5       21 0.156684527869D-04 0.100000000000D+01
0.170694104807D-05 0.000000000000D+00 0.000000000000D+00 0.913393891649D-05 0.219047434379D-07  6 -1 2 25 24 3 -3 4 0.83128217D-02 0.81558777D-01 0.16023970D+05 0.16023970D+05 0.16023970D+05 0.12445663D+01  1  2 11  8  6  5       21 0.211952352808D-02 0.100000000000D+01
0.170694104807D-05 0.000000000000D+00 0.000000000000D+00 0.913393891649D-05 0.219047434379D-07  6 -1 2 25 24 4 -4 4 0.83128217D-02 0.81558777D-01 0.16023970D+05 0.16023970D+05 0.16023970D+05 0.12445663D+01  1  2 11  8  6  5       21 0.211952352808D-02 0.100000000000D+01
  </mgrwgt>
  </event>
  <event>
  6     66 0.43135346E-03 0.10199027E+03 0.75467711E-02 0.11339184E+00
       -1 -1    0    0    0  501 0.00000000E+00 0.00000000E+00 0.12886354E+03 0.12886394E+03 0.32000000E+00 0.0000E+00 0.9000E+01
        2 -1    0    0  503    0 0.00000000E+00 0.00000000E+00 -.86630832E+03 0.86630838E+03 0.32000000E+00 0.0000E+00 0.9000E+01
       25  1    1    2    0    0 0.17527959E+03 0.22959165E+02 -.89801913E+01 0.21669265E+03 0.12500000E+03 0.0000E+00 0.9000E+01
       24  1    1    2    0    0 -.78536649E+02 0.25250858E+02 -.15453170E+03 0.19275081E+03 0.80419002E+02 0.0000E+00 0.9000E+01
       21  1    1    2  502  501 -.93525837E+02 -.45614565E+02 -.45605381E+03 0.46777496E+03 0.75000000E+00 0.0000E+00 0.9000E+01
       21  1    1    2  503  502 -.32171073E+01 -.25954582E+01 -.11787907E+03 0.11795390E+03 0.75000000E+00 0.0000E+00 0.9000E+01
#aMCatNLO 2  0  0  2  5 0.41335436D+01 0.00000000D+00  -5  6  0 0.00000000D+00 0.00000000D+00 0.00000000D+00 0.00000000D+00 0.00000000D+00
  <mgrwgt>
 0.6697611168D-01    2    2    0
 0.310496938706560D+03 0.000000000000000D+00 0.000000000000000D+00 0.310496938706560D+03
 0.310496938706560D+03 0.000000000000000D+00 0.000000000000000D+00 -.310496938706560D+03
 0.296137913711767D+03 0.173743161259078D+03 0.217195278463660D+02 0.203504889286206D+03
 0.118405460049393D+03 -.791491447830807D+02 0.247566787526183D+02 -.259837786394577D+02
 0.206450503651960D+03 -.945940164759975D+02 -.464762065989843D+02 -.177521110646748D+03
 0.000000000000000D+00 -.000000000000000D+00 -.000000000000000D+00 -.000000000000000D+00
 0.310591134878729D+03 0.000000000000000D+00 0.000000000000000D+00 0.310591134878729D+03
 0.359423409860829D+03 0.000000000000000D+00 0.000000000000000D+00 -.359423409860829D+03
 0.297135341383795D+03 0.175279893456058D+03 0.229593137072189D+02 0.203504889286206D+03
 0.118101515884300D+03 -.785365301377953D+02 0.252509164453463D+02 -.259837786394577D+02
 0.205770777118919D+03 -.935262560317164D+02 -.456147719884521D+02 -.177521110646748D+03
 0.490069103525433D+02 -.321710728654647D+01 -.259545816411317D+01 -.488322749820998D+02
-.948624894453D-03 0.000000000000D+00 0.000000000000D+00 0.163809387120D-05 0.000000000000D+00  6 -1 2 25 24 21 21 4 0.19819000D-01 0.13367512D+00 0.48379107D+05 0.48379107D+05 0.48379107D+05 0.11937018D+01  1  2 13  2  6  2        2 -.143909984660D+00 0.100000000000D+01
0.138537153249D-02 0.000000000000D+00 0.000000000000D+00 0.164018235758D-05 0.533357785265D-06  6 -1 2 25 24 21 21 4 0.19825013D-01 0.13327701D+00 0.48379107D+05 0.48379107D+05 0.48379107D+05 0.11937018D+01  1  2  1  2  6  2        2 0.210886096339D+00 0.100000000000D+01
  </mgrwgt>
  </event>
  <event>
  5     66 0.43135346E-03 0.35609867E+02 0.75467711E-02 0.10914328E+00
       -1 -1    0    0    0  501 0.00000000E+00 0.00000000E+00 0.14667024E+03 0.14667059E+03 0.32000000E+00 0.0000E+00 0.9000E+01
        2 -1    0    0  502    0 -.00000000E+00 -.00000000E+00 -.84444021E+03 0.84444027E+03 0.32000000E+00 0.0000E+00 0.9000E+01
       25  1    1    2    0    0 0.46767660E+02 0.21757507E+03 -.14045069E+03 0.29133747E+03 0.12500000E+03 0.0000E+00 0.9000E+01
       24  1    1    2    0    0 -.23070703E+02 -.24415451E+03 -.59460970E+03 0.64820644E+03 0.80419002E+02 0.0000E+00 0.9000E+01
       21  1    1    2  502  501 -.23696956E+02 0.26579442E+02 0.37290418E+02 0.51566949E+02 0.75000000E+00 0.0000E+00 0.9000E+01
#aMCatNLO 1  0  0  5  2 0.27094162D+02 0.00000000D+00  -5  6  0 0.00000000D+00 0.00000000D+00 0.00000000D+00 0.00000000D+00 0.00000000D+00
  <mgrwgt>
 0.1043295990D+01   15    2    0
 0.351929611690114D+03 0.000000000000000D+00 0.000000000000000D+00 0.351929611690114D+03
 0.351929611690114D+03 -.000000000000000D+00 -.000000000000000D+00 -.351929611690114D+03
 0.270998971856989D+03 0.467678734468576D+02 0.217574828887837D+03 0.910461564001055D+02
 0.323280931403170D+03 -.230704485064352D+02 -.244154796232767D+03 -.194678027873662D+03
 0.109579320120068D+03 -.236974249404224D+02 0.265799673449306D+02 0.103631871473557D+03
 0.000000000000000D+00 0.000000000000000D+00 0.000000000000000D+00 0.000000000000000D+00
 0.351929611690114D+03 0.000000000000000D+00 0.000000000000000D+00 0.351929611690114D+03
 0.351929611690114D+03 -.000000000000000D+00 -.000000000000000D+00 -.351929611690114D+03
 0.273890864486065D+03 0.454746847544859D+02 0.219025320377967D+03 0.967014360220836D+02
 0.318126779577924D+03 -.245927033618526D+02 -.242447375091045D+03 -.188021012610476D+03
 0.694006155032891D+02 -.389723137303591D+02 0.222344678034083D+02 0.529455629513658D+02
 0.424409638129494D+02 0.180903323377258D+02 0.118758690967004D+01 0.383740136370265D+02
0.536756683166D-02 0.000000000000D+00 0.000000000000D+00 0.953809460247D-05 0.000000000000D+00  6 -1 2 25 24 21 21 2 0.22564684D-01 0.12991391D+00 0.75335978D+05 0.75335978D+05 0.75335978D+05 0.11750425D+01  1  2  2  3  6  5       21 0.463113286011D+00 0.100000000000D+01
0.969427242750D-03 0.283254283679D-03 -.206128699464D-04 0.953809460247D-05 0.000000000000D+00  6 -1 2 25 24 21 21 4 0.22564684D-01 0.12991391D+00 0.75335978D+05 0.75335978D+05 0.75335978D+05 0.11750425D+01  1  2  3  3  6  5       21 0.115486748866D+00 0.100000000000D+01
0.993692758718D-04 0.000000000000D+00 0.000000000000D+00 0.953809460247D-05 0.000000000000D+00  6 -1 2 25 24 21 21 4 0.22564684D-01 0.12991391D+00 0.75335978D+05 0.75335978D+05 0.75335978D+05 0.11750425D+01  1  2 15  3  6  5       21 0.118377471785D-01 0.100000000000D+01
0.378306288428D-02 0.000000000000D+00 0.000000000000D+00 0.947460970047D-05 0.000000000000D+00  6 -1 2 25 24 21 21 4 0.22564684D-01 0.12991391D+00 0.82905964D+05 0.82905964D+05 0.82905964D+05 0.11711255D+01  1  2 12  3  6  5       21 0.444284319108D+00 0.100000000000D+01
-.421195327441D-02 0.000000000000D+00 0.000000000000D+00 0.953809460247D-05 0.000000000000D+00  6 -1 2 25 24 21 21 4 0.22564684D-01 0.12991391D+00 0.75335978D+05 0.75335978D+05 0.75335978D+05 0.11750425D+01  1  2  4  3  6  5       21 -.501765133666D+00 0.100000000000D+01
-.648631690818D-02 0.000000000000D+00 0.000000000000D+00 0.953809460247D-05 0.000000000000D+00  6 -1 2 25 24 21 21 4 0.22564684D-01 0.12991391D+00 0.75335978D+05 0.75335978D+05 0.75335978D+05 0.11750425D+01  1  2  5  3  6  5       21 -.772707449109D+00 0.100000000000D+01
0.107736737976D-01 0.000000000000D+00 -.000000000000D+00 0.953809460247D-05 0.000000000000D+00  6 -1 2 25 24 21 21 4 0.22564684D-01 0.12991391D+00 0.75335978D+05 0.75335978D+05 0.75335978D+05 0.11750425D+01  1  2  6  3  6  5       21 0.128345532843D+01 0.100000000000D+01
0.906152494456D-04 0.000000000000D+00 0.000000000000D+00 0.947460970047D-05 0.000000000000D+00  6 -1 2 25 24 1 -1 4 0.22564684D-01 0.12991391D+00 0.82905964D+05 0.82905964D+05 0.82905964D+05 0.11711255D+01  1  2 12  6  6  5       21 0.106418887637D-01 0.100000000000D+01
-.901889278297D-04 0.000000000000D+00 0.000000000000D+00 0.953809460247D-05 0.000000000000D+00  6 -1 2 25 24 1 -1 4 0.22564684D-01 0.12991391D+00 0.75335978D+05 0.75335978D+05 0.75335978D+05 0.11750425D+01  1  2  5  6  6  5       21 -.107441029089D-01 0.100000000000D+01
0.906152494456D-04 0.000000000000D+00 0.000000000000D+00 0.947460970047D-05 0.000000000000D+00  6 -1 2 25 24 2 -2 4 0.22564684D-01 0.12991391D+00 0.82905964D+05 0.82905964D+05 0.82905964D+05 0.11711255D+01  1  2 12  7  6  5       21 0.106418887637D-01 0.100000000000D+01
-.901889278297D-04 0.000000000000D+00 0.000000000000D+00 0.953809460247D-05 0.000000000000D+00  6 -1 2 25 24 2 -2 4 0.22564684D-01 0.12991391D+00 0.75335978D+05 0.75335978D+05 0.75335978D+05 0.11750425D+01  1  2  5  7  6  5       21 -.107441029089D-01 0.100000000000D+01
0.906152494456D-04 0.000000000000D+00 0.000000000000D+00 0.947460970047D-05 0.000000000000D+00  6 -1 2 25 24 3 -3 4 0.22564684D-01 0.12991391D+00 0.82905964D+05 0.82905964D+05 0.82905964D+05 0.11711255D+01  1  2 12  8  6  5       21 0.106418887637D-01 0.100000000000D+01
0.906152494456D-04 0.000000000000D+00 0.000000000000D+00 0.947460970047D-05 0.000000000000D+00  6 -1 2 25 24 4 -4 4 0.22564684D-01 0.12991391D+00 0.82905964D+05 0.82905964D+05 0.82905964D+05 0.11711255D+01  1  2 12  8  6  5       21 0.106418887637D-01 0.100000000000D+01
-.901889278297D-04 0.000000000000D+00 0.000000000000D+00 0.953809460247D-05 0.000000000000D+00  6 -1 2 25 24 3 -3 4 0.22564684D-01 0.12991391D+00 0.75335978D+05 0.75335978D+05 0.75335978D+05 0.11750425D+01  1  2  5  8  6  5       21 -.107441029089D-01 0.100000000000D+01
-.901889278297D-04 0.000000000000D+00 0.000000000000D+00 0.953809460247D-05 0.000000000000D+00  6 -1 2 25 24 4 -4 4 0.22564684D-01 0.12991391D+00 0.75335978D+05 0.75335978D+05 0.75335978D+05 0.11750425D+01  1  2  5  8  6  5       21 -.107441029089D-01 0.100000000000D+01
  </mgrwgt>
  </event>
  <event>
  5     66 0.43135346E-03 0.30201777E+02 0.75467711E-02 0.12377879E+00
       -1 -1    0    0    0  501 0.00000000E+00 0.00000000E+00 0.16945081E+02 0.16948102E+02 0.32000000E+00 0.0000E+00 0.9000E+01
        2 -1    0    0  502    0 0.00000000E+00 0.00000000E+00 -.90800047E+03 0.90800052E+03 0.32000000E+00 0.0000E+00 0.9000E+01
       25  1    1    2    0    0 0.38258416E+02 0.21319735E+02 -.50403410E+03 0.52114644E+03 0.12500000E+03 0.0000E+00 0.9000E+01
       24  1    1    2    0    0 -.23392457E+02 0.49608825E+01 -.25826256E+03 0.27154849E+03 0.80419002E+02 0.0000E+00 0.9000E+01
       21  1    1    2  502  501 -.14865959E+02 -.26280618E+02 -.12875873E+03 0.13225370E+03 0.75000000E+00 0.0000E+00 0.9000E+01
#aMCatNLO 1  0  0  1  2 0.10692047D+03 0.00000000D+00  -5  6  0 0.00000000D+00 0.00000000D+00 0.00000000D+00 0.00000000D+00 0.00000000D+00
  <mgrwgt>
 0.9470072579D-02    1    2    0
 0.124046623051945D+03 0.000000000000000D+00 0.000000000000000D+00 0.124046623051945D+03
 0.124046623051945D+03 0.000000000000000D+00 0.000000000000000D+00 -.124046623051945D+03
 0.132658633828828D+03 0.382608018013500D+02 0.213239526195801D+02 -.739683848185564D+01
 0.848153381140648D+02 -.233909322954433D+02 0.496357881018455D+01 0.124359477635470D+02
 0.306192741609984D+02 -.148698695059067D+02 -.262875314297647D+02 -.503910928169131D+01
 0.000000000000000D+00 0.000000000000000D+00 -.000000000000000D+00 0.000000000000000D+00
 0.160638808591951D+04 0.000000000000000D+00 0.000000000000000D+00 0.160638808591951D+04
 0.284952724583762D+03 0.000000000000000D+00 0.000000000000000D+00 -.284952724583762D+03
 0.262971362055302D+03 -.852612996773278D+02 0.214952866505722D+03 -.739683848185564D+01
 0.200400588979477D+03 -.112439970680545D+03 0.144553728092814D+03 0.124359477635470D+02
 0.369421371346122D+02 -.359636378978849D+02 0.677832006248510D+01 -.503910928169131D+01
 0.139102672233388D+04 0.233664908255758D+03 -.366284914661021D+03 0.132143536133575D+04
0.259866013465D-05 0.000000000000D+00 0.000000000000D+00 0.283530735791D-04 0.000000000000D+00  6 -1 2 25 24 21 21 4 0.26071723D-02 0.13969262D+00 0.15197060D+05 0.15197060D+05 0.15197060D+05 0.12471769D+01  1  2 14  1  6  1       -1 0.947007257877D-02 0.100000000000D+01
  </mgrwgt>
  </event>
  <event>
  5     66 0.43135346E-03 0.23155082E+02 0.75467711E-02 0.12384639E+00
       -1 -1    0    0    0  501 0.00000000E+00 0.00000000E+00 0.18080809E+02 0.18083640E+02 0.32000000E+00 0.0000E+00 0.9000E+01
        2 -1    0    0  502    0 -.00000000E+00 -.00000000E+00 -.84956504E+03 0.84956510E+03 0.32000000E+00 0.0000E+00 0.9000E+01
       25  1    1    2    0    0 0.33533689E+02 -.15984356E+02 -.48816854E+03 0.50528560E+03 0.12500000E+03 0.0000E+00 0.9000E+01
       24  1    1    2    0    0 -.45259738E+02 -.39693151E+01 -.26147422E+03 0.27730882E+03 0.80419002E+02 0.0000E+00 0.9000E+01
       21  1    1    2  502  501 0.11726048E+02 0.19953671E+02 -.81841474E+02 0.85054327E+02 0.75000000E+00 0.0000E+00 0.9000E+01
#aMCatNLO 1  0  0  5  1 0.14923371D+01 0.00000000D+00  -5  6  0 0.00000000D+00 0.00000000D+00 0.00000000D+00 0.00000000D+00 0.00000000D+00
  <mgrwgt>
 0.5009157865D+00   19    2    0
 0.123943849075233D+03 0.000000000000000D+00 0.000000000000000D+00 0.123943849075233D+03
 0.123943849075233D+03 -.000000000000000D+00 -.000000000000000D+00 -.123943849075233D+03
 0.131131634086150D+03 0.335304412396271D+02 -.159898831497001D+02 -.138035721912439D+02
 0.935717608310623D+02 -.452620554075525D+02 -.397325893780485D+01 0.149672316863136D+02
 0.231843032332535D+02 0.117316141679254D+02 0.199631420875050D+02 -.116365949506970D+01
 0.000000000000000D+00 0.000000000000000D+00 0.000000000000000D+00 0.000000000000000D+00
 0.123943849075233D+03 0.000000000000000D+00 0.000000000000000D+00 0.123943849075233D+03
 0.123943849075233D+03 -.000000000000000D+00 -.000000000000000D+00 -.123943849075233D+03
 0.131176330441712D+03 0.341841857961732D+02 -.148774364493181D+02 -.138684171520213D+02
 0.933095817792190D+02 -.447962950152921D+02 -.318069614496716D+01 0.149210328857800D+02
 0.217443371663460D+02 0.120948428612129D+02 0.179813593620904D+02 -.178932681689613D+01
 0.165744876318894D+01 -.148273364209400D+01 0.767732321948129D-01 0.736711083137463D+00
0.134269659097D-03 0.000000000000D+00 0.000000000000D+00 0.457328805253D-04 0.000000000000D+00  6 -1 2 25 24 21 21 2 0.27818854D-02 0.13070254D+00 0.15119794D+05 0.15119794D+05 0.15119794D+05 0.12474289D+01  1  2  2  3  6  5       21 0.312036749887D+00 0.100000000000D+01
0.235641529172D-04 0.708560457655D-05 -.515630844946D-06 0.457328805253D-04 0.000000000000D+00  6 -1 2 25 24 21 21 4 0.27818854D-02 0.13070254D+00 0.15119794D+05 0.15119794D+05 0.15119794D+05 0.12474289D+01  1  2  3  3  6  5       21 0.852140668372D-01 0.100000000000D+01
0.547596265266D-05 0.000000000000D+00 0.000000000000D+00 0.457328805253D-04 0.000000000000D+00  6 -1 2 25 24 21 21 4 0.27818854D-02 0.13070254D+00 0.15119794D+05 0.15119794D+05 0.15119794D+05 0.12474289D+01  1  2 15  3  6  5       21 0.198024961526D-01 0.100000000000D+01
0.245018819064D-08 0.000000000000D+00 0.000000000000D+00 0.457393676879D-04 0.000000000000D+00  6 -1 2 25 24 21 21 4 0.27818854D-02 0.13070254D+00 0.15092777D+05 0.15092777D+05 0.15092777D+05 0.12475174D+01  1  2 12  3  6  5       21 0.886246220563D-05 0.100000000000D+01
0.236988383443D-08 0.000000000000D+00 0.000000000000D+00 0.457393676879D-04 0.000000000000D+00  6 -1 2 25 24 21 21 4 0.27818854D-02 0.13070254D+00 0.15092777D+05 0.15092777D+05 0.15092777D+05 0.12475174D+01  1  2 12  3  6  5       21 0.857199703869D-05 0.100000000000D+01
-.350508836740D-03 0.000000000000D+00 0.000000000000D+00 0.457328805253D-04 0.000000000000D+00  6 -1 2 25 24 21 21 4 0.27818854D-02 0.13070254D+00 0.15119794D+05 0.15119794D+05 0.15119794D+05 0.12474289D+01  1  2  4  3  6  5       21 -.126753053869D+01 0.100000000000D+01
0.363448077811D-03 0.000000000000D+00 0.000000000000D+00 0.457328805253D-04 0.632384294395D-04  6 -1 2 25 24 21 21 4 0.27818854D-02 0.13070254D+00 0.15092777D+05 0.15092777D+05 0.15092777D+05 0.12475174D+01  1  2 11  3  6  5       21 0.131461120644D+01 0.100000000000D+01
0.253965737716D-09 0.000000000000D+00 0.000000000000D+00 0.457393676879D-04 0.000000000000D+00  6 -1 2 25 24 1 -1 4 0.27818854D-02 0.13070254D+00 0.15092777D+05 0.15092777D+05 0.15092777D+05 0.12475174D+01  1  2 12  6  6  5       21 0.918607705576D-06 0.100000000000D+01
0.253002069467D-09 0.000000000000D+00 0.000000000000D+00 0.457393676879D-04 0.000000000000D+00  6 -1 2 25 24 1 -1 4 0.27818854D-02 0.13070254D+00 0.15092777D+05 0.15092777D+05 0.15092777D+05 0.12475174D+01  1  2 12  6  6  5       21 0.915122065793D-06 0.100000000000D+01
0.216688936145D-05 0.000000000000D+00 0.000000000000D+00 0.457393676879D-04 0.706420278877D-06  6 -1 2 25 24 1 -1 4 0.27818854D-02 0.13070254D+00 0.15092777D+05 0.15092777D+05 0.15092777D+05 0.12475174D+01  1  2 11  6  6  5       21 0.783775513365D-02 0.100000000000D+01
0.253965737716D-09 0.000000000000D+00 0.000000000000D+00 0.457393676879D-04 0.000000000000D+00  6 -1 2 25 24 2 -2 4 0.27818854D-02 0.13070254D+00 0.15092777D+05 0.15092777D+05 0.15092777D+05 0.12475174D+01  1  2 12  7  6  5       21 0.918607705576D-06 0.100000000000D+01
0.253002069467D-09 0.000000000000D+00 0.000000000000D+00 0.457393676879D-04 0.000000000000D+00  6 -1 2 25 24 2 -2 4 0.27818854D-02 0.13070254D+00 0.15092777D+05 0.15092777D+05 0.15092777D+05 0.12475174D+01  1  2 12  7  6  5       21 0.915122065793D-06 0.100000000000D+01
0.266938503135D-05 0.000000000000D+00 0.000000000000D+00 0.457393676879D-04 0.659047148648D-06  6 -1 2 25 24 2 -2 4 0.27818854D-02 0.13070254D+00 0.15092777D+05 0.15092777D+05 0.15092777D+05 0.12475174D+01  1  2 11  7  6  5       21 0.965530894442D-02 0.100000000000D+01
0.253965737716D-09 0.000000000000D+00 0.000000000000D+00 0.457393676879D-04 0.000000000000D+00  6 -1 2 25 24 3 -3 4 0.27818854D-02 0.13070254D+00 0.15092777D+05 0.15092777D+05 0.15092777D+05 0.12475174D+01  1  2 12  8  6  5       21 0.918607705576D-06 0.100000000000D+01
0.253965737716D-09 0.000000000000D+00 0.000000000000D+00 0.457393676879D-04 0.000000000000D+00  6 -1 2 25 24 4 -4 4 0.27818854D-02 0.13070254D+00 0.15092777D+05 0.15092777D+05 0.15092777D+05 0.12475174D+01  1  2 12  8  6  5       21 0.918607705576D-06 0.100000000000D+01
0.253002069467D-09 0.000000000000D+00 0.000000000000D+00 0.457393676879D-04 0.000000000000D+00  6 -1 2 25 24 3 -3 4 0.27818854D-02 0.13070254D+00 0.15092777D+05 0.15092777D+05 0.15092777D+05 0.12475174D+01  1  2 12  8  6  5       21 0.915122065793D-06 0.100000000000D+01
0.253002069467D-09 0.000000000000D+00 0.000000000000D+00 0.457393676879D-04 0.000000000000D+00  6 -1 2 25 24 4 -4 4 0.27818854D-02 0.13070254D+00 0.15092777D+05 0.15092777D+05 0.15092777D+05 0.12475174D+01  1  2 12  8  6  5       21 0.915122065793D-06 0.100000000000D+01
0.266293704045D-05 0.000000000000D+00 0.000000000000D+00 0.457393676879D-04 0.655346205815D-06  6 -1 2 25 24 3 -3 4 0.27818854D-02 0.13070254D+00 0.15092777D+05 0.15092777D+05 0.15092777D+05 0.12475174D+01  1  2 11  8  6  5       21 0.963198621524D-02 0.100000000000D+01
0.266293704045D-05 0.000000000000D+00 0.000000000000D+00 0.457393676879D-04 0.655346205815D-06  6 -1 2 25 24 4 -4 4 0.27818854D-02 0.13070254D+00 0.15092777D+05 0.15092777D+05 0.15092777D+05 0.12475174D+01  1  2 11  8  6  5       21 0.963198621524D-02 0.100000000000D+01
  </mgrwgt>
  </event>
  <event>
  6     66 0.43135346E-03 0.57894225E+02 0.75467711E-02 0.11782798E+00
       -1 -1    0    0    0  501 0.00000000E+00 0.00000000E+00 0.88177973E+02 0.88178554E+02 0.32000000E+00 0.0000E+00 0.9000E+01
        2 -1    0    0  503    0 0.00000000E+00 0.00000000E+00 -.28612996E+04 0.28612996E+04 0.32000000E+00 0.0000E+00 0.9000E+01
       25  1    1    2    0    0 -.11482022E+03 0.50472164E+01 -.14799642E+02 0.17044995E+03 0.12500000E+03 0.0000E+00 0.9000E+01
       24  1    1    2    0    0 0.49832692E+02 -.27719629E+02 -.37918533E+03 0.39179128E+03 0.80419002E+02 0.0000E+00 0.9000E+01
       21  1    1    2  502  501 0.81662143E+01 -.26038598E+01 -.14360585E+01 0.87230675E+01 0.75000000E+00 0.0000E+00 0.9000E+01
       21  1    1    2  503  502 0.56821315E+02 0.25276273E+02 -.23777006E+04 0.23785139E+04 0.75000000E+00 0.0000E+00 0.9000E+01
#aMCatNLO 2  0  0  2  5 0.89500147D+01 0.00000000D+00  -5  6  0 0.00000000D+00 0.00000000D+00 0.00000000D+00 0.00000000D+00 0.00000000D+00
  <mgrwgt>
 0.4701388183D-01    1    2    0
 0.203577313146724D+03 0.000000000000000D+00 0.000000000000000D+00 0.203577313146724D+03
 0.203577313146724D+03 0.000000000000000D+00 0.000000000000000D+00 -.203577313146724D+03
 0.208942689733955D+03 -.849276994566281D+02 0.183510090203253D+02 0.143117343205498D+03
 0.186396694825598D+03 0.751793772990543D+02 -.164386947949950D+02 -.149513686430039D+03
 0.118152417338953D+02 0.974832215757378D+01 -.191231422533029D+01 0.639634322454137D+01
 0.000000000000000D+00 0.000000000000000D+00 0.000000000000000D+00 -.000000000000000D+00
 0.206892321064870D+03 0.000000000000000D+00 0.000000000000000D+00 0.206892321064870D+03
 0.121949498140793D+04 0.000000000000000D+00 0.000000000000000D+00 -.121949498140793D+04
 0.222078995719456D+03 -.114830363040397D+03 0.504917196899516D+01 0.143117343205498D+03
 0.179087193049624D+03 0.498234796417839D+02 -.277179581951385D+02 -.149513686430039D+03
 0.107105422551537D+02 0.818556797763821D+01 -.260748645955463D+01 0.639634322454137D+01
 0.101451057144856D+04 0.568213154209752D+02 0.252762726856980D+02 -.101260266034306D+04
0.188943986551D-02 0.000000000000D+00 0.000000000000D+00 0.846447307327D-04 0.302986316174D-06  6 -1 2 25 24 21 21 4 0.13565879D-01 0.44019969D+00 0.28759571D+05 0.28759571D+05 0.28759571D+05 0.12168279D+01  1  2  1  2  6  2        2 0.470138818330D-01 0.100000000000D+01
  </mgrwgt>
  </event>
  <event>
  5     66 0.43135346E-03 0.17050375E+03 0.75467711E-02 0.10076138E+00
       -1 -1    0    0    0  501 0.00000000E+00 0.00000000E+00 0.11371433E+04 0.11371434E+04 0.32000000E+00 0.0000E+00 0.9000E+01
        2 -1    0    0  502    0 0.00000000E+00 0.00000000E+00 -.22650364E+03 0.22650387E+03 0.32000000E+00 0.0000E+00 0.9000E+01
       25  1    1    2    0    0 0.40451018E+02 -.45313990E+03 0.55637436E+03 0.72948577E+03 0.12500000E+03 0.0000E+00 0.9000E+01
       24  1    1    2    0    0 -.13563885E+03 0.31168175E+03 0.28220576E+03 0.44905536E+03 0.80419002E+02 0.0000E+00 0.9000E+01
       21  1    1    2  502  501 0.95187831E+02 0.14145815E+03 0.72059584E+02 0.18510613E+03 0.75000000E+00 0.0000E+00 0.9000E+01
#aMCatNLO 1  0  0  2  5 0.55141119D+02 0.00000000D+00  -5  6  0 0.00000000D+00 0.00000000D+00 0.00000000D+00 0.00000000D+00 0.00000000D+00
  <mgrwgt>
 0.2425767285D+00    9    4    0
 0.507510878249190D+03 0.000000000000000D+00 0.000000000000000D+00 0.507510878249190D+03
 0.507510878249190D+03 0.000000000000000D+00 0.000000000000000D+00 -.507510878249190D+03
 0.480881549594529D+03 0.404506439284443D+02 -.453140458816089D+03 0.930028748488657D+02
 0.350105863824019D+03 -.135639121942294D+03 0.311681345051440D+03 -.237416864447366D+02
 0.184034343079832D+03 0.951884780138500D+02 0.141459113764649D+03 -.692611884041291D+02
 0.000000000000000D+00 -.000000000000000D+00 -.000000000000000D+00 -.000000000000000D+00
 0.513453826281004D+03 0.000000000000000D+00 0.000000000000000D+00 0.513453826281004D+03
 0.654590742939103D+03 0.000000000000000D+00 0.000000000000000D+00 -.654590742939103D+03
 0.467674240850936D+03 0.603541043304677D+02 -.436808931817806D+03 0.930028748488657D+02
 0.355666205231707D+03 -.120829970418684D+03 0.323832802790162D+03 -.237416864447366D+02
 0.193177979319324D+03 0.103103490074976D+03 0.147953674537351D+03 -.692611884041291D+02
 0.151526143818139D+03 -.426276239867598D+02 -.349775455097069D+02 -.141136916658099D+03
 0.507510878249190D+03 0.000000000000000D+00 0.000000000000000D+00 0.507510878249190D+03
 0.507510878249190D+03 0.000000000000000D+00 0.000000000000000D+00 -.507510878249190D+03
 0.480881549594529D+03 0.404506439284443D+02 -.453140458816089D+03 0.930028748488657D+02
 0.350105863824019D+03 -.135639121942294D+03 0.311681345051440D+03 -.237416864447366D+02
 0.000000000000000D+00 -.000000000000000D+00 -.000000000000000D+00 -.000000000000000D+00
 0.184034343079832D+03 0.951884780138500D+02 0.141459113764649D+03 -.692611884041291D+02
 0.513453826281004D+03 0.000000000000000D+00 0.000000000000000D+00 0.513453826281004D+03
 0.654590742939103D+03 0.000000000000000D+00 0.000000000000000D+00 -.654590742939103D+03
 0.467674240850936D+03 0.603541043304677D+02 -.436808931817806D+03 0.930028748488657D+02
 0.355666205231707D+03 -.120829970418684D+03 0.323832802790162D+03 -.237416864447366D+02
 0.151526143818139D+03 -.426276239867598D+02 -.349775455097069D+02 -.141136916658099D+03
 0.193177979319324D+03 0.103103490074976D+03 0.147953674537351D+03 -.692611884041291D+02
0.762509950299D-02 0.000000000000D+00 0.000000000000D+00 0.465867056189D-06 0.000000000000D+00  6 -1 2 25 24 21 21 2 0.17494515D+00 0.34846735D-01 0.24582067D+06 0.24582067D+06 0.24582067D+06 0.11293078D+01  1  2  2  2  6  2        2 0.396648839152D-01 0.100000000000D+01
0.102664605888D-03 0.402387555747D-03 -.292823898263D-04 0.465867056189D-06 0.000000000000D+00  6 -1 2 25 24 21 21 4 0.17494515D+00 0.34846735D-01 0.24582067D+06 0.24582067D+06 0.24582067D+06 0.11293078D+01  1  2  3  2  6  2        2 0.681092441210D-03 0.100000000000D+01
0.746054145737D-04 0.000000000000D+00 0.000000000000D+00 0.465867056189D-06 0.000000000000D+00  6 -1 2 25 24 21 21 4 0.17494515D+00 0.34846735D-01 0.24582067D+06 0.24582067D+06 0.24582067D+06 0.11293078D+01  1  2 15  2  6  2        2 0.494943544566D-03 0.100000000000D+01
0.817772659129D-01 0.000000000000D+00 0.000000000000D+00 0.462531504105D-06 0.000000000000D+00  6 -1 2 25 24 21 21 4 0.17494515D+00 0.46828904D-01 0.27493366D+06 0.27493366D+06 0.27493366D+06 0.11252577D+01  1  2 12  2  6  2        2 0.384417008537D+00 0.100000000000D+01
-.521089743159D-01 0.000000000000D+00 0.000000000000D+00 0.465867056189D-06 0.000000000000D+00  6 -1 2 25 24 21 21 4 0.17494515D+00 0.34846735D-01 0.24582067D+06 0.24582067D+06 0.24582067D+06 0.11293078D+01  1  2  4  2  6  2        2 -.345698775337D+00 0.100000000000D+01
-.112361817012D+00 0.000000000000D+00 -.835135505540D-02 0.465867056189D-06 0.000000000000D+00  6 -1 2 25 24 21 21 4 0.17494515D+00 0.45248063D-01 0.24582067D+06 0.24582067D+06 0.24582067D+06 0.11293078D+01  1  2  5  2  6  2        2 -.558678401333D+00 0.100000000000D+01
0.111011699805D+00 0.000000000000D+00 0.807434663837D-02 0.465867056189D-06 0.000000000000D+00  6 -1 2 25 24 21 21 4 0.17494515D+00 0.34846735D-01 0.24582067D+06 0.24582067D+06 0.24582067D+06 0.11293078D+01  1  2  6  2  6  2        2 0.736468318068D+00 0.100000000000D+01
0.312708555242D-02 0.000000000000D+00 0.000000000000D+00 0.462531504105D-06 0.000000000000D+00  6 -1 21 25 24 -2 21 4 0.17494515D+00 0.46828904D-01 0.27493366D+06 0.27493366D+06 0.27493366D+06 0.11252577D+01  3  4 12  5  5  2        2 0.452158975683D-01 0.100000000000D+01
-.377692076499D-02 0.000000000000D+00 -.291894129207D-03 0.465867056189D-06 0.000000000000D+00  6 -1 21 25 24 -2 21 4 0.17494515D+00 0.45248063D-01 0.24582067D+06 0.24582067D+06 0.24582067D+06 0.11293078D+01  3  4  5  5  5  2        2 -.599882389159D-01 0.100000000000D+01
  </mgrwgt>
  </event>
  <event>
  5     66 0.43135346E-03 0.12057571E+03 0.75467711E-02 0.11578610E+00
       -1 -1    0    0    0  501 0.00000000E+00 0.00000000E+00 0.38109197E+03 0.38109211E+03 0.32000000E+00 0.0000E+00 0.9000E+01
        2 -1    0    0  502    0 0.00000000E+00 0.00000000E+00 -.98373409E+02 0.98373930E+02 0.32000000E+00 0.0000E+00 0.9000E+01
       25  1    1    2    0    0 0.24928329E+02 0.83033906E+02 0.13744510E+03 0.20501757E+03 0.12500000E+03 0.0000E+00 0.9000E+01
       24  1    1    2    0    0 -.70891040E+02 0.28436098E+02 0.84428865E+02 0.13939010E+03 0.80419002E+02 0.0000E+00 0.9000E+01
       21  1    1    2  502  501 0.45962711E+02 -.11147000E+03 0.60844602E+02 0.13505836E+03 0.75000000E+00 0.0000E+00 0.9000E+01
#aMCatNLO 1  0  0  5  1 0.20245976D+02 0.00000000D+00  -5  6  0 0.00000000D+00 0.00000000D+00 0.00000000D+00 0.00000000D+00 0.00000000D+00
  <mgrwgt>
 0.1180548509D-01    4    2    0
 0.193621985830386D+03 0.000000000000000D+00 0.000000000000000D+00 0.193621985830386D+03
 0.193621985830386D+03 -.000000000000000D+00 -.000000000000000D+00 -.193621985830386D+03
 0.153497143638285D+03 0.249279890882160D+02 0.830347305251902D+02 0.204988290333679D+02
 0.110946422034632D+03 -.708912856449362D+02 0.284366932524005D+02 0.276996469165558D+01
 0.122800405987855D+03 0.459632965567202D+02 -.111471423777591D+03 -.232687937250234D+02
 0.000000000000000D+00 -.000000000000000D+00 0.000000000000000D+00 0.000000000000000D+00
 0.193621985830386D+03 0.000000000000000D+00 0.000000000000000D+00 0.193621985830386D+03
 0.193621985830386D+03 -.000000000000000D+00 -.000000000000000D+00 -.193621985830386D+03
 0.146817071301056D+03 0.310015906410987D+02 0.683048685858461D+02 0.174240847854741D+02
 0.105865730723949D+03 -.665064428297390D+02 0.178024544517133D+02 0.550149956270676D+00
 0.110229446030061D+03 0.513741229984613D+02 -.974648030050978D+02 -.344128368643548D+01
 0.243317236057064D+02 -.158692708098210D+02 0.113574799675384D+02 -.145329510553093D+02
0.981626372456D-04 0.000000000000D+00 0.000000000000D+00 0.194213899580D-05 0.000000000000D+00  6 -1 2 25 24 21 21 2 0.58629584D-01 0.15134421D-01 0.36789115D+05 0.36789115D+05 0.36789115D+05 0.12057082D+01  1  2  2  3  6  5       21 0.188927094792D-01 0.100000000000D+01
-.815213627364D-05 0.518018468499D-05 -.376970373839D-06 0.194213899580D-05 0.000000000000D+00  6 -1 2 25 24 21 21 4 0.58629584D-01 0.15134421D-01 0.36789115D+05 0.36789115D+05 0.36789115D+05 0.12057082D+01  1  2  3  3  6  5       21 -.228088771853D-02 0.100000000000D+01
0.402155595265D-05 0.000000000000D+00 0.000000000000D+00 0.194213899580D-05 0.000000000000D+00  6 -1 2 25 24 21 21 4 0.58629584D-01 0.15134421D-01 0.36789115D+05 0.36789115D+05 0.36789115D+05 0.12057082D+01  1  2 15  3  6  5       21 0.112519188516D-02 0.100000000000D+01
-.211999164819D-04 0.000000000000D+00 0.000000000000D+00 0.194213899580D-05 0.000000000000D+00  6 -1 2 25 24 21 21 4 0.58629584D-01 0.15134421D-01 0.36789115D+05 0.36789115D+05 0.36789115D+05 0.12057082D+01  1  2  4  3  6  5       21 -.593152856065D-02 0.100000000000D+01
  </mgrwgt>
  </event>
  <event>
  5     66 0.43135346E-03 0.20034478E+02 0.75467711E-02 0.12159794E+00
       -1 -1    0    0    0  501 0.00000000E+00 0.00000000E+00 0.13323776E+02 0.13327618E+02 0.32000000E+00 0.0000E+00 0.9000E+01
        2 -1    0    0  502    0 -.00000000E+00 -.00000000E+00 -.14714714E+04 0.14714714E+04 0.32000000E+00 0.0000E+00 0.9000E+01
       25  1    1    2    0    0 0.58191292E+02 0.48736308E+02 -.73837132E+03 0.75271419E+03 0.12500000E+03 0.0000E+00 0.9000E+01
       24  1    1    2    0    0 -.67947447E+02 -.31248380E+02 -.53031583E+03 0.54156755E+03 0.80419002E+02 0.0000E+00 0.9000E+01
       21  1    1    2  502  501 0.97561540E+01 -.17487928E+02 -.18946047E+03 0.19051730E+03 0.75000000E+00 0.0000E+00 0.9000E+01
#aMCatNLO 1  0  0  5  2 0.11112415D+02 0.00000000D+00  -5  6  0 0.00000000D+00 0.00000000D+00 0.00000000D+00 0.00000000D+00 0.00000000D+00
  <mgrwgt>
 0.1422397112D+01   14    2    0
 0.140030115565724D+03 0.000000000000000D+00 0.000000000000000D+00 0.140030115565724D+03
 0.140030115565724D+03 -.000000000000000D+00 -.000000000000000D+00 -.140030115565724D+03
 0.146308206199590D+03 0.581887238842908D+02 0.487409121007571D+02 0.441441974056197D+01
 0.110120344066922D+03 -.679493798121428D+02 -.312449148934846D+02 0.811857743024006D+01
 0.236316808649349D+02 0.976065592785197D+01 -.174959972072724D+02 -.125329971708020D+02
 0.000000000000000D+00 0.000000000000000D+00 0.000000000000000D+00 0.000000000000000D+00
 0.140030115565724D+03 0.000000000000000D+00 0.000000000000000D+00 0.140030115565724D+03
 0.140030115565724D+03 -.000000000000000D+00 -.000000000000000D+00 -.140030115565724D+03
 0.145705277992069D+03 0.618301405702800D+02 0.422136646862893D+02 -.261276786449712D+00
 0.109762929867009D+03 -.652074289570671D+02 -.361598678287675D+02 0.459782405432386D+01
 0.134648393185838D+02 0.435480741586830D+01 -.116062739786549D+02 0.525661055989290D+01
 0.111271839537850D+02 -.977519029081143D+00 0.555247712113308D+01 -.959315782776704D+01
0.413877738475D-03 0.000000000000D+00 0.000000000000D+00 0.544628493110D-04 0.000000000000D+00  6 -1 2 25 24 21 21 2 0.20501099D-02 0.22638051D+00 0.19057352D+05 0.19057352D+05 0.19057352D+05 0.12361411D+01  1  2  2  3  6  5       21 0.655684521732D+00 0.100000000000D+01
0.957926248711D-04 0.218409283049D-04 -.158939949225D-05 0.544628493110D-04 0.000000000000D+00  6 -1 2 25 24 21 21 4 0.20501099D-02 0.22638051D+00 0.19057352D+05 0.19057352D+05 0.19057352D+05 0.12361411D+01  1  2  3  3  6  5       21 0.231894801745D+00 0.100000000000D+01
0.104526075135D-04 0.000000000000D+00 0.000000000000D+00 0.544628493110D-04 0.000000000000D+00  6 -1 2 25 24 21 21 4 0.20501099D-02 0.22638051D+00 0.19057352D+05 0.19057352D+05 0.19057352D+05 0.12361411D+01  1  2 15  3  6  5       21 0.253036739553D-01 0.100000000000D+01
0.171413015019D-03 0.000000000000D+00 0.000000000000D+00 0.545459839070D-04 0.000000000000D+00  6 -1 2 25 24 21 21 4 0.20501099D-02 0.22638051D+00 0.18687692D+05 0.18687692D+05 0.18687692D+05 0.12370842D+01  1  2 12  3  6  5       21 0.416048673506D+00 0.100000000000D+01
0.141752399359D-03 0.000000000000D+00 0.000000000000D+00 0.545459839070D-04 0.000000000000D+00  6 -1 2 25 24 21 21 4 0.20501099D-02 0.22638051D+00 0.18687692D+05 0.18687692D+05 0.18687692D+05 0.12370842D+01  1  2 12  3  6  5       21 0.344057291760D+00 0.100000000000D+01
-.143248705074D-03 0.000000000000D+00 0.000000000000D+00 0.544628493110D-04 0.000000000000D+00  6 -1 2 25 24 21 21 4 0.20501099D-02 0.22638051D+00 0.19057352D+05 0.19057352D+05 0.19057352D+05 0.12361411D+01  1  2  4  3  6  5       21 -.346776488359D+00 0.100000000000D+01
0.538513653354D-05 0.000000000000D+00 0.000000000000D+00 0.545459839070D-04 0.000000000000D+00  6 -1 2 25 24 1 -1 4 0.20501099D-02 0.22638051D+00 0.18687692D+05 0.18687692D+05 0.18687692D+05 0.12370842D+01  1  2 12  6  6  5       21 0.130706464219D-01 0.100000000000D+01
0.452193669645D-05 0.000000000000D+00 0.000000000000D+00 0.545459839070D-04 0.000000000000D+00  6 -1 2 25 24 1 -1 4 0.20501099D-02 0.22638051D+00 0.18687692D+05 0.18687692D+05 0.18687692D+05 0.12370842D+01  1  2 12  6  6  5       21 0.109755129389D-01 0.100000000000D+01
0.538513653354D-05 0.000000000000D+00 0.000000000000D+00 0.545459839070D-04 0.000000000000D+00  6 -1 2 25 24 2 -2 4 0.20501099D-02 0.22638051D+00 0.18687692D+05 0.18687692D+05 0.18687692D+05 0.12370842D+01  1  2 12  7  6  5       21 0.130706464219D-01 0.100000000000D+01
0.452193669645D-05 0.000000000000D+00 0.000000000000D+00 0.545459839070D-04 0.000000000000D+00  6 -1 2 25 24 2 -2 4 0.20501099D-02 0.22638051D+00 0.18687692D+05 0.18687692D+05 0.18687692D+05 0.12370842D+01  1  2 12  7  6  5       21 0.109755129389D-01 0.100000000000D+01
0.538513653354D-05 0.000000000000D+00 0.000000000000D+00 0.545459839070D-04 0.000000000000D+00  6 -1 2 25 24 3 -3 4 0.20501099D-02 0.22638051D+00 0.18687692D+05 0.18687692D+05 0.18687692D+05 0.12370842D+01  1  2 12  8  6  5       21 0.130706464219D-01 0.100000000000D+01
0.538513653354D-05 0.000000000000D+00 0.000000000000D+00 0.545459839070D-04 0.000000000000D+00  6 -1 2 25 24 4 -4 4 0.20501099D-02 0.22638051D+00 0.18687692D+05 0.18687692D+05 0.18687692D+05 0.12370842D+01  1  2 12  8  6  5       21 0.130706464219D-01 0.100000000000D+01
0.452193669645D-05 0.000000000000D+00 0.000000000000D+00 0.545459839070D-04 0.000000000000D+00  6 -1 2 25 24 3 -3 4 0.20501099D-02 0.22638051D+00 0.18687692D+05 0.18687692D+05 0.18687692D+05 0.12370842D+01  1  2 12  8  6  5       21 0.109755129389D-01 0.100000000000D+01
0.452193669645D-05 0.000000000000D+00 0.000000000000D+00 0.545459839070D-04 0.000000000000D+00  6 -1 2 25 24 4 -4 4 0.20501099D-02 0.22638051D+00 0.18687692D+05 0.18687692D+05 0.18687692D+05 0.12370842D+01  1  2 12  8  6  5       21 0.109755129389D-01 0.100000000000D+01
  </mgrwgt>
  </event>
  <event>
  5     66 0.43135346E-03 0.40969336E+02 0.75467711E-02 0.11119950E+00
       -1 -1    0    0    0  501 0.00000000E+00 0.00000000E+00 0.25607661E+02 0.25609660E+02 0.32000000E+00 0.0000E+00 0.9000E+01
        2 -1    0    0  502    0 0.00000000E+00 0.00000000E+00 -.13080834E+04 0.13080835E+04 0.32000000E+00 0.0000E+00 0.9000E+01
       25  1    1    2    0    0 -.94151978E+02 -.65602873E+02 -.55266458E+03 0.57812755E+03 0.12500000E+03 0.0000E+00 0.9000E+01
       24  1    1    2    0    0 0.65296794E+02 0.94681836E+02 -.41473170E+03 0.43783321E+03 0.80419002E+02 0.0000E+00 0.9000E+01
       21  1    1    2  502  501 0.28855183E+02 -.29078963E+02 -.31507950E+03 0.31773237E+03 0.75000000E+00 0.0000E+00 0.9000E+01
#aMCatNLO 1  0  0  1  5 0.18535499D+03 0.00000000D+00  -5  6  0 0.00000000D+00 0.00000000D+00 0.00000000D+00 0.00000000D+00 0.00000000D+00
  <mgrwgt>
 0.1568119587D+00    4    2    0
 0.183025452150678D+03 0.000000000000000D+00 0.000000000000000D+00 0.183025452150678D+03
 0.183025452150678D+03 0.000000000000000D+00 0.000000000000000D+00 -.183025452150678D+03
 0.170101846240173D+03 -.941532830746458D+02 -.656015573869102D+02 0.118841511683855D+02
 0.142198668466915D+03 0.652957031392746D+02 0.946829357874246D+02 0.229097835348831D+02
 0.537503895942677D+02 0.288575799353712D+02 -.290813784005144D+02 -.347939347032686D+02
 0.000000000000000D+00 0.000000000000000D+00 0.000000000000000D+00 -.000000000000000D+00
 0.256255286466052D+03 0.000000000000000D+00 0.000000000000000D+00 0.256255286466052D+03
 0.261233500571071D+03 0.000000000000000D+00 0.000000000000000D+00 -.261233500571071D+03
 0.214072532200925D+03 -.118164729833631D+03 -.126877549697604D+03 0.118841511683855D+02
 0.111271108203349D+03 0.494534804688654D+02 0.542543883416928D+02 0.229097835348831D+02
 0.628417045706466D+02 0.215704077066572D+02 -.476778717286929D+02 -.347939347032686D+02
 0.129303442062202D+03 0.471408416581084D+02 0.120301033084604D+03 -.497821410501970D+01
0.214833640050D-03 0.000000000000D+00 0.000000000000D+00 0.115994299333D-04 0.000000000000D+00  6 -1 2 25 24 21 21 2 0.39397969D-02 0.20124376D+00 0.30799646D+05 0.30799646D+05 0.30799646D+05 0.12137012D+01  1  2  2  1  6  1       -1 0.155760775004D+00 0.100000000000D+01
0.185304834335D-04 0.113370826542D-04 -.825017744787D-06 0.115994299333D-04 0.000000000000D+00  6 -1 2 25 24 21 21 4 0.39397969D-02 0.20124376D+00 0.30799646D+05 0.30799646D+05 0.30799646D+05 0.12137012D+01  1  2  3  1  6  1       -1 0.197909259697D-01 0.100000000000D+01
0.281888888273D-05 0.000000000000D+00 0.000000000000D+00 0.115994299333D-04 0.000000000000D+00  6 -1 2 25 24 21 21 4 0.39397969D-02 0.20124376D+00 0.30799646D+05 0.30799646D+05 0.30799646D+05 0.12137012D+01  1  2 15  1  6  1       -1 0.301062956047D-02 0.100000000000D+01
-.203651362591D-04 0.000000000000D+00 0.000000000000D+00 0.115994299333D-04 0.000000000000D+00  6 -1 2 25 24 21 21 4 0.39397969D-02 0.20124376D+00 0.30799646D+05 0.30799646D+05 0.30799646D+05 0.12137012D+01  1  2  4  1  6  1       -1 -.217503717867D-01 0.100000000000D+01
  </mgrwgt>
  </event>
  <event>
  6     66 0.43135346E-03 0.41759510E+02 0.75467711E-02 0.12163048E+00
       -1 -1    0    0    0  503 0.00000000E+00 0.00000000E+00 0.56466647E+03 0.56466656E+03 0.32000000E+00 0.0000E+00 0.9000E+01
        2 -1    0    0  502    0 0.00000000E+00 0.00000000E+00 -.66316658E+02 0.66317430E+02 0.32000000E+00 0.0000E+00 0.9000E+01
       25  1    1    2    0    0 -.27454332E+02 0.28395077E+02 0.41620280E+02 0.13754006E+03 0.12500000E+03 0.0000E+00 0.9000E+01
       24  1    1    2    0    0 -.24415253E+02 -.46923814E+01 0.19114710E+03 0.20886012E+03 0.80419002E+02 0.0000E+00 0.9000E+01
       21  1    1    2  502  501 0.56133066E+01 -.11041745E+02 -.21455000E+01 0.12593451E+02 0.75000000E+00 0.0000E+00 0.9000E+01
       21  1    1    2  501  503 0.46256278E+02 -.12660951E+02 0.26772794E+03 0.27199035E+03 0.75000000E+00 0.0000E+00 0.9000E+01
#aMCatNLO 2  0  0  1  2 0.76876489D+02 0.00000000D+00  -5  6  0 0.00000000D+00 0.00000000D+00 0.00000000D+00 0.00000000D+00 0.00000000D+00
  <mgrwgt>
 0.4236871846D-01    1    2    0
 0.135452979272712D+03 0.000000000000000D+00 0.000000000000000D+00 0.135452979272712D+03
 0.135452979272712D+03 0.000000000000000D+00 0.000000000000000D+00 -.135452979272712D+03
 0.140815084495130D+03 -.328002133784330D+01 0.217817324985065D+02 -.609810266456483D+02
 0.110102622412295D+03 -.557691070913222D+01 -.984596099757606D+01 0.743459926739191D+02
 0.199882516379997D+02 0.885693204697552D+01 -.119357715009305D+02 -.133649660282708D+02
 0.000000000000000D+00 0.000000000000000D+00 -.000000000000000D+00 0.000000000000000D+00
 0.263475011424996D+03 0.000000000000000D+00 0.000000000000000D+00 0.263475011424996D+03
 0.142125486065358D+03 0.000000000000000D+00 0.000000000000000D+00 -.142125486065358D+03
 0.144582573556637D+03 -.274574043003021D+02 0.283993998984639D+02 -.609810266456483D+02
 0.112306627784257D+03 -.244182482768708D+02 -.468883933609513D+01 0.743459926739191D+02
 0.182289210673949D+02 0.561937492563027D+01 -.110496095763461D+02 -.133649660282708D+02
 0.130482375082065D+03 0.462562776515426D+02 -.126609509860227D+02 0.121349525359638D+03
0.188116571217D-03 0.000000000000D+00 0.000000000000D+00 0.699510790202D-04 0.246756452729D-06  6 -1 2 25 24 21 21 4 0.86871191D-01 0.10202554D-01 0.18991940D+05 0.18991940D+05 0.18991940D+05 0.12363065D+01  1  2  1  1  6  1       -1 0.423687184559D-01 0.100000000000D+01
  </mgrwgt>
  </event>
  <event>
  5     66 0.43135346E-03 0.23625661E+02 0.75467711E-02 0.11430192E+00
       -1 -1    0    0    0  501 0.00000000E+00 0.00000000E+00 0.89046868E+02 0.89047443E+02 0.32000000E+00 0.0000E+00 0.9000E+01
        2 -1    0    0  502    0 0.00000000E+00 0.00000000E+00 -.50156960E+03 0.50156970E+03 0.32000000E+00 0.0000E+00 0.9000E+01
       25  1    1    2    0    0 -.56724288E+02 -.10348674E+03 -.29434288E+03 0.34086636E+03 0.12500000E+03 0.0000E+00 0.9000E+01
       24  1    1    2    0    0 0.48414909E+02 0.12560194E+03 -.14530159E+03 0.21377469E+03 0.80419002E+02 0.0000E+00 0.9000E+01
       21  1    1    2  502  501 0.83093791E+01 -.22115209E+02 0.27121731E+02 0.35976089E+02 0.75000000E+00 0.0000E+00 0.9000E+01
#aMCatNLO 1  0  0  1  1 0.68462604D+02 0.00000000D+00  -5  6  0 0.00000000D+00 0.00000000D+00 0.00000000D+00 0.00000000D+00 0.00000000D+00
  <mgrwgt>
 0.6386610282D+00    7    4    0
 0.211337175666409D+03 0.000000000000000D+00 0.000000000000000D+00 0.211337175666409D+03
 0.211337175666409D+03 0.000000000000000D+00 0.000000000000000D+00 -.211337175666409D+03
 0.189031054888558D+03 -.567244651030986D+02 -.103486262887061D+03 -.786172256233862D+02
 0.156903024959123D+03 0.484147612422752D+02 0.125602335875260D+03 0.560423085575232D+01
 0.767402714851365D+02 0.830970386082334D+01 -.221160729881990D+02 0.730129947676339D+02
 0.000000000000000D+00 0.000000000000000D+00 -.000000000000000D+00 0.000000000000000D+00
 0.249483854079220D+03 0.000000000000000D+00 0.000000000000000D+00 0.249483854079220D+03
 0.247199899109882D+03 0.000000000000000D+00 0.000000000000000D+00 -.247199899109882D+03
 0.181002307343800D+03 -.706930693662087D+02 -.771923379788782D+02 -.786172256233862D+02
 0.173235333528586D+03 0.359521766418850D+02 0.149061391445323D+03 0.560423085575232D+01
 0.739454220678551D+02 0.262138211422280D+01 -.114086105931412D+02 0.730129947676339D+02
 0.685006902488611D+02 0.321195106101009D+02 -.604604428733041D+02 0.228395496933758D+01
 0.211337175666409D+03 0.000000000000000D+00 0.000000000000000D+00 0.211337175666409D+03
 0.211337175666409D+03 0.000000000000000D+00 0.000000000000000D+00 -.211337175666409D+03
 0.189031054888558D+03 -.567244651030986D+02 -.103486262887061D+03 -.786172256233862D+02
 0.156903024959123D+03 0.484147612422752D+02 0.125602335875260D+03 0.560423085575232D+01
 0.000000000000000D+00 0.000000000000000D+00 -.000000000000000D+00 0.000000000000000D+00
 0.767402714851365D+02 0.830970386082334D+01 -.221160729881990D+02 0.730129947676339D+02
 0.249483854079220D+03 0.000000000000000D+00 0.000000000000000D+00 0.249483854079220D+03
 0.247199899109882D+03 0.000000000000000D+00 0.000000000000000D+00 -.247199899109882D+03
 0.181002307343800D+03 -.706930693662087D+02 -.771923379788782D+02 -.786172256233862D+02
 0.173235333528586D+03 0.359521766418850D+02 0.149061391445323D+03 0.560423085575232D+01
 0.685006902488611D+02 0.321195106101009D+02 -.604604428733041D+02 0.228395496933758D+01
 0.739454220678551D+02 0.262138211422280D+01 -.114086105931412D+02 0.730129947676339D+02
0.970407848071D-03 0.000000000000D+00 0.000000000000D+00 0.337298304412D-04 0.000000000000D+00  6 -1 2 25 24 21 21 2 0.13699570D-01 0.77164606D-01 0.31035116D+05 0.31035116D+05 0.31035116D+05 0.12133552D+01  1  2  2  1  6  1       -1 0.369702552517D+00 0.100000000000D+01
0.185931234505D-03 0.512098290533D-04 -.372662165085D-05 0.337298304412D-04 0.000000000000D+00  6 -1 2 25 24 21 21 4 0.13699570D-01 0.77164606D-01 0.31035116D+05 0.31035116D+05 0.31035116D+05 0.12133552D+01  1  2  3  1  6  1       -1 0.104286104254D+00 0.100000000000D+01
0.247829395244D-04 0.000000000000D+00 0.000000000000D+00 0.337298304412D-04 0.000000000000D+00  6 -1 2 25 24 21 21 4 0.13699570D-01 0.77164606D-01 0.31035116D+05 0.31035116D+05 0.31035116D+05 0.12133552D+01  1  2 15  1  6  1       -1 0.139003875376D-01 0.100000000000D+01
-.236936329274D-03 0.000000000000D+00 0.000000000000D+00 0.337298304412D-04 0.000000000000D+00  6 -1 2 25 24 21 21 4 0.13699570D-01 0.77164606D-01 0.31035116D+05 0.31035116D+05 0.31035116D+05 0.12133552D+01  1  2  4  1  6  1       -1 -.132894114332D+00 0.100000000000D+01
-.179422545083D-02 0.000000000000D+00 -.816918022689D-03 0.337298304412D-04 0.000000000000D+00  6 -1 2 25 24 21 21 4 0.18858406D-01 0.77164606D-01 0.31035116D+05 0.31035116D+05 0.31035116D+05 0.12133552D+01  1  2  5  1  6  1       -1 -.606183254764D+00 0.100000000000D+01
0.199268705627D-02 0.000000000000D+00 0.776902547726D-03 0.337298304412D-04 0.000000000000D+00  6 -1 2 25 24 21 21 4 0.13699570D-01 0.77164606D-01 0.31035116D+05 0.31035116D+05 0.31035116D+05 0.12133552D+01  1  2  6  1  6  1       -1 0.111766896320D+01 0.100000000000D+01
-.524122964738D-04 0.000000000000D+00 -.330527932747D-04 0.337298304412D-04 0.000000000000D+00  6 21 2 25 24 1 21 4 0.18858406D-01 0.77164606D-01 0.31035116D+05 0.31035116D+05 0.31035116D+05 0.12133552D+01  3  4  5  4  5  1       -1 -.227819610214D+00 0.100000000000D+01
  </mgrwgt>
  </event>
  <event>
  5     66 0.43135346E-03 0.21161771E+02 0.75467711E-02 0.10885971E+00
       -1 -1    0    0    0  501 0.00000000E+00 0.00000000E+00 0.85180428E+03 0.85180434E+03 0.32000000E+00 0.0000E+00 0.9000E+01
        2 -1    0    0  502    0 0.00000000E+00 0.00000000E+00 -.10238535E+03 0.10238585E+03 0.32000000E+00 0.0000E+00 0.9000E+01
       25  1    1    2    0    0 0.17000084E+03 0.14723100E+03 0.16264380E+03 0.30439326E+03 0.12500000E+03 0.0000E+00 0.9000E+01
       24  1    1    2    0    0 -.18049887E+03 -.16559428E+03 0.53573474E+03 0.59454203E+03 0.80419002E+02 0.0000E+00 0.9000E+01
       21  1    1    2  502  501 0.10498030E+02 0.18363273E+02 0.51040397E+02 0.55254892E+02 0.75000000E+00 0.0000E+00 0.9000E+01
#aMCatNLO 1  0  0  2  1 0.55104370D+02 0.00000000D+00  -5  6  0 0.00000000D+00 0.00000000D+00 0.00000000D+00 0.00000000D+00 0.00000000D+00
  <mgrwgt>
 0.1012951896D+01    4    2    0
 0.295317698258543D+03 0.000000000000000D+00 0.000000000000000D+00 0.295317698258543D+03
 0.295317698258543D+03 0.000000000000000D+00 0.000000000000000D+00 -.295317698258543D+03
 0.285386434523939D+03 0.169998457965120D+03 0.147226843392602D+03 -.123471445623748D+03
 0.280745259045923D+03 -.180501204443886D+03 -.165598367162580D+03 0.111117867644163D+03
 0.245037029472235D+02 0.105027464787652D+02 0.183715237699777D+02 0.123535779795855D+02
 0.000000000000000D+00 -.000000000000000D+00 0.000000000000000D+00 0.000000000000000D+00
 0.335514344377949D+03 0.000000000000000D+00 0.000000000000000D+00 0.335514344377949D+03
 0.311103020756481D+03 0.000000000000000D+00 0.000000000000000D+00 -.311103020756481D+03
 0.295535758882272D+03 0.192367237730822D+03 0.139520725132562D+03 -.123471445623748D+03
 0.272155131096368D+03 -.159211422094642D+03 -.172932767260941D+03 0.111117867644163D+03
 0.249070799444295D+02 0.124053402049123D+02 0.177160739685996D+02 0.123535779795855D+02
 0.540193952113602D+02 -.455611558410920D+02 0.156959681597793D+02 0.244113236214681D+02
0.206613065916D-01 0.000000000000D+00 0.000000000000D+00 0.278668364725D-04 0.000000000000D+00  6 -1 2 25 24 21 21 2 0.13104686D+00 0.15751635D-01 0.71897710D+05 0.71897710D+05 0.71897710D+05 0.11769682D+01  1  2  2  2  6  2        2 0.641479981842D+00 0.100000000000D+01
0.938676773643D-02 0.109032710388D-02 -.793448575587D-04 0.278668364725D-04 0.000000000000D+00  6 -1 2 25 24 21 21 4 0.13104686D+00 0.15751635D-01 0.71897710D+05 0.71897710D+05 0.71897710D+05 0.11769682D+01  1  2  3  2  6  2        2 0.403711284675D+00 0.100000000000D+01
-.184946204059D-04 0.000000000000D+00 0.000000000000D+00 0.278668364725D-04 0.000000000000D+00  6 -1 2 25 24 21 21 4 0.13104686D+00 0.15751635D-01 0.71897710D+05 0.71897710D+05 0.71897710D+05 0.11769682D+01  1  2 15  2  6  2        2 -.795426836297D-03 0.100000000000D+01
-.731109113368D-03 0.000000000000D+00 0.000000000000D+00 0.278668364725D-04 0.000000000000D+00  6 -1 2 25 24 21 21 4 0.13104686D+00 0.15751635D-01 0.71897710D+05 0.71897710D+05 0.71897710D+05 0.11769682D+01  1  2  4  2  6  2        2 -.314439440373D-01 0.100000000000D+01
  </mgrwgt>
  </event>
  <event>
  5     66 -.43135346E-03 0.40193230E+02 0.75467711E-02 0.12237432E+00
       -1 -1    0    0    0  501 0.00000000E+00 0.00000000E+00 0.22798068E+02 0.22800314E+02 0.32000000E+00 0.0000E+00 0.9000E+01
        2 -1    0    0  502    0 0.00000000E+00 0.00000000E+00 -.83045891E+03 0.83045897E+03 0.32000000E+00 0.0000E+00 0.9000E+01
       25  1    1    2    0    0 -.55459640E+01 0.70664411E+01 -.40442686E+03 0.42339908E+03 0.12500000E+03 0.0000E+00 0.9000E+01
       24  1    1    2    0    0 0.25570256E+02 -.41911775E+02 -.18136395E+03 0.20437840E+03 0.80419002E+02 0.0000E+00 0.9000E+01
       21  1    1    2  502  501 -.20024292E+02 0.34845333E+02 -.22187004E+03 0.22548181E+03 0.75000000E+00 0.0000E+00 0.9000E+01
#aMCatNLO 1  0  0  1  5 0.53507032D+01 0.00000000D+00  -5  6  0 0.00000000D+00 0.00000000D+00 0.00000000D+00 0.00000000D+00 0.00000000D+00
  <mgrwgt>
 -.4900837767D-01   11    4    0
 0.137600301623445D+03 0.000000000000000D+00 0.000000000000000D+00 0.137600301623445D+03
 0.137600301623445D+03 0.000000000000000D+00 0.000000000000000D+00 -.137600301623445D+03
 0.125833207333547D+03 -.554484425100915D+01 0.706449256838701D+01 -.113288885081747D+02
 0.101408113858390D+03 0.255711583796991D+02 -.419133447873629D+02 0.374936926669215D+02
 0.479592820549533D+02 -.200263141286900D+02 0.348488522189759D+02 -.261648041587468D+02
 0.000000000000000D+00 -.000000000000000D+00 0.000000000000000D+00 0.000000000000000D+00
 0.206950891550400D+03 0.000000000000000D+00 0.000000000000000D+00 0.206950891550400D+03
 0.137729553779079D+03 0.000000000000000D+00 0.000000000000000D+00 -.137729553779079D+03
 0.125688069782670D+03 -.359748677349129D+01 0.558616682324750D+01 -.113288885081747D+02
 0.102316018077649D+03 0.271484552041470D+02 -.431107410180130D+02 0.374936926669215D+02
 0.472485271172275D+02 -.192891850824508D+02 0.342892647476841D+02 -.261648041587468D+02
 0.694278303519328D+02 -.426178334820492D+01 0.323530944708142D+01 0.692213377713213D+02
 0.137600301623445D+03 0.000000000000000D+00 0.000000000000000D+00 0.137600301623445D+03
 0.137600301623445D+03 0.000000000000000D+00 0.000000000000000D+00 -.137600301623445D+03
 0.125833207333547D+03 -.554484425100915D+01 0.706449256838701D+01 -.113288885081747D+02
 0.101408113858390D+03 0.255711583796991D+02 -.419133447873629D+02 0.374936926669215D+02
 0.000000000000000D+00 -.000000000000000D+00 0.000000000000000D+00 0.000000000000000D+00
 0.479592820549533D+02 -.200263141286900D+02 0.348488522189759D+02 -.261648041587468D+02
 0.206950891550400D+03 0.000000000000000D+00 0.000000000000000D+00 0.206950891550400D+03
 0.137729553779079D+03 0.000000000000000D+00 0.000000000000000D+00 -.137729553779079D+03
 0.125688069782670D+03 -.359748677349129D+01 0.558616682324750D+01 -.113288885081747D+02
 0.102316018077649D+03 0.271484552041470D+02 -.431107410180130D+02 0.374936926669215D+02
 0.694278303519328D+02 -.426178334820492D+01 0.323530944708142D+01 0.692213377713213D+02
 0.472485271172275D+02 -.192891850824508D+02 0.342892647476841D+02 -.261648041587468D+02
0.361835340903D-05 0.000000000000D+00 0.000000000000D+00 0.152837785898D-04 0.000000000000D+00  6 -1 2 25 24 21 21 2 0.35075725D-02 0.12776309D+00 0.16865912D+05 0.16865912D+05 0.16865912D+05 0.12420592D+01  1  2  2  1  6  1       -1 0.614604096294D-02 0.100000000000D+01
0.101889896923D-06 0.190945755333D-06 -.138954298250D-07 0.152837785898D-04 0.000000000000D+00  6 -1 2 25 24 21 21 4 0.35075725D-02 0.12776309D+00 0.16865912D+05 0.16865912D+05 0.16865912D+05 0.12420592D+01  1  2  3  1  6  1       -1 0.266993194958D-03 0.100000000000D+01
0.413450671506D-07 0.000000000000D+00 0.000000000000D+00 0.152837785898D-04 0.000000000000D+00  6 -1 2 25 24 21 21 4 0.35075725D-02 0.12776309D+00 0.16865912D+05 0.16865912D+05 0.16865912D+05 0.12420592D+01  1  2 15  1  6  1       -1 0.108340982842D-03 0.100000000000D+01
0.313467054620D-03 0.000000000000D+00 0.000000000000D+00 0.152351347764D-04 0.000000000000D+00  6 -1 2 25 24 21 21 4 0.52817310D-02 0.12776309D+00 0.17565298D+05 0.17565298D+05 0.17565298D+05 0.12400811D+01  1  2 12  1  6  1       -1 0.447555106974D+00 0.100000000000D+01
-.565074639446D-03 0.000000000000D+00 0.000000000000D+00 0.152837785898D-04 0.000000000000D+00  6 -1 2 25 24 21 21 4 0.35075725D-02 0.12776309D+00 0.16865912D+05 0.16865912D+05 0.16865912D+05 0.12420592D+01  1  2  4  1  6  1       -1 -.148072662680D+01 0.100000000000D+01
-.582071098352D-03 0.000000000000D+00 -.258905430596D-05 0.152837785898D-04 0.000000000000D+00  6 -1 2 25 24 21 21 4 0.52778188D-02 0.12776309D+00 0.16865912D+05 0.16865912D+05 0.16865912D+05 0.12420592D+01  1  2  5  1  6  1       -1 -.836489303992D+00 0.100000000000D+01
0.537810640539D-03 0.000000000000D+00 0.238701692331D-05 0.152837785898D-04 0.000000000000D+00  6 -1 2 25 24 21 21 4 0.35075725D-02 0.12776309D+00 0.16865912D+05 0.16865912D+05 0.16865912D+05 0.12420592D+01  1  2  6  1  6  1       -1 0.140928380081D+01 0.100000000000D+01
0.279410136591D-03 0.000000000000D+00 0.000000000000D+00 0.152837785898D-04 0.249378583804D-05  6 -1 2 25 24 21 21 4 0.52753901D-02 0.12788310D+00 0.17565298D+05 0.17565298D+05 0.17565298D+05 0.12400811D+01  1  2 11  1  6  1       -1 0.399167626368D+00 0.100000000000D+01
0.151762416356D-04 0.000000000000D+00 0.000000000000D+00 0.152351347764D-04 0.000000000000D+00  6 21 2 25 24 1 21 4 0.52817310D-02 0.12776309D+00 0.17565298D+05 0.17565298D+05 0.17565298D+05 0.12400811D+01  3  4 12  4  5  1       -1 0.375120930631D+00 0.100000000000D+01
-.280519120564D-04 0.000000000000D+00 -.125179484383D-06 0.152837785898D-04 0.000000000000D+00  6 21 2 25 24 1 21 4 0.52778188D-02 0.12776309D+00 0.16865912D+05 0.16865912D+05 0.16865912D+05 0.12420592D+01  3  4  5  4  5  1       -1 -.698428086894D+00 0.100000000000D+01
0.132986162806D-04 0.000000000000D+00 0.000000000000D+00 0.152837785898D-04 0.237360036695D-06  6 21 2 25 24 1 21 4 0.52753901D-02 0.12788310D+00 0.17565298D+05 0.17565298D+05 0.17565298D+05 0.12400811D+01  3  4 11  4  5  1       -1 0.328986800091D+00 0.100000000000D+01
  </mgrwgt>
  </event>
  <event>
  5     66 0.43135346E-03 0.41063362E+02 0.75467711E-02 0.12314848E+00
       -1 -1    0    0    0  501 0.00000000E+00 0.00000000E+00 0.61602202E+03 0.61602210E+03 0.32000000E+00 0.0000E+00 0.9000E+01
        2 -1    0    0  502    0 0.00000000E+00 0.00000000E+00 -.88777258E+02 0.88777835E+02 0.32000000E+00 0.0000E+00 0.9000E+01
       25  1    1    2    0    0 -.90822356E+01 -.13913431E+02 0.29076456E+03 0.31693075E+03 0.12500000E+03 0.0000E+00 0.9000E+01
       24  1    1    2    0    0 -.29596534E+02 -.43055055E+01 0.29959141E+03 0.31163556E+03 0.80419002E+02 0.0000E+00 0.9000E+01
       21  1    1    2  502  501 0.38678770E+02 0.18218937E+02 -.63111217E+02 0.76233622E+02 0.75000000E+00 0.0000E+00 0.9000E+01
#aMCatNLO 1  0  0  5  1 0.17859041D+01 0.00000000D+00  -5  6  0 0.00000000D+00 0.00000000D+00 0.00000000D+00 0.00000000D+00 0.00000000D+00
  <mgrwgt>
 0.1400530714D+00   25    2    0
 0.233856746564227D+03 0.000000000000000D+00 0.000000000000000D+00 0.233856746564227D+03
 0.233856746564227D+03 -.000000000000000D+00 -.000000000000000D+00 -.233856746564227D+03
 0.149811383272637D+03 -.908233630288285D+01 -.139134784114209D+02 0.808849605540940D+02
 0.131881758254272D+03 -.295966225540494D+02 -.430554728426015D+01 0.100155301416569D+03
 0.186020351601545D+03 0.386789588569322D+02 0.182190256956811D+02 -.181040261970663D+03
 0.000000000000000D+00 0.000000000000000D+00 0.000000000000000D+00 0.000000000000000D+00
 0.233856746564227D+03 0.000000000000000D+00 0.000000000000000D+00 0.233856746564227D+03
 0.233856746564227D+03 -.000000000000000D+00 -.000000000000000D+00 -.233856746564227D+03
 0.149775878735986D+03 -.906884031102503D+01 -.139071213679608D+02 0.808217913795945D+02
 0.131836685044244D+03 -.295847424028719D+02 -.429995135339831D+01 0.100099695326204D+03
 0.177768976843860D+03 0.352619738405101D+02 0.170348338898028D+02 -.173401893770890D+03
 0.833195250436337D+01 0.339160887338677D+01 0.117223883155626D+01 -.751959293490830D+01
0.939485605221D-04 0.000000000000D+00 0.000000000000D+00 0.342564690887D-04 0.000000000000D+00  6 -1 2 25 24 21 21 2 0.94772668D-01 0.13658090D-01 0.16212285D+05 0.16212285D+05 0.16212285D+05 0.12439929D+01  1  2  2  3  6  5       21 0.819063428647D-02 0.100000000000D+01
0.706801520531D-05 0.495780174666D-05 -.360787209629D-06 0.342564690887D-04 0.000000000000D+00  6 -1 2 25 24 21 21 4 0.94772668D-01 0.13658090D-01 0.16212285D+05 0.16212285D+05 0.16212285D+05 0.12439929D+01  1  2  3  3  6  5       21 0.953587829783D-03 0.100000000000D+01
0.298423696326D-05 0.000000000000D+00 0.000000000000D+00 0.342564690887D-04 0.000000000000D+00  6 -1 2 25 24 21 21 4 0.94772668D-01 0.13658090D-01 0.16212285D+05 0.16212285D+05 0.16212285D+05 0.12439929D+01  1  2 15  3  6  5       21 0.402621098950D-03 0.100000000000D+01
0.199089975541D-05 0.000000000000D+00 0.000000000000D+00 0.342567135249D-04 0.000000000000D+00  6 -1 2 25 24 21 21 4 0.94772668D-01 0.13658090D-01 0.16210818D+05 0.16210818D+05 0.16210818D+05 0.12439974D+01  1  2 12  3  6  5       21 0.268607821238D-03 0.100000000000D+01
0.142854801339D-05 0.000000000000D+00 0.000000000000D+00 0.342567135249D-04 0.000000000000D+00  6 -1 2 25 24 21 21 4 0.94772668D-01 0.13658090D-01 0.16210818D+05 0.16210818D+05 0.16210818D+05 0.12439974D+01  1  2 12  3  6  5       21 0.192736559623D-03 0.100000000000D+01
-.170938321130D-01 0.000000000000D+00 0.000000000000D+00 0.342564690887D-04 0.000000000000D+00  6 -1 2 25 24 21 21 4 0.94772668D-01 0.13658090D-01 0.16212285D+05 0.16212285D+05 0.16212285D+05 0.12439929D+01  1  2  4  3  6  5       21 -.230623022077D+01 0.100000000000D+01
-.280514711781D-01 0.000000000000D+00 0.000000000000D+00 0.342564690887D-04 0.000000000000D+00  6 -1 2 25 24 21 21 4 0.94772668D-01 0.13658090D-01 0.16212285D+05 0.16212285D+05 0.16212285D+05 0.12439929D+01  1  2  5  3  6  5       21 -.378459026275D+01 0.100000000000D+01
0.292622756809D-01 0.000000000000D+00 -.000000000000D+00 0.342564690887D-04 0.000000000000D+00  6 -1 2 25 24 21 21 4 0.94772668D-01 0.13658090D-01 0.16212285D+05 0.16212285D+05 0.16212285D+05 0.12439929D+01  1  2  6  3  6  5       21 0.394794707574D+01 0.100000000000D+01
0.168693818223D-01 0.000000000000D+00 0.000000000000D+00 0.342564690887D-04 0.596196435913D-04  6 -1 2 25 24 21 21 4 0.94772668D-01 0.13658090D-01 0.16210818D+05 0.16210818D+05 0.16210818D+05 0.12439974D+01  1  2 11  3  6  5       21 0.227597993551D+01 0.100000000000D+01
0.290567420299D-07 0.000000000000D+00 0.000000000000D+00 0.342567135249D-04 0.000000000000D+00  6 -1 2 25 24 1 -1 4 0.94772668D-01 0.13658090D-01 0.16210818D+05 0.16210818D+05 0.16210818D+05 0.12439974D+01  1  2 12  6  6  5       21 0.392027180058D-05 0.100000000000D+01
0.269782505386D-07 0.000000000000D+00 0.000000000000D+00 0.342567135249D-04 0.000000000000D+00  6 -1 2 25 24 1 -1 4 0.94772668D-01 0.13658090D-01 0.16210818D+05 0.16210818D+05 0.16210818D+05 0.12439974D+01  1  2 12  6  6  5       21 0.363984629476D-05 0.100000000000D+01
-.965269044343D-04 0.000000000000D+00 0.000000000000D+00 0.342564690887D-04 0.000000000000D+00  6 -1 2 25 24 1 -1 4 0.94772668D-01 0.13658090D-01 0.16212285D+05 0.16212285D+05 0.16212285D+05 0.12439929D+01  1  2  5  6  6  5       21 -.130230168784D-01 0.100000000000D+01
0.908870731176D-04 0.000000000000D+00 0.000000000000D+00 0.342564690887D-04 0.585704549258D-06  6 -1 2 25 24 1 -1 4 0.94772668D-01 0.13658090D-01 0.16210818D+05 0.16210818D+05 0.16210818D+05 0.12439974D+01  1  2 11  6  6  5       21 0.122622842373D-01 0.100000000000D+01
0.290567420299D-07 0.000000000000D+00 0.000000000000D+00 0.342567135249D-04 0.000000000000D+00  6 -1 2 25 24 2 -2 4 0.94772668D-01 0.13658090D-01 0.16210818D+05 0.16210818D+05 0.16210818D+05 0.12439974D+01  1  2 12  7  6  5       21 0.392027180058D-05 0.100000000000D+01
0.269782505386D-07 0.000000000000D+00 0.000000000000D+00 0.342567135249D-04 0.000000000000D+00  6 -1 2 25 24 2 -2 4 0.94772668D-01 0.13658090D-01 0.16210818D+05 0.16210818D+05 0.16210818D+05 0.12439974D+01  1  2 12  7  6  5       21 0.363984629476D-05 0.100000000000D+01
-.965269044343D-04 0.000000000000D+00 0.000000000000D+00 0.342564690887D-04 0.000000000000D+00  6 -1 2 25 24 2 -2 4 0.94772668D-01 0.13658090D-01 0.16212285D+05 0.16212285D+05 0.16212285D+05 0.12439929D+01  1  2  5  7  6  5       21 -.130230168784D-01 0.100000000000D+01
0.890995851797D-04 0.000000000000D+00 0.000000000000D+00 0.342564690887D-04 0.577663624970D-06  6 -1 2 25 24 2 -2 4 0.94772668D-01 0.13658090D-01 0.16210818D+05 0.16210818D+05 0.16210818D+05 0.12439974D+01  1  2 11  7  6  5       21 0.120211202916D-01 0.100000000000D+01
0.290567420299D-07 0.000000000000D+00 0.000000000000D+00 0.342567135249D-04 0.000000000000D+00  6 -1 2 25 24 3 -3 4 0.94772668D-01 0.13658090D-01 0.16210818D+05 0.16210818D+05 0.16210818D+05 0.12439974D+01  1  2 12  8  6  5       21 0.392027180058D-05 0.100000000000D+01
0.290567420299D-07 0.000000000000D+00 0.000000000000D+00 0.342567135249D-04 0.000000000000D+00  6 -1 2 25 24 4 -4 4 0.94772668D-01 0.13658090D-01 0.16210818D+05 0.16210818D+05 0.16210818D+05 0.12439974D+01  1  2 12  8  6  5       21 0.392027180058D-05 0.100000000000D+01
0.269782505386D-07 0.000000000000D+00 0.000000000000D+00 0.342567135249D-04 0.000000000000D+00  6 -1 2 25 24 3 -3 4 0.94772668D-01 0.13658090D-01 0.16210818D+05 0.16210818D+05 0.16210818D+05 0.12439974D+01  1  2 12  8  6  5       21 0.363984629476D-05 0.100000000000D+01
0.269782505386D-07 0.000000000000D+00 0.000000000000D+00 0.342567135249D-04 0.000000000000D+00  6 -1 2 25 24 4 -4 4 0.94772668D-01 0.13658090D-01 0.16210818D+05 0.16210818D+05 0.16210818D+05 0.12439974D+01  1  2 12  8  6  5       21 0.363984629476D-05 0.100000000000D+01
-.965269044343D-04 0.000000000000D+00 0.000000000000D+00 0.342564690887D-04 0.000000000000D+00  6 -1 2 25 24 3 -3 4 0.94772668D-01 0.13658090D-01 0.16212285D+05 0.16212285D+05 0.16212285D+05 0.12439929D+01  1  2  5  8  6  5       21 -.130230168784D-01 0.100000000000D+01
-.965269044343D-04 0.000000000000D+00 0.000000000000D+00 0.342564690887D-04 0.000000000000D+00  6 -1 2 25 24 4 -4 4 0.94772668D-01 0.13658090D-01 0.16212285D+05 0.16212285D+05 0.16212285D+05 0.12439929D+01  1  2  5  8  6  5       21 -.130230168784D-01 0.100000000000D+01
0.915993961190D-04 0.000000000000D+00 0.000000000000D+00 0.342564690887D-04 0.589690496680D-06  6 -1 2 25 24 3 -3 4 0.94772668D-01 0.13658090D-01 0.16210818D+05 0.16210818D+05 0.16210818D+05 0.12439974D+01  1  2 11  8  6  5       21 0.123583892918D-01 0.100000000000D+01
0.915993961190D-04 0.000000000000D+00 0.000000000000D+00 0.342564690887D-04 0.589690496680D-06  6 -1 2 25 24 4 -4 4 0.94772668D-01 0.13658090D-01 0.16210818D+05 0.16210818D+05 0.16210818D+05 0.12439974D+01  1  2 11  8  6  5       21 0.123583892918D-01 0.100000000000D+01
  </mgrwgt>
  </event>
  <event>
  5     66 0.43135346E-03 0.49214498E+02 0.75467711E-02 0.11971167E+00
       -1 -1    0    0    0  501 0.00000000E+00 0.00000000E+00 0.98988602E+02 0.98989119E+02 0.32000000E+00 0.0000E+00 0.9000E+01
        2 -1    0    0  502    0 -.00000000E+00 -.00000000E+00 -.33846794E+03 0.33846809E+03 0.32000000E+00 0.0000E+00 0.9000E+01
       25  1    1    2    0    0 -.96081169E+02 -.43856807E+02 -.38143607E+02 0.16803257E+03 0.12500000E+03 0.0000E+00 0.9000E+01
       24  1    1    2    0    0 0.73512204E+02 0.12705034E+00 -.18983882E+03 0.21888365E+03 0.80419002E+02 0.0000E+00 0.9000E+01
       21  1    1    2  502  501 0.22568965E+02 0.43729757E+02 -.11496914E+02 0.50540987E+02 0.75000000E+00 0.0000E+00 0.9000E+01
#aMCatNLO 1  0  0  5  2 0.20971629D+02 0.00000000D+00  -5  6  0 0.00000000D+00 0.00000000D+00 0.00000000D+00 0.00000000D+00 0.00000000D+00
  <mgrwgt>
 0.1164403376D+00   14    2    0
 0.183042657493742D+03 0.000000000000000D+00 0.000000000000000D+00 0.183042657493742D+03
 0.183042657493742D+03 -.000000000000000D+00 -.000000000000000D+00 -.183042657493742D+03
 0.175840816868851D+03 -.960822601269505D+02 -.438589208406679D+02 0.643396240950616D+02
 0.137371673754902D+03 0.735113521417711D+02 0.125399235234712D+00 -.836649638568799D+02
 0.528728243637319D+02 0.225709079851794D+02 0.437335216054332D+02 0.193253397618183D+02
 0.000000000000000D+00 0.000000000000000D+00 0.000000000000000D+00 -.000000000000000D+00
 0.183042657493742D+03 0.000000000000000D+00 0.000000000000000D+00 0.183042657493742D+03
 0.183042657493742D+03 -.000000000000000D+00 -.000000000000000D+00 -.183042657493742D+03
 0.173179137263763D+03 -.920390827335782D+02 -.360248369835297D+02 0.678014155699782D+02
 0.137623294862931D+03 0.766969964788404D+02 0.629792209226492D+01 -.809373970609583D+02
 0.286297021505173D+02 0.795938868861278D+00 0.115888850023230D+02 0.261672327720625D+02
 0.266531807102736D+02 0.145461473858765D+02 0.181380298889418D+02 -.130312512810825D+02
0.185251396000D-03 0.000000000000D+00 0.000000000000D+00 0.637255110370D-05 0.000000000000D+00  6 -1 2 25 24 21 21 2 0.15229067D-01 0.52072042D-01 0.25891466D+05 0.25891466D+05 0.25891466D+05 0.12216696D+01  1  2  2  3  6  5       21 0.924685480153D-01 0.100000000000D+01
0.612151014650D-05 0.977598474691D-05 -.711414138451D-06 0.637255110370D-05 0.000000000000D+00  6 -1 2 25 24 21 21 4 0.15229067D-01 0.52072042D-01 0.25891466D+05 0.25891466D+05 0.25891466D+05 0.12216696D+01  1  2  3  3  6  5       21 0.456035495241D-02 0.100000000000D+01
0.758144215415D-05 0.000000000000D+00 0.000000000000D+00 0.637255110370D-05 0.000000000000D+00  6 -1 2 25 24 21 21 4 0.15229067D-01 0.52072042D-01 0.25891466D+05 0.25891466D+05 0.25891466D+05 0.12216696D+01  1  2 15  3  6  5       21 0.564796372899D-02 0.100000000000D+01
0.466749719119D-04 0.000000000000D+00 0.000000000000D+00 0.642321071715D-05 0.000000000000D+00  6 -1 2 25 24 21 21 4 0.15229067D-01 0.52072042D-01 0.23336946D+05 0.23336946D+05 0.23336946D+05 0.12265159D+01  1  2 12  3  6  5       21 0.352505263886D-01 0.100000000000D+01
0.515067922744D-04 0.000000000000D+00 0.000000000000D+00 0.642321071715D-05 0.000000000000D+00  6 -1 2 25 24 21 21 4 0.15229067D-01 0.52072042D-01 0.23336946D+05 0.23336946D+05 0.23336946D+05 0.12265159D+01  1  2 12  3  6  5       21 0.388996814757D-01 0.100000000000D+01
-.947812934875D-04 0.000000000000D+00 0.000000000000D+00 0.637255110370D-05 0.000000000000D+00  6 -1 2 25 24 21 21 4 0.15229067D-01 0.52072042D-01 0.25891466D+05 0.25891466D+05 0.25891466D+05 0.12216696D+01  1  2  4  3  6  5       21 -.706094298313D-01 0.100000000000D+01
0.160897068755D-05 0.000000000000D+00 0.000000000000D+00 0.642321071715D-05 0.000000000000D+00  6 -1 2 25 24 1 -1 4 0.15229067D-01 0.52072042D-01 0.23336946D+05 0.23336946D+05 0.23336946D+05 0.12265159D+01  1  2 12  6  6  5       21 0.121514939071D-02 0.100000000000D+01
0.177497809095D-05 0.000000000000D+00 0.000000000000D+00 0.642321071715D-05 0.000000000000D+00  6 -1 2 25 24 1 -1 4 0.15229067D-01 0.52072042D-01 0.23336946D+05 0.23336946D+05 0.23336946D+05 0.12265159D+01  1  2 12  6  6  5       21 0.134052382833D-02 0.100000000000D+01
0.160897068755D-05 0.000000000000D+00 0.000000000000D+00 0.642321071715D-05 0.000000000000D+00  6 -1 2 25 24 2 -2 4 0.15229067D-01 0.52072042D-01 0.23336946D+05 0.23336946D+05 0.23336946D+05 0.12265159D+01  1  2 12  7  6  5       21 0.121514939071D-02 0.100000000000D+01
0.177497809095D-05 0.000000000000D+00 0.000000000000D+00 0.642321071715D-05 0.000000000000D+00  6 -1 2 25 24 2 -2 4 0.15229067D-01 0.52072042D-01 0.23336946D+05 0.23336946D+05 0.23336946D+05 0.12265159D+01  1  2 12  7  6  5       21 0.134052382833D-02 0.100000000000D+01
0.160897068755D-05 0.000000000000D+00 0.000000000000D+00 0.642321071715D-05 0.000000000000D+00  6 -1 2 25 24 3 -3 4 0.15229067D-01 0.52072042D-01 0.23336946D+05 0.23336946D+05 0.23336946D+05 0.12265159D+01  1  2 12  8  6  5       21 0.121514939071D-02 0.100000000000D+01
0.160897068755D-05 0.000000000000D+00 0.000000000000D+00 0.642321071715D-05 0.000000000000D+00  6 -1 2 25 24 4 -4 4 0.15229067D-01 0.52072042D-01 0.23336946D+05 0.23336946D+05 0.23336946D+05 0.12265159D+01  1  2 12  8  6  5       21 0.121514939071D-02 0.100000000000D+01
0.177497809095D-05 0.000000000000D+00 0.000000000000D+00 0.642321071715D-05 0.000000000000D+00  6 -1 2 25 24 3 -3 4 0.15229067D-01 0.52072042D-01 0.23336946D+05 0.23336946D+05 0.23336946D+05 0.12265159D+01  1  2 12  8  6  5       21 0.134052382833D-02 0.100000000000D+01
0.177497809095D-05 0.000000000000D+00 0.000000000000D+00 0.642321071715D-05 0.000000000000D+00  6 -1 2 25 24 4 -4 4 0.15229067D-01 0.52072042D-01 0.23336946D+05 0.23336946D+05 0.23336946D+05 0.12265159D+01  1  2 12  8  6  5       21 0.134052382833D-02 0.100000000000D+01
  </mgrwgt>
  </event>
  <event>
  5     66 0.43135346E-03 0.46179817E+02 0.75467711E-02 0.11738625E+00
       -1 -1    0    0    0  501 0.00000000E+00 0.00000000E+00 0.17798616E+03 0.17798644E+03 0.32000000E+00 0.0000E+00 0.9000E+01
        2 -1    0    0  502    0 0.00000000E+00 0.00000000E+00 -.20888023E+03 0.20888048E+03 0.32000000E+00 0.0000E+00 0.9000E+01
       25  1    1    2    0    0 0.67651457E+02 -.38480071E+02 0.56007734E+01 0.14735605E+03 0.12500000E+03 0.0000E+00 0.9000E+01
       24  1    1    2    0    0 -.10317567E+03 0.67982975E+02 -.86912982E+02 0.17113733E+03 0.80419002E+02 0.0000E+00 0.9000E+01
       21  1    1    2  502  501 0.35524211E+02 -.29502904E+02 0.50418134E+02 0.68373545E+02 0.75000000E+00 0.0000E+00 0.9000E+01
#aMCatNLO 1  0  0  1  5 0.66391301D+01 0.00000000D+00  -5  6  0 0.00000000D+00 0.00000000D+00 0.00000000D+00 0.00000000D+00 0.00000000D+00
  <mgrwgt>
 0.5964094491D+00   11    4    0
 0.192815696135281D+03 0.000000000000000D+00 0.000000000000000D+00 0.192815696135281D+03
 0.192815696135281D+03 0.000000000000000D+00 0.000000000000000D+00 -.192815696135281D+03
 0.148276231433789D+03 0.676507287144009D+02 -.384794659490925D+02 0.174226982092243D+02
 0.164724135859579D+03 -.103176477355911D+03 0.679836468216442D+02 -.734824010601823D+02
 0.726310249771936D+02 0.355257486415102D+02 -.295041808725517D+02 0.560597028509580D+02
 0.000000000000000D+00 -.000000000000000D+00 0.000000000000000D+00 0.000000000000000D+00
 0.216489230590569D+03 0.000000000000000D+00 0.000000000000000D+00 0.216489230590569D+03
 0.193310309869994D+03 0.000000000000000D+00 0.000000000000000D+00 -.193310309869994D+03
 0.149405522179578D+03 0.687779985904146D+02 -.407804678094749D+02 0.174226982092243D+02
 0.162915995514270D+03 -.101935760228349D+03 0.654510745605767D+02 -.734824010601823D+02
 0.733670208354798D+02 0.360786182648706D+02 -.306327074649591D+02 0.560597028509580D+02
 0.241110019312347D+02 -.292085662693637D+01 0.596210071385734D+01 0.231789207205751D+02
 0.192815696135281D+03 0.000000000000000D+00 0.000000000000000D+00 0.192815696135281D+03
 0.192815696135281D+03 0.000000000000000D+00 0.000000000000000D+00 -.192815696135281D+03
 0.148276231433789D+03 0.676507287144009D+02 -.384794659490925D+02 0.174226982092243D+02
 0.164724135859579D+03 -.103176477355911D+03 0.679836468216442D+02 -.734824010601823D+02
 0.000000000000000D+00 -.000000000000000D+00 0.000000000000000D+00 0.000000000000000D+00
 0.726310249771936D+02 0.355257486415102D+02 -.295041808725517D+02 0.560597028509580D+02
 0.216489230590569D+03 0.000000000000000D+00 0.000000000000000D+00 0.216489230590569D+03
 0.193310309869994D+03 0.000000000000000D+00 0.000000000000000D+00 -.193310309869994D+03
 0.149405522179578D+03 0.687779985904146D+02 -.407804678094749D+02 0.174226982092243D+02
 0.162915995514270D+03 -.101935760228349D+03 0.654510745605767D+02 -.734824010601823D+02
 0.241110019312347D+02 -.292085662693637D+01 0.596210071385734D+01 0.231789207205751D+02
 0.733670208354798D+02 0.360786182648706D+02 -.306327074649591D+02 0.560597028509580D+02
0.954496989489D-04 0.000000000000D+00 0.000000000000D+00 0.864412499396D-05 0.000000000000D+00  6 -1 2 25 24 21 21 2 0.27382527D-01 0.32135461D-01 0.29045487D+05 0.29045487D+05 0.29045487D+05 0.12163750D+01  1  2  2  1  6  1       -1 0.307080724129D-01 0.100000000000D+01
0.402925050164D-05 0.503701899782D-05 -.366551976447D-06 0.864412499396D-05 0.000000000000D+00  6 -1 2 25 24 21 21 4 0.27382527D-01 0.32135461D-01 0.29045487D+05 0.29045487D+05 0.29045487D+05 0.12163750D+01  1  2  3  1  6  1       -1 0.191794974648D-02 0.100000000000D+01
0.359475883660D-05 0.000000000000D+00 0.000000000000D+00 0.864412499396D-05 0.000000000000D+00  6 -1 2 25 24 21 21 4 0.27382527D-01 0.32135461D-01 0.29045487D+05 0.29045487D+05 0.29045487D+05 0.12163750D+01  1  2 15  1  6  1       -1 0.171112885548D-02 0.100000000000D+01
0.318337319167D-02 0.000000000000D+00 0.000000000000D+00 0.861813235464D-05 0.000000000000D+00  6 -1 2 25 24 21 21 4 0.31581541D-01 0.32135461D-01 0.30233734D+05 0.30233734D+05 0.30233734D+05 0.12145448D+01  1  2 12  1  6  1       -1 0.118493457173D+01 0.100000000000D+01
-.216037925471D-02 0.000000000000D+00 0.000000000000D+00 0.864412499396D-05 0.000000000000D+00  6 -1 2 25 24 21 21 4 0.27382527D-01 0.32135461D-01 0.29045487D+05 0.29045487D+05 0.29045487D+05 0.12163750D+01  1  2  4  1  6  1       -1 -.102835473798D+01 0.100000000000D+01
-.497062920557D-02 0.000000000000D+00 -.187633942574D-03 0.864412499396D-05 0.000000000000D+00  6 -1 2 25 24 21 21 4 0.30788321D-01 0.32135461D-01 0.29045487D+05 0.29045487D+05 0.29045487D+05 0.12163750D+01  1  2  5  1  6  1       -1 -.194253132625D+01 0.100000000000D+01
0.495978747168D-02 0.000000000000D+00 0.186351962664D-03 0.864412499396D-05 0.000000000000D+00  6 -1 2 25 24 21 21 4 0.27382527D-01 0.32135461D-01 0.29045487D+05 0.29045487D+05 0.29045487D+05 0.12163750D+01  1  2  6  1  6  1       -1 0.236089146606D+01 0.100000000000D+01
0.187315528759D-03 0.000000000000D+00 0.000000000000D+00 0.864412499396D-05 0.457435083407D-06  6 -1 2 25 24 21 21 4 0.30744500D-01 0.32217896D-01 0.30233734D+05 0.30233734D+05 0.30233734D+05 0.12145448D+01  1  2 11  1  6  1       -1 0.727761989940D-01 0.100000000000D+01
0.697159905832D-04 0.000000000000D+00 0.000000000000D+00 0.861813235464D-05 0.000000000000D+00  6 21 2 25 24 1 21 4 0.31581541D-01 0.32135461D-01 0.30233734D+05 0.30233734D+05 0.30233734D+05 0.12145448D+01  3  4 12  4  5  1       -1 0.293514004519D+00 0.100000000000D+01
-.916432672701D-04 0.000000000000D+00 -.349077799714D-05 0.864412499396D-05 0.000000000000D+00  6 21 2 25 24 1 21 4 0.30788321D-01 0.32135461D-01 0.29045487D+05 0.29045487D+05 0.29045487D+05 0.12163750D+01  3  4  5  4  5  1       -1 -.408082393260D+00 0.100000000000D+01
0.653732048539D-05 0.000000000000D+00 0.000000000000D+00 0.864412499396D-05 0.318382722672D-07  6 21 2 25 24 1 21 4 0.30744500D-01 0.32217896D-01 0.30233734D+05 0.30233734D+05 0.30233734D+05 0.12145448D+01  3  4 11  4  5  1       -1 0.289245142965D-01 0.100000000000D+01
  </mgrwgt>
  </event>
  <event>
  5     66 -.43135346E-03 0.27246488E+02 0.75467711E-02 0.12447948E+00
       -3 -1    0    0    0  501 0.00000000E+00 0.00000000E+00 0.31663187E+03 0.31663227E+03 0.50000000E+00 0.0000E+00 0.9000E+01
        4 -1    0    0  502    0 0.00000000E+00 0.00000000E+00 -.82168399E+02 0.82183017E+02 0.15500000E+01 0.0000E+00 0.9000E+01
       25  1    1    2    0    0 -.62413350E+01 0.14509141E+02 0.25796577E+03 0.28709025E+03 0.12500000E+03 0.0000E+00 0.9000E+01
       24  1    1    2    0    0 0.94895005E+01 0.12538788E+02 -.16489741E+02 0.83584684E+02 0.80419002E+02 0.0000E+00 0.9000E+01
       21  1    1    2  502  501 -.32481654E+01 -.27047929E+02 -.70125590E+01 0.28140354E+02 0.75000000E+00 0.0000E+00 0.9000E+01
#aMCatNLO 1  0  0  1  5 0.27421917D+01 0.00000000D+00  -5  6  0 0.00000000D+00 0.00000000D+00 0.00000000D+00 0.00000000D+00 0.00000000D+00
  <mgrwgt>
 -.3702370747D-01   11    4    0
 0.161307555656851D+03 0.000000000000000D+00 0.000000000000000D+00 0.161307555656851D+03
 0.161307555656851D+03 0.000000000000000D+00 0.000000000000000D+00 -.161307555656851D+03
 0.167422599112638D+03 -.624103691990949D+01 0.145116232235146D+02 0.110253294477825D+03
 0.115309969904677D+03 0.948970579556237D+01 0.125404977540592D+02 -.811286299960819D+02
 0.398825422963864D+02 -.324866887565288D+01 -.270521209775737D+02 -.291246644817435D+02
 0.000000000000000D+00 -.000000000000000D+00 0.000000000000000D+00 0.000000000000000D+00
 0.163793019126778D+03 0.000000000000000D+00 0.000000000000000D+00 0.163793019126778D+03
 0.162071519481900D+03 0.000000000000000D+00 0.000000000000000D+00 -.162071519481900D+03
 0.167326738431335D+03 -.496350035155133D+01 0.138856802179253D+02 0.110253294477825D+03
 0.115339670137141D+03 0.103699565282270D+02 0.121092092861413D+02 -.811286299960819D+02
 0.399603566931361D+02 -.294395662758325D+01 -.272014180741271D+02 -.291246644817435D+02
 0.323777334706564D+01 -.246249954909239D+01 0.120652857006053D+01 0.172149964487830D+01
 0.161307555656851D+03 0.000000000000000D+00 0.000000000000000D+00 0.161307555656851D+03
 0.161307555656851D+03 0.000000000000000D+00 0.000000000000000D+00 -.161307555656851D+03
 0.167422599112638D+03 -.624103691990949D+01 0.145116232235146D+02 0.110253294477825D+03
 0.115309969904677D+03 0.948970579556237D+01 0.125404977540592D+02 -.811286299960819D+02
 0.000000000000000D+00 -.000000000000000D+00 0.000000000000000D+00 0.000000000000000D+00
 0.398825422963864D+02 -.324866887565288D+01 -.270521209775737D+02 -.291246644817435D+02
 0.163793019126778D+03 0.000000000000000D+00 0.000000000000000D+00 0.163793019126778D+03
 0.162071519481900D+03 0.000000000000000D+00 0.000000000000000D+00 -.162071519481900D+03
 0.167326738431335D+03 -.496350035155133D+01 0.138856802179253D+02 0.110253294477825D+03
 0.115339670137141D+03 0.103699565282270D+02 0.121092092861413D+02 -.811286299960819D+02
 0.323777334706564D+01 -.246249954909239D+01 0.120652857006053D+01 0.172149964487830D+01
 0.399603566931361D+02 -.294395662758325D+01 -.272014180741271D+02 -.291246644817435D+02
0.181784898242D-03 0.000000000000D+00 0.000000000000D+00 0.174795259729D-04 0.000000000000D+00  6 -3 4 25 24 21 21 2 0.48713750D-01 0.12642447D-01 0.13827755D+05 0.13827755D+05 0.13827755D+05 0.12518715D+01  1  2  2  1  6  1       -3 0.116983058724D-01 0.100000000000D+01
0.108016140153D-04 0.959305263448D-05 -.698101874313D-06 0.174795259729D-04 0.000000000000D+00  6 -3 4 25 24 21 21 4 0.48713750D-01 0.12642447D-01 0.13827755D+05 0.13827755D+05 0.13827755D+05 0.12518715D+01  1  2  3  1  6  1       -3 0.108936481837D-02 0.100000000000D+01
0.510790578627D-05 0.000000000000D+00 0.000000000000D+00 0.174795259729D-04 0.000000000000D+00  6 -3 4 25 24 21 21 4 0.48713750D-01 0.12642447D-01 0.13827755D+05 0.13827755D+05 0.13827755D+05 0.12518715D+01  1  2 15  1  6  1       -3 0.515142723231D-03 0.100000000000D+01
0.167791521900D-05 0.000000000000D+00 0.000000000000D+00 0.174468800416D-04 0.000000000000D+00  6 -3 4 25 24 21 21 4 0.50000146D-01 0.12642447D-01 0.14155443D+05 0.14155443D+05 0.14155443D+05 0.12507019D+01  1  2 12  1  6  1       -3 0.160408801793D-03 0.100000000000D+01
-.191625239580D-02 0.000000000000D+00 0.000000000000D+00 0.174795259729D-04 0.000000000000D+00  6 -3 4 25 24 21 21 4 0.48713750D-01 0.12642447D-01 0.13827755D+05 0.13827755D+05 0.13827755D+05 0.12518715D+01  1  2  4  1  6  1       -3 -.193257964981D+00 0.100000000000D+01
-.175928727266D-01 0.000000000000D+00 -.202200151981D-02 0.174795259729D-04 0.000000000000D+00  6 -3 4 25 24 21 21 4 0.49656936D-01 0.12642447D-01 0.13827755D+05 0.13827755D+05 0.13827755D+05 0.12518715D+01  1  2  5  1  6  1       -3 -.170803891275D+01 0.100000000000D+01
0.176287782813D-01 0.000000000000D+00 0.202162978416D-02 0.174795259729D-04 0.000000000000D+00  6 -3 4 25 24 21 21 4 0.48713750D-01 0.12642447D-01 0.13827755D+05 0.13827755D+05 0.13827755D+05 0.12518715D+01  1  2  6  1  6  1       -3 0.177789826810D+01 0.100000000000D+01
0.185542525952D-02 0.000000000000D+00 0.000000000000D+00 0.174795259729D-04 0.827851356049D-05  6 -3 4 25 24 21 21 4 0.49464343D-01 0.12702322D-01 0.14155443D+05 0.14155443D+05 0.14155443D+05 0.12507019D+01  1  2 11  1  6  1       -3 0.179757826516D+00 0.100000000000D+01
0.137046034155D-06 0.000000000000D+00 0.000000000000D+00 0.174468800416D-04 0.000000000000D+00  6 21 4 25 24 3 21 4 0.50000146D-01 0.12642447D-01 0.14155443D+05 0.14155443D+05 0.14155443D+05 0.12507019D+01  3  4 12  4  5  1       -3 0.265045441220D-03 0.100000000000D+01
-.612043764659D-04 0.000000000000D+00 -.706568776365D-05 0.174795259729D-04 0.000000000000D+00  6 21 4 25 24 3 21 4 0.49656936D-01 0.12642447D-01 0.13827755D+05 0.13827755D+05 0.13827755D+05 0.12518715D+01  3  4  5  4  5  1       -3 -.120403201967D+00 0.100000000000D+01
0.677688365737D-05 0.000000000000D+00 0.000000000000D+00 0.174795259729D-04 0.564178148506D-07  6 21 4 25 24 3 21 4 0.49464343D-01 0.12702322D-01 0.14155443D+05 0.14155443D+05 0.14155443D+05 0.12507019D+01  3  4 11  4  5  1       -3 0.132920099444D-01 0.100000000000D+01
  </mgrwgt>
  </event>
  <event>
  5     66 0.43135346E-03 0.75991550E+02 0.75467711E-02 0.11756536E+00
       -1 -1    0    0    0  501 0.00000000E+00 0.00000000E+00 0.19158996E+02 0.19161669E+02 0.32000000E+00 0.0000E+00 0.9000E+01
        2 -1    0    0  502    0 0.00000000E+00 0.00000000E+00 -.13176765E+04 0.13176765E+04 0.32000000E+00 0.0000E+00 0.9000E+01
       25  1    1    2    0    0 0.18963442E+02 0.46101745E+02 -.41819027E+03 0.43930978E+03 0.12500000E+03 0.0000E+00 0.9000E+01
       24  1    1    2    0    0 0.25602606E+02 0.15446432E+02 -.63304932E+03 0.63883703E+03 0.80419002E+02 0.0000E+00 0.9000E+01
       21  1    1    2  502  501 -.44566047E+02 -.61548177E+02 -.24727787E+03 0.25869135E+03 0.75000000E+00 0.0000E+00 0.9000E+01
#aMCatNLO 1  0  0  1  1 0.44449009D+02 0.00000000D+00  -5  6  0 0.00000000D+00 0.00000000D+00 0.00000000D+00 0.00000000D+00 0.00000000D+00
  <mgrwgt>
 0.3671956806D-01    7    4    0
 0.158893582164752D+03 0.000000000000000D+00 0.000000000000000D+00 0.158893582164752D+03
 0.158893582164752D+03 0.000000000000000D+00 0.000000000000000D+00 -.158893582164752D+03
 0.139272014774395D+03 0.189643485063540D+02 0.461029973489938D+02 0.358686662769545D+02
 0.100684549094718D+03 0.256032612226363D+02 0.154473379071395D+02 -.526879040993679D+02
 0.778306004603904D+02 -.445676097289904D+02 -.615503352561334D+02 0.168192378224134D+02
 0.000000000000000D+00 -.000000000000000D+00 0.000000000000000D+00 0.000000000000000D+00
 0.186386405599904D+03 0.000000000000000D+00 0.000000000000000D+00 0.186386405599904D+03
 0.179477063526417D+03 0.000000000000000D+00 0.000000000000000D+00 -.179477063526417D+03
 0.137845956021778D+03 0.323926320971593D+02 0.322593204653844D+02 0.358686662769545D+02
 0.102607165182919D+03 0.354541517409887D+02 0.529171791075670D+01 -.526879040993679D+02
 0.804275360067738D+02 -.368989077284387D+02 -.694562624652534D+02 0.168192378224134D+02
 0.449828119148507D+02 -.309478761097093D+02 0.319052240891123D+02 0.690934207348688D+01
 0.158893582164752D+03 0.000000000000000D+00 0.000000000000000D+00 0.158893582164752D+03
 0.158893582164752D+03 0.000000000000000D+00 0.000000000000000D+00 -.158893582164752D+03
 0.139272014774395D+03 0.189643485063540D+02 0.461029973489938D+02 0.358686662769545D+02
 0.100684549094718D+03 0.256032612226363D+02 0.154473379071395D+02 -.526879040993679D+02
 0.000000000000000D+00 -.000000000000000D+00 0.000000000000000D+00 0.000000000000000D+00
 0.778306004603904D+02 -.445676097289904D+02 -.615503352561334D+02 0.168192378224134D+02
 0.186386405599904D+03 0.000000000000000D+00 0.000000000000000D+00 0.186386405599904D+03
 0.179477063526417D+03 0.000000000000000D+00 0.000000000000000D+00 -.179477063526417D+03
 0.137845956021778D+03 0.323926320971593D+02 0.322593204653844D+02 0.358686662769545D+02
 0.102607165182919D+03 0.354541517409887D+02 0.529171791075670D+01 -.526879040993679D+02
 0.449828119148507D+02 -.309478761097093D+02 0.319052240891123D+02 0.690934207348688D+01
 0.804275360067738D+02 -.368989077284387D+02 -.694562624652534D+02 0.168192378224134D+02
0.552948943478D-04 0.000000000000D+00 0.000000000000D+00 0.401680187069D-05 0.000000000000D+00  6 -1 2 25 24 21 21 2 0.29477464D-02 0.20271966D+00 0.21957880D+05 0.21957880D+05 0.21957880D+05 0.12293855D+01  1  2  2  1  6  1       -1 0.619033200615D-01 0.100000000000D+01
-.322917716265D-05 0.291799174203D-05 -.212346953776D-06 0.401680187069D-05 0.000000000000D+00  6 -1 2 25 24 21 21 4 0.29477464D-02 0.20271966D+00 0.21957880D+05 0.21957880D+05 0.21957880D+05 0.12293855D+01  1  2  3  1  6  1       -1 -.546382749226D-02 0.100000000000D+01
0.240367395179D-05 0.000000000000D+00 0.000000000000D+00 0.401680187069D-05 0.000000000000D+00  6 -1 2 25 24 21 21 4 0.29477464D-02 0.20271966D+00 0.21957880D+05 0.21957880D+05 0.21957880D+05 0.12293855D+01  1  2 15  1  6  1       -1 0.406706078940D-02 0.100000000000D+01
-.229049959855D-04 0.000000000000D+00 0.000000000000D+00 0.401680187069D-05 0.000000000000D+00  6 -1 2 25 24 21 21 4 0.29477464D-02 0.20271966D+00 0.21957880D+05 0.21957880D+05 0.21957880D+05 0.12293855D+01  1  2  4  1  6  1       -1 -.387556769022D-01 0.100000000000D+01
-.138629932114D-03 0.000000000000D+00 -.505335656404D-04 0.401680187069D-05 0.000000000000D+00  6 -1 2 25 24 21 21 4 0.39439769D-02 0.20271966D+00 0.21957880D+05 0.21957880D+05 0.21957880D+05 0.12293855D+01  1  2  5  1  6  1       -1 -.153130375147D+00 0.100000000000D+01
0.149049361813D-03 0.000000000000D+00 0.484648902306D-04 0.401680187069D-05 0.000000000000D+00  6 -1 2 25 24 21 21 4 0.29477464D-02 0.20271966D+00 0.21957880D+05 0.21957880D+05 0.21957880D+05 0.12293855D+01  1  2  6  1  6  1       -1 0.252194277291D+00 0.100000000000D+01
-.416258508171D-05 0.000000000000D+00 -.191152671914D-05 0.401680187069D-05 0.000000000000D+00  6 21 2 25 24 1 21 4 0.39439769D-02 0.20271966D+00 0.21957880D+05 0.21957880D+05 0.21957880D+05 0.12293855D+01  3  4  5  4  5  1       -1 -.840952105387D-01 0.100000000000D+01
  </mgrwgt>
  </event>
  <event>
  6     66 -.43135346E-03 0.50334697E+02 0.75467711E-02 0.11712026E+00
       -1 -1    0    0    0  501 0.00000000E+00 0.00000000E+00 0.64489730E+02 0.64490524E+02 0.32000000E+00 0.0000E+00 0.9000E+01
        2 -1    0    0  502    0 -.00000000E+00 -.00000000E+00 -.14706884E+04 0.14706885E+04 0.32000000E+00 0.0000E+00 0.9000E+01
       25  1    1    2    0    0 -.58581524E+02 0.59469172E+02 -.81966109E+03 0.83332927E+03 0.12500000E+03 0.0000E+00 0.9000E+01
       24  1    1    2    0    0 0.35072546E+02 -.96656036E+02 -.22642406E+02 0.13248535E+03 0.80419002E+02 0.0000E+00 0.9000E+01
       21  1    1    2  502  503 0.35463031E+02 0.45323738E+02 -.51924505E+03 0.52242497E+03 0.75000000E+00 0.0000E+00 0.9000E+01
       21  1    1    2  503  501 -.11954053E+02 -.81368737E+01 -.44650166E+02 0.46939407E+02 0.75000000E+00 0.0000E+00 0.9000E+01
#aMCatNLO 2  0  0  5  1 0.15123586D+02 0.00000000D+00  -5  6  0 0.00000000D+00 0.00000000D+00 0.00000000D+00 0.00000000D+00 0.00000000D+00
  <mgrwgt>
 -.9307299326D-01    3    2    0
 0.307969051754810D+03 0.000000000000000D+00 0.000000000000000D+00 0.307969051754810D+03
 0.307969051754810D+03 -.000000000000000D+00 -.000000000000000D+00 -.307969051754810D+03
 0.201885472551651D+03 -.597759836039773D+02 0.575797568485579D+02 -.135070897727236D+03
 0.285799013991437D+03 0.334188083692400D+02 -.992719438211478D+02 0.253460302337976D+03
 0.128253616966531D+03 0.263571752347372D+02 0.416921869725899D+02 -.118389404610740D+03
 0.000000000000000D+00 -.000000000000000D+00 0.000000000000000D+00 0.000000000000000D+00
 0.307969051754810D+03 0.000000000000000D+00 0.000000000000000D+00 0.307969051754810D+03
 0.307969051754810D+03 -.000000000000000D+00 -.000000000000000D+00 -.307969051754810D+03
 0.205740132590413D+03 -.585715233983303D+02 0.594849906092948D+02 -.140481011874671D+03
 0.278457182236696D+03 0.350860837454021D+02 -.966346218737591D+02 0.245971345826209D+03
 0.116561719718335D+03 0.355509057956706D+02 0.453603003254260D+02 -.101317376373405D+03
 0.151790689641754D+02 -.120654661427424D+02 -.821066906096172D+01 -.417295757813264D+01
-.454632268058D-03 0.000000000000D+00 0.000000000000D+00 0.279383539323D-05 0.000000000000D+00  6 -1 2 25 24 21 21 4 0.99215607D-02 0.22625982D+00 0.31163411D+05 0.31163411D+05 0.31163411D+05 0.12131680D+01  1  2 13  3  6  5       21 -.989309503806D-01 0.100000000000D+01
-.229518990032D-03 0.000000000000D+00 0.000000000000D+00 0.282053010468D-05 0.000000000000D+00  6 -1 2 25 24 21 21 4 0.99215607D-02 0.22625982D+00 0.27460926D+05 0.27460926D+05 0.27460926D+05 0.12189500D+01  1  2  8  3  6  5       21 -.509653015809D-01 0.100000000000D+01
0.261128462664D-03 0.000000000000D+00 0.000000000000D+00 0.282053010468D-05 0.241813334167D-07  6 -1 2 25 24 21 21 4 0.99215607D-02 0.22625982D+00 0.31163411D+05 0.31163411D+05 0.31163411D+05 0.12131680D+01  1  2  1  3  6  5       21 0.568232587035D-01 0.100000000000D+01
  </mgrwgt>
  </event>
  <event>
  5     66 -.43135346E-03 0.20955780E+02 0.75467711E-02 0.11866903E+00
       -1 -1    0    0    0  501 0.00000000E+00 0.00000000E+00 0.10147495E+04 0.10147495E+04 0.32000000E+00 0.0000E+00 0.9000E+01
        2 -1    0    0  502    0 0.00000000E+00 0.00000000E+00 -.26984858E+02 0.26986755E+02 0.32000000E+00 0.0000E+00 0.9000E+01
       25  1    1    2    0    0 0.11401085E+03 0.19805981E+02 0.51422259E+03 0.54170160E+03 0.12500000E+03 0.0000E+00 0.9000E+01
       24  1    1    2    0    0 -.10502883E+03 -.88070651E+00 0.44728561E+03 0.46643699E+03 0.80419002E+02 0.0000E+00 0.9000E+01
       21  1    1    2  502  501 -.89820186E+01 -.18925274E+02 0.26256394E+02 0.33597669E+02 0.75000000E+00 0.0000E+00 0.9000E+01
#aMCatNLO 1  0  0  5  1 0.43242778D+01 0.00000000D+00  -5  6  0 0.00000000D+00 0.00000000D+00 0.00000000D+00 0.00000000D+00 0.00000000D+00
  <mgrwgt>
 -.5694886920D+00   20    2    0
 0.165480766717817D+03 0.000000000000000D+00 0.000000000000000D+00 0.165480766717817D+03
 0.165480766717817D+03 -.000000000000000D+00 -.000000000000000D+00 -.165480766717817D+03
 0.170351718914979D+03 0.114012585081921D+03 0.198096347768166D+02 0.184849945490373D+01
 0.133221457348739D+03 -.105027475892944D+03 -.877848757688161D+00 0.157860518454415D+02
 0.273883571719156D+02 -.898510918897736D+01 -.189317860191284D+02 -.176345513003453D+02
 0.000000000000000D+00 0.000000000000000D+00 -.000000000000000D+00 0.000000000000000D+00
 0.165480766717817D+03 0.000000000000000D+00 0.000000000000000D+00 0.165480766717817D+03
 0.165480766717817D+03 -.000000000000000D+00 -.000000000000000D+00 -.165480766717817D+03
 0.169820130916070D+03 0.113435583753443D+03 0.185938826413928D+02 0.716052501458692D+00
 0.133486053328855D+03 -.105479866612672D+03 -.183104410821730D+01 0.148981708873971D+02
 0.230362296100843D+02 -.864300412873530D+01 -.125174747409206D+02 -.172996872916710D+02
 0.461911958062443D+01 0.687286987964806D+00 -.424536379225493D+01 0.168546390281522D+01
0.163675597748D-02 0.000000000000D+00 0.000000000000D+00 0.438450994773D-04 0.000000000000D+00  6 -1 2 25 24 21 21 2 0.15611545D+00 0.41516664D-02 0.26176059D+05 0.26176059D+05 0.26176059D+05 0.12211630D+01  1  2  2  3  6  5       21 0.188992279802D+00 0.100000000000D+01
0.412470493203D-03 0.863739859229D-04 -.628557392127D-05 0.438450994773D-04 0.000000000000D+00  6 -1 2 25 24 21 21 4 0.15611545D+00 0.41516664D-02 0.26176059D+05 0.26176059D+05 0.26176059D+05 0.12211630D+01  1  2  3  3  6  5       21 0.710232085294D-01 0.100000000000D+01
-.349405517252D-05 0.000000000000D+00 0.000000000000D+00 0.438450994773D-04 0.000000000000D+00  6 -1 2 25 24 21 21 4 0.15611545D+00 0.41516664D-02 0.26176059D+05 0.26176059D+05 0.26176059D+05 0.12211630D+01  1  2 15  3  6  5       21 -.601640634229D-03 0.100000000000D+01
0.617085674798D-04 0.000000000000D+00 0.000000000000D+00 0.438780431000D-04 0.000000000000D+00  6 -1 2 25 24 21 21 4 0.15611545D+00 0.41516664D-02 0.25918229D+05 0.25918229D+05 0.25918229D+05 0.12216217D+01  1  2 12  3  6  5       21 0.106405776804D-01 0.100000000000D+01
0.514813314238D-04 0.000000000000D+00 0.000000000000D+00 0.438780431000D-04 0.000000000000D+00  6 -1 2 25 24 21 21 4 0.15611545D+00 0.41516664D-02 0.25918229D+05 0.25918229D+05 0.25918229D+05 0.12216217D+01  1  2 12  3  6  5       21 0.887706729356D-02 0.100000000000D+01
-.614926533917D-02 0.000000000000D+00 0.000000000000D+00 0.438450994773D-04 0.000000000000D+00  6 -1 2 25 24 21 21 4 0.15611545D+00 0.41516664D-02 0.26176059D+05 0.26176059D+05 0.26176059D+05 0.12211630D+01  1  2  4  3  6  5       21 -.105884072118D+01 0.100000000000D+01
-.359119261273D-02 0.000000000000D+00 0.000000000000D+00 0.438450994773D-04 0.000000000000D+00  6 -1 2 25 24 21 21 4 0.15611545D+00 0.41516664D-02 0.26176059D+05 0.26176059D+05 0.26176059D+05 0.12211630D+01  1  2  5  3  6  5       21 -.618366709876D+00 0.100000000000D+01
0.492395629204D-02 0.000000000000D+00 -.000000000000D+00 0.438450994773D-04 0.000000000000D+00  6 -1 2 25 24 21 21 4 0.15611545D+00 0.41516664D-02 0.26176059D+05 0.26176059D+05 0.26176059D+05 0.12211630D+01  1  2  6  3  6  5       21 0.847855010921D+00 0.100000000000D+01
0.439757269414D-05 0.000000000000D+00 0.000000000000D+00 0.438780431000D-04 0.000000000000D+00  6 -1 2 25 24 1 -1 4 0.15611545D+00 0.41516664D-02 0.25918229D+05 0.25918229D+05 0.25918229D+05 0.12216217D+01  1  2 12  6  6  5       21 0.758285530979D-03 0.100000000000D+01
0.406703120328D-05 0.000000000000D+00 0.000000000000D+00 0.438780431000D-04 0.000000000000D+00  6 -1 2 25 24 1 -1 4 0.15611545D+00 0.41516664D-02 0.25918229D+05 0.25918229D+05 0.25918229D+05 0.12216217D+01  1  2 12  6  6  5       21 0.701289354374D-03 0.100000000000D+01
-.361607731539D-04 0.000000000000D+00 0.000000000000D+00 0.438450994773D-04 0.000000000000D+00  6 -1 2 25 24 1 -1 4 0.15611545D+00 0.41516664D-02 0.26176059D+05 0.26176059D+05 0.26176059D+05 0.12211630D+01  1  2  5  6  6  5       21 -.622651601659D-02 0.100000000000D+01
0.439757269414D-05 0.000000000000D+00 0.000000000000D+00 0.438780431000D-04 0.000000000000D+00  6 -1 2 25 24 2 -2 4 0.15611545D+00 0.41516664D-02 0.25918229D+05 0.25918229D+05 0.25918229D+05 0.12216217D+01  1  2 12  7  6  5       21 0.758285530979D-03 0.100000000000D+01
0.406703120328D-05 0.000000000000D+00 0.000000000000D+00 0.438780431000D-04 0.000000000000D+00  6 -1 2 25 24 2 -2 4 0.15611545D+00 0.41516664D-02 0.25918229D+05 0.25918229D+05 0.25918229D+05 0.12216217D+01  1  2 12  7  6  5       21 0.701289354374D-03 0.100000000000D+01
-.361607731539D-04 0.000000000000D+00 0.000000000000D+00 0.438450994773D-04 0.000000000000D+00  6 -1 2 25 24 2 -2 4 0.15611545D+00 0.41516664D-02 0.26176059D+05 0.26176059D+05 0.26176059D+05 0.12211630D+01  1  2  5  7  6  5       21 -.622651601659D-02 0.100000000000D+01
0.439757269414D-05 0.000000000000D+00 0.000000000000D+00 0.438780431000D-04 0.000000000000D+00  6 -1 2 25 24 3 -3 4 0.15611545D+00 0.41516664D-02 0.25918229D+05 0.25918229D+05 0.25918229D+05 0.12216217D+01  1  2 12  8  6  5       21 0.758285530979D-03 0.100000000000D+01
0.439757269414D-05 0.000000000000D+00 0.000000000000D+00 0.438780431000D-04 0.000000000000D+00  6 -1 2 25 24 4 -4 4 0.15611545D+00 0.41516664D-02 0.25918229D+05 0.25918229D+05 0.25918229D+05 0.12216217D+01  1  2 12  8  6  5       21 0.758285530979D-03 0.100000000000D+01
0.406703120328D-05 0.000000000000D+00 0.000000000000D+00 0.438780431000D-04 0.000000000000D+00  6 -1 2 25 24 3 -3 4 0.15611545D+00 0.41516664D-02 0.25918229D+05 0.25918229D+05 0.25918229D+05 0.12216217D+01  1  2 12  8  6  5       21 0.701289354374D-03 0.100000000000D+01
0.406703120328D-05 0.000000000000D+00 0.000000000000D+00 0.438780431000D-04 0.000000000000D+00  6 -1 2 25 24 4 -4 4 0.15611545D+00 0.41516664D-02 0.25918229D+05 0.25918229D+05 0.25918229D+05 0.12216217D+01  1  2 12  8  6  5       21 0.701289354374D-03 0.100000000000D+01
-.361607731539D-04 0.000000000000D+00 0.000000000000D+00 0.438450994773D-04 0.000000000000D+00  6 -1 2 25 24 3 -3 4 0.15611545D+00 0.41516664D-02 0.26176059D+05 0.26176059D+05 0.26176059D+05 0.12211630D+01  1  2  5  8  6  5       21 -.622651601659D-02 0.100000000000D+01
-.361607731539D-04 0.000000000000D+00 0.000000000000D+00 0.438450994773D-04 0.000000000000D+00  6 -1 2 25 24 4 -4 4 0.15611545D+00 0.41516664D-02 0.26176059D+05 0.26176059D+05 0.26176059D+05 0.12211630D+01  1  2  5  8  6  5       21 -.622651601659D-02 0.100000000000D+01
  </mgrwgt>
  </event>
  <event>
  5     66 -.43135346E-03 0.21531880E+02 0.75467711E-02 0.12119758E+00
       -1 -1    0    0    0  501 0.00000000E+00 0.00000000E+00 0.10337404E+02 0.10342356E+02 0.32000000E+00 0.0000E+00 0.9000E+01
        2 -1    0    0  502    0 0.00000000E+00 0.00000000E+00 -.18501079E+04 0.18501079E+04 0.32000000E+00 0.0000E+00 0.9000E+01
       25  1    1    2    0    0 -.61996931E+02 -.53709716E+00 -.90621447E+03 0.91689344E+03 0.12500000E+03 0.0000E+00 0.9000E+01
       24  1    1    2    0    0 0.40665345E+02 0.34449527E+01 -.42110286E+03 0.43065110E+03 0.80419002E+02 0.0000E+00 0.9000E+01
       21  1    1    2  502  501 0.21331586E+02 -.29078556E+01 -.51245314E+03 0.51290572E+03 0.75000000E+00 0.0000E+00 0.9000E+01
#aMCatNLO 1  0  0  1  5 0.31310493D+02 0.00000000D+00  -5  6  0 0.00000000D+00 0.00000000D+00 0.00000000D+00 0.00000000D+00 0.00000000D+00
  <mgrwgt>
 -.2673350821D+00    7    4    0
 0.138311042253542D+03 0.000000000000000D+00 0.000000000000000D+00 0.138311042253542D+03
 0.138311042253542D+03 0.000000000000000D+00 0.000000000000000D+00 -.138311042253542D+03
 0.139570361783312D+03 -.619987010800903D+02 -.536855812006716D+00 0.328005160679777D+01
 0.956987726902494D+02 0.406641309754690D+02 0.344511821574531D+01 0.320249707656218D+02
 0.413529500335230D+02 0.213345701046213D+02 -.290826240373859D+01 -.353050223724196D+02
 0.000000000000000D+00 0.000000000000000D+00 -.000000000000000D+00 0.000000000000000D+00
 0.174322516458317D+03 0.000000000000000D+00 0.000000000000000D+00 0.174322516458317D+03
 0.146171124799338D+03 0.000000000000000D+00 0.000000000000000D+00 -.146171124799338D+03
 0.146411749616696D+03 -.757512723656523D+02 0.789850759723802D+01 0.328005160679777D+01
 0.925902617554164D+02 0.316095143918403D+02 0.899891465339531D+01 0.320249707656218D+02
 0.393864305499557D+02 0.174519003754182D+02 -.526763738228211D+00 -.353050223724196D+02
 0.421051993355875D+02 0.266898575983938D+02 -.163706585124051D+02 0.281513916589791D+02
 0.138311042253542D+03 0.000000000000000D+00 0.000000000000000D+00 0.138311042253542D+03
 0.138311042253542D+03 0.000000000000000D+00 0.000000000000000D+00 -.138311042253542D+03
 0.139570361783312D+03 -.619987010800903D+02 -.536855812006716D+00 0.328005160679777D+01
 0.956987726902494D+02 0.406641309754690D+02 0.344511821574531D+01 0.320249707656218D+02
 0.000000000000000D+00 0.000000000000000D+00 -.000000000000000D+00 0.000000000000000D+00
 0.413529500335230D+02 0.213345701046213D+02 -.290826240373859D+01 -.353050223724196D+02
 0.174322516458317D+03 0.000000000000000D+00 0.000000000000000D+00 0.174322516458317D+03
 0.146171124799338D+03 0.000000000000000D+00 0.000000000000000D+00 -.146171124799338D+03
 0.146411749616696D+03 -.757512723656523D+02 0.789850759723802D+01 0.328005160679777D+01
 0.925902617554164D+02 0.316095143918403D+02 0.899891465339531D+01 0.320249707656218D+02
 0.421051993355875D+02 0.266898575983938D+02 -.163706585124051D+02 0.281513916589791D+02
 0.393864305499557D+02 0.174519003754182D+02 -.526763738228211D+00 -.353050223724196D+02
0.107423008360D-03 0.000000000000D+00 0.000000000000D+00 0.530098677586D-04 0.000000000000D+00  6 -1 2 25 24 21 21 2 0.15907529D-02 0.28463236D+00 0.15781004D+05 0.15781004D+05 0.15781004D+05 0.12453174D+01  1  2  2  1  6  1       -1 0.158389273026D+00 0.100000000000D+01
0.147274922403D-04 0.566886789452D-05 -.412532637231D-06 0.530098677586D-04 0.000000000000D+00  6 -1 2 25 24 21 21 4 0.15907529D-02 0.28463236D+00 0.15781004D+05 0.15781004D+05 0.15781004D+05 0.12453174D+01  1  2  3  1  6  1       -1 0.336757556062D-01 0.100000000000D+01
0.514184062870D-05 0.000000000000D+00 0.000000000000D+00 0.530098677586D-04 0.000000000000D+00  6 -1 2 25 24 21 21 4 0.15907529D-02 0.28463236D+00 0.15781004D+05 0.15781004D+05 0.15781004D+05 0.12453174D+01  1  2 15  1  6  1       -1 0.117572880401D-01 0.100000000000D+01
-.180701550913D-03 0.000000000000D+00 0.000000000000D+00 0.530098677586D-04 0.000000000000D+00  6 -1 2 25 24 21 21 4 0.15907529D-02 0.28463236D+00 0.15781004D+05 0.15781004D+05 0.15781004D+05 0.12453174D+01  1  2  4  1  6  1       -1 -.413190593954D+00 0.100000000000D+01
-.403843471553D-03 0.000000000000D+00 -.977714631234D-04 0.530098677586D-04 0.000000000000D+00  6 -1 2 25 24 21 21 4 0.21327369D-02 0.28463236D+00 0.15781004D+05 0.15781004D+05 0.15781004D+05 0.12453174D+01  1  2  5  1  6  1       -1 -.605884443404D+00 0.100000000000D+01
0.418451565758D-03 0.000000000000D+00 0.937144221929D-04 0.530098677586D-04 0.000000000000D+00  6 -1 2 25 24 21 21 4 0.15907529D-02 0.28463236D+00 0.15781004D+05 0.15781004D+05 0.15781004D+05 0.12453174D+01  1  2  6  1  6  1       -1 0.956827709130D+00 0.100000000000D+01
-.132386497523D-04 0.000000000000D+00 -.371722383458D-05 0.530098677586D-04 0.000000000000D+00  6 21 2 25 24 1 21 4 0.21327369D-02 0.28463236D+00 0.15781004D+05 0.15781004D+05 0.15781004D+05 0.12453174D+01  3  4  5  4  5  1       -1 -.408910070500D+00 0.100000000000D+01
  </mgrwgt>
  </event>
  <event>
  6     66 0.43135346E-03 0.41734390E+02 0.75467711E-02 0.12121167E+00
       -1 -1    0    0    0  503 0.00000000E+00 0.00000000E+00 0.75961950E+02 0.75962624E+02 0.32000000E+00 0.0000E+00 0.9000E+01
        2 -1    0    0  502    0 0.00000000E+00 0.00000000E+00 -.31432239E+03 0.31432255E+03 0.32000000E+00 0.0000E+00 0.9000E+01
       25  1    1    2    0    0 -.57554703E+02 -.46507125E+02 -.11890255E+03 0.18771860E+03 0.12500000E+03 0.0000E+00 0.9000E+01
       24  1    1    2    0    0 0.35130986E+02 0.55219298E+01 -.12572224E+03 0.15342091E+03 0.80419002E+02 0.0000E+00 0.9000E+01
       21  1    1    2  502  501 0.17000349E+01 0.16263427E+02 0.36578854E+01 0.16772949E+02 0.75000000E+00 0.0000E+00 0.9000E+01
       21  1    1    2  501  503 0.20723682E+02 0.24721768E+02 0.26064624E+01 0.32372719E+02 0.75000000E+00 0.0000E+00 0.9000E+01
#aMCatNLO 2  0  0  1  5 0.11456953D+01 0.00000000D+00  -5  6  0 0.00000000D+00 0.00000000D+00 0.00000000D+00 0.00000000D+00 0.00000000D+00
  <mgrwgt>
 0.2067224120D-02    1    2    0
 0.131335108102827D+03 0.000000000000000D+00 0.000000000000000D+00 0.131335108102827D+03
 0.131335108102827D+03 0.000000000000000D+00 0.000000000000000D+00 -.131335108102827D+03
 0.137788667032853D+03 -.464176898918960D+02 -.332242244712029D+02 0.101126522770896D+02
 0.970074822991746D+02 0.425985157830319D+02 0.144282174971108D+02 -.303385672139106D+02
 0.278740668736274D+02 0.381917410886408D+01 0.187960069740920D+02 0.202259149368210D+02
 0.000000000000000D+00 0.000000000000000D+00 0.000000000000000D+00 0.000000000000000D+00
 0.171896524182358D+03 0.000000000000000D+00 0.000000000000000D+00 0.171896524182358D+03
 0.138895721461606D+03 0.000000000000000D+00 0.000000000000000D+00 -.138895721461606D+03
 0.145613035081664D+03 -.575555087691275D+02 -.465107907903484D+02 0.101126522770896D+02
 0.930175056576217D+02 0.351304452590388D+02 0.551938037318073D+01 -.303385672139106D+02
 0.260131428778641D+02 0.170138166960422D+01 0.162696425211800D+02 0.202259149368210D+02
 0.461485620268138D+02 0.207236818404845D+02 0.247217678959877D+02 0.330008027207516D+02
0.164038659341D-05 0.000000000000D+00 0.000000000000D+00 0.576288192810D-04 0.133542195093D-05  6 -1 2 25 24 21 21 4 0.11686270D-01 0.48356329D-01 0.19854153D+05 0.19854153D+05 0.19854153D+05 0.12341761D+01  1  2  1  1  6  1       -1 0.206722411974D-02 0.100000000000D+01
  </mgrwgt>
  </event>
  <event>
  6     66 0.43135346E-03 0.16989950E+02 0.75467711E-02 0.12072813E+00
       -1 -1    0    0    0  501 0.00000000E+00 0.00000000E+00 0.39577062E+03 0.39577075E+03 0.32000000E+00 0.0000E+00 0.9000E+01
        2 -1    0    0  503    0 0.00000000E+00 0.00000000E+00 -.10513174E+03 0.10513223E+03 0.32000000E+00 0.0000E+00 0.9000E+01
       25  1    1    2    0    0 -.58808488E+02 -.52017784E+02 0.16326545E+03 0.22010201E+03 0.12500000E+03 0.0000E+00 0.9000E+01
       24  1    1    2    0    0 0.63497000E+02 0.15058232E+02 0.18340483E+03 0.21062565E+03 0.80419002E+02 0.0000E+00 0.9000E+01
       21  1    1    2  502  501 0.59913318E+00 0.23985880E+02 -.19125059E+02 0.30692211E+02 0.75000000E+00 0.0000E+00 0.9000E+01
       21  1    1    2  503  502 -.52876451E+01 0.12973672E+02 -.36906339E+02 0.39483107E+02 0.75000000E+00 0.0000E+00 0.9000E+01
#aMCatNLO 2  0  0  2  5 0.14009831D+02 0.00000000D+00  -5  6  0 0.00000000D+00 0.00000000D+00 0.00000000D+00 0.00000000D+00 0.00000000D+00
  <mgrwgt>
 0.1222562209D+00    2    2    0
 0.162346970954233D+03 0.000000000000000D+00 0.000000000000000D+00 0.162346970954233D+03
 0.162346970954233D+03 0.000000000000000D+00 0.000000000000000D+00 -.162346970954233D+03
 0.146965613222423D+03 -.612086933448273D+02 -.461294771528177D+02 0.997289659374450D+01
 0.113871105900244D+03 0.616408337186847D+02 0.196118719658336D+02 0.481164722422096D+02
 0.638572227857977D+02 -.432140373857459D+00 0.265176051869841D+02 -.580893688359542D+02
 0.000000000000000D+00 -.000000000000000D+00 0.000000000000000D+00 -.000000000000000D+00
 0.163027240974245D+03 0.000000000000000D+00 0.000000000000000D+00 0.163027240974245D+03
 0.255217731845193D+03 0.000000000000000D+00 0.000000000000000D+00 -.255217731845193D+03
 0.147948748533839D+03 -.588084678407766D+02 -.520186277835156D+02 0.997289659374450D+01
 0.114197253106547D+03 0.634970183028980D+02 0.150575704652605D+02 0.481164722422096D+02
 0.628500464425733D+02 0.599094650911870D+00 0.239873852612858D+02 -.580893688359542D+02
 0.932489247364787D+02 -.528764511303331D+01 0.129736720569693D+02 -.921904908709478D+02
-.142572576305D-02 0.000000000000D+00 0.000000000000D+00 0.334098461269D-04 0.000000000000D+00  6 -1 2 25 24 21 21 4 0.60633208D-01 0.17527147D-01 0.20906624D+05 0.20906624D+05 0.20906624D+05 0.12317120D+01  1  2 13  2  6  2        2 -.341373733823D+00 0.100000000000D+01
0.177861176917D-02 0.000000000000D+00 0.000000000000D+00 0.336456827790D-04 0.200465560467D-05  6 -1 2 25 24 21 21 4 0.60887274D-01 0.16174013D-01 0.20906624D+05 0.20906624D+05 0.20906624D+05 0.12317120D+01  1  2  1  2  6  2        2 0.463629954688D+00 0.100000000000D+01
  </mgrwgt>
  </event>
  <event>
  5     66 -.43135346E-03 0.54999682E+02 0.75467711E-02 0.11389830E+00
       -1 -1    0    0    0  501 0.00000000E+00 0.00000000E+00 0.50309928E+02 0.50310946E+02 0.32000000E+00 0.0000E+00 0.9000E+01
        2 -1    0    0  502    0 0.00000000E+00 0.00000000E+00 -.17161403E+04 0.17161403E+04 0.32000000E+00 0.0000E+00 0.9000E+01
       25  1    1    2    0    0 0.16557148E+02 0.86308995E+02 -.21182446E+03 0.26118573E+03 0.12500000E+03 0.0000E+00 0.9000E+01
       24  1    1    2    0    0 0.35467685E+02 -.10415167E+03 -.16034533E+03 0.21043613E+03 0.80419002E+02 0.0000E+00 0.9000E+01
       21  1    1    2  502  501 -.52024833E+02 0.17842673E+02 -.12936605E+04 0.12948294E+04 0.75000000E+00 0.0000E+00 0.9000E+01
#aMCatNLO 1  0  0  1  5 0.84427920D+02 0.00000000D+00  -5  6  0 0.00000000D+00 0.00000000D+00 0.00000000D+00 0.00000000D+00 0.00000000D+00
  <mgrwgt>
 -.1029152599D+00    5    4    0
 0.293836381104002D+03 0.000000000000000D+00 0.000000000000000D+00 0.293836381104002D+03
 0.293836381104002D+03 0.000000000000000D+00 0.000000000000000D+00 -.293836381104002D+03
 0.184640785937257D+03 0.165572387064918D+02 0.863089640817926D+02 0.103652498267393D+03
 0.178019513746690D+03 0.354677729615366D+02 -.104151698262686D+03 0.114534676628455D+03
 0.225012462524056D+03 -.520250116680284D+02 0.178427341808936D+02 -.218187174895848D+03
 0.000000000000000D+00 -.000000000000000D+00 0.000000000000000D+00 0.000000000000000D+00
 0.108140969970917D+04 0.000000000000000D+00 0.000000000000000D+00 0.108140969970917D+04
 0.299124595623443D+03 0.000000000000000D+00 0.000000000000000D+00 -.299124595623443D+03
 0.176027638965165D+03 0.265457679703503D+02 0.625476737012885D+02 0.103652498267393D+03
 0.195615604165461D+03 0.458154082176045D+02 -.128767250720505D+03 0.114534676628455D+03
 0.222063207154019D+03 -.396434775458030D+02 -.116111743838863D+02 -.218187174895848D+03
 0.786827845047967D+03 -.327176986421518D+02 0.778307514031030D+02 0.782285104085728D+03
 0.293836381104002D+03 0.000000000000000D+00 0.000000000000000D+00 0.293836381104002D+03
 0.293836381104002D+03 0.000000000000000D+00 0.000000000000000D+00 -.293836381104002D+03
 0.184640785937257D+03 0.165572387064918D+02 0.863089640817926D+02 0.103652498267393D+03
 0.178019513746690D+03 0.354677729615366D+02 -.104151698262686D+03 0.114534676628455D+03
 0.000000000000000D+00 -.000000000000000D+00 0.000000000000000D+00 0.000000000000000D+00
 0.225012462524056D+03 -.520250116680284D+02 0.178427341808936D+02 -.218187174895848D+03
 0.108140969970917D+04 0.000000000000000D+00 0.000000000000000D+00 0.108140969970917D+04
 0.299124595623443D+03 0.000000000000000D+00 0.000000000000000D+00 -.299124595623443D+03
 0.176027638965165D+03 0.265457679703503D+02 0.625476737012885D+02 0.103652498267393D+03
 0.195615604165461D+03 0.458154082176045D+02 -.128767250720505D+03 0.114534676628455D+03
 0.786827845047967D+03 -.327176986421518D+02 0.778307514031030D+02 0.782285104085728D+03
 0.222063207154019D+03 -.396434775458030D+02 -.116111743838863D+02 -.218187174895848D+03
0.493704409197D-04 0.000000000000D+00 0.000000000000D+00 0.141206417173D-04 0.000000000000D+00  6 -1 2 25 24 21 21 2 0.77400695D-02 0.26402166D+00 0.29598337D+05 0.29598337D+05 0.29598337D+05 0.12155133D+01  1  2  2  1  6  1       -1 0.797129186131D-02 0.100000000000D+01
0.368816171251D-05 0.260534974527D-05 -.189595492667D-06 0.141206417173D-04 0.000000000000D+00  6 -1 2 25 24 21 21 4 0.77400695D-02 0.26402166D+00 0.29598337D+05 0.29598337D+05 0.29598337D+05 0.12155133D+01  1  2  3  1  6  1       -1 0.879814408896D-03 0.100000000000D+01
0.174972330077D-05 0.000000000000D+00 0.000000000000D+00 0.141206417173D-04 0.000000000000D+00  6 -1 2 25 24 21 21 4 0.77400695D-02 0.26402166D+00 0.29598337D+05 0.29598337D+05 0.29598337D+05 0.12155133D+01  1  2 15  1  6  1       -1 0.417398121775D-03 0.100000000000D+01
-.134301201175D-02 0.000000000000D+00 -.296289181781D-04 0.141206417173D-04 0.000000000000D+00  6 -1 2 25 24 21 21 4 0.28711111D-01 0.26402166D+00 0.29598337D+05 0.29598337D+05 0.29598337D+05 0.12155133D+01  1  2  5  1  6  1       -1 -.402318092095D-01 0.100000000000D+01
-.207183150784D-03 0.000000000000D+00 -.458619032656D-05 0.141206417173D-04 0.000000000000D+00  6 21 2 25 24 1 21 4 0.28711111D-01 0.26402166D+00 0.29598337D+05 0.29598337D+05 0.29598337D+05 0.12155133D+01  3  4  5  4  5  1       -1 -.719519550939D-01 0.100000000000D+01
  </mgrwgt>
  </event>
  <event>
  5     66 0.43135346E-03 0.42564201E+02 0.75467711E-02 0.11337655E+00
       -1 -1    0    0    0  501 0.00000000E+00 0.00000000E+00 0.98694355E+02 0.98694873E+02 0.32000000E+00 0.0000E+00 0.9000E+01
        2 -1    0    0  502    0 0.00000000E+00 0.00000000E+00 -.72162155E+03 0.72162162E+03 0.32000000E+00 0.0000E+00 0.9000E+01
       25  1    1    2    0    0 -.14724349E+03 0.40294538E+02 -.67684340E+02 0.20859163E+03 0.12500000E+03 0.0000E+00 0.9000E+01
       24  1    1    2    0    0 0.11666192E+03 -.69899192E+02 -.20458314E+03 0.25849058E+03 0.80419002E+02 0.0000E+00 0.9000E+01
       21  1    1    2  502  501 0.30581578E+02 0.29604654E+02 -.35065971E+03 0.35323429E+03 0.75000000E+00 0.0000E+00 0.9000E+01
#aMCatNLO 1  0  0  2  2 0.41710745D+02 0.00000000D+00  -5  6  0 0.00000000D+00 0.00000000D+00 0.00000000D+00 0.00000000D+00 0.00000000D+00
  <mgrwgt>
 0.1208809667D+00    7    4    0
 0.266871157424709D+03 0.000000000000000D+00 0.000000000000000D+00 0.266871157424709D+03
 0.266871157424709D+03 0.000000000000000D+00 0.000000000000000D+00 -.266871157424709D+03
 0.241594232530093D+03 -.147243712621835D+03 0.402943268058388D+02 0.139421768430928D+03
 0.158510255948229D+03 0.116661773796601D+03 -.698993303667115D+02 -.127436037021894D+02
 0.133637826371095D+03 0.305819388252339D+02 0.296050035608728D+02 -.126678164728739D+03
 0.000000000000000D+00 0.000000000000000D+00 -.000000000000000D+00 -.000000000000000D+00
 0.278440154965949D+03 0.000000000000000D+00 0.000000000000000D+00 0.278440154965949D+03
 0.308124882355344D+03 0.000000000000000D+00 0.000000000000000D+00 -.308124882355344D+03
 0.254221962309969D+03 -.166252091290909D+03 0.438818726779431D+02 0.139421768430928D+03
 0.149021771556049D+03 0.104871749000104D+03 -.676741403319876D+02 -.127436037021894D+02
 0.132125900076501D+03 0.203932084017559D+02 0.315279733422041D+02 -.126678164728739D+03
 0.511954033787738D+02 0.409871338890490D+02 -.773570568815966D+01 -.296847273893952D+02
 0.266871157424709D+03 0.000000000000000D+00 0.000000000000000D+00 0.266871157424709D+03
 0.266871157424709D+03 0.000000000000000D+00 0.000000000000000D+00 -.266871157424709D+03
 0.241594232530093D+03 -.147243712621835D+03 0.402943268058388D+02 0.139421768430928D+03
 0.158510255948229D+03 0.116661773796601D+03 -.698993303667115D+02 -.127436037021894D+02
 0.000000000000000D+00 0.000000000000000D+00 -.000000000000000D+00 -.000000000000000D+00
 0.133637826371095D+03 0.305819388252339D+02 0.296050035608728D+02 -.126678164728739D+03
 0.278440154965949D+03 0.000000000000000D+00 0.000000000000000D+00 0.278440154965949D+03
 0.308124882355344D+03 0.000000000000000D+00 0.000000000000000D+00 -.308124882355344D+03
 0.254221962309969D+03 -.166252091290909D+03 0.438818726779431D+02 0.139421768430928D+03
 0.149021771556049D+03 0.104871749000104D+03 -.676741403319876D+02 -.127436037021894D+02
 0.511954033787738D+02 0.409871338890490D+02 -.773570568815966D+01 -.296847273893952D+02
 0.132125900076501D+03 0.203932084017559D+02 0.315279733422041D+02 -.126678164728739D+03
0.380023805230D-03 0.000000000000D+00 0.000000000000D+00 0.101049699512D-04 0.000000000000D+00  6 -1 2 25 24 21 21 2 0.15183792D-01 0.11101874D+00 0.39574451D+05 0.39574451D+05 0.39574451D+05 0.12024723D+01  1  2  2  2  6  2        2 0.795716752939D-01 0.100000000000D+01
0.370576716674D-04 0.200544071657D-04 -.145939147465D-05 0.101049699512D-04 0.000000000000D+00  6 -1 2 25 24 21 21 4 0.15183792D-01 0.11101874D+00 0.39574451D+05 0.39574451D+05 0.39574451D+05 0.12024723D+01  1  2  3  2  6  2        2 0.112195633987D-01 0.100000000000D+01
0.197876532466D-04 0.000000000000D+00 0.000000000000D+00 0.101049699512D-04 0.000000000000D+00  6 -1 2 25 24 21 21 4 0.15183792D-01 0.11101874D+00 0.39574451D+05 0.39574451D+05 0.39574451D+05 0.12024723D+01  1  2 15  2  6  2        2 0.599090067246D-02 0.100000000000D+01
-.410774930145D-03 0.000000000000D+00 0.000000000000D+00 0.101049699512D-04 0.000000000000D+00  6 -1 2 25 24 21 21 4 0.15183792D-01 0.11101874D+00 0.39574451D+05 0.39574451D+05 0.39574451D+05 0.12024723D+01  1  2  4  2  6  2        2 -.124366026358D+00 0.100000000000D+01
-.244474253841D-02 0.000000000000D+00 -.550953158570D-03 0.101049699512D-04 0.000000000000D+00  6 -1 2 25 24 21 21 4 0.15183792D-01 0.13168008D+00 0.39574451D+05 0.39574451D+05 0.39574451D+05 0.12024723D+01  1  2  5  2  6  2        2 -.597352278982D+00 0.100000000000D+01
0.251005733753D-02 0.000000000000D+00 0.543024680099D-03 0.101049699512D-04 0.000000000000D+00  6 -1 2 25 24 21 21 4 0.15183792D-01 0.11101874D+00 0.39574451D+05 0.39574451D+05 0.39574451D+05 0.12024723D+01  1  2  6  2  6  2        2 0.759943789385D+00 0.100000000000D+01
-.570231769778D-04 0.000000000000D+00 -.139355078518D-04 0.101049699512D-04 0.000000000000D+00  6 -1 21 25 24 -2 21 4 0.15183792D-01 0.13168008D+00 0.39574451D+05 0.39574451D+05 0.39574451D+05 0.12024723D+01  3  4  5  5  5  2        2 -.141266566759D-01 0.100000000000D+01
  </mgrwgt>
  </event>
  <event>
  5     66 0.43135346E-03 0.65388481E+02 0.75467711E-02 0.11184768E+00
       -1 -1    0    0    0  501 0.00000000E+00 0.00000000E+00 0.18386719E+02 0.18389503E+02 0.32000000E+00 0.0000E+00 0.9000E+01
        2 -1    0    0  502    0 0.00000000E+00 0.00000000E+00 -.19680379E+04 0.19680379E+04 0.32000000E+00 0.0000E+00 0.9000E+01
       25  1    1    2    0    0 -.93361582E+02 0.82020148E+02 -.12414409E+04 0.12538916E+04 0.12500000E+03 0.0000E+00 0.9000E+01
       24  1    1    2    0    0 0.89936795E+02 -.16724619E+02 -.46554802E+03 0.48121774E+03 0.80419002E+02 0.0000E+00 0.9000E+01
       21  1    1    2  502  501 0.34247879E+01 -.65295529E+02 -.24266228E+03 0.25131808E+03 0.75000000E+00 0.0000E+00 0.9000E+01
#aMCatNLO 1  0  0  2  5 0.10584648D+03 0.00000000D+00  -5  6  0 0.00000000D+00 0.00000000D+00 0.00000000D+00 0.00000000D+00 0.00000000D+00
  <mgrwgt>
 0.1551605503D+00    7    4    0
 0.190232885668557D+03 0.000000000000000D+00 0.000000000000000D+00 0.190232885668557D+03
 0.190232885668557D+03 0.000000000000000D+00 0.000000000000000D+00 -.190232885668557D+03
 0.185005870348288D+03 -.933616818461442D+02 0.820220426583254D+02 -.561974460660144D+02
 0.126812318258345D+03 0.899367264441852D+02 -.167233199718289D+02 0.352967974936659D+02
 0.686475827304807D+02 0.342495540195894D+01 -.652987226864965D+02 0.209006485723484D+02
 0.000000000000000D+00 -.000000000000000D+00 -.000000000000000D+00 -.000000000000000D+00
 0.219701221041672D+03 0.000000000000000D+00 0.000000000000000D+00 0.219701221041672D+03
 0.323374065064532D+03 0.000000000000000D+00 0.000000000000000D+00 -.323374065064532D+03
 0.173093428377958D+03 -.462522935181529D+02 0.950731683894225D+02 -.561974460660144D+02
 0.154498557533321D+03 0.126944292043156D+03 -.647079051270607D+01 0.352967974936659D+02
 0.673227910307235D+02 0.213123993634604D+02 -.603432076939404D+02 0.209006485723484D+02
 0.148160509164201D+03 -.102004397888463D+03 -.282591701827760D+02 -.103672844022861D+03
 0.190232885668557D+03 0.000000000000000D+00 0.000000000000000D+00 0.190232885668557D+03
 0.190232885668557D+03 0.000000000000000D+00 0.000000000000000D+00 -.190232885668557D+03
 0.185005870348288D+03 -.933616818461442D+02 0.820220426583254D+02 -.561974460660144D+02
 0.126812318258345D+03 0.899367264441852D+02 -.167233199718289D+02 0.352967974936659D+02
 0.000000000000000D+00 -.000000000000000D+00 -.000000000000000D+00 -.000000000000000D+00
 0.686475827304807D+02 0.342495540195894D+01 -.652987226864965D+02 0.209006485723484D+02
 0.219701221041672D+03 0.000000000000000D+00 0.000000000000000D+00 0.219701221041672D+03
 0.323374065064532D+03 0.000000000000000D+00 0.000000000000000D+00 -.323374065064532D+03
 0.173093428377958D+03 -.462522935181529D+02 0.950731683894225D+02 -.561974460660144D+02
 0.154498557533321D+03 0.126944292043156D+03 -.647079051270607D+01 0.352967974936659D+02
 0.148160509164201D+03 -.102004397888463D+03 -.282591701827760D+02 -.103672844022861D+03
 0.673227910307235D+02 0.213123993634604D+02 -.603432076939404D+02 0.209006485723484D+02
0.158887005010D-03 0.000000000000D+00 0.000000000000D+00 0.423889780911D-05 0.000000000000D+00  6 -1 2 25 24 21 21 2 0.28289422D-02 0.30277528D+00 0.33024632D+05 0.33024632D+05 0.33024632D+05 0.12105443D+01  1  2  2  2  6  2        2 0.841832983970D-01 0.100000000000D+01
0.696588702732D-06 0.838469761091D-05 -.610167935146D-06 0.423889780911D-05 0.000000000000D+00  6 -1 2 25 24 21 21 4 0.28289422D-02 0.30277528D+00 0.33024632D+05 0.33024632D+05 0.33024632D+05 0.12105443D+01  1  2  3  2  6  2        2 0.540848169398D-03 0.100000000000D+01
0.446040746798D-05 0.000000000000D+00 0.000000000000D+00 0.423889780911D-05 0.000000000000D+00  6 -1 2 25 24 21 21 4 0.28289422D-02 0.30277528D+00 0.33024632D+05 0.33024632D+05 0.33024632D+05 0.12105443D+01  1  2 15  2  6  2        2 0.346316729566D-02 0.100000000000D+01
-.100435420845D-03 0.000000000000D+00 0.000000000000D+00 0.423889780911D-05 0.000000000000D+00  6 -1 2 25 24 21 21 4 0.28289422D-02 0.30277528D+00 0.33024632D+05 0.33024632D+05 0.33024632D+05 0.12105443D+01  1  2  4  2  6  2        2 -.779804686663D-01 0.100000000000D+01
-.197107090503D-03 0.000000000000D+00 -.753717802222D-04 0.423889780911D-05 0.000000000000D+00  6 -1 2 25 24 21 21 4 0.28289422D-02 0.53241673D+00 0.33024632D+05 0.33024632D+05 0.33024632D+05 0.12105443D+01  1  2  5  2  6  2        2 -.219559303309D-01 0.100000000000D+01
0.215066891385D-03 0.000000000000D+00 0.647764265022D-04 0.423889780911D-05 0.000000000000D+00  6 -1 2 25 24 21 21 4 0.28289422D-02 0.30277528D+00 0.33024632D+05 0.33024632D+05 0.33024632D+05 0.12105443D+01  1  2  6  2  6  2        2 0.166983090664D+00 0.100000000000D+01
-.841306707161D-05 0.000000000000D+00 -.469284485534D-05 0.423889780911D-05 0.000000000000D+00  6 -1 21 25 24 -2 21 4 0.28289422D-02 0.53241673D+00 0.33024632D+05 0.33024632D+05 0.33024632D+05 0.12105443D+01  3  4  5  5  5  2        2 -.734552414010D-04 0.100000000000D+01
  </mgrwgt>
  </event>
  <event>
  6     66 -.43135346E-03 0.21576263E+02 0.75467711E-02 0.12198639E+00
       -1 -1    0    0    0  501 0.00000000E+00 0.00000000E+00 0.47245920E+02 0.47247004E+02 0.32000000E+00 0.0000E+00 0.9000E+01
        2 -1    0    0  502    0 -.00000000E+00 -.00000000E+00 -.41402318E+03 0.41402330E+03 0.32000000E+00 0.0000E+00 0.9000E+01
       25  1    1    2    0    0 -.33757581E+02 0.57847747E+02 -.21604593E+03 0.25843138E+03 0.12500000E+03 0.0000E+00 0.9000E+01
       24  1    1    2    0    0 0.23547451E+02 -.36483948E+02 -.75140701E+02 0.11831696E+03 0.80419002E+02 0.0000E+00 0.9000E+01
       21  1    1    2  503  501 0.17353864E+01 -.26955370E+02 -.61140590E+02 0.66845626E+02 0.75000000E+00 0.0000E+00 0.9000E+01
       21  1    1    2  502  503 0.84747436E+01 0.55915712E+01 -.14450041E+02 0.17676344E+02 0.75000000E+00 0.0000E+00 0.9000E+01
#aMCatNLO 2  0  0  5  1 0.10498416D+02 0.00000000D+00  -5  6  0 0.00000000D+00 0.00000000D+00 0.00000000D+00 0.00000000D+00 0.00000000D+00
  <mgrwgt>
 -.5160516879D+00    4    2    0
 0.139861304267174D+03 0.000000000000000D+00 0.000000000000000D+00 0.139861304267174D+03
 0.139861304267174D+03 -.000000000000000D+00 -.000000000000000D+00 -.139861304267174D+03
 0.145333143295506D+03 -.362796514760702D+02 0.631249572211238D+02 -.139910401599862D+02
 0.956801519906120D+02 0.218650032938867D+02 -.329635739765340D+02 0.335082072368544D+02
 0.387093132482293D+02 0.144146481821835D+02 -.301613832445899D+02 -.195171670768682D+02
 0.000000000000000D+00 0.000000000000000D+00 0.000000000000000D+00 0.000000000000000D+00
 0.139861304267174D+03 0.000000000000000D+00 0.000000000000000D+00 0.139861304267174D+03
 0.139861304267174D+03 -.000000000000000D+00 -.000000000000000D+00 -.139861304267174D+03
 0.142818227777130D+03 -.336932509688750D+02 0.577131416890643D+02 -.174929786179097D+02
 0.966081135859938D+02 0.235909519359622D+02 -.365749696759768D+02 0.311713046924609D+02
 0.297724217399209D+02 0.126065187042038D+01 -.267947587093177D+02 -.129169949613200D+02
 0.105238454313028D+02 0.884164716249248D+01 0.565658669623017D+01 -.761331113231250D+00
-.252714008005D-03 0.000000000000D+00 0.000000000000D+00 0.203560153671D-04 0.000000000000D+00  6 -1 2 25 24 21 21 4 0.72686960D-02 0.63695966D-01 0.18293192D+05 0.18293192D+05 0.18293192D+05 0.12381140D+01  1  2 13  3  6  5       21 -.494004720779D+00 0.100000000000D+01
-.170550780973D-03 0.000000000000D+00 0.000000000000D+00 0.203560153671D-04 0.000000000000D+00  6 -1 2 25 24 21 21 4 0.72686960D-02 0.63695966D-01 0.18293192D+05 0.18293192D+05 0.18293192D+05 0.12381140D+01  1  2 13  3  6  5       21 -.333392246826D+00 0.100000000000D+01
-.177846986528D-04 0.000000000000D+00 0.000000000000D+00 0.203891021546D-04 0.000000000000D+00  6 -1 2 25 24 21 21 4 0.72686960D-02 0.63695966D-01 0.17916872D+05 0.17916872D+05 0.17916872D+05 0.12391198D+01  1  2  8  3  6  5       21 -.348555067490D-01 0.100000000000D+01
0.177103142204D-03 0.000000000000D+00 0.000000000000D+00 0.203891021546D-04 0.695507484785D-06  6 -1 2 25 24 21 21 4 0.72686960D-02 0.63695966D-01 0.18293192D+05 0.18293192D+05 0.18293192D+05 0.12381140D+01  1  2  1  3  6  5       21 0.346200786431D+00 0.100000000000D+01
  </mgrwgt>
  </event>
  <event>
  5     66 -.43135346E-03 0.26481218E+02 0.75467711E-02 0.11925693E+00
       -1 -1    0    0    0  501 0.00000000E+00 0.00000000E+00 0.22044888E+02 0.22047211E+02 0.32000000E+00 0.0000E+00 0.9000E+01
        2 -1    0    0  502    0 0.00000000E+00 0.00000000E+00 -.25570625E+04 0.25570625E+04 0.32000000E+00 0.0000E+00 0.9000E+01
       25  1    1    2    0    0 -.64742536E+02 0.21377822E+02 -.36253766E+03 0.38949603E+03 0.12500000E+03 0.0000E+00 0.9000E+01
       24  1    1    2    0    0 0.57017842E+02 -.46707160E+02 -.34272208E+03 0.35966405E+03 0.80419002E+02 0.0000E+00 0.9000E+01
       21  1    1    2  502  501 0.77246941E+01 0.25329338E+02 -.18297579E+04 0.18299497E+04 0.75000000E+00 0.0000E+00 0.9000E+01
#aMCatNLO 1  0  0  1  2 0.27306659D+03 0.00000000D+00  -5  6  0 0.00000000D+00 0.00000000D+00 0.00000000D+00 0.00000000D+00 0.00000000D+00
  <mgrwgt>
 -.7815930497D+00    7    4    0
 0.237430364731404D+03 0.000000000000000D+00 0.000000000000000D+00 0.237430364731404D+03
 0.237430364731404D+03 0.000000000000000D+00 0.000000000000000D+00 -.237430364731404D+03
 0.180081944560653D+03 -.647425645807097D+02 0.213777299939102D+02 0.110253796980268D+03
 0.123839806851292D+03 0.570178229385520D+02 -.467072238805228D+02 0.586215396532484D+02
 0.170938978050863D+03 0.772474164215769D+01 0.253294938866126D+02 -.168875336633517D+03
 0.000000000000000D+00 0.000000000000000D+00 -.000000000000000D+00 0.000000000000000D+00
 0.293653140738259D+03 0.000000000000000D+00 0.000000000000000D+00 0.293653140738259D+03
 0.242080559974475D+03 0.000000000000000D+00 0.000000000000000D+00 -.242080559974475D+03
 0.184774217427477D+03 -.751514640118790D+02 0.266996092526004D+02 0.110253796980268D+03
 0.119473741768379D+03 0.500763854032160D+02 -.431581942555291D+02 0.586215396532484D+02
 0.171588803266898D+03 -.204715643595156D+01 0.303256860435084D+02 -.168875336633517D+03
 0.598969382499808D+02 0.271222350446146D+02 -.138671010405797D+02 0.515725807637842D+02
 0.237430364731404D+03 0.000000000000000D+00 0.000000000000000D+00 0.237430364731404D+03
 0.237430364731404D+03 0.000000000000000D+00 0.000000000000000D+00 -.237430364731404D+03
 0.180081944560653D+03 -.647425645807097D+02 0.213777299939102D+02 0.110253796980268D+03
 0.123839806851292D+03 0.570178229385520D+02 -.467072238805228D+02 0.586215396532484D+02
 0.000000000000000D+00 0.000000000000000D+00 -.000000000000000D+00 0.000000000000000D+00
 0.170938978050863D+03 0.772474164215769D+01 0.253294938866126D+02 -.168875336633517D+03
 0.293653140738259D+03 0.000000000000000D+00 0.000000000000000D+00 0.293653140738259D+03
 0.242080559974475D+03 0.000000000000000D+00 0.000000000000000D+00 -.242080559974475D+03
 0.184774217427477D+03 -.751514640118790D+02 0.266996092526004D+02 0.110253796980268D+03
 0.119473741768379D+03 0.500763854032160D+02 -.431581942555291D+02 0.586215396532484D+02
 0.598969382499808D+02 0.271222350446146D+02 -.138671010405797D+02 0.515725807637842D+02
 0.171588803266898D+03 -.204715643595156D+01 0.303256860435084D+02 -.168875336633517D+03
0.399308151867D-03 0.000000000000D+00 0.000000000000D+00 0.592958111618D-04 0.000000000000D+00  6 -1 2 25 24 21 21 2 0.33917015D-02 0.39339441D+00 0.19314453D+05 0.19314453D+05 0.19314453D+05 0.12354972D+01  1  2  2  1  6  1       -1 0.832250582175D-01 0.100000000000D+01
0.808848294766D-04 0.210720700964D-04 -.153344844342D-05 0.592958111618D-04 0.000000000000D+00  6 -1 2 25 24 21 21 4 0.33917015D-02 0.39339441D+00 0.19314453D+05 0.19314453D+05 0.19314453D+05 0.12354972D+01  1  2  3  1  6  1       -1 0.257333604941D-01 0.100000000000D+01
0.193595264619D-04 0.000000000000D+00 0.000000000000D+00 0.592958111618D-04 0.000000000000D+00  6 -1 2 25 24 21 21 4 0.33917015D-02 0.39339441D+00 0.19314453D+05 0.19314453D+05 0.19314453D+05 0.12354972D+01  1  2 15  1  6  1       -1 0.615919791958D-02 0.100000000000D+01
-.255674067452D-02 0.000000000000D+00 0.000000000000D+00 0.592958111618D-04 0.000000000000D+00  6 -1 2 25 24 21 21 4 0.33917015D-02 0.39339441D+00 0.19314453D+05 0.19314453D+05 0.19314453D+05 0.12354972D+01  1  2  4  1  6  1       -1 -.813422367247D+00 0.100000000000D+01
-.308129679489D-02 0.000000000000D+00 -.432992687920D-03 0.592958111618D-04 0.000000000000D+00  6 -1 2 25 24 21 21 4 0.42920012D-02 0.39339441D+00 0.19314453D+05 0.19314453D+05 0.19314453D+05 0.12354972D+01  1  2  5  1  6  1       -1 -.694019131021D+00 0.100000000000D+01
0.310842248893D-02 0.000000000000D+00 0.421264743506D-03 0.592958111618D-04 0.000000000000D+00  6 -1 2 25 24 21 21 4 0.33917015D-02 0.39339441D+00 0.19314453D+05 0.19314453D+05 0.19314453D+05 0.12354972D+01  1  2  6  1  6  1       -1 0.988938927029D+00 0.100000000000D+01
-.931676372660D-04 0.000000000000D+00 -.140155988305D-04 0.592958111618D-04 0.000000000000D+00  6 21 2 25 24 1 21 4 0.42920012D-02 0.39339441D+00 0.19314453D+05 0.19314453D+05 0.19314453D+05 0.12354972D+01  3  4  5  4  5  1       -1 -.378208095068D+00 0.100000000000D+01
  </mgrwgt>
  </event>
  <event>
  5     66 0.43135346E-03 0.39476386E+02 0.75467711E-02 0.11894293E+00
       -1 -1    0    0    0  501 0.00000000E+00 0.00000000E+00 0.76725845E+02 0.76726513E+02 0.32000000E+00 0.0000E+00 0.9000E+01
        2 -1    0    0  502    0 0.00000000E+00 0.00000000E+00 -.32765383E+03 0.32765399E+03 0.32000000E+00 0.0000E+00 0.9000E+01
       25  1    1    2    0    0 -.68996623E+02 -.38743667E+01 -.10285333E+03 0.17600952E+03 0.12500000E+03 0.0000E+00 0.9000E+01
       24  1    1    2    0    0 0.10550675E+03 -.11123616E+02 -.10208769E+03 0.16776329E+03 0.80419002E+02 0.0000E+00 0.9000E+01
       21  1    1    2  502  501 -.36510122E+02 0.14997983E+02 -.45986971E+02 0.60607694E+02 0.75000000E+00 0.0000E+00 0.9000E+01
#aMCatNLO 1  0  0  2  2 0.32448060D+01 0.00000000D+00  -5  6  0 0.00000000D+00 0.00000000D+00 0.00000000D+00 0.00000000D+00 0.00000000D+00
  <mgrwgt>
 0.1408814465D+00    6    4    0
 0.158554986880168D+03 0.000000000000000D+00 0.000000000000000D+00 0.158554986880168D+03
 0.158554986880168D+03 0.000000000000000D+00 0.000000000000000D+00 -.158554986880168D+03
 0.143059646888843D+03 -.689938528381516D+02 -.387550472845218D+01 0.811734572428946D+01
 0.133153252343261D+03 0.105509324028915D+03 -.111246751297459D+02 0.256842392071265D+01
 0.408970745282329D+02 -.365154711907638D+02 0.150001798581981D+02 -.106857696450021D+02
 0.000000000000000D+00 0.000000000000000D+00 -.000000000000000D+00 0.000000000000000D+00
 0.163622235010771D+03 0.000000000000000D+00 0.000000000000000D+00 0.163622235010771D+03
 0.159083591370331D+03 0.000000000000000D+00 0.000000000000000D+00 -.159083591370331D+03
 0.143284092212980D+03 -.695208359854020D+02 -.250861387640425D+01 0.811734572428946D+01
 0.132665644569058D+03 0.105020114523819D+03 -.985576169154523D+01 0.256842392071265D+01
 0.411768376709151D+02 -.366665189094725D+02 0.153919679941241D+02 -.106857696450021D+02
 0.557925192814943D+01 0.116724037105572D+01 -.302759242617464D+01 0.453864364044003D+01
 0.158554986880168D+03 0.000000000000000D+00 0.000000000000000D+00 0.158554986880168D+03
 0.158554986880168D+03 0.000000000000000D+00 0.000000000000000D+00 -.158554986880168D+03
 0.143059646888843D+03 -.689938528381516D+02 -.387550472845218D+01 0.811734572428946D+01
 0.133153252343261D+03 0.105509324028915D+03 -.111246751297459D+02 0.256842392071265D+01
 0.000000000000000D+00 0.000000000000000D+00 -.000000000000000D+00 0.000000000000000D+00
 0.408970745282329D+02 -.365154711907638D+02 0.150001798581981D+02 -.106857696450021D+02
 0.163622235010771D+03 0.000000000000000D+00 0.000000000000000D+00 0.163622235010771D+03
 0.159083591370331D+03 0.000000000000000D+00 0.000000000000000D+00 -.159083591370331D+03
 0.143284092212980D+03 -.695208359854020D+02 -.250861387640425D+01 0.811734572428946D+01
 0.132665644569058D+03 0.105020114523819D+03 -.985576169154523D+01 0.256842392071265D+01
 0.557925192814943D+01 0.116724037105572D+01 -.302759242617464D+01 0.453864364044003D+01
 0.411768376709151D+02 -.366665189094725D+02 0.153919679941241D+02 -.106857696450021D+02
0.159279032390D-03 0.000000000000D+00 0.000000000000D+00 0.132224866582D-04 0.000000000000D+00  6 -1 2 25 24 21 21 2 0.11804040D-01 0.50408345D-01 0.24874657D+05 0.24874657D+05 0.24874657D+05 0.12235317D+01  1  2  2  2  6  2        2 0.122758384841D+00 0.100000000000D+01
0.144818529000D-04 0.840538546413D-05 -.611673423509D-06 0.132224866582D-04 0.000000000000D+00  6 -1 2 25 24 21 21 4 0.11804040D-01 0.50408345D-01 0.24874657D+05 0.24874657D+05 0.24874657D+05 0.12235317D+01  1  2  3  2  6  2        2 0.167088735887D-01 0.100000000000D+01
0.571006932152D-05 0.000000000000D+00 0.000000000000D+00 0.132224866582D-04 0.000000000000D+00  6 -1 2 25 24 21 21 4 0.11804040D-01 0.50408345D-01 0.24874657D+05 0.24874657D+05 0.24874657D+05 0.12235317D+01  1  2 15  2  6  2        2 0.658816431398D-02 0.100000000000D+01
-.122873007173D-03 0.000000000000D+00 0.000000000000D+00 0.132224866582D-04 0.000000000000D+00  6 -1 2 25 24 21 21 4 0.11804040D-01 0.50408345D-01 0.24874657D+05 0.24874657D+05 0.24874657D+05 0.12235317D+01  1  2  4  2  6  2        2 -.141768429668D+00 0.100000000000D+01
0.123162491256D-03 0.000000000000D+00 0.000000000000D+00 0.132224866582D-04 0.368278192481D-05  6 -1 2 25 24 21 21 4 0.12181284D-01 0.50576401D-01 0.25393332D+05 0.25393332D+05 0.25393332D+05 0.12225714D+01  1  2 11  2  6  2        2 0.134514904539D+00 0.100000000000D+01
0.622119319302D-06 0.000000000000D+00 0.000000000000D+00 0.132017391812D-04 0.982850068432D-08  6 -1 21 25 24 -2 21 4 0.12181284D-01 0.50576401D-01 0.25393332D+05 0.25393332D+05 0.25393332D+05 0.12225714D+01  3  4 11  5  5  2        2 0.207954885053D-02 0.100000000000D+01
  </mgrwgt>
  </event>
  <event>
  5     66 -.43135346E-03 0.20244705E+02 0.75467711E-02 0.12424400E+00
       -1 -1    0    0    0  501 0.00000000E+00 0.00000000E+00 0.88018654E+01 0.88076804E+01 0.32000000E+00 0.0000E+00 0.9000E+01
        2 -1    0    0  502    0 -.00000000E+00 -.00000000E+00 -.16792375E+04 0.16792375E+04 0.32000000E+00 0.0000E+00 0.9000E+01
       25  1    1    2    0    0 -.26295245E+02 0.42732894E+02 -.81614322E+03 0.82718335E+03 0.12500000E+03 0.0000E+00 0.9000E+01
       24  1    1    2    0    0 0.17245736E+02 -.24637485E+02 -.70088779E+03 0.70612700E+03 0.80419002E+02 0.0000E+00 0.9000E+01
       21  1    1    2  502  501 0.90495087E+01 -.18095410E+02 -.15340458E+03 0.15473483E+03 0.75000000E+00 0.0000E+00 0.9000E+01
#aMCatNLO 1  0  0  5  2 0.19719140D+01 0.00000000D+00  -5  6  0 0.00000000D+00 0.00000000D+00 0.00000000D+00 0.00000000D+00 0.00000000D+00
  <mgrwgt>
 -.1221578145D+01   20    2    0
 0.121595048546912D+03 0.000000000000000D+00 0.000000000000000D+00 0.121595048546912D+03
 0.121595048546912D+03 -.000000000000000D+00 -.000000000000000D+00 -.121595048546912D+03
 0.135732855134065D+03 -.262986814729156D+02 0.427397662534724D+02 0.167361792602033D+02
 0.871167059730966D+02 0.172435304099655D+02 -.246330740177858D+02 -.147640383590435D+02
 0.203405359866634D+02 0.905515106295008D+01 -.181066922356866D+02 -.197214090115986D+01
 0.000000000000000D+00 0.000000000000000D+00 -.000000000000000D+00 0.000000000000000D+00
 0.121595048546912D+03 0.000000000000000D+00 0.000000000000000D+00 0.121595048546912D+03
 0.121595048546912D+03 -.000000000000000D+00 -.000000000000000D+00 -.121595048546912D+03
 0.135626921784445D+03 -.261737975892513D+02 0.424900482718521D+02 0.167089805295408D+02
 0.871810603671493D+02 0.173237448847184D+02 -.247934709893107D+02 -.147815084426926D+02
 0.541479225991186D+01 0.369785701028287D+01 -.364974377439054D+01 -.152486036436154D+01
 0.149673226823184D+02 0.515219569425003D+01 -.140468335081509D+02 -.402611722486623D+00
0.329654766129D-03 0.000000000000D+00 0.000000000000D+00 0.601202393688D-04 0.000000000000D+00  6 -1 2 25 24 21 21 2 0.13545828D-02 0.25834468D+00 0.14495959D+05 0.14495959D+05 0.14495959D+05 0.12495184D+01  1  2  2  3  6  5       21 0.751031929040D+00 0.100000000000D+01
0.693861049960D-04 0.173963599466D-04 -.126596110203D-05 0.601202393688D-04 0.000000000000D+00  6 -1 2 25 24 21 21 4 0.13545828D-02 0.25834468D+00 0.14495959D+05 0.14495959D+05 0.14495959D+05 0.12495184D+01  1  2  3  3  6  5       21 0.246806636132D+00 0.100000000000D+01
0.122658197258D-04 0.000000000000D+00 0.000000000000D+00 0.601202393688D-04 0.000000000000D+00  6 -1 2 25 24 21 21 4 0.13545828D-02 0.25834468D+00 0.14495959D+05 0.14495959D+05 0.14495959D+05 0.12495184D+01  1  2 15  3  6  5       21 0.436295668433D-01 0.100000000000D+01
0.203801607082D-06 0.000000000000D+00 0.000000000000D+00 0.601253364515D-04 0.000000000000D+00  6 -1 2 25 24 21 21 4 0.13545828D-02 0.25834468D+00 0.14480525D+05 0.14480525D+05 0.14480525D+05 0.12495713D+01  1  2 12  3  6  5       21 0.725026536178D-03 0.100000000000D+01
0.203493044508D-06 0.000000000000D+00 0.000000000000D+00 0.601253364515D-04 0.000000000000D+00  6 -1 2 25 24 21 21 4 0.13545828D-02 0.25834468D+00 0.14480525D+05 0.14480525D+05 0.14480525D+05 0.12495713D+01  1  2 12  3  6  5       21 0.723928821310D-03 0.100000000000D+01
-.236141742565D-02 0.000000000000D+00 0.000000000000D+00 0.601202393688D-04 0.000000000000D+00  6 -1 2 25 24 21 21 4 0.13545828D-02 0.25834468D+00 0.14495959D+05 0.14495959D+05 0.14495959D+05 0.12495184D+01  1  2  4  3  6  5       21 -.839957065411D+01 0.100000000000D+01
-.333448144799D-03 0.000000000000D+00 0.000000000000D+00 0.601202393688D-04 0.000000000000D+00  6 -1 2 25 24 21 21 4 0.13545828D-02 0.25834468D+00 0.14495959D+05 0.14495959D+05 0.14495959D+05 0.12495184D+01  1  2  5  3  6  5       21 -.118607630371D+01 0.100000000000D+01
0.230251911884D-02 0.000000000000D+00 -.000000000000D+00 0.601202393688D-04 0.000000000000D+00  6 -1 2 25 24 21 21 4 0.13545828D-02 0.25834468D+00 0.14495959D+05 0.14495959D+05 0.14495959D+05 0.12495184D+01  1  2  6  3  6  5       21 0.819006915554D+01 0.100000000000D+01
0.278597245134D-07 0.000000000000D+00 0.000000000000D+00 0.601253364515D-04 0.000000000000D+00  6 -1 2 25 24 1 -1 4 0.13545828D-02 0.25834468D+00 0.14480525D+05 0.14480525D+05 0.14480525D+05 0.12495713D+01  1  2 12  6  6  5       21 0.991112869620D-04 0.100000000000D+01
0.278288825043D-07 0.000000000000D+00 0.000000000000D+00 0.601253364515D-04 0.000000000000D+00  6 -1 2 25 24 1 -1 4 0.13545828D-02 0.25834468D+00 0.14480525D+05 0.14480525D+05 0.14480525D+05 0.12495713D+01  1  2 12  6  6  5       21 0.990015661634D-04 0.100000000000D+01
-.611265787704D-04 0.000000000000D+00 0.000000000000D+00 0.601202393688D-04 0.000000000000D+00  6 -1 2 25 24 1 -1 4 0.13545828D-02 0.25834468D+00 0.14495959D+05 0.14495959D+05 0.14495959D+05 0.12495184D+01  1  2  5  6  6  5       21 -.217427470319D+00 0.100000000000D+01
0.278597245134D-07 0.000000000000D+00 0.000000000000D+00 0.601253364515D-04 0.000000000000D+00  6 -1 2 25 24 2 -2 4 0.13545828D-02 0.25834468D+00 0.14480525D+05 0.14480525D+05 0.14480525D+05 0.12495713D+01  1  2 12  7  6  5       21 0.991112869620D-04 0.100000000000D+01
0.278288825043D-07 0.000000000000D+00 0.000000000000D+00 0.601253364515D-04 0.000000000000D+00  6 -1 2 25 24 2 -2 4 0.13545828D-02 0.25834468D+00 0.14480525D+05 0.14480525D+05 0.14480525D+05 0.12495713D+01  1  2 12  7  6  5       21 0.990015661634D-04 0.100000000000D+01
-.611265787704D-04 0.000000000000D+00 0.000000000000D+00 0.601202393688D-04 0.000000000000D+00  6 -1 2 25 24 2 -2 4 0.13545828D-02 0.25834468D+00 0.14495959D+05 0.14495959D+05 0.14495959D+05 0.12495184D+01  1  2  5  7  6  5       21 -.217427470319D+00 0.100000000000D+01
0.278597245134D-07 0.000000000000D+00 0.000000000000D+00 0.601253364515D-04 0.000000000000D+00  6 -1 2 25 24 3 -3 4 0.13545828D-02 0.25834468D+00 0.14480525D+05 0.14480525D+05 0.14480525D+05 0.12495713D+01  1  2 12  8  6  5       21 0.991112869620D-04 0.100000000000D+01
0.278597245134D-07 0.000000000000D+00 0.000000000000D+00 0.601253364515D-04 0.000000000000D+00  6 -1 2 25 24 4 -4 4 0.13545828D-02 0.25834468D+00 0.14480525D+05 0.14480525D+05 0.14480525D+05 0.12495713D+01  1  2 12  8  6  5       21 0.991112869620D-04 0.100000000000D+01
0.278288825043D-07 0.000000000000D+00 0.000000000000D+00 0.601253364515D-04 0.000000000000D+00  6 -1 2 25 24 3 -3 4 0.13545828D-02 0.25834468D+00 0.14480525D+05 0.14480525D+05 0.14480525D+05 0.12495713D+01  1  2 12  8  6  5       21 0.990015661634D-04 0.100000000000D+01
0.278288825043D-07 0.000000000000D+00 0.000000000000D+00 0.601253364515D-04 0.000000000000D+00  6 -1 2 25 24 4 -4 4 0.13545828D-02 0.25834468D+00 0.14480525D+05 0.14480525D+05 0.14480525D+05 0.12495713D+01  1  2 12  8  6  5       21 0.990015661634D-04 0.100000000000D+01
-.611265787704D-04 0.000000000000D+00 0.000000000000D+00 0.601202393688D-04 0.000000000000D+00  6 -1 2 25 24 3 -3 4 0.13545828D-02 0.25834468D+00 0.14495959D+05 0.14495959D+05 0.14495959D+05 0.12495184D+01  1  2  5  8  6  5       21 -.217427470319D+00 0.100000000000D+01
-.611265787704D-04 0.000000000000D+00 0.000000000000D+00 0.601202393688D-04 0.000000000000D+00  6 -1 2 25 24 4 -4 4 0.13545828D-02 0.25834468D+00 0.14495959D+05 0.14495959D+05 0.14495959D+05 0.12495184D+01  1  2  5  8  6  5       21 -.217427470319D+00 0.100000000000D+01
  </mgrwgt>
  </event>
  <event>
  5     66 0.43135346E-03 0.26917727E+02 0.75467711E-02 0.10810066E+00
       -1 -1    0    0    0  501 0.00000000E+00 0.00000000E+00 0.16678471E+02 0.16681540E+02 0.32000000E+00 0.0000E+00 0.9000E+01
        2 -1    0    0  502    0 0.00000000E+00 0.00000000E+00 -.12393059E+04 0.12393060E+04 0.32000000E+00 0.0000E+00 0.9000E+01
       25  1    1    2    0    0 0.70937474E+02 -.32717091E+01 -.54889900E+03 0.56741337E+03 0.12500000E+03 0.0000E+00 0.9000E+01
       24  1    1    2    0    0 -.54978213E+02 -.18400206E+02 -.35121802E+03 0.36494175E+03 0.80419002E+02 0.0000E+00 0.9000E+01
       21  1    1    2  502  501 -.15959260E+02 0.21671915E+02 -.32251045E+03 0.32363239E+03 0.75000000E+00 0.0000E+00 0.9000E+01
#aMCatNLO 1  0  0  2  5 0.65368585D+00 0.00000000D+00  -5  6  0 0.00000000D+00 0.00000000D+00 0.00000000D+00 0.00000000D+00 0.00000000D+00
  <mgrwgt>
 0.3492479204D+00    3    2    0
 0.143776497454501D+03 0.000000000000000D+00 0.000000000000000D+00 0.143776497454501D+03
 0.143776497454501D+03 0.000000000000000D+00 0.000000000000000D+00 -.143776497454501D+03
 0.144548635250621D+03 0.709387340858339D+02 -.327342060516266D+01 0.150428945571728D+02
 0.100689291250611D+03 -.549773353159450D+02 -.184013981782971D+02 0.176067761052869D+02
 0.423150684077707D+02 -.159613987698889D+02 0.216748187834597D+02 -.326496706624597D+02
 0.000000000000000D+00 -.000000000000000D+00 -.000000000000000D+00 0.000000000000000D+00
 0.804749104620930D+03 0.000000000000000D+00 0.000000000000000D+00 0.804749104620930D+03
 0.216626800197190D+03 0.000000000000000D+00 0.000000000000000D+00 -.216626800197190D+03
 0.252145306027060D+03 0.216902480515507D+03 0.260630125089435D+02 0.150428945571728D+02
 0.834464883392595D+02 0.127755226029824D+02 -.478413201977319D+01 0.176067761052869D+02
 0.462498053737785D+02 0.166260935865349D+02 0.282243957383873D+02 -.326496706624597D+02
 0.639534305078023D+03 -.246304096705024D+03 -.495032762275576D+02 0.588122304423740D+03
0.187515131522D-03 0.000000000000D+00 0.000000000000D+00 0.327412660380D-04 0.000000000000D+00  6 -1 2 25 24 21 21 2 0.25661579D-02 0.19066269D+00 0.18200634D+05 0.18200634D+05 0.18200634D+05 0.12383592D+01  1  2  2  2  6  2        2 0.286271237280D+00 0.100000000000D+01
0.209474200201D-04 0.989544535240D-05 -.720107478911D-06 0.327412660380D-04 0.000000000000D+00  6 -1 2 25 24 21 21 4 0.25661579D-02 0.19066269D+00 0.18200634D+05 0.18200634D+05 0.18200634D+05 0.12383592D+01  1  2  3  2  6  2        2 0.490416644320D-01 0.100000000000D+01
0.595213669589D-05 0.000000000000D+00 0.000000000000D+00 0.327412660380D-04 0.000000000000D+00  6 -1 2 25 24 21 21 4 0.25661579D-02 0.19066269D+00 0.18200634D+05 0.18200634D+05 0.18200634D+05 0.12383592D+01  1  2 15  2  6  2        2 0.139350187380D-01 0.100000000000D+01
  </mgrwgt>
  </event>
  <event>
  5     66 -.43135346E-03 0.43214977E+02 0.75467711E-02 0.11624930E+00
       -1 -1    0    0    0  501 0.00000000E+00 0.00000000E+00 0.53525790E+02 0.53526747E+02 0.32000000E+00 0.0000E+00 0.9000E+01
        2 -1    0    0  502    0 0.00000000E+00 0.00000000E+00 -.69717635E+03 0.69717643E+03 0.32000000E+00 0.0000E+00 0.9000E+01
       25  1    1    2    0    0 0.90476953E+02 0.27227436E+02 -.30196446E+03 0.34019839E+03 0.12500000E+03 0.0000E+00 0.9000E+01
       24  1    1    2    0    0 -.12154714E+03 0.28064302E+01 -.33682205E+03 0.36701212E+03 0.80419002E+02 0.0000E+00 0.9000E+01
       21  1    1    2  502  501 0.31070190E+02 -.30033866E+02 -.48640472E+01 0.43492658E+02 0.75000000E+00 0.0000E+00 0.9000E+01
#aMCatNLO 1  0  0  1  2 0.23119170D+02 0.00000000D+00  -5  6  0 0.00000000D+00 0.00000000D+00 0.00000000D+00 0.00000000D+00 0.00000000D+00
  <mgrwgt>
 -.1742814435D+00    7    4    0
 0.193176866718658D+03 0.000000000000000D+00 0.000000000000000D+00 0.193176866718658D+03
 0.193176866718658D+03 0.000000000000000D+00 0.000000000000000D+00 -.193176866718658D+03
 0.157959866166007D+03 0.904763408320404D+02 0.272280278800314D+02 -.199746230650668D+02
 0.151989666140143D+03 -.121547731868772D+03 0.280699943396607D+01 -.430338505220758D+02
 0.764042011311664D+02 0.310713910367320D+02 -.300350273139974D+02 0.630084735871426D+02
 0.000000000000000D+00 -.000000000000000D+00 0.000000000000000D+00 0.000000000000000D+00
 0.251368195826026D+03 0.000000000000000D+00 0.000000000000000D+00 0.251368195826026D+03
 0.195832421428135D+03 0.000000000000000D+00 0.000000000000000D+00 -.195832421428135D+03
 0.159282680758318D+03 0.948333493584205D+02 0.188048576816836D+02 -.199746230650668D+02
 0.148770691224737D+03 -.117417089701950D+03 -.517854885885041D+01 -.430338505220758D+02
 0.789914618333739D+02 0.332055947715813D+02 -.341609685848814D+02 0.630084735871426D+02
 0.601557834377320D+02 -.106218544280521D+02 0.205346597620482D+02 0.555357743978915D+02
 0.193176866718658D+03 0.000000000000000D+00 0.000000000000000D+00 0.193176866718658D+03
 0.193176866718658D+03 0.000000000000000D+00 0.000000000000000D+00 -.193176866718658D+03
 0.157959866166007D+03 0.904763408320404D+02 0.272280278800314D+02 -.199746230650668D+02
 0.151989666140143D+03 -.121547731868772D+03 0.280699943396607D+01 -.430338505220758D+02
 0.000000000000000D+00 -.000000000000000D+00 0.000000000000000D+00 0.000000000000000D+00
 0.764042011311664D+02 0.310713910367320D+02 -.300350273139974D+02 0.630084735871426D+02
 0.251368195826026D+03 0.000000000000000D+00 0.000000000000000D+00 0.251368195826026D+03
 0.195832421428135D+03 0.000000000000000D+00 0.000000000000000D+00 -.195832421428135D+03
 0.159282680758318D+03 0.948333493584205D+02 0.188048576816836D+02 -.199746230650668D+02
 0.148770691224737D+03 -.117417089701950D+03 -.517854885885041D+01 -.430338505220758D+02
 0.601557834377320D+02 -.106218544280521D+02 0.205346597620482D+02 0.555357743978915D+02
 0.789914618333739D+02 0.332055947715813D+02 -.341609685848814D+02 0.630084735871426D+02
0.789943405772D-04 0.000000000000D+00 0.000000000000D+00 0.110998687891D-04 0.000000000000D+00  6 -1 2 25 24 21 21 2 0.82348162D-02 0.10725798D+00 0.29873148D+05 0.29873148D+05 0.29873148D+05 0.12150916D+01  1  2  2  1  6  1       -1 0.453052135295D-01 0.100000000000D+01
0.469016695578D-05 0.416864587934D-05 -.303359067504D-06 0.110998687891D-04 0.000000000000D+00  6 -1 2 25 24 21 21 4 0.82348162D-02 0.10725798D+00 0.29873148D+05 0.29873148D+05 0.29873148D+05 0.12150916D+01  1  2  3  1  6  1       -1 0.397153629095D-02 0.100000000000D+01
0.294819627364D-05 0.000000000000D+00 0.000000000000D+00 0.110998687891D-04 0.000000000000D+00  6 -1 2 25 24 21 21 4 0.82348162D-02 0.10725798D+00 0.29873148D+05 0.29873148D+05 0.29873148D+05 0.12150916D+01  1  2 15  1  6  1       -1 0.249647157639D-02 0.100000000000D+01
-.265228885712D-03 0.000000000000D+00 0.000000000000D+00 0.110998687891D-04 0.000000000000D+00  6 -1 2 25 24 21 21 4 0.82348162D-02 0.10725798D+00 0.29873148D+05 0.29873148D+05 0.29873148D+05 0.12150916D+01  1  2  4  1  6  1       -1 -.224590330141D+00 0.100000000000D+01
-.892914927733D-03 0.000000000000D+00 -.751629135506D-04 0.110998687891D-04 0.000000000000D+00  6 -1 2 25 24 21 21 4 0.10838670D-01 0.10725798D+00 0.29873148D+05 0.29873148D+05 0.29873148D+05 0.12150916D+01  1  2  5  1  6  1       -1 -.496493593819D+00 0.100000000000D+01
0.882786577219D-03 0.000000000000D+00 0.724125680398D-04 0.110998687891D-04 0.000000000000D+00  6 -1 2 25 24 21 21 4 0.82348162D-02 0.10725798D+00 0.29873148D+05 0.29873148D+05 0.29873148D+05 0.12150916D+01  1  2  6  1  6  1       -1 0.747525399768D+00 0.100000000000D+01
-.309162149332D-04 0.000000000000D+00 -.272596105562D-05 0.110998687891D-04 0.000000000000D+00  6 21 2 25 24 1 21 4 0.10838670D-01 0.10725798D+00 0.29873148D+05 0.29873148D+05 0.29873148D+05 0.12150916D+01  3  4  5  4  5  1       -1 -.252496140680D+00 0.100000000000D+01
  </mgrwgt>
  </event>
  <event>
  5     66 0.43135346E-03 0.34841088E+02 0.75467711E-02 0.11182540E+00
       -1 -1    0    0    0  501 0.00000000E+00 0.00000000E+00 0.45581017E+02 0.45582140E+02 0.32000000E+00 0.0000E+00 0.9000E+01
        2 -1    0    0  502    0 0.00000000E+00 0.00000000E+00 -.78966415E+03 0.78966422E+03 0.32000000E+00 0.0000E+00 0.9000E+01
       25  1    1    2    0    0 0.42120541E+02 0.36882270E+02 -.89075494E+02 0.16338264E+03 0.12500000E+03 0.0000E+00 0.9000E+01
       24  1    1    2    0    0 -.31394192E+02 -.37340993E+01 -.23449028E+03 0.24990488E+03 0.80419002E+02 0.0000E+00 0.9000E+01
       21  1    1    2  502  501 -.10726349E+02 -.33148171E+02 -.42051736E+03 0.42195884E+03 0.75000000E+00 0.0000E+00 0.9000E+01
#aMCatNLO 1  0  0  1  5 0.17761326D+02 0.00000000D+00  -5  6  0 0.00000000D+00 0.00000000D+00 0.00000000D+00 0.00000000D+00 0.00000000D+00
  <mgrwgt>
 0.2127017690D+00    3    2    0
 0.189721351438077D+03 0.000000000000000D+00 0.000000000000000D+00 0.189721351438077D+03
 0.189721351438077D+03 0.000000000000000D+00 0.000000000000000D+00 -.189721351438077D+03
 0.184970054538587D+03 0.421206763592910D+02 0.368826889275409D+02 0.124315875721961D+03
 0.902686876036105D+02 -.313941256667678D+02 -.373389499113915D+01 -.261091345915951D+02
 0.104203960733957D+03 -.107265506925232D+02 -.331487939364018D+02 -.982067411303661D+02
 0.000000000000000D+00 -.000000000000000D+00 0.000000000000000D+00 -.000000000000000D+00
 0.257587078494883D+03 0.000000000000000D+00 0.000000000000000D+00 0.257587078494883D+03
 0.344568298453749D+03 0.000000000000000D+00 0.000000000000000D+00 -.344568298453749D+03
 0.192726041180894D+03 0.679831653363480D+02 -.379760348587405D+02 0.124315875721961D+03
 0.956233204421850D+02 -.186652940386589D+02 -.405773748207869D+02 -.261091345915951D+02
 0.125997291442802D+03 0.503632696069969D+01 -.787742905916675D+02 -.982067411303661D+02
 0.187808723882752D+03 -.543541982583888D+02 0.157327700271195D+03 -.869812199588659D+02
0.282235594153D-03 0.000000000000D+00 0.000000000000D+00 0.184106304982D-04 0.000000000000D+00  6 -1 2 25 24 21 21 2 0.70125555D-02 0.12148688D+00 0.16668967D+05 0.16668967D+05 0.16668967D+05 0.12426329D+01  1  2  2  1  6  1       -1 0.183504615272D+00 0.100000000000D+01
0.145941820991D-04 0.148939814925D-04 -.108385899588D-05 0.184106304982D-04 0.000000000000D+00  6 -1 2 25 24 21 21 4 0.70125555D-02 0.12148688D+00 0.16668967D+05 0.16668967D+05 0.16668967D+05 0.12426329D+01  1  2  3  1  6  1       -1 0.146521263824D-01 0.100000000000D+01
0.144875066029D-04 0.000000000000D+00 0.000000000000D+00 0.184106304982D-04 0.000000000000D+00  6 -1 2 25 24 21 21 4 0.70125555D-02 0.12148688D+00 0.16668967D+05 0.16668967D+05 0.16668967D+05 0.12426329D+01  1  2 15  1  6  1       -1 0.145450273452D-01 0.100000000000D+01
  </mgrwgt>
  </event>
  <event>
  5     66 0.43135346E-03 0.38000412E+02 0.75467711E-02 0.11249778E+00
       -1 -1    0    0    0  501 0.00000000E+00 0.00000000E+00 0.12878934E+02 0.12882909E+02 0.32000000E+00 0.0000E+00 0.9000E+01
        2 -1    0    0  502    0 0.00000000E+00 0.00000000E+00 -.34850957E+04 0.34850957E+04 0.32000000E+00 0.0000E+00 0.9000E+01
       25  1    1    2    0    0 0.70657532E+02 0.61271602E+02 -.96223961E+03 0.97482140E+03 0.12500000E+03 0.0000E+00 0.9000E+01
       24  1    1    2    0    0 -.71434912E+02 -.99263340E+02 -.83380927E+03 0.84655849E+03 0.80419002E+02 0.0000E+00 0.9000E+01
       21  1    1    2  502  501 0.77738004E+00 0.37991738E+02 -.16761679E+04 0.16765987E+04 0.75000000E+00 0.0000E+00 0.9000E+01
#aMCatNLO 1  0  0  1  5 0.17761326D+02 0.00000000D+00  -5  6  0 0.00000000D+00 0.00000000D+00 0.00000000D+00 0.00000000D+00 0.00000000D+00
  <mgrwgt>
 0.1694200084D+00    7    4    0
 0.211875658779435D+03 0.000000000000000D+00 0.000000000000000D+00 0.211875658779435D+03
 0.211875658779435D+03 0.000000000000000D+00 0.000000000000000D+00 -.211875658779435D+03
 0.162359293854766D+03 0.706575248144111D+02 0.612712336109735D+02 0.445969776992650D+02
 0.155933897745539D+03 -.714349196228500D+02 -.992636934467199D+02 0.537767229713592D+02
 0.105458125958565D+03 0.777394808438947D+00 0.379924598357464D+02 -.983737006706242D+02
 0.000000000000000D+00 0.000000000000000D+00 0.000000000000000D+00 0.000000000000000D+00
 0.300860835680351D+03 0.000000000000000D+00 0.000000000000000D+00 0.300860835680351D+03
 0.252559981080641D+03 0.000000000000000D+00 0.000000000000000D+00 -.252559981080641D+03
 0.149201721685466D+03 0.322613973473366D+02 0.600538556230640D+02 0.445969776992650D+02
 0.179414850146135D+03 -.112762597437887D+03 -.100574018434743D+03 0.537767229713592D+02
 0.108218104746019D+03 -.255556166454853D+02 0.371575519787792D+02 -.983737006706242D+02
 0.116586140183373D+03 0.106056816736036D+03 0.336261083290021D+01 0.483008545997104D+02
 0.211875658779435D+03 0.000000000000000D+00 0.000000000000000D+00 0.211875658779435D+03
 0.211875658779435D+03 0.000000000000000D+00 0.000000000000000D+00 -.211875658779435D+03
 0.162359293854766D+03 0.706575248144111D+02 0.612712336109735D+02 0.445969776992650D+02
 0.155933897745539D+03 -.714349196228500D+02 -.992636934467199D+02 0.537767229713592D+02
 0.000000000000000D+00 0.000000000000000D+00 0.000000000000000D+00 0.000000000000000D+00
 0.105458125958565D+03 0.777394808438947D+00 0.379924598357464D+02 -.983737006706242D+02
 0.300860835680351D+03 0.000000000000000D+00 0.000000000000000D+00 0.300860835680351D+03
 0.252559981080641D+03 0.000000000000000D+00 0.000000000000000D+00 -.252559981080641D+03
 0.149201721685466D+03 0.322613973473366D+02 0.600538556230640D+02 0.445969776992650D+02
 0.179414850146135D+03 -.112762597437887D+03 -.100574018434743D+03 0.537767229713592D+02
 0.116586140183373D+03 0.106056816736036D+03 0.336261083290021D+01 0.483008545997104D+02
 0.108218104746019D+03 -.255556166454853D+02 0.371575519787792D+02 -.983737006706242D+02
0.927353461372D-03 0.000000000000D+00 0.000000000000D+00 0.160580354045D-04 0.000000000000D+00  6 -1 2 25 24 21 21 2 0.19816813D-02 0.53616887D+00 0.28982020D+05 0.28982020D+05 0.28982020D+05 0.12164751D+01  1  2  2  1  6  1       -1 0.115799812536D+00 0.100000000000D+01
0.843007907066D-04 0.489377866463D-04 -.356128146944D-05 0.160580354045D-04 0.000000000000D+00  6 -1 2 25 24 21 21 4 0.19816813D-02 0.53616887D+00 0.28982020D+05 0.28982020D+05 0.28982020D+05 0.12164751D+01  1  2  3  1  6  1       -1 0.155776033482D-01 0.100000000000D+01
0.619307744568D-04 0.000000000000D+00 0.000000000000D+00 0.160580354045D-04 0.000000000000D+00  6 -1 2 25 24 21 21 4 0.19816813D-02 0.53616887D+00 0.28982020D+05 0.28982020D+05 0.28982020D+05 0.12164751D+01  1  2 15  1  6  1       -1 0.114439382057D-01 0.100000000000D+01
-.399215466058D-03 0.000000000000D+00 0.000000000000D+00 0.160580354045D-04 0.000000000000D+00  6 -1 2 25 24 21 21 4 0.19816813D-02 0.53616887D+00 0.28982020D+05 0.28982020D+05 0.28982020D+05 0.12164751D+01  1  2  4  1  6  1       -1 -.737694169724D-01 0.100000000000D+01
-.464260230336D-03 0.000000000000D+00 -.515285572640D-03 0.160580354045D-04 0.000000000000D+00  6 -1 2 25 24 21 21 4 0.39350636D-02 0.53616887D+00 0.28982020D+05 0.28982020D+05 0.28982020D+05 0.12164751D+01  1  2  5  1  6  1       -1 -.314615271912D-01 0.100000000000D+01
0.738375134672D-03 0.000000000000D+00 0.413997816374D-03 0.160580354045D-04 0.000000000000D+00  6 -1 2 25 24 21 21 4 0.19816813D-02 0.53616887D+00 0.28982020D+05 0.28982020D+05 0.28982020D+05 0.12164751D+01  1  2  6  1  6  1       -1 0.136441365184D+00 0.100000000000D+01
-.373594803570D-05 0.000000000000D+00 -.382600208164D-04 0.160580354045D-04 0.000000000000D+00  6 21 2 25 24 1 21 4 0.39350636D-02 0.53616887D+00 0.28982020D+05 0.28982020D+05 0.28982020D+05 0.12164751D+01  3  4  5  4  5  1       -1 -.461176667272D-02 0.100000000000D+01
  </mgrwgt>
  </event>
  <event>
  6     66 -.43135346E-03 0.66276806E+02 0.75467711E-02 0.11816742E+00
       -1 -1    0    0    0  501 0.00000000E+00 0.00000000E+00 0.39441719E+02 0.39443017E+02 0.32000000E+00 0.0000E+00 0.9000E+01
        2 -1    0    0  502    0 -.00000000E+00 -.00000000E+00 -.12205449E+04 0.12205450E+04 0.32000000E+00 0.0000E+00 0.9000E+01
       25  1    1    2    0    0 0.63845589E+02 0.30980138E+02 -.15686246E+03 0.21276010E+03 0.12500000E+03 0.0000E+00 0.9000E+01
       24  1    1    2    0    0 -.20098446E+02 0.31039722E+02 -.22732742E+03 0.24395161E+03 0.80419002E+02 0.0000E+00 0.9000E+01
       21  1    1    2  502  503 -.19936486E+02 0.11802310E+02 -.20273214E+03 0.20405304E+03 0.75000000E+00 0.0000E+00 0.9000E+01
       21  1    1    2  503  501 -.23810658E+02 -.73822170E+02 -.59418120E+03 0.59922327E+03 0.75000000E+00 0.0000E+00 0.9000E+01
#aMCatNLO 2  0  0  5  1 0.27320222D+02 0.00000000D+00  -5  6  0 0.00000000D+00 0.00000000D+00 0.00000000D+00 0.00000000D+00 0.00000000D+00
  <mgrwgt>
 -.6147197519D-02    2    2    0
 0.219411110136657D+03 0.000000000000000D+00 0.000000000000000D+00 0.219411110136657D+03
 0.219411110136657D+03 -.000000000000000D+00 -.000000000000000D+00 -.219411110136657D+03
 0.193340181968810D+03 0.657290859200453D+02 0.336503511740794D+02 0.127682289663480D+03
 0.889932629731197D+02 -.192228941062559D+02 0.322809820783320D+02 0.640339273123112D+01
 0.156488775331385D+03 -.465061918137894D+02 -.659313332524113D+02 -.134085682394711D+03
 0.000000000000000D+00 0.000000000000000D+00 -.000000000000000D+00 0.000000000000000D+00
 0.219411110136657D+03 0.000000000000000D+00 0.000000000000000D+00 0.219411110136657D+03
 0.219411110136657D+03 -.000000000000000D+00 -.000000000000000D+00 -.219411110136657D+03
 0.188771523082973D+03 0.638761590388778D+02 0.310234764520261D+02 0.122339969520742D+03
 0.886040861710824D+02 -.200840948962416D+02 0.310600668825849D+02 0.392039657307529D+01
 0.394470410963428D+02 -.195628100411805D+02 0.117204127684495D+02 -.321869140969806D+02
 0.121999569922916D+03 -.242292541014556D+02 -.738039561030604D+02 -.940734519968367D+02
-.180854745282D-04 0.000000000000D+00 0.000000000000D+00 0.539370682163D-05 0.000000000000D+00  6 -1 2 25 24 21 21 4 0.60680599D-02 0.18777625D+00 0.27682988D+05 0.27682988D+05 0.27682988D+05 0.12185793D+01  1  2 13  3  6  5       21 -.115246575068D-01 0.100000000000D+01
0.843876840436D-05 0.000000000000D+00 0.000000000000D+00 0.543975916220D-05 0.287953857359D-07  6 -1 2 25 24 21 21 4 0.60680599D-02 0.18777625D+00 0.27682988D+05 0.27682988D+05 0.27682988D+05 0.12185793D+01  1  2  1  3  6  5       21 0.537745998798D-02 0.100000000000D+01
  </mgrwgt>
  </event>
  <event>
  5     66 -.43135346E-03 0.24184689E+02 0.75467711E-02 0.12054291E+00
       -3 -1    0    0    0  501 0.00000000E+00 0.00000000E+00 0.31870559E+03 0.31870598E+03 0.50000000E+00 0.0000E+00 0.9000E+01
        4 -1    0    0  502    0 0.00000000E+00 0.00000000E+00 -.84958154E+02 0.84972292E+02 0.15500000E+01 0.0000E+00 0.9000E+01
       25  1    1    2    0    0 -.72577410E+02 -.57943482E+02 0.12844775E+03 0.20186320E+03 0.12500000E+03 0.0000E+00 0.9000E+01
       24  1    1    2    0    0 0.48625892E+02 0.61280225E+02 0.12689892E+03 0.16938210E+03 0.80419002E+02 0.0000E+00 0.9000E+01
       21  1    1    2  502  501 0.23951517E+02 -.33367433E+01 -.21599228E+02 0.32432980E+02 0.75000000E+00 0.0000E+00 0.9000E+01
#aMCatNLO 1  0  0  5  2 0.66885382D+00 0.00000000D+00  -5  6  0 0.00000000D+00 0.00000000D+00 0.00000000D+00 0.00000000D+00 0.00000000D+00
  <mgrwgt>
 -.2219500044D+00   25    2    0
 0.164558717771076D+03 0.000000000000000D+00 0.000000000000000D+00 0.164558717771076D+03
 0.164558717771076D+03 -.000000000000000D+00 -.000000000000000D+00 -.164558717771076D+03
 0.156368697588253D+03 -.725784633272483D+02 -.579433352976813D+02 0.141811896920649D+02
 0.117628679183899D+03 0.486250999119972D+02 0.612803357485066D+02 0.353498277404116D+02
 0.551200587699994D+02 0.239533634152510D+02 -.333700045082530D+01 -.495310174324765D+02
 0.000000000000000D+00 0.000000000000000D+00 0.000000000000000D+00 -.000000000000000D+00
 0.164558717771076D+03 0.000000000000000D+00 0.000000000000000D+00 0.164558717771076D+03
 0.164558717771076D+03 -.000000000000000D+00 -.000000000000000D+00 -.164558717771076D+03
 0.156360317843179D+03 -.725644932973272D+02 -.579452814960225D+02 0.141523023168951D+02
 0.117625732577764D+03 0.486356090461332D+02 0.612788716958497D+02 0.353280968420377D+02
 0.356432105150221D+01 0.212060250880255D+01 -.261364084551365D+00 -.285291401432804D+01
 0.515670640697068D+02 0.218082817423914D+02 -.307222611527585D+01 -.466274851446048D+02
0.111911639862D-03 0.000000000000D+00 0.000000000000D+00 0.378112350572D-04 0.000000000000D+00  6 -3 4 25 24 21 21 2 0.49032747D-01 0.13071603D-01 0.21330653D+05 0.21330653D+05 0.21330653D+05 0.12307582D+01  1  2  2  3  6  5       21 0.672457646947D-02 0.100000000000D+01
0.159444987380D-04 0.590573948657D-05 -.429770164083D-06 0.378112350572D-04 0.000000000000D+00  6 -3 4 25 24 21 21 4 0.49032747D-01 0.13071603D-01 0.21330653D+05 0.21330653D+05 0.21330653D+05 0.12307582D+01  1  2  3  3  6  5       21 0.145126260372D-02 0.100000000000D+01
0.300666760105D-05 0.000000000000D+00 0.000000000000D+00 0.378112350572D-04 0.000000000000D+00  6 -3 4 25 24 21 21 4 0.49032747D-01 0.13071603D-01 0.21330653D+05 0.21330653D+05 0.21330653D+05 0.12307582D+01  1  2 15  3  6  5       21 0.273665815585D-03 0.100000000000D+01
0.540973582785D-11 0.000000000000D+00 0.000000000000D+00 0.378117631244D-04 0.000000000000D+00  6 -3 4 25 24 21 21 4 0.49032747D-01 0.13071603D-01 0.21326789D+05 0.21326789D+05 0.21326789D+05 0.12307668D+01  1  2 12  3  6  5       21 0.492398948771D-09 0.100000000000D+01
0.524594757513D-11 0.000000000000D+00 0.000000000000D+00 0.378117631244D-04 0.000000000000D+00  6 -3 4 25 24 21 21 4 0.49032747D-01 0.13071603D-01 0.21326789D+05 0.21326789D+05 0.21326789D+05 0.12307668D+01  1  2 12  3  6  5       21 0.477490796871D-09 0.100000000000D+01
-.534541437569D-02 0.000000000000D+00 0.000000000000D+00 0.378112350572D-04 0.000000000000D+00  6 -3 4 25 24 21 21 4 0.49032747D-01 0.13071603D-01 0.21330653D+05 0.21330653D+05 0.21330653D+05 0.12307582D+01  1  2  4  3  6  5       21 -.486537715129D+00 0.100000000000D+01
-.993776233596D-04 0.000000000000D+00 0.000000000000D+00 0.378112350572D-04 0.000000000000D+00  6 -3 4 25 24 21 21 4 0.49032747D-01 0.13071603D-01 0.21330653D+05 0.21330653D+05 0.21330653D+05 0.12307582D+01  1  2  5  3  6  5       21 -.904531592989D-02 0.100000000000D+01
0.287958938294D-02 0.000000000000D+00 -.000000000000D+00 0.378112350572D-04 0.000000000000D+00  6 -3 4 25 24 21 21 4 0.49032747D-01 0.13071603D-01 0.21330653D+05 0.21330653D+05 0.21330653D+05 0.12307582D+01  1  2  6  3  6  5       21 0.262099201374D+00 0.100000000000D+01
0.776997312300D-04 0.000000000000D+00 0.000000000000D+00 0.378112350572D-04 0.527405290215D-03  6 -3 4 25 24 21 21 4 0.49032747D-01 0.13071603D-01 0.21326789D+05 0.21326789D+05 0.21326789D+05 0.12307668D+01  1  2 11  3  6  5       21 0.707229838848D-02 0.100000000000D+01
0.681326848305D-11 0.000000000000D+00 0.000000000000D+00 0.378117631244D-04 0.000000000000D+00  6 -3 4 25 24 3 -3 4 0.49032747D-01 0.13071603D-01 0.21326789D+05 0.21326789D+05 0.21326789D+05 0.12307668D+01  1  2 12  6  6  5       21 0.620149734757D-09 0.100000000000D+01
0.673929415656D-11 0.000000000000D+00 0.000000000000D+00 0.378117631244D-04 0.000000000000D+00  6 -3 4 25 24 3 -3 4 0.49032747D-01 0.13071603D-01 0.21326789D+05 0.21326789D+05 0.21326789D+05 0.12307668D+01  1  2 12  6  6  5       21 0.613416526010D-09 0.100000000000D+01
-.125370845818D-03 0.000000000000D+00 0.000000000000D+00 0.378112350572D-04 0.000000000000D+00  6 -3 4 25 24 3 -3 4 0.49032747D-01 0.13071603D-01 0.21330653D+05 0.21330653D+05 0.21330653D+05 0.12307582D+01  1  2  5  6  6  5       21 -.114112097923D-01 0.100000000000D+01
0.113781356603D-03 0.000000000000D+00 0.000000000000D+00 0.378112350572D-04 0.533605522138D-05  6 -3 4 25 24 3 -3 4 0.49032747D-01 0.13071603D-01 0.21326789D+05 0.21326789D+05 0.21326789D+05 0.12307668D+01  1  2 11  6  6  5       21 0.103564799028D-01 0.100000000000D+01
0.681326848305D-11 0.000000000000D+00 0.000000000000D+00 0.378117631244D-04 0.000000000000D+00  6 -3 4 25 24 4 -4 4 0.49032747D-01 0.13071603D-01 0.21326789D+05 0.21326789D+05 0.21326789D+05 0.12307668D+01  1  2 12  7  6  5       21 0.620149734757D-09 0.100000000000D+01
0.673929415656D-11 0.000000000000D+00 0.000000000000D+00 0.378117631244D-04 0.000000000000D+00  6 -3 4 25 24 4 -4 4 0.49032747D-01 0.13071603D-01 0.21326789D+05 0.21326789D+05 0.21326789D+05 0.12307668D+01  1  2 12  7  6  5       21 0.613416526010D-09 0.100000000000D+01
-.125370845818D-03 0.000000000000D+00 0.000000000000D+00 0.378112350572D-04 0.000000000000D+00  6 -3 4 25 24 4 -4 4 0.49032747D-01 0.13071603D-01 0.21330653D+05 0.21330653D+05 0.21330653D+05 0.12307582D+01  1  2  5  7  6  5       21 -.114112097923D-01 0.100000000000D+01
0.116278890531D-03 0.000000000000D+00 0.000000000000D+00 0.378112350572D-04 0.548414907096D-05  6 -3 4 25 24 4 -4 4 0.49032747D-01 0.13071603D-01 0.21326789D+05 0.21326789D+05 0.21326789D+05 0.12307668D+01  1  2 11  7  6  5       21 0.105838076542D-01 0.100000000000D+01
0.681326848305D-11 0.000000000000D+00 0.000000000000D+00 0.378117631244D-04 0.000000000000D+00  6 -3 4 25 24 1 -1 4 0.49032747D-01 0.13071603D-01 0.21326789D+05 0.21326789D+05 0.21326789D+05 0.12307668D+01  1  2 12  8  6  5       21 0.620149734757D-09 0.100000000000D+01
0.681326848305D-11 0.000000000000D+00 0.000000000000D+00 0.378117631244D-04 0.000000000000D+00  6 -3 4 25 24 2 -2 4 0.49032747D-01 0.13071603D-01 0.21326789D+05 0.21326789D+05 0.21326789D+05 0.12307668D+01  1  2 12  8  6  5       21 0.620149734757D-09 0.100000000000D+01
0.673929415656D-11 0.000000000000D+00 0.000000000000D+00 0.378117631244D-04 0.000000000000D+00  6 -3 4 25 24 1 -1 4 0.49032747D-01 0.13071603D-01 0.21326789D+05 0.21326789D+05 0.21326789D+05 0.12307668D+01  1  2 12  8  6  5       21 0.613416526010D-09 0.100000000000D+01
0.673929415656D-11 0.000000000000D+00 0.000000000000D+00 0.378117631244D-04 0.000000000000D+00  6 -3 4 25 24 2 -2 4 0.49032747D-01 0.13071603D-01 0.21326789D+05 0.21326789D+05 0.21326789D+05 0.12307668D+01  1  2 12  8  6  5       21 0.613416526010D-09 0.100000000000D+01
-.125370845818D-03 0.000000000000D+00 0.000000000000D+00 0.378112350572D-04 0.000000000000D+00  6 -3 4 25 24 1 -1 4 0.49032747D-01 0.13071603D-01 0.21330653D+05 0.21330653D+05 0.21330653D+05 0.12307582D+01  1  2  5  8  6  5       21 -.114112097923D-01 0.100000000000D+01
-.125370845818D-03 0.000000000000D+00 0.000000000000D+00 0.378112350572D-04 0.000000000000D+00  6 -3 4 25 24 2 -2 4 0.49032747D-01 0.13071603D-01 0.21330653D+05 0.21330653D+05 0.21330653D+05 0.12307582D+01  1  2  5  8  6  5       21 -.114112097923D-01 0.100000000000D+01
0.113801175611D-03 0.000000000000D+00 0.000000000000D+00 0.378112350572D-04 0.533696598220D-05  6 -3 4 25 24 1 -1 4 0.49032747D-01 0.13071603D-01 0.21326789D+05 0.21326789D+05 0.21326789D+05 0.12307668D+01  1  2 11  8  6  5       21 0.103582838465D-01 0.100000000000D+01
0.113801175611D-03 0.000000000000D+00 0.000000000000D+00 0.378112350572D-04 0.533696598220D-05  6 -3 4 25 24 2 -2 4 0.49032747D-01 0.13071603D-01 0.21326789D+05 0.21326789D+05 0.21326789D+05 0.12307668D+01  1  2 11  8  6  5       21 0.103582838465D-01 0.100000000000D+01
  </mgrwgt>
  </event>
  <event>
  5     66 0.43135346E-03 0.43558543E+02 0.75467711E-02 0.12165706E+00
       -1 -1    0    0    0  501 0.00000000E+00 0.00000000E+00 0.23467572E+02 0.23469753E+02 0.32000000E+00 0.0000E+00 0.9000E+01
        2 -1    0    0  502    0 0.00000000E+00 0.00000000E+00 -.10852812E+04 0.10852812E+04 0.32000000E+00 0.0000E+00 0.9000E+01
       25  1    1    2    0    0 0.12855713E+00 0.29659732E+02 -.72344019E+03 0.73475875E+03 0.12500000E+03 0.0000E+00 0.9000E+01
       24  1    1    2    0    0 0.42440798E+02 -.20452088E+02 -.12335916E+03 0.15460985E+03 0.80419002E+02 0.0000E+00 0.9000E+01
       21  1    1    2  502  501 -.42569355E+02 -.92076440E+01 -.21501423E+03 0.21938235E+03 0.75000000E+00 0.0000E+00 0.9000E+01
#aMCatNLO 1  0  0  1  5 0.10073031D+02 0.00000000D+00  -5  6  0 0.00000000D+00 0.00000000D+00 0.00000000D+00 0.00000000D+00 0.00000000D+00
  <mgrwgt>
 0.2107828175D+00    3    2    0
 0.159593698985605D+03 0.000000000000000D+00 0.000000000000000D+00 0.159593698985605D+03
 0.159593698985605D+03 0.000000000000000D+00 0.000000000000000D+00 -.159593698985605D+03
 0.145700406059012D+03 0.131053751675616D+00 0.296602721350865D+02 -.687303383343036D+02
 0.126696075356348D+03 0.424429689476105D+02 -.204516185515957D+02 0.858196087258802D+02
 0.467909165558496D+02 -.425740226992861D+02 -.920865358349077D+01 -.170892703915766D+02
 0.000000000000000D+00 0.000000000000000D+00 -.000000000000000D+00 -.000000000000000D+00
 0.159813039803592D+03 0.000000000000000D+00 0.000000000000000D+00 0.159813039803592D+03
 0.341006752638275D+03 0.000000000000000D+00 0.000000000000000D+00 -.341006752638275D+03
 0.146644592747313D+03 -.153085277391171D+01 0.339622387993196D+02 -.687303383343036D+02
 0.125674418562603D+03 0.410083072553561D+02 -.167378917688276D+02 0.858196087258802D+02
 0.470272912740198D+02 -.431073552086432D+02 -.782808335232504D+01 -.170892703915766D+02
 0.181473489857931D+03 0.362990072719883D+01 -.939626367816699D+01 -.181193712834683D+03
0.169035118727D-03 0.000000000000D+00 0.000000000000D+00 0.806700303475D-05 0.000000000000D+00  6 -1 2 25 24 21 21 2 0.36105671D-02 0.16696650D+00 0.17587115D+05 0.17587115D+05 0.17587115D+05 0.12400208D+01  1  2  2  1  6  1       -1 0.191803604336D+00 0.100000000000D+01
0.257408222746D-05 0.892022828465D-05 -.649139363880D-06 0.806700303475D-05 0.000000000000D+00  6 -1 2 25 24 21 21 4 0.36105671D-02 0.16696650D+00 0.17587115D+05 0.17587115D+05 0.17587115D+05 0.12400208D+01  1  2  3  1  6  1       -1 0.449117709262D-02 0.100000000000D+01
0.830370197222D-05 0.000000000000D+00 0.000000000000D+00 0.806700303475D-05 0.000000000000D+00  6 -1 2 25 24 21 21 4 0.36105671D-02 0.16696650D+00 0.17587115D+05 0.17587115D+05 0.17587115D+05 0.12400208D+01  1  2 15  1  6  1       -1 0.144880360401D-01 0.100000000000D+01
  </mgrwgt>
  </event>
  <event>
  6     66 -.43135346E-03 0.32697906E+02 0.75467711E-02 0.11947705E+00
       -1 -1    0    0    0  501 0.00000000E+00 0.00000000E+00 0.21887034E+03 0.21887057E+03 0.32000000E+00 0.0000E+00 0.9000E+01
        2 -1    0    0  502    0 0.00000000E+00 0.00000000E+00 -.21151589E+03 0.21151613E+03 0.32000000E+00 0.0000E+00 0.9000E+01
       25  1    1    2    0    0 0.56423379E+02 -.60559783E+01 -.24357827E+02 0.13942229E+03 0.12500000E+03 0.0000E+00 0.9000E+01
       24  1    1    2    0    0 -.65585280E+02 -.17695120E+02 0.12766897E+03 0.16547244E+03 0.80419002E+02 0.0000E+00 0.9000E+01
       21  1    1    2  503  501 -.10181435E+01 0.43958052E+02 -.92723559E+02 0.10262343E+03 0.75000000E+00 0.0000E+00 0.9000E+01
       21  1    1    2  502  503 0.10180045E+02 -.20206954E+02 -.32331360E+01 0.22868537E+02 0.75000000E+00 0.0000E+00 0.9000E+01
#aMCatNLO 2  0  0  5  1 0.23119614D+02 0.00000000D+00  -5  6  0 0.00000000D+00 0.00000000D+00 0.00000000D+00 0.00000000D+00 0.00000000D+00
  <mgrwgt>
 -.1938028484D+00    2    2    0
 0.215161929545791D+03 0.000000000000000D+00 0.000000000000000D+00 0.215161929545791D+03
 0.215161929545791D+03 -.000000000000000D+00 -.000000000000000D+00 -.215161929545791D+03
 0.138297792432661D+03 0.556468428641328D+02 -.806905207172600D+01 -.184282031046337D+02
 0.171722405138180D+03 -.665206103129677D+02 -.201198475354617D+02 0.134876123205002D+03
 0.120303661520742D+03 0.108737674488349D+02 0.281888996071877D+02 -.116447920100368D+03
 0.000000000000000D+00 0.000000000000000D+00 -.000000000000000D+00 0.000000000000000D+00
 0.215161929545791D+03 0.000000000000000D+00 0.000000000000000D+00 0.215161929545791D+03
 0.215161929545791D+03 -.000000000000000D+00 -.000000000000000D+00 -.215161929545791D+03
 0.139873107223615D+03 0.564294283211505D+02 -.604029589446556D+01 -.268089643448672D+02
 0.163252043394380D+03 -.655782179483529D+02 -.176768116804367D+02 0.124783978849862D+03
 0.104077652487009D+03 -.112773939977358D+01 0.440945054036875D+02 -.942685554374147D+02
 0.231210559865787D+02 0.102765290269760D+02 -.203773978287852D+02 -.370645906758012D+01
-.648475438975D-03 0.000000000000D+00 0.000000000000D+00 0.213615470375D-04 0.000000000000D+00  6 -1 2 25 24 21 21 4 0.33672396D-01 0.32540942D-01 0.23943433D+05 0.23943433D+05 0.23943433D+05 0.12253134D+01  1  2 13  3  6  5       21 -.220472066243D+00 0.100000000000D+01
0.784422855599D-04 0.000000000000D+00 0.000000000000D+00 0.217719518290D-04 0.580833071457D-07  6 -1 2 25 24 21 21 4 0.33672396D-01 0.32540942D-01 0.23943433D+05 0.23943433D+05 0.23943433D+05 0.12253134D+01  1  2  1  3  6  5       21 0.266692178899D-01 0.100000000000D+01
  </mgrwgt>
  </event>
  <event>
  5     66 0.43135346E-03 0.26217461E+02 0.75467711E-02 0.11644145E+00
       -1 -1    0    0    0  501 0.00000000E+00 0.00000000E+00 0.83399566E+02 0.83400180E+02 0.32000000E+00 0.0000E+00 0.9000E+01
        2 -1    0    0  502    0 0.00000000E+00 0.00000000E+00 -.40950843E+03 0.40950856E+03 0.32000000E+00 0.0000E+00 0.9000E+01
       25  1    1    2    0    0 -.37633971E+02 0.12691712E+03 -.88397754E+02 0.20239426E+03 0.12500000E+03 0.0000E+00 0.9000E+01
       24  1    1    2    0    0 0.22244550E+02 -.10570316E+03 -.22284336E+03 0.26037350E+03 0.80419002E+02 0.0000E+00 0.9000E+01
       21  1    1    2  502  501 0.15389421E+02 -.21213964E+02 -.14867752E+02 0.30140987E+02 0.75000000E+00 0.0000E+00 0.9000E+01
#aMCatNLO 1  0  0  2  1 0.23412868D+02 0.00000000D+00  -5  6  0 0.00000000D+00 0.00000000D+00 0.00000000D+00 0.00000000D+00 0.00000000D+00
  <mgrwgt>
 0.2794702388D+00    7    4    0
 0.184805324204398D+03 0.000000000000000D+00 0.000000000000000D+00 0.184805324204398D+03
 0.184805324204398D+03 0.000000000000000D+00 0.000000000000000D+00 -.184805324204398D+03
 0.191920076928692D+03 -.376370381780334D+02 0.126921350748695D+03 0.606855832107332D+02
 0.150613514125442D+03 0.222421430305383D+02 -.105699841469013D+03 -.674540233765104D+02
 0.270770573546629D+02 0.153948951474951D+02 -.212215092796820D+02 0.676844016577724D+01
 0.000000000000000D+00 -.000000000000000D+00 -.000000000000000D+00 -.000000000000000D+00
 0.192715140790689D+03 0.000000000000000D+00 0.000000000000000D+00 0.192715140790689D+03
 0.203352272886625D+03 0.000000000000000D+00 0.000000000000000D+00 -.203352272886625D+03
 0.192839247315106D+03 -.262097159186537D+02 0.131119358169926D+03 0.606855832107332D+02
 0.149929049904983D+03 0.311682340059445D+02 -.102420700887625D+03 -.674540233765104D+02
 0.275831491298946D+02 0.170182990649724D+02 -.206251261954795D+02 0.676844016577724D+01
 0.257159673273298D+02 -.219768171522632D+02 -.807353108682156D+01 -.106371320959368D+02
 0.184805324204398D+03 0.000000000000000D+00 0.000000000000000D+00 0.184805324204398D+03
 0.184805324204398D+03 0.000000000000000D+00 0.000000000000000D+00 -.184805324204398D+03
 0.191920076928692D+03 -.376370381780334D+02 0.126921350748695D+03 0.606855832107332D+02
 0.150613514125442D+03 0.222421430305383D+02 -.105699841469013D+03 -.674540233765104D+02
 0.000000000000000D+00 -.000000000000000D+00 -.000000000000000D+00 -.000000000000000D+00
 0.270770573546629D+02 0.153948951474951D+02 -.212215092796820D+02 0.676844016577724D+01
 0.192715140790689D+03 0.000000000000000D+00 0.000000000000000D+00 0.192715140790689D+03
 0.203352272886625D+03 0.000000000000000D+00 0.000000000000000D+00 -.203352272886625D+03
 0.192839247315106D+03 -.262097159186537D+02 0.131119358169926D+03 0.606855832107332D+02
 0.149929049904983D+03 0.311682340059445D+02 -.102420700887625D+03 -.674540233765104D+02
 0.257159673273298D+02 -.219768171522632D+02 -.807353108682156D+01 -.106371320959368D+02
 0.275831491298946D+02 0.170182990649724D+02 -.206251261954795D+02 0.676844016577724D+01
0.239315029341D-03 0.000000000000D+00 0.000000000000D+00 0.227833261906D-04 0.000000000000D+00  6 -1 2 25 24 21 21 2 0.12830759D-01 0.63001354D-01 0.29404435D+05 0.29404435D+05 0.29404435D+05 0.12158134D+01  1  2  2  2  6  2        2 0.126466437579D+00 0.100000000000D+01
0.558770666185D-04 0.126290010605D-04 -.919032725762D-06 0.227833261906D-04 0.000000000000D+00  6 -1 2 25 24 21 21 4 0.12830759D-01 0.63001354D-01 0.29404435D+05 0.29404435D+05 0.29404435D+05 0.12158134D+01  1  2  3  2  6  2        2 0.436488485046D-01 0.100000000000D+01
0.378149234792D-05 0.000000000000D+00 0.000000000000D+00 0.227833261906D-04 0.000000000000D+00  6 -1 2 25 24 21 21 4 0.12830759D-01 0.63001354D-01 0.29404435D+05 0.29404435D+05 0.29404435D+05 0.12158134D+01  1  2 15  2  6  2        2 0.295394509062D-02 0.100000000000D+01
-.129700808432D-03 0.000000000000D+00 0.000000000000D+00 0.227833261906D-04 0.000000000000D+00  6 -1 2 25 24 21 21 4 0.12830759D-01 0.63001354D-01 0.29404435D+05 0.29404435D+05 0.29404435D+05 0.12158134D+01  1  2  4  2  6  2        2 -.101316895836D+00 0.100000000000D+01
-.228945177483D-02 0.000000000000D+00 -.469396655223D-03 0.227833261906D-04 0.000000000000D+00  6 -1 2 25 24 21 21 4 0.12830759D-01 0.71714242D-01 0.29404435D+05 0.29404435D+05 0.29404435D+05 0.12158134D+01  1  2  5  2  6  2        2 -.155347240476D+01 0.100000000000D+01
0.233455188659D-02 0.000000000000D+00 0.465486035458D-03 0.227833261906D-04 0.000000000000D+00  6 -1 2 25 24 21 21 4 0.12830759D-01 0.63001354D-01 0.29404435D+05 0.29404435D+05 0.29404435D+05 0.12158134D+01  1  2  6  2  6  2        2 0.182365517359D+01 0.100000000000D+01
-.438075333775D-04 0.000000000000D+00 -.949373250346D-05 0.227833261906D-04 0.000000000000D+00  6 -1 21 25 24 -2 21 4 0.12830759D-01 0.71714242D-01 0.29404435D+05 0.29404435D+05 0.29404435D+05 0.12158134D+01  3  4  5  5  5  2        2 -.624648653648D-01 0.100000000000D+01
  </mgrwgt>
  </event>
</LesHouchesEvents>
