<event>
 5    0  0.1856407E+000  0.2616511E+03  0.7546771E-02  0.1106155E+00
         21   -1    0    0  502  501  0.00000000000E+00  0.00000000000E+00  0.50534075673E+03  0.50534075673E+03  0.00000000000E+00 0. -1.
         21   -1    0    0  503  502 -0.00000000000E+00 -0.00000000000E+00 -0.14031601401E+03  0.14031601401E+03  0.00000000000E+00 0. -1.
         25    1    1    2    0    0  0.19957538922E+03 -0.11404376005E+03  0.31055065096E+03  0.40608253102E+03  0.12500000000E+03 0.  0.
         21    1    1    2  503  504 -0.50077488100E+02  0.19976437911E+02  0.28686022041E+02  0.61071275953E+02  0.00000000000E+00 0. -1.
         21    1    1    2  504  501 -0.14949790112E+03  0.94067322142E+02  0.25788069727E+02  0.17850296377E+03  0.00000000000E+00 0. -1.
<mgrwt>
<rscale>  4 0.26165113E+03</rscale>
<asrwt>0</asrwt>
<pdfrwt beam="1">  1       21 0.77744731E-01 0.26165113E+03</pdfrwt>
<pdfrwt beam="2">  1       21 0.21587079E-01 0.26165113E+03</pdfrwt>
<totfact> 0.28345938E+04</totfact>
</mgrwt>
</event>
<event>
 5    0  0.1856407E+000  0.2449743E+03  0.7546771E-02  0.1116523E+00
         21   -1    0    0  502  501  0.00000000000E+00  0.00000000000E+00  0.54909408054E+03  0.54909408054E+03  0.00000000000E+00 0. -1.
         21   -1    0    0  503  502 -0.00000000000E+00 -0.00000000000E+00 -0.22614534533E+03  0.22614534533E+03  0.00000000000E+00 0. -1.
         25    1    1    2    0    0 -0.13698141296E+03  0.16007348685E+03  0.45624196828E+03  0.51785052120E+03  0.12500000000E+03 0.  0.
         21    1    1    2  503  504  0.99874201339E+02 -0.95845236255E+02 -0.11745445523E+03  0.18153984262E+03  0.00000000000E+00 0. -1.
         21    1    1    2  504  501  0.37107211621E+02 -0.64228250598E+02 -0.15838777840E+02  0.75849062042E+02  0.00000000000E+00 0. -1.
<mgrwt>
<rscale>  4 0.24497434E+03</rscale>
<asrwt>0</asrwt>
<pdfrwt beam="1">  1       21 0.84476012E-01 0.24497434E+03</pdfrwt>
<pdfrwt beam="2">  1       21 0.34791592E-01 0.24497434E+03</pdfrwt>
<totfact> 0.93571126E+03</totfact>
</mgrwt>
</event>
<event>
 5    0  0.2644192E+000  0.2817137E+03  0.7546771E-02  0.1094757E+00
         21   -1    0    0  502  501  0.00000000000E+00  0.00000000000E+00  0.49843812414E+03  0.49843812414E+03  0.00000000000E+00 0.  1.
         21   -1    0    0  503  502 -0.00000000000E+00 -0.00000000000E+00 -0.27478295433E+03  0.27478295433E+03  0.00000000000E+00 0.  1.
         25    1    1    2    0    0 -0.14566023689E+02 -0.25204253101E+03  0.37608337218E+03  0.46989499818E+03  0.12500000000E+03 0.  0.
         21    1    1    2  503  504  0.12922017682E+02  0.22415621371E+03 -0.15837589136E+03  0.27476519002E+03  0.00000000000E+00 0.  1.
         21    1    1    2  504  501  0.16440060075E+01  0.27886317303E+02  0.59476889837E+01  0.28560890265E+02  0.00000000000E+00 0.  1.
<mgrwt>
<rscale>  4 0.28171370E+03</rscale>
<asrwt>0</asrwt>
<pdfrwt beam="1">  1       21 0.76682788E-01 0.28171370E+03</pdfrwt>
<pdfrwt beam="2">  1       21 0.42274301E-01 0.28171370E+03</pdfrwt>
<totfact> 0.77130957E+03</totfact>
</mgrwt>
</event>
<event>
 5    0  0.2088101E+000  0.2406849E+03  0.7546771E-02  0.1119337E+00
         21   -1    0    0  502  501  0.00000000000E+00  0.00000000000E+00  0.74126938278E+03  0.74126938278E+03  0.00000000000E+00 0. -1.
         21   -1    0    0  503  502 -0.00000000000E+00 -0.00000000000E+00 -0.71617007215E+02  0.71617007215E+02  0.00000000000E+00 0. -1.
         25    1    1    2    0    0  0.14311895214E+03 -0.14771999857E+03  0.30430087054E+03  0.38797970598E+03  0.12500000000E+03 0.  0.
         21    1    1    2  503  504 -0.11499143086E+03  0.13365881493E+03  0.25398915804E+03  0.30918958647E+03  0.00000000000E+00 0. -1.
         21    1    1    2  504  501 -0.28127521287E+02  0.14061183637E+02  0.11136234699E+03  0.11571709755E+03  0.00000000000E+00 0. -1.
<mgrwt>
<rscale>  4 0.24068492E+03</rscale>
<asrwt>0</asrwt>
<pdfrwt beam="1">  1       21 0.11404144E+00 0.24068492E+03</pdfrwt>
<pdfrwt beam="2">  1       21 0.11018002E-01 0.24068492E+03</pdfrwt>
<totfact> 0.39892487E+04</totfact>
</mgrwt>
</event>
<event>
 5    0  0.2181137E+000  0.2908743E+03  0.7546771E-02  0.1089894E+00
         21   -1    0    0  502  501  0.00000000000E+00  0.00000000000E+00  0.22465093278E+03  0.22465093278E+03  0.00000000000E+00 0. -1.
         21   -1    0    0  503  502 -0.00000000000E+00 -0.00000000000E+00 -0.39581370792E+03  0.39581370792E+03  0.00000000000E+00 0.  1.
         25    1    1    2    0    0 -0.25056877684E+03 -0.78728174185E+02  0.96147698120E+01  0.29103312721E+03  0.12500000000E+03 0.  0.
         21    1    1    2  503  504  0.21635248350E+03  0.90977445620E+02 -0.17470016082E+03  0.29258407154E+03  0.00000000000E+00 0.  1.
         21    1    1    2  504  501  0.34216293338E+02 -0.12249271435E+02 -0.60773841311E+01  0.36847441952E+02  0.00000000000E+00 0.  1.
<mgrwt>
<rscale>  4 0.29087426E+03</rscale>
<asrwt>0</asrwt>
<pdfrwt beam="1">  1       21 0.34561682E-01 0.29087426E+03</pdfrwt>
<pdfrwt beam="2">  1       21 0.60894416E-01 0.29087426E+03</pdfrwt>
<totfact> 0.19269621E+04</totfact>
</mgrwt>
</event>
<event>
 5    0  0.1856407E+000  0.2559435E+03  0.7546771E-02  0.1109605E+00
         21   -1    0    0  502  501  0.00000000000E+00  0.00000000000E+00  0.97671161923E+03  0.97671161923E+03  0.00000000000E+00 0. -1.
         21   -1    0    0  503  502 -0.00000000000E+00 -0.00000000000E+00 -0.23155264506E+03  0.23155264506E+03  0.00000000000E+00 0. -1.
         25    1    1    2    0    0  0.16070604446E+03 -0.16414144849E+03  0.87936309699E+03  0.91742754710E+03  0.12500000000E+03 0.  0.
         21    1    1    2  503  504 -0.64885340724E+02  0.67910657287E+01 -0.70127379411E+02  0.95781393588E+02  0.00000000000E+00 0. -1.
         21    1    1    2  504  501 -0.95820703735E+02  0.15735038276E+03 -0.64076743403E+02  0.19505532360E+03  0.00000000000E+00 0. -1.
<mgrwt>
<rscale>  4 0.25594348E+03</rscale>
<asrwt>0</asrwt>
<pdfrwt beam="1">  1       21 0.15026332E+00 0.25594348E+03</pdfrwt>
<pdfrwt beam="2">  1       21 0.35623484E-01 0.25594348E+03</pdfrwt>
<totfact> 0.21439024E+03</totfact>
</mgrwt>
</event>
<event>
 5    0  0.1856407E+000  0.2460988E+03  0.7546771E-02  0.1115795E+00
         21   -1    0    0  502  501  0.00000000000E+00  0.00000000000E+00  0.41659155086E+03  0.41659155086E+03  0.00000000000E+00 0. -1.
         21   -1    0    0  503  502 -0.00000000000E+00 -0.00000000000E+00 -0.13932102762E+03  0.13932102762E+03  0.00000000000E+00 0. -1.
         25    1    1    2    0    0  0.11782843443E+02  0.21166198002E+03  0.19259652537E+03  0.31250288122E+03  0.12500000000E+03 0.  0.
         21    1    1    2  503  504 -0.46091453594E+02 -0.14280631663E+03  0.43939424720E+02  0.15636092610E+03  0.00000000000E+00 0. -1.
         21    1    1    2  504  501  0.34308610151E+02 -0.68855663388E+02  0.40734573146E+02  0.87048771160E+02  0.00000000000E+00 0. -1.
<mgrwt>
<rscale>  4 0.24609882E+03</rscale>
<asrwt>0</asrwt>
<pdfrwt beam="1">  1       21 0.64091007E-01 0.24609882E+03</pdfrwt>
<pdfrwt beam="2">  1       21 0.21434004E-01 0.24609882E+03</pdfrwt>
<totfact> 0.44441831E+04</totfact>
</mgrwt>
</event>
<event>
 5    0  0.1856407E+000  0.4375441E+03  0.7546771E-02  0.1031503E+00
         21   -1    0    0  502  501  0.00000000000E+00  0.00000000000E+00  0.94120137141E+03  0.94120137141E+03  0.00000000000E+00 0.  1.
         21   -1    0    0  503  502 -0.00000000000E+00 -0.00000000000E+00 -0.64321866448E+03  0.64321866448E+03  0.00000000000E+00 0. -1.
         25    1    1    2    0    0 -0.27777635179E+03  0.31410211499E+03  0.80952140118E+03  0.92020092329E+03  0.12500000000E+03 0.  0.
         21    1    1    2  503  504  0.27518956796E+02 -0.32563090830E+02 -0.85463435334E+02  0.95507312006E+02  0.00000000000E+00 0. -1.
         21    1    1    2  504  501  0.25025739500E+03 -0.28153902416E+03 -0.42607525892E+03  0.56871180059E+03  0.00000000000E+00 0. -1.
<mgrwt>
<rscale>  4 0.43754410E+03</rscale>
<asrwt>0</asrwt>
<pdfrwt beam="1">  1       21 0.14480021E+00 0.43754410E+03</pdfrwt>
<pdfrwt beam="2">  1       21 0.98956718E-01 0.43754410E+03</pdfrwt>
<totfact> 0.22744772E+02</totfact>
</mgrwt>
</event>
<event>
 5    0  0.1856407E+000  0.3461254E+03  0.7546771E-02  0.1064217E+00
         21   -1    0    0  502  501  0.00000000000E+00  0.00000000000E+00  0.17074281060E+04  0.17074281060E+04  0.00000000000E+00 0.  1.
         21   -1    0    0  503  502 -0.00000000000E+00 -0.00000000000E+00 -0.89321098534E+03  0.89321098534E+03  0.00000000000E+00 0.  1.
         25    1    1    2    0    0 -0.50857265481E+02  0.32019416198E+03  0.16469951211E+04  0.16832494443E+04  0.12500000000E+03 0.  0.
         21    1    1    2  503  504  0.76999405322E+02 -0.24944416372E+03 -0.78697869336E+03  0.82914821536E+03  0.00000000000E+00 0.  1.
         21    1    1    2  504  501 -0.26142139840E+02 -0.70749998258E+02 -0.45799307099E+02  0.88241431650E+02  0.00000000000E+00 0. -1.
<mgrwt>
<rscale>  4 0.34612536E+03</rscale>
<asrwt>0</asrwt>
<pdfrwt beam="1">  1       21 0.26268125E+00 0.34612536E+03</pdfrwt>
<pdfrwt beam="2">  1       21 0.13741707E+00 0.34612536E+03</pdfrwt>
<totfact> 0.17183779E+01</totfact>
</mgrwt>
</event>
<event>
 5    0  0.1856407E+000  0.2377310E+03  0.7546771E-02  0.1121314E+00
         21   -1    0    0  502  501  0.00000000000E+00  0.00000000000E+00  0.83992742405E+03  0.83992742405E+03  0.00000000000E+00 0. -1.
         21   -1    0    0  503  502 -0.00000000000E+00 -0.00000000000E+00 -0.33125367394E+03  0.33125367394E+03  0.00000000000E+00 0. -1.
         25    1    1    2    0    0 -0.20151744985E+03 -0.16784808911E+02  0.78892784232E+03  0.82396793189E+03  0.12500000000E+03 0.  0.
         21    1    1    2  503  504  0.15802204566E+03  0.15627331836E+02 -0.19481235595E+03  0.25133052828E+03  0.00000000000E+00 0. -1.
         21    1    1    2  504  501  0.43495404183E+02  0.11574770749E+01 -0.85441736257E+02  0.95882637807E+02  0.00000000000E+00 0. -1.
<mgrwt>
<rscale>  4 0.23773097E+03</rscale>
<asrwt>0</asrwt>
<pdfrwt beam="1">  1       21 0.12921960E+00 0.23773097E+03</pdfrwt>
<pdfrwt beam="2">  1       21 0.50962104E-01 0.23773097E+03</pdfrwt>
<totfact> 0.15437828E+03</totfact>
</mgrwt>
</event>
<event>
 5    0  0.1856407E+000  0.2537534E+03  0.7546771E-02  0.1110955E+00
         21   -1    0    0  502  501  0.00000000000E+00  0.00000000000E+00  0.24007718949E+03  0.24007718949E+03  0.00000000000E+00 0.  1.
         21   -1    0    0  503  502 -0.00000000000E+00 -0.00000000000E+00 -0.30645437794E+03  0.30645437794E+03  0.00000000000E+00 0.  1.
         25    1    1    2    0    0  0.21446752898E+03 -0.52625912998E+02 -0.15924839825E+03  0.29958447899E+03  0.12500000000E+03 0.  0.
         21    1    1    2  503  504 -0.51394403098E+02 -0.52375506279E+01  0.24677376301E+01  0.51719496666E+02  0.00000000000E+00 0.  1.
         21    1    1    2  504  501 -0.16307312588E+03  0.57863463626E+02  0.90403472169E+02  0.19522759177E+03  0.00000000000E+00 0.  1.
<mgrwt>
<rscale>  4 0.25375344E+03</rscale>
<asrwt>0</asrwt>
<pdfrwt beam="1">  1       21 0.36934952E-01 0.25375344E+03</pdfrwt>
<pdfrwt beam="2">  1       21 0.47146828E-01 0.25375344E+03</pdfrwt>
<totfact> 0.29521829E+04</totfact>
</mgrwt>
</event>
<event>
 5    0  0.1856407E+000  0.4443963E+03  0.7546771E-02  0.1029406E+00
         21   -1    0    0  502  501  0.00000000000E+00  0.00000000000E+00  0.17611663790E+03  0.17611663790E+03  0.00000000000E+00 0. -1.
         21   -1    0    0  503  502 -0.00000000000E+00 -0.00000000000E+00 -0.11978221539E+04  0.11978221539E+04  0.00000000000E+00 0. -1.
         25    1    1    2    0    0  0.14425230972E+03 -0.40131573266E+03 -0.30972213695E+03  0.54167873159E+03  0.12500000000E+03 0.  0.
         21    1    1    2  503  504 -0.15002821635E+03  0.38201272741E+03 -0.67039888141E+03  0.78605142949E+03  0.00000000000E+00 0. -1.
         21    1    1    2  504  501  0.57759066296E+01  0.19303005251E+02 -0.41584497691E+02  0.46208630766E+02  0.00000000000E+00 0. -1.
<mgrwt>
<rscale>  4 0.44439627E+03</rscale>
<asrwt>0</asrwt>
<pdfrwt beam="1">  1       21 0.27094868E-01 0.44439627E+03</pdfrwt>
<pdfrwt beam="2">  1       21 0.18428033E+00 0.44439627E+03</pdfrwt>
<totfact> 0.18789218E+03</totfact>
</mgrwt>
</event>
<event>
 5    0  0.1856407E+000  0.1953869E+03  0.7546771E-02  0.1153691E+00
         21   -1    0    0  502  501  0.00000000000E+00  0.00000000000E+00  0.46598582732E+03  0.46598582732E+03  0.00000000000E+00 0. -1.
         21   -1    0    0  503  502 -0.00000000000E+00 -0.00000000000E+00 -0.14999491194E+03  0.14999491194E+03  0.00000000000E+00 0. -1.
         25    1    1    2    0    0 -0.17069053074E+03  0.13568581525E+03  0.11135891874E+03  0.27490308570E+03  0.12500000000E+03 0.  0.
         21    1    1    2  503  504  0.11954965165E+03 -0.61899899072E+02  0.21185604653E+03  0.25101135665E+03  0.00000000000E+00 0. -1.
         21    1    1    2  504  501  0.51140879094E+02 -0.73785916177E+02 -0.72240498935E+01  0.90066296901E+02  0.00000000000E+00 0. -1.
<mgrwt>
<rscale>  4 0.19538686E+03</rscale>
<asrwt>0</asrwt>
<pdfrwt beam="1">  1       21 0.71690127E-01 0.19538686E+03</pdfrwt>
<pdfrwt beam="2">  1       21 0.23076140E-01 0.19538686E+03</pdfrwt>
<totfact> 0.30957175E+04</totfact>
</mgrwt>
</event>
<event>
 5    0  0.1856407E+000  0.2548143E+03  0.7546771E-02  0.1110300E+00
         21   -1    0    0  502  501  0.00000000000E+00  0.00000000000E+00  0.79325141749E+02  0.79325141749E+02  0.00000000000E+00 0.  1.
         21   -1    0    0  503  502 -0.00000000000E+00 -0.00000000000E+00 -0.12362569940E+04  0.12362569940E+04  0.00000000000E+00 0.  1.
         25    1    1    2    0    0 -0.20743146897E+03 -0.45504108075E+02 -0.21308037787E+03  0.32577090969E+03  0.12500000000E+03 0.  0.
         21    1    1    2  503  504 -0.24049408157E+01 -0.35285975195E+02 -0.23673744088E+02  0.42559722097E+02  0.00000000000E+00 0. -1.
         21    1    1    2  504  501  0.20983640978E+03  0.80790083270E+02 -0.92017773028E+03  0.94725150394E+03  0.00000000000E+00 0.  1.
<mgrwt>
<rscale>  4 0.25481433E+03</rscale>
<asrwt>0</asrwt>
<pdfrwt beam="1">  1       21 0.12203869E-01 0.25481433E+03</pdfrwt>
<pdfrwt beam="2">  1       21 0.19019337E+00 0.25481433E+03</pdfrwt>
<totfact> 0.84515749E+03</totfact>
</mgrwt>
</event>
