<LesHouchesEvents version="3.0">
  <!--
  <scalesfunctionalform>
    muR  H_T/2 := sum_i mT(i)/2, i=final state
    muF1 H_T/2 := sum_i mT(i)/2, i=final state
    muF2 H_T/2 := sum_i mT(i)/2, i=final state
    QES  H_T/2 := sum_i mT(i)/2, i=final state
  </scalesfunctionalform>
HERWIG6   
  -->
  <header>
        4
  </header>
  <init>
   2212   2212 0.65000000D+04 0.65000000D+04 -1 -1   244800   244800 -4   1
 0.73498750D-05 0.47534386D-06 0.33686134D-05     66
  </init>
  <event>
  6     66 0.33686134E-05 0.83362934E+02 0.75467711E-02 0.94836896E-01
       21 -1    0    0  503  501 0.00000000E+00 0.00000000E+00 0.67065710E+03 0.67065752E+03 0.75000000E+00 0.0000E+00 0.9000E+01
       -1 -1    0    0    0  502 0.00000000E+00 0.00000000E+00 -.13360609E+04 0.13360610E+04 0.32000000E+00 0.0000E+00 0.9000E+01
       25  1    1    2    0    0 0.34415623E+03 0.29458824E+03 -.84739234E+02 0.47752642E+03 0.12500000E+03 0.0000E+00 0.9000E+01
        4  1    1    2  503    0 -.93934278E+02 -.22580495E+02 0.41113028E+03 0.42233167E+03 0.15500000E+01 0.0000E+00 0.9000E+01
       -2  1    1    2    0  502 -.24786476E+03 -.29862715E+03 -.10047946E+04 0.10771385E+04 0.32000000E+00 0.0000E+00 0.9000E+01
       -3  1    1    2    0  501 -.23571979E+01 0.26619408E+02 0.12999699E+02 0.29721902E+02 0.50000000E+00 0.0000E+00 0.9000E+01
#aMCatNLO 2  0  0  1  5 0.53969126D+02 0.00000000D+00  -5  6  0 0.00000000D+00 0.00000000D+00 0.00000000D+00 0.00000000D+00 0.00000000D+00
  <mgrwgt>
 0.2105895609D-02    1    2    0
 0.579228450467227D+03 0.000000000000000D+00 0.000000000000000D+00 0.579228450467227D+03
 0.579228450467227D+03 0.000000000000000D+00 0.000000000000000D+00 -.579228450467227D+03
 0.541092440775400D+03 0.299190239388665D+03 0.284072508821372D+03 0.327022995905126D+03
 0.000000000000000D+00 -.000000000000000D+00 -.000000000000000D+00 0.000000000000000D+00
 0.565413533640935D+03 -.292642044600351D+03 -.309451451552496D+03 -.371877529421324D+03
 0.519509265181202D+02 -.654819478831399D+01 0.253789427311248D+02 0.448545335161978D+02
 0.153513758538809D+04 0.000000000000000D+00 0.000000000000000D+00 0.153513758538809D+04
 0.583685329384626D+03 0.000000000000000D+00 0.000000000000000D+00 -.583685329384626D+03
 0.572767934154434D+03 0.344271062005536D+03 0.294909312179787D+03 0.327022995905126D+03
 0.956344562832919D+03 -.939342782946707D+02 -.225804952838867D+02 0.951452256003464D+03
 0.537615431310746D+03 -.247999597279798D+03 -.298720027524085D+03 -.371877529421324D+03
 0.520949864746168D+02 -.233718643106691D+01 0.263912106281851D+02 0.448545335161978D+02
0.181538527090D-02 0.000000000000D+00 0.000000000000D+00 0.152692892064D-05 0.114612926169D-08  6 21 -1 25 4 -2 -3 2 0.10317794D+00 0.20554765D+00 0.24087821D+06 0.24087821D+06 0.24087821D+06 0.10916756D+01  1  2  1  5  4  1       -4 0.210589560871D-02 0.100000000000D+01
  </mgrwgt>
  </event>
  <event>
  5     66 -.33686134E-05 0.21961314E+02 0.75467711E-02 0.94974221E-01
       -4 -1    0    0    0  501 0.00000000E+00 0.00000000E+00 0.78579511E+03 0.78579664E+03 0.15500000E+01 0.0000E+00 0.9000E+01
       -1 -1    0    0    0  502 -.00000000E+00 -.00000000E+00 -.90580374E+03 0.90580380E+03 0.32000000E+00 0.0000E+00 0.9000E+01
       25  1    1    2    0    0 -.42460688E+02 0.45365011E+03 -.39979031E+03 0.61891730E+03 0.12500000E+03 0.0000E+00 0.9000E+01
       -2  1    1    2    0  502 -.11362469E+02 0.18794444E+02 -.31242897E+03 0.31320009E+03 0.32000000E+00 0.0000E+00 0.9000E+01
       -3  1    1    2    0  501 0.53823157E+02 -.47244456E+03 0.59221064E+03 0.75948304E+03 0.50000000E+00 0.0000E+00 0.9000E+01
#aMCatNLO 1  0  0  5  1 0.91322822D+01 0.00000000D+00  -5  6  0 0.00000000D+00 0.00000000D+00 0.00000000D+00 0.00000000D+00 0.00000000D+00
  <mgrwgt>
 -.2371942343D-02    8    2    0
 0.843669062395054D+03 0.000000000000000D+00 0.000000000000000D+00 0.843669062395054D+03
 0.843669062395054D+03 -.000000000000000D+00 -.000000000000000D+00 -.843669062395054D+03
 0.592053884780888D+03 -.424611085562799D+02 0.453651893820915D+03 -.356790997612062D+03
 0.291761384814240D+03 -.113621594135587D+02 0.187936334576769D+02 -.290933680318458D+03
 0.803522855194981D+03 0.538232679698387D+02 -.472445527278591D+03 0.647724677930519D+03
 0.000000000000000D+00 0.000000000000000D+00 0.000000000000000D+00 0.000000000000000D+00
 0.843669062395054D+03 0.000000000000000D+00 0.000000000000000D+00 0.843669062395054D+03
 0.843669062395054D+03 -.000000000000000D+00 -.000000000000000D+00 -.843669062395054D+03
 0.591981549835220D+03 -.424559600332973D+02 0.453606701532393D+03 -.356729038806575D+03
 0.291729405579944D+03 -.113596222295719D+02 0.187713627693358D+02 -.290903147117062D+03
 0.493733144591583D+03 0.308223124389594D+02 -.297489143422575D+03 0.392839168960925D+03
 0.309894024783362D+03 0.229932698239098D+02 -.174888920879154D+03 0.254793016962712D+03
0.209321529180D-03 0.000000000000D+00 0.000000000000D+00 0.689065154744D-04 0.000000000000D+00  6 -4 -1 25 -2 -3 21 0 0.12089168D+00 0.13935454D+00 0.23519248D+06 0.23519248D+06 0.23519248D+06 0.10924596D+01  1  2  2  4  6  5       -3 0.198311430547D-04 0.100000000000D+01
0.104701644664D-03 0.000000000000D+00 -.803849787677D-06 0.689065154744D-04 0.000000000000D+00  6 -4 -1 25 -2 -3 21 2 0.12089168D+00 0.13935454D+00 0.23519248D+06 0.23519248D+06 0.23519248D+06 0.10924596D+01  1  2  3  4  6  5       -3 0.118385385944D-04 0.100000000000D+01
-.113408052639D-03 0.000000000000D+00 0.000000000000D+00 0.689065154744D-04 0.000000000000D+00  6 -4 -1 25 -2 -3 21 2 0.12089168D+00 0.13935454D+00 0.23519248D+06 0.23519248D+06 0.23519248D+06 0.10924596D+01  1  2 15  4  6  5       -3 -.128229657938D-04 0.100000000000D+01
0.945820391473D-01 0.000000000000D+00 0.000000000000D+00 0.689065154744D-04 0.000000000000D+00  6 -4 -1 25 -2 -3 21 2 0.12089168D+00 0.13935454D+00 0.23514873D+06 0.23514873D+06 0.23514873D+06 0.10924657D+01  1  2 12  4  6  5       -3 0.106945261180D-01 0.100000000000D+01
-.158548065963D+00 0.000000000000D+00 0.000000000000D+00 0.689065154744D-04 0.000000000000D+00  6 -4 -1 25 -2 -3 21 2 0.12089168D+00 0.13935454D+00 0.23519248D+06 0.23519248D+06 0.23519248D+06 0.10924596D+01  1  2  4  4  6  5       -3 -.179269141759D-01 0.100000000000D+01
-.947088632445D-01 0.000000000000D+00 0.000000000000D+00 0.689065154744D-04 0.000000000000D+00  6 -4 -1 25 -2 -3 21 2 0.12089168D+00 0.13935454D+00 0.23519248D+06 0.23519248D+06 0.23519248D+06 0.10924596D+01  1  2  5  4  6  5       -3 -.107086620879D-01 0.100000000000D+01
0.137518082990D+00 0.000000000000D+00 -.000000000000D+00 0.689065154744D-04 0.000000000000D+00  6 -4 -1 25 -2 -3 21 2 0.12089168D+00 0.13935454D+00 0.23519248D+06 0.23519248D+06 0.23519248D+06 0.10924596D+01  1  2  6  4  6  5       -3 0.155490693401D-01 0.100000000000D+01
0.105397656551D-04 0.000000000000D+00 0.000000000000D+00 0.689065154744D-04 0.242557862516D-05  6 -4 -1 25 -2 -3 21 2 0.12089168D+00 0.13935454D+00 0.23514873D+06 0.23514873D+06 0.23514873D+06 0.10924657D+01  1  2 11  4  6  5       -3 0.119174634098D-05 0.100000000000D+01
  </mgrwgt>
  </event>
  <event>
  5     66 0.33686134E-05 0.10768819E+03 0.75467711E-02 0.94975941E-01
       -4 -1    0    0    0  501 0.00000000E+00 0.00000000E+00 0.12184400E+04 0.12184410E+04 0.15500000E+01 0.0000E+00 0.9000E+01
       -1 -1    0    0    0  502 0.00000000E+00 0.00000000E+00 -.89380747E+03 0.89380753E+03 0.32000000E+00 0.0000E+00 0.9000E+01
       25  1    1    2    0    0 0.25953501E+03 -.39650376E+03 -.11449228E+03 0.50329627E+03 0.12500000E+03 0.0000E+00 0.9000E+01
       -2  1    1    2    0  502 -.22519692E+03 0.29442521E+03 -.52287886E+03 0.64093858E+03 0.32000000E+00 0.0000E+00 0.9000E+01
       -3  1    1    2    0  501 -.34338084E+02 0.10207855E+03 0.96200364E+03 0.96801363E+03 0.50000000E+00 0.0000E+00 0.9000E+01
#aMCatNLO 1  0  0  4  2 0.12616936D+02 0.00000000D+00  -5  6  0 0.00000000D+00 0.00000000D+00 0.00000000D+00 0.00000000D+00 0.00000000D+00
  <mgrwgt>
 0.6206197159D-04    7    2    0
 0.104357647134840D+04 0.000000000000000D+00 0.000000000000000D+00 0.104357647134840D+04
 0.104357647134840D+04 -.000000000000000D+00 -.000000000000000D+00 -.104357647134840D+04
 0.527184425855332D+03 0.259580666487818D+03 -.396561614423897D+03 -.194049432917668D+03
 0.730029863704789D+03 -.225246119855001D+03 0.294493577067601D+03 -.628873055915921D+03
 0.829938653136673D+03 -.343345466328169D+02 0.102068037356296D+03 0.822922488833589D+03
 0.000000000000000D+00 -.000000000000000D+00 0.000000000000000D+00 0.000000000000000D+00
 0.104357647134840D+04 0.000000000000000D+00 0.000000000000000D+00 0.104357647134840D+04
 0.104357647134840D+04 -.000000000000000D+00 -.000000000000000D+00 -.104357647134840D+04
 0.527161144042886D+03 0.259528662240702D+03 -.396493622501257D+03 -.194194625517770D+03
 0.579793867209937D+03 -.167889275227563D+03 0.239996065588685D+03 -.500375866943810D+03
 0.829728599515443D+03 -.344164075979520D+02 0.102175064853419D+03 0.822693938147176D+03
 0.150469331928528D+03 -.572229794151870D+02 0.543224920591527D+02 -.128123445685596D+03
0.950083952620D-04 0.000000000000D+00 0.000000000000D+00 0.563020215275D-04 0.000000000000D+00  6 -4 -1 25 -2 -3 21 0 0.18745238D+00 0.13750892D+00 0.23455564D+06 0.23455564D+06 0.23455564D+06 0.10925487D+01  1  2  2  3  6  4       -2 0.220923911440D-05 0.100000000000D+01
0.209808880477D-04 0.000000000000D+00 -.364857254091D-06 0.563020215275D-04 0.000000000000D+00  6 -4 -1 25 -2 -3 21 2 0.18745238D+00 0.13750892D+00 0.23455564D+06 0.23455564D+06 0.23455564D+06 0.10925487D+01  1  2  3  3  6  4       -2 0.582352825810D-06 0.100000000000D+01
-.543289462422D-04 0.000000000000D+00 0.000000000000D+00 0.563020215275D-04 0.000000000000D+00  6 -4 -1 25 -2 -3 21 2 0.18745238D+00 0.13750892D+00 0.23455564D+06 0.23455564D+06 0.23455564D+06 0.10925487D+01  1  2 15  3  6  4       -2 -.150797312752D-05 0.100000000000D+01
0.208618817308D-01 0.000000000000D+00 0.000000000000D+00 0.563020215275D-04 0.000000000000D+00  6 -4 -1 25 -2 -3 21 2 0.18745238D+00 0.13750892D+00 0.23507791D+06 0.23507791D+06 0.23507791D+06 0.10924756D+01  1  2 12  3  6  4       -2 0.578903233463D-03 0.100000000000D+01
-.234440583101D-01 0.000000000000D+00 0.000000000000D+00 0.563020215275D-04 0.000000000000D+00  6 -4 -1 25 -2 -3 21 2 0.18745238D+00 0.13750892D+00 0.23455564D+06 0.23455564D+06 0.23455564D+06 0.10925487D+01  1  2  4  3  6  4       -2 -.650721436303D-03 0.100000000000D+01
-.210631471458D-01 0.000000000000D+00 0.000000000000D+00 0.563020215275D-04 0.000000000000D+00  6 -4 -1 25 -2 -3 21 2 0.18745238D+00 0.13750892D+00 0.23455564D+06 0.23455564D+06 0.23455564D+06 0.10925487D+01  1  2  5  3  6  4       -2 -.584636037946D-03 0.100000000000D+01
0.258403086288D-01 0.000000000000D+00 -.000000000000D+00 0.563020215275D-04 0.000000000000D+00  6 -4 -1 25 -2 -3 21 2 0.18745238D+00 0.13750892D+00 0.23455564D+06 0.23455564D+06 0.23455564D+06 0.10925487D+01  1  2  6  3  6  4       -2 0.717232593565D-03 0.100000000000D+01
  </mgrwgt>
  </event>
  <event>
  6     66 0.33686134E-05 0.40793809E+02 0.75467711E-02 0.94663540E-01
       -4 -1    0    0    0  503 0.00000000E+00 0.00000000E+00 0.67961529E+03 0.67961706E+03 0.15500000E+01 0.0000E+00 0.9000E+01
       -1 -1    0    0    0  502 0.00000000E+00 0.00000000E+00 -.72057681E+03 0.72057688E+03 0.32000000E+00 0.0000E+00 0.9000E+01
       25  1    1    2    0    0 -.30438856E+03 0.35402586E+03 -.14886158E+03 0.50573855E+03 0.12500000E+03 0.0000E+00 0.9000E+01
       -2  1    1    2    0  502 -.55225147E+01 -.62229790E+02 -.28526185E+03 0.29202306E+03 0.32000000E+00 0.0000E+00 0.9000E+01
       -3  1    1    2    0  501 0.23793391E+03 -.29482310E+03 0.29244061E+03 0.47859687E+03 0.50000000E+00 0.0000E+00 0.9000E+01
       21  1    1    2  501  503 0.71977172E+02 0.30270351E+01 0.10072131E+03 0.12383546E+03 0.75000000E+00 0.0000E+00 0.9000E+01
#aMCatNLO 2  0  0  1  1 0.22039904D+03 0.00000000D+00  -5  6  0 0.00000000D+00 0.00000000D+00 0.00000000D+00 0.00000000D+00 0.00000000D+00
  <mgrwgt>
 0.2506882742D-03    1    2    0
 0.633211471918653D+03 0.000000000000000D+00 0.000000000000000D+00 0.633211471918653D+03
 0.633211471918653D+03 0.000000000000000D+00 0.000000000000000D+00 -.633211471918653D+03
 0.476552768673325D+03 -.276856365751880D+03 0.355173076124751D+03 -.931674839681499D+02
 0.262035626852729D+03 0.935831367594881D+01 -.616235268106522D+02 -.254514503808058D+03
 0.527834548311252D+03 0.267498052075931D+03 -.293549549314098D+03 0.347681987776208D+03
 0.000000000000000D+00 0.000000000000000D+00 0.000000000000000D+00 0.000000000000000D+00
 0.759751582505167D+03 0.000000000000000D+00 0.000000000000000D+00 0.759751582505167D+03
 0.644572205321327D+03 0.000000000000000D+00 0.000000000000000D+00 -.644572205321327D+03
 0.492209385596838D+03 -.304363938184077D+03 0.354016231737671D+03 -.931674839681499D+02
 0.262074663358660D+03 -.552356595456906D+01 -.622493915234396D+02 -.254514503808058D+03
 0.514186269530846D+03 0.237910332328308D+03 -.294793875311999D+03 0.347681987776208D+03
 0.135853469340150D+03 0.719771718103381D+02 0.302703509776770D+01 0.115179377183840D+03
0.823005645592D-03 0.000000000000D+00 0.000000000000D+00 0.590178809221D-05 0.109276450989D-07  6 -4 -1 25 -2 -3 21 2 0.10455617D+00 0.11085794D+00 0.24833596D+06 0.24833596D+06 0.24833596D+06 0.10906774D+01  1  2  1  1  6  1       -4 0.250688274184D-03 0.100000000000D+01
  </mgrwgt>
  </event>
</LesHouchesEvents>
