<event>
 4    0  0.1254357E-001  0.2726216E+03  0.7546771E-02  0.1099789E+00
         21   -1    0    0  502  501  0.00000000000E+00  0.00000000000E+00  0.13335306366E+03  0.13335306366E+03  0.00000000000E+00 0.  1.
         21   -1    0    0  503  502 -0.00000000000E+00 -0.00000000000E+00 -0.11157844824E+04  0.11157844824E+04  0.00000000000E+00 0.  1.
         25    1    1    2    0    0 -0.21004796880E+03  0.12073683109E+03 -0.96885659263E+03  0.10064818074E+04  0.12500000000E+03 0.  0.
         21    1    1    2  503  501  0.21004796880E+03 -0.12073683109E+03 -0.13574826078E+02  0.24265573861E+03  0.00000000000E+00 0.  1.
<mgrwt>
<rscale>  3 0.27262159E+03</rscale>
<asrwt>0</asrwt>
<pdfrwt beam="1">  1       21 0.20515856E-01 0.27262159E+03</pdfrwt>
<pdfrwt beam="2">  1       21 0.17165915E+00 0.27262159E+03</pdfrwt>
<totfact> 0.43014968E+03</totfact>
</mgrwt>
</event>
<event>
 4    0  0.1721118E-001  0.2718618E+03  0.7546771E-02  0.1100219E+00
         21   -1    0    0  503  501  0.00000000000E+00  0.00000000000E+00  0.32220896832E+03  0.32220896832E+03  0.00000000000E+00 0.  1.
         21   -1    0    0  501  502 -0.00000000000E+00 -0.00000000000E+00 -0.22259653999E+03  0.22259653999E+03  0.00000000000E+00 0.  1.
         25    1    1    2    0    0  0.27242204439E+02  0.23987853964E+03 -0.25204722279E+02  0.27302770831E+03  0.12500000000E+03 0.  0.
         21    1    1    2  503  502 -0.27242204439E+02 -0.23987853964E+03  0.12481715061E+03  0.27177779999E+03  0.00000000000E+00 0.  1.
<mgrwt>
<rscale>  3 0.27186182E+03</rscale>
<asrwt>0</asrwt>
<pdfrwt beam="1">  1       21 0.49570611E-01 0.27186182E+03</pdfrwt>
<pdfrwt beam="2">  1       21 0.34245621E-01 0.27186182E+03</pdfrwt>
<totfact> 0.30697607E+04</totfact>
</mgrwt>
</event>
<event>
 4    0  0.2199085E-001  0.2440781E+03  0.7546771E-02  0.1117106E+00
         21   -1    0    0  503  501  0.00000000000E+00  0.00000000000E+00  0.89582969292E+03  0.89582969292E+03  0.00000000000E+00 0. -1.
         21   -1    0    0  501  502 -0.00000000000E+00 -0.00000000000E+00 -0.36346698495E+03  0.36346698495E+03  0.00000000000E+00 0.  1.
         25    1    1    2    0    0  0.20862990585E+03  0.20559280695E+02 -0.30811034373E+03  0.39307264665E+03  0.12500000000E+03 0.  0.
         21    1    1    2  503  502 -0.20862990585E+03 -0.20559280695E+02  0.84047305169E+03  0.86622403121E+03  0.00000000000E+00 0. -1.
<mgrwt>
<rscale>  3 0.24407811E+03</rscale>
<asrwt>0</asrwt>
<pdfrwt beam="1">  1       21 0.13781995E+00 0.24407811E+03</pdfrwt>
<pdfrwt beam="2">  1       21 0.55917998E-01 0.24407811E+03</pdfrwt>
<totfact> 0.10700037E+03</totfact>
</mgrwt>
</event>
<event>
 4    0  0.1022114E-001  0.2640955E+03  0.7546771E-02  0.1104707E+00
         21   -1    0    0  503  501  0.00000000000E+00  0.00000000000E+00  0.47976885253E+02  0.47976885253E+02  0.00000000000E+00 0.  1.
         21   -1    0    0  501  502 -0.00000000000E+00 -0.00000000000E+00 -0.16417862986E+04  0.16417862986E+04  0.00000000000E+00 0.  1.
         25    1    1    2    0    0  0.16151238913E+03  0.16743716643E+03 -0.12292484563E+04  0.12572979853E+04  0.12500000000E+03 0.  0.
         21    1    1    2  503  502 -0.16151238913E+03 -0.16743716643E+03 -0.36456095699E+03  0.43246519849E+03  0.00000000000E+00 0.  1.
<mgrwt>
<rscale>  3 0.26409554E+03</rscale>
<asrwt>0</asrwt>
<pdfrwt beam="1">  1       21 0.73810597E-02 0.26409554E+03</pdfrwt>
<pdfrwt beam="2">  1       21 0.25258249E+00 0.26409554E+03</pdfrwt>
<totfact> 0.83408708E+03</totfact>
</mgrwt>
</event>
<event>
 4    0  0.1946887E-001  0.2750415E+03  0.7546771E-02  0.1098428E+00
         21   -1    0    0  503  501  0.00000000000E+00  0.00000000000E+00  0.36420999458E+03  0.36420999458E+03  0.00000000000E+00 0.  1.
         21   -1    0    0  501  502 -0.00000000000E+00 -0.00000000000E+00 -0.21274913688E+03  0.21274913688E+03  0.00000000000E+00 0.  1.
         25    1    1    2    0    0 -0.12004027685E+03  0.21357240779E+03 -0.23290352017E+02  0.27602587186E+03  0.12500000000E+03 0.  0.
         21    1    1    2  503  502  0.12004027685E+03 -0.21357240779E+03  0.17475120972E+03  0.30093325960E+03  0.00000000000E+00 0.  1.
<mgrwt>
<rscale>  3 0.27504153E+03</rscale>
<asrwt>0</asrwt>
<pdfrwt beam="1">  1       21 0.56032307E-01 0.27504153E+03</pdfrwt>
<pdfrwt beam="2">  1       21 0.32730636E-01 0.27504153E+03</pdfrwt>
<totfact> 0.25872401E+04</totfact>
</mgrwt>
</event>
<event>
 4    0  0.1005289E-001  0.2474498E+03  0.7546771E-02  0.1114927E+00
         21   -1    0    0  502  501  0.00000000000E+00  0.00000000000E+00  0.26804423071E+02  0.26804423071E+02  0.00000000000E+00 0.  1.
         21   -1    0    0  503  502 -0.00000000000E+00 -0.00000000000E+00 -0.20392662279E+04  0.20392662279E+04  0.00000000000E+00 0.  1.
         25    1    1    2    0    0  0.17143288603E+03 -0.12734672783E+03 -0.90578437345E+03  0.93897643990E+03  0.12500000000E+03 0.  0.
         21    1    1    2  503  501 -0.17143288603E+03  0.12734672783E+03 -0.11066774314E+04  0.11270942110E+04  0.00000000000E+00 0.  1.
<mgrwt>
<rscale>  3 0.24744984E+03</rscale>
<asrwt>0</asrwt>
<pdfrwt beam="1">  1       21 0.41237561E-02 0.24744984E+03</pdfrwt>
<pdfrwt beam="2">  1       21 0.31373337E+00 0.24744984E+03</pdfrwt>
<totfact> 0.10034735E+04</totfact>
</mgrwt>
</event>
<event>
 4    0  0.1161905E-001  0.2961484E+03  0.7546771E-02  0.1087182E+00
         21   -1    0    0  503  501  0.00000000000E+00  0.00000000000E+00  0.19597986193E+03  0.19597986193E+03  0.00000000000E+00 0. -1.
         21   -1    0    0  501  502 -0.00000000000E+00 -0.00000000000E+00 -0.94866709939E+03  0.94866709939E+03  0.00000000000E+00 0. -1.
         25    1    1    2    0    0 -0.26270773363E+03  0.55349164604E+02 -0.81662295909E+03  0.86866388243E+03  0.12500000000E+03 0.  0.
         21    1    1    2  503  502  0.26270773363E+03 -0.55349164604E+02  0.63935721639E+02  0.27598307889E+03  0.00000000000E+00 0. -1.
<mgrwt>
<rscale>  3 0.29614841E+03</rscale>
<asrwt>0</asrwt>
<pdfrwt beam="1">  1       21 0.30150748E-01 0.29614841E+03</pdfrwt>
<pdfrwt beam="2">  1       21 0.14594878E+00 0.29614841E+03</pdfrwt>
<totfact> 0.31427990E+03</totfact>
</mgrwt>
</event>
<event>
 4    0  0.1231774E-001  0.2809458E+03  0.7546771E-02  0.1095173E+00
         21   -1    0    0  502  501  0.00000000000E+00  0.00000000000E+00  0.62708005453E+03  0.62708005453E+03  0.00000000000E+00 0. -1.
         21   -1    0    0  503  502 -0.00000000000E+00 -0.00000000000E+00 -0.20222984868E+03  0.20222984868E+03  0.00000000000E+00 0. -1.
         25    1    1    2    0    0  0.22497069501E+03  0.11266639629E+03 -0.56127673341E+02  0.28649755005E+03  0.12500000000E+03 0.  0.
         21    1    1    2  503  501 -0.22497069501E+03 -0.11266639629E+03  0.48097787919E+03  0.54281235316E+03  0.00000000000E+00 0. -1.
<mgrwt>
<rscale>  3 0.28094578E+03</rscale>
<asrwt>0</asrwt>
<pdfrwt beam="1">  1       21 0.96473854E-01 0.28094578E+03</pdfrwt>
<pdfrwt beam="2">  1       21 0.31112285E-01 0.28094578E+03</pdfrwt>
<totfact> 0.83997398E+03</totfact>
</mgrwt>
</event>
<event>
 4    0  0.1204162E-001  0.2813238E+03  0.7546771E-02  0.1094968E+00
         21   -1    0    0  503  501  0.00000000000E+00  0.00000000000E+00  0.46449770433E+03  0.46449770433E+03  0.00000000000E+00 0. -1.
         21   -1    0    0  501  502 -0.00000000000E+00 -0.00000000000E+00 -0.33476937363E+03  0.33476937363E+03  0.00000000000E+00 0. -1.
         25    1    1    2    0    0  0.22566274015E+03 -0.11222489271E+03 -0.22769538167E+03  0.36192303832E+03  0.12500000000E+03 0.  0.
         21    1    1    2  503  502 -0.22566274015E+03  0.11222489271E+03  0.35742371237E+03  0.43734403963E+03  0.00000000000E+00 0. -1.
<mgrwt>
<rscale>  3 0.28132383E+03</rscale>
<asrwt>0</asrwt>
<pdfrwt beam="1">  1       21 0.71461185E-01 0.28132383E+03</pdfrwt>
<pdfrwt beam="2">  1       21 0.51502981E-01 0.28132383E+03</pdfrwt>
<totfact> 0.59913007E+03</totfact>
</mgrwt>
</event>
<event>
 4    0  0.1053580E-001  0.2483374E+03  0.7546771E-02  0.1114360E+00
         21   -1    0    0  502  501  0.00000000000E+00  0.00000000000E+00  0.82797719720E+03  0.82797719720E+03  0.00000000000E+00 0.  1.
         21   -1    0    0  503  502 -0.00000000000E+00 -0.00000000000E+00 -0.73954110491E+02  0.73954110491E+02  0.00000000000E+00 0.  1.
         25    1    1    2    0    0 -0.19337826268E+01  0.21457568230E+03  0.56017470149E+03  0.61275375082E+03  0.12500000000E+03 0.  0.
         21    1    1    2  503  501  0.19337826268E+01 -0.21457568230E+03  0.19384838522E+03  0.28917755688E+03  0.00000000000E+00 0.  1.
<mgrwt>
<rscale>  3 0.24833740E+03</rscale>
<asrwt>0</asrwt>
<pdfrwt beam="1">  1       21 0.12738110E+00 0.24833740E+03</pdfrwt>
<pdfrwt beam="2">  1       21 0.11377556E-01 0.24833740E+03</pdfrwt>
<totfact> 0.28475300E+04</totfact>
</mgrwt>
</event>
<event>
 4    0  0.1385565E-001  0.4023958E+03  0.7546771E-02  0.1042953E+00
         21   -1    0    0  502  501  0.00000000000E+00  0.00000000000E+00  0.45559465474E+03  0.45559465474E+03  0.00000000000E+00 0.  1.
         21   -1    0    0  503  502 -0.00000000000E+00 -0.00000000000E+00 -0.58887129828E+03  0.58887129828E+03  0.00000000000E+00 0. -1.
         25    1    1    2    0    0 -0.35523895143E+03 -0.14178377569E+03 -0.40837892033E+03  0.57331988823E+03  0.12500000000E+03 0.  0.
         21    1    1    2  503  501  0.35523895143E+03  0.14178377569E+03  0.27510227679E+03  0.47114606479E+03  0.00000000000E+00 0.  1.
<mgrwt>
<rscale>  3 0.40239576E+03</rscale>
<asrwt>0</asrwt>
<pdfrwt beam="1">  1       21 0.70091486E-01 0.40239576E+03</pdfrwt>
<pdfrwt beam="2">  1       21 0.90595584E-01 0.40239576E+03</pdfrwt>
<totfact> 0.16753993E+03</totfact>
</mgrwt>
</event>
<event>
 4    0  0.1362220E-001  0.2493349E+03  0.7546771E-02  0.1113726E+00
         21   -1    0    0  502  501  0.00000000000E+00  0.00000000000E+00  0.38503117846E+03  0.38503117846E+03  0.00000000000E+00 0. -1.
         21   -1    0    0  503  502 -0.00000000000E+00 -0.00000000000E+00 -0.30525523414E+03  0.30525523414E+03  0.00000000000E+00 0.  1.
         25    1    1    2    0    0 -0.45870169442E+01  0.21568930101E+03 -0.21209284360E+03  0.32733971589E+03  0.12500000000E+03 0.  0.
         21    1    1    2  503  501  0.45870169442E+01 -0.21568930101E+03  0.29186878791E+03  0.36294669671E+03  0.00000000000E+00 0. -1.
<mgrwt>
<rscale>  3 0.24933495E+03</rscale>
<asrwt>0</asrwt>
<pdfrwt beam="1">  1       21 0.59235566E-01 0.24933495E+03</pdfrwt>
<pdfrwt beam="2">  1       21 0.46962344E-01 0.24933495E+03</pdfrwt>
<totfact> 0.11165246E+04</totfact>
</mgrwt>
</event>
<event>
 4    0  0.1813423E-001  0.3140074E+03  0.7546771E-02  0.1078441E+00
         21   -1    0    0  503  501  0.00000000000E+00  0.00000000000E+00  0.71054965999E+03  0.71054965999E+03  0.00000000000E+00 0.  1.
         21   -1    0    0  501  502 -0.00000000000E+00 -0.00000000000E+00 -0.47964226485E+03  0.47964226485E+03  0.00000000000E+00 0. -1.
         25    1    1    2    0    0  0.23546265440E+03 -0.16593070253E+03 -0.39297462782E+03  0.50302059378E+03  0.12500000000E+03 0.  0.
         21    1    1    2  503  502 -0.23546265440E+03  0.16593070253E+03  0.62388202296E+03  0.68717133106E+03  0.00000000000E+00 0.  1.
<mgrwt>
<rscale>  3 0.31400742E+03</rscale>
<asrwt>0</asrwt>
<pdfrwt beam="1">  1       21 0.10931533E+00 0.31400742E+03</pdfrwt>
<pdfrwt beam="2">  1       21 0.73791118E-01 0.31400742E+03</pdfrwt>
<totfact> 0.99312803E+02</totfact>
</mgrwt>
</event>
<event>
 4    0  0.1005289E-001  0.2364349E+03  0.7546771E-02  0.1122191E+00
         21   -1    0    0  502  501  0.00000000000E+00  0.00000000000E+00  0.72856629392E+03  0.72856629392E+03  0.00000000000E+00 0.  1.
         21   -1    0    0  503  502 -0.00000000000E+00 -0.00000000000E+00 -0.40205828699E+03  0.40205828699E+03  0.00000000000E+00 0.  1.
         25    1    1    2    0    0 -0.94913174343E+02 -0.17682748475E+03 -0.35145431768E+03  0.42358187809E+03  0.12500000000E+03 0.  0.
         21    1    1    2  503  501  0.94913174343E+02  0.17682748475E+03  0.67796232462E+03  0.70704270283E+03  0.00000000000E+00 0.  1.
<mgrwt>
<rscale>  3 0.23643492E+03</rscale>
<asrwt>0</asrwt>
<pdfrwt beam="1">  1       21 0.11208712E+00 0.23643492E+03</pdfrwt>
<pdfrwt beam="2">  1       21 0.61855121E-01 0.23643492E+03</pdfrwt>
<totfact> 0.14566180E+03</totfact>
</mgrwt>
</event>
<event>
 4    0  0.1651141E-001  0.2967144E+03  0.7546771E-02  0.1086895E+00
         21   -1    0    0  502  501  0.00000000000E+00  0.00000000000E+00  0.31869659089E+03  0.31869659089E+03  0.00000000000E+00 0. -1.
         21   -1    0    0  503  502 -0.00000000000E+00 -0.00000000000E+00 -0.25733762967E+03  0.25733762967E+03  0.00000000000E+00 0. -1.
         25    1    1    2    0    0 -0.23011767334E+03 -0.13950023163E+03 -0.12517405779E+02  0.29697835553E+03  0.12500000000E+03 0.  0.
         21    1    1    2  503  501  0.23011767334E+03  0.13950023163E+03  0.73876366994E+02  0.27905586503E+03  0.00000000000E+00 0. -1.
<mgrwt>
<rscale>  3 0.29671444E+03</rscale>
<asrwt>0</asrwt>
<pdfrwt beam="1">  1       21 0.49030245E-01 0.29671444E+03</pdfrwt>
<pdfrwt beam="2">  1       21 0.39590405E-01 0.29671444E+03</pdfrwt>
<totfact> 0.23218378E+04</totfact>
</mgrwt>
</event>
<event>
 4    0  0.1184872E-001  0.3075853E+03  0.7546771E-02  0.1081509E+00
         21   -1    0    0  503  501  0.00000000000E+00  0.00000000000E+00  0.68534928255E+02  0.68534928255E+02  0.00000000000E+00 0. -1.
         21   -1    0    0  501  502 -0.00000000000E+00 -0.00000000000E+00 -0.14859449270E+04  0.14859449270E+04  0.00000000000E+00 0. -1.
         25    1    1    2    0    0 -0.17171795600E+03 -0.22247838418E+03 -0.10360927182E+04  0.10807852741E+04  0.12500000000E+03 0.  0.
         21    1    1    2  503  502  0.17171795600E+03  0.22247838418E+03 -0.38131728051E+03  0.47369458119E+03  0.00000000000E+00 0. -1.
<mgrwt>
<rscale>  3 0.30758525E+03</rscale>
<asrwt>0</asrwt>
<pdfrwt beam="1">  1       21 0.10543835E-01 0.30758525E+03</pdfrwt>
<pdfrwt beam="2">  1       21 0.22860692E+00 0.30758525E+03</pdfrwt>
<totfact> 0.60342224E+03</totfact>
</mgrwt>
</event>
<event>
 4    0  0.1285355E-001  0.3488553E+03  0.7546771E-02  0.1063086E+00
         21   -1    0    0  503  501  0.00000000000E+00  0.00000000000E+00  0.39213045487E+03  0.39213045487E+03  0.00000000000E+00 0.  1.
         21   -1    0    0  501  502 -0.00000000000E+00 -0.00000000000E+00 -0.41364541928E+03  0.41364541928E+03  0.00000000000E+00 0.  1.
         25    1    1    2    0    0  0.21647327382E+03  0.24333991705E+03 -0.23111671448E+03  0.41846735741E+03  0.12500000000E+03 0.  0.
         21    1    1    2  503  502 -0.21647327382E+03 -0.24333991705E+03  0.20960175006E+03  0.38730851674E+03  0.00000000000E+00 0.  1.
<mgrwt>
<rscale>  3 0.34885526E+03</rscale>
<asrwt>0</asrwt>
<pdfrwt beam="1">  1       21 0.60327763E-01 0.34885526E+03</pdfrwt>
<pdfrwt beam="2">  1       21 0.63637757E-01 0.34885526E+03</pdfrwt>
<totfact> 0.53443278E+03</totfact>
</mgrwt>
</event>
<event>
 4    0  0.1005289E-001  0.2710016E+03  0.7546771E-02  0.1100708E+00
         21   -1    0    0  502  501  0.00000000000E+00  0.00000000000E+00  0.14550718483E+04  0.14550718483E+04  0.00000000000E+00 0. -1.
         21   -1    0    0  503  502 -0.00000000000E+00 -0.00000000000E+00 -0.10265310848E+04  0.10265310848E+04  0.00000000000E+00 0. -1.
         25    1    1    2    0    0  0.23966378548E+03  0.19445324644E+02 -0.99840962379E+03  0.10345354646E+04  0.12500000000E+03 0.  0.
         21    1    1    2  503  501 -0.23966378548E+03 -0.19445324644E+02  0.14269503872E+04  0.14470674685E+04  0.00000000000E+00 0. -1.
<mgrwt>
<rscale>  3 0.27100157E+03</rscale>
<asrwt>0</asrwt>
<pdfrwt beam="1">  1       21 0.22385721E+00 0.27100157E+03</pdfrwt>
<pdfrwt beam="2">  1       21 0.15792786E+00 0.27100157E+03</pdfrwt>
<totfact> 0.22155520E+01</totfact>
</mgrwt>
</event>
<event>
 4    0  0.1005289E-001  0.2401969E+03  0.7546771E-02  0.1119662E+00
         21   -1    0    0  503  501  0.00000000000E+00  0.00000000000E+00  0.10260431360E+04  0.10260431360E+04  0.00000000000E+00 0.  1.
         21   -1    0    0  501  502 -0.00000000000E+00 -0.00000000000E+00 -0.52700773359E+02  0.52700773359E+02  0.00000000000E+00 0. -1.
         25    1    1    2    0    0  0.77397459570E+02  0.18994515552E+03  0.36669065403E+03  0.43835666369E+03  0.12500000000E+03 0.  0.
         21    1    1    2  503  502 -0.77397459570E+02 -0.18994515552E+03  0.60665170865E+03  0.64038724571E+03  0.00000000000E+00 0.  1.
<mgrwt>
<rscale>  3 0.24019685E+03</rscale>
<asrwt>0</asrwt>
<pdfrwt beam="1">  1       21 0.15785278E+00 0.24019685E+03</pdfrwt>
<pdfrwt beam="2">  1       21 0.81078121E-02 0.24019685E+03</pdfrwt>
<totfact> 0.29748734E+04</totfact>
</mgrwt>
</event>
<event>
 4    0  0.1005289E-001  0.2496417E+03  0.7546771E-02  0.1113531E+00
         21   -1    0    0  502  501  0.00000000000E+00  0.00000000000E+00  0.41947015550E+03  0.41947015550E+03  0.00000000000E+00 0. -1.
         21   -1    0    0  503  502 -0.00000000000E+00 -0.00000000000E+00 -0.14539233005E+03  0.14539233005E+03  0.00000000000E+00 0.  1.
         25    1    1    2    0    0 -0.15411328639E+03 -0.15147634297E+03  0.51999285576E+02  0.25499982985E+03  0.12500000000E+03 0.  0.
         21    1    1    2  503  501  0.15411328639E+03  0.15147634297E+03  0.22207853988E+03  0.30986265570E+03  0.00000000000E+00 0. -1.
<mgrwt>
<rscale>  3 0.24964172E+03</rscale>
<asrwt>0</asrwt>
<pdfrwt beam="1">  1       21 0.64533870E-01 0.24964172E+03</pdfrwt>
<pdfrwt beam="2">  1       21 0.22368051E-01 0.24964172E+03</pdfrwt>
<totfact> 0.40318416E+04</totfact>
</mgrwt>
</event>
<event>
 4    0  0.1301768E-001  0.2373181E+03  0.7546771E-02  0.1121592E+00
         21   -1    0    0  502  501  0.00000000000E+00  0.00000000000E+00  0.12916809436E+03  0.12916809436E+03  0.00000000000E+00 0. -1.
         21   -1    0    0  503  502 -0.00000000000E+00 -0.00000000000E+00 -0.68065872911E+03  0.68065872911E+03  0.00000000000E+00 0. -1.
         25    1    1    2    0    0 -0.13027138816E+03 -0.15402684564E+03 -0.55969570608E+03  0.60793024859E+03  0.12500000000E+03 0.  0.
         21    1    1    2  503  501  0.13027138816E+03  0.15402684564E+03  0.82050713258E+01  0.20189657487E+03  0.00000000000E+00 0. -1.
<mgrwt>
<rscale>  3 0.23731815E+03</rscale>
<asrwt>0</asrwt>
<pdfrwt beam="1">  1       21 0.19872014E-01 0.23731815E+03</pdfrwt>
<pdfrwt beam="2">  1       21 0.10471673E+00 0.23731815E+03</pdfrwt>
<totfact> 0.16722362E+04</totfact>
</mgrwt>
</event>
<event>
 4    0  0.1494359E-001  0.2446702E+03  0.7546771E-02  0.1116720E+00
         21   -1    0    0  503  501  0.00000000000E+00  0.00000000000E+00  0.56663054217E+02  0.56663054217E+02  0.00000000000E+00 0. -1.
         21   -1    0    0  501  502 -0.00000000000E+00 -0.00000000000E+00 -0.93945384781E+03  0.93945384781E+03  0.00000000000E+00 0. -1.
         25    1    1    2    0    0 -0.20237815483E+03 -0.57285096986E+02 -0.55649419318E+03  0.60790565628E+03  0.12500000000E+03 0.  0.
         21    1    1    2  503  502  0.20237815483E+03  0.57285096986E+02 -0.32629660041E+03  0.38821124575E+03  0.00000000000E+00 0. -1.
<mgrwt>
<rscale>  3 0.24467019E+03</rscale>
<asrwt>0</asrwt>
<pdfrwt beam="1">  1       21 0.87173930E-02 0.24467019E+03</pdfrwt>
<pdfrwt beam="2">  1       21 0.14453136E+00 0.24467019E+03</pdfrwt>
<totfact> 0.33054082E+04</totfact>
</mgrwt>
</event>
<event>
 4    0  0.1362800E-001  0.2426589E+03  0.7546771E-02  0.1118034E+00
         21   -1    0    0  502  501  0.00000000000E+00  0.00000000000E+00  0.10798960838E+04  0.10798960838E+04  0.00000000000E+00 0.  1.
         21   -1    0    0  503  502 -0.00000000000E+00 -0.00000000000E+00 -0.48059142329E+02  0.48059142329E+02  0.00000000000E+00 0.  1.
         25    1    1    2    0    0 -0.18128973742E+03 -0.10194295208E+03  0.47182401744E+03  0.53056690229E+03  0.12500000000E+03 0.  0.
         21    1    1    2  503  501  0.18128973742E+03  0.10194295208E+03  0.56001292400E+03  0.59738832381E+03  0.00000000000E+00 0.  1.
<mgrwt>
<rscale>  3 0.24265888E+03</rscale>
<asrwt>0</asrwt>
<pdfrwt beam="1">  1       21 0.16613784E+00 0.24265888E+03</pdfrwt>
<pdfrwt beam="2">  1       21 0.73937151E-02 0.24265888E+03</pdfrwt>
<totfact> 0.30346129E+04</totfact>
</mgrwt>
</event>
<event>
 4    0  0.1005289E-001  0.2890734E+03  0.7546771E-02  0.1090834E+00
         21   -1    0    0  503  501  0.00000000000E+00  0.00000000000E+00  0.26043466544E+03  0.26043466544E+03  0.00000000000E+00 0. -1.
         21   -1    0    0  501  502 -0.00000000000E+00 -0.00000000000E+00 -0.29009752708E+03  0.29009752708E+03  0.00000000000E+00 0.  1.
         25    1    1    2    0    0 -0.17132699522E+03 -0.19643194804E+03 -0.17171673934E+02  0.28958300345E+03  0.12500000000E+03 0.  0.
         21    1    1    2  503  502  0.17132699522E+03  0.19643194804E+03 -0.12491187708E+02  0.26094918906E+03  0.00000000000E+00 0. -1.
<mgrwt>
<rscale>  3 0.28907343E+03</rscale>
<asrwt>0</asrwt>
<pdfrwt beam="1">  1       21 0.40066872E-01 0.28907343E+03</pdfrwt>
<pdfrwt beam="2">  1       21 0.44630388E-01 0.28907343E+03</pdfrwt>
<totfact> 0.27650584E+04</totfact>
</mgrwt>
</event>
<event>
 4    0  0.1491801E-001  0.2750402E+03  0.7546771E-02  0.1098429E+00
         21   -1    0    0  502  501  0.00000000000E+00  0.00000000000E+00  0.10034766546E+04  0.10034766546E+04  0.00000000000E+00 0.  1.
         21   -1    0    0  503  502 -0.00000000000E+00 -0.00000000000E+00 -0.87316165356E+02  0.87316165356E+02  0.00000000000E+00 0.  1.
         25    1    1    2    0    0  0.24497889479E+03  0.27295393369E+01  0.21819662108E+03  0.35107958461E+03  0.12500000000E+03 0.  0.
         21    1    1    2  503  501 -0.24497889479E+03 -0.27295393369E+01  0.69796386815E+03  0.73971323533E+03  0.00000000000E+00 0.  1.
<mgrwt>
<rscale>  3 0.27504020E+03</rscale>
<asrwt>0</asrwt>
<pdfrwt beam="1">  1       21 0.15438102E+00 0.27504020E+03</pdfrwt>
<pdfrwt beam="2">  1       21 0.13433257E-01 0.27504020E+03</pdfrwt>
<totfact> 0.12599671E+04</totfact>
</mgrwt>
</event>
<event>
 4    0  0.1005289E-001  0.2405942E+03  0.7546771E-02  0.1119398E+00
         21   -1    0    0  503  501  0.00000000000E+00  0.00000000000E+00  0.58126163091E+02  0.58126163091E+02  0.00000000000E+00 0.  1.
         21   -1    0    0  501  502 -0.00000000000E+00 -0.00000000000E+00 -0.11717114354E+04  0.11717114354E+04  0.00000000000E+00 0.  1.
         25    1    1    2    0    0 -0.11343926039E+03  0.17144119333E+03 -0.27034471302E+03  0.36190027967E+03  0.12500000000E+03 0.  0.
         21    1    1    2  503  502  0.11343926039E+03 -0.17144119333E+03 -0.84324055928E+03  0.86793731881E+03  0.00000000000E+00 0.  1.
<mgrwt>
<rscale>  3 0.24059416E+03</rscale>
<asrwt>0</asrwt>
<pdfrwt beam="1">  1       21 0.89424874E-02 0.24059416E+03</pdfrwt>
<pdfrwt beam="2">  1       21 0.18026328E+00 0.24059416E+03</pdfrwt>
<totfact> 0.17324590E+04</totfact>
</mgrwt>
</event>
<event>
 4    0  0.1005289E-001  0.3129363E+03  0.7546771E-02  0.1078947E+00
         21   -1    0    0  502  501  0.00000000000E+00  0.00000000000E+00  0.10858279731E+03  0.10858279731E+03  0.00000000000E+00 0.  1.
         21   -1    0    0  503  502 -0.00000000000E+00 -0.00000000000E+00 -0.89233525672E+03  0.89233525672E+03  0.00000000000E+00 0. -1.
         25    1    1    2    0    0 -0.24948768030E+03  0.14163333904E+03 -0.27380316447E+03  0.41580918487E+03  0.12500000000E+03 0.  0.
         21    1    1    2  503  501  0.24948768030E+03 -0.14163333904E+03 -0.50994929495E+03  0.58510886916E+03  0.00000000000E+00 0.  1.
<mgrwt>
<rscale>  3 0.31293626E+03</rscale>
<asrwt>0</asrwt>
<pdfrwt beam="1">  1       21 0.16705046E-01 0.31293626E+03</pdfrwt>
<pdfrwt beam="2">  1       21 0.13728235E+00 0.31293626E+03</pdfrwt>
<totfact> 0.11311029E+04</totfact>
</mgrwt>
</event>
<event>
 4    0  0.1590319E-001  0.2561924E+03  0.7546771E-02  0.1109453E+00
         21   -1    0    0  503  501  0.00000000000E+00  0.00000000000E+00  0.35865515212E+03  0.35865515212E+03  0.00000000000E+00 0. -1.
         21   -1    0    0  501  502 -0.00000000000E+00 -0.00000000000E+00 -0.21996029440E+03  0.21996029440E+03  0.00000000000E+00 0. -1.
         25    1    1    2    0    0 -0.12148618454E+03 -0.18775155776E+03 -0.77409835217E+02  0.26763187976E+03  0.12500000000E+03 0.  0.
         21    1    1    2  503  502  0.12148618454E+03  0.18775155776E+03  0.21610469294E+03  0.31098356675E+03  0.00000000000E+00 0. -1.
<mgrwt>
<rscale>  3 0.25619239E+03</rscale>
<asrwt>0</asrwt>
<pdfrwt beam="1">  1       21 0.55177716E-01 0.25619239E+03</pdfrwt>
<pdfrwt beam="2">  1       21 0.33840045E-01 0.25619239E+03</pdfrwt>
<totfact> 0.25226001E+04</totfact>
</mgrwt>
</event>
<event>
 4    0  0.1503705E-001  0.2416012E+03  0.7546771E-02  0.1118731E+00
         21   -1    0    0  503  501  0.00000000000E+00  0.00000000000E+00  0.76111297906E+03  0.76111297906E+03  0.00000000000E+00 0.  1.
         21   -1    0    0  501  502 -0.00000000000E+00 -0.00000000000E+00 -0.66575424022E+02  0.66575424022E+02  0.00000000000E+00 0.  1.
         25    1    1    2    0    0 -0.19884675868E+03  0.56622421763E+02  0.33663608095E+03  0.41436093334E+03  0.12500000000E+03 0.  0.
         21    1    1    2  503  502  0.19884675868E+03 -0.56622421763E+02  0.35790147409E+03  0.41332746974E+03  0.00000000000E+00 0.  1.
<mgrwt>
<rscale>  3 0.24160118E+03</rscale>
<asrwt>0</asrwt>
<pdfrwt beam="1">  1       21 0.11709430E+00 0.24160118E+03</pdfrwt>
<pdfrwt beam="2">  1       21 0.10242373E-01 0.24160118E+03</pdfrwt>
<totfact> 0.42563484E+04</totfact>
</mgrwt>
</event>
<event>
 4    0  0.1005289E-001  0.2367534E+03  0.7546771E-02  0.1121975E+00
         21   -1    0    0  502  501  0.00000000000E+00  0.00000000000E+00  0.32546432613E+02  0.32546432613E+02  0.00000000000E+00 0.  1.
         21   -1    0    0  503  502 -0.00000000000E+00 -0.00000000000E+00 -0.20146948723E+04  0.20146948723E+04  0.00000000000E+00 0.  1.
         25    1    1    2    0    0 -0.17302860148E+03 -0.10241230717E+03 -0.15798962052E+04  0.15975369156E+04  0.12500000000E+03 0.  0.
         21    1    1    2  503  501  0.17302860148E+03  0.10241230717E+03 -0.40225223446E+03  0.44970438926E+03  0.00000000000E+00 0.  1.
<mgrwt>
<rscale>  3 0.23675341E+03</rscale>
<asrwt>0</asrwt>
<pdfrwt beam="1">  1       21 0.50071433E-02 0.23675341E+03</pdfrwt>
<pdfrwt beam="2">  1       21 0.30995307E+00 0.23675341E+03</pdfrwt>
<totfact> 0.76688303E+03</totfact>
</mgrwt>
</event>
<event>
 4    0  0.1468153E-001  0.2679419E+03  0.7546771E-02  0.1102463E+00
         21   -1    0    0  503  501  0.00000000000E+00  0.00000000000E+00  0.91723111552E+03  0.91723111552E+03  0.00000000000E+00 0. -1.
         21   -1    0    0  501  502 -0.00000000000E+00 -0.00000000000E+00 -0.79164801209E+02  0.79164801209E+02  0.00000000000E+00 0. -1.
         25    1    1    2    0    0 -0.14941192214E+02  0.23652610836E+03  0.26772443833E+03  0.37877330165E+03  0.12500000000E+03 0.  0.
         21    1    1    2  503  502  0.14941192214E+02 -0.23652610836E+03  0.57034187597E+03  0.61762261507E+03  0.00000000000E+00 0. -1.
<mgrwt>
<rscale>  3 0.26794186E+03</rscale>
<asrwt>0</asrwt>
<pdfrwt beam="1">  1       21 0.14111247E+00 0.26794186E+03</pdfrwt>
<pdfrwt beam="2">  1       21 0.12179201E-01 0.26794186E+03</pdfrwt>
<totfact> 0.19173866E+04</totfact>
</mgrwt>
</event>
<event>
 4    0  0.1552702E-001  0.2451907E+03  0.7546771E-02  0.1116382E+00
         21   -1    0    0  503  501  0.00000000000E+00  0.00000000000E+00  0.28310803577E+03  0.28310803577E+03  0.00000000000E+00 0. -1.
         21   -1    0    0  501  502 -0.00000000000E+00 -0.00000000000E+00 -0.20712997428E+03  0.20712997428E+03  0.00000000000E+00 0. -1.
         25    1    1    2    0    0  0.20769917351E+03  0.36803954970E+02 -0.41679426174E+02  0.24870796599E+03  0.12500000000E+03 0.  0.
         21    1    1    2  503  502 -0.20769917351E+03 -0.36803954970E+02  0.11765748766E+03  0.24153004406E+03  0.00000000000E+00 0. -1.
<mgrwt>
<rscale>  3 0.24519070E+03</rscale>
<asrwt>0</asrwt>
<pdfrwt beam="1">  1       21 0.43555083E-01 0.24519070E+03</pdfrwt>
<pdfrwt beam="2">  1       21 0.31866150E-01 0.24519070E+03</pdfrwt>
<totfact> 0.46842754E+04</totfact>
</mgrwt>
</event>
<event>
 4    0  0.1358941E-001  0.2606158E+03  0.7546771E-02  0.1106774E+00
         21   -1    0    0  503  501  0.00000000000E+00  0.00000000000E+00  0.60025816375E+02  0.60025816375E+02  0.00000000000E+00 0. -1.
         21   -1    0    0  501  502 -0.00000000000E+00 -0.00000000000E+00 -0.10096744569E+04  0.10096744569E+04  0.00000000000E+00 0. -1.
         25    1    1    2    0    0 -0.15720941927E+03 -0.16607459612E+03 -0.56493514961E+03  0.62215134513E+03  0.12500000000E+03 0.  0.
         21    1    1    2  503  502  0.15720941927E+03  0.16607459612E+03 -0.38471349087E+03  0.44754892809E+03  0.00000000000E+00 0. -1.
<mgrwt>
<rscale>  3 0.26061576E+03</rscale>
<asrwt>0</asrwt>
<pdfrwt beam="1">  1       21 0.92347410E-02 0.26061576E+03</pdfrwt>
<pdfrwt beam="2">  1       21 0.15533453E+00 0.26061576E+03</pdfrwt>
<totfact> 0.24452108E+04</totfact>
</mgrwt>
</event>
<event>
 4    0  0.1566899E-001  0.2390948E+03  0.7546771E-02  0.1120397E+00
         21   -1    0    0  502  501  0.00000000000E+00  0.00000000000E+00  0.21308795407E+03  0.21308795407E+03  0.00000000000E+00 0.  1.
         21   -1    0    0  503  502 -0.00000000000E+00 -0.00000000000E+00 -0.28564655866E+03  0.28564655866E+03  0.00000000000E+00 0.  1.
         25    1    1    2    0    0 -0.19404801929E+03 -0.62343376852E+02 -0.14823918789E+03  0.28132043519E+03  0.12500000000E+03 0.  0.
         21    1    1    2  503  501  0.19404801929E+03  0.62343376852E+02  0.75680583301E+02  0.21741407754E+03  0.00000000000E+00 0.  1.
<mgrwt>
<rscale>  3 0.23909481E+03</rscale>
<asrwt>0</asrwt>
<pdfrwt beam="1">  1       21 0.32782762E-01 0.23909481E+03</pdfrwt>
<pdfrwt beam="2">  1       21 0.43945624E-01 0.23909481E+03</pdfrwt>
<totfact> 0.43593369E+04</totfact>
</mgrwt>
</event>
<event>
 4    0  0.1463209E-001  0.2362070E+03  0.7546771E-02  0.1122346E+00
         21   -1    0    0  503  501  0.00000000000E+00  0.00000000000E+00  0.93026734170E+02  0.93026734170E+02  0.00000000000E+00 0. -1.
         21   -1    0    0  501  502 -0.00000000000E+00 -0.00000000000E+00 -0.53604401878E+03  0.53604401878E+03  0.00000000000E+00 0. -1.
         25    1    1    2    0    0  0.19995919791E+03 -0.13604456037E+02 -0.30479323272E+03  0.38560689408E+03  0.12500000000E+03 0.  0.
         21    1    1    2  503  502 -0.19995919791E+03  0.13604456037E+02 -0.13822405189E+03  0.24346385886E+03  0.00000000000E+00 0. -1.
<mgrwt>
<rscale>  3 0.23620703E+03</rscale>
<asrwt>0</asrwt>
<pdfrwt beam="1">  1       21 0.14311805E-01 0.23620703E+03</pdfrwt>
<pdfrwt beam="2">  1       21 0.82468312E-01 0.23620703E+03</pdfrwt>
<totfact> 0.53755079E+04</totfact>
</mgrwt>
</event>
<event>
 4    0  0.1099536E-001  0.2853288E+03  0.7546771E-02  0.1092814E+00
         21   -1    0    0  502  501  0.00000000000E+00  0.00000000000E+00  0.66462564918E+03  0.66462564918E+03  0.00000000000E+00 0.  1.
         21   -1    0    0  503  502 -0.00000000000E+00 -0.00000000000E+00 -0.15726938675E+03  0.15726938675E+03  0.00000000000E+00 0. -1.
         25    1    1    2    0    0  0.27899942255E+02 -0.25496881109E+03  0.39103202813E+02  0.28799576711E+03  0.12500000000E+03 0.  0.
         21    1    1    2  503  501 -0.27899942255E+02  0.25496881109E+03  0.46825305962E+03  0.53389926882E+03  0.00000000000E+00 0.  1.
<mgrwt>
<rscale>  3 0.28532876E+03</rscale>
<asrwt>0</asrwt>
<pdfrwt beam="1">  1       21 0.10225010E+00 0.28532876E+03</pdfrwt>
<pdfrwt beam="2">  1       21 0.24195291E-01 0.28532876E+03</pdfrwt>
<totfact> 0.11897478E+04</totfact>
</mgrwt>
</event>
<event>
 4    0  0.1327658E-001  0.3655769E+03  0.7546771E-02  0.1056397E+00
         21   -1    0    0  503  501  0.00000000000E+00  0.00000000000E+00  0.33288105736E+03  0.33288105736E+03  0.00000000000E+00 0.  1.
         21   -1    0    0  501  502 -0.00000000000E+00 -0.00000000000E+00 -0.59787830262E+03  0.59787830262E+03  0.00000000000E+00 0. -1.
         25    1    1    2    0    0 -0.34045047038E+03  0.45988157532E+02 -0.41746041417E+03  0.55490506469E+03  0.12500000000E+03 0.  0.
         21    1    1    2  503  502  0.34045047038E+03 -0.45988157532E+02  0.15246316891E+03  0.37585429530E+03  0.00000000000E+00 0.  1.
<mgrwt>
<rscale>  3 0.36557685E+03</rscale>
<asrwt>0</asrwt>
<pdfrwt beam="1">  1       21 0.51212471E-01 0.36557685E+03</pdfrwt>
<pdfrwt beam="2">  1       21 0.91981277E-01 0.36557685E+03</pdfrwt>
<totfact> 0.32596836E+03</totfact>
</mgrwt>
</event>
<event>
 4    0  0.1344368E-001  0.2406430E+03  0.7546771E-02  0.1119365E+00
         21   -1    0    0  503  501  0.00000000000E+00  0.00000000000E+00  0.70983917729E+03  0.70983917729E+03  0.00000000000E+00 0.  1.
         21   -1    0    0  501  502 -0.00000000000E+00 -0.00000000000E+00 -0.95896365184E+02  0.95896365184E+02  0.00000000000E+00 0.  1.
         25    1    1    2    0    0  0.17969904605E+02  0.20484413273E+03  0.11628145583E+03  0.26726468745E+03  0.12500000000E+03 0.  0.
         21    1    1    2  503  502 -0.17969904605E+02 -0.20484413273E+03  0.49766135628E+03  0.53847085503E+03  0.00000000000E+00 0.  1.
<mgrwt>
<rscale>  3 0.24064296E+03</rscale>
<asrwt>0</asrwt>
<pdfrwt beam="1">  1       21 0.10920602E+00 0.24064296E+03</pdfrwt>
<pdfrwt beam="2">  1       21 0.14753287E-01 0.24064296E+03</pdfrwt>
<totfact> 0.26167172E+04</totfact>
</mgrwt>
</event>
<event>
 4    0  0.1346136E-001  0.2362446E+03  0.7546771E-02  0.1122320E+00
         21   -1    0    0  502  501  0.00000000000E+00  0.00000000000E+00  0.27141373723E+03  0.27141373723E+03  0.00000000000E+00 0. -1.
         21   -1    0    0  503  502 -0.00000000000E+00 -0.00000000000E+00 -0.41639685909E+03  0.41639685909E+03  0.00000000000E+00 0. -1.
         25    1    1    2    0    0  0.16559027901E+02 -0.19978069541E+03 -0.33611254270E+03  0.41083228820E+03  0.12500000000E+03 0.  0.
         21    1    1    2  503  501 -0.16559027901E+02  0.19978069541E+03  0.19112942083E+03  0.27697830813E+03  0.00000000000E+00 0. -1.
<mgrwt>
<rscale>  3 0.23624464E+03</rscale>
<asrwt>0</asrwt>
<pdfrwt beam="1">  1       21 0.41755959E-01 0.23624464E+03</pdfrwt>
<pdfrwt beam="2">  1       21 0.64061055E-01 0.23624464E+03</pdfrwt>
<totfact> 0.12088103E+04</totfact>
</mgrwt>
</event>
<event>
 4    0  0.1345295E-001  0.2530939E+03  0.7546771E-02  0.1111365E+00
         21   -1    0    0  502  501  0.00000000000E+00  0.00000000000E+00  0.92148580798E+03  0.92148580798E+03  0.00000000000E+00 0.  1.
         21   -1    0    0  503  502 -0.00000000000E+00 -0.00000000000E+00 -0.60755669759E+02  0.60755669759E+02  0.00000000000E+00 0.  1.
         25    1    1    2    0    0  0.71499393509E+02  0.20813309210E+03  0.46815603143E+03  0.53219039550E+03  0.12500000000E+03 0.  0.
         21    1    1    2  503  501 -0.71499393509E+02 -0.20813309210E+03  0.39257410679E+03  0.45005108223E+03  0.00000000000E+00 0.  1.
<mgrwt>
<rscale>  3 0.25309395E+03</rscale>
<asrwt>0</asrwt>
<pdfrwt beam="1">  1       21 0.14176704E+00 0.25309395E+03</pdfrwt>
<pdfrwt beam="2">  1       21 0.93470268E-02 0.25309395E+03</pdfrwt>
<totfact> 0.30619192E+04</totfact>
</mgrwt>
</event>
<event>
 4    0  0.1184721E-001  0.2637534E+03  0.7546771E-02  0.1104909E+00
         21   -1    0    0  503  501  0.00000000000E+00  0.00000000000E+00  0.14107998903E+04  0.14107998903E+04  0.00000000000E+00 0. -1.
         21   -1    0    0  501  502 -0.00000000000E+00 -0.00000000000E+00 -0.59356955318E+02  0.59356955318E+02  0.00000000000E+00 0. -1.
         25    1    1    2    0    0 -0.54019507025E+02  0.22588214023E+03  0.32902170097E+03  0.42168842541E+03  0.12500000000E+03 0.  0.
         21    1    1    2  503  502  0.54019507025E+02 -0.22588214023E+03  0.10224212341E+04  0.10484684202E+04  0.00000000000E+00 0. -1.
<mgrwt>
<rscale>  3 0.26375339E+03</rscale>
<asrwt>0</asrwt>
<pdfrwt beam="1">  1       21 0.21704611E+00 0.26375339E+03</pdfrwt>
<pdfrwt beam="2">  1       21 0.91318404E-02 0.26375339E+03</pdfrwt>
<totfact> 0.94568380E+03</totfact>
</mgrwt>
</event>
<event>
 4    0  0.1261106E-001  0.3034706E+03  0.7546771E-02  0.1083518E+00
         21   -1    0    0  503  501  0.00000000000E+00  0.00000000000E+00  0.41197756764E+03  0.41197756764E+03  0.00000000000E+00 0.  1.
         21   -1    0    0  501  502 -0.00000000000E+00 -0.00000000000E+00 -0.30167600338E+03  0.30167600338E+03  0.00000000000E+00 0. -1.
         25    1    1    2    0    0 -0.15859330050E+03  0.22653379919E+03 -0.14586344185E+03  0.33670542141E+03  0.12500000000E+03 0.  0.
         21    1    1    2  503  502  0.15859330050E+03 -0.22653379919E+03  0.25616500611E+03  0.37694814961E+03  0.00000000000E+00 0.  1.
<mgrwt>
<rscale>  3 0.30347059E+03</rscale>
<asrwt>0</asrwt>
<pdfrwt beam="1">  1       21 0.63381164E-01 0.30347059E+03</pdfrwt>
<pdfrwt beam="2">  1       21 0.46411693E-01 0.30347059E+03</pdfrwt>
<totfact> 0.96184849E+03</totfact>
</mgrwt>
</event>
<event>
 4    0  0.1554639E-001  0.2405315E+03  0.7546771E-02  0.1119439E+00
         21   -1    0    0  503  501  0.00000000000E+00  0.00000000000E+00  0.30340567468E+03  0.30340567468E+03  0.00000000000E+00 0.  1.
         21   -1    0    0  501  502 -0.00000000000E+00 -0.00000000000E+00 -0.20533540097E+03  0.20533540097E+03  0.00000000000E+00 0.  1.
         25    1    1    2    0    0 -0.13488897033E+03  0.15503342929E+03 -0.61839702522E+02  0.24835367386E+03  0.12500000000E+03 0.  0.
         21    1    1    2  503  502  0.13488897033E+03 -0.15503342929E+03  0.15990997623E+03  0.26038740179E+03  0.00000000000E+00 0.  1.
<mgrwt>
<rscale>  3 0.24053149E+03</rscale>
<asrwt>0</asrwt>
<pdfrwt beam="1">  1       21 0.46677796E-01 0.24053149E+03</pdfrwt>
<pdfrwt beam="2">  1       21 0.31590062E-01 0.24053149E+03</pdfrwt>
<totfact> 0.41382067E+04</totfact>
</mgrwt>
</event>
<event>
 4    0  0.1336611E-001  0.2580948E+03  0.7546771E-02  0.1108293E+00
         21   -1    0    0  503  501  0.00000000000E+00  0.00000000000E+00  0.17160945924E+04  0.17160945924E+04  0.00000000000E+00 0.  1.
         21   -1    0    0  501  502 -0.00000000000E+00 -0.00000000000E+00 -0.35401803033E+02  0.35401803033E+02  0.00000000000E+00 0.  1.
         25    1    1    2    0    0  0.22367576485E+03 -0.30936804289E+02  0.72759253726E+03  0.77201284570E+03  0.12500000000E+03 0.  0.
         21    1    1    2  503  502 -0.22367576485E+03  0.30936804289E+02  0.95310025212E+03  0.97948354975E+03  0.00000000000E+00 0.  1.
<mgrwt>
<rscale>  3 0.25809482E+03</rscale>
<asrwt>0</asrwt>
<pdfrwt beam="1">  1       21 0.26401449E+00 0.25809482E+03</pdfrwt>
<pdfrwt beam="2">  1       21 0.54464326E-02 0.25809482E+03</pdfrwt>
<totfact> 0.12119916E+04</totfact>
</mgrwt>
</event>
<event>
 4    0  0.1514414E-001  0.2423864E+03  0.7546771E-02  0.1118213E+00
         21   -1    0    0  502  501  0.00000000000E+00  0.00000000000E+00  0.13945192475E+03  0.13945192475E+03  0.00000000000E+00 0.  1.
         21   -1    0    0  503  502 -0.00000000000E+00 -0.00000000000E+00 -0.36352031809E+03  0.36352031809E+03  0.00000000000E+00 0.  1.
         25    1    1    2    0    0 -0.18025468385E+03  0.10312322929E+03 -0.12902244824E+03  0.27458685988E+03  0.12500000000E+03 0.  0.
         21    1    1    2  503  501  0.18025468385E+03 -0.10312322929E+03 -0.95045945108E+02  0.22838538296E+03  0.00000000000E+00 0.  1.
<mgrwt>
<rscale>  3 0.24238637E+03</rscale>
<asrwt>0</asrwt>
<pdfrwt beam="1">  1       21 0.21454143E-01 0.24238637E+03</pdfrwt>
<pdfrwt beam="2">  1       21 0.55926202E-01 0.24238637E+03</pdfrwt>
<totfact> 0.59629941E+04</totfact>
</mgrwt>
</event>
<event>
 4    0  0.1144129E-001  0.4938507E+03  0.7546771E-02  0.1015397E+00
         21   -1    0    0  502  501  0.00000000000E+00  0.00000000000E+00  0.10546737318E+04  0.10546737318E+04  0.00000000000E+00 0. -1.
         21   -1    0    0  503  502 -0.00000000000E+00 -0.00000000000E+00 -0.30938261958E+03  0.30938261958E+03  0.00000000000E+00 0. -1.
         25    1    1    2    0    0 -0.46798327371E+03  0.96203623835E+02  0.18380191491E+02  0.49419258710E+03  0.12500000000E+03 0.  0.
         21    1    1    2  503  501  0.46798327371E+03 -0.96203623835E+02  0.72691092070E+03  0.86986376424E+03  0.00000000000E+00 0. -1.
<mgrwt>
<rscale>  3 0.49385067E+03</rscale>
<asrwt>0</asrwt>
<pdfrwt beam="1">  1       21 0.16225750E+00 0.49385067E+03</pdfrwt>
<pdfrwt beam="2">  1       21 0.47597327E-01 0.49385067E+03</pdfrwt>
<totfact> 0.84335436E+02</totfact>
</mgrwt>
</event>
<event>
 4    0  0.1034812E-001  0.2420518E+03  0.7546771E-02  0.1118433E+00
         21   -1    0    0  502  501  0.00000000000E+00  0.00000000000E+00  0.10553148986E+04  0.10553148986E+04  0.00000000000E+00 0. -1.
         21   -1    0    0  503  502 -0.00000000000E+00 -0.00000000000E+00 -0.54253697148E+02  0.54253697148E+02  0.00000000000E+00 0. -1.
         25    1    1    2    0    0  0.20520959069E+03 -0.29207836834E+02  0.72509364425E+03  0.76442780351E+03  0.12500000000E+03 0.  0.
         21    1    1    2  503  501 -0.20520959069E+03  0.29207836834E+02  0.27596755723E+03  0.34514079227E+03  0.00000000000E+00 0. -1.
<mgrwt>
<rscale>  3 0.24205180E+03</rscale>
<asrwt>0</asrwt>
<pdfrwt beam="1">  1       21 0.16235612E+00 0.24205180E+03</pdfrwt>
<pdfrwt beam="2">  1       21 0.83467234E-02 0.24205180E+03</pdfrwt>
<totfact> 0.26162197E+04</totfact>
</mgrwt>
</event>
<event>
 4    0  0.1388193E-001  0.2401261E+03  0.7546771E-02  0.1119709E+00
         21   -1    0    0  502  501  0.00000000000E+00  0.00000000000E+00  0.14311547745E+03  0.14311547745E+03  0.00000000000E+00 0. -1.
         21   -1    0    0  503  502 -0.00000000000E+00 -0.00000000000E+00 -0.40327109777E+03  0.40327109777E+03  0.00000000000E+00 0. -1.
         25    1    1    2    0    0  0.15640063390E+03 -0.13256848109E+03 -0.24142127150E+03  0.34050666777E+03  0.12500000000E+03 0.  0.
         21    1    1    2  503  501 -0.15640063390E+03  0.13256848109E+03 -0.18734348821E+02  0.20587990744E+03  0.00000000000E+00 0. -1.
<mgrwt>
<rscale>  3 0.24012613E+03</rscale>
<asrwt>0</asrwt>
<pdfrwt beam="1">  1       21 0.22017766E-01 0.24012613E+03</pdfrwt>
<pdfrwt beam="2">  1       21 0.62041706E-01 0.24012613E+03</pdfrwt>
<totfact> 0.45449151E+04</totfact>
</mgrwt>
</event>
<event>
 4    0  0.1339764E-001  0.2383622E+03  0.7546771E-02  0.1120889E+00
         21   -1    0    0  503  501  0.00000000000E+00  0.00000000000E+00  0.13717848575E+03  0.13717848575E+03  0.00000000000E+00 0. -1.
         21   -1    0    0  501  502 -0.00000000000E+00 -0.00000000000E+00 -0.36484789557E+03  0.36484789557E+03  0.00000000000E+00 0. -1.
         25    1    1    2    0    0  0.11881270111E+02  0.20260886117E+03 -0.16394681562E+03  0.28930100856E+03  0.12500000000E+03 0.  0.
         21    1    1    2  503  502 -0.11881270111E+02 -0.20260886117E+03 -0.63722594203E+02  0.21272537276E+03  0.00000000000E+00 0. -1.
<mgrwt>
<rscale>  3 0.23836215E+03</rscale>
<asrwt>0</asrwt>
<pdfrwt beam="1">  1       21 0.21104383E-01 0.23836215E+03</pdfrwt>
<pdfrwt beam="2">  1       21 0.56130445E-01 0.23836215E+03</pdfrwt>
<totfact> 0.61130048E+04</totfact>
</mgrwt>
</event>
<event>
 4    0  0.1005289E-001  0.2383855E+03  0.7546771E-02  0.1120873E+00
         21   -1    0    0  502  501  0.00000000000E+00  0.00000000000E+00  0.76847953377E+02  0.76847953377E+02  0.00000000000E+00 0.  1.
         21   -1    0    0  503  502 -0.00000000000E+00 -0.00000000000E+00 -0.64253518382E+03  0.64253518382E+03  0.00000000000E+00 0. -1.
         25    1    1    2    0    0  0.19947600566E+03  0.37575882674E+02 -0.26327624197E+03  0.35516475526E+03  0.12500000000E+03 0.  0.
         21    1    1    2  503  501 -0.19947600566E+03 -0.37575882674E+02 -0.30241098848E+03  0.36421838194E+03  0.00000000000E+00 0.  1.
<mgrwt>
<rscale>  3 0.23838545E+03</rscale>
<asrwt>0</asrwt>
<pdfrwt beam="1">  1       21 0.11822762E-01 0.23838545E+03</pdfrwt>
<pdfrwt beam="2">  1       21 0.98851568E-01 0.23838545E+03</pdfrwt>
<totfact> 0.49742487E+04</totfact>
</mgrwt>
</event>
<event>
 4    0  0.1140283E-001  0.3546842E+03  0.7546771E-02  0.1060709E+00
         21   -1    0    0  503  501  0.00000000000E+00  0.00000000000E+00  0.16522403032E+04  0.16522403032E+04  0.00000000000E+00 0.  1.
         21   -1    0    0  501  502 -0.00000000000E+00 -0.00000000000E+00 -0.76467549585E+02  0.76467549585E+02  0.00000000000E+00 0.  1.
         25    1    1    2    0    0  0.17668458147E+02  0.33145691029E+03  0.58837870368E+03  0.68701554330E+03  0.12500000000E+03 0.  0.
         21    1    1    2  503  502 -0.17668458147E+02 -0.33145691029E+03  0.98739404996E+03  0.10416923095E+04  0.00000000000E+00 0.  1.
<mgrwt>
<rscale>  3 0.35468417E+03</rscale>
<asrwt>0</asrwt>
<pdfrwt beam="1">  1       21 0.25419079E+00 0.35468417E+03</pdfrwt>
<pdfrwt beam="2">  1       21 0.11764240E-01 0.35468417E+03</pdfrwt>
<totfact> 0.33606049E+03</totfact>
</mgrwt>
</event>
<event>
 4    0  0.1469812E-001  0.3520481E+03  0.7546771E-02  0.1061778E+00
         21   -1    0    0  502  501  0.00000000000E+00  0.00000000000E+00  0.61964299076E+03  0.61964299076E+03  0.00000000000E+00 0.  1.
         21   -1    0    0  503  502 -0.00000000000E+00 -0.00000000000E+00 -0.19091669144E+03  0.19091669144E+03  0.00000000000E+00 0.  1.
         25    1    1    2    0    0  0.13026591365E+03  0.30223116762E+03  0.16488476871E+03  0.38874782815E+03  0.12500000000E+03 0.  0.
         21    1    1    2  503  501 -0.13026591365E+03 -0.30223116762E+03  0.26384153061E+03  0.42181185405E+03  0.00000000000E+00 0.  1.
<mgrwt>
<rscale>  3 0.35204813E+03</rscale>
<asrwt>0</asrwt>
<pdfrwt beam="1">  1       21 0.95329690E-01 0.35204813E+03</pdfrwt>
<pdfrwt beam="2">  1       21 0.29371799E-01 0.35204813E+03</pdfrwt>
<totfact> 0.93792818E+03</totfact>
</mgrwt>
</event>
<event>
 4    0  0.1068899E-001  0.2651691E+03  0.7546771E-02  0.1104077E+00
         21   -1    0    0  503  501  0.00000000000E+00  0.00000000000E+00  0.58111780609E+02  0.58111780609E+02  0.00000000000E+00 0.  1.
         21   -1    0    0  501  502 -0.00000000000E+00 -0.00000000000E+00 -0.15306412263E+04  0.15306412263E+04  0.00000000000E+00 0.  1.
         25    1    1    2    0    0 -0.15336176232E+03 -0.17654973659E+03 -0.12031515586E+04  0.12320261006E+04  0.12500000000E+03 0.  0.
         21    1    1    2  503  502  0.15336176232E+03  0.17654973659E+03 -0.26937788716E+03  0.35672690637E+03  0.00000000000E+00 0.  1.
<mgrwt>
<rscale>  3 0.26516908E+03</rscale>
<asrwt>0</asrwt>
<pdfrwt beam="1">  1       21 0.89402754E-02 0.26516908E+03</pdfrwt>
<pdfrwt beam="2">  1       21 0.23548323E+00 0.26516908E+03</pdfrwt>
<totfact> 0.75472695E+03</totfact>
</mgrwt>
</event>
<event>
 4    0  0.1005289E-001  0.2700756E+03  0.7546771E-02  0.1101236E+00
         21   -1    0    0  502  501  0.00000000000E+00  0.00000000000E+00  0.47451104425E+02  0.47451104425E+02  0.00000000000E+00 0. -1.
         21   -1    0    0  503  502 -0.00000000000E+00 -0.00000000000E+00 -0.17228504663E+04  0.17228504663E+04  0.00000000000E+00 0. -1.
         25    1    1    2    0    0 -0.23780412402E+03  0.27658993634E+02 -0.47635440732E+03  0.54758957505E+03  0.12500000000E+03 0.  0.
         21    1    1    2  503  501  0.23780412402E+03 -0.27658993634E+02 -0.11990449546E+04  0.12227119957E+04  0.00000000000E+00 0. -1.
<mgrwt>
<rscale>  3 0.27007558E+03</rscale>
<asrwt>0</asrwt>
<pdfrwt beam="1">  1       21 0.73001697E-02 0.27007558E+03</pdfrwt>
<pdfrwt beam="2">  1       21 0.26505392E+00 0.27007558E+03</pdfrwt>
<totfact> 0.71377862E+03</totfact>
</mgrwt>
</event>
<event>
 4    0  0.1005289E-001  0.2979182E+03  0.7546771E-02  0.1086286E+00
         21   -1    0    0  502  501  0.00000000000E+00  0.00000000000E+00  0.49349033489E+02  0.49349033489E+02  0.00000000000E+00 0.  1.
         21   -1    0    0  503  502 -0.00000000000E+00 -0.00000000000E+00 -0.22095703209E+04  0.22095703209E+04  0.00000000000E+00 0.  1.
         25    1    1    2    0    0  0.25052456985E+03 -0.10182190954E+03 -0.16935682050E+04  0.17195721928E+04  0.12500000000E+03 0.  0.
         21    1    1    2  503  501 -0.25052456985E+03  0.10182190954E+03 -0.46665308241E+03  0.53934716156E+03  0.00000000000E+00 0.  1.
<mgrwt>
<rscale>  3 0.29791821E+03</rscale>
<asrwt>0</asrwt>
<pdfrwt beam="1">  1       21 0.75921584E-02 0.29791821E+03</pdfrwt>
<pdfrwt beam="2">  1       21 0.33993392E+00 0.29791821E+03</pdfrwt>
<totfact> 0.23557609E+03</totfact>
</mgrwt>
</event>
<event>
 4    0  0.1323784E-001  0.2550745E+03  0.7546771E-02  0.1110139E+00
         21   -1    0    0  502  501  0.00000000000E+00  0.00000000000E+00  0.67412752191E+02  0.67412752191E+02  0.00000000000E+00 0.  1.
         21   -1    0    0  503  502 -0.00000000000E+00 -0.00000000000E+00 -0.10774434385E+04  0.10774434385E+04  0.00000000000E+00 0.  1.
         25    1    1    2    0    0 -0.48356326597E+02 -0.21702453538E+03 -0.79740230300E+03  0.83720571911E+03  0.12500000000E+03 0.  0.
         21    1    1    2  503  501  0.48356326597E+02  0.21702453538E+03 -0.21262838331E+03  0.30765047159E+03  0.00000000000E+00 0.  1.
<mgrwt>
<rscale>  3 0.25507447E+03</rscale>
<asrwt>0</asrwt>
<pdfrwt beam="1">  1       21 0.10371193E-01 0.25507447E+03</pdfrwt>
<pdfrwt beam="2">  1       21 0.16576052E+00 0.25507447E+03</pdfrwt>
<totfact> 0.16711808E+04</totfact>
</mgrwt>
</event>
<event>
 4    0  0.1513345E-001  0.2580867E+03  0.7546771E-02  0.1108298E+00
         21   -1    0    0  503  501  0.00000000000E+00  0.00000000000E+00  0.22829498898E+03  0.22829498898E+03  0.00000000000E+00 0.  1.
         21   -1    0    0  501  502 -0.00000000000E+00 -0.00000000000E+00 -0.56373161088E+03  0.56373161088E+03  0.00000000000E+00 0. -1.
         25    1    1    2    0    0 -0.18484940317E+03  0.12967048712E+03 -0.46491103635E+03  0.53174336743E+03  0.12500000000E+03 0.  0.
         21    1    1    2  503  502  0.18484940317E+03 -0.12967048712E+03  0.12947441446E+03  0.26028323243E+03  0.00000000000E+00 0.  1.
<mgrwt>
<rscale>  3 0.25808669E+03</rscale>
<asrwt>0</asrwt>
<pdfrwt beam="1">  1       21 0.35122306E-01 0.25808669E+03</pdfrwt>
<pdfrwt beam="2">  1       21 0.86727940E-01 0.25808669E+03</pdfrwt>
<totfact> 0.85777897E+03</totfact>
</mgrwt>
</event>
<event>
 4    0  0.1267884E-001  0.2423589E+03  0.7546771E-02  0.1118231E+00
         21   -1    0    0  502  501  0.00000000000E+00  0.00000000000E+00  0.26649489151E+03  0.26649489151E+03  0.00000000000E+00 0.  1.
         21   -1    0    0  503  502 -0.00000000000E+00 -0.00000000000E+00 -0.45349040028E+03  0.45349040028E+03  0.00000000000E+00 0.  1.
         25    1    1    2    0    0  0.11549141047E+03 -0.17255307554E+03 -0.37060212770E+03  0.44281346730E+03  0.12500000000E+03 0.  0.
         21    1    1    2  503  501 -0.11549141047E+03  0.17255307554E+03  0.18360661893E+03  0.27717182448E+03  0.00000000000E+00 0.  1.
<mgrwt>
<rscale>  3 0.24235889E+03</rscale>
<asrwt>0</asrwt>
<pdfrwt beam="1">  1       21 0.40999214E-01 0.24235889E+03</pdfrwt>
<pdfrwt beam="2">  1       21 0.69767753E-01 0.24235889E+03</pdfrwt>
<totfact> 0.10364941E+04</totfact>
</mgrwt>
</event>
<event>
 4    0  0.1416876E-001  0.2671033E+03  0.7546771E-02  0.1102949E+00
         21   -1    0    0  503  501  0.00000000000E+00  0.00000000000E+00  0.51403651401E+03  0.51403651401E+03  0.00000000000E+00 0.  1.
         21   -1    0    0  501  502 -0.00000000000E+00 -0.00000000000E+00 -0.25717454807E+03  0.25717454807E+03  0.00000000000E+00 0. -1.
         25    1    1    2    0    0 -0.10696656609E+01  0.23604669786E+03 -0.14591570354E+03  0.30436093753E+03  0.12500000000E+03 0.  0.
         21    1    1    2  503  502  0.10696656609E+01 -0.23604669786E+03  0.40277766948E+03  0.46685012454E+03  0.00000000000E+00 0.  1.
<mgrwt>
<rscale>  3 0.26710333E+03</rscale>
<asrwt>0</asrwt>
<pdfrwt beam="1">  1       21 0.79082540E-01 0.26710333E+03</pdfrwt>
<pdfrwt beam="2">  1       21 0.39565315E-01 0.26710333E+03</pdfrwt>
<totfact> 0.82978312E+03</totfact>
</mgrwt>
</event>
<event>
 4    0  0.1005289E-001  0.2617083E+03  0.7546771E-02  0.1106121E+00
         21   -1    0    0  502  501  0.00000000000E+00  0.00000000000E+00  0.12160851413E+03  0.12160851413E+03  0.00000000000E+00 0. -1.
         21   -1    0    0  503  502 -0.00000000000E+00 -0.00000000000E+00 -0.49695072505E+03  0.49695072505E+03  0.00000000000E+00 0.  1.
         25    1    1    2    0    0  0.22758568396E+03 -0.32726161208E+02 -0.19642975279E+03  0.32722452988E+03  0.12500000000E+03 0.  0.
         21    1    1    2  503  501 -0.22758568396E+03  0.32726161208E+02 -0.17891245813E+03  0.29133470930E+03  0.00000000000E+00 0. -1.
<mgrwt>
<rscale>  3 0.26170832E+03</rscale>
<asrwt>0</asrwt>
<pdfrwt beam="1">  1       21 0.18709002E-01 0.26170832E+03</pdfrwt>
<pdfrwt beam="2">  1       21 0.76453958E-01 0.26170832E+03</pdfrwt>
<totfact> 0.38539042E+04</totfact>
</mgrwt>
</event>
<event>
 4    0  0.1365972E-001  0.2361987E+03  0.7546771E-02  0.1122351E+00
         21   -1    0    0  502  501  0.00000000000E+00  0.00000000000E+00  0.15884183012E+03  0.15884183012E+03  0.00000000000E+00 0. -1.
         21   -1    0    0  503  502 -0.00000000000E+00 -0.00000000000E+00 -0.58354224758E+03  0.58354224758E+03  0.00000000000E+00 0. -1.
         25    1    1    2    0    0 -0.16749387480E+03  0.11004832050E+03 -0.47958341359E+03  0.53459337962E+03  0.12500000000E+03 0.  0.
         21    1    1    2  503  501  0.16749387480E+03 -0.11004832050E+03  0.54882996130E+02  0.20779069807E+03  0.00000000000E+00 0. -1.
<mgrwt>
<rscale>  3 0.23619871E+03</rscale>
<asrwt>0</asrwt>
<pdfrwt beam="1">  1       21 0.24437205E-01 0.23619871E+03</pdfrwt>
<pdfrwt beam="2">  1       21 0.89775730E-01 0.23619871E+03</pdfrwt>
<totfact> 0.16285510E+04</totfact>
</mgrwt>
</event>
<event>
 4    0  0.1269916E-001  0.3638444E+03  0.7546771E-02  0.1057072E+00
         21   -1    0    0  502  501  0.00000000000E+00  0.00000000000E+00  0.10109708358E+03  0.10109708358E+03  0.00000000000E+00 0. -1.
         21   -1    0    0  503  502 -0.00000000000E+00 -0.00000000000E+00 -0.14503058791E+04  0.14503058791E+04  0.00000000000E+00 0. -1.
         25    1    1    2    0    0 -0.17339799355E+03 -0.29443313539E+03 -0.99411118807E+03  0.10586027535E+04  0.12500000000E+03 0.  0.
         21    1    1    2  503  501  0.17339799355E+03  0.29443313539E+03 -0.35509760743E+03  0.49280020920E+03  0.00000000000E+00 0. -1.
<mgrwt>
<rscale>  3 0.36384438E+03</rscale>
<asrwt>0</asrwt>
<pdfrwt beam="1">  1       21 0.15553398E-01 0.36384438E+03</pdfrwt>
<pdfrwt beam="2">  1       21 0.22312397E+00 0.36384438E+03</pdfrwt>
<totfact> 0.31155069E+03</totfact>
</mgrwt>
</event>
<event>
 4    0  0.1005289E-001  0.4406266E+03  0.7546771E-02  0.1030555E+00
         21   -1    0    0  502  501  0.00000000000E+00  0.00000000000E+00  0.76088149661E+03  0.76088149661E+03  0.00000000000E+00 0. -1.
         21   -1    0    0  503  502 -0.00000000000E+00 -0.00000000000E+00 -0.88286037714E+03  0.88286037714E+03  0.00000000000E+00 0. -1.
         25    1    1    2    0    0 -0.16245746365E+03 -0.39004406581E+03 -0.76000249138E+03  0.87849620812E+03  0.12500000000E+03 0.  0.
         21    1    1    2  503  501  0.16245746365E+03  0.39004406581E+03  0.63802361086E+03  0.76524566564E+03  0.00000000000E+00 0. -1.
<mgrwt>
<rscale>  3 0.44062660E+03</rscale>
<asrwt>0</asrwt>
<pdfrwt beam="1">  1       21 0.11705869E+00 0.44062660E+03</pdfrwt>
<pdfrwt beam="2">  1       21 0.13582467E+00 0.44062660E+03</pdfrwt>
<totfact> 0.17781042E+02</totfact>
</mgrwt>
</event>
<event>
 4    0  0.1005289E-001  0.2393995E+03  0.7546771E-02  0.1120193E+00
         21   -1    0    0  503  501  0.00000000000E+00  0.00000000000E+00  0.67086891737E+02  0.67086891737E+02  0.00000000000E+00 0. -1.
         21   -1    0    0  501  502 -0.00000000000E+00 -0.00000000000E+00 -0.11865501611E+04  0.11865501611E+04  0.00000000000E+00 0.  1.
         25    1    1    2    0    0 -0.85328843455E+02 -0.18548889083E+03 -0.97388483305E+03  0.10028777633E+04  0.12500000000E+03 0.  0.
         21    1    1    2  503  502  0.85328843455E+02  0.18548889083E+03 -0.14557843628E+03  0.25075928948E+03  0.00000000000E+00 0. -1.
<mgrwt>
<rscale>  3 0.23939954E+03</rscale>
<asrwt>0</asrwt>
<pdfrwt beam="1">  1       21 0.10321060E-01 0.23939954E+03</pdfrwt>
<pdfrwt beam="2">  1       21 0.18254618E+00 0.23939954E+03</pdfrwt>
<totfact> 0.12975122E+04</totfact>
</mgrwt>
</event>
<event>
 4    0  0.1092382E-001  0.2763340E+03  0.7546771E-02  0.1097708E+00
         21   -1    0    0  503  501  0.00000000000E+00  0.00000000000E+00  0.10920949433E+03  0.10920949433E+03  0.00000000000E+00 0. -1.
         21   -1    0    0  501  502 -0.00000000000E+00 -0.00000000000E+00 -0.12242246023E+04  0.12242246023E+04  0.00000000000E+00 0. -1.
         25    1    1    2    0    0  0.24185717790E+03  0.47334878556E+02 -0.10396126181E+04  0.10757113372E+04  0.12500000000E+03 0.  0.
         21    1    1    2  503  502 -0.24185717790E+03 -0.47334878556E+02 -0.75402489803E+02  0.25772275937E+03  0.00000000000E+00 0. -1.
<mgrwt>
<rscale>  3 0.27633401E+03</rscale>
<asrwt>0</asrwt>
<pdfrwt beam="1">  1       21 0.16801461E-01 0.27633401E+03</pdfrwt>
<pdfrwt beam="2">  1       21 0.18834225E+00 0.27633401E+03</pdfrwt>
<totfact> 0.47804155E+03</totfact>
</mgrwt>
</event>
<event>
 4    0  0.1005289E-001  0.3289613E+03  0.7546771E-02  0.1071597E+00
         21   -1    0    0  502  501  0.00000000000E+00  0.00000000000E+00  0.58884411912E+03  0.58884411912E+03  0.00000000000E+00 0. -1.
         21   -1    0    0  503  502 -0.00000000000E+00 -0.00000000000E+00 -0.19461522317E+03  0.19461522317E+03  0.00000000000E+00 0.  1.
         25    1    1    2    0    0 -0.16506797826E+03 -0.25562292401E+03  0.65319561037E+02  0.33538360392E+03  0.12500000000E+03 0.  0.
         21    1    1    2  503  501  0.16506797826E+03  0.25562292401E+03  0.32890933492E+03  0.44807573837E+03  0.00000000000E+00 0. -1.
<mgrwt>
<rscale>  3 0.32896127E+03</rscale>
<asrwt>0</asrwt>
<pdfrwt beam="1">  1       21 0.90591402E-01 0.32896127E+03</pdfrwt>
<pdfrwt beam="2">  1       21 0.29940804E-01 0.32896127E+03</pdfrwt>
<totfact> 0.10284930E+04</totfact>
</mgrwt>
</event>
<event>
 4    0  0.1251375E-001  0.2386470E+03  0.7546771E-02  0.1120697E+00
         21   -1    0    0  503  501  0.00000000000E+00  0.00000000000E+00  0.16010420169E+03  0.16010420169E+03  0.00000000000E+00 0. -1.
         21   -1    0    0  501  502 -0.00000000000E+00 -0.00000000000E+00 -0.66940198183E+03  0.66940198183E+03  0.00000000000E+00 0. -1.
         25    1    1    2    0    0  0.47809127714E+02 -0.19758969831E+03 -0.56950589542E+03  0.61748632899E+03  0.12500000000E+03 0.  0.
         21    1    1    2  503  502 -0.47809127714E+02  0.19758969831E+03  0.60208115279E+02  0.21201985454E+03  0.00000000000E+00 0. -1.
<mgrwt>
<rscale>  3 0.23864702E+03</rscale>
<asrwt>0</asrwt>
<pdfrwt beam="1">  1       21 0.24631416E-01 0.23864702E+03</pdfrwt>
<pdfrwt beam="2">  1       21 0.10298492E+00 0.23864702E+03</pdfrwt>
<totfact> 0.11579337E+04</totfact>
</mgrwt>
</event>
<event>
 4    0  0.1005289E-001  0.2438611E+03  0.7546771E-02  0.1117247E+00
         21   -1    0    0  502  501  0.00000000000E+00  0.00000000000E+00  0.25026714818E+03  0.25026714818E+03  0.00000000000E+00 0. -1.
         21   -1    0    0  503  502 -0.00000000000E+00 -0.00000000000E+00 -0.21226197276E+03  0.21226197276E+03  0.00000000000E+00 0.  1.
         25    1    1    2    0    0  0.20128495334E+03 -0.57685363491E+02 -0.21619432807E+02  0.24481755140E+03  0.12500000000E+03 0.  0.
         21    1    1    2  503  501 -0.20128495334E+03  0.57685363491E+02  0.59624608229E+02  0.21771156953E+03  0.00000000000E+00 0. -1.
<mgrwt>
<rscale>  3 0.24386109E+03</rscale>
<asrwt>0</asrwt>
<pdfrwt beam="1">  1       21 0.38502638E-01 0.24386109E+03</pdfrwt>
<pdfrwt beam="2">  1       21 0.32655688E-01 0.24386109E+03</pdfrwt>
<totfact> 0.57415637E+04</totfact>
</mgrwt>
</event>
<event>
 4    0  0.1010964E-001  0.3301228E+03  0.7546771E-02  0.1071083E+00
         21   -1    0    0  503  501  0.00000000000E+00  0.00000000000E+00  0.18030374653E+04  0.18030374653E+04  0.00000000000E+00 0. -1.
         21   -1    0    0  501  502 -0.00000000000E+00 -0.00000000000E+00 -0.81007536353E+02  0.81007536353E+02  0.00000000000E+00 0. -1.
         25    1    1    2    0    0  0.79156471686E+02 -0.29511066827E+03  0.36118755205E+03  0.48932351394E+03  0.12500000000E+03 0.  0.
         21    1    1    2  503  502 -0.79156471686E+02  0.29511066827E+03  0.13608423769E+04  0.13947214877E+04  0.00000000000E+00 0. -1.
<mgrwt>
<rscale>  3 0.33012279E+03</rscale>
<asrwt>0</asrwt>
<pdfrwt beam="1">  1       21 0.27739035E+00 0.33012279E+03</pdfrwt>
<pdfrwt beam="2">  1       21 0.12462699E-01 0.33012279E+03</pdfrwt>
<totfact> 0.22321071E+03</totfact>
</mgrwt>
</event>
<event>
 4    0  0.1458668E-001  0.2412378E+03  0.7546771E-02  0.1118971E+00
         21   -1    0    0  502  501  0.00000000000E+00  0.00000000000E+00  0.16342786682E+03  0.16342786682E+03  0.00000000000E+00 0.  1.
         21   -1    0    0  503  502 -0.00000000000E+00 -0.00000000000E+00 -0.33291330484E+03  0.33291330484E+03  0.00000000000E+00 0.  1.
         25    1    1    2    0    0  0.16360316727E+03 -0.12571673312E+03 -0.16063196904E+03  0.28982464147E+03  0.12500000000E+03 0.  0.
         21    1    1    2  503  501 -0.16360316727E+03  0.12571673312E+03 -0.88534689861E+01  0.20651653019E+03  0.00000000000E+00 0.  1.
<mgrwt>
<rscale>  3 0.24123784E+03</rscale>
<asrwt>0</asrwt>
<pdfrwt beam="1">  1       21 0.25142749E-01 0.24123784E+03</pdfrwt>
<pdfrwt beam="2">  1       21 0.51217431E-01 0.24123784E+03</pdfrwt>
<totfact> 0.53127016E+04</totfact>
</mgrwt>
</event>
<event>
 4    0  0.1005289E-001  0.2359422E+03  0.7546771E-02  0.1122526E+00
         21   -1    0    0  503  501  0.00000000000E+00  0.00000000000E+00  0.30667760360E+04  0.30667760360E+04  0.00000000000E+00 0.  1.
         21   -1    0    0  501  502 -0.00000000000E+00 -0.00000000000E+00 -0.19541716841E+02  0.19541716841E+02  0.00000000000E+00 0.  1.
         25    1    1    2    0    0 -0.44596488446E+02 -0.19507662549E+03  0.92301648038E+03  0.95269520815E+03  0.12500000000E+03 0.  0.
         21    1    1    2  503  502  0.44596488446E+02  0.19507662549E+03  0.21242178388E+04  0.21336225447E+04  0.00000000000E+00 0.  1.
<mgrwt>
<rscale>  3 0.23594223E+03</rscale>
<asrwt>0</asrwt>
<pdfrwt beam="1">  1       21 0.47181132E+00 0.23594223E+03</pdfrwt>
<pdfrwt beam="2">  1       21 0.30064204E-02 0.23594223E+03</pdfrwt>
<totfact> 0.17621031E+03</totfact>
</mgrwt>
</event>
<event>
 4    0  0.1265364E-001  0.3536880E+03  0.7546771E-02  0.1061111E+00
         21   -1    0    0  502  501  0.00000000000E+00  0.00000000000E+00  0.76125811548E+03  0.76125811548E+03  0.00000000000E+00 0.  1.
         21   -1    0    0  503  502 -0.00000000000E+00 -0.00000000000E+00 -0.17826668547E+03  0.17826668547E+03  0.00000000000E+00 0.  1.
         25    1    1    2    0    0 -0.32038298304E+03 -0.82613190903E+02  0.12626877304E+03  0.37555159190E+03  0.12500000000E+03 0.  0.
         21    1    1    2  503  501  0.32038298304E+03  0.82613190903E+02  0.45672265698E+03  0.56397320905E+03  0.00000000000E+00 0.  1.
<mgrwt>
<rscale>  3 0.35368799E+03</rscale>
<asrwt>0</asrwt>
<pdfrwt beam="1">  1       21 0.11711663E+00 0.35368799E+03</pdfrwt>
<pdfrwt beam="2">  1       21 0.27425645E-01 0.35368799E+03</pdfrwt>
<totfact> 0.64860075E+03</totfact>
</mgrwt>
</event>
<event>
 4    0  0.1175076E-001  0.2638476E+03  0.7546771E-02  0.1104853E+00
         21   -1    0    0  503  501  0.00000000000E+00  0.00000000000E+00  0.46145406897E+03  0.46145406897E+03  0.00000000000E+00 0.  1.
         21   -1    0    0  501  502 -0.00000000000E+00 -0.00000000000E+00 -0.31198023724E+03  0.31198023724E+03  0.00000000000E+00 0.  1.
         25    1    1    2    0    0 -0.13851580783E+03  0.18655813391E+03 -0.21556948886E+03  0.34071362003E+03  0.12500000000E+03 0.  0.
         21    1    1    2  503  502  0.13851580783E+03 -0.18655813391E+03  0.36504332058E+03  0.43272068618E+03  0.00000000000E+00 0.  1.
<mgrwt>
<rscale>  3 0.26384762E+03</rscale>
<asrwt>0</asrwt>
<pdfrwt beam="1">  1       21 0.70992934E-01 0.26384762E+03</pdfrwt>
<pdfrwt beam="2">  1       21 0.47996960E-01 0.26384762E+03</pdfrwt>
<totfact> 0.71179044E+03</totfact>
</mgrwt>
</event>
<event>
 4    0  0.1301375E-001  0.2716440E+03  0.7546771E-02  0.1100342E+00
         21   -1    0    0  503  501  0.00000000000E+00  0.00000000000E+00  0.43289239621E+03  0.43289239621E+03  0.00000000000E+00 0.  1.
         21   -1    0    0  501  502 -0.00000000000E+00 -0.00000000000E+00 -0.22036558354E+03  0.22036558354E+03  0.00000000000E+00 0.  1.
         25    1    1    2    0    0  0.87177857159E+02  0.22486764612E+03 -0.71257772536E+02  0.28083466167E+03  0.12500000000E+03 0.  0.
         21    1    1    2  503  502 -0.87177857159E+02 -0.22486764612E+03  0.28378458521E+03  0.37242331808E+03  0.00000000000E+00 0.  1.
<mgrwt>
<rscale>  3 0.27164395E+03</rscale>
<asrwt>0</asrwt>
<pdfrwt beam="1">  1       21 0.66598830E-01 0.27164395E+03</pdfrwt>
<pdfrwt beam="2">  1       21 0.33902398E-01 0.27164395E+03</pdfrwt>
<totfact> 0.16598217E+04</totfact>
</mgrwt>
</event>
<event>
 4    0  0.1345438E-001  0.2576849E+03  0.7546771E-02  0.1108542E+00
         21   -1    0    0  503  501  0.00000000000E+00  0.00000000000E+00  0.90284843954E+03  0.90284843954E+03  0.00000000000E+00 0. -1.
         21   -1    0    0  501  502 -0.00000000000E+00 -0.00000000000E+00 -0.83920843944E+02  0.83920843944E+02  0.00000000000E+00 0. -1.
         25    1    1    2    0    0 -0.14896050910E+03  0.16907769635E+03  0.19427020768E+03  0.32271103834E+03  0.12500000000E+03 0.  0.
         21    1    1    2  503  502  0.14896050910E+03 -0.16907769635E+03  0.62465738791E+03  0.66405824514E+03  0.00000000000E+00 0. -1.
<mgrwt>
<rscale>  3 0.25768489E+03</rscale>
<asrwt>0</asrwt>
<pdfrwt beam="1">  1       21 0.13889975E+00 0.25768489E+03</pdfrwt>
<pdfrwt beam="2">  1       21 0.12910900E-01 0.25768489E+03</pdfrwt>
<totfact> 0.18076928E+04</totfact>
</mgrwt>
</event>
<event>
 4    0  0.1117363E-001  0.4581769E+03  0.7546771E-02  0.1025311E+00
         21   -1    0    0  503  501  0.00000000000E+00  0.00000000000E+00  0.36962615892E+03  0.36962615892E+03  0.00000000000E+00 0. -1.
         21   -1    0    0  501  502 -0.00000000000E+00 -0.00000000000E+00 -0.12464076986E+04  0.12464076986E+04  0.00000000000E+00 0.  1.
         25    1    1    2    0    0 -0.12788369482E+02  0.44061040007E+03 -0.10475097966E+04  0.11433297167E+04  0.12500000000E+03 0.  0.
         21    1    1    2  503  502  0.12788369482E+02 -0.44061040007E+03  0.17072825694E+03  0.47270414084E+03  0.00000000000E+00 0. -1.
<mgrwt>
<rscale>  3 0.45817689E+03</rscale>
<asrwt>0</asrwt>
<pdfrwt beam="1">  1       21 0.56865563E-01 0.45817689E+03</pdfrwt>
<pdfrwt beam="2">  1       21 0.19175503E+00 0.45817689E+03</pdfrwt>
<totfact> 0.36042454E+02</totfact>
</mgrwt>
</event>
<event>
 4    0  0.1324469E-001  0.2574854E+03  0.7546771E-02  0.1108664E+00
         21   -1    0    0  503  501  0.00000000000E+00  0.00000000000E+00  0.19363259255E+04  0.19363259255E+04  0.00000000000E+00 0.  1.
         21   -1    0    0  501  502 -0.00000000000E+00 -0.00000000000E+00 -0.57128544254E+03  0.57128544254E+03  0.00000000000E+00 0. -1.
         25    1    1    2    0    0  0.12036898409E+03 -0.19022366620E+03 -0.53528790964E+03  0.59399653342E+03  0.12500000000E+03 0.  0.
         21    1    1    2  503  502 -0.12036898409E+03  0.19022366620E+03  0.19003283926E+04  0.19136148346E+04  0.00000000000E+00 0.  1.
<mgrwt>
<rscale>  3 0.25748541E+03</rscale>
<asrwt>0</asrwt>
<pdfrwt beam="1">  1       21 0.29789629E+00 0.25748541E+03</pdfrwt>
<pdfrwt beam="2">  1       21 0.87890069E-01 0.25748541E+03</pdfrwt>
<totfact> 0.35270987E+01</totfact>
</mgrwt>
</event>
<event>
 4    0  0.1005289E-001  0.4113944E+03  0.7546771E-02  0.1039904E+00
         21   -1    0    0  503  501  0.00000000000E+00  0.00000000000E+00  0.88137813561E+03  0.88137813561E+03  0.00000000000E+00 0. -1.
         21   -1    0    0  501  502 -0.00000000000E+00 -0.00000000000E+00 -0.18327412065E+03  0.18327412065E+03  0.00000000000E+00 0.  1.
         25    1    1    2    0    0 -0.13403592009E+03  0.36831340159E+03  0.33897970854E+03  0.53305968941E+03  0.12500000000E+03 0.  0.
         21    1    1    2  503  502  0.13403592009E+03 -0.36831340159E+03  0.35912430642E+03  0.53159256685E+03  0.00000000000E+00 0. -1.
<mgrwt>
<rscale>  3 0.41139445E+03</rscale>
<asrwt>0</asrwt>
<pdfrwt beam="1">  1       21 0.13559663E+00 0.41139445E+03</pdfrwt>
<pdfrwt beam="2">  1       21 0.28196019E-01 0.41139445E+03</pdfrwt>
<totfact> 0.41221648E+03</totfact>
</mgrwt>
</event>
<event>
 4    0  0.1400234E-001  0.2656479E+03  0.7546771E-02  0.1103797E+00
         21   -1    0    0  503  501  0.00000000000E+00  0.00000000000E+00  0.45682647115E+03  0.45682647115E+03  0.00000000000E+00 0. -1.
         21   -1    0    0  501  502 -0.00000000000E+00 -0.00000000000E+00 -0.23083522999E+03  0.23083522999E+03  0.00000000000E+00 0. -1.
         25    1    1    2    0    0 -0.14782750932E+03 -0.18190882971E+03 -0.10196951773E+03  0.28454626581E+03  0.12500000000E+03 0.  0.
         21    1    1    2  503  502  0.14782750932E+03  0.18190882971E+03  0.32796075888E+03  0.40311543534E+03  0.00000000000E+00 0. -1.
<mgrwt>
<rscale>  3 0.26564788E+03</rscale>
<asrwt>0</asrwt>
<pdfrwt beam="1">  1       21 0.70280996E-01 0.26564788E+03</pdfrwt>
<pdfrwt beam="2">  1       21 0.35513112E-01 0.26564788E+03</pdfrwt>
<totfact> 0.13466271E+04</totfact>
</mgrwt>
</event>
<event>
 4    0  0.1247428E-001  0.2467103E+03  0.7546771E-02  0.1115402E+00
         21   -1    0    0  503  501  0.00000000000E+00  0.00000000000E+00  0.31541220380E+03  0.31541220380E+03  0.00000000000E+00 0.  1.
         21   -1    0    0  501  502 -0.00000000000E+00 -0.00000000000E+00 -0.19882870176E+03  0.19882870176E+03  0.00000000000E+00 0.  1.
         25    1    1    2    0    0  0.88594312489E+02 -0.19337018234E+03  0.16409593466E+03  0.29629960411E+03  0.12500000000E+03 0.  0.
         21    1    1    2  503  502 -0.88594312489E+02  0.19337018234E+03 -0.47512432624E+02  0.21794130145E+03  0.00000000000E+00 0.  1.
<mgrwt>
<rscale>  3 0.24671032E+03</rscale>
<asrwt>0</asrwt>
<pdfrwt beam="1">  1       21 0.48524954E-01 0.24671032E+03</pdfrwt>
<pdfrwt beam="2">  1       21 0.30589031E-01 0.24671032E+03</pdfrwt>
<totfact> 0.40560801E+04</totfact>
</mgrwt>
</event>
<event>
 4    0  0.1487919E-001  0.2803250E+03  0.7546771E-02  0.1095512E+00
         21   -1    0    0  503  501  0.00000000000E+00  0.00000000000E+00  0.19146310061E+03  0.19146310061E+03  0.00000000000E+00 0. -1.
         21   -1    0    0  501  502 -0.00000000000E+00 -0.00000000000E+00 -0.56269477658E+03  0.56269477658E+03  0.00000000000E+00 0. -1.
         25    1    1    2    0    0 -0.24860430162E+03  0.33955624070E+02 -0.41364676765E+03  0.49968563275E+03  0.12500000000E+03 0.  0.
         21    1    1    2  503  502  0.24860430162E+03 -0.33955624070E+02  0.42415091686E+02  0.25447224444E+03  0.00000000000E+00 0. -1.
<mgrwt>
<rscale>  3 0.28032496E+03</rscale>
<asrwt>0</asrwt>
<pdfrwt beam="1">  1       21 0.29455862E-01 0.28032496E+03</pdfrwt>
<pdfrwt beam="2">  1       21 0.86568427E-01 0.28032496E+03</pdfrwt>
<totfact> 0.12067128E+04</totfact>
</mgrwt>
</event>
<event>
 4    0  0.1508993E-001  0.2835707E+03  0.7546771E-02  0.1093755E+00
         21   -1    0    0  503  501  0.00000000000E+00  0.00000000000E+00  0.25636611152E+03  0.25636611152E+03  0.00000000000E+00 0.  1.
         21   -1    0    0  501  502 -0.00000000000E+00 -0.00000000000E+00 -0.30467125335E+03  0.30467125335E+03  0.00000000000E+00 0.  1.
         25    1    1    2    0    0 -0.25810305188E+00 -0.25453345464E+03  0.50438519614E+02  0.28802151033E+03  0.12500000000E+03 0.  0.
         21    1    1    2  503  502  0.25810305188E+00  0.25453345464E+03 -0.98743661444E+02  0.27301585453E+03  0.00000000000E+00 0.  1.
<mgrwt>
<rscale>  3 0.28357071E+03</rscale>
<asrwt>0</asrwt>
<pdfrwt beam="1">  1       21 0.39440940E-01 0.28357071E+03</pdfrwt>
<pdfrwt beam="2">  1       21 0.46872501E-01 0.28357071E+03</pdfrwt>
<totfact> 0.25842545E+04</totfact>
</mgrwt>
</event>
<event>
 4    0  0.1005289E-001  0.2862460E+03  0.7546771E-02  0.1092326E+00
         21   -1    0    0  503  501  0.00000000000E+00  0.00000000000E+00  0.62227351842E+03  0.62227351842E+03  0.00000000000E+00 0. -1.
         21   -1    0    0  501  502 -0.00000000000E+00 -0.00000000000E+00 -0.13028743491E+03  0.13028743491E+03  0.00000000000E+00 0.  1.
         25    1    1    2    0    0 -0.19782392735E+03 -0.16485587349E+03  0.14619258705E+03  0.32141723315E+03  0.12500000000E+03 0.  0.
         21    1    1    2  503  502  0.19782392735E+03  0.16485587349E+03  0.34579349645E+03  0.43114372017E+03  0.00000000000E+00 0. -1.
<mgrwt>
<rscale>  3 0.28624599E+03</rscale>
<asrwt>0</asrwt>
<pdfrwt beam="1">  1       21 0.95734386E-01 0.28624599E+03</pdfrwt>
<pdfrwt beam="2">  1       21 0.20044221E-01 0.28624599E+03</pdfrwt>
<totfact> 0.19917489E+04</totfact>
</mgrwt>
</event>
<event>
 4    0  0.1673704E-001  0.2493784E+03  0.7546771E-02  0.1113698E+00
         21   -1    0    0  503  501  0.00000000000E+00  0.00000000000E+00  0.26366964841E+03  0.26366964841E+03  0.00000000000E+00 0.  1.
         21   -1    0    0  501  502 -0.00000000000E+00 -0.00000000000E+00 -0.20947098796E+03  0.20947098796E+03  0.00000000000E+00 0.  1.
         25    1    1    2    0    0 -0.20130425369E+03  0.77725016552E+02 -0.48272503008E+01  0.24942510518E+03  0.12500000000E+03 0.  0.
         21    1    1    2  503  502  0.20130425369E+03 -0.77725016552E+02  0.59025910751E+02  0.22371553118E+03  0.00000000000E+00 0.  1.
<mgrwt>
<rscale>  3 0.24937839E+03</rscale>
<asrwt>0</asrwt>
<pdfrwt beam="1">  1       21 0.40564561E-01 0.24937839E+03</pdfrwt>
<pdfrwt beam="2">  1       21 0.32226306E-01 0.24937839E+03</pdfrwt>
<totfact> 0.52906106E+04</totfact>
</mgrwt>
</event>
<event>
 4    0  0.1005289E-001  0.2667660E+03  0.7546771E-02  0.1103145E+00
         21   -1    0    0  503  501  0.00000000000E+00  0.00000000000E+00  0.42286720882E+04  0.42286720882E+04  0.00000000000E+00 0. -1.
         21   -1    0    0  501  502 -0.00000000000E+00 -0.00000000000E+00 -0.84199969498E+03  0.84199969498E+03  0.00000000000E+00 0. -1.
         25    1    1    2    0    0  0.23288315337E+03  0.36118721183E+02 -0.81748701882E+03  0.85991229267E+03  0.12500000000E+03 0.  0.
         21    1    1    2  503  502 -0.23288315337E+03 -0.36118721183E+02  0.42041594120E+04  0.42107594905E+04  0.00000000000E+00 0. -1.
<mgrwt>
<rscale>  3 0.26676605E+03</rscale>
<asrwt>0</asrwt>
<pdfrwt beam="1">  1       21 0.65056493E+00 0.26676605E+03</pdfrwt>
<pdfrwt beam="2">  1       21 0.12953842E+00 0.26676605E+03</pdfrwt>
<totfact> 0.49384224E-02</totfact>
</mgrwt>
</event>
<event>
 4    0  0.1005289E-001  0.2590845E+03  0.7546771E-02  0.1107695E+00
         21   -1    0    0  502  501  0.00000000000E+00  0.00000000000E+00  0.11326741919E+04  0.11326741919E+04  0.00000000000E+00 0. -1.
         21   -1    0    0  503  502 -0.00000000000E+00 -0.00000000000E+00 -0.52483809216E+02  0.52483809216E+02  0.00000000000E+00 0.  1.
         25    1    1    2    0    0  0.46934768079E+02 -0.22202906959E+03  0.52749835233E+03  0.58768979224E+03  0.12500000000E+03 0.  0.
         21    1    1    2  503  501 -0.46934768079E+02  0.22202906959E+03  0.55269203039E+03  0.59746820890E+03  0.00000000000E+00 0. -1.
<mgrwt>
<rscale>  3 0.25908450E+03</rscale>
<asrwt>0</asrwt>
<pdfrwt beam="1">  1       21 0.17425755E+00 0.25908450E+03</pdfrwt>
<pdfrwt beam="2">  1       21 0.80744330E-02 0.25908450E+03</pdfrwt>
<totfact> 0.22581041E+04</totfact>
</mgrwt>
</event>
<event>
 4    0  0.1780190E-001  0.2368302E+03  0.7546771E-02  0.1121923E+00
         21   -1    0    0  503  501  0.00000000000E+00  0.00000000000E+00  0.44390189538E+03  0.44390189538E+03  0.00000000000E+00 0.  1.
         21   -1    0    0  501  502 -0.00000000000E+00 -0.00000000000E+00 -0.26277176319E+03  0.26277176319E+03  0.00000000000E+00 0. -1.
         25    1    1    2    0    0 -0.32373034147E+01 -0.20112943516E+03 -0.17717189831E+03  0.29576749546E+03  0.12500000000E+03 0.  0.
         21    1    1    2  503  502  0.32373034147E+01  0.20112943516E+03  0.35830203050E+03  0.41090616311E+03  0.00000000000E+00 0.  1.
<mgrwt>
<rscale>  3 0.23683017E+03</rscale>
<asrwt>0</asrwt>
<pdfrwt beam="1">  1       21 0.68292599E-01 0.23683017E+03</pdfrwt>
<pdfrwt beam="2">  1       21 0.40426425E-01 0.23683017E+03</pdfrwt>
<totfact> 0.11217371E+04</totfact>
</mgrwt>
</event>
<event>
 4    0  0.1359684E-001  0.2683515E+03  0.7546771E-02  0.1102227E+00
         21   -1    0    0  502  501  0.00000000000E+00  0.00000000000E+00  0.56909146975E+02  0.56909146975E+02  0.00000000000E+00 0.  1.
         21   -1    0    0  503  502 -0.00000000000E+00 -0.00000000000E+00 -0.13084178997E+04  0.13084178997E+04  0.00000000000E+00 0.  1.
         25    1    1    2    0    0  0.23217852145E+03  0.49806258528E+02 -0.91451657524E+03  0.95307559805E+03  0.12500000000E+03 0.  0.
         21    1    1    2  503  501 -0.23217852145E+03 -0.49806258528E+02 -0.33699217751E+03  0.41225144865E+03  0.00000000000E+00 0.  1.
<mgrwt>
<rscale>  3 0.26835150E+03</rscale>
<asrwt>0</asrwt>
<pdfrwt beam="1">  1       21 0.87552532E-02 0.26835150E+03</pdfrwt>
<pdfrwt beam="2">  1       21 0.20129507E+00 0.26835150E+03</pdfrwt>
<totfact> 0.12801945E+04</totfact>
</mgrwt>
</event>
<event>
 4    0  0.1062176E-001  0.2728012E+03  0.7546771E-02  0.1099687E+00
         21   -1    0    0  503  501  0.00000000000E+00  0.00000000000E+00  0.54272505468E+03  0.54272505468E+03  0.00000000000E+00 0.  1.
         21   -1    0    0  501  502 -0.00000000000E+00 -0.00000000000E+00 -0.51885931883E+03  0.51885931883E+03  0.00000000000E+00 0.  1.
         25    1    1    2    0    0  0.16028517173E+03  0.18194543891E+03 -0.45174737353E+03  0.52772736191E+03  0.12500000000E+03 0.  0.
         21    1    1    2  503  502 -0.16028517173E+03 -0.18194543891E+03  0.47561310938E+03  0.53385701160E+03  0.00000000000E+00 0.  1.
<mgrwt>
<rscale>  3 0.27280117E+03</rscale>
<asrwt>0</asrwt>
<pdfrwt beam="1">  1       21 0.83496162E-01 0.27280117E+03</pdfrwt>
<pdfrwt beam="2">  1       21 0.79824511E-01 0.27280117E+03</pdfrwt>
<totfact> 0.16184753E+03</totfact>
</mgrwt>
</event>
<event>
 4    0  0.1005289E-001  0.2362185E+03  0.7546771E-02  0.1122338E+00
         21   -1    0    0  502  501  0.00000000000E+00  0.00000000000E+00  0.20730136771E+02  0.20730136771E+02  0.00000000000E+00 0.  1.
         21   -1    0    0  503  502 -0.00000000000E+00 -0.00000000000E+00 -0.25020035261E+04  0.25020035261E+04  0.00000000000E+00 0.  1.
         25    1    1    2    0    0  0.16476877493E+03 -0.11412905483E+03 -0.16919154690E+04  0.17083258309E+04  0.12500000000E+03 0.  0.
         21    1    1    2  503  501 -0.16476877493E+03  0.11412905483E+03 -0.78935792027E+03  0.81440783189E+03  0.00000000000E+00 0.  1.
<mgrwt>
<rscale>  3 0.23621852E+03</rscale>
<asrwt>0</asrwt>
<pdfrwt beam="1">  1       21 0.31892502E-02 0.23621852E+03</pdfrwt>
<pdfrwt beam="2">  1       21 0.38492381E+00 0.23621852E+03</pdfrwt>
<totfact> 0.58552112E+03</totfact>
</mgrwt>
</event>
<event>
 4    0  0.1158254E-001  0.3152457E+03  0.7546771E-02  0.1077858E+00
         21   -1    0    0  502  501  0.00000000000E+00  0.00000000000E+00  0.88333429504E+03  0.88333429504E+03  0.00000000000E+00 0.  1.
         21   -1    0    0  503  502 -0.00000000000E+00 -0.00000000000E+00 -0.10649706929E+03  0.10649706929E+03  0.00000000000E+00 0.  1.
         25    1    1    2    0    0  0.78296105291E+02  0.27861184296E+03  0.48788503738E+03  0.58087145638E+03  0.12500000000E+03 0.  0.
         21    1    1    2  503  501 -0.78296105291E+02 -0.27861184296E+03  0.28895218837E+03  0.40895990795E+03  0.00000000000E+00 0.  1.
<mgrwt>
<rscale>  3 0.31524568E+03</rscale>
<asrwt>0</asrwt>
<pdfrwt beam="1">  1       21 0.13589758E+00 0.31524568E+03</pdfrwt>
<pdfrwt beam="2">  1       21 0.16384165E-01 0.31524568E+03</pdfrwt>
<totfact> 0.12026496E+04</totfact>
</mgrwt>
</event>
<event>
 4    0  0.1005289E-001  0.2798689E+03  0.7546771E-02  0.1095761E+00
         21   -1    0    0  503  501  0.00000000000E+00  0.00000000000E+00  0.45217970884E+03  0.45217970884E+03  0.00000000000E+00 0.  1.
         21   -1    0    0  501  502 -0.00000000000E+00 -0.00000000000E+00 -0.77608755584E+03  0.77608755584E+03  0.00000000000E+00 0.  1.
         25    1    1    2    0    0  0.82121479883E+02 -0.23655367577E+03 -0.71277618462E+03  0.76575222386E+03  0.12500000000E+03 0.  0.
         21    1    1    2  503  502 -0.82121479883E+02  0.23655367577E+03  0.38886833762E+03  0.46251504082E+03  0.00000000000E+00 0.  1.
<mgrwt>
<rscale>  3 0.27986886E+03</rscale>
<asrwt>0</asrwt>
<pdfrwt beam="1">  1       21 0.69566110E-01 0.27986886E+03</pdfrwt>
<pdfrwt beam="2">  1       21 0.11939808E+00 0.27986886E+03</pdfrwt>
<totfact> 0.93196944E+02</totfact>
</mgrwt>
</event>
<event>
 4    0  0.1005289E-001  0.3858165E+03  0.7546771E-02  0.1048805E+00
         21   -1    0    0  502  501  0.00000000000E+00  0.00000000000E+00  0.56853498002E+02  0.56853498002E+02  0.00000000000E+00 0. -1.
         21   -1    0    0  503  502 -0.00000000000E+00 -0.00000000000E+00 -0.27710525403E+04  0.27710525403E+04  0.00000000000E+00 0. -1.
         25    1    1    2    0    0  0.79538887025E+02  0.35623438785E+03 -0.93178805362E+03  0.10085055035E+04  0.12500000000E+03 0.  0.
         21    1    1    2  503  501 -0.79538887025E+02 -0.35623438785E+03 -0.17824109886E+04  0.18194005348E+04  0.00000000000E+00 0. -1.
<mgrwt>
<rscale>  3 0.38581650E+03</rscale>
<asrwt>0</asrwt>
<pdfrwt beam="1">  1       21 0.87466916E-02 0.38581650E+03</pdfrwt>
<pdfrwt beam="2">  1       21 0.42631579E+00 0.38581650E+03</pdfrwt>
<totfact> 0.49253156E+02</totfact>
</mgrwt>
</event>
<event>
 4    0  0.1073500E-001  0.2558614E+03  0.7546771E-02  0.1109656E+00
         21   -1    0    0  502  501  0.00000000000E+00  0.00000000000E+00  0.76911767907E+03  0.76911767907E+03  0.00000000000E+00 0.  1.
         21   -1    0    0  503  502 -0.00000000000E+00 -0.00000000000E+00 -0.25294334318E+03  0.25294334318E+03  0.00000000000E+00 0.  1.
         25    1    1    2    0    0 -0.14062148796E+02  0.22280556258E+03 -0.16552601699E+03  0.30473582830E+03  0.12500000000E+03 0.  0.
         21    1    1    2  503  501  0.14062148796E+02 -0.22280556258E+03  0.68170035289E+03  0.71732519395E+03  0.00000000000E+00 0.  1.
<mgrwt>
<rscale>  3 0.25586141E+03</rscale>
<asrwt>0</asrwt>
<pdfrwt beam="1">  1       21 0.11832580E+00 0.25586141E+03</pdfrwt>
<pdfrwt beam="2">  1       21 0.38914361E-01 0.25586141E+03</pdfrwt>
<totfact> 0.33181537E+03</totfact>
</mgrwt>
</event>
<event>
 4    0  0.1323516E-001  0.2741537E+03  0.7546771E-02  0.1098926E+00
         21   -1    0    0  502  501  0.00000000000E+00  0.00000000000E+00  0.11502373049E+04  0.11502373049E+04  0.00000000000E+00 0.  1.
         21   -1    0    0  503  502 -0.00000000000E+00 -0.00000000000E+00 -0.16181408584E+03  0.16181408584E+03  0.00000000000E+00 0. -1.
         25    1    1    2    0    0  0.10053909694E+03  0.22232215415E+03 -0.19661702605E+02  0.27485784105E+03  0.12500000000E+03 0.  0.
         21    1    1    2  503  501 -0.10053909694E+03 -0.22232215415E+03  0.10080849216E+04  0.10371935496E+04  0.00000000000E+00 0.  1.
<mgrwt>
<rscale>  3 0.27415370E+03</rscale>
<asrwt>0</asrwt>
<pdfrwt beam="1">  1       21 0.17695958E+00 0.27415370E+03</pdfrwt>
<pdfrwt beam="2">  1       21 0.24894476E-01 0.27415370E+03</pdfrwt>
<totfact> 0.27275578E+03</totfact>
</mgrwt>
</event>
<event>
 4    0  0.1005289E-001  0.2417074E+03  0.7546771E-02  0.1118661E+00
         21   -1    0    0  503  501  0.00000000000E+00  0.00000000000E+00  0.80805213749E+03  0.80805213749E+03  0.00000000000E+00 0. -1.
         21   -1    0    0  501  502 -0.00000000000E+00 -0.00000000000E+00 -0.90675660229E+02  0.90675660229E+02  0.00000000000E+00 0.  1.
         25    1    1    2    0    0  0.33325829195E+02  0.20417361373E+03  0.12676321577E+03  0.27293110543E+03  0.12500000000E+03 0.  0.
         21    1    1    2  503  502 -0.33325829195E+02 -0.20417361373E+03  0.59061326149E+03  0.62579669229E+03  0.00000000000E+00 0. -1.
<mgrwt>
<rscale>  3 0.24170742E+03</rscale>
<asrwt>0</asrwt>
<pdfrwt beam="1">  1       21 0.12431571E+00 0.24170742E+03</pdfrwt>
<pdfrwt beam="2">  1       21 0.13950102E-01 0.24170742E+03</pdfrwt>
<totfact> 0.21027053E+04</totfact>
</mgrwt>
</event>
<event>
 4    0  0.1521819E-001  0.2659978E+03  0.7546771E-02  0.1103592E+00
         21   -1    0    0  503  501  0.00000000000E+00  0.00000000000E+00  0.55926855858E+02  0.55926855858E+02  0.00000000000E+00 0.  1.
         21   -1    0    0  501  502 -0.00000000000E+00 -0.00000000000E+00 -0.12018467015E+04  0.12018467015E+04  0.00000000000E+00 0.  1.
         25    1    1    2    0    0  0.10200734049E+03 -0.21148126001E+03 -0.76898241078E+03  0.81368837336E+03  0.12500000000E+03 0.  0.
         21    1    1    2  503  502 -0.10200734049E+03  0.21148126001E+03 -0.37693743487E+03  0.44408518401E+03  0.00000000000E+00 0.  1.
<mgrwt>
<rscale>  3 0.26599778E+03</rscale>
<asrwt>0</asrwt>
<pdfrwt beam="1">  1       21 0.86041316E-02 0.26599778E+03</pdfrwt>
<pdfrwt beam="2">  1       21 0.18489949E+00 0.26599778E+03</pdfrwt>
<totfact> 0.16985119E+04</totfact>
</mgrwt>
</event>
<event>
 4    0  0.1400303E-001  0.2543047E+03  0.7546771E-02  0.1110614E+00
         21   -1    0    0  502  501  0.00000000000E+00  0.00000000000E+00  0.48612078423E+03  0.48612078423E+03  0.00000000000E+00 0.  1.
         21   -1    0    0  503  502 -0.00000000000E+00 -0.00000000000E+00 -0.11703143006E+03  0.11703143006E+03  0.00000000000E+00 0.  1.
         25    1    1    2    0    0 -0.21626071825E+03 -0.47719987181E+02  0.21915992769E+03  0.33571113973E+03  0.12500000000E+03 0.  0.
         21    1    1    2  503  501  0.21626071825E+03  0.47719987181E+02  0.14992942648E+03  0.26744107456E+03  0.00000000000E+00 0.  1.
<mgrwt>
<rscale>  3 0.25430473E+03</rscale>
<asrwt>0</asrwt>
<pdfrwt beam="1">  1       21 0.74787812E-01 0.25430473E+03</pdfrwt>
<pdfrwt beam="2">  1       21 0.18004836E-01 0.25430473E+03</pdfrwt>
<totfact> 0.43635566E+04</totfact>
</mgrwt>
</event>
<event>
 4    0  0.1475403E-001  0.3131197E+03  0.7546771E-02  0.1078860E+00
         21   -1    0    0  502  501  0.00000000000E+00  0.00000000000E+00  0.53651175047E+03  0.53651175047E+03  0.00000000000E+00 0. -1.
         21   -1    0    0  503  502 -0.00000000000E+00 -0.00000000000E+00 -0.16794148239E+03  0.16794148239E+03  0.00000000000E+00 0. -1.
         25    1    1    2    0    0  0.27149871422E+03 -0.93313502494E+02  0.19973899925E+03  0.37140224742E+03  0.12500000000E+03 0.  0.
         21    1    1    2  503  501 -0.27149871422E+03  0.93313502494E+02  0.16883126882E+03  0.33305098544E+03  0.00000000000E+00 0. -1.
<mgrwt>
<rscale>  3 0.31311972E+03</rscale>
<asrwt>0</asrwt>
<pdfrwt beam="1">  1       21 0.82540268E-01 0.31311972E+03</pdfrwt>
<pdfrwt beam="2">  1       21 0.25837152E-01 0.31311972E+03</pdfrwt>
<totfact> 0.17150813E+04</totfact>
</mgrwt>
</event>
<event>
 4    0  0.1412847E-001  0.2477261E+03  0.7546771E-02  0.1114750E+00
         21   -1    0    0  502  501  0.00000000000E+00  0.00000000000E+00  0.65911851037E+03  0.65911851037E+03  0.00000000000E+00 0.  1.
         21   -1    0    0  503  502 -0.00000000000E+00 -0.00000000000E+00 -0.82030951020E+02  0.82030951020E+02  0.00000000000E+00 0.  1.
         25    1    1    2    0    0  0.81355293217E+02  0.19779925915E+03  0.26446599553E+03  0.36236789792E+03  0.12500000000E+03 0.  0.
         21    1    1    2  503  501 -0.81355293217E+02 -0.19779925915E+03  0.31262156382E+03  0.37878156346E+03  0.00000000000E+00 0.  1.
<mgrwt>
<rscale>  3 0.24772612E+03</rscale>
<asrwt>0</asrwt>
<pdfrwt beam="1">  1       21 0.10140284E+00 0.24772612E+03</pdfrwt>
<pdfrwt beam="2">  1       21 0.12620147E-01 0.24772612E+03</pdfrwt>
<totfact> 0.41444428E+04</totfact>
</mgrwt>
</event>
<event>
 4    0  0.1624072E-001  0.3409443E+03  0.7546771E-02  0.1066394E+00
         21   -1    0    0  502  501  0.00000000000E+00  0.00000000000E+00  0.27572429447E+03  0.27572429447E+03  0.00000000000E+00 0. -1.
         21   -1    0    0  503  502 -0.00000000000E+00 -0.00000000000E+00 -0.41781810408E+03  0.41781810408E+03  0.00000000000E+00 0. -1.
         25    1    1    2    0    0  0.11644359228E+03  0.29505747468E+03 -0.15835031905E+03  0.37592266105E+03  0.12500000000E+03 0.  0.
         21    1    1    2  503  501 -0.11644359228E+03 -0.29505747468E+03  0.16256509442E+02  0.31761973750E+03  0.00000000000E+00 0. -1.
<mgrwt>
<rscale>  3 0.34094431E+03</rscale>
<asrwt>0</asrwt>
<pdfrwt beam="1">  1       21 0.42419123E-01 0.34094431E+03</pdfrwt>
<pdfrwt beam="2">  1       21 0.64279708E-01 0.34094431E+03</pdfrwt>
<totfact> 0.11064146E+04</totfact>
</mgrwt>
</event>
<event>
 4    0  0.1071403E-001  0.2510542E+03  0.7546771E-02  0.1112640E+00
         21   -1    0    0  503  501  0.00000000000E+00  0.00000000000E+00  0.51652620981E+03  0.51652620981E+03  0.00000000000E+00 0.  1.
         21   -1    0    0  501  502 -0.00000000000E+00 -0.00000000000E+00 -0.12227111657E+03  0.12227111657E+03  0.00000000000E+00 0.  1.
         25    1    1    2    0    0  0.14781526995E+03  0.15985568770E+03  0.32428312707E+03  0.41010698778E+03  0.12500000000E+03 0.  0.
         21    1    1    2  503  502 -0.14781526995E+03 -0.15985568770E+03  0.69971966176E+02  0.22869033861E+03  0.00000000000E+00 0.  1.
<mgrwt>
<rscale>  3 0.25105417E+03</rscale>
<asrwt>0</asrwt>
<pdfrwt beam="1">  1       21 0.79465570E-01 0.25105417E+03</pdfrwt>
<pdfrwt beam="2">  1       21 0.18810941E-01 0.25105417E+03</pdfrwt>
<totfact> 0.35108149E+04</totfact>
</mgrwt>
</event>
<event>
 4    0  0.1187436E-001  0.3099778E+03  0.7546771E-02  0.1080357E+00
         21   -1    0    0  503  501  0.00000000000E+00  0.00000000000E+00  0.48633387442E+03  0.48633387442E+03  0.00000000000E+00 0.  1.
         21   -1    0    0  501  502 -0.00000000000E+00 -0.00000000000E+00 -0.46412585864E+03  0.46412585864E+03  0.00000000000E+00 0.  1.
         25    1    1    2    0    0  0.82337372028E+02 -0.27144387269E+03 -0.35963391067E+03  0.47478707707E+03  0.12500000000E+03 0.  0.
         21    1    1    2  503  502 -0.82337372028E+02  0.27144387269E+03  0.38184192646E+03  0.47567265598E+03  0.00000000000E+00 0.  1.
<mgrwt>
<rscale>  3 0.30997777E+03</rscale>
<asrwt>0</asrwt>
<pdfrwt beam="1">  1       21 0.74820596E-01 0.30997777E+03</pdfrwt>
<pdfrwt beam="2">  1       21 0.71403978E-01 0.30997777E+03</pdfrwt>
<totfact> 0.26150514E+03</totfact>
</mgrwt>
</event>
<event>
 4    0  0.1005289E-001  0.4031913E+03  0.7546771E-02  0.1042680E+00
         21   -1    0    0  503  501  0.00000000000E+00  0.00000000000E+00  0.73604321714E+03  0.73604321714E+03  0.00000000000E+00 0.  1.
         21   -1    0    0  501  502 -0.00000000000E+00 -0.00000000000E+00 -0.55140047022E+03  0.55140047022E+03  0.00000000000E+00 0.  1.
         25    1    1    2    0    0  0.16108742714E+03 -0.34783480456E+03 -0.41316502824E+03  0.57729416332E+03  0.12500000000E+03 0.  0.
         21    1    1    2  503  502 -0.16108742714E+03  0.34783480456E+03  0.59780777517E+03  0.71014952404E+03  0.00000000000E+00 0.  1.
<mgrwt>
<rscale>  3 0.40319128E+03</rscale>
<asrwt>0</asrwt>
<pdfrwt beam="1">  1       21 0.11323742E+00 0.40319128E+03</pdfrwt>
<pdfrwt beam="2">  1       21 0.84830842E-01 0.40319128E+03</pdfrwt>
<totfact> 0.62946104E+02</totfact>
</mgrwt>
</event>
<event>
 4    0  0.1150636E-001  0.2996690E+03  0.7546771E-02  0.1085406E+00
         21   -1    0    0  503  501  0.00000000000E+00  0.00000000000E+00  0.15532517030E+03  0.15532517030E+03  0.00000000000E+00 0. -1.
         21   -1    0    0  501  502 -0.00000000000E+00 -0.00000000000E+00 -0.13194666089E+04  0.13194666089E+04  0.00000000000E+00 0. -1.
         25    1    1    2    0    0 -0.58363378439E+01 -0.27229110797E+03 -0.11644979110E+04  0.12024378966E+04  0.12500000000E+03 0.  0.
         21    1    1    2  503  502  0.58363378439E+01  0.27229110797E+03  0.35647242356E+00  0.27235388264E+03  0.00000000000E+00 0. -1.
<mgrwt>
<rscale>  3 0.29966900E+03</rscale>
<asrwt>0</asrwt>
<pdfrwt beam="1">  1       21 0.23896180E-01 0.29966900E+03</pdfrwt>
<pdfrwt beam="2">  1       21 0.20299486E+00 0.29966900E+03</pdfrwt>
<totfact> 0.19381597E+03</totfact>
</mgrwt>
</event>
<event>
 4    0  0.1558714E-001  0.2528490E+03  0.7546771E-02  0.1111517E+00
         21   -1    0    0  503  501  0.00000000000E+00  0.00000000000E+00  0.60359264086E+03  0.60359264086E+03  0.00000000000E+00 0. -1.
         21   -1    0    0  501  502 -0.00000000000E+00 -0.00000000000E+00 -0.10288051812E+03  0.10288051812E+03  0.00000000000E+00 0. -1.
         25    1    1    2    0    0  0.13966033851E+03 -0.16971330037E+03  0.15427792014E+03  0.29619974867E+03  0.12500000000E+03 0.  0.
         21    1    1    2  503  502 -0.13966033851E+03  0.16971330037E+03  0.34643420260E+03  0.41027341031E+03  0.00000000000E+00 0. -1.
<mgrwt>
<rscale>  3 0.25284900E+03</rscale>
<asrwt>0</asrwt>
<pdfrwt beam="1">  1       21 0.92860404E-01 0.25284900E+03</pdfrwt>
<pdfrwt beam="2">  1       21 0.15827772E-01 0.25284900E+03</pdfrwt>
<totfact> 0.33713916E+04</totfact>
</mgrwt>
</event>
<event>
 4    0  0.1005289E-001  0.2415276E+03  0.7546771E-02  0.1118779E+00
         21   -1    0    0  503  501  0.00000000000E+00  0.00000000000E+00  0.22254848265E+04  0.22254848265E+04  0.00000000000E+00 0. -1.
         21   -1    0    0  501  502 -0.00000000000E+00 -0.00000000000E+00 -0.38787765281E+02  0.38787765281E+02  0.00000000000E+00 0. -1.
         25    1    1    2    0    0  0.20212429320E+03  0.43085232790E+02  0.18736967261E+04  0.18891995629E+04  0.12500000000E+03 0.  0.
         21    1    1    2  503  502 -0.20212429320E+03 -0.43085232790E+02  0.31300033513E+03  0.37507302886E+03  0.00000000000E+00 0. -1.
<mgrwt>
<rscale>  3 0.24152757E+03</rscale>
<asrwt>0</asrwt>
<pdfrwt beam="1">  1       21 0.34238218E+00 0.24152757E+03</pdfrwt>
<pdfrwt beam="2">  1       21 0.59673502E-02 0.24152757E+03</pdfrwt>
<totfact> 0.36461001E+03</totfact>
</mgrwt>
</event>
<event>
 4    0  0.1184821E-001  0.2560880E+03  0.7546771E-02  0.1109517E+00
         21   -1    0    0  502  501  0.00000000000E+00  0.00000000000E+00  0.60438061417E+02  0.60438061417E+02  0.00000000000E+00 0. -1.
         21   -1    0    0  503  502 -0.00000000000E+00 -0.00000000000E+00 -0.10736855774E+04  0.10736855774E+04  0.00000000000E+00 0. -1.
         25    1    1    2    0    0  0.17994489806E+03  0.13257406400E+03 -0.34617131772E+03  0.43059915234E+03  0.12500000000E+03 0.  0.
         21    1    1    2  503  501 -0.17994489806E+03 -0.13257406400E+03 -0.66707619829E+03  0.70352448650E+03  0.00000000000E+00 0. -1.
<mgrwt>
<rscale>  3 0.25608797E+03</rscale>
<asrwt>0</asrwt>
<pdfrwt beam="1">  1       21 0.92981640E-02 0.25608797E+03</pdfrwt>
<pdfrwt beam="2">  1       21 0.16518238E+00 0.25608797E+03</pdfrwt>
<totfact> 0.20473711E+04</totfact>
</mgrwt>
</event>
<event>
 4    0  0.1005289E-001  0.2710649E+03  0.7546771E-02  0.1100672E+00
         21   -1    0    0  502  501  0.00000000000E+00  0.00000000000E+00  0.85172418837E+03  0.85172418837E+03  0.00000000000E+00 0.  1.
         21   -1    0    0  503  502 -0.00000000000E+00 -0.00000000000E+00 -0.10570613644E+03  0.10570613644E+03  0.00000000000E+00 0. -1.
         25    1    1    2    0    0  0.18421811678E+03 -0.15464427567E+03  0.13927355836E+03  0.30475119459E+03  0.12500000000E+03 0.  0.
         21    1    1    2  503  501 -0.18421811678E+03  0.15464427567E+03  0.60674449357E+03  0.65267913022E+03  0.00000000000E+00 0.  1.
<mgrwt>
<rscale>  3 0.27106488E+03</rscale>
<asrwt>0</asrwt>
<pdfrwt beam="1">  1       21 0.13103449E+00 0.27106488E+03</pdfrwt>
<pdfrwt beam="2">  1       21 0.16262483E-01 0.27106488E+03</pdfrwt>
<totfact> 0.13677641E+04</totfact>
</mgrwt>
</event>
<event>
 4    0  0.1005289E-001  0.2448301E+03  0.7546771E-02  0.1116616E+00
         21   -1    0    0  503  501  0.00000000000E+00  0.00000000000E+00  0.16419639525E+04  0.16419639525E+04  0.00000000000E+00 0. -1.
         21   -1    0    0  501  502 -0.00000000000E+00 -0.00000000000E+00 -0.38764401749E+02  0.38764401749E+02  0.00000000000E+00 0.  1.
         25    1    1    2    0    0 -0.18547648784E+03 -0.99575390150E+02  0.48957090077E+03  0.54737688364E+03  0.12500000000E+03 0.  0.
         21    1    1    2  503  502  0.18547648784E+03  0.99575390150E+02  0.11136286500E+04  0.11333514706E+04  0.00000000000E+00 0. -1.
<mgrwt>
<rscale>  3 0.24483012E+03</rscale>
<asrwt>0</asrwt>
<pdfrwt beam="1">  1       21 0.25260979E+00 0.24483012E+03</pdfrwt>
<pdfrwt beam="2">  1       21 0.59637554E-02 0.24483012E+03</pdfrwt>
<totfact> 0.12235710E+04</totfact>
</mgrwt>
</event>
<event>
 4    0  0.1208763E-001  0.2543817E+03  0.7546771E-02  0.1110567E+00
         21   -1    0    0  502  501  0.00000000000E+00  0.00000000000E+00  0.33018567077E+02  0.33018567077E+02  0.00000000000E+00 0. -1.
         21   -1    0    0  503  502 -0.00000000000E+00 -0.00000000000E+00 -0.17223533092E+04  0.17223533092E+04  0.00000000000E+00 0. -1.
         25    1    1    2    0    0  0.22154506144E+03  0.16779630780E+01 -0.95975261788E+03  0.99289229896E+03  0.12500000000E+03 0.  0.
         21    1    1    2  503  501 -0.22154506144E+03 -0.16779630780E+01 -0.72958212419E+03  0.76247957727E+03  0.00000000000E+00 0. -1.
<mgrwt>
<rscale>  3 0.25438166E+03</rscale>
<asrwt>0</asrwt>
<pdfrwt beam="1">  1       21 0.50797804E-02 0.25438166E+03</pdfrwt>
<pdfrwt beam="2">  1       21 0.26497739E+00 0.25438166E+03</pdfrwt>
<totfact> 0.13513511E+04</totfact>
</mgrwt>
</event>
<event>
 4    0  0.1370490E-001  0.2645994E+03  0.7546771E-02  0.1104411E+00
         21   -1    0    0  502  501  0.00000000000E+00  0.00000000000E+00  0.19610828851E+03  0.19610828851E+03  0.00000000000E+00 0. -1.
         21   -1    0    0  503  502 -0.00000000000E+00 -0.00000000000E+00 -0.44153873494E+03  0.44153873494E+03  0.00000000000E+00 0. -1.
         25    1    1    2    0    0  0.20702086167E+03 -0.10737881218E+03 -0.29806727408E+03  0.39856862188E+03  0.12500000000E+03 0.  0.
         21    1    1    2  503  501 -0.20702086167E+03  0.10737881218E+03  0.52636827648E+02  0.23907840157E+03  0.00000000000E+00 0. -1.
<mgrwt>
<rscale>  3 0.26459941E+03</rscale>
<asrwt>0</asrwt>
<pdfrwt beam="1">  1       21 0.30170506E-01 0.26459941E+03</pdfrwt>
<pdfrwt beam="2">  1       21 0.67929036E-01 0.26459941E+03</pdfrwt>
<totfact> 0.20078882E+04</totfact>
</mgrwt>
</event>
<event>
 4    0  0.1005289E-001  0.2744135E+03  0.7546771E-02  0.1098780E+00
         21   -1    0    0  502  501  0.00000000000E+00  0.00000000000E+00  0.13750644457E+03  0.13750644457E+03  0.00000000000E+00 0.  1.
         21   -1    0    0  503  502 -0.00000000000E+00 -0.00000000000E+00 -0.74176928084E+03  0.74176928084E+03  0.00000000000E+00 0.  1.
         25    1    1    2    0    0 -0.16076602874E+03  0.18393492531E+03 -0.57432677250E+02  0.28035920738E+03  0.12500000000E+03 0.  0.
         21    1    1    2  503  501  0.16076602874E+03 -0.18393492531E+03 -0.54683015903E+03  0.59891651803E+03  0.00000000000E+00 0.  1.
<mgrwt>
<rscale>  3 0.27441351E+03</rscale>
<asrwt>0</asrwt>
<pdfrwt beam="1">  1       21 0.21154838E-01 0.27441351E+03</pdfrwt>
<pdfrwt beam="2">  1       21 0.11411835E+00 0.27441351E+03</pdfrwt>
<totfact> 0.11819619E+04</totfact>
</mgrwt>
</event>
<event>
 4    0  0.1005289E-001  0.2588616E+03  0.7546771E-02  0.1107829E+00
         21   -1    0    0  503  501  0.00000000000E+00  0.00000000000E+00  0.19851115289E+04  0.19851115289E+04  0.00000000000E+00 0.  1.
         21   -1    0    0  501  502 -0.00000000000E+00 -0.00000000000E+00 -0.82981758219E+02  0.82981758219E+02  0.00000000000E+00 0.  1.
         25    1    1    2    0    0  0.22387588689E+03  0.35551319587E+02  0.14560435634E+03  0.29700157851E+03  0.12500000000E+03 0.  0.
         21    1    1    2  503  502 -0.22387588689E+03 -0.35551319587E+02  0.17565254143E+04  0.17710917086E+04  0.00000000000E+00 0.  1.
<mgrwt>
<rscale>  3 0.25886156E+03</rscale>
<asrwt>0</asrwt>
<pdfrwt beam="1">  1       21 0.30540174E+00 0.25886156E+03</pdfrwt>
<pdfrwt beam="2">  1       21 0.12766426E-01 0.25886156E+03</pdfrwt>
<totfact> 0.15485353E+03</totfact>
</mgrwt>
</event>
<event>
 4    0  0.1005289E-001  0.3372145E+03  0.7546771E-02  0.1067989E+00
         21   -1    0    0  502  501  0.00000000000E+00  0.00000000000E+00  0.69472620386E+03  0.69472620386E+03  0.00000000000E+00 0. -1.
         21   -1    0    0  503  502 -0.00000000000E+00 -0.00000000000E+00 -0.19791511979E+03  0.19791511979E+03  0.00000000000E+00 0. -1.
         25    1    1    2    0    0  0.18896453400E+03  0.24976186804E+03  0.46978936900E+03  0.57828681211E+03  0.12500000000E+03 0.  0.
         21    1    1    2  503  501 -0.18896453400E+03 -0.24976186804E+03  0.27021715070E+02  0.31435451153E+03  0.00000000000E+00 0. -1.
<mgrwt>
<rscale>  3 0.33721445E+03</rscale>
<asrwt>0</asrwt>
<pdfrwt beam="1">  1       21 0.10688095E+00 0.33721445E+03</pdfrwt>
<pdfrwt beam="2">  1       21 0.30448480E-01 0.33721445E+03</pdfrwt>
<totfact> 0.66653194E+03</totfact>
</mgrwt>
</event>
<event>
 4    0  0.1161522E-001  0.2583865E+03  0.7546771E-02  0.1108117E+00
         21   -1    0    0  503  501  0.00000000000E+00  0.00000000000E+00  0.49742750122E+03  0.49742750122E+03  0.00000000000E+00 0. -1.
         21   -1    0    0  501  502 -0.00000000000E+00 -0.00000000000E+00 -0.32677063522E+03  0.32677063522E+03  0.00000000000E+00 0. -1.
         25    1    1    2    0    0 -0.18529589831E+03 -0.12963036048E+03 -0.24175923057E+03  0.35385184167E+03  0.12500000000E+03 0.  0.
         21    1    1    2  503  502  0.18529589831E+03  0.12963036048E+03  0.41241609657E+03  0.47034629477E+03  0.00000000000E+00 0. -1.
<mgrwt>
<rscale>  3 0.25838653E+03</rscale>
<asrwt>0</asrwt>
<pdfrwt beam="1">  1       21 0.76527308E-01 0.25838653E+03</pdfrwt>
<pdfrwt beam="2">  1       21 0.50272405E-01 0.25838653E+03</pdfrwt>
<totfact> 0.54753675E+03</totfact>
</mgrwt>
</event>
<event>
 4    0  0.1125525E-001  0.3557613E+03  0.7546771E-02  0.1060275E+00
         21   -1    0    0  502  501  0.00000000000E+00  0.00000000000E+00  0.51719951553E+03  0.51719951553E+03  0.00000000000E+00 0. -1.
         21   -1    0    0  503  502 -0.00000000000E+00 -0.00000000000E+00 -0.32178179285E+03  0.32178179285E+03  0.00000000000E+00 0.  1.
         25    1    1    2    0    0  0.19720122203E+03 -0.26842646844E+03 -0.12472747689E+03  0.37699208801E+03  0.12500000000E+03 0.  0.
         21    1    1    2  503  501 -0.19720122203E+03  0.26842646844E+03  0.32014519957E+03  0.46198922037E+03  0.00000000000E+00 0. -1.
<mgrwt>
<rscale>  3 0.35576128E+03</rscale>
<asrwt>0</asrwt>
<pdfrwt beam="1">  1       21 0.79569156E-01 0.35576128E+03</pdfrwt>
<pdfrwt beam="2">  1       21 0.49504891E-01 0.35576128E+03</pdfrwt>
<totfact> 0.49307170E+03</totfact>
</mgrwt>
</event>
<event>
 4    0  0.1302814E-001  0.2432118E+03  0.7546771E-02  0.1117672E+00
         21   -1    0    0  503  501  0.00000000000E+00  0.00000000000E+00  0.74003914612E+03  0.74003914612E+03  0.00000000000E+00 0.  1.
         21   -1    0    0  501  502 -0.00000000000E+00 -0.00000000000E+00 -0.72927111331E+02  0.72927111331E+02  0.00000000000E+00 0.  1.
         25    1    1    2    0    0  0.17725925836E+03 -0.11002794068E+03  0.26327560676E+03  0.35842159187E+03  0.12500000000E+03 0.  0.
         21    1    1    2  503  502 -0.17725925836E+03  0.11002794068E+03  0.40383642803E+03  0.45454466558E+03  0.00000000000E+00 0.  1.
<mgrwt>
<rscale>  3 0.24321183E+03</rscale>
<asrwt>0</asrwt>
<pdfrwt beam="1">  1       21 0.11385217E+00 0.24321183E+03</pdfrwt>
<pdfrwt beam="2">  1       21 0.11219556E-01 0.24321183E+03</pdfrwt>
<totfact> 0.38732440E+04</totfact>
</mgrwt>
</event>
<event>
 4    0  0.1230347E-001  0.2439549E+03  0.7546771E-02  0.1117186E+00
         21   -1    0    0  503  501  0.00000000000E+00  0.00000000000E+00  0.21725571756E+03  0.21725571756E+03  0.00000000000E+00 0.  1.
         21   -1    0    0  501  502 -0.00000000000E+00 -0.00000000000E+00 -0.40892386050E+03  0.40892386050E+03  0.00000000000E+00 0. -1.
         25    1    1    2    0    0 -0.20737710978E+03  0.29727723127E+02 -0.30294789046E+03  0.38896198724E+03  0.12500000000E+03 0.  0.
         21    1    1    2  503  502  0.20737710978E+03 -0.29727723127E+02  0.11127974752E+03  0.23721759082E+03  0.00000000000E+00 0.  1.
<mgrwt>
<rscale>  3 0.24395492E+03</rscale>
<asrwt>0</asrwt>
<pdfrwt beam="1">  1       21 0.33423956E-01 0.24395492E+03</pdfrwt>
<pdfrwt beam="2">  1       21 0.62911363E-01 0.24395492E+03</pdfrwt>
<totfact> 0.19601455E+04</totfact>
</mgrwt>
</event>
<event>
 4    0  0.1255285E-001  0.2476045E+03  0.7546771E-02  0.1114828E+00
         21   -1    0    0  503  501  0.00000000000E+00  0.00000000000E+00  0.34077006461E+03  0.34077006461E+03  0.00000000000E+00 0. -1.
         21   -1    0    0  501  502 -0.00000000000E+00 -0.00000000000E+00 -0.32096605263E+03  0.32096605263E+03  0.00000000000E+00 0. -1.
         25    1    1    2    0    0 -0.11710147826E+03 -0.17880225921E+03 -0.22653507339E+03  0.33559818769E+03  0.12500000000E+03 0.  0.
         21    1    1    2  503  502  0.11710147826E+03  0.17880225921E+03  0.24633908537E+03  0.32613792955E+03  0.00000000000E+00 0. -1.
<mgrwt>
<rscale>  3 0.24760453E+03</rscale>
<asrwt>0</asrwt>
<pdfrwt beam="1">  1       21 0.52426163E-01 0.24760453E+03</pdfrwt>
<pdfrwt beam="2">  1       21 0.49379393E-01 0.24760453E+03</pdfrwt>
<totfact> 0.13060851E+04</totfact>
</mgrwt>
</event>
<event>
 4    0  0.1361524E-001  0.2600196E+03  0.7546771E-02  0.1107131E+00
         21   -1    0    0  503  501  0.00000000000E+00  0.00000000000E+00  0.68613903977E+02  0.68613903977E+02  0.00000000000E+00 0. -1.
         21   -1    0    0  501  502 -0.00000000000E+00 -0.00000000000E+00 -0.87145740061E+03  0.87145740061E+03  0.00000000000E+00 0. -1.
         25    1    1    2    0    0 -0.21525704508E+03 -0.75163663225E+02 -0.39715530213E+03  0.47470254448E+03  0.12500000000E+03 0.  0.
         21    1    1    2  503  502  0.21525704508E+03  0.75163663225E+02 -0.40568819450E+03  0.46536876011E+03  0.00000000000E+00 0. -1.
<mgrwt>
<rscale>  3 0.26001956E+03</rscale>
<asrwt>0</asrwt>
<pdfrwt beam="1">  1       21 0.10555986E-01 0.26001956E+03</pdfrwt>
<pdfrwt beam="2">  1       21 0.13407036E+00 0.26001956E+03</pdfrwt>
<totfact> 0.28416729E+04</totfact>
</mgrwt>
</event>
<event>
 4    0  0.1390860E-001  0.2458705E+03  0.7546771E-02  0.1115943E+00
         21   -1    0    0  502  501  0.00000000000E+00  0.00000000000E+00  0.54162388633E+02  0.54162388633E+02  0.00000000000E+00 0. -1.
         21   -1    0    0  503  502 -0.00000000000E+00 -0.00000000000E+00 -0.96824723173E+03  0.96824723173E+03  0.00000000000E+00 0. -1.
         25    1    1    2    0    0  0.19107339876E+03  0.91204458222E+02 -0.51269969626E+03  0.56860643283E+03  0.12500000000E+03 0.  0.
         21    1    1    2  503  501 -0.19107339876E+03 -0.91204458222E+02 -0.40138514684E+03  0.45380318753E+03  0.00000000000E+00 0. -1.
<mgrwt>
<rscale>  3 0.24587049E+03</rscale>
<asrwt>0</asrwt>
<pdfrwt beam="1">  1       21 0.83326756E-02 0.24587049E+03</pdfrwt>
<pdfrwt beam="2">  1       21 0.14896110E+00 0.24587049E+03</pdfrwt>
<totfact> 0.33020714E+04</totfact>
</mgrwt>
</event>
<event>
 4    0  0.1063096E-001  0.3363777E+03  0.7546771E-02  0.1068349E+00
         21   -1    0    0  503  501  0.00000000000E+00  0.00000000000E+00  0.10360051898E+04  0.10360051898E+04  0.00000000000E+00 0. -1.
         21   -1    0    0  501  502 -0.00000000000E+00 -0.00000000000E+00 -0.16928205295E+03  0.16928205295E+03  0.00000000000E+00 0. -1.
         25    1    1    2    0    0  0.20414992203E+03  0.23632130926E+03  0.61934460898E+02  0.34203191273E+03  0.12500000000E+03 0.  0.
         21    1    1    2  503  502 -0.20414992203E+03 -0.23632130926E+03  0.80478867597E+03  0.86325533005E+03  0.00000000000E+00 0. -1.
<mgrwt>
<rscale>  3 0.33637769E+03</rscale>
<asrwt>0</asrwt>
<pdfrwt beam="1">  1       21 0.15938541E+00 0.33637769E+03</pdfrwt>
<pdfrwt beam="2">  1       21 0.26043393E-01 0.33637769E+03</pdfrwt>
<totfact> 0.32269848E+03</totfact>
</mgrwt>
</event>
<event>
 4    0  0.1697647E-001  0.2583537E+03  0.7546771E-02  0.1108136E+00
         21   -1    0    0  503  501  0.00000000000E+00  0.00000000000E+00  0.36977865692E+03  0.36977865692E+03  0.00000000000E+00 0.  1.
         21   -1    0    0  501  502 -0.00000000000E+00 -0.00000000000E+00 -0.16109144638E+03  0.16109144638E+03  0.00000000000E+00 0.  1.
         25    1    1    2    0    0  0.17517067111E+03 -0.14295751867E+03  0.78737182261E+02  0.27008546801E+03  0.12500000000E+03 0.  0.
         21    1    1    2  503  502 -0.17517067111E+03  0.14295751867E+03  0.12995002828E+03  0.26078463530E+03  0.00000000000E+00 0.  1.
<mgrwt>
<rscale>  3 0.25835366E+03</rscale>
<asrwt>0</asrwt>
<pdfrwt beam="1">  1       21 0.56889024E-01 0.25835366E+03</pdfrwt>
<pdfrwt beam="2">  1       21 0.24783300E-01 0.25835366E+03</pdfrwt>
<totfact> 0.43402998E+04</totfact>
</mgrwt>
</event>
<event>
 4    0  0.1005289E-001  0.3012455E+03  0.7546771E-02  0.1084620E+00
         21   -1    0    0  503  501  0.00000000000E+00  0.00000000000E+00  0.36620672575E+03  0.36620672575E+03  0.00000000000E+00 0.  1.
         21   -1    0    0  501  502 -0.00000000000E+00 -0.00000000000E+00 -0.22614101189E+03  0.22614101189E+03  0.00000000000E+00 0. -1.
         25    1    1    2    0    0  0.23444377185E+03 -0.14198588019E+03  0.65216721988E+02  0.30822409568E+03  0.12500000000E+03 0.  0.
         21    1    1    2  503  502 -0.23444377185E+03  0.14198588019E+03  0.74848991872E+02  0.28412364195E+03  0.00000000000E+00 0.  1.
<mgrwt>
<rscale>  3 0.30124553E+03</rscale>
<asrwt>0</asrwt>
<pdfrwt beam="1">  1       21 0.56339496E-01 0.30124553E+03</pdfrwt>
<pdfrwt beam="2">  1       21 0.34790925E-01 0.30124553E+03</pdfrwt>
<totfact> 0.22403049E+04</totfact>
</mgrwt>
</event>
<event>
 4    0  0.1198219E-001  0.2421076E+03  0.7546771E-02  0.1118397E+00
         21   -1    0    0  503  501  0.00000000000E+00  0.00000000000E+00  0.67953001913E+03  0.67953001913E+03  0.00000000000E+00 0.  1.
         21   -1    0    0  501  502 -0.00000000000E+00 -0.00000000000E+00 -0.75844293230E+02  0.75844293230E+02  0.00000000000E+00 0.  1.
         25    1    1    2    0    0 -0.20121437976E+03  0.50038517505E+02  0.37813837646E+03  0.44900413317E+03  0.12500000000E+03 0.  0.
         21    1    1    2  503  502  0.20121437976E+03 -0.50038517505E+02  0.22554734944E+03  0.30637017919E+03  0.00000000000E+00 0.  1.
<mgrwt>
<rscale>  3 0.24210758E+03</rscale>
<asrwt>0</asrwt>
<pdfrwt beam="1">  1       21 0.10454308E+00 0.24210758E+03</pdfrwt>
<pdfrwt beam="2">  1       21 0.11668353E-01 0.24210758E+03</pdfrwt>
<totfact> 0.44455770E+04</totfact>
</mgrwt>
</event>
<event>
 4    0  0.1005289E-001  0.3806170E+03  0.7546771E-02  0.1050706E+00
         21   -1    0    0  502  501  0.00000000000E+00  0.00000000000E+00  0.17387144629E+04  0.17387144629E+04  0.00000000000E+00 0.  1.
         21   -1    0    0  503  502 -0.00000000000E+00 -0.00000000000E+00 -0.13095398335E+03  0.13095398335E+03  0.00000000000E+00 0. -1.
         25    1    1    2    0    0  0.13075512881E+03  0.33488415287E+03  0.22764834392E+03  0.44350092226E+03  0.12500000000E+03 0.  0.
         21    1    1    2  503  501 -0.13075512881E+03 -0.33488415287E+03  0.13801121356E+04  0.14261675239E+04  0.00000000000E+00 0.  1.
<mgrwt>
<rscale>  3 0.38061700E+03</rscale>
<asrwt>0</asrwt>
<pdfrwt beam="1">  1       21 0.26749452E+00 0.38061700E+03</pdfrwt>
<pdfrwt beam="2">  1       21 0.20146768E-01 0.38061700E+03</pdfrwt>
<totfact> 0.10156474E+03</totfact>
</mgrwt>
</event>
<event>
 4    0  0.1005289E-001  0.3649268E+03  0.7546771E-02  0.1056650E+00
         21   -1    0    0  502  501  0.00000000000E+00  0.00000000000E+00  0.85288674933E+03  0.85288674933E+03  0.00000000000E+00 0.  1.
         21   -1    0    0  503  502 -0.00000000000E+00 -0.00000000000E+00 -0.14720429491E+03  0.14720429491E+03  0.00000000000E+00 0. -1.
         25    1    1    2    0    0 -0.50182377330E+02 -0.33915825013E+03  0.33893009505E+03  0.49804136270E+03  0.12500000000E+03 0.  0.
         21    1    1    2  503  501  0.50182377330E+02  0.33915825013E+03  0.36675235938E+03  0.50204968154E+03  0.00000000000E+00 0.  1.
<mgrwt>
<rscale>  3 0.36492683E+03</rscale>
<asrwt>0</asrwt>
<pdfrwt beam="1">  1       21 0.13121334E+00 0.36492683E+03</pdfrwt>
<pdfrwt beam="2">  1       21 0.22646815E-01 0.36492683E+03</pdfrwt>
<totfact> 0.70021071E+03</totfact>
</mgrwt>
</event>
<event>
 4    0  0.1232892E-001  0.2389857E+03  0.7546771E-02  0.1120470E+00
         21   -1    0    0  503  501  0.00000000000E+00  0.00000000000E+00  0.27111216315E+02  0.27111216315E+02  0.00000000000E+00 0. -1.
         21   -1    0    0  501  502 -0.00000000000E+00 -0.00000000000E+00 -0.18295331934E+04  0.18295331934E+04  0.00000000000E+00 0. -1.
         25    1    1    2    0    0 -0.11681256675E+03  0.16686517265E+03 -0.10748659158E+04  0.11011134812E+04  0.12500000000E+03 0.  0.
         21    1    1    2  503  502  0.11681256675E+03 -0.16686517265E+03 -0.72755606136E+03  0.75553092856E+03  0.00000000000E+00 0. -1.
<mgrwt>
<rscale>  3 0.23898569E+03</rscale>
<asrwt>0</asrwt>
<pdfrwt beam="1">  1       21 0.41709561E-02 0.23898569E+03</pdfrwt>
<pdfrwt beam="2">  1       21 0.28146666E+00 0.23898569E+03</pdfrwt>
<totfact> 0.15292020E+04</totfact>
</mgrwt>
</event>
<event>
 4    0  0.1104705E-001  0.2580012E+03  0.7546771E-02  0.1108350E+00
         21   -1    0    0  503  501  0.00000000000E+00  0.00000000000E+00  0.11744375242E+04  0.11744375242E+04  0.00000000000E+00 0.  1.
         21   -1    0    0  501  502 -0.00000000000E+00 -0.00000000000E+00 -0.96224590340E+02  0.96224590340E+02  0.00000000000E+00 0.  1.
         25    1    1    2    0    0  0.10610461431E+03 -0.19920198281E+03  0.11697073752E+03  0.28327861298E+03  0.12500000000E+03 0.  0.
         21    1    1    2  503  502 -0.10610461431E+03  0.19920198281E+03  0.96124219629E+03  0.98738350152E+03  0.00000000000E+00 0.  1.
<mgrwt>
<rscale>  3 0.25800120E+03</rscale>
<asrwt>0</asrwt>
<pdfrwt beam="1">  1       21 0.18068269E+00 0.25800120E+03</pdfrwt>
<pdfrwt beam="2">  1       21 0.14803784E-01 0.25800120E+03</pdfrwt>
<totfact> 0.68869713E+03</totfact>
</mgrwt>
</event>
<event>
 4    0  0.1005289E-001  0.3086186E+03  0.7546771E-02  0.1081010E+00
         21   -1    0    0  503  501  0.00000000000E+00  0.00000000000E+00  0.19462610339E+04  0.19462610339E+04  0.00000000000E+00 0.  1.
         21   -1    0    0  501  502 -0.00000000000E+00 -0.00000000000E+00 -0.44837984109E+02  0.44837984109E+02  0.00000000000E+00 0.  1.
         25    1    1    2    0    0 -0.26973134058E+03 -0.82857927296E+02  0.98353397001E+03  0.10308173953E+04  0.12500000000E+03 0.  0.
         21    1    1    2  503  502  0.26973134058E+03  0.82857927296E+02  0.91788907979E+03  0.96028162276E+03  0.00000000000E+00 0.  1.
<mgrwt>
<rscale>  3 0.30861859E+03</rscale>
<asrwt>0</asrwt>
<pdfrwt beam="1">  1       21 0.29942471E+00 0.30861859E+03</pdfrwt>
<pdfrwt beam="2">  1       21 0.68981529E-02 0.30861859E+03</pdfrwt>
<totfact> 0.48038740E+03</totfact>
</mgrwt>
</event>
<event>
 4    0  0.1005289E-001  0.2800753E+03  0.7546771E-02  0.1095648E+00
         21   -1    0    0  503  501  0.00000000000E+00  0.00000000000E+00  0.76555520698E+02  0.76555520698E+02  0.00000000000E+00 0.  1.
         21   -1    0    0  501  502 -0.00000000000E+00 -0.00000000000E+00 -0.13544383330E+04  0.13544383330E+04  0.00000000000E+00 0.  1.
         25    1    1    2    0    0  0.11963053305E+03  0.22024007638E+03 -0.25810401738E+03  0.38086722026E+03  0.12500000000E+03 0.  0.
         21    1    1    2  503  502 -0.11963053305E+03 -0.22024007638E+03 -0.10197787949E+04  0.10501266335E+04  0.00000000000E+00 0.  1.
<mgrwt>
<rscale>  3 0.28007527E+03</rscale>
<asrwt>0</asrwt>
<pdfrwt beam="1">  1       21 0.11777774E-01 0.28007527E+03</pdfrwt>
<pdfrwt beam="2">  1       21 0.20837511E+00 0.28007527E+03</pdfrwt>
<totfact> 0.67428521E+03</totfact>
</mgrwt>
</event>
<event>
 4    0  0.1562776E-001  0.2853231E+03  0.7546771E-02  0.1092817E+00
         21   -1    0    0  503  501  0.00000000000E+00  0.00000000000E+00  0.37660432837E+03  0.37660432837E+03  0.00000000000E+00 0.  1.
         21   -1    0    0  501  502 -0.00000000000E+00 -0.00000000000E+00 -0.19618241116E+03  0.19618241116E+03  0.00000000000E+00 0.  1.
         25    1    1    2    0    0  0.24175626125E+03  0.85663274923E+02  0.11837223179E+03  0.30890333728E+03  0.12500000000E+03 0.  0.
         21    1    1    2  503  502 -0.24175626125E+03 -0.85663274923E+02  0.62049685421E+02  0.26388340226E+03  0.00000000000E+00 0.  1.
<mgrwt>
<rscale>  3 0.28532313E+03</rscale>
<asrwt>0</asrwt>
<pdfrwt beam="1">  1       21 0.57939127E-01 0.28532313E+03</pdfrwt>
<pdfrwt beam="2">  1       21 0.30181909E-01 0.28532313E+03</pdfrwt>
<totfact> 0.28146570E+04</totfact>
</mgrwt>
</event>
<event>
 4    0  0.1450379E-001  0.4398933E+03  0.7546771E-02  0.1030780E+00
         21   -1    0    0  502  501  0.00000000000E+00  0.00000000000E+00  0.41897203430E+03  0.41897203430E+03  0.00000000000E+00 0. -1.
         21   -1    0    0  503  502 -0.00000000000E+00 -0.00000000000E+00 -0.48464159818E+03  0.48464159818E+03  0.00000000000E+00 0. -1.
         25    1    1    2    0    0  0.17017738350E+03  0.38590259992E+03 -0.16584970524E+03  0.47011943505E+03  0.12500000000E+03 0.  0.
         21    1    1    2  503  501 -0.17017738350E+03 -0.38590259992E+03  0.10018014136E+03  0.43349419743E+03  0.00000000000E+00 0. -1.
<mgrwt>
<rscale>  3 0.43989335E+03</rscale>
<asrwt>0</asrwt>
<pdfrwt beam="1">  1       21 0.64457236E-01 0.43989335E+03</pdfrwt>
<pdfrwt beam="2">  1       21 0.74560246E-01 0.43989335E+03</pdfrwt>
<totfact> 0.31275580E+03</totfact>
</mgrwt>
</event>
<event>
 4    0  0.1252552E-001  0.2377186E+03  0.7546771E-02  0.1121322E+00
         21   -1    0    0  503  501  0.00000000000E+00  0.00000000000E+00  0.10883936871E+03  0.10883936871E+03  0.00000000000E+00 0.  1.
         21   -1    0    0  501  502 -0.00000000000E+00 -0.00000000000E+00 -0.10313159716E+04  0.10313159716E+04  0.00000000000E+00 0.  1.
         25    1    1    2    0    0  0.79653020719E+02 -0.18585087406E+03 -0.90669477112E+03  0.93733961778E+03  0.12500000000E+03 0.  0.
         21    1    1    2  503  502 -0.79653020719E+02  0.18585087406E+03 -0.15781831797E+02  0.20281572255E+03  0.00000000000E+00 0.  1.
<mgrwt>
<rscale>  3 0.23771864E+03</rscale>
<asrwt>0</asrwt>
<pdfrwt beam="1">  1       21 0.16744518E-01 0.23771864E+03</pdfrwt>
<pdfrwt beam="2">  1       21 0.15866399E+00 0.23771864E+03</pdfrwt>
<totfact> 0.79876415E+03</totfact>
</mgrwt>
</event>
<event>
 4    0  0.1583592E-001  0.2379146E+03  0.7546771E-02  0.1121190E+00
         21   -1    0    0  503  501  0.00000000000E+00  0.00000000000E+00  0.27725171439E+03  0.27725171439E+03  0.00000000000E+00 0.  1.
         21   -1    0    0  501  502 -0.00000000000E+00 -0.00000000000E+00 -0.23239482627E+03  0.23239482627E+03  0.00000000000E+00 0.  1.
         25    1    1    2    0    0 -0.76053147748E+02  0.18760133064E+03 -0.10271005344E+03  0.25913837157E+03  0.12500000000E+03 0.  0.
         21    1    1    2  503  502  0.76053147748E+02 -0.18760133064E+03  0.14756694157E+03  0.25050816910E+03  0.00000000000E+00 0.  1.
<mgrwt>
<rscale>  3 0.23791457E+03</rscale>
<asrwt>0</asrwt>
<pdfrwt beam="1">  1       21 0.42654110E-01 0.23791457E+03</pdfrwt>
<pdfrwt beam="2">  1       21 0.35753050E-01 0.23791457E+03</pdfrwt>
<totfact> 0.39020243E+04</totfact>
</mgrwt>
</event>
<event>
 4    0  0.1005289E-001  0.3407279E+03  0.7546771E-02  0.1066486E+00
         21   -1    0    0  503  501  0.00000000000E+00  0.00000000000E+00  0.22507027700E+04  0.22507027700E+04  0.00000000000E+00 0.  1.
         21   -1    0    0  501  502 -0.00000000000E+00 -0.00000000000E+00 -0.49027076922E+02  0.49027076922E+02  0.00000000000E+00 0.  1.
         25    1    1    2    0    0 -0.11337675098E+03  0.29600041670E+03  0.97742389340E+03  0.10351101399E+04  0.12500000000E+03 0.  0.
         21    1    1    2  503  502  0.11337675098E+03 -0.29600041670E+03  0.12242517997E+04  0.12646197070E+04  0.00000000000E+00 0.  1.
<mgrwt>
<rscale>  3 0.34072795E+03</rscale>
<asrwt>0</asrwt>
<pdfrwt beam="1">  1       21 0.34626188E+00 0.34072795E+03</pdfrwt>
<pdfrwt beam="2">  1       21 0.75426290E-02 0.34072795E+03</pdfrwt>
<totfact> 0.21098265E+03</totfact>
</mgrwt>
</event>
<event>
 4    0  0.1286488E-001  0.2932133E+03  0.7546771E-02  0.1088683E+00
         21   -1    0    0  502  501  0.00000000000E+00  0.00000000000E+00  0.20629853859E+03  0.20629853859E+03  0.00000000000E+00 0. -1.
         21   -1    0    0  503  502 -0.00000000000E+00 -0.00000000000E+00 -0.64238992898E+03  0.64238992898E+03  0.00000000000E+00 0. -1.
         25    1    1    2    0    0  0.15900311529E+03  0.21228999561E+03 -0.49654253078E+03  0.57665285725E+03  0.12500000000E+03 0.  0.
         21    1    1    2  503  501 -0.15900311529E+03 -0.21228999561E+03  0.60451140388E+02  0.27203561032E+03  0.00000000000E+00 0. -1.
<mgrwt>
<rscale>  3 0.29321329E+03</rscale>
<asrwt>0</asrwt>
<pdfrwt beam="1">  1       21 0.31738237E-01 0.29321329E+03</pdfrwt>
<pdfrwt beam="2">  1       21 0.98829220E-01 0.29321329E+03</pdfrwt>
<totfact> 0.75777931E+03</totfact>
</mgrwt>
</event>
<event>
 4    0  0.1690808E-001  0.2630487E+03  0.7546771E-02  0.1105325E+00
         21   -1    0    0  503  501  0.00000000000E+00  0.00000000000E+00  0.28056872227E+03  0.28056872227E+03  0.00000000000E+00 0.  1.
         21   -1    0    0  501  502 -0.00000000000E+00 -0.00000000000E+00 -0.22222378259E+03  0.22222378259E+03  0.00000000000E+00 0.  1.
         25    1    1    2    0    0  0.12698181330E+02 -0.23110248640E+03 -0.40456655217E+01  0.26307977961E+03  0.12500000000E+03 0.  0.
         21    1    1    2  503  502 -0.12698181330E+02  0.23110248640E+03  0.62390605201E+02  0.23971272525E+03  0.00000000000E+00 0.  1.
<mgrwt>
<rscale>  3 0.26304867E+03</rscale>
<asrwt>0</asrwt>
<pdfrwt beam="1">  1       21 0.43164419E-01 0.26304867E+03</pdfrwt>
<pdfrwt beam="2">  1       21 0.34188274E-01 0.26304867E+03</pdfrwt>
<totfact> 0.41209023E+04</totfact>
</mgrwt>
</event>
<event>
 4    0  0.1379642E-001  0.2644672E+03  0.7546771E-02  0.1104489E+00
         21   -1    0    0  503  501  0.00000000000E+00  0.00000000000E+00  0.11867341304E+04  0.11867341304E+04  0.00000000000E+00 0. -1.
         21   -1    0    0  501  502 -0.00000000000E+00 -0.00000000000E+00 -0.53897260977E+02  0.53897260977E+02  0.00000000000E+00 0. -1.
         25    1    1    2    0    0  0.45307939325E+02  0.22861559658E+03  0.48942055885E+03  0.55630511753E+03  0.12500000000E+03 0.  0.
         21    1    1    2  503  502 -0.45307939325E+02 -0.22861559658E+03  0.64341631059E+03  0.68432627386E+03  0.00000000000E+00 0. -1.
<mgrwt>
<rscale>  3 0.26446720E+03</rscale>
<asrwt>0</asrwt>
<pdfrwt beam="1">  1       21 0.18257446E+00 0.26446720E+03</pdfrwt>
<pdfrwt beam="2">  1       21 0.82918872E-02 0.26446720E+03</pdfrwt>
<totfact> 0.18816053E+04</totfact>
</mgrwt>
</event>
<event>
 4    0  0.1121074E-001  0.4935304E+03  0.7546771E-02  0.1015482E+00
         21   -1    0    0  502  501  0.00000000000E+00  0.00000000000E+00  0.13940431930E+04  0.13940431930E+04  0.00000000000E+00 0. -1.
         21   -1    0    0  503  502 -0.00000000000E+00 -0.00000000000E+00 -0.20003213870E+03  0.20003213870E+03  0.00000000000E+00 0. -1.
         25    1    1    2    0    0  0.45304010185E+03 -0.15067142854E+03  0.29184262772E+03  0.57336230485E+03  0.12500000000E+03 0.  0.
         21    1    1    2  503  501 -0.45304010185E+03  0.15067142854E+03  0.90216842660E+03  0.10207130269E+04  0.00000000000E+00 0. -1.
<mgrwt>
<rscale>  3 0.49353036E+03</rscale>
<asrwt>0</asrwt>
<pdfrwt beam="1">  1       21 0.21446818E+00 0.49353036E+03</pdfrwt>
<pdfrwt beam="2">  1       21 0.30774176E-01 0.49353036E+03</pdfrwt>
<totfact> 0.89732322E+02</totfact>
</mgrwt>
</event>
<event>
 4    0  0.1326746E-001  0.2400752E+03  0.7546771E-02  0.1119743E+00
         21   -1    0    0  503  501  0.00000000000E+00  0.00000000000E+00  0.16912180946E+03  0.16912180946E+03  0.00000000000E+00 0.  1.
         21   -1    0    0  501  502 -0.00000000000E+00 -0.00000000000E+00 -0.44613401621E+03  0.44613401621E+03  0.00000000000E+00 0.  1.
         25    1    1    2    0    0 -0.20345278356E+03  0.24860641145E+02 -0.32566852649E+03  0.40459371691E+03  0.12500000000E+03 0.  0.
         21    1    1    2  503  502  0.20345278356E+03 -0.24860641145E+02  0.48656319750E+02  0.21066210876E+03  0.00000000000E+00 0.  1.
<mgrwt>
<rscale>  3 0.24007517E+03</rscale>
<asrwt>0</asrwt>
<pdfrwt beam="1">  1       21 0.26018740E-01 0.24007517E+03</pdfrwt>
<pdfrwt beam="2">  1       21 0.68636003E-01 0.24007517E+03</pdfrwt>
<totfact> 0.26478271E+04</totfact>
</mgrwt>
</event>
<event>
 4    0  0.1005289E-001  0.2395714E+03  0.7546771E-02  0.1120079E+00
         21   -1    0    0  503  501  0.00000000000E+00  0.00000000000E+00  0.26291676909E+04  0.26291676909E+04  0.00000000000E+00 0. -1.
         21   -1    0    0  501  502 -0.00000000000E+00 -0.00000000000E+00 -0.79525551727E+03  0.79525551727E+03  0.00000000000E+00 0. -1.
         25    1    1    2    0    0  0.21246344967E+02 -0.20326837199E+03 -0.77312223554E+03  0.80939015889E+03  0.12500000000E+03 0.  0.
         21    1    1    2  503  502 -0.21246344967E+02  0.20326837199E+03  0.26070344092E+04  0.26150330493E+04  0.00000000000E+00 0. -1.
<mgrwt>
<rscale>  3 0.23957136E+03</rscale>
<asrwt>0</asrwt>
<pdfrwt beam="1">  1       21 0.40448733E+00 0.23957136E+03</pdfrwt>
<pdfrwt beam="2">  1       21 0.12234700E+00 0.23957136E+03</pdfrwt>
<totfact> 0.37348146E+00</totfact>
</mgrwt>
</event>
<event>
 4    0  0.1516217E-001  0.2910480E+03  0.7546771E-02  0.1089803E+00
         21   -1    0    0  503  501  0.00000000000E+00  0.00000000000E+00  0.40941595556E+03  0.40941595556E+03  0.00000000000E+00 0.  1.
         21   -1    0    0  501  502 -0.00000000000E+00 -0.00000000000E+00 -0.27258492533E+03  0.27258492533E+03  0.00000000000E+00 0.  1.
         25    1    1    2    0    0 -0.79808037101E+02  0.25042891001E+03 -0.11972105122E+03  0.31470953570E+03  0.12500000000E+03 0.  0.
         21    1    1    2  503  502  0.79808037101E+02 -0.25042891001E+03  0.25655208146E+03  0.36729134519E+03  0.00000000000E+00 0.  1.
<mgrwt>
<rscale>  3 0.29104804E+03</rscale>
<asrwt>0</asrwt>
<pdfrwt beam="1">  1       21 0.62987070E-01 0.29104804E+03</pdfrwt>
<pdfrwt beam="2">  1       21 0.41936142E-01 0.29104804E+03</pdfrwt>
<totfact> 0.12094915E+04</totfact>
</mgrwt>
</event>
<event>
 4    0  0.1316985E-001  0.3845120E+03  0.7546771E-02  0.1049279E+00
         21   -1    0    0  503  501  0.00000000000E+00  0.00000000000E+00  0.11569731317E+04  0.11569731317E+04  0.00000000000E+00 0.  1.
         21   -1    0    0  501  502 -0.00000000000E+00 -0.00000000000E+00 -0.12094771253E+03  0.12094771253E+03  0.00000000000E+00 0.  1.
         25    1    1    2    0    0  0.52692426273E+02 -0.35978877264E+03  0.52852431571E+03  0.65359575045E+03  0.12500000000E+03 0.  0.
         21    1    1    2  503  502 -0.52692426273E+02  0.35978877264E+03  0.50750110344E+03  0.62432509376E+03  0.00000000000E+00 0.  1.
<mgrwt>
<rscale>  3 0.38451197E+03</rscale>
<asrwt>0</asrwt>
<pdfrwt beam="1">  1       21 0.17799586E+00 0.38451197E+03</pdfrwt>
<pdfrwt beam="2">  1       21 0.18607341E-01 0.38451197E+03</pdfrwt>
<totfact> 0.43946748E+03</totfact>
</mgrwt>
</event>
<event>
 4    0  0.1730152E-001  0.3346105E+03  0.7546771E-02  0.1069115E+00
         21   -1    0    0  503  501  0.00000000000E+00  0.00000000000E+00  0.23229566430E+03  0.23229566430E+03  0.00000000000E+00 0.  1.
         21   -1    0    0  501  502 -0.00000000000E+00 -0.00000000000E+00 -0.46163404362E+03  0.46163404362E+03  0.00000000000E+00 0.  1.
         25    1    1    2    0    0  0.28434585810E+01 -0.31037256282E+03 -0.17902721869E+03  0.37949302766E+03  0.12500000000E+03 0.  0.
         21    1    1    2  503  502 -0.28434585810E+01  0.31037256282E+03 -0.50311160626E+02  0.31443668026E+03  0.00000000000E+00 0.  1.
<mgrwt>
<rscale>  3 0.33461054E+03</rscale>
<asrwt>0</asrwt>
<pdfrwt beam="1">  1       21 0.35737794E-01 0.33461054E+03</pdfrwt>
<pdfrwt beam="2">  1       21 0.71020623E-01 0.33461054E+03</pdfrwt>
<totfact> 0.12605259E+04</totfact>
</mgrwt>
</event>
<event>
 4    0  0.1381488E-001  0.2940962E+03  0.7546771E-02  0.1088230E+00
         21   -1    0    0  502  501  0.00000000000E+00  0.00000000000E+00  0.80273132366E+03  0.80273132366E+03  0.00000000000E+00 0. -1.
         21   -1    0    0  503  502 -0.00000000000E+00 -0.00000000000E+00 -0.18827693050E+03  0.18827693050E+03  0.00000000000E+00 0. -1.
         25    1    1    2    0    0 -0.12674640535E+03  0.23410018371E+03 -0.28154815997E+02  0.29544075708E+03  0.12500000000E+03 0.  0.
         21    1    1    2  503  501  0.12674640535E+03 -0.23410018371E+03  0.64260920916E+03  0.69556749707E+03  0.00000000000E+00 0. -1.
<mgrwt>
<rscale>  3 0.29409615E+03</rscale>
<asrwt>0</asrwt>
<pdfrwt beam="1">  1       21 0.12349712E+00 0.29409615E+03</pdfrwt>
<pdfrwt beam="2">  1       21 0.28965682E-01 0.29409615E+03</pdfrwt>
<totfact> 0.52453306E+03</totfact>
</mgrwt>
</event>
<event>
 4    0  0.1318991E-001  0.3432745E+03  0.7546771E-02  0.1065410E+00
         21   -1    0    0  502  501  0.00000000000E+00  0.00000000000E+00  0.61968397885E+03  0.61968397885E+03  0.00000000000E+00 0. -1.
         21   -1    0    0  503  502 -0.00000000000E+00 -0.00000000000E+00 -0.33585065488E+03  0.33585065488E+03  0.00000000000E+00 0.  1.
         25    1    1    2    0    0  0.28343003522E+03  0.14791822347E+03 -0.18355044442E+03  0.38926617031E+03  0.12500000000E+03 0.  0.
         21    1    1    2  503  501 -0.28343003522E+03 -0.14791822347E+03  0.46738376840E+03  0.56626846342E+03  0.00000000000E+00 0. -1.
<mgrwt>
<rscale>  3 0.34327450E+03</rscale>
<asrwt>0</asrwt>
<pdfrwt beam="1">  1       21 0.95335996E-01 0.34327450E+03</pdfrwt>
<pdfrwt beam="2">  1       21 0.51669332E-01 0.34327450E+03</pdfrwt>
<totfact> 0.29679633E+03</totfact>
</mgrwt>
</event>
<event>
 4    0  0.1312760E-001  0.2444493E+03  0.7546771E-02  0.1116864E+00
         21   -1    0    0  503  501  0.00000000000E+00  0.00000000000E+00  0.46437600170E+03  0.46437600170E+03  0.00000000000E+00 0.  1.
         21   -1    0    0  501  502 -0.00000000000E+00 -0.00000000000E+00 -0.24967628599E+03  0.24967628599E+03  0.00000000000E+00 0.  1.
         25    1    1    2    0    0 -0.87818304936E+02 -0.19083611239E+03 -0.15456422907E+03  0.28921545149E+03  0.12500000000E+03 0.  0.
         21    1    1    2  503  502  0.87818304936E+02  0.19083611239E+03  0.36926394478E+03  0.42483683619E+03  0.00000000000E+00 0.  1.
<mgrwt>
<rscale>  3 0.24444933E+03</rscale>
<asrwt>0</asrwt>
<pdfrwt beam="1">  1       21 0.71442462E-01 0.24444933E+03</pdfrwt>
<pdfrwt beam="2">  1       21 0.38411736E-01 0.24444933E+03</pdfrwt>
<totfact> 0.11210667E+04</totfact>
</mgrwt>
</event>
<event>
 4    0  0.1812911E-001  0.2626793E+03  0.7546771E-02  0.1105544E+00
         21   -1    0    0  502  501  0.00000000000E+00  0.00000000000E+00  0.40897710364E+03  0.40897710364E+03  0.00000000000E+00 0. -1.
         21   -1    0    0  503  502 -0.00000000000E+00 -0.00000000000E+00 -0.16357224798E+03  0.16357224798E+03  0.00000000000E+00 0. -1.
         25    1    1    2    0    0 -0.13335303764E+03  0.18865938922E+03  0.44580714228E+02  0.26643542908E+03  0.12500000000E+03 0.  0.
         21    1    1    2  503  501  0.13335303764E+03 -0.18865938922E+03  0.20082414143E+03  0.30611392254E+03  0.00000000000E+00 0. -1.
<mgrwt>
<rscale>  3 0.26267927E+03</rscale>
<asrwt>0</asrwt>
<pdfrwt beam="1">  1       21 0.62919554E-01 0.26267927E+03</pdfrwt>
<pdfrwt beam="2">  1       21 0.25164961E-01 0.26267927E+03</pdfrwt>
<totfact> 0.33835107E+04</totfact>
</mgrwt>
</event>
<event>
 4    0  0.1678722E-001  0.2607400E+03  0.7546771E-02  0.1106699E+00
         21   -1    0    0  502  501  0.00000000000E+00  0.00000000000E+00  0.55297571623E+03  0.55297571623E+03  0.00000000000E+00 0. -1.
         21   -1    0    0  503  502 -0.00000000000E+00 -0.00000000000E+00 -0.44733213602E+03  0.44733213602E+03  0.00000000000E+00 0.  1.
         25    1    1    2    0    0  0.69385921449E+02 -0.21805034950E+03 -0.38150467627E+03  0.46209433997E+03  0.12500000000E+03 0.  0.
         21    1    1    2  503  501 -0.69385921449E+02  0.21805034950E+03  0.48714825648E+03  0.53821351229E+03  0.00000000000E+00 0. -1.
<mgrwt>
<rscale>  3 0.26074003E+03</rscale>
<asrwt>0</asrwt>
<pdfrwt beam="1">  1       21 0.85073188E-01 0.26074003E+03</pdfrwt>
<pdfrwt beam="2">  1       21 0.68820328E-01 0.26074003E+03</pdfrwt>
<totfact> 0.21810984E+03</totfact>
</mgrwt>
</event>
<event>
 4    0  0.1209968E-001  0.3393060E+03  0.7546771E-02  0.1067092E+00
         21   -1    0    0  503  501  0.00000000000E+00  0.00000000000E+00  0.17604121244E+03  0.17604121244E+03  0.00000000000E+00 0.  1.
         21   -1    0    0  501  502 -0.00000000000E+00 -0.00000000000E+00 -0.95699586327E+03  0.95699586327E+03  0.00000000000E+00 0.  1.
         25    1    1    2    0    0  0.23988804829E+03  0.20483469969E+03 -0.74110776074E+03  0.81508848779E+03  0.12500000000E+03 0.  0.
         21    1    1    2  503  502 -0.23988804829E+03 -0.20483469969E+03 -0.39846890095E+02  0.31794858791E+03  0.00000000000E+00 0.  1.
<mgrwt>
<rscale>  3 0.33930595E+03</rscale>
<asrwt>0</asrwt>
<pdfrwt beam="1">  1       21 0.27083264E-01 0.33930595E+03</pdfrwt>
<pdfrwt beam="2">  1       21 0.14723013E+00 0.33930595E+03</pdfrwt>
<totfact> 0.37019118E+03</totfact>
</mgrwt>
</event>
<event>
 4    0  0.1440790E-001  0.2777155E+03  0.7546771E-02  0.1096943E+00
         21   -1    0    0  503  501  0.00000000000E+00  0.00000000000E+00  0.41081121862E+03  0.41081121862E+03  0.00000000000E+00 0. -1.
         21   -1    0    0  501  502 -0.00000000000E+00 -0.00000000000E+00 -0.23755145609E+03  0.23755145609E+03  0.00000000000E+00 0. -1.
         25    1    1    2    0    0  0.13057653830E+03  0.21083329325E+03 -0.84883095417E+02  0.29039808847E+03  0.12500000000E+03 0.  0.
         21    1    1    2  503  502 -0.13057653830E+03 -0.21083329325E+03  0.25814285794E+03  0.35796458625E+03  0.00000000000E+00 0. -1.
<mgrwt>
<rscale>  3 0.27771552E+03</rscale>
<asrwt>0</asrwt>
<pdfrwt beam="1">  1       21 0.63201726E-01 0.27771552E+03</pdfrwt>
<pdfrwt beam="2">  1       21 0.36546378E-01 0.27771552E+03</pdfrwt>
<totfact> 0.15975096E+04</totfact>
</mgrwt>
</event>
<event>
 4    0  0.1153372E-001  0.2402423E+03  0.7546771E-02  0.1119632E+00
         21   -1    0    0  503  501  0.00000000000E+00  0.00000000000E+00  0.57824929951E+03  0.57824929951E+03  0.00000000000E+00 0.  1.
         21   -1    0    0  501  502 -0.00000000000E+00 -0.00000000000E+00 -0.14180403299E+03  0.14180403299E+03  0.00000000000E+00 0. -1.
         25    1    1    2    0    0  0.19063610128E+03  0.75823711416E+02  0.27259596158E+01  0.24025775571E+03  0.12500000000E+03 0.  0.
         21    1    1    2  503  502 -0.19063610128E+03 -0.75823711416E+02  0.43371930690E+03  0.47979557679E+03  0.00000000000E+00 0.  1.
<mgrwt>
<rscale>  3 0.24024229E+03</rscale>
<asrwt>0</asrwt>
<pdfrwt beam="1">  1       21 0.88961430E-01 0.24024229E+03</pdfrwt>
<pdfrwt beam="2">  1       21 0.21816005E-01 0.24024229E+03</pdfrwt>
<totfact> 0.20600695E+04</totfact>
</mgrwt>
</event>
<event>
 4    0  0.1297476E-001  0.3085137E+03  0.7546771E-02  0.1081060E+00
         21   -1    0    0  503  501  0.00000000000E+00  0.00000000000E+00  0.19396792057E+03  0.19396792057E+03  0.00000000000E+00 0. -1.
         21   -1    0    0  501  502 -0.00000000000E+00 -0.00000000000E+00 -0.66029347119E+03  0.66029347119E+03  0.00000000000E+00 0. -1.
         25    1    1    2    0    0 -0.27320984198E+03 -0.70086196094E+02 -0.48143089715E+03  0.57180101554E+03  0.12500000000E+03 0.  0.
         21    1    1    2  503  502  0.27320984198E+03  0.70086196094E+02  0.15105346536E+02  0.28246037622E+03  0.00000000000E+00 0. -1.
<mgrwt>
<rscale>  3 0.30851368E+03</rscale>
<asrwt>0</asrwt>
<pdfrwt beam="1">  1       21 0.29841219E-01 0.30851368E+03</pdfrwt>
<pdfrwt beam="2">  1       21 0.10158361E+00 0.30851368E+03</pdfrwt>
<totfact> 0.79526122E+03</totfact>
</mgrwt>
</event>
<event>
 4    0  0.1580583E-001  0.2491970E+03  0.7546771E-02  0.1113813E+00
         21   -1    0    0  503  501  0.00000000000E+00  0.00000000000E+00  0.83029636399E+02  0.83029636399E+02  0.00000000000E+00 0. -1.
         21   -1    0    0  501  502 -0.00000000000E+00 -0.00000000000E+00 -0.69305905357E+03  0.69305905357E+03  0.00000000000E+00 0. -1.
         25    1    1    2    0    0  0.20007857004E+03 -0.80266384064E+02 -0.42173385597E+03  0.48985566433E+03  0.12500000000E+03 0.  0.
         21    1    1    2  503  502 -0.20007857004E+03  0.80266384064E+02 -0.18829556120E+03  0.28623302564E+03  0.00000000000E+00 0. -1.
<mgrwt>
<rscale>  3 0.24919696E+03</rscale>
<asrwt>0</asrwt>
<pdfrwt beam="1">  1       21 0.12773791E-01 0.24919696E+03</pdfrwt>
<pdfrwt beam="2">  1       21 0.10662447E+00 0.24919696E+03</pdfrwt>
<totfact> 0.35893866E+04</totfact>
</mgrwt>
</event>
<event>
 4    0  0.1210045E-001  0.2530720E+03  0.7546771E-02  0.1111379E+00
         21   -1    0    0  503  501  0.00000000000E+00  0.00000000000E+00  0.70485562553E+03  0.70485562553E+03  0.00000000000E+00 0. -1.
         21   -1    0    0  501  502 -0.00000000000E+00 -0.00000000000E+00 -0.16648099202E+03  0.16648099202E+03  0.00000000000E+00 0. -1.
         25    1    1    2    0    0 -0.85969423529E+02 -0.20255783791E+03 -0.36589595805E+02  0.25570337894E+03  0.12500000000E+03 0.  0.
         21    1    1    2  503  502  0.85969423529E+02  0.20255783791E+03  0.57496422932E+03  0.61563323861E+03  0.00000000000E+00 0. -1.
<mgrwt>
<rscale>  3 0.25307197E+03</rscale>
<asrwt>0</asrwt>
<pdfrwt beam="1">  1       21 0.10843933E+00 0.25307197E+03</pdfrwt>
<pdfrwt beam="2">  1       21 0.25612461E-01 0.25307197E+03</pdfrwt>
<totfact> 0.94029121E+03</totfact>
</mgrwt>
</event>
<event>
 4    0  0.1005289E-001  0.2368714E+03  0.7546771E-02  0.1121895E+00
         21   -1    0    0  502  501  0.00000000000E+00  0.00000000000E+00  0.67850950950E+02  0.67850950950E+02  0.00000000000E+00 0. -1.
         21   -1    0    0  503  502 -0.00000000000E+00 -0.00000000000E+00 -0.10105051291E+04  0.10105051291E+04  0.00000000000E+00 0.  1.
         25    1    1    2    0    0 -0.19977917659E+03  0.23902459114E+02 -0.79293652960E+03  0.82756050348E+03  0.12500000000E+03 0.  0.
         21    1    1    2  503  501  0.19977917659E+03 -0.23902459114E+02 -0.14971764860E+03  0.25079557662E+03  0.00000000000E+00 0. -1.
<mgrwt>
<rscale>  3 0.23687137E+03</rscale>
<asrwt>0</asrwt>
<pdfrwt beam="1">  1       21 0.10438608E-01 0.23687137E+03</pdfrwt>
<pdfrwt beam="2">  1       21 0.15546232E+00 0.23687137E+03</pdfrwt>
<totfact> 0.19881382E+04</totfact>
</mgrwt>
</event>
<event>
 4    0  0.1564386E-001  0.2515160E+03  0.7546771E-02  0.1112350E+00
         21   -1    0    0  503  501  0.00000000000E+00  0.00000000000E+00  0.51415230102E+03  0.51415230102E+03  0.00000000000E+00 0. -1.
         21   -1    0    0  501  502 -0.00000000000E+00 -0.00000000000E+00 -0.11341175942E+03  0.11341175942E+03  0.00000000000E+00 0. -1.
         25    1    1    2    0    0 -0.11228536956E+03 -0.18715579558E+03  0.14115500976E+03  0.28841815618E+03  0.12500000000E+03 0.  0.
         21    1    1    2  503  502  0.11228536956E+03  0.18715579558E+03  0.25958553185E+03  0.33914590426E+03  0.00000000000E+00 0. -1.
<mgrwt>
<rscale>  3 0.25151600E+03</rscale>
<asrwt>0</asrwt>
<pdfrwt beam="1">  1       21 0.79100353E-01 0.25151600E+03</pdfrwt>
<pdfrwt beam="2">  1       21 0.17447963E-01 0.25151600E+03</pdfrwt>
<totfact> 0.40801504E+04</totfact>
</mgrwt>
</event>
<event>
 4    0  0.1005289E-001  0.2505290E+03  0.7546771E-02  0.1112971E+00
         21   -1    0    0  502  501  0.00000000000E+00  0.00000000000E+00  0.17386268247E+04  0.17386268247E+04  0.00000000000E+00 0. -1.
         21   -1    0    0  503  502 -0.00000000000E+00 -0.00000000000E+00 -0.13689917571E+03  0.13689917571E+03  0.00000000000E+00 0. -1.
         25    1    1    2    0    0  0.13973008936E+03  0.16617841027E+03 -0.85522500941E+01  0.25067489482E+03  0.12500000000E+03 0.  0.
         21    1    1    2  503  501 -0.13973008936E+03 -0.16617841027E+03  0.16102798991E+04  0.16248511056E+04  0.00000000000E+00 0. -1.
<mgrwt>
<rscale>  3 0.25052896E+03</rscale>
<asrwt>0</asrwt>
<pdfrwt beam="1">  1       21 0.26748103E+00 0.25052896E+03</pdfrwt>
<pdfrwt beam="2">  1       21 0.21061413E-01 0.25052896E+03</pdfrwt>
<totfact> 0.10324278E+03</totfact>
</mgrwt>
</event>
<event>
 4    0  0.1254157E-001  0.2597687E+03  0.7546771E-02  0.1107282E+00
         21   -1    0    0  503  501  0.00000000000E+00  0.00000000000E+00  0.55226017952E+03  0.55226017952E+03  0.00000000000E+00 0. -1.
         21   -1    0    0  501  502 -0.00000000000E+00 -0.00000000000E+00 -0.16560028676E+03  0.16560028676E+03  0.00000000000E+00 0. -1.
         25    1    1    2    0    0  0.19748213850E+03  0.11338255369E+03 -0.10575709225E+02  0.25998393053E+03  0.12500000000E+03 0.  0.
         21    1    1    2  503  502 -0.19748213850E+03 -0.11338255369E+03  0.39723560199E+03  0.45787653575E+03  0.00000000000E+00 0. -1.
<mgrwt>
<rscale>  3 0.25976874E+03</rscale>
<asrwt>0</asrwt>
<pdfrwt beam="1">  1       21 0.84963104E-01 0.25976874E+03</pdfrwt>
<pdfrwt beam="2">  1       21 0.25476967E-01 0.25976874E+03</pdfrwt>
<totfact> 0.16875466E+04</totfact>
</mgrwt>
</event>
<event>
 4    0  0.1801650E-001  0.2589844E+03  0.7546771E-02  0.1107755E+00
         21   -1    0    0  502  501  0.00000000000E+00  0.00000000000E+00  0.35596735293E+03  0.35596735293E+03  0.00000000000E+00 0.  1.
         21   -1    0    0  503  502 -0.00000000000E+00 -0.00000000000E+00 -0.18983706129E+03  0.18983706129E+03  0.00000000000E+00 0.  1.
         25    1    1    2    0    0 -0.20076914291E+03  0.10554467095E+03 -0.91552318676E+01  0.25914618381E+03  0.12500000000E+03 0.  0.
         21    1    1    2  503  501  0.20076914291E+03 -0.10554467095E+03  0.17528552351E+03  0.28665823041E+03  0.00000000000E+00 0.  1.
<mgrwt>
<rscale>  3 0.25898441E+03</rscale>
<asrwt>0</asrwt>
<pdfrwt beam="1">  1       21 0.54764208E-01 0.25898441E+03</pdfrwt>
<pdfrwt beam="2">  1       21 0.29205702E-01 0.25898441E+03</pdfrwt>
<totfact> 0.34237882E+04</totfact>
</mgrwt>
</event>
<event>
 4    0  0.1293593E-001  0.2366981E+03  0.7546771E-02  0.1122012E+00
         21   -1    0    0  502  501  0.00000000000E+00  0.00000000000E+00  0.69933175498E+02  0.69933175498E+02  0.00000000000E+00 0.  1.
         21   -1    0    0  503  502 -0.00000000000E+00 -0.00000000000E+00 -0.14615990979E+04  0.14615990979E+04  0.00000000000E+00 0. -1.
         25    1    1    2    0    0  0.20060957777E+03  0.12520941995E+02 -0.12797904040E+04  0.13014950845E+04  0.12500000000E+03 0.  0.
         21    1    1    2  503  501 -0.20060957777E+03 -0.12520941995E+02 -0.11187551840E+03  0.23003718894E+03  0.00000000000E+00 0.  1.
<mgrwt>
<rscale>  3 0.23669807E+03</rscale>
<asrwt>0</asrwt>
<pdfrwt beam="1">  1       21 0.10758951E-01 0.23669807E+03</pdfrwt>
<pdfrwt beam="2">  1       21 0.22486139E+00 0.23669807E+03</pdfrwt>
<totfact> 0.64439858E+03</totfact>
</mgrwt>
</event>
<event>
 4    0  0.1519852E-001  0.2440314E+03  0.7546771E-02  0.1117136E+00
         21   -1    0    0  502  501  0.00000000000E+00  0.00000000000E+00  0.26240750847E+03  0.26240750847E+03  0.00000000000E+00 0. -1.
         21   -1    0    0  503  502 -0.00000000000E+00 -0.00000000000E+00 -0.22036791757E+03  0.22036791757E+03  0.00000000000E+00 0. -1.
         25    1    1    2    0    0  0.14635246830E+03  0.15002423009E+03 -0.57558927257E+02  0.25072763050E+03  0.12500000000E+03 0.  0.
         21    1    1    2  503  501 -0.14635246830E+03 -0.15002423009E+03  0.99598518158E+02  0.23204779553E+03  0.00000000000E+00 0. -1.
<mgrwt>
<rscale>  3 0.24403138E+03</rscale>
<asrwt>0</asrwt>
<pdfrwt beam="1">  1       21 0.40370386E-01 0.24403138E+03</pdfrwt>
<pdfrwt beam="2">  1       21 0.33902757E-01 0.24403138E+03</pdfrwt>
<totfact> 0.48416850E+04</totfact>
</mgrwt>
</event>
<event>
 4    0  0.1763540E-001  0.2735438E+03  0.7546771E-02  0.1099268E+00
         21   -1    0    0  502  501  0.00000000000E+00  0.00000000000E+00  0.22242724009E+03  0.22242724009E+03  0.00000000000E+00 0.  1.
         21   -1    0    0  503  502 -0.00000000000E+00 -0.00000000000E+00 -0.13643340855E+04  0.13643340855E+04  0.00000000000E+00 0. -1.
         25    1    1    2    0    0 -0.50851900256E+02 -0.23793970476E+03 -0.12786999058E+04  0.13076313196E+04  0.12500000000E+03 0.  0.
         21    1    1    2  503  501  0.50851900256E+02  0.23793970476E+03  0.13679306042E+03  0.27913000598E+03  0.00000000000E+00 0.  1.
<mgrwt>
<rscale>  3 0.27354382E+03</rscale>
<asrwt>0</asrwt>
<pdfrwt beam="1">  1       21 0.34219576E-01 0.27354382E+03</pdfrwt>
<pdfrwt beam="2">  1       21 0.20989755E+00 0.27354382E+03</pdfrwt>
<totfact> 0.88346155E+02</totfact>
</mgrwt>
</event>
<event>
 4    0  0.1005289E-001  0.2578793E+03  0.7546771E-02  0.1108424E+00
         21   -1    0    0  502  501  0.00000000000E+00  0.00000000000E+00  0.10714707860E+04  0.10714707860E+04  0.00000000000E+00 0. -1.
         21   -1    0    0  503  502 -0.00000000000E+00 -0.00000000000E+00 -0.71672174721E+02  0.71672174721E+02  0.00000000000E+00 0.  1.
         25    1    1    2    0    0  0.17467679375E+03  0.14270512797E+03  0.24627902487E+03  0.35658812924E+03  0.12500000000E+03 0.  0.
         21    1    1    2  503  501 -0.17467679375E+03 -0.14270512797E+03  0.75351958637E+03  0.78655483145E+03  0.00000000000E+00 0. -1.
<mgrwt>
<rscale>  3 0.25787930E+03</rscale>
<asrwt>0</asrwt>
<pdfrwt beam="1">  1       21 0.16484165E+00 0.25787930E+03</pdfrwt>
<pdfrwt beam="2">  1       21 0.11026489E-01 0.25787930E+03</pdfrwt>
<totfact> 0.15186900E+04</totfact>
</mgrwt>
</event>
<event>
 4    0  0.1007585E-001  0.2596807E+03  0.7546771E-02  0.1107335E+00
         21   -1    0    0  502  501  0.00000000000E+00  0.00000000000E+00  0.84955618954E+02  0.84955618954E+02  0.00000000000E+00 0.  1.
         21   -1    0    0  503  502 -0.00000000000E+00 -0.00000000000E+00 -0.18328705968E+04  0.18328705968E+04  0.00000000000E+00 0.  1.
         25    1    1    2    0    0 -0.22747641177E+03 -0.79709565394E+01 -0.16495500718E+04  0.16698651124E+04  0.12500000000E+03 0.  0.
         21    1    1    2  503  501  0.22747641177E+03  0.79709565394E+01 -0.98364906046E+02  0.24796110341E+03  0.00000000000E+00 0.  1.
<mgrwt>
<rscale>  3 0.25968068E+03</rscale>
<asrwt>0</asrwt>
<pdfrwt beam="1">  1       21 0.13070095E-01 0.25968068E+03</pdfrwt>
<pdfrwt beam="2">  1       21 0.28198010E+00 0.25968068E+03</pdfrwt>
<totfact> 0.20331749E+03</totfact>
</mgrwt>
</event>
<event>
 4    0  0.1005289E-001  0.2712639E+03  0.7546771E-02  0.1100558E+00
         21   -1    0    0  502  501  0.00000000000E+00  0.00000000000E+00  0.30883191168E+03  0.30883191168E+03  0.00000000000E+00 0. -1.
         21   -1    0    0  503  502 -0.00000000000E+00 -0.00000000000E+00 -0.21879380876E+03  0.21879380876E+03  0.00000000000E+00 0.  1.
         25    1    1    2    0    0  0.20367215263E+03 -0.12836183592E+03  0.19548361556E+01  0.27127094954E+03  0.12500000000E+03 0.  0.
         21    1    1    2  503  501 -0.20367215263E+03  0.12836183592E+03  0.88083266773E+02  0.25635477090E+03  0.00000000000E+00 0. -1.
<mgrwt>
<rscale>  3 0.27126391E+03</rscale>
<asrwt>0</asrwt>
<pdfrwt beam="1">  1       21 0.47512602E-01 0.27126391E+03</pdfrwt>
<pdfrwt beam="2">  1       21 0.33660586E-01 0.27126391E+03</pdfrwt>
<totfact> 0.34728300E+04</totfact>
</mgrwt>
</event>
<event>
 4    0  0.1121824E-001  0.2579616E+03  0.7546771E-02  0.1108374E+00
         21   -1    0    0  502  501  0.00000000000E+00  0.00000000000E+00  0.12437328797E+03  0.12437328797E+03  0.00000000000E+00 0. -1.
         21   -1    0    0  503  502 -0.00000000000E+00 -0.00000000000E+00 -0.84749313175E+03  0.84749313175E+03  0.00000000000E+00 0.  1.
         25    1    1    2    0    0  0.10496760886E+03 -0.19975226745E+03 -0.69881670997E+03  0.74490869332E+03  0.12500000000E+03 0.  0.
         21    1    1    2  503  501 -0.10496760886E+03  0.19975226745E+03 -0.24303133806E+02  0.22695772640E+03  0.00000000000E+00 0. -1.
<mgrwt>
<rscale>  3 0.25796156E+03</rscale>
<asrwt>0</asrwt>
<pdfrwt beam="1">  1       21 0.19134352E-01 0.25796156E+03</pdfrwt>
<pdfrwt beam="2">  1       21 0.13038356E+00 0.25796156E+03</pdfrwt>
<totfact> 0.10310044E+04</totfact>
</mgrwt>
</event>
<event>
 4    0  0.1340231E-001  0.2572655E+03  0.7546771E-02  0.1108797E+00
         21   -1    0    0  503  501  0.00000000000E+00  0.00000000000E+00  0.21630514838E+03  0.21630514838E+03  0.00000000000E+00 0. -1.
         21   -1    0    0  501  502 -0.00000000000E+00 -0.00000000000E+00 -0.45179143095E+03  0.45179143095E+03  0.00000000000E+00 0. -1.
         25    1    1    2    0    0 -0.52152199227E+02  0.21872517473E+03 -0.33484676727E+03  0.42226521464E+03  0.12500000000E+03 0.  0.
         21    1    1    2  503  502  0.52152199227E+02 -0.21872517473E+03  0.99360484700E+02  0.24583136469E+03  0.00000000000E+00 0. -1.
<mgrwt>
<rscale>  3 0.25726553E+03</rscale>
<asrwt>0</asrwt>
<pdfrwt beam="1">  1       21 0.33277715E-01 0.25726553E+03</pdfrwt>
<pdfrwt beam="2">  1       21 0.69506374E-01 0.25726553E+03</pdfrwt>
<totfact> 0.15778356E+04</totfact>
</mgrwt>
</event>
<event>
 4    0  0.1240841E-001  0.2932926E+03  0.7546771E-02  0.1088642E+00
         21   -1    0    0  502  501  0.00000000000E+00  0.00000000000E+00  0.20243725391E+03  0.20243725391E+03  0.00000000000E+00 0. -1.
         21   -1    0    0  503  502 -0.00000000000E+00 -0.00000000000E+00 -0.71248179590E+03  0.71248179590E+03  0.00000000000E+00 0. -1.
         25    1    1    2    0    0 -0.18365176207E+03 -0.19148780201E+03 -0.57168651008E+03  0.64253094387E+03  0.12500000000E+03 0.  0.
         21    1    1    2  503  501  0.18365176207E+03  0.19148780201E+03  0.61641968095E+02  0.27238810594E+03  0.00000000000E+00 0. -1.
<mgrwt>
<rscale>  3 0.29329260E+03</rscale>
<asrwt>0</asrwt>
<pdfrwt beam="1">  1       21 0.31144192E-01 0.29329260E+03</pdfrwt>
<pdfrwt beam="2">  1       21 0.10961259E+00 0.29329260E+03</pdfrwt>
<totfact> 0.61188273E+03</totfact>
</mgrwt>
</event>
<event>
 4    0  0.1254886E-001  0.2538498E+03  0.7546771E-02  0.1110896E+00
         21   -1    0    0  503  501  0.00000000000E+00  0.00000000000E+00  0.36644839213E+02  0.36644839213E+02  0.00000000000E+00 0.  1.
         21   -1    0    0  501  502 -0.00000000000E+00 -0.00000000000E+00 -0.15492901756E+04  0.15492901756E+04  0.00000000000E+00 0.  1.
         25    1    1    2    0    0  0.19914114429E+03 -0.95694951423E+02 -0.87616015914E+03  0.91219315035E+03  0.12500000000E+03 0.  0.
         21    1    1    2  503  502 -0.19914114429E+03  0.95694951423E+02 -0.63648517723E+03  0.67374186445E+03  0.00000000000E+00 0.  1.
<mgrwt>
<rscale>  3 0.25384980E+03</rscale>
<asrwt>0</asrwt>
<pdfrwt beam="1">  1       21 0.56376669E-02 0.25384980E+03</pdfrwt>
<pdfrwt beam="2">  1       21 0.23835236E+00 0.25384980E+03</pdfrwt>
<totfact> 0.16302681E+04</totfact>
</mgrwt>
</event>
<event>
 4    0  0.1005289E-001  0.3513733E+03  0.7546771E-02  0.1062053E+00
         21   -1    0    0  503  501  0.00000000000E+00  0.00000000000E+00  0.13598996254E+04  0.13598996254E+04  0.00000000000E+00 0. -1.
         21   -1    0    0  501  502 -0.00000000000E+00 -0.00000000000E+00 -0.23893978811E+03  0.23893978811E+03  0.00000000000E+00 0. -1.
         25    1    1    2    0    0 -0.29698135753E+03  0.14014382067E+03 -0.74424951380E+02  0.35916888866E+03  0.12500000000E+03 0.  0.
         21    1    1    2  503  502  0.29698135753E+03 -0.14014382067E+03  0.11953847887E+04  0.12396705248E+04  0.00000000000E+00 0. -1.
<mgrwt>
<rscale>  3 0.35137333E+03</rscale>
<asrwt>0</asrwt>
<pdfrwt beam="1">  1       21 0.20921532E+00 0.35137333E+03</pdfrwt>
<pdfrwt beam="2">  1       21 0.36759968E-01 0.35137333E+03</pdfrwt>
<totfact> 0.73083119E+02</totfact>
</mgrwt>
</event>
<event>
 4    0  0.1090451E-001  0.3498667E+03  0.7546771E-02  0.1062670E+00
         21   -1    0    0  503  501  0.00000000000E+00  0.00000000000E+00  0.65569466491E+03  0.65569466491E+03  0.00000000000E+00 0.  1.
         21   -1    0    0  501  502 -0.00000000000E+00 -0.00000000000E+00 -0.47276483992E+03  0.47276483992E+03  0.00000000000E+00 0.  1.
         25    1    1    2    0    0 -0.30544203333E+03 -0.11613284871E+03 -0.35539923930E+03  0.49871363884E+03  0.12500000000E+03 0.  0.
         21    1    1    2  503  502  0.30544203333E+03  0.11613284871E+03  0.53832906429E+03  0.62974586599E+03  0.00000000000E+00 0.  1.
<mgrwt>
<rscale>  3 0.34986665E+03</rscale>
<asrwt>0</asrwt>
<pdfrwt beam="1">  1       21 0.10087610E+00 0.34986665E+03</pdfrwt>
<pdfrwt beam="2">  1       21 0.72733052E-01 0.34986665E+03</pdfrwt>
<totfact> 0.12228004E+03</totfact>
</mgrwt>
</event>
<event>
 4    0  0.1316236E-001  0.2381021E+03  0.7546771E-02  0.1121064E+00
         21   -1    0    0  503  501  0.00000000000E+00  0.00000000000E+00  0.21421097079E+03  0.21421097079E+03  0.00000000000E+00 0.  1.
         21   -1    0    0  501  502 -0.00000000000E+00 -0.00000000000E+00 -0.23401493230E+03  0.23401493230E+03  0.00000000000E+00 0.  1.
         25    1    1    2    0    0 -0.18382814987E+03 -0.85292680807E+02  0.28770879569E+02  0.23983409598E+03  0.12500000000E+03 0.  0.
         21    1    1    2  503  502  0.18382814987E+03  0.85292680807E+02 -0.48574841082E+02  0.20839180711E+03  0.00000000000E+00 0.  1.
<mgrwt>
<rscale>  3 0.23810214E+03</rscale>
<asrwt>0</asrwt>
<pdfrwt beam="1">  1       21 0.32955534E-01 0.23810214E+03</pdfrwt>
<pdfrwt beam="2">  1       21 0.36002297E-01 0.23810214E+03</pdfrwt>
<totfact> 0.64682431E+04</totfact>
</mgrwt>
</event>
<event>
 4    0  0.1330519E-001  0.2390447E+03  0.7546771E-02  0.1120431E+00
         21   -1    0    0  502  501  0.00000000000E+00  0.00000000000E+00  0.32812951478E+03  0.32812951478E+03  0.00000000000E+00 0.  1.
         21   -1    0    0  503  502 -0.00000000000E+00 -0.00000000000E+00 -0.15172645761E+03  0.15172645761E+03  0.00000000000E+00 0.  1.
         25    1    1    2    0    0 -0.20192822493E+03 -0.27246300170E+02  0.12481538868E+03  0.26966877859E+03  0.12500000000E+03 0.  0.
         21    1    1    2  503  501  0.20192822493E+03  0.27246300170E+02  0.51587668490E+02  0.21018719380E+03  0.00000000000E+00 0.  1.
<mgrwt>
<rscale>  3 0.23904470E+03</rscale>
<asrwt>0</asrwt>
<pdfrwt beam="1">  1       21 0.50481463E-01 0.23904470E+03</pdfrwt>
<pdfrwt beam="2">  1       21 0.23342532E-01 0.23904470E+03</pdfrwt>
<totfact> 0.63186845E+04</totfact>
</mgrwt>
</event>
<event>
 4    0  0.1402740E-001  0.2684728E+03  0.7546771E-02  0.1102157E+00
         21   -1    0    0  503  501  0.00000000000E+00  0.00000000000E+00  0.29746120822E+03  0.29746120822E+03  0.00000000000E+00 0.  1.
         21   -1    0    0  501  502 -0.00000000000E+00 -0.00000000000E+00 -0.33015454318E+03  0.33015454318E+03  0.00000000000E+00 0.  1.
         25    1    1    2    0    0  0.23755941384E+03  0.42631106534E+01 -0.20190540430E+03  0.33592177884E+03  0.12500000000E+03 0.  0.
         21    1    1    2  503  502 -0.23755941384E+03 -0.42631106534E+01  0.16921206934E+03  0.29169397256E+03  0.00000000000E+00 0.  1.
<mgrwt>
<rscale>  3 0.26847281E+03</rscale>
<asrwt>0</asrwt>
<pdfrwt beam="1">  1       21 0.45763262E-01 0.26847281E+03</pdfrwt>
<pdfrwt beam="2">  1       21 0.50793007E-01 0.26847281E+03</pdfrwt>
<totfact> 0.16193524E+04</totfact>
</mgrwt>
</event>
<event>
 4    0  0.1005289E-001  0.2464662E+03  0.7546771E-02  0.1115559E+00
         21   -1    0    0  503  501  0.00000000000E+00  0.00000000000E+00  0.37614864964E+02  0.37614864964E+02  0.00000000000E+00 0. -1.
         21   -1    0    0  501  502 -0.00000000000E+00 -0.00000000000E+00 -0.20299024963E+04  0.20299024963E+04  0.00000000000E+00 0. -1.
         25    1    1    2    0    0  0.20204390286E+03  0.65565518469E+02 -0.16220869111E+04  0.16407045812E+04  0.12500000000E+03 0.  0.
         21    1    1    2  503  502 -0.20204390286E+03 -0.65565518469E+02 -0.37020072029E+03  0.42681278003E+03  0.00000000000E+00 0. -1.
<mgrwt>
<rscale>  3 0.24646618E+03</rscale>
<asrwt>0</asrwt>
<pdfrwt beam="1">  1       21 0.57869030E-02 0.24646618E+03</pdfrwt>
<pdfrwt beam="2">  1       21 0.31229265E+00 0.24646618E+03</pdfrwt>
<totfact> 0.57510778E+03</totfact>
</mgrwt>
</event>
<event>
 4    0  0.1093685E-001  0.3824724E+03  0.7546771E-02  0.1050024E+00
         21   -1    0    0  502  501  0.00000000000E+00  0.00000000000E+00  0.39787531801E+03  0.39787531801E+03  0.00000000000E+00 0. -1.
         21   -1    0    0  503  502 -0.00000000000E+00 -0.00000000000E+00 -0.62807031099E+03  0.62807031099E+03  0.00000000000E+00 0. -1.
         25    1    1    2    0    0 -0.28459568498E+03 -0.22285747696E+03 -0.45952181396E+03  0.59786742381E+03  0.12500000000E+03 0.  0.
         21    1    1    2  503  501  0.28459568498E+03  0.22285747696E+03  0.22932682097E+03  0.42807820519E+03  0.00000000000E+00 0. -1.
<mgrwt>
<rscale>  3 0.38247243E+03</rscale>
<asrwt>0</asrwt>
<pdfrwt beam="1">  1       21 0.61211587E-01 0.38247243E+03</pdfrwt>
<pdfrwt beam="2">  1       21 0.96626202E-01 0.38247243E+03</pdfrwt>
<totfact> 0.19582769E+03</totfact>
</mgrwt>
</event>
<event>
 4    0  0.1005289E-001  0.2704866E+03  0.7546771E-02  0.1101001E+00
         21   -1    0    0  503  501  0.00000000000E+00  0.00000000000E+00  0.51725134576E+03  0.51725134576E+03  0.00000000000E+00 0. -1.
         21   -1    0    0  501  502 -0.00000000000E+00 -0.00000000000E+00 -0.23366413734E+03  0.23366413734E+03  0.00000000000E+00 0. -1.
         25    1    1    2    0    0 -0.55603586663E+02  0.23333719583E+03  0.40111988484E+03  0.48379765173E+03  0.12500000000E+03 0.  0.
         21    1    1    2  503  502  0.55603586663E+02 -0.23333719583E+03 -0.11753267642E+03  0.26711783137E+03  0.00000000000E+00 0. -1.
<mgrwt>
<rscale>  3 0.27048661E+03</rscale>
<asrwt>0</asrwt>
<pdfrwt beam="1">  1       21 0.79577130E-01 0.27048661E+03</pdfrwt>
<pdfrwt beam="2">  1       21 0.35948329E-01 0.27048661E+03</pdfrwt>
<totfact> 0.99112033E+03</totfact>
</mgrwt>
</event>
<event>
 4    0  0.1255055E-001  0.4932700E+03  0.7546771E-02  0.1015551E+00
         21   -1    0    0  503  501  0.00000000000E+00  0.00000000000E+00  0.22721249735E+03  0.22721249735E+03  0.00000000000E+00 0. -1.
         21   -1    0    0  501  502 -0.00000000000E+00 -0.00000000000E+00 -0.11569158950E+04  0.11569158950E+04  0.00000000000E+00 0. -1.
         25    1    1    2    0    0  0.46279179286E+03 -0.11624980654E+03 -0.69528204468E+03  0.85248600148E+03  0.12500000000E+03 0.  0.
         21    1    1    2  503  502 -0.46279179286E+03  0.11624980654E+03 -0.23442135298E+03  0.53164239089E+03  0.00000000000E+00 0. -1.
<mgrwt>
<rscale>  3 0.49326997E+03</rscale>
<asrwt>0</asrwt>
<pdfrwt beam="1">  1       21 0.34955769E-01 0.49326997E+03</pdfrwt>
<pdfrwt beam="2">  1       21 0.17798706E+00 0.49326997E+03</pdfrwt>
<totfact> 0.12267229E+03</totfact>
</mgrwt>
</event>
<event>
 4    0  0.1206317E-001  0.3200115E+03  0.7546771E-02  0.1075644E+00
         21   -1    0    0  503  501  0.00000000000E+00  0.00000000000E+00  0.21478182443E+03  0.21478182443E+03  0.00000000000E+00 0.  1.
         21   -1    0    0  501  502 -0.00000000000E+00 -0.00000000000E+00 -0.10082393601E+04  0.10082393601E+04  0.00000000000E+00 0.  1.
         25    1    1    2    0    0 -0.48297782464E+02  0.29060222648E+03 -0.86292624403E+03  0.92035266744E+03  0.12500000000E+03 0.  0.
         21    1    1    2  503  502  0.48297782464E+02 -0.29060222648E+03  0.69468708319E+02  0.30266851713E+03  0.00000000000E+00 0.  1.
<mgrwt>
<rscale>  3 0.32001145E+03</rscale>
<asrwt>0</asrwt>
<pdfrwt beam="1">  1       21 0.33043358E-01 0.32001145E+03</pdfrwt>
<pdfrwt beam="2">  1       21 0.15511375E+00 0.32001145E+03</pdfrwt>
<totfact> 0.21954238E+03</totfact>
</mgrwt>
</event>
<event>
 4    0  0.1005289E-001  0.2602538E+03  0.7546771E-02  0.1106991E+00
         21   -1    0    0  503  501  0.00000000000E+00  0.00000000000E+00  0.11429740670E+03  0.11429740670E+03  0.00000000000E+00 0.  1.
         21   -1    0    0  501  502 -0.00000000000E+00 -0.00000000000E+00 -0.59196929892E+03  0.59196929892E+03  0.00000000000E+00 0. -1.
         25    1    1    2    0    0 -0.22624070235E+03  0.30367390903E+02 -0.37379767603E+03  0.45547418855E+03  0.12500000000E+03 0.  0.
         21    1    1    2  503  502  0.22624070235E+03 -0.30367390903E+02 -0.10387421619E+03  0.25079251707E+03  0.00000000000E+00 0.  1.
<mgrwt>
<rscale>  3 0.26025379E+03</rscale>
<asrwt>0</asrwt>
<pdfrwt beam="1">  1       21 0.17584216E-01 0.26025379E+03</pdfrwt>
<pdfrwt beam="2">  1       21 0.91072202E-01 0.26025379E+03</pdfrwt>
<totfact> 0.28951888E+04</totfact>
</mgrwt>
</event>
<event>
 4    0  0.1216601E-001  0.2674014E+03  0.7546771E-02  0.1102776E+00
         21   -1    0    0  503  501  0.00000000000E+00  0.00000000000E+00  0.90667803126E+03  0.90667803126E+03  0.00000000000E+00 0. -1.
         21   -1    0    0  501  502 -0.00000000000E+00 -0.00000000000E+00 -0.10858910630E+03  0.10858910630E+03  0.00000000000E+00 0. -1.
         25    1    1    2    0    0  0.15803280597E+03  0.17579575155E+03  0.11255898671E+03  0.29012590287E+03  0.12500000000E+03 0.  0.
         21    1    1    2  503  502 -0.15803280597E+03 -0.17579575155E+03  0.68552993824E+03  0.72514123469E+03  0.00000000000E+00 0. -1.
<mgrwt>
<rscale>  3 0.26740141E+03</rscale>
<asrwt>0</asrwt>
<pdfrwt beam="1">  1       21 0.13948892E+00 0.26740141E+03</pdfrwt>
<pdfrwt beam="2">  1       21 0.16706017E-01 0.26740141E+03</pdfrwt>
<totfact> 0.11095778E+04</totfact>
</mgrwt>
</event>
<event>
 4    0  0.1245492E-001  0.2509165E+03  0.7546771E-02  0.1112727E+00
         21   -1    0    0  502  501  0.00000000000E+00  0.00000000000E+00  0.10727759943E+03  0.10727759943E+03  0.00000000000E+00 0.  1.
         21   -1    0    0  503  502 -0.00000000000E+00 -0.00000000000E+00 -0.55920367561E+03  0.55920367561E+03  0.00000000000E+00 0.  1.
         25    1    1    2    0    0  0.61803779578E+02  0.20860102286E+03 -0.14353409761E+03  0.28906942261E+03  0.12500000000E+03 0.  0.
         21    1    1    2  503  501 -0.61803779578E+02 -0.20860102286E+03 -0.30839197858E+03  0.37741185244E+03  0.00000000000E+00 0.  1.
<mgrwt>
<rscale>  3 0.25091651E+03</rscale>
<asrwt>0</asrwt>
<pdfrwt beam="1">  1       21 0.16504246E-01 0.25091651E+03</pdfrwt>
<pdfrwt beam="2">  1       21 0.86031336E-01 0.25091651E+03</pdfrwt>
<totfact> 0.37318766E+04</totfact>
</mgrwt>
</event>
<event>
 4    0  0.1201982E-001  0.2445427E+03  0.7546771E-02  0.1116803E+00
         21   -1    0    0  502  501  0.00000000000E+00  0.00000000000E+00  0.10170683791E+03  0.10170683791E+03  0.00000000000E+00 0.  1.
         21   -1    0    0  503  502 -0.00000000000E+00 -0.00000000000E+00 -0.96812900010E+03  0.96812900010E+03  0.00000000000E+00 0. -1.
         25    1    1    2    0    0 -0.10798293093E+03 -0.18032137773E+03 -0.81851428227E+03  0.85426386024E+03  0.12500000000E+03 0.  0.
         21    1    1    2  503  501  0.10798293093E+03  0.18032137773E+03 -0.47907879916E+02  0.21557197776E+03  0.00000000000E+00 0.  1.
<mgrwt>
<rscale>  3 0.24454266E+03</rscale>
<asrwt>0</asrwt>
<pdfrwt beam="1">  1       21 0.15647206E-01 0.24454266E+03</pdfrwt>
<pdfrwt beam="2">  1       21 0.14894292E+00 0.24454266E+03</pdfrwt>
<totfact> 0.10674125E+04</totfact>
</mgrwt>
</event>
<event>
 4    0  0.1005289E-001  0.3560208E+03  0.7546771E-02  0.1060171E+00
         21   -1    0    0  503  501  0.00000000000E+00  0.00000000000E+00  0.11203121794E+04  0.11203121794E+04  0.00000000000E+00 0.  1.
         21   -1    0    0  501  502 -0.00000000000E+00 -0.00000000000E+00 -0.24374934240E+03  0.24374934240E+03  0.00000000000E+00 0.  1.
         25    1    1    2    0    0  0.27151944375E+03 -0.19339860367E+03 -0.67950336484E+02  0.36244734303E+03  0.12500000000E+03 0.  0.
         21    1    1    2  503  502 -0.27151944375E+03  0.19339860367E+03  0.94451317353E+03  0.10016141788E+04  0.00000000000E+00 0.  1.
<mgrwt>
<rscale>  3 0.35602083E+03</rscale>
<asrwt>0</asrwt>
<pdfrwt beam="1">  1       21 0.17235572E+00 0.35602083E+03</pdfrwt>
<pdfrwt beam="2">  1       21 0.37499899E-01 0.35602083E+03</pdfrwt>
<totfact> 0.12442638E+03</totfact>
</mgrwt>
</event>
<event>
 4    0  0.1420576E-001  0.2423165E+03  0.7546771E-02  0.1118259E+00
         21   -1    0    0  503  501  0.00000000000E+00  0.00000000000E+00  0.28509609808E+03  0.28509609808E+03  0.00000000000E+00 0.  1.
         21   -1    0    0  501  502 -0.00000000000E+00 -0.00000000000E+00 -0.26331976395E+03  0.26331976395E+03  0.00000000000E+00 0.  1.
         25    1    1    2    0    0  0.16559088675E+03  0.12518760619E+03 -0.14477716082E+03  0.28227239471E+03  0.12500000000E+03 0.  0.
         21    1    1    2  503  502 -0.16559088675E+03 -0.12518760619E+03  0.16655349495E+03  0.26614346732E+03  0.00000000000E+00 0.  1.
<mgrwt>
<rscale>  3 0.24231648E+03</rscale>
<asrwt>0</asrwt>
<pdfrwt beam="1">  1       21 0.43860938E-01 0.24231648E+03</pdfrwt>
<pdfrwt beam="2">  1       21 0.40510733E-01 0.24231648E+03</pdfrwt>
<totfact> 0.28583031E+04</totfact>
</mgrwt>
</event>
<event>
 4    0  0.1551617E-001  0.3306756E+03  0.7546771E-02  0.1070838E+00
         21   -1    0    0  502  501  0.00000000000E+00  0.00000000000E+00  0.65765760934E+03  0.65765760934E+03  0.00000000000E+00 0. -1.
         21   -1    0    0  503  502 -0.00000000000E+00 -0.00000000000E+00 -0.16190252991E+03  0.16190252991E+03  0.00000000000E+00 0. -1.
         25    1    1    2    0    0 -0.36710819203E+02 -0.30393037336E+03  0.16741272371E+03  0.37063914547E+03  0.12500000000E+03 0.  0.
         21    1    1    2  503  501  0.36710819203E+02  0.30393037336E+03  0.32834235571E+03  0.44892099377E+03  0.00000000000E+00 0. -1.
<mgrwt>
<rscale>  3 0.33067561E+03</rscale>
<asrwt>0</asrwt>
<pdfrwt beam="1">  1       21 0.10117809E+00 0.33067561E+03</pdfrwt>
<pdfrwt beam="2">  1       21 0.24908082E-01 0.33067561E+03</pdfrwt>
<totfact> 0.11312527E+04</totfact>
</mgrwt>
</event>
<event>
 4    0  0.1191004E-001  0.3586748E+03  0.7546771E-02  0.1059110E+00
         21   -1    0    0  503  501  0.00000000000E+00  0.00000000000E+00  0.15591258459E+03  0.15591258459E+03  0.00000000000E+00 0. -1.
         21   -1    0    0  501  502 -0.00000000000E+00 -0.00000000000E+00 -0.11726251122E+04  0.11726251122E+04  0.00000000000E+00 0. -1.
         25    1    1    2    0    0 -0.43901718571E+02 -0.33330954394E+03 -0.90628220153E+03  0.97467689097E+03  0.12500000000E+03 0.  0.
         21    1    1    2  503  502  0.43901718571E+02  0.33330954394E+03 -0.11043032605E+03  0.35386080580E+03  0.00000000000E+00 0. -1.
<mgrwt>
<rscale>  3 0.35867480E+03</rscale>
<asrwt>0</asrwt>
<pdfrwt beam="1">  1       21 0.23986551E-01 0.35867480E+03</pdfrwt>
<pdfrwt beam="2">  1       21 0.18040387E+00 0.35867480E+03</pdfrwt>
<totfact> 0.26375324E+03</totfact>
</mgrwt>
</event>
<event>
 4    0  0.1317527E-001  0.2746491E+03  0.7546771E-02  0.1098648E+00
         21   -1    0    0  502  501  0.00000000000E+00  0.00000000000E+00  0.49850038355E+02  0.49850038355E+02  0.00000000000E+00 0. -1.
         21   -1    0    0  503  502 -0.00000000000E+00 -0.00000000000E+00 -0.14089738014E+04  0.14089738014E+04  0.00000000000E+00 0. -1.
         25    1    1    2    0    0  0.21743015054E+03  0.11194321052E+03 -0.86389849557E+03  0.90650579888E+03  0.12500000000E+03 0.  0.
         21    1    1    2  503  501 -0.21743015054E+03 -0.11194321052E+03 -0.49522526752E+03  0.55231804093E+03  0.00000000000E+00 0. -1.
<mgrwt>
<rscale>  3 0.27464914E+03</rscale>
<asrwt>0</asrwt>
<pdfrwt beam="1">  1       21 0.76692374E-02 0.27464914E+03</pdfrwt>
<pdfrwt beam="2">  1       21 0.21676518E+00 0.27464914E+03</pdfrwt>
<totfact> 0.12817877E+04</totfact>
</mgrwt>
</event>
<event>
 4    0  0.1170146E-001  0.2749963E+03  0.7546771E-02  0.1098454E+00
         21   -1    0    0  503  501  0.00000000000E+00  0.00000000000E+00  0.60777092829E+03  0.60777092829E+03  0.00000000000E+00 0. -1.
         21   -1    0    0  501  502 -0.00000000000E+00 -0.00000000000E+00 -0.20756810324E+03  0.20756810324E+03  0.00000000000E+00 0. -1.
         25    1    1    2    0    0  0.15333359899E+03  0.19101517425E+03 -0.71228456019E+02  0.28407126275E+03  0.12500000000E+03 0.  0.
         21    1    1    2  503  502 -0.15333359899E+03 -0.19101517425E+03  0.47143128106E+03  0.53126776878E+03  0.00000000000E+00 0. -1.
<mgrwt>
<rscale>  3 0.27499634E+03</rscale>
<asrwt>0</asrwt>
<pdfrwt beam="1">  1       21 0.93503219E-01 0.27499634E+03</pdfrwt>
<pdfrwt beam="2">  1       21 0.31933554E-01 0.27499634E+03</pdfrwt>
<totfact> 0.86172056E+03</totfact>
</mgrwt>
</event>
<event>
 4    0  0.1005289E-001  0.3222636E+03  0.7546771E-02  0.1074612E+00
         21   -1    0    0  502  501  0.00000000000E+00  0.00000000000E+00  0.47451755667E+03  0.47451755667E+03  0.00000000000E+00 0. -1.
         21   -1    0    0  503  502 -0.00000000000E+00 -0.00000000000E+00 -0.26066677697E+03  0.26066677697E+03  0.00000000000E+00 0.  1.
         25    1    1    2    0    0 -0.27113402281E+03  0.12130616696E+03 -0.63881927033E+02  0.32853423729E+03  0.12500000000E+03 0.  0.
         21    1    1    2  503  501  0.27113402281E+03 -0.12130616696E+03  0.27773270673E+03  0.40665009635E+03  0.00000000000E+00 0. -1.
<mgrwt>
<rscale>  3 0.32226363E+03</rscale>
<asrwt>0</asrwt>
<pdfrwt beam="1">  1       21 0.73002701E-01 0.32226363E+03</pdfrwt>
<pdfrwt beam="2">  1       21 0.40102581E-01 0.32226363E+03</pdfrwt>
<totfact> 0.94249745E+03</totfact>
</mgrwt>
</event>
<event>
 4    0  0.1303978E-001  0.4369813E+03  0.7546771E-02  0.1031677E+00
         21   -1    0    0  503  501  0.00000000000E+00  0.00000000000E+00  0.78774107600E+03  0.78774107600E+03  0.00000000000E+00 0. -1.
         21   -1    0    0  501  502 -0.00000000000E+00 -0.00000000000E+00 -0.23253834178E+03  0.23253834178E+03  0.00000000000E+00 0. -1.
         25    1    1    2    0    0  0.35382192243E+03 -0.22391443059E+03  0.27029243629E+03  0.51381964358E+03  0.12500000000E+03 0.  0.
         21    1    1    2  503  502 -0.35382192243E+03  0.22391443059E+03  0.28491029793E+03  0.50645977420E+03  0.00000000000E+00 0. -1.
<mgrwt>
<rscale>  3 0.43698126E+03</rscale>
<asrwt>0</asrwt>
<pdfrwt beam="1">  1       21 0.12119093E+00 0.43698126E+03</pdfrwt>
<pdfrwt beam="2">  1       21 0.35775130E-01 0.43698126E+03</pdfrwt>
<totfact> 0.33907352E+03</totfact>
</mgrwt>
</event>
<event>
 4    0  0.1354897E-001  0.2485936E+03  0.7546771E-02  0.1114197E+00
         21   -1    0    0  502  501  0.00000000000E+00  0.00000000000E+00  0.63571427337E+02  0.63571427337E+02  0.00000000000E+00 0.  1.
         21   -1    0    0  503  502 -0.00000000000E+00 -0.00000000000E+00 -0.90914816586E+03  0.90914816586E+03  0.00000000000E+00 0.  1.
         25    1    1    2    0    0  0.12819440971E+03  0.17245274460E+03 -0.58048491847E+03  0.63147564986E+03  0.12500000000E+03 0.  0.
         21    1    1    2  503  501 -0.12819440971E+03 -0.17245274460E+03 -0.26509182005E+03  0.34124394333E+03  0.00000000000E+00 0.  1.
<mgrwt>
<rscale>  3 0.24859356E+03</rscale>
<asrwt>0</asrwt>
<pdfrwt beam="1">  1       21 0.97802197E-02 0.24859356E+03</pdfrwt>
<pdfrwt beam="2">  1       21 0.13986895E+00 0.24859356E+03</pdfrwt>
<totfact> 0.29335270E+04</totfact>
</mgrwt>
</event>
<event>
 4    0  0.1005289E-001  0.2645583E+03  0.7546771E-02  0.1104435E+00
         21   -1    0    0  503  501  0.00000000000E+00  0.00000000000E+00  0.35180915157E+03  0.35180915157E+03  0.00000000000E+00 0.  1.
         21   -1    0    0  501  502 -0.00000000000E+00 -0.00000000000E+00 -0.19684823569E+03  0.19684823569E+03  0.00000000000E+00 0. -1.
         25    1    1    2    0    0 -0.47631083209E+02 -0.22824849863E+03 -0.71834552574E+01  0.26465581279E+03  0.12500000000E+03 0.  0.
         21    1    1    2  503  502  0.47631083209E+02  0.22824849863E+03  0.16214437113E+03  0.28400157447E+03  0.00000000000E+00 0.  1.
<mgrwt>
<rscale>  3 0.26455831E+03</rscale>
<asrwt>0</asrwt>
<pdfrwt beam="1">  1       21 0.54124485E-01 0.26455831E+03</pdfrwt>
<pdfrwt beam="2">  1       21 0.30284344E-01 0.26455831E+03</pdfrwt>
<totfact> 0.32619378E+04</totfact>
</mgrwt>
</event>
<event>
 4    0  0.1121209E-001  0.2485819E+03  0.7546771E-02  0.1114204E+00
         21   -1    0    0  503  501  0.00000000000E+00  0.00000000000E+00  0.11215373340E+03  0.11215373340E+03  0.00000000000E+00 0. -1.
         21   -1    0    0  501  502 -0.00000000000E+00 -0.00000000000E+00 -0.10784455343E+04  0.10784455343E+04  0.00000000000E+00 0. -1.
         25    1    1    2    0    0  0.86353087800E+02 -0.19675137620E+03 -0.94213604144E+03  0.97437840719E+03  0.12500000000E+03 0.  0.
         21    1    1    2  503  502 -0.86353087800E+02  0.19675137620E+03 -0.24155759476E+02  0.21622086053E+03  0.00000000000E+00 0. -1.
<mgrwt>
<rscale>  3 0.24858190E+03</rscale>
<asrwt>0</asrwt>
<pdfrwt beam="1">  1       21 0.17254420E-01 0.24858190E+03</pdfrwt>
<pdfrwt beam="2">  1       21 0.16591470E+00 0.24858190E+03</pdfrwt>
<totfact> 0.66394672E+03</totfact>
</mgrwt>
</event>
<event>
 4    0  0.1181330E-001  0.4297915E+03  0.7546771E-02  0.1033926E+00
         21   -1    0    0  502  501  0.00000000000E+00  0.00000000000E+00  0.86002191952E+03  0.86002191952E+03  0.00000000000E+00 0.  1.
         21   -1    0    0  503  502 -0.00000000000E+00 -0.00000000000E+00 -0.28835489745E+03  0.28835489745E+03  0.00000000000E+00 0.  1.
         25    1    1    2    0    0 -0.32070386529E+03  0.25738049924E+03 -0.17208548244E+02  0.43013582126E+03  0.12500000000E+03 0.  0.
         21    1    1    2  503  501  0.32070386529E+03 -0.25738049924E+03  0.58887557031E+03  0.71824099570E+03  0.00000000000E+00 0.  1.
<mgrwt>
<rscale>  3 0.42979145E+03</rscale>
<asrwt>0</asrwt>
<pdfrwt beam="1">  1       21 0.13231106E+00 0.42979145E+03</pdfrwt>
<pdfrwt beam="2">  1       21 0.44362292E-01 0.42979145E+03</pdfrwt>
<totfact> 0.17419860E+03</totfact>
</mgrwt>
</event>
<event>
 4    0  0.1271966E-001  0.2699397E+03  0.7546771E-02  0.1101314E+00
         21   -1    0    0  502  501  0.00000000000E+00  0.00000000000E+00  0.12701254086E+03  0.12701254086E+03  0.00000000000E+00 0.  1.
         21   -1    0    0  503  502 -0.00000000000E+00 -0.00000000000E+00 -0.80898308662E+03  0.80898308662E+03  0.00000000000E+00 0.  1.
         25    1    1    2    0    0  0.38701516450E+02 -0.23610296303E+03 -0.63797084257E+03  0.69272953777E+03  0.12500000000E+03 0.  0.
         21    1    1    2  503  501 -0.38701516450E+02  0.23610296303E+03 -0.43999703192E+02  0.24326608972E+03  0.00000000000E+00 0.  1.
<mgrwt>
<rscale>  3 0.26993965E+03</rscale>
<asrwt>0</asrwt>
<pdfrwt beam="1">  1       21 0.19540392E-01 0.26993965E+03</pdfrwt>
<pdfrwt beam="2">  1       21 0.12445893E+00 0.26993965E+03</pdfrwt>
<totfact> 0.11081775E+04</totfact>
</mgrwt>
</event>
<event>
 4    0  0.1005289E-001  0.2589487E+03  0.7546771E-02  0.1107777E+00
         21   -1    0    0  503  501  0.00000000000E+00  0.00000000000E+00  0.77055375116E+03  0.77055375116E+03  0.00000000000E+00 0. -1.
         21   -1    0    0  501  502 -0.00000000000E+00 -0.00000000000E+00 -0.10877007892E+03  0.10877007892E+03  0.00000000000E+00 0. -1.
         25    1    1    2    0    0 -0.14524043775E+03  0.17416842254E+03  0.58524840019E+03  0.63997665120E+03  0.12500000000E+03 0.  0.
         21    1    1    2  503  502  0.14524043775E+03 -0.17416842254E+03  0.76535272055E+02  0.23934717887E+03  0.00000000000E+00 0. -1.
<mgrwt>
<rscale>  3 0.25894869E+03</rscale>
<asrwt>0</asrwt>
<pdfrwt beam="1">  1       21 0.11854673E+00 0.25894869E+03</pdfrwt>
<pdfrwt beam="2">  1       21 0.16733859E-01 0.25894869E+03</pdfrwt>
<totfact> 0.16815130E+04</totfact>
</mgrwt>
</event>
<event>
 4    0  0.1753886E-001  0.3194999E+03  0.7546771E-02  0.1075880E+00
         21   -1    0    0  503  501  0.00000000000E+00  0.00000000000E+00  0.11009632296E+04  0.11009632296E+04  0.00000000000E+00 0. -1.
         21   -1    0    0  501  502 -0.00000000000E+00 -0.00000000000E+00 -0.53057618278E+03  0.53057618278E+03  0.00000000000E+00 0.  1.
         25    1    1    2    0    0 -0.22413155782E+03  0.19031611838E+03 -0.45997138266E+03  0.56004808096E+03  0.12500000000E+03 0.  0.
         21    1    1    2  503  502  0.22413155782E+03 -0.19031611838E+03  0.10303584295E+04  0.10714913315E+04  0.00000000000E+00 0. -1.
<mgrwt>
<rscale>  3 0.31949989E+03</rscale>
<asrwt>0</asrwt>
<pdfrwt beam="1">  1       21 0.16937896E+00 0.31949989E+03</pdfrwt>
<pdfrwt beam="2">  1       21 0.81627105E-01 0.31949989E+03</pdfrwt>
<totfact> 0.25056138E+02</totfact>
</mgrwt>
</event>
<event>
 4    0  0.1552767E-001  0.3114530E+03  0.7546771E-02  0.1079652E+00
         21   -1    0    0  502  501  0.00000000000E+00  0.00000000000E+00  0.45502237101E+03  0.45502237101E+03  0.00000000000E+00 0.  1.
         21   -1    0    0  503  502 -0.00000000000E+00 -0.00000000000E+00 -0.23726746883E+03  0.23726746883E+03  0.00000000000E+00 0.  1.
         25    1    1    2    0    0 -0.25016376970E+03  0.13709874646E+03 -0.32060738320E+02  0.31309881650E+03  0.12500000000E+03 0.  0.
         21    1    1    2  503  501  0.25016376970E+03 -0.13709874646E+03  0.24981564049E+03  0.37919102334E+03  0.00000000000E+00 0.  1.
<mgrwt>
<rscale>  3 0.31145301E+03</rscale>
<asrwt>0</asrwt>
<pdfrwt beam="1">  1       21 0.70003442E-01 0.31145301E+03</pdfrwt>
<pdfrwt beam="2">  1       21 0.36502688E-01 0.31145301E+03</pdfrwt>
<totfact> 0.12591782E+04</totfact>
</mgrwt>
</event>
<event>
 4    0  0.1005289E-001  0.2475209E+03  0.7546771E-02  0.1114882E+00
         21   -1    0    0  502  501  0.00000000000E+00  0.00000000000E+00  0.14661758168E+04  0.14661758168E+04  0.00000000000E+00 0.  1.
         21   -1    0    0  503  502 -0.00000000000E+00 -0.00000000000E+00 -0.44588761854E+02  0.44588761854E+02  0.00000000000E+00 0. -1.
         25    1    1    2    0    0  0.88704509308E+02  0.19435304783E+03  0.42755865553E+03  0.49403744907E+03  0.12500000000E+03 0.  0.
         21    1    1    2  503  501 -0.88704509308E+02 -0.19435304783E+03  0.99402839939E+03  0.10167271295E+04  0.00000000000E+00 0.  1.
<mgrwt>
<rscale>  3 0.24752090E+03</rscale>
<asrwt>0</asrwt>
<pdfrwt beam="1">  1       21 0.22556547E+00 0.24752090E+03</pdfrwt>
<pdfrwt beam="2">  1       21 0.68598106E-02 0.24752090E+03</pdfrwt>
<totfact> 0.13966720E+04</totfact>
</mgrwt>
</event>
<event>
 4    0  0.1024924E-001  0.2391643E+03  0.7546771E-02  0.1120351E+00
         21   -1    0    0  502  501  0.00000000000E+00  0.00000000000E+00  0.11168983702E+03  0.11168983702E+03  0.00000000000E+00 0.  1.
         21   -1    0    0  503  502 -0.00000000000E+00 -0.00000000000E+00 -0.55755845443E+03  0.55755845443E+03  0.00000000000E+00 0.  1.
         25    1    1    2    0    0  0.17759111342E+03  0.10017963741E+03 -0.83257340479E+02  0.25324167916E+03  0.12500000000E+03 0.  0.
         21    1    1    2  503  501 -0.17759111342E+03 -0.10017963741E+03 -0.36261127693E+03  0.41600661230E+03  0.00000000000E+00 0.  1.
<mgrwt>
<rscale>  3 0.23916430E+03</rscale>
<asrwt>0</asrwt>
<pdfrwt beam="1">  1       21 0.17183052E-01 0.23916430E+03</pdfrwt>
<pdfrwt beam="2">  1       21 0.85778223E-01 0.23916430E+03</pdfrwt>
<totfact> 0.35057659E+04</totfact>
</mgrwt>
</event>
<event>
 4    0  0.1195214E-001  0.3023385E+03  0.7546771E-02  0.1084077E+00
         21   -1    0    0  502  501  0.00000000000E+00  0.00000000000E+00  0.66455858791E+02  0.66455858791E+02  0.00000000000E+00 0.  1.
         21   -1    0    0  503  502 -0.00000000000E+00 -0.00000000000E+00 -0.12885890496E+04  0.12885890496E+04  0.00000000000E+00 0.  1.
         25    1    1    2    0    0  0.15691131225E+03  0.22619115259E+03 -0.74793955444E+03  0.80673550468E+03  0.12500000000E+03 0.  0.
         21    1    1    2  503  501 -0.15691131225E+03 -0.22619115259E+03 -0.47419363638E+03  0.54830940371E+03  0.00000000000E+00 0.  1.
<mgrwt>
<rscale>  3 0.30233855E+03</rscale>
<asrwt>0</asrwt>
<pdfrwt beam="1">  1       21 0.10223979E-01 0.30233855E+03</pdfrwt>
<pdfrwt beam="2">  1       21 0.19824446E+00 0.30233855E+03</pdfrwt>
<totfact> 0.99830683E+03</totfact>
</mgrwt>
</event>
<event>
 4    0  0.1306364E-001  0.3668744E+03  0.7546771E-02  0.1055895E+00
         21   -1    0    0  502  501  0.00000000000E+00  0.00000000000E+00  0.52175657894E+03  0.52175657894E+03  0.00000000000E+00 0.  1.
         21   -1    0    0  503  502 -0.00000000000E+00 -0.00000000000E+00 -0.42365786980E+03  0.42365786980E+03  0.00000000000E+00 0.  1.
         25    1    1    2    0    0 -0.17818788606E+03  0.29533180556E+03 -0.25888428245E+03  0.44901878559E+03  0.12500000000E+03 0.  0.
         21    1    1    2  503  501  0.17818788606E+03 -0.29533180556E+03  0.35698299158E+03  0.49639566315E+03  0.00000000000E+00 0.  1.
<mgrwt>
<rscale>  3 0.36687436E+03</rscale>
<asrwt>0</asrwt>
<pdfrwt beam="1">  1       21 0.80270243E-01 0.36687436E+03</pdfrwt>
<pdfrwt beam="2">  1       21 0.65178134E-01 0.36687436E+03</pdfrwt>
<totfact> 0.26540560E+03</totfact>
</mgrwt>
</event>
<event>
 4    0  0.1005289E-001  0.2631323E+03  0.7546771E-02  0.1105276E+00
         21   -1    0    0  502  501  0.00000000000E+00  0.00000000000E+00  0.17848558586E+03  0.17848558586E+03  0.00000000000E+00 0.  1.
         21   -1    0    0  503  502 -0.00000000000E+00 -0.00000000000E+00 -0.38058120776E+03  0.38058120776E+03  0.00000000000E+00 0. -1.
         25    1    1    2    0    0  0.22591090779E+03  0.50772548940E+02 -0.19482419197E+03  0.32740656035E+03  0.12500000000E+03 0.  0.
         21    1    1    2  503  501 -0.22591090779E+03 -0.50772548940E+02 -0.72714299266E+01  0.23166023327E+03  0.00000000000E+00 0.  1.
<mgrwt>
<rscale>  3 0.26313227E+03</rscale>
<asrwt>0</asrwt>
<pdfrwt beam="1">  1       21 0.27459321E-01 0.26313227E+03</pdfrwt>
<pdfrwt beam="2">  1       21 0.58550955E-01 0.26313227E+03</pdfrwt>
<totfact> 0.33402986E+04</totfact>
</mgrwt>
</event>
<event>
 4    0  0.1169044E-001  0.2500674E+03  0.7546771E-02  0.1113262E+00
         21   -1    0    0  502  501  0.00000000000E+00  0.00000000000E+00  0.32973761797E+03  0.32973761797E+03  0.00000000000E+00 0.  1.
         21   -1    0    0  503  502 -0.00000000000E+00 -0.00000000000E+00 -0.60111812633E+03  0.60111812633E+03  0.00000000000E+00 0.  1.
         25    1    1    2    0    0 -0.21338040273E+03 -0.37115109105E+02 -0.53447414712E+03  0.59008163972E+03  0.12500000000E+03 0.  0.
         21    1    1    2  503  501  0.21338040273E+03  0.37115109105E+02  0.26309363876E+03  0.34077410458E+03  0.00000000000E+00 0.  1.
<mgrwt>
<rscale>  3 0.25006745E+03</rscale>
<asrwt>0</asrwt>
<pdfrwt beam="1">  1       21 0.50728865E-01 0.25006745E+03</pdfrwt>
<pdfrwt beam="2">  1       21 0.92479711E-01 0.25006745E+03</pdfrwt>
<totfact> 0.34930436E+03</totfact>
</mgrwt>
</event>
<event>
 4    0  0.1005289E-001  0.2809586E+03  0.7546771E-02  0.1095167E+00
         21   -1    0    0  503  501  0.00000000000E+00  0.00000000000E+00  0.39236982989E+03  0.39236982989E+03  0.00000000000E+00 0. -1.
         21   -1    0    0  501  502 -0.00000000000E+00 -0.00000000000E+00 -0.25543515591E+03  0.25543515591E+03  0.00000000000E+00 0.  1.
         25    1    1    2    0    0 -0.25026123593E+03 -0.26116053297E+02 -0.10385059536E+03  0.29953744441E+03  0.12500000000E+03 0.  0.
         21    1    1    2  503  502  0.25026123593E+03  0.26116053297E+02  0.24078526934E+03  0.34826754138E+03  0.00000000000E+00 0. -1.
<mgrwt>
<rscale>  3 0.28095860E+03</rscale>
<asrwt>0</asrwt>
<pdfrwt beam="1">  1       21 0.60364589E-01 0.28095860E+03</pdfrwt>
<pdfrwt beam="2">  1       21 0.39297716E-01 0.28095860E+03</pdfrwt>
<totfact> 0.15222538E+04</totfact>
</mgrwt>
</event>
<event>
 4    0  0.1137812E-001  0.3406013E+03  0.7546771E-02  0.1066540E+00
         21   -1    0    0  502  501  0.00000000000E+00  0.00000000000E+00  0.10412623531E+04  0.10412623531E+04  0.00000000000E+00 0.  1.
         21   -1    0    0  503  502 -0.00000000000E+00 -0.00000000000E+00 -0.15625119230E+03  0.15625119230E+03  0.00000000000E+00 0.  1.
         25    1    1    2    0    0  0.19993397876E+03  0.24578580273E+03  0.10628338049E+03  0.35679884201E+03  0.12500000000E+03 0.  0.
         21    1    1    2  503  501 -0.19993397876E+03 -0.24578580273E+03  0.77872778030E+03  0.84071470339E+03  0.00000000000E+00 0.  1.
<mgrwt>
<rscale>  3 0.34060132E+03</rscale>
<asrwt>0</asrwt>
<pdfrwt beam="1">  1       21 0.16019420E+00 0.34060132E+03</pdfrwt>
<pdfrwt beam="2">  1       21 0.24038646E-01 0.34060132E+03</pdfrwt>
<totfact> 0.37075001E+03</totfact>
</mgrwt>
</event>
<event>
 4    0  0.1090208E-001  0.2896694E+03  0.7546771E-02  0.1090522E+00
         21   -1    0    0  503  501  0.00000000000E+00  0.00000000000E+00  0.29465980237E+03  0.29465980237E+03  0.00000000000E+00 0. -1.
         21   -1    0    0  501  502 -0.00000000000E+00 -0.00000000000E+00 -0.84694517971E+03  0.84694517971E+03  0.00000000000E+00 0. -1.
         25    1    1    2    0    0 -0.15312691045E+02  0.26086179499E+03 -0.75643550050E+03  0.81000186482E+03  0.12500000000E+03 0.  0.
         21    1    1    2  503  502  0.15312691045E+02 -0.26086179499E+03  0.20415012316E+03  0.33160311726E+03  0.00000000000E+00 0. -1.
<mgrwt>
<rscale>  3 0.28966939E+03</rscale>
<asrwt>0</asrwt>
<pdfrwt beam="1">  1       21 0.45332278E-01 0.28966939E+03</pdfrwt>
<pdfrwt beam="2">  1       21 0.13029926E+00 0.28966939E+03</pdfrwt>
<totfact> 0.18603153E+03</totfact>
</mgrwt>
</event>
<event>
 4    0  0.1390133E-001  0.2421767E+03  0.7546771E-02  0.1118351E+00
         21   -1    0    0  502  501  0.00000000000E+00  0.00000000000E+00  0.98449169047E+03  0.98449169047E+03  0.00000000000E+00 0. -1.
         21   -1    0    0  503  502 -0.00000000000E+00 -0.00000000000E+00 -0.52912186863E+02  0.52912186863E+02  0.00000000000E+00 0. -1.
         25    1    1    2    0    0 -0.11076359587E+03  0.17537387794E+03  0.41131718164E+03  0.47731687080E+03  0.12500000000E+03 0.  0.
         21    1    1    2  503  501  0.11076359587E+03 -0.17537387794E+03  0.52026232196E+03  0.56008700653E+03  0.00000000000E+00 0. -1.
<mgrwt>
<rscale>  3 0.24217674E+03</rscale>
<asrwt>0</asrwt>
<pdfrwt beam="1">  1       21 0.15146025E+00 0.24217674E+03</pdfrwt>
<pdfrwt beam="2">  1       21 0.81403371E-02 0.24217674E+03</pdfrwt>
<totfact> 0.32974257E+04</totfact>
</mgrwt>
</event>
<event>
 4    0  0.1551210E-001  0.2447828E+03  0.7546771E-02  0.1116647E+00
         21   -1    0    0  503  501  0.00000000000E+00  0.00000000000E+00  0.27656918326E+03  0.27656918326E+03  0.00000000000E+00 0. -1.
         21   -1    0    0  501  502 -0.00000000000E+00 -0.00000000000E+00 -0.19165688278E+03  0.19165688278E+03  0.00000000000E+00 0. -1.
         25    1    1    2    0    0  0.16944862375E+03 -0.12482292113E+03  0.10534076871E+02  0.24500931514E+03  0.12500000000E+03 0.  0.
         21    1    1    2  503  502 -0.16944862375E+03  0.12482292113E+03  0.74378223609E+02  0.22321675089E+03  0.00000000000E+00 0. -1.
<mgrwt>
<rscale>  3 0.24478276E+03</rscale>
<asrwt>0</asrwt>
<pdfrwt beam="1">  1       21 0.42549105E-01 0.24478276E+03</pdfrwt>
<pdfrwt beam="2">  1       21 0.29485674E-01 0.24478276E+03</pdfrwt>
<totfact> 0.57254582E+04</totfact>
</mgrwt>
</event>
<event>
 4    0  0.1005289E-001  0.2444581E+03  0.7546771E-02  0.1116858E+00
         21   -1    0    0  502  501  0.00000000000E+00  0.00000000000E+00  0.19585040567E+04  0.19585040567E+04  0.00000000000E+00 0.  1.
         21   -1    0    0  503  502 -0.00000000000E+00 -0.00000000000E+00 -0.66194194523E+02  0.66194194523E+02  0.00000000000E+00 0.  1.
         25    1    1    2    0    0 -0.19650301724E+03 -0.74305488072E+02  0.19036482621E+03  0.30983626062E+03  0.12500000000E+03 0.  0.
         21    1    1    2  503  501  0.19650301724E+03  0.74305488072E+02  0.17019450360E+04  0.17148619906E+04  0.00000000000E+00 0.  1.
<mgrwt>
<rscale>  3 0.24445806E+03</rscale>
<asrwt>0</asrwt>
<pdfrwt beam="1">  1       21 0.30130827E+00 0.24445806E+03</pdfrwt>
<pdfrwt beam="2">  1       21 0.10183724E-01 0.24445806E+03</pdfrwt>
<totfact> 0.24887155E+03</totfact>
</mgrwt>
</event>
<event>
 4    0  0.1005289E-001  0.2644126E+03  0.7546771E-02  0.1104521E+00
         21   -1    0    0  502  501  0.00000000000E+00  0.00000000000E+00  0.32785761544E+04  0.32785761544E+04  0.00000000000E+00 0. -1.
         21   -1    0    0  503  502 -0.00000000000E+00 -0.00000000000E+00 -0.30218235036E+02  0.30218235036E+02  0.00000000000E+00 0.  1.
         25    1    1    2    0    0  0.17482521979E+03  0.15402978456E+03  0.67547853039E+03  0.72538629503E+03  0.12500000000E+03 0.  0.
         21    1    1    2  503  501 -0.17482521979E+03 -0.15402978456E+03  0.25728793890E+04  0.25834080944E+04  0.00000000000E+00 0. -1.
<mgrwt>
<rscale>  3 0.26441262E+03</rscale>
<asrwt>0</asrwt>
<pdfrwt beam="1">  1       21 0.50439605E+00 0.26441262E+03</pdfrwt>
<pdfrwt beam="2">  1       21 0.46489618E-02 0.26441262E+03</pdfrwt>
<totfact> 0.48463210E+02</totfact>
</mgrwt>
</event>
<event>
 4    0  0.1692323E-001  0.2637014E+03  0.7546771E-02  0.1104940E+00
         21   -1    0    0  503  501  0.00000000000E+00  0.00000000000E+00  0.15188889381E+03  0.15188889381E+03  0.00000000000E+00 0.  1.
         21   -1    0    0  501  502 -0.00000000000E+00 -0.00000000000E+00 -0.48901908364E+03  0.48901908364E+03  0.00000000000E+00 0.  1.
         25    1    1    2    0    0  0.15856662883E+03 -0.16961739933E+03 -0.31023003629E+03  0.40716226906E+03  0.12500000000E+03 0.  0.
         21    1    1    2  503  502 -0.15856662883E+03  0.16961739933E+03 -0.26900153538E+02  0.23374570839E+03  0.00000000000E+00 0.  1.
<mgrwt>
<rscale>  3 0.26370142E+03</rscale>
<asrwt>0</asrwt>
<pdfrwt beam="1">  1       21 0.23367522E-01 0.26370142E+03</pdfrwt>
<pdfrwt beam="2">  1       21 0.75233705E-01 0.26370142E+03</pdfrwt>
<totfact> 0.26232294E+04</totfact>
</mgrwt>
</event>
<event>
 4    0  0.1674150E-001  0.2708090E+03  0.7546771E-02  0.1100817E+00
         21   -1    0    0  503  501  0.00000000000E+00  0.00000000000E+00  0.34341685357E+03  0.34341685357E+03  0.00000000000E+00 0. -1.
         21   -1    0    0  501  502 -0.00000000000E+00 -0.00000000000E+00 -0.23424555194E+03  0.23424555194E+03  0.00000000000E+00 0. -1.
         25    1    1    2    0    0 -0.22353072047E+03 -0.88014404588E+02 -0.67936204174E+02  0.27920036935E+03  0.12500000000E+03 0.  0.
         21    1    1    2  503  502  0.22353072047E+03  0.88014404588E+02  0.17710750580E+03  0.29846203615E+03  0.00000000000E+00 0. -1.
<mgrwt>
<rscale>  3 0.27080901E+03</rscale>
<asrwt>0</asrwt>
<pdfrwt beam="1">  1       21 0.52833362E-01 0.27080901E+03</pdfrwt>
<pdfrwt beam="2">  1       21 0.36037777E-01 0.27080901E+03</pdfrwt>
<totfact> 0.24239511E+04</totfact>
</mgrwt>
</event>
<event>
 4    0  0.1005289E-001  0.2780975E+03  0.7546771E-02  0.1096733E+00
         21   -1    0    0  503  501  0.00000000000E+00  0.00000000000E+00  0.24108045941E+02  0.24108045941E+02  0.00000000000E+00 0. -1.
         21   -1    0    0  501  502 -0.00000000000E+00 -0.00000000000E+00 -0.28796555548E+04  0.28796555548E+04  0.00000000000E+00 0. -1.
         25    1    1    2    0    0 -0.14172333691E+03  0.20402874012E+03 -0.14485245917E+04  0.14749785503E+04  0.12500000000E+03 0.  0.
         21    1    1    2  503  502  0.14172333691E+03 -0.20402874012E+03 -0.14070229172E+04  0.14287850505E+04  0.00000000000E+00 0. -1.
<mgrwt>
<rscale>  3 0.27809752E+03</rscale>
<asrwt>0</asrwt>
<pdfrwt beam="1">  1       21 0.37089322E-02 0.27809752E+03</pdfrwt>
<pdfrwt beam="2">  1       21 0.44302369E+00 0.27809752E+03</pdfrwt>
<totfact> 0.18487065E+03</totfact>
</mgrwt>
</event>
<event>
 4    0  0.1626188E-001  0.2945676E+03  0.7546771E-02  0.1087988E+00
         21   -1    0    0  503  501  0.00000000000E+00  0.00000000000E+00  0.35584346217E+03  0.35584346217E+03  0.00000000000E+00 0. -1.
         21   -1    0    0  501  502 -0.00000000000E+00 -0.00000000000E+00 -0.24789345181E+03  0.24789345181E+03  0.00000000000E+00 0. -1.
         25    1    1    2    0    0 -0.10886622953E+03 -0.24350192733E+03 -0.42316280995E+02  0.29759151901E+03  0.12500000000E+03 0.  0.
         21    1    1    2  503  502  0.10886622953E+03  0.24350192733E+03  0.15026629135E+03  0.30614539498E+03  0.00000000000E+00 0. -1.
<mgrwt>
<rscale>  3 0.29456756E+03</rscale>
<asrwt>0</asrwt>
<pdfrwt beam="1">  1       21 0.54745148E-01 0.29456756E+03</pdfrwt>
<pdfrwt beam="2">  1       21 0.38137454E-01 0.29456756E+03</pdfrwt>
<totfact> 0.19850137E+04</totfact>
</mgrwt>
</event>
<event>
 4    0  0.1313401E-001  0.3201996E+03  0.7546771E-02  0.1075557E+00
         21   -1    0    0  503  501  0.00000000000E+00  0.00000000000E+00  0.30257495249E+03  0.30257495249E+03  0.00000000000E+00 0. -1.
         21   -1    0    0  501  502 -0.00000000000E+00 -0.00000000000E+00 -0.58323761140E+03  0.58323761140E+03  0.00000000000E+00 0.  1.
         25    1    1    2    0    0 -0.25215346909E+03 -0.15271342411E+03 -0.44506220659E+03  0.54827742030E+03  0.12500000000E+03 0.  0.
         21    1    1    2  503  502  0.25215346909E+03  0.15271342411E+03  0.16439954768E+03  0.33753514358E+03  0.00000000000E+00 0. -1.
<mgrwt>
<rscale>  3 0.32019957E+03</rscale>
<asrwt>0</asrwt>
<pdfrwt beam="1">  1       21 0.46549994E-01 0.32019957E+03</pdfrwt>
<pdfrwt beam="2">  1       21 0.89728862E-01 0.32019957E+03</pdfrwt>
<totfact> 0.43153462E+03</totfact>
</mgrwt>
</event>
<event>
 4    0  0.1531933E-001  0.2437636E+03  0.7546771E-02  0.1117311E+00
         21   -1    0    0  502  501  0.00000000000E+00  0.00000000000E+00  0.38371758387E+03  0.38371758387E+03  0.00000000000E+00 0. -1.
         21   -1    0    0  503  502 -0.00000000000E+00 -0.00000000000E+00 -0.14299437470E+03  0.14299437470E+03  0.00000000000E+00 0. -1.
         25    1    1    2    0    0 -0.12771039188E+03  0.16578820254E+03  0.62043428343E+02  0.25153540366E+03  0.12500000000E+03 0.  0.
         21    1    1    2  503  501  0.12771039188E+03 -0.16578820254E+03  0.17867978082E+03  0.27517655490E+03  0.00000000000E+00 0. -1.
<mgrwt>
<rscale>  3 0.24376356E+03</rscale>
<asrwt>0</asrwt>
<pdfrwt beam="1">  1       21 0.59033474E-01 0.24376356E+03</pdfrwt>
<pdfrwt beam="2">  1       21 0.21999135E-01 0.24376356E+03</pdfrwt>
<totfact> 0.50612465E+04</totfact>
</mgrwt>
</event>
<event>
 4    0  0.1549832E-001  0.2444922E+03  0.7546771E-02  0.1116836E+00
         21   -1    0    0  503  501  0.00000000000E+00  0.00000000000E+00  0.14940149239E+03  0.14940149239E+03  0.00000000000E+00 0.  1.
         21   -1    0    0  501  502 -0.00000000000E+00 -0.00000000000E+00 -0.48616520775E+03  0.48616520775E+03  0.00000000000E+00 0.  1.
         25    1    1    2    0    0 -0.10532938022E+03  0.18181628577E+03 -0.34782050417E+03  0.42515355253E+03  0.12500000000E+03 0.  0.
         21    1    1    2  503  502  0.10532938022E+03 -0.18181628577E+03  0.11056788815E+02  0.21041314761E+03  0.00000000000E+00 0.  1.
<mgrwt>
<rscale>  3 0.24449221E+03</rscale>
<asrwt>0</asrwt>
<pdfrwt beam="1">  1       21 0.22984845E-01 0.24449221E+03</pdfrwt>
<pdfrwt beam="2">  1       21 0.74794647E-01 0.24449221E+03</pdfrwt>
<totfact> 0.27668502E+04</totfact>
</mgrwt>
</event>
<event>
 4    0  0.1312575E-001  0.3146711E+03  0.7546771E-02  0.1078128E+00
         21   -1    0    0  502  501  0.00000000000E+00  0.00000000000E+00  0.44865756459E+03  0.44865756459E+03  0.00000000000E+00 0.  1.
         21   -1    0    0  503  502 -0.00000000000E+00 -0.00000000000E+00 -0.29548710102E+03  0.29548710102E+03  0.00000000000E+00 0.  1.
         25    1    1    2    0    0  0.23442664324E+03 -0.16863287486E+03 -0.12928671958E+03  0.34019546353E+03  0.12500000000E+03 0.  0.
         21    1    1    2  503  501 -0.23442664324E+03  0.16863287486E+03  0.28245718315E+03  0.40394920207E+03  0.00000000000E+00 0.  1.
<mgrwt>
<rscale>  3 0.31467109E+03</rscale>
<asrwt>0</asrwt>
<pdfrwt beam="1">  1       21 0.69024241E-01 0.31467109E+03</pdfrwt>
<pdfrwt beam="2">  1       21 0.45459554E-01 0.31467109E+03</pdfrwt>
<totfact> 0.82765107E+03</totfact>
</mgrwt>
</event>
<event>
 4    0  0.1322026E-001  0.2421214E+03  0.7546771E-02  0.1118388E+00
         21   -1    0    0  503  501  0.00000000000E+00  0.00000000000E+00  0.67266281936E+02  0.67266281936E+02  0.00000000000E+00 0. -1.
         21   -1    0    0  501  502 -0.00000000000E+00 -0.00000000000E+00 -0.93412327168E+03  0.93412327168E+03  0.00000000000E+00 0. -1.
         25    1    1    2    0    0  0.12102159008E+03  0.16837916350E+03 -0.68160717907E+03  0.72333333570E+03  0.12500000000E+03 0.  0.
         21    1    1    2  503  502 -0.12102159008E+03 -0.16837916350E+03 -0.18524981067E+03  0.27805621791E+03  0.00000000000E+00 0. -1.
<mgrwt>
<rscale>  3 0.24212139E+03</rscale>
<asrwt>0</asrwt>
<pdfrwt beam="1">  1       21 0.10348659E-01 0.24212139E+03</pdfrwt>
<pdfrwt beam="2">  1       21 0.14371126E+00 0.24212139E+03</pdfrwt>
<totfact> 0.24798751E+04</totfact>
</mgrwt>
</event>
<event>
 4    0  0.1474125E-001  0.2910618E+03  0.7546771E-02  0.1089796E+00
         21   -1    0    0  502  501  0.00000000000E+00  0.00000000000E+00  0.32783377811E+03  0.32783377811E+03  0.00000000000E+00 0. -1.
         21   -1    0    0  503  502 -0.00000000000E+00 -0.00000000000E+00 -0.28339112501E+03  0.28339112501E+03  0.00000000000E+00 0. -1.
         25    1    1    2    0    0 -0.26278501476E+03  0.59985036663E+01 -0.10432335911E+03  0.30919299682E+03  0.12500000000E+03 0.  0.
         21    1    1    2  503  501  0.26278501476E+03 -0.59985036663E+01  0.14876601221E+03  0.30203190629E+03  0.00000000000E+00 0. -1.
<mgrwt>
<rscale>  3 0.29106176E+03</rscale>
<asrwt>0</asrwt>
<pdfrwt beam="1">  1       21 0.50435966E-01 0.29106176E+03</pdfrwt>
<pdfrwt beam="2">  1       21 0.43598635E-01 0.29106176E+03</pdfrwt>
<totfact> 0.17990233E+04</totfact>
</mgrwt>
</event>
<event>
 4    0  0.1325499E-001  0.3043402E+03  0.7546771E-02  0.1083091E+00
         21   -1    0    0  503  501  0.00000000000E+00  0.00000000000E+00  0.98716691354E+03  0.98716691354E+03  0.00000000000E+00 0.  1.
         21   -1    0    0  501  502 -0.00000000000E+00 -0.00000000000E+00 -0.12410730307E+03  0.12410730307E+03  0.00000000000E+00 0.  1.
         25    1    1    2    0    0 -0.11945068864E+03  0.25045851176E+03  0.13653780389E+03  0.33356484380E+03  0.12500000000E+03 0.  0.
         21    1    1    2  503  502  0.11945068864E+03 -0.25045851176E+03  0.72652180658E+03  0.77770937281E+03  0.00000000000E+00 0.  1.
<mgrwt>
<rscale>  3 0.30434016E+03</rscale>
<asrwt>0</asrwt>
<pdfrwt beam="1">  1       21 0.15187183E+00 0.30434016E+03</pdfrwt>
<pdfrwt beam="2">  1       21 0.19093432E-01 0.30434016E+03</pdfrwt>
<totfact> 0.67705222E+03</totfact>
</mgrwt>
</event>
<event>
 4    0  0.1218850E-001  0.2828659E+03  0.7546771E-02  0.1094134E+00
         21   -1    0    0  502  501  0.00000000000E+00  0.00000000000E+00  0.66531066844E+03  0.66531066844E+03  0.00000000000E+00 0.  1.
         21   -1    0    0  503  502 -0.00000000000E+00 -0.00000000000E+00 -0.36363123822E+03  0.36363123822E+03  0.00000000000E+00 0.  1.
         25    1    1    2    0    0 -0.23739468483E+03 -0.89620647612E+02 -0.27772188134E+03  0.39641208388E+03  0.12500000000E+03 0.  0.
         21    1    1    2  503  501  0.23739468483E+03  0.89620647612E+02  0.57940131156E+03  0.63252982278E+03  0.00000000000E+00 0.  1.
<mgrwt>
<rscale>  3 0.28286586E+03</rscale>
<asrwt>0</asrwt>
<pdfrwt beam="1">  1       21 0.10235549E+00 0.28286586E+03</pdfrwt>
<pdfrwt beam="2">  1       21 0.55943268E-01 0.28286586E+03</pdfrwt>
<totfact> 0.21832601E+03</totfact>
</mgrwt>
</event>
<event>
 4    0  0.1005289E-001  0.4319326E+03  0.7546771E-02  0.1033251E+00
         21   -1    0    0  503  501  0.00000000000E+00  0.00000000000E+00  0.30185543529E+03  0.30185543529E+03  0.00000000000E+00 0.  1.
         21   -1    0    0  501  502 -0.00000000000E+00 -0.00000000000E+00 -0.14438487276E+04  0.14438487276E+04  0.00000000000E+00 0.  1.
         25    1    1    2    0    0  0.19837531438E+03 -0.36275057834E+03 -0.12465302246E+04  0.13192434758E+04  0.12500000000E+03 0.  0.
         21    1    1    2  503  502 -0.19837531438E+03  0.36275057834E+03  0.10453693232E+03  0.42646068712E+03  0.00000000000E+00 0.  1.
<mgrwt>
<rscale>  3 0.43193257E+03</rscale>
<asrwt>0</asrwt>
<pdfrwt beam="1">  1       21 0.46439297E-01 0.43193257E+03</pdfrwt>
<pdfrwt beam="2">  1       21 0.22213058E+00 0.43193257E+03</pdfrwt>
<totfact> 0.35565248E+02</totfact>
</mgrwt>
</event>
<event>
 4    0  0.1308105E-001  0.2394998E+03  0.7546771E-02  0.1120126E+00
         21   -1    0    0  503  501  0.00000000000E+00  0.00000000000E+00  0.36822259393E+03  0.36822259393E+03  0.00000000000E+00 0.  1.
         21   -1    0    0  501  502 -0.00000000000E+00 -0.00000000000E+00 -0.31963000830E+03  0.31963000830E+03  0.00000000000E+00 0.  1.
         25    1    1    2    0    0 -0.20364936758E+03  0.16189095460E+02 -0.23685043947E+03  0.33683569052E+03  0.12500000000E+03 0.  0.
         21    1    1    2  503  502  0.20364936758E+03 -0.16189095460E+02  0.28544302511E+03  0.35101691171E+03  0.00000000000E+00 0.  1.
<mgrwt>
<rscale>  3 0.23949979E+03</rscale>
<asrwt>0</asrwt>
<pdfrwt beam="1">  1       21 0.56649630E-01 0.23949979E+03</pdfrwt>
<pdfrwt beam="2">  1       21 0.49173847E-01 0.23949979E+03</pdfrwt>
<totfact> 0.11224374E+04</totfact>
</mgrwt>
</event>
<event>
 4    0  0.1005289E-001  0.2908220E+03  0.7546771E-02  0.1089921E+00
         21   -1    0    0  503  501  0.00000000000E+00  0.00000000000E+00  0.38455382336E+02  0.38455382336E+02  0.00000000000E+00 0. -1.
         21   -1    0    0  501  502 -0.00000000000E+00 -0.00000000000E+00 -0.21041707106E+04  0.21041707106E+04  0.00000000000E+00 0. -1.
         25    1    1    2    0    0 -0.25764847949E+03 -0.50692194926E+02 -0.83460069806E+03  0.88381885181E+03  0.12500000000E+03 0.  0.
         21    1    1    2  503  502  0.25764847949E+03  0.50692194926E+02 -0.12311146302E+04  0.12588072411E+04  0.00000000000E+00 0. -1.
<mgrwt>
<rscale>  3 0.29082200E+03</rscale>
<asrwt>0</asrwt>
<pdfrwt beam="1">  1       21 0.59162120E-02 0.29082200E+03</pdfrwt>
<pdfrwt beam="2">  1       21 0.32371861E+00 0.29082200E+03</pdfrwt>
<totfact> 0.45654498E+03</totfact>
</mgrwt>
</event>
<event>
 4    0  0.1005289E-001  0.3636760E+03  0.7546771E-02  0.1057138E+00
         21   -1    0    0  502  501  0.00000000000E+00  0.00000000000E+00  0.19133347657E+04  0.19133347657E+04  0.00000000000E+00 0.  1.
         21   -1    0    0  503  502 -0.00000000000E+00 -0.00000000000E+00 -0.81627171632E+02  0.81627171632E+02  0.00000000000E+00 0.  1.
         25    1    1    2    0    0 -0.17965257625E+03 -0.29044825790E+03  0.48845148269E+03  0.60897051621E+03  0.12500000000E+03 0.  0.
         21    1    1    2  503  501  0.17965257625E+03  0.29044825790E+03  0.13432561114E+04  0.13859914211E+04  0.00000000000E+00 0.  1.
<mgrwt>
<rscale>  3 0.36367601E+03</rscale>
<asrwt>0</asrwt>
<pdfrwt beam="1">  1       21 0.29435916E+00 0.36367601E+03</pdfrwt>
<pdfrwt beam="2">  1       21 0.12558028E-01 0.36367601E+03</pdfrwt>
<totfact> 0.17068504E+03</totfact>
</mgrwt>
</event>
<event>
 4    0  0.1153816E-001  0.4997447E+03  0.7546771E-02  0.1013846E+00
         21   -1    0    0  502  501  0.00000000000E+00  0.00000000000E+00  0.83095053301E+03  0.83095053301E+03  0.00000000000E+00 0. -1.
         21   -1    0    0  503  502 -0.00000000000E+00 -0.00000000000E+00 -0.48479796855E+03  0.48479796855E+03  0.00000000000E+00 0. -1.
         25    1    1    2    0    0 -0.46766014362E+03  0.12415216784E+03 -0.24107820248E+03  0.55485445877E+03  0.12500000000E+03 0.  0.
         21    1    1    2  503  501  0.46766014362E+03 -0.12415216784E+03  0.58723076694E+03  0.76089404278E+03  0.00000000000E+00 0. -1.
<mgrwt>
<rscale>  3 0.49974471E+03</rscale>
<asrwt>0</asrwt>
<pdfrwt beam="1">  1       21 0.12783854E+00 0.49974471E+03</pdfrwt>
<pdfrwt beam="2">  1       21 0.74584303E-01 0.49974471E+03</pdfrwt>
<totfact> 0.59640027E+02</totfact>
</mgrwt>
</event>
<event>
 4    0  0.1022148E-001  0.2650932E+03  0.7546771E-02  0.1104121E+00
         21   -1    0    0  503  501  0.00000000000E+00  0.00000000000E+00  0.16896871937E+03  0.16896871937E+03  0.00000000000E+00 0.  1.
         21   -1    0    0  501  502 -0.00000000000E+00 -0.00000000000E+00 -0.53949344388E+03  0.53949344388E+03  0.00000000000E+00 0. -1.
         25    1    1    2    0    0 -0.23250206945E+03 -0.24334573457E+02 -0.39252595335E+03  0.47365705718E+03  0.12500000000E+03 0.  0.
         21    1    1    2  503  502  0.23250206945E+03  0.24334573457E+02  0.22001228852E+02  0.23480510607E+03  0.00000000000E+00 0.  1.
<mgrwt>
<rscale>  3 0.26509316E+03</rscale>
<asrwt>0</asrwt>
<pdfrwt beam="1">  1       21 0.25995188E-01 0.26509316E+03</pdfrwt>
<pdfrwt beam="2">  1       21 0.82998991E-01 0.26509316E+03</pdfrwt>
<totfact> 0.17086611E+04</totfact>
</mgrwt>
</event>
<event>
 4    0  0.1005289E-001  0.2424207E+03  0.7546771E-02  0.1118191E+00
         21   -1    0    0  503  501  0.00000000000E+00  0.00000000000E+00  0.16569660710E+03  0.16569660710E+03  0.00000000000E+00 0.  1.
         21   -1    0    0  501  502 -0.00000000000E+00 -0.00000000000E+00 -0.32510766703E+03  0.32510766703E+03  0.00000000000E+00 0. -1.
         25    1    1    2    0    0  0.20770278316E+03  0.15269862722E+01 -0.14527048953E+03  0.28261509682E+03  0.12500000000E+03 0.  0.
         21    1    1    2  503  502 -0.20770278316E+03 -0.15269862722E+01 -0.14140570400E+02  0.20818917732E+03  0.00000000000E+00 0.  1.
<mgrwt>
<rscale>  3 0.24242066E+03</rscale>
<asrwt>0</asrwt>
<pdfrwt beam="1">  1       21 0.25491786E-01 0.24242066E+03</pdfrwt>
<pdfrwt beam="2">  1       21 0.50016564E-01 0.24242066E+03</pdfrwt>
<totfact> 0.54356114E+04</totfact>
</mgrwt>
</event>
<event>
 4    0  0.1069624E-001  0.5810121E+03  0.7546771E-02  0.9945602E-01
         21   -1    0    0  502  501  0.00000000000E+00  0.00000000000E+00  0.54720246223E+03  0.54720246223E+03  0.00000000000E+00 0.  1.
         21   -1    0    0  503  502 -0.00000000000E+00 -0.00000000000E+00 -0.80677347419E+03  0.80677347419E+03  0.00000000000E+00 0.  1.
         25    1    1    2    0    0  0.32616550191E+03 -0.46429098996E+03 -0.47152735025E+03  0.74827341262E+03  0.12500000000E+03 0.  0.
         21    1    1    2  503  501 -0.32616550191E+03  0.46429098996E+03  0.21195633829E+03  0.60570252380E+03  0.00000000000E+00 0.  1.
<mgrwt>
<rscale>  3 0.58101210E+03</rscale>
<asrwt>0</asrwt>
<pdfrwt beam="1">  1       21 0.84184994E-01 0.58101210E+03</pdfrwt>
<pdfrwt beam="2">  1       21 0.12411900E+00 0.58101210E+03</pdfrwt>
<totfact> 0.47193920E+02</totfact>
</mgrwt>
</event>
<event>
 4    0  0.1105432E-001  0.3279565E+03  0.7546771E-02  0.1072045E+00
         21   -1    0    0  503  501  0.00000000000E+00  0.00000000000E+00  0.95112714742E+02  0.95112714742E+02  0.00000000000E+00 0.  1.
         21   -1    0    0  501  502 -0.00000000000E+00 -0.00000000000E+00 -0.15860281193E+04  0.15860281193E+04  0.00000000000E+00 0.  1.
         25    1    1    2    0    0 -0.28119522197E+03 -0.11340073083E+03 -0.12545118494E+04  0.12966709139E+04  0.12500000000E+03 0.  0.
         21    1    1    2  503  502  0.28119522197E+03  0.11340073083E+03 -0.23640355513E+03  0.38446992014E+03  0.00000000000E+00 0.  1.
<mgrwt>
<rscale>  3 0.32795652E+03</rscale>
<asrwt>0</asrwt>
<pdfrwt beam="1">  1       21 0.14632725E-01 0.32795652E+03</pdfrwt>
<pdfrwt beam="2">  1       21 0.24400433E+00 0.32795652E+03</pdfrwt>
<totfact> 0.26444534E+03</totfact>
</mgrwt>
</event>
<event>
 4    0  0.1005289E-001  0.2630049E+03  0.7546771E-02  0.1105351E+00
         21   -1    0    0  502  501  0.00000000000E+00  0.00000000000E+00  0.10147467458E+03  0.10147467458E+03  0.00000000000E+00 0.  1.
         21   -1    0    0  503  502 -0.00000000000E+00 -0.00000000000E+00 -0.72777054804E+03  0.72777054804E+03  0.00000000000E+00 0. -1.
         25    1    1    2    0    0 -0.32763769741E+02  0.22907005699E+03 -0.50163776199E+03  0.56640268350E+03  0.12500000000E+03 0.  0.
         21    1    1    2  503  501  0.32763769741E+02 -0.22907005699E+03 -0.12465811147E+03  0.26284253912E+03  0.00000000000E+00 0.  1.
<mgrwt>
<rscale>  3 0.26300486E+03</rscale>
<asrwt>0</asrwt>
<pdfrwt beam="1">  1       21 0.15611489E-01 0.26300486E+03</pdfrwt>
<pdfrwt beam="2">  1       21 0.11196470E+00 0.26300486E+03</pdfrwt>
<totfact> 0.21956696E+04</totfact>
</mgrwt>
</event>
<event>
 4    0  0.1781627E-001  0.2595300E+03  0.7546771E-02  0.1107426E+00
         21   -1    0    0  503  501  0.00000000000E+00  0.00000000000E+00  0.15044580538E+03  0.15044580538E+03  0.00000000000E+00 0.  1.
         21   -1    0    0  501  502 -0.00000000000E+00 -0.00000000000E+00 -0.40652850097E+03  0.40652850097E+03  0.00000000000E+00 0.  1.
         25    1    1    2    0    0  0.19384998624E+02 -0.22661645568E+03 -0.18487188167E+03  0.31864307428E+03  0.12500000000E+03 0.  0.
         21    1    1    2  503  502 -0.19384998624E+02  0.22661645568E+03 -0.71210813920E+02  0.23833123206E+03  0.00000000000E+00 0.  1.
<mgrwt>
<rscale>  3 0.25952995E+03</rscale>
<asrwt>0</asrwt>
<pdfrwt beam="1">  1       21 0.23145509E-01 0.25952995E+03</pdfrwt>
<pdfrwt beam="2">  1       21 0.62542845E-01 0.25952995E+03</pdfrwt>
<totfact> 0.40291719E+04</totfact>
</mgrwt>
</event>
<event>
 4    0  0.1213568E-001  0.2423925E+03  0.7546771E-02  0.1118209E+00
         21   -1    0    0  503  501  0.00000000000E+00  0.00000000000E+00  0.13481827529E+03  0.13481827529E+03  0.00000000000E+00 0. -1.
         21   -1    0    0  501  502 -0.00000000000E+00 -0.00000000000E+00 -0.64447897042E+03  0.64447897042E+03  0.00000000000E+00 0. -1.
         25    1    1    2    0    0 -0.13595972113E+03 -0.15698438889E+03 -0.51752028477E+03  0.57147299960E+03  0.12500000000E+03 0.  0.
         21    1    1    2  503  502  0.13595972113E+03  0.15698438889E+03  0.78595896377E+01  0.20782424611E+03  0.00000000000E+00 0. -1.
<mgrwt>
<rscale>  3 0.24239254E+03</rscale>
<asrwt>0</asrwt>
<pdfrwt beam="1">  1       21 0.20741273E-01 0.24239254E+03</pdfrwt>
<pdfrwt beam="2">  1       21 0.99150609E-01 0.24239254E+03</pdfrwt>
<totfact> 0.17544046E+04</totfact>
</mgrwt>
</event>
<event>
 4    0  0.1220109E-001  0.2580741E+03  0.7546771E-02  0.1108306E+00
         21   -1    0    0  502  501  0.00000000000E+00  0.00000000000E+00  0.36901483021E+02  0.36901483021E+02  0.00000000000E+00 0. -1.
         21   -1    0    0  503  502 -0.00000000000E+00 -0.00000000000E+00 -0.16798364227E+04  0.16798364227E+04  0.00000000000E+00 0. -1.
         25    1    1    2    0    0 -0.11656953310E+03  0.19336177823E+03 -0.10755839250E+04  0.11061116639E+04  0.12500000000E+03 0.  0.
         21    1    1    2  503  501  0.11656953310E+03 -0.19336177823E+03 -0.56735101472E+03  0.61062624184E+03  0.00000000000E+00 0. -1.
<mgrwt>
<rscale>  3 0.25807408E+03</rscale>
<asrwt>0</asrwt>
<pdfrwt beam="1">  1       21 0.56771515E-02 0.25807408E+03</pdfrwt>
<pdfrwt beam="2">  1       21 0.25843636E+00 0.25807408E+03</pdfrwt>
<totfact> 0.12178507E+04</totfact>
</mgrwt>
</event>
<event>
 4    0  0.1374026E-001  0.2666605E+03  0.7546771E-02  0.1103206E+00
         21   -1    0    0  503  501  0.00000000000E+00  0.00000000000E+00  0.24075505828E+03  0.24075505828E+03  0.00000000000E+00 0. -1.
         21   -1    0    0  501  502 -0.00000000000E+00 -0.00000000000E+00 -0.46327278184E+03  0.46327278184E+03  0.00000000000E+00 0. -1.
         25    1    1    2    0    0 -0.17152367711E+03  0.16143875656E+03 -0.34698668447E+03  0.43761581682E+03  0.12500000000E+03 0.  0.
         21    1    1    2  503  502  0.17152367711E+03 -0.16143875656E+03  0.12446896091E+03  0.26641202330E+03  0.00000000000E+00 0. -1.
<mgrwt>
<rscale>  3 0.26666054E+03</rscale>
<asrwt>0</asrwt>
<pdfrwt beam="1">  1       21 0.37039240E-01 0.26666054E+03</pdfrwt>
<pdfrwt beam="2">  1       21 0.71272735E-01 0.26666054E+03</pdfrwt>
<totfact> 0.11988293E+04</totfact>
</mgrwt>
</event>
<event>
 4    0  0.1481440E-001  0.2531609E+03  0.7546771E-02  0.1111323E+00
         21   -1    0    0  502  501  0.00000000000E+00  0.00000000000E+00  0.40627319963E+03  0.40627319963E+03  0.00000000000E+00 0. -1.
         21   -1    0    0  503  502 -0.00000000000E+00 -0.00000000000E+00 -0.20198423999E+04  0.20198423999E+04  0.00000000000E+00 0.  1.
         25    1    1    2    0    0 -0.21954182011E+03  0.16334520310E+02 -0.19813621309E+04  0.19974699800E+04  0.12500000000E+03 0.  0.
         21    1    1    2  503  501  0.21954182011E+03 -0.16334520310E+02  0.36779293061E+03  0.42864561953E+03  0.00000000000E+00 0. -1.
<mgrwt>
<rscale>  3 0.25316087E+03</rscale>
<asrwt>0</asrwt>
<pdfrwt beam="1">  1       21 0.62503567E-01 0.25316087E+03</pdfrwt>
<pdfrwt beam="2">  1       21 0.31074499E+00 0.25316087E+03</pdfrwt>
<totfact> 0.64152402E+01</totfact>
</mgrwt>
</event>
<event>
 4    0  0.1086065E-001  0.2419515E+03  0.7546771E-02  0.1118500E+00
         21   -1    0    0  503  501  0.00000000000E+00  0.00000000000E+00  0.12704015151E+04  0.12704015151E+04  0.00000000000E+00 0.  1.
         21   -1    0    0  501  502 -0.00000000000E+00 -0.00000000000E+00 -0.30538354887E+03  0.30538354887E+03  0.00000000000E+00 0.  1.
         25    1    1    2    0    0  0.31128927739E+02 -0.20480851582E+03 -0.24725349958E+03  0.34594050262E+03  0.12500000000E+03 0.  0.
         21    1    1    2  503  502 -0.31128927739E+02  0.20480851582E+03  0.12122714658E+04  0.12298445614E+04  0.00000000000E+00 0.  1.
<mgrwt>
<rscale>  3 0.24195152E+03</rscale>
<asrwt>0</asrwt>
<pdfrwt beam="1">  1       21 0.19544638E+00 0.24195152E+03</pdfrwt>
<pdfrwt beam="2">  1       21 0.46982085E-01 0.24195152E+03</pdfrwt>
<totfact> 0.59090754E+02</totfact>
</mgrwt>
</event>
<event>
 4    0  0.1690115E-001  0.2482155E+03  0.7546771E-02  0.1114438E+00
         21   -1    0    0  502  501  0.00000000000E+00  0.00000000000E+00  0.19763709929E+03  0.19763709929E+03  0.00000000000E+00 0.  1.
         21   -1    0    0  503  502 -0.00000000000E+00 -0.00000000000E+00 -0.65869327284E+03  0.65869327284E+03  0.00000000000E+00 0. -1.
         25    1    1    2    0    0 -0.20553983375E+03  0.61149959646E+02 -0.56566834800E+03  0.61773102622E+03  0.12500000000E+03 0.  0.
         21    1    1    2  503  501  0.20553983375E+03 -0.61149959646E+02  0.10461217446E+03  0.23859934591E+03  0.00000000000E+00 0.  1.
<mgrwt>
<rscale>  3 0.24821551E+03</rscale>
<asrwt>0</asrwt>
<pdfrwt beam="1">  1       21 0.30405708E-01 0.24821551E+03</pdfrwt>
<pdfrwt beam="2">  1       21 0.10133742E+00 0.24821551E+03</pdfrwt>
<totfact> 0.79567470E+03</totfact>
</mgrwt>
</event>
<event>
 4    0  0.1005289E-001  0.2448884E+03  0.7546771E-02  0.1116578E+00
         21   -1    0    0  503  501  0.00000000000E+00  0.00000000000E+00  0.17368547993E+04  0.17368547993E+04  0.00000000000E+00 0. -1.
         21   -1    0    0  501  502 -0.00000000000E+00 -0.00000000000E+00 -0.19737060593E+03  0.19737060593E+03  0.00000000000E+00 0. -1.
         25    1    1    2    0    0  0.26120503139E+01  0.21056715848E+03 -0.11206005044E+03  0.26930986974E+03  0.12500000000E+03 0.  0.
         21    1    1    2  503  502 -0.26120503139E+01 -0.21056715848E+03  0.16515442438E+04  0.16649155354E+04  0.00000000000E+00 0. -1.
<mgrwt>
<rscale>  3 0.24488845E+03</rscale>
<asrwt>0</asrwt>
<pdfrwt beam="1">  1       21 0.26720842E+00 0.24488845E+03</pdfrwt>
<pdfrwt beam="2">  1       21 0.30364710E-01 0.24488845E+03</pdfrwt>
<totfact> 0.51552708E+02</totfact>
</mgrwt>
</event>
<event>
 4    0  0.1525655E-001  0.2800540E+03  0.7546771E-02  0.1095659E+00
         21   -1    0    0  502  501  0.00000000000E+00  0.00000000000E+00  0.96335293252E+03  0.96335293252E+03  0.00000000000E+00 0.  1.
         21   -1    0    0  503  502 -0.00000000000E+00 -0.00000000000E+00 -0.85005066700E+02  0.85005066700E+02  0.00000000000E+00 0.  1.
         25    1    1    2    0    0 -0.99223564363E+02 -0.23013020570E+03  0.26404541876E+03  0.38490285849E+03  0.12500000000E+03 0.  0.
         21    1    1    2  503  501  0.99223564363E+02  0.23013020570E+03  0.61430244705E+03  0.66345514073E+03  0.00000000000E+00 0.  1.
<mgrwt>
<rscale>  3 0.28005397E+03</rscale>
<asrwt>0</asrwt>
<pdfrwt beam="1">  1       21 0.14820814E+00 0.28005397E+03</pdfrwt>
<pdfrwt beam="2">  1       21 0.13077703E-01 0.28005397E+03</pdfrwt>
<totfact> 0.14717134E+04</totfact>
</mgrwt>
</event>
<event>
 4    0  0.1100536E-001  0.2510941E+03  0.7546771E-02  0.1112615E+00
         21   -1    0    0  503  501  0.00000000000E+00  0.00000000000E+00  0.19697303723E+04  0.19697303723E+04  0.00000000000E+00 0. -1.
         21   -1    0    0  501  502 -0.00000000000E+00 -0.00000000000E+00 -0.34067882713E+02  0.34067882713E+02  0.00000000000E+00 0. -1.
         25    1    1    2    0    0  0.17950718506E+03  0.12329006634E+03  0.59879519708E+03  0.64931037108E+03  0.12500000000E+03 0.  0.
         21    1    1    2  503  502 -0.17950718506E+03 -0.12329006634E+03  0.13368672925E+04  0.13544878839E+04  0.00000000000E+00 0. -1.
<mgrwt>
<rscale>  3 0.25109415E+03</rscale>
<asrwt>0</asrwt>
<pdfrwt beam="1">  1       21 0.30303535E+00 0.25109415E+03</pdfrwt>
<pdfrwt beam="2">  1       21 0.52412143E-02 0.25109415E+03</pdfrwt>
<totfact> 0.76877576E+03</totfact>
</mgrwt>
</event>
<event>
 4    0  0.1242617E-001  0.3190359E+03  0.7546771E-02  0.1076094E+00
         21   -1    0    0  502  501  0.00000000000E+00  0.00000000000E+00  0.32296097181E+03  0.32296097181E+03  0.00000000000E+00 0. -1.
         21   -1    0    0  503  502 -0.00000000000E+00 -0.00000000000E+00 -0.56446537992E+03  0.56446537992E+03  0.00000000000E+00 0.  1.
         25    1    1    2    0    0  0.10174256662E+03  0.27533132501E+03 -0.43234478838E+03  0.53731359971E+03  0.12500000000E+03 0.  0.
         21    1    1    2  503  501 -0.10174256662E+03 -0.27533132501E+03  0.19084038027E+03  0.35011275203E+03  0.00000000000E+00 0. -1.
<mgrwt>
<rscale>  3 0.31903587E+03</rscale>
<asrwt>0</asrwt>
<pdfrwt beam="1">  1       21 0.49686304E-01 0.31903587E+03</pdfrwt>
<pdfrwt beam="2">  1       21 0.86840827E-01 0.31903587E+03</pdfrwt>
<totfact> 0.40648833E+03</totfact>
</mgrwt>
</event>
<event>
 4    0  0.1205537E-001  0.3410066E+03  0.7546771E-02  0.1066368E+00
         21   -1    0    0  503  501  0.00000000000E+00  0.00000000000E+00  0.54724344300E+03  0.54724344300E+03  0.00000000000E+00 0.  1.
         21   -1    0    0  501  502 -0.00000000000E+00 -0.00000000000E+00 -0.29012158153E+03  0.29012158153E+03  0.00000000000E+00 0. -1.
         25    1    1    2    0    0  0.26664825891E+03 -0.17192784200E+03 -0.10414878872E+03  0.35655637286E+03  0.12500000000E+03 0.  0.
         21    1    1    2  503  502 -0.26664825891E+03  0.17192784200E+03  0.36127065019E+03  0.48080865167E+03  0.00000000000E+00 0.  1.
<mgrwt>
<rscale>  3 0.34100656E+03</rscale>
<asrwt>0</asrwt>
<pdfrwt beam="1">  1       21 0.84191299E-01 0.34100656E+03</pdfrwt>
<pdfrwt beam="2">  1       21 0.44634090E-01 0.34100656E+03</pdfrwt>
<totfact> 0.54122355E+03</totfact>
</mgrwt>
</event>
<event>
 4    0  0.1802447E-001  0.3081279E+03  0.7546771E-02  0.1081247E+00
         21   -1    0    0  503  501  0.00000000000E+00  0.00000000000E+00  0.91790545111E+03  0.91790545111E+03  0.00000000000E+00 0. -1.
         21   -1    0    0  501  502 -0.00000000000E+00 -0.00000000000E+00 -0.55264465072E+03  0.55264465072E+03  0.00000000000E+00 0.  1.
         25    1    1    2    0    0 -0.17006384358E+03  0.22449077330E+03 -0.48514353539E+03  0.57472347100E+03  0.12500000000E+03 0.  0.
         21    1    1    2  503  502  0.17006384358E+03 -0.22449077330E+03  0.85040433578E+03  0.89582663083E+03  0.00000000000E+00 0. -1.
<mgrwt>
<rscale>  3 0.30812793E+03</rscale>
<asrwt>0</asrwt>
<pdfrwt beam="1">  1       21 0.14121622E+00 0.30812793E+03</pdfrwt>
<pdfrwt beam="2">  1       21 0.85022254E-01 0.30812793E+03</pdfrwt>
<totfact> 0.37681152E+02</totfact>
</mgrwt>
</event>
<event>
 4    0  0.1151189E-001  0.2635040E+03  0.7546771E-02  0.1105056E+00
         21   -1    0    0  502  501  0.00000000000E+00  0.00000000000E+00  0.12434301641E+04  0.12434301641E+04  0.00000000000E+00 0. -1.
         21   -1    0    0  503  502 -0.00000000000E+00 -0.00000000000E+00 -0.50146572535E+02  0.50146572535E+02  0.00000000000E+00 0. -1.
         25    1    1    2    0    0 -0.22987711914E+03 -0.31078267787E+02  0.71496527372E+03  0.76197748737E+03  0.12500000000E+03 0.  0.
         21    1    1    2  503  501  0.22987711914E+03  0.31078267787E+02  0.47831831781E+03  0.53159924923E+03  0.00000000000E+00 0. -1.
<mgrwt>
<rscale>  3 0.26350398E+03</rscale>
<asrwt>0</asrwt>
<pdfrwt beam="1">  1       21 0.19129693E+00 0.26350398E+03</pdfrwt>
<pdfrwt beam="2">  1       21 0.77148582E-02 0.26350398E+03</pdfrwt>
<totfact> 0.18656396E+04</totfact>
</mgrwt>
</event>
<event>
 4    0  0.1315082E-001  0.2474702E+03  0.7546771E-02  0.1114914E+00
         21   -1    0    0  503  501  0.00000000000E+00  0.00000000000E+00  0.77810215930E+03  0.77810215930E+03  0.00000000000E+00 0. -1.
         21   -1    0    0  501  502 -0.00000000000E+00 -0.00000000000E+00 -0.68550616809E+02  0.68550616809E+02  0.00000000000E+00 0. -1.
         25    1    1    2    0    0  0.68056258312E+02  0.20244710991E+03  0.40644922125E+03  0.47585970208E+03  0.12500000000E+03 0.  0.
         21    1    1    2  503  502 -0.68056258312E+02 -0.20244710991E+03  0.30310232124E+03  0.37079307403E+03  0.00000000000E+00 0. -1.
<mgrwt>
<rscale>  3 0.24747017E+03</rscale>
<asrwt>0</asrwt>
<pdfrwt beam="1">  1       21 0.11970802E+00 0.24747017E+03</pdfrwt>
<pdfrwt beam="2">  1       21 0.10546249E-01 0.24747017E+03</pdfrwt>
<totfact> 0.38148192E+04</totfact>
</mgrwt>
</event>
<event>
 4    0  0.1181806E-001  0.3790405E+03  0.7546771E-02  0.1051289E+00
         21   -1    0    0  503  501  0.00000000000E+00  0.00000000000E+00  0.53293503588E+03  0.53293503588E+03  0.00000000000E+00 0. -1.
         21   -1    0    0  501  502 -0.00000000000E+00 -0.00000000000E+00 -0.42955311855E+03  0.42955311855E+03  0.00000000000E+00 0.  1.
         25    1    1    2    0    0  0.72246623563E+02 -0.35046698091E+03 -0.25437715863E+03  0.45648594519E+03  0.12500000000E+03 0.  0.
         21    1    1    2  503  502 -0.72246623563E+02  0.35046698091E+03  0.35775907596E+03  0.50600220924E+03  0.00000000000E+00 0. -1.
<mgrwt>
<rscale>  3 0.37904047E+03</rscale>
<asrwt>0</asrwt>
<pdfrwt beam="1">  1       21 0.81990006E-01 0.37904047E+03</pdfrwt>
<pdfrwt beam="2">  1       21 0.66085095E-01 0.37904047E+03</pdfrwt>
<totfact> 0.24379783E+03</totfact>
</mgrwt>
</event>
<event>
 4    0  0.1387003E-001  0.3243714E+03  0.7546771E-02  0.1073655E+00
         21   -1    0    0  503  501  0.00000000000E+00  0.00000000000E+00  0.35240122473E+03  0.35240122473E+03  0.00000000000E+00 0.  1.
         21   -1    0    0  501  502 -0.00000000000E+00 -0.00000000000E+00 -0.37478111995E+03  0.37478111995E+03  0.00000000000E+00 0.  1.
         25    1    1    2    0    0  0.29712945500E+03  0.36136747722E+02 -0.19811554409E+03  0.38008755093E+03  0.12500000000E+03 0.  0.
         21    1    1    2  503  502 -0.29712945500E+03 -0.36136747722E+02  0.17573564887E+03  0.34709479375E+03  0.00000000000E+00 0.  1.
<mgrwt>
<rscale>  3 0.32437136E+03</rscale>
<asrwt>0</asrwt>
<pdfrwt beam="1">  1       21 0.54215573E-01 0.32437136E+03</pdfrwt>
<pdfrwt beam="2">  1       21 0.57658634E-01 0.32437136E+03</pdfrwt>
<totfact> 0.84345092E+03</totfact>
</mgrwt>
</event>
<event>
 4    0  0.1005289E-001  0.2413057E+03  0.7546771E-02  0.1118926E+00
         21   -1    0    0  502  501  0.00000000000E+00  0.00000000000E+00  0.34606668273E+03  0.34606668273E+03  0.00000000000E+00 0. -1.
         21   -1    0    0  503  502 -0.00000000000E+00 -0.00000000000E+00 -0.19861188095E+03  0.19861188095E+03  0.00000000000E+00 0.  1.
         25    1    1    2    0    0  0.44375364499E+02 -0.20157944108E+03 -0.63522120266E+02  0.24952655932E+03  0.12500000000E+03 0.  0.
         21    1    1    2  503  501 -0.44375364499E+02  0.20157944108E+03  0.21097692204E+03  0.29515200436E+03  0.00000000000E+00 0. -1.
<mgrwt>
<rscale>  3 0.24130571E+03</rscale>
<asrwt>0</asrwt>
<pdfrwt beam="1">  1       21 0.53241028E-01 0.24130571E+03</pdfrwt>
<pdfrwt beam="2">  1       21 0.30555674E-01 0.24130571E+03</pdfrwt>
<totfact> 0.33523968E+04</totfact>
</mgrwt>
</event>
<event>
 4    0  0.1288099E-001  0.2438472E+03  0.7546771E-02  0.1117256E+00
         21   -1    0    0  503  501  0.00000000000E+00  0.00000000000E+00  0.94345803304E+03  0.94345803304E+03  0.00000000000E+00 0.  1.
         21   -1    0    0  501  502 -0.00000000000E+00 -0.00000000000E+00 -0.58462725589E+02  0.58462725589E+02  0.00000000000E+00 0.  1.
         25    1    1    2    0    0  0.18814998616E+03 -0.91847901615E+02  0.34260798999E+03  0.42052549165E+03  0.12500000000E+03 0.  0.
         21    1    1    2  503  502 -0.18814998616E+03  0.91847901615E+02  0.54238731746E+03  0.58139526697E+03  0.00000000000E+00 0.  1.
<mgrwt>
<rscale>  3 0.24384719E+03</rscale>
<asrwt>0</asrwt>
<pdfrwt beam="1">  1       21 0.14514738E+00 0.24384719E+03</pdfrwt>
<pdfrwt beam="2">  1       21 0.89942662E-02 0.24384719E+03</pdfrwt>
<totfact> 0.30947497E+04</totfact>
</mgrwt>
</event>
<event>
 4    0  0.1183533E-001  0.3737863E+03  0.7546771E-02  0.1053255E+00
         21   -1    0    0  502  501  0.00000000000E+00  0.00000000000E+00  0.43086332665E+03  0.43086332665E+03  0.00000000000E+00 0. -1.
         21   -1    0    0  503  502 -0.00000000000E+00 -0.00000000000E+00 -0.60246652311E+03  0.60246652311E+03  0.00000000000E+00 0. -1.
         25    1    1    2    0    0  0.76111941949E+02  0.34394496412E+03 -0.44952694859E+03  0.58462863731E+03  0.12500000000E+03 0.  0.
         21    1    1    2  503  501 -0.76111941949E+02 -0.34394496412E+03  0.27792375213E+03  0.44870121245E+03  0.00000000000E+00 0. -1.
<mgrwt>
<rscale>  3 0.37378626E+03</rscale>
<asrwt>0</asrwt>
<pdfrwt beam="1">  1       21 0.66286667E-01 0.37378626E+03</pdfrwt>
<pdfrwt beam="2">  1       21 0.92687156E-01 0.37378626E+03</pdfrwt>
<totfact> 0.18213865E+03</totfact>
</mgrwt>
</event>
<event>
 4    0  0.1005289E-001  0.4069044E+03  0.7546771E-02  0.1041415E+00
         21   -1    0    0  502  501  0.00000000000E+00  0.00000000000E+00  0.14335693148E+04  0.14335693148E+04  0.00000000000E+00 0. -1.
         21   -1    0    0  503  502 -0.00000000000E+00 -0.00000000000E+00 -0.14309010236E+03  0.14309010236E+03  0.00000000000E+00 0.  1.
         25    1    1    2    0    0  0.20073446703E+03  0.33113716869E+03  0.27839482335E+03  0.49302619444E+03  0.12500000000E+03 0.  0.
         21    1    1    2  503  501 -0.20073446703E+03 -0.33113716869E+03  0.10120843891E+04  0.10836332228E+04  0.00000000000E+00 0. -1.
<mgrwt>
<rscale>  3 0.40690435E+03</rscale>
<asrwt>0</asrwt>
<pdfrwt beam="1">  1       21 0.22054912E+00 0.40690435E+03</pdfrwt>
<pdfrwt beam="2">  1       21 0.22013863E-01 0.40690435E+03</pdfrwt>
<totfact> 0.16437904E+03</totfact>
</mgrwt>
</event>
<event>
 4    0  0.1596709E-001  0.2701723E+03  0.7546771E-02  0.1101181E+00
         21   -1    0    0  503  501  0.00000000000E+00  0.00000000000E+00  0.75051534675E+02  0.75051534675E+02  0.00000000000E+00 0.  1.
         21   -1    0    0  501  502 -0.00000000000E+00 -0.00000000000E+00 -0.98655994832E+03  0.98655994832E+03  0.00000000000E+00 0.  1.
         25    1    1    2    0    0 -0.23950275542E+03 -0.25461065943E+01 -0.66556099896E+03  0.71830668648E+03  0.12500000000E+03 0.  0.
         21    1    1    2  503  502  0.23950275542E+03  0.25461065943E+01 -0.24594741468E+03  0.34330479651E+03  0.00000000000E+00 0.  1.
<mgrwt>
<rscale>  3 0.27017226E+03</rscale>
<asrwt>0</asrwt>
<pdfrwt beam="1">  1       21 0.11546390E-01 0.27017226E+03</pdfrwt>
<pdfrwt beam="2">  1       21 0.15177845E+00 0.27017226E+03</pdfrwt>
<totfact> 0.17384432E+04</totfact>
</mgrwt>
</event>
<event>
 4    0  0.1005289E-001  0.5715383E+03  0.7546771E-02  0.9966280E-01
         21   -1    0    0  503  501  0.00000000000E+00  0.00000000000E+00  0.91681723546E+03  0.91681723546E+03  0.00000000000E+00 0.  1.
         21   -1    0    0  501  502 -0.00000000000E+00 -0.00000000000E+00 -0.44803782852E+03  0.44803782852E+03  0.00000000000E+00 0.  1.
         25    1    1    2    0    0 -0.53294435061E+03 -0.16432097822E+03  0.55951485263E+03  0.79982056428E+03  0.12500000000E+03 0.  0.
         21    1    1    2  503  502  0.53294435061E+03  0.16432097822E+03 -0.90735445696E+02  0.56503449969E+03  0.00000000000E+00 0.  1.
<mgrwt>
<rscale>  3 0.57153833E+03</rscale>
<asrwt>0</asrwt>
<pdfrwt beam="1">  1       21 0.14104880E+00 0.57153833E+03</pdfrwt>
<pdfrwt beam="2">  1       21 0.68928897E-01 0.57153833E+03</pdfrwt>
<totfact> 0.53598524E+02</totfact>
</mgrwt>
</event>
<event>
 4    0  0.1005289E-001  0.2902720E+03  0.7546771E-02  0.1090207E+00
         21   -1    0    0  502  501  0.00000000000E+00  0.00000000000E+00  0.17764533262E+03  0.17764533262E+03  0.00000000000E+00 0.  1.
         21   -1    0    0  503  502 -0.00000000000E+00 -0.00000000000E+00 -0.45114628115E+03  0.45114628115E+03  0.00000000000E+00 0. -1.
         25    1    1    2    0    0  0.71441332509E+02  0.25204951569E+03 -0.21267307579E+03  0.35984393772E+03  0.12500000000E+03 0.  0.
         21    1    1    2  503  501 -0.71441332509E+02 -0.25204951569E+03 -0.60827872740E+02  0.26894767605E+03  0.00000000000E+00 0.  1.
<mgrwt>
<rscale>  3 0.29027198E+03</rscale>
<asrwt>0</asrwt>
<pdfrwt beam="1">  1       21 0.27330051E-01 0.29027198E+03</pdfrwt>
<pdfrwt beam="2">  1       21 0.69407120E-01 0.29027198E+03</pdfrwt>
<totfact> 0.22973318E+04</totfact>
</mgrwt>
</event>
<event>
 4    0  0.1064018E-001  0.3532462E+03  0.7546771E-02  0.1061291E+00
         21   -1    0    0  503  501  0.00000000000E+00  0.00000000000E+00  0.11526612207E+04  0.11526612207E+04  0.00000000000E+00 0.  1.
         21   -1    0    0  501  502 -0.00000000000E+00 -0.00000000000E+00 -0.10739752362E+03  0.10739752362E+03  0.00000000000E+00 0.  1.
         25    1    1    2    0    0  0.28838619988E+03 -0.16121812352E+03  0.68835986810E+03  0.77370678661E+03  0.12500000000E+03 0.  0.
         21    1    1    2  503  502 -0.28838619988E+03  0.16121812352E+03  0.35690382902E+03  0.48635195774E+03  0.00000000000E+00 0.  1.
<mgrwt>
<rscale>  3 0.35324621E+03</rscale>
<asrwt>0</asrwt>
<pdfrwt beam="1">  1       21 0.17733249E+00 0.35324621E+03</pdfrwt>
<pdfrwt beam="2">  1       21 0.16522697E-01 0.35324621E+03</pdfrwt>
<totfact> 0.56288577E+03</totfact>
</mgrwt>
</event>
<event>
 4    0  0.1195631E-001  0.2411930E+03  0.7546771E-02  0.1119001E+00
         21   -1    0    0  502  501  0.00000000000E+00  0.00000000000E+00  0.31110510386E+03  0.31110510386E+03  0.00000000000E+00 0.  1.
         21   -1    0    0  503  502 -0.00000000000E+00 -0.00000000000E+00 -0.25597704815E+03  0.25597704815E+03  0.00000000000E+00 0. -1.
         25    1    1    2    0    0  0.10405867645E+02  0.20601165948E+03 -0.14355684118E+03  0.28068247642E+03  0.12500000000E+03 0.  0.
         21    1    1    2  503  501 -0.10405867645E+02 -0.20601165948E+03  0.19868489689E+03  0.28639967558E+03  0.00000000000E+00 0.  1.
<mgrwt>
<rscale>  3 0.24119305E+03</rscale>
<asrwt>0</asrwt>
<pdfrwt beam="1">  1       21 0.47862324E-01 0.24119305E+03</pdfrwt>
<pdfrwt beam="2">  1       21 0.39381084E-01 0.24119305E+03</pdfrwt>
<totfact> 0.25280274E+04</totfact>
</mgrwt>
</event>
<event>
 4    0  0.1053595E-001  0.2430357E+03  0.7546771E-02  0.1117787E+00
         21   -1    0    0  503  501  0.00000000000E+00  0.00000000000E+00  0.45818199022E+02  0.45818199022E+02  0.00000000000E+00 0. -1.
         21   -1    0    0  501  502 -0.00000000000E+00 -0.00000000000E+00 -0.17195146592E+04  0.17195146592E+04  0.00000000000E+00 0. -1.
         25    1    1    2    0    0 -0.19259624713E+03 -0.79674708656E+02 -0.14019518533E+04  0.14228616843E+04  0.12500000000E+03 0.  0.
         21    1    1    2  503  502  0.19259624713E+03  0.79674708656E+02 -0.27174460681E+03  0.34247117388E+03  0.00000000000E+00 0. -1.
<mgrwt>
<rscale>  3 0.24303575E+03</rscale>
<asrwt>0</asrwt>
<pdfrwt beam="1">  1       21 0.70489540E-02 0.24303575E+03</pdfrwt>
<pdfrwt beam="2">  1       21 0.26454070E+00 0.24303575E+03</pdfrwt>
<totfact> 0.78017269E+03</totfact>
</mgrwt>
</event>
<event>
 4    0  0.1558701E-001  0.2568498E+03  0.7546771E-02  0.1109051E+00
         21   -1    0    0  502  501  0.00000000000E+00  0.00000000000E+00  0.17959743082E+03  0.17959743082E+03  0.00000000000E+00 0.  1.
         21   -1    0    0  503  502 -0.00000000000E+00 -0.00000000000E+00 -0.40095853688E+03  0.40095853688E+03  0.00000000000E+00 0.  1.
         25    1    1    2    0    0  0.22195869070E+03 -0.32881172678E+02 -0.24496588799E+03  0.35493678052E+03  0.12500000000E+03 0.  0.
         21    1    1    2  503  501 -0.22195869070E+03  0.32881172678E+02  0.23604781933E+02  0.22561918718E+03  0.00000000000E+00 0.  1.
<mgrwt>
<rscale>  3 0.25684982E+03</rscale>
<asrwt>0</asrwt>
<pdfrwt beam="1">  1       21 0.27630374E-01 0.25684982E+03</pdfrwt>
<pdfrwt beam="2">  1       21 0.61685929E-01 0.25684982E+03</pdfrwt>
<totfact> 0.29557670E+04</totfact>
</mgrwt>
</event>
<event>
 4    0  0.1111427E-001  0.2613213E+03  0.7546771E-02  0.1106352E+00
         21   -1    0    0  503  501  0.00000000000E+00  0.00000000000E+00  0.99677064678E+02  0.99677064678E+02  0.00000000000E+00 0.  1.
         21   -1    0    0  501  502 -0.00000000000E+00 -0.00000000000E+00 -0.10331297937E+04  0.10331297937E+04  0.00000000000E+00 0.  1.
         25    1    1    2    0    0 -0.22896766230E+03 -0.15415182275E+02 -0.84894626795E+03  0.88825592263E+03  0.12500000000E+03 0.  0.
         21    1    1    2  503  502  0.22896766230E+03  0.15415182275E+02 -0.84506461115E+02  0.24455093579E+03  0.00000000000E+00 0.  1.
<mgrwt>
<rscale>  3 0.26132129E+03</rscale>
<asrwt>0</asrwt>
<pdfrwt beam="1">  1       21 0.15334934E-01 0.26132129E+03</pdfrwt>
<pdfrwt beam="2">  1       21 0.15894304E+00 0.26132129E+03</pdfrwt>
<totfact> 0.92104720E+03</totfact>
</mgrwt>
</event>
<event>
 4    0  0.1005289E-001  0.2375673E+03  0.7546771E-02  0.1121424E+00
         21   -1    0    0  503  501  0.00000000000E+00  0.00000000000E+00  0.56443160192E+02  0.56443160192E+02  0.00000000000E+00 0. -1.
         21   -1    0    0  501  502 -0.00000000000E+00 -0.00000000000E+00 -0.18193389082E+04  0.18193389082E+04  0.00000000000E+00 0. -1.
         25    1    1    2    0    0  0.20072082800E+03  0.22898686164E+02 -0.15964342527E+04  0.16140137929E+04  0.12500000000E+03 0.  0.
         21    1    1    2  503  502 -0.20072082800E+03 -0.22898686164E+02 -0.16646149535E+03  0.26176827549E+03  0.00000000000E+00 0. -1.
<mgrwt>
<rscale>  3 0.23756725E+03</rscale>
<asrwt>0</asrwt>
<pdfrwt beam="1">  1       21 0.86835648E-02 0.23756725E+03</pdfrwt>
<pdfrwt beam="2">  1       21 0.27989824E+00 0.23756725E+03</pdfrwt>
<totfact> 0.44257293E+03</totfact>
</mgrwt>
</event>
<event>
 4    0  0.1005289E-001  0.4404822E+03  0.7546771E-02  0.1030599E+00
         21   -1    0    0  502  501  0.00000000000E+00  0.00000000000E+00  0.12246683003E+04  0.12246683003E+04  0.00000000000E+00 0. -1.
         21   -1    0    0  503  502 -0.00000000000E+00 -0.00000000000E+00 -0.16779226854E+03  0.16779226854E+03  0.00000000000E+00 0.  1.
         25    1    1    2    0    0  0.13604960903E+03  0.39986258204E+03  0.75214231685E+03  0.87163217324E+03  0.12500000000E+03 0.  0.
         21    1    1    2  503  501 -0.13604960903E+03 -0.39986258204E+03  0.30473371486E+03  0.52082839554E+03  0.00000000000E+00 0. -1.
<mgrwt>
<rscale>  3 0.44048221E+03</rscale>
<asrwt>0</asrwt>
<pdfrwt beam="1">  1       21 0.18841050E+00 0.44048221E+03</pdfrwt>
<pdfrwt beam="2">  1       21 0.25814196E-01 0.44048221E+03</pdfrwt>
<totfact> 0.19375775E+03</totfact>
</mgrwt>
</event>
<event>
 4    0  0.1315149E-001  0.3170352E+03  0.7546771E-02  0.1077022E+00
         21   -1    0    0  502  501  0.00000000000E+00  0.00000000000E+00  0.57809438355E+03  0.57809438355E+03  0.00000000000E+00 0.  1.
         21   -1    0    0  503  502 -0.00000000000E+00 -0.00000000000E+00 -0.16959651786E+03  0.16959651786E+03  0.00000000000E+00 0.  1.
         25    1    1    2    0    0  0.57312053863E+02  0.28566005958E+03  0.30092867517E+03  0.43711486900E+03  0.12500000000E+03 0.  0.
         21    1    1    2  503  501 -0.57312053863E+02 -0.28566005958E+03  0.10756919051E+03  0.31057603241E+03  0.00000000000E+00 0.  1.
<mgrwt>
<rscale>  3 0.31703524E+03</rscale>
<asrwt>0</asrwt>
<pdfrwt beam="1">  1       21 0.88937597E-01 0.31703524E+03</pdfrwt>
<pdfrwt beam="2">  1       21 0.26091772E-01 0.31703524E+03</pdfrwt>
<totfact> 0.14126900E+04</totfact>
</mgrwt>
</event>
<event>
 4    0  0.1494699E-001  0.2936073E+03  0.7546771E-02  0.1088481E+00
         21   -1    0    0  503  501  0.00000000000E+00  0.00000000000E+00  0.80740429249E+03  0.80740429249E+03  0.00000000000E+00 0. -1.
         21   -1    0    0  501  502 -0.00000000000E+00 -0.00000000000E+00 -0.11002707469E+03  0.11002707469E+03  0.00000000000E+00 0. -1.
         25    1    1    2    0    0  0.15619946278E+03 -0.21489992914E+03  0.20545299232E+03  0.35835203888E+03  0.12500000000E+03 0.  0.
         21    1    1    2  503  502 -0.15619946278E+03  0.21489992914E+03  0.49192422548E+03  0.55907932830E+03  0.00000000000E+00 0. -1.
<mgrwt>
<rscale>  3 0.29360731E+03</rscale>
<asrwt>0</asrwt>
<pdfrwt beam="1">  1       21 0.12421604E+00 0.29360731E+03</pdfrwt>
<pdfrwt beam="2">  1       21 0.16927243E-01 0.29360731E+03</pdfrwt>
<totfact> 0.14392420E+04</totfact>
</mgrwt>
</event>
<event>
 4    0  0.1658593E-001  0.2587766E+03  0.7546771E-02  0.1107881E+00
         21   -1    0    0  502  501  0.00000000000E+00  0.00000000000E+00  0.26664732756E+03  0.26664732756E+03  0.00000000000E+00 0. -1.
         21   -1    0    0  503  502 -0.00000000000E+00 -0.00000000000E+00 -0.22086861024E+03  0.22086861024E+03  0.00000000000E+00 0. -1.
         25    1    1    2    0    0 -0.21222591005E+02 -0.22558794236E+03  0.23861552137E+02  0.25987437692E+03  0.12500000000E+03 0.  0.
         21    1    1    2  503  501  0.21222591005E+02  0.22558794236E+03  0.21917165185E+02  0.22764156088E+03  0.00000000000E+00 0. -1.
<mgrwt>
<rscale>  3 0.25877658E+03</rscale>
<asrwt>0</asrwt>
<pdfrwt beam="1">  1       21 0.41022666E-01 0.25877658E+03</pdfrwt>
<pdfrwt beam="2">  1       21 0.33979786E-01 0.25877658E+03</pdfrwt>
<totfact> 0.46377881E+04</totfact>
</mgrwt>
</event>
<event>
 4    0  0.1255722E-001  0.2467517E+03  0.7546771E-02  0.1115375E+00
         21   -1    0    0  503  501  0.00000000000E+00  0.00000000000E+00  0.20942495839E+03  0.20942495839E+03  0.00000000000E+00 0.  1.
         21   -1    0    0  501  502 -0.00000000000E+00 -0.00000000000E+00 -0.46566273498E+03  0.46566273498E+03  0.00000000000E+00 0.  1.
         25    1    1    2    0    0  0.16448090130E+02  0.21211054961E+03 -0.36153019512E+03  0.43771052867E+03  0.12500000000E+03 0.  0.
         21    1    1    2  503  502 -0.16448090130E+02 -0.21211054961E+03  0.10529241852E+03  0.23737716471E+03  0.00000000000E+00 0.  1.
<mgrwt>
<rscale>  3 0.24675175E+03</rscale>
<asrwt>0</asrwt>
<pdfrwt beam="1">  1       21 0.32219225E-01 0.24675175E+03</pdfrwt>
<pdfrwt beam="2">  1       21 0.71640420E-01 0.24675175E+03</pdfrwt>
<totfact> 0.15811337E+04</totfact>
</mgrwt>
</event>
<event>
 4    0  0.1234571E-001  0.2841518E+03  0.7546771E-02  0.1093443E+00
         21   -1    0    0  502  501  0.00000000000E+00  0.00000000000E+00  0.22485387579E+03  0.22485387579E+03  0.00000000000E+00 0. -1.
         21   -1    0    0  503  502 -0.00000000000E+00 -0.00000000000E+00 -0.62907610473E+03  0.62907610473E+03  0.00000000000E+00 0. -1.
         25    1    1    2    0    0  0.35278034740E+02  0.25273045006E+03 -0.50509345669E+03  0.57953569356E+03  0.12500000000E+03 0.  0.
         21    1    1    2  503  501 -0.35278034740E+02 -0.25273045006E+03  0.10087122775E+03  0.27439428695E+03  0.00000000000E+00 0. -1.
<mgrwt>
<rscale>  3 0.28415176E+03</rscale>
<asrwt>0</asrwt>
<pdfrwt beam="1">  1       21 0.34592904E-01 0.28415176E+03</pdfrwt>
<pdfrwt beam="2">  1       21 0.96780938E-01 0.28415176E+03</pdfrwt>
<totfact> 0.67412563E+03</totfact>
</mgrwt>
</event>
<event>
 4    0  0.1701886E-001  0.2914366E+03  0.7546771E-02  0.1089601E+00
         21   -1    0    0  502  501  0.00000000000E+00  0.00000000000E+00  0.56804398101E+03  0.56804398101E+03  0.00000000000E+00 0. -1.
         21   -1    0    0  503  502 -0.00000000000E+00 -0.00000000000E+00 -0.67838392249E+03  0.67838392249E+03  0.00000000000E+00 0.  1.
         25    1    1    2    0    0 -0.22366432043E+03 -0.13886892238E+03 -0.61313712646E+03  0.67887586618E+03  0.12500000000E+03 0.  0.
         21    1    1    2  503  501  0.22366432043E+03  0.13886892238E+03  0.50279718498E+03  0.56755203732E+03  0.00000000000E+00 0. -1.
<mgrwt>
<rscale>  3 0.29143662E+03</rscale>
<asrwt>0</asrwt>
<pdfrwt beam="1">  1       21 0.87391382E-01 0.29143662E+03</pdfrwt>
<pdfrwt beam="2">  1       21 0.10436676E+00 0.29143662E+03</pdfrwt>
<totfact> 0.76606071E+02</totfact>
</mgrwt>
</event>
<event>
 4    0  0.1482927E-001  0.3341426E+03  0.7546771E-02  0.1069318E+00
         21   -1    0    0  502  501  0.00000000000E+00  0.00000000000E+00  0.20307444561E+03  0.20307444561E+03  0.00000000000E+00 0.  1.
         21   -1    0    0  503  502 -0.00000000000E+00 -0.00000000000E+00 -0.54074914088E+03  0.54074914088E+03  0.00000000000E+00 0.  1.
         25    1    1    2    0    0  0.13021488027E+03 -0.28119452026E+03 -0.26258861817E+03  0.42497535889E+03  0.12500000000E+03 0.  0.
         21    1    1    2  503  501 -0.13021488027E+03  0.28119452026E+03 -0.75086077101E+02  0.31884822760E+03  0.00000000000E+00 0.  1.
<mgrwt>
<rscale>  3 0.33414259E+03</rscale>
<asrwt>0</asrwt>
<pdfrwt beam="1">  1       21 0.31242222E-01 0.33414259E+03</pdfrwt>
<pdfrwt beam="2">  1       21 0.83192176E-01 0.33414259E+03</pdfrwt>
<totfact> 0.11508629E+04</totfact>
</mgrwt>
</event>
<event>
 4    0  0.1604874E-001  0.2802932E+03  0.7546771E-02  0.1095529E+00
         21   -1    0    0  503  501  0.00000000000E+00  0.00000000000E+00  0.26773285575E+03  0.26773285575E+03  0.00000000000E+00 0. -1.
         21   -1    0    0  501  502 -0.00000000000E+00 -0.00000000000E+00 -0.26820284617E+03  0.26820284617E+03  0.00000000000E+00 0. -1.
         25    1    1    2    0    0 -0.20088531481E+03  0.15028096044E+03 -0.35848849150E+02  0.28257639102E+03  0.12500000000E+03 0.  0.
         21    1    1    2  503  502  0.20088531481E+03 -0.15028096044E+03  0.35378858735E+02  0.25335931090E+03  0.00000000000E+00 0. -1.
<mgrwt>
<rscale>  3 0.28029320E+03</rscale>
<asrwt>0</asrwt>
<pdfrwt beam="1">  1       21 0.41189670E-01 0.28029320E+03</pdfrwt>
<pdfrwt beam="2">  1       21 0.41261976E-01 0.28029320E+03</pdfrwt>
<totfact> 0.30820169E+04</totfact>
</mgrwt>
</event>
<event>
 4    0  0.1050655E-001  0.2652008E+03  0.7546771E-02  0.1104058E+00
         21   -1    0    0  502  501  0.00000000000E+00  0.00000000000E+00  0.16282255662E+03  0.16282255662E+03  0.00000000000E+00 0. -1.
         21   -1    0    0  503  502 -0.00000000000E+00 -0.00000000000E+00 -0.10192718276E+04  0.10192718276E+04  0.00000000000E+00 0. -1.
         25    1    1    2    0    0 -0.13015211638E+03 -0.19433707931E+03 -0.90513533433E+03  0.94318685702E+03  0.12500000000E+03 0.  0.
         21    1    1    2  503  501  0.13015211638E+03  0.19433707931E+03  0.48686063339E+02  0.23890752721E+03  0.00000000000E+00 0. -1.
<mgrwt>
<rscale>  3 0.26520082E+03</rscale>
<asrwt>0</asrwt>
<pdfrwt beam="1">  1       21 0.25049625E-01 0.26520082E+03</pdfrwt>
<pdfrwt beam="2">  1       21 0.15681105E+00 0.26520082E+03</pdfrwt>
<totfact> 0.37916136E+03</totfact>
</mgrwt>
</event>
<event>
 4    0  0.1220743E-001  0.3335541E+03  0.7546771E-02  0.1069575E+00
         21   -1    0    0  502  501  0.00000000000E+00  0.00000000000E+00  0.51800679418E+03  0.51800679418E+03  0.00000000000E+00 0. -1.
         21   -1    0    0  503  502 -0.00000000000E+00 -0.00000000000E+00 -0.22028017574E+03  0.22028017574E+03  0.00000000000E+00 0. -1.
         25    1    1    2    0    0  0.17124914383E+03  0.25750155128E+03  0.26749751935E+03  0.42756665098E+03  0.12500000000E+03 0.  0.
         21    1    1    2  503  501 -0.17124914383E+03 -0.25750155128E+03  0.30229099093E+02  0.31072031894E+03  0.00000000000E+00 0. -1.
<mgrwt>
<rscale>  3 0.33355407E+03</rscale>
<asrwt>0</asrwt>
<pdfrwt beam="1">  1       21 0.79693353E-01 0.33355407E+03</pdfrwt>
<pdfrwt beam="2">  1       21 0.33889258E-01 0.33355407E+03</pdfrwt>
<totfact> 0.10806292E+04</totfact>
</mgrwt>
</event>
<event>
 4    0  0.1005289E-001  0.3738498E+03  0.7546771E-02  0.1053231E+00
         21   -1    0    0  503  501  0.00000000000E+00  0.00000000000E+00  0.32380150938E+04  0.32380150938E+04  0.00000000000E+00 0. -1.
         21   -1    0    0  501  502 -0.00000000000E+00 -0.00000000000E+00 -0.56127291862E+02  0.56127291862E+02  0.00000000000E+00 0. -1.
         25    1    1    2    0    0  0.27798224728E+02 -0.35123484605E+03  0.76231487279E+03  0.84905101357E+03  0.12500000000E+03 0.  0.
         21    1    1    2  503  502 -0.27798224728E+02  0.35123484605E+03  0.24195729291E+04  0.24450913721E+04  0.00000000000E+00 0. -1.
<mgrwt>
<rscale>  3 0.37384978E+03</rscale>
<asrwt>0</asrwt>
<pdfrwt beam="1">  1       21 0.49815602E+00 0.37384978E+03</pdfrwt>
<pdfrwt beam="2">  1       21 0.86349705E-02 0.37384978E+03</pdfrwt>
<totfact> 0.16421384E+02</totfact>
</mgrwt>
</event>
<event>
 4    0  0.1005289E-001  0.2378685E+03  0.7546771E-02  0.1121221E+00
         21   -1    0    0  503  501  0.00000000000E+00  0.00000000000E+00  0.13138554214E+03  0.13138554214E+03  0.00000000000E+00 0.  1.
         21   -1    0    0  501  502 -0.00000000000E+00 -0.00000000000E+00 -0.44000921985E+03  0.44000921985E+03  0.00000000000E+00 0. -1.
         25    1    1    2    0    0  0.20236643430E+03  0.20622393219E+01 -0.27936378271E+03  0.36691354520E+03  0.12500000000E+03 0.  0.
         21    1    1    2  503  502 -0.20236643430E+03 -0.20622393219E+01 -0.29259895002E+02  0.20448121679E+03  0.00000000000E+00 0.  1.
<mgrwt>
<rscale>  3 0.23786851E+03</rscale>
<asrwt>0</asrwt>
<pdfrwt beam="1">  1       21 0.20213161E-01 0.23786851E+03</pdfrwt>
<pdfrwt beam="2">  1       21 0.67693725E-01 0.23786851E+03</pdfrwt>
<totfact> 0.44176469E+04</totfact>
</mgrwt>
</event>
<event>
 4    0  0.1005289E-001  0.2972390E+03  0.7546771E-02  0.1086629E+00
         21   -1    0    0  502  501  0.00000000000E+00  0.00000000000E+00  0.14489756402E+04  0.14489756402E+04  0.00000000000E+00 0.  1.
         21   -1    0    0  503  502 -0.00000000000E+00 -0.00000000000E+00 -0.22219183438E+03  0.22219183438E+03  0.00000000000E+00 0.  1.
         25    1    1    2    0    0  0.11804530780E+03  0.24246926001E+03 -0.10279726191E+03  0.31451281977E+03  0.12500000000E+03 0.  0.
         21    1    1    2  503  501 -0.11804530780E+03 -0.24246926001E+03  0.13295810678E+04  0.13566546548E+04  0.00000000000E+00 0.  1.
<mgrwt>
<rscale>  3 0.29723902E+03</rscale>
<asrwt>0</asrwt>
<pdfrwt beam="1">  1       21 0.22291932E+00 0.29723902E+03</pdfrwt>
<pdfrwt beam="2">  1       21 0.34183360E-01 0.29723902E+03</pdfrwt>
<totfact> 0.71911767E+02</totfact>
</mgrwt>
</event>
<event>
 4    0  0.1255832E-001  0.2488568E+03  0.7546771E-02  0.1114029E+00
         21   -1    0    0  503  501  0.00000000000E+00  0.00000000000E+00  0.51537912509E+02  0.51537912509E+02  0.00000000000E+00 0.  1.
         21   -1    0    0  501  502 -0.00000000000E+00 -0.00000000000E+00 -0.14082727925E+04  0.14082727925E+04  0.00000000000E+00 0.  1.
         25    1    1    2    0    0 -0.71071387879E+02  0.20310970121E+03 -0.10850981714E+04  0.11132689408E+04  0.12500000000E+03 0.  0.
         21    1    1    2  503  502  0.71071387879E+02 -0.20310970121E+03 -0.27163670854E+03  0.34654176419E+03  0.00000000000E+00 0.  1.
<mgrwt>
<rscale>  3 0.24885677E+03</rscale>
<asrwt>0</asrwt>
<pdfrwt beam="1">  1       21 0.79289105E-02 0.24885677E+03</pdfrwt>
<pdfrwt beam="2">  1       21 0.21665733E+00 0.24885677E+03</pdfrwt>
<totfact> 0.12313694E+04</totfact>
</mgrwt>
</event>
<event>
 4    0  0.1581281E-001  0.2758156E+03  0.7546771E-02  0.1097997E+00
         21   -1    0    0  503  501  0.00000000000E+00  0.00000000000E+00  0.10365473054E+03  0.10365473054E+03  0.00000000000E+00 0. -1.
         21   -1    0    0  501  502 -0.00000000000E+00 -0.00000000000E+00 -0.66565280649E+03  0.66565280649E+03  0.00000000000E+00 0. -1.
         25    1    1    2    0    0 -0.93151928353E+02  0.22753448858E+03 -0.25159504007E+03  0.37332866142E+03  0.12500000000E+03 0.  0.
         21    1    1    2  503  502  0.93151928353E+02 -0.22753448858E+03 -0.31040303588E+03  0.39597887561E+03  0.00000000000E+00 0. -1.
<mgrwt>
<rscale>  3 0.27581556E+03</rscale>
<asrwt>0</asrwt>
<pdfrwt beam="1">  1       21 0.15946881E-01 0.27581556E+03</pdfrwt>
<pdfrwt beam="2">  1       21 0.10240813E+00 0.27581556E+03</pdfrwt>
<totfact> 0.26081946E+04</totfact>
</mgrwt>
</event>
<event>
 4    0  0.1347688E-001  0.3830791E+03  0.7546771E-02  0.1049802E+00
         21   -1    0    0  502  501  0.00000000000E+00  0.00000000000E+00  0.12623707030E+03  0.12623707030E+03  0.00000000000E+00 0. -1.
         21   -1    0    0  503  502 -0.00000000000E+00 -0.00000000000E+00 -0.11190361668E+04  0.11190361668E+04  0.00000000000E+00 0. -1.
         25    1    1    2    0    0 -0.36112027620E+03  0.26772666698E+02 -0.59186799816E+03  0.70502294772E+03  0.12500000000E+03 0.  0.
         21    1    1    2  503  501  0.36112027620E+03 -0.26772666698E+02 -0.40093109836E+03  0.54025028940E+03  0.00000000000E+00 0. -1.
<mgrwt>
<rscale>  3 0.38307914E+03</rscale>
<asrwt>0</asrwt>
<pdfrwt beam="1">  1       21 0.19421087E-01 0.38307914E+03</pdfrwt>
<pdfrwt beam="2">  1       21 0.17215941E+00 0.38307914E+03</pdfrwt>
<totfact> 0.44633102E+03</totfact>
</mgrwt>
</event>
<event>
 4    0  0.1230479E-001  0.2441794E+03  0.7546771E-02  0.1117040E+00
         21   -1    0    0  502  501  0.00000000000E+00  0.00000000000E+00  0.80802677823E+02  0.80802677823E+02  0.00000000000E+00 0. -1.
         21   -1    0    0  503  502 -0.00000000000E+00 -0.00000000000E+00 -0.67720769492E+03  0.67720769492E+03  0.00000000000E+00 0. -1.
         25    1    1    2    0    0 -0.19439771079E+03 -0.78791634438E+02 -0.22800969761E+03  0.33408384251E+03  0.12500000000E+03 0.  0.
         21    1    1    2  503  501  0.19439771079E+03  0.78791634438E+02 -0.36839531949E+03  0.42392653024E+03  0.00000000000E+00 0. -1.
<mgrwt>
<rscale>  3 0.24417943E+03</rscale>
<asrwt>0</asrwt>
<pdfrwt beam="1">  1       21 0.12431181E-01 0.24417943E+03</pdfrwt>
<pdfrwt beam="2">  1       21 0.10418580E+00 0.24417943E+03</pdfrwt>
<totfact> 0.39961381E+04</totfact>
</mgrwt>
</event>
<event>
 4    0  0.1451118E-001  0.2422231E+03  0.7546771E-02  0.1118321E+00
         21   -1    0    0  502  501  0.00000000000E+00  0.00000000000E+00  0.16131520710E+03  0.16131520710E+03  0.00000000000E+00 0. -1.
         21   -1    0    0  503  502 -0.00000000000E+00 -0.00000000000E+00 -0.45567191236E+03  0.45567191236E+03  0.00000000000E+00 0. -1.
         25    1    1    2    0    0 -0.94556982133E+02  0.18467806070E+03 -0.32701678579E+03  0.40695452715E+03  0.12500000000E+03 0.  0.
         21    1    1    2  503  501  0.94556982133E+02 -0.18467806070E+03  0.32660080530E+02  0.21003259232E+03  0.00000000000E+00 0. -1.
<mgrwt>
<rscale>  3 0.24222306E+03</rscale>
<asrwt>0</asrwt>
<pdfrwt beam="1">  1       21 0.24817724E-01 0.24222306E+03</pdfrwt>
<pdfrwt beam="2">  1       21 0.70103371E-01 0.24222306E+03</pdfrwt>
<totfact> 0.27641916E+04</totfact>
</mgrwt>
</event>
<event>
 4    0  0.1005289E-001  0.3593906E+03  0.7546771E-02  0.1058825E+00
         21   -1    0    0  502  501  0.00000000000E+00  0.00000000000E+00  0.21422957757E+03  0.21422957757E+03  0.00000000000E+00 0.  1.
         21   -1    0    0  503  502 -0.00000000000E+00 -0.00000000000E+00 -0.17372620613E+04  0.17372620613E+04  0.00000000000E+00 0.  1.
         25    1    1    2    0    0 -0.11491144426E+03  0.31675226590E+03 -0.15706042173E+04  0.16111980776E+04  0.12500000000E+03 0.  0.
         21    1    1    2  503  501  0.11491144426E+03 -0.31675226590E+03  0.47571733576E+02  0.34029356122E+03  0.00000000000E+00 0.  1.
<mgrwt>
<rscale>  3 0.35939065E+03</rscale>
<asrwt>0</asrwt>
<pdfrwt beam="1">  1       21 0.32958398E-01 0.35939065E+03</pdfrwt>
<pdfrwt beam="2">  1       21 0.26727108E+00 0.35939065E+03</pdfrwt>
<totfact> 0.39646936E+02</totfact>
</mgrwt>
</event>
<event>
 4    0  0.1005289E-001  0.3146830E+03  0.7546771E-02  0.1078123E+00
         21   -1    0    0  502  501  0.00000000000E+00  0.00000000000E+00  0.27796272427E+03  0.27796272427E+03  0.00000000000E+00 0. -1.
         21   -1    0    0  503  502 -0.00000000000E+00 -0.00000000000E+00 -0.41206239019E+03  0.41206239019E+03  0.00000000000E+00 0.  1.
         25    1    1    2    0    0 -0.26774474574E+03 -0.10822739720E+03  0.86801351723E+02  0.32643512838E+03  0.12500000000E+03 0.  0.
         21    1    1    2  503  501  0.26774474574E+03  0.10822739720E+03 -0.22090101764E+03  0.36358998607E+03  0.00000000000E+00 0. -1.
<mgrwt>
<rscale>  3 0.31468304E+03</rscale>
<asrwt>0</asrwt>
<pdfrwt beam="1">  1       21 0.42763496E-01 0.31468304E+03</pdfrwt>
<pdfrwt beam="2">  1       21 0.63394213E-01 0.31468304E+03</pdfrwt>
<totfact> 0.11338196E+04</totfact>
</mgrwt>
</event>
<event>
 4    0  0.1657854E-001  0.2815702E+03  0.7546771E-02  0.1094834E+00
         21   -1    0    0  503  501  0.00000000000E+00  0.00000000000E+00  0.36749060393E+03  0.36749060393E+03  0.00000000000E+00 0.  1.
         21   -1    0    0  501  502 -0.00000000000E+00 -0.00000000000E+00 -0.19460701684E+03  0.19460701684E+03  0.00000000000E+00 0.  1.
         25    1    1    2    0    0 -0.81963815898E+01 -0.25216974105E+03  0.10812071647E+03  0.30161539799E+03  0.12500000000E+03 0.  0.
         21    1    1    2  503  502  0.81963815898E+01  0.25216974105E+03  0.64762870619E+02  0.26048222278E+03  0.00000000000E+00 0.  1.
<mgrwt>
<rscale>  3 0.28157017E+03</rscale>
<asrwt>0</asrwt>
<pdfrwt beam="1">  1       21 0.56537016E-01 0.28157017E+03</pdfrwt>
<pdfrwt beam="2">  1       21 0.29939541E-01 0.28157017E+03</pdfrwt>
<totfact> 0.30187596E+04</totfact>
</mgrwt>
</event>
<event>
 4    0  0.1312369E-001  0.2468665E+03  0.7546771E-02  0.1115301E+00
         21   -1    0    0  502  501  0.00000000000E+00  0.00000000000E+00  0.10058877962E+04  0.10058877962E+04  0.00000000000E+00 0. -1.
         21   -1    0    0  503  502 -0.00000000000E+00 -0.00000000000E+00 -0.65368783645E+02  0.65368783645E+02  0.00000000000E+00 0. -1.
         25    1    1    2    0    0  0.17799656662E+03  0.11677025323E+03  0.26136341267E+03  0.35951898872E+03  0.12500000000E+03 0.  0.
         21    1    1    2  503  501 -0.17799656662E+03 -0.11677025323E+03  0.67915559990E+03  0.71173759114E+03  0.00000000000E+00 0. -1.
<mgrwt>
<rscale>  3 0.24686650E+03</rscale>
<asrwt>0</asrwt>
<pdfrwt beam="1">  1       21 0.15475196E+00 0.24686650E+03</pdfrwt>
<pdfrwt beam="2">  1       21 0.10056737E-01 0.24686650E+03</pdfrwt>
<totfact> 0.21387925E+04</totfact>
</mgrwt>
</event>
<event>
 4    0  0.1005289E-001  0.3369840E+03  0.7546771E-02  0.1068088E+00
         21   -1    0    0  503  501  0.00000000000E+00  0.00000000000E+00  0.25702229922E+03  0.25702229922E+03  0.00000000000E+00 0. -1.
         21   -1    0    0  501  502 -0.00000000000E+00 -0.00000000000E+00 -0.21827257000E+04  0.21827257000E+04  0.00000000000E+00 0.  1.
         25    1    1    2    0    0  0.19318073443E+03 -0.24619994188E+03 -0.20684969140E+04  0.20957666117E+04  0.12500000000E+03 0.  0.
         21    1    1    2  503  502 -0.19318073443E+03  0.24619994188E+03  0.14279351322E+03  0.34398138751E+03  0.00000000000E+00 0. -1.
<mgrwt>
<rscale>  3 0.33698399E+03</rscale>
<asrwt>0</asrwt>
<pdfrwt beam="1">  1       21 0.39541893E-01 0.33698399E+03</pdfrwt>
<pdfrwt beam="2">  1       21 0.33580395E+00 0.33698399E+03</pdfrwt>
<totfact> 0.10908147E+02</totfact>
</mgrwt>
</event>
<event>
 4    0  0.1052306E-001  0.2379557E+03  0.7546771E-02  0.1121162E+00
         21   -1    0    0  503  501  0.00000000000E+00  0.00000000000E+00  0.34054420820E+03  0.34054420820E+03  0.00000000000E+00 0.  1.
         21   -1    0    0  501  502 -0.00000000000E+00 -0.00000000000E+00 -0.21099250284E+03  0.21099250284E+03  0.00000000000E+00 0. -1.
         25    1    1    2    0    0  0.14791631548E+03  0.13827031302E+03 -0.88585315443E+02  0.25390997216E+03  0.12500000000E+03 0.  0.
         21    1    1    2  503  502 -0.14791631548E+03 -0.13827031302E+03  0.21813702080E+03  0.29762673888E+03  0.00000000000E+00 0.  1.
<mgrwt>
<rscale>  3 0.23795570E+03</rscale>
<asrwt>0</asrwt>
<pdfrwt beam="1">  1       21 0.52391417E-01 0.23795570E+03</pdfrwt>
<pdfrwt beam="2">  1       21 0.32460385E-01 0.23795570E+03</pdfrwt>
<totfact> 0.30834680E+04</totfact>
</mgrwt>
</event>
<event>
 4    0  0.1005289E-001  0.2863212E+03  0.7546771E-02  0.1092286E+00
         21   -1    0    0  502  501  0.00000000000E+00  0.00000000000E+00  0.12084335849E+04  0.12084335849E+04  0.00000000000E+00 0.  1.
         21   -1    0    0  503  502 -0.00000000000E+00 -0.00000000000E+00 -0.58888785157E+03  0.58888785157E+03  0.00000000000E+00 0.  1.
         25    1    1    2    0    0  0.13715303702E+03  0.21804557872E+03 -0.53908366664E+03  0.61040235058E+03  0.12500000000E+03 0.  0.
         21    1    1    2  503  501 -0.13715303702E+03 -0.21804557872E+03  0.11586294000E+04  0.11869190859E+04  0.00000000000E+00 0.  1.
<mgrwt>
<rscale>  3 0.28632120E+03</rscale>
<asrwt>0</asrwt>
<pdfrwt beam="1">  1       21 0.18591286E+00 0.28632120E+03</pdfrwt>
<pdfrwt beam="2">  1       21 0.90598132E-01 0.28632120E+03</pdfrwt>
<totfact> 0.15484380E+02</totfact>
</mgrwt>
</event>
<event>
 4    0  0.1222197E-001  0.2385536E+03  0.7546771E-02  0.1120760E+00
         21   -1    0    0  503  501  0.00000000000E+00  0.00000000000E+00  0.52733607160E+03  0.52733607160E+03  0.00000000000E+00 0.  1.
         21   -1    0    0  501  502 -0.00000000000E+00 -0.00000000000E+00 -0.95294198853E+02  0.95294198853E+02  0.00000000000E+00 0.  1.
         25    1    1    2    0    0 -0.20226432540E+03 -0.19286643838E+02  0.17974202069E+03  0.29868884472E+03  0.12500000000E+03 0.  0.
         21    1    1    2  503  502  0.20226432540E+03  0.19286643838E+02  0.25229985205E+03  0.32394142573E+03  0.00000000000E+00 0.  1.
<mgrwt>
<rscale>  3 0.23855362E+03</rscale>
<asrwt>0</asrwt>
<pdfrwt beam="1">  1       21 0.81128625E-01 0.23855362E+03</pdfrwt>
<pdfrwt beam="2">  1       21 0.14660646E-01 0.23855362E+03</pdfrwt>
<totfact> 0.53351821E+04</totfact>
</mgrwt>
</event>
<event>
 4    0  0.1169317E-001  0.2620933E+03  0.7546771E-02  0.1105892E+00
         21   -1    0    0  503  501  0.00000000000E+00  0.00000000000E+00  0.20613057058E+03  0.20613057058E+03  0.00000000000E+00 0. -1.
         21   -1    0    0  501  502 -0.00000000000E+00 -0.00000000000E+00 -0.65769935040E+03  0.65769935040E+03  0.00000000000E+00 0. -1.
         25    1    1    2    0    0  0.45941801642E+02  0.22573715789E+03 -0.55312068753E+03  0.61207467565E+03  0.12500000000E+03 0.  0.
         21    1    1    2  503  502 -0.45941801642E+02 -0.22573715789E+03  0.10155190772E+03  0.25175524533E+03  0.00000000000E+00 0. -1.
<mgrwt>
<rscale>  3 0.26209333E+03</rscale>
<asrwt>0</asrwt>
<pdfrwt beam="1">  1       21 0.31712395E-01 0.26209333E+03</pdfrwt>
<pdfrwt beam="2">  1       21 0.10118452E+00 0.26209333E+03</pdfrwt>
<totfact> 0.72920358E+03</totfact>
</mgrwt>
</event>
<event>
 4    0  0.1335271E-001  0.2967406E+03  0.7546771E-02  0.1086881E+00
         21   -1    0    0  502  501  0.00000000000E+00  0.00000000000E+00  0.15314539155E+03  0.15314539155E+03  0.00000000000E+00 0. -1.
         21   -1    0    0  503  502 -0.00000000000E+00 -0.00000000000E+00 -0.11391845133E+04  0.11391845133E+04  0.00000000000E+00 0.  1.
         25    1    1    2    0    0  0.37571654911E+02 -0.26649265336E+03 -0.97913516919E+03  0.10231132113E+04  0.12500000000E+03 0.  0.
         21    1    1    2  503  501 -0.37571654911E+02  0.26649265336E+03 -0.69039525683E+01  0.26921669359E+03  0.00000000000E+00 0. -1.
<mgrwt>
<rscale>  3 0.29674057E+03</rscale>
<asrwt>0</asrwt>
<pdfrwt beam="1">  1       21 0.23560830E-01 0.29674057E+03</pdfrwt>
<pdfrwt beam="2">  1       21 0.17525915E+00 0.29674057E+03</pdfrwt>
<totfact> 0.30712144E+03</totfact>
</mgrwt>
</event>
<event>
 4    0  0.1310812E-001  0.3302870E+03  0.7546771E-02  0.1071010E+00
         21   -1    0    0  502  501  0.00000000000E+00  0.00000000000E+00  0.18309924633E+04  0.18309924633E+04  0.00000000000E+00 0.  1.
         21   -1    0    0  503  502 -0.00000000000E+00 -0.00000000000E+00 -0.20165757325E+03  0.20165757325E+03  0.00000000000E+00 0. -1.
         25    1    1    2    0    0  0.78028240408E+02 -0.29559450671E+03 -0.42573924171E+02  0.33301960561E+03  0.12500000000E+03 0.  0.
         21    1    1    2  503  501 -0.78028240408E+02  0.29559450671E+03  0.16719088142E+04  0.16996304310E+04  0.00000000000E+00 0.  1.
<mgrwt>
<rscale>  3 0.33028702E+03</rscale>
<asrwt>0</asrwt>
<pdfrwt beam="1">  1       21 0.28169114E+00 0.33028702E+03</pdfrwt>
<pdfrwt beam="2">  1       21 0.31024243E-01 0.33028702E+03</pdfrwt>
<totfact> 0.37497758E+02</totfact>
</mgrwt>
</event>
<event>
 4    0  0.1627232E-001  0.3058964E+03  0.7546771E-02  0.1082330E+00
         21   -1    0    0  502  501  0.00000000000E+00  0.00000000000E+00  0.32082865069E+03  0.32082865069E+03  0.00000000000E+00 0.  1.
         21   -1    0    0  503  502 -0.00000000000E+00 -0.00000000000E+00 -0.28431570758E+03  0.28431570758E+03  0.00000000000E+00 0.  1.
         25    1    1    2    0    0  0.27904090868E+03  0.91516881416E+01 -0.56090754725E+02  0.31099639046E+03  0.12500000000E+03 0.  0.
         21    1    1    2  503  501 -0.27904090868E+03 -0.91516881416E+01  0.92603697829E+02  0.29414796781E+03  0.00000000000E+00 0.  1.
<mgrwt>
<rscale>  3 0.30589636E+03</rscale>
<asrwt>0</asrwt>
<pdfrwt beam="1">  1       21 0.49358254E-01 0.30589636E+03</pdfrwt>
<pdfrwt beam="2">  1       21 0.43740878E-01 0.30589636E+03</pdfrwt>
<totfact> 0.18589427E+04</totfact>
</mgrwt>
</event>
<event>
 4    0  0.1247892E-001  0.2412406E+03  0.7546771E-02  0.1118969E+00
         21   -1    0    0  502  501  0.00000000000E+00  0.00000000000E+00  0.52581868139E+03  0.52581868139E+03  0.00000000000E+00 0. -1.
         21   -1    0    0  503  502 -0.00000000000E+00 -0.00000000000E+00 -0.42472112225E+03  0.42472112225E+03  0.00000000000E+00 0. -1.
         25    1    1    2    0    0  0.17504544529E+03 -0.10922966272E+03 -0.36688462725E+03  0.43909151307E+03  0.12500000000E+03 0.  0.
         21    1    1    2  503  501 -0.17504544529E+03  0.10922966272E+03  0.46798218640E+03  0.51144829057E+03  0.00000000000E+00 0. -1.
<mgrwt>
<rscale>  3 0.24124060E+03</rscale>
<asrwt>0</asrwt>
<pdfrwt beam="1">  1       21 0.80895182E-01 0.24124060E+03</pdfrwt>
<pdfrwt beam="2">  1       21 0.65341711E-01 0.24124060E+03</pdfrwt>
<totfact> 0.27813482E+03</totfact>
</mgrwt>
</event>
<event>
 4    0  0.1242923E-001  0.3347621E+03  0.7546771E-02  0.1069049E+00
         21   -1    0    0  502  501  0.00000000000E+00  0.00000000000E+00  0.88803209065E+03  0.88803209065E+03  0.00000000000E+00 0. -1.
         21   -1    0    0  503  502 -0.00000000000E+00 -0.00000000000E+00 -0.14160436473E+03  0.14160436473E+03  0.00000000000E+00 0. -1.
         25    1    1    2    0    0  0.98528920540E+02  0.29450422215E+03  0.17135405685E+03  0.37606900676E+03  0.12500000000E+03 0.  0.
         21    1    1    2  503  501 -0.98528920540E+02 -0.29450422215E+03  0.57507366907E+03  0.65356744863E+03  0.00000000000E+00 0. -1.
<mgrwt>
<rscale>  3 0.33476213E+03</rscale>
<asrwt>0</asrwt>
<pdfrwt beam="1">  1       21 0.13662032E+00 0.33476213E+03</pdfrwt>
<pdfrwt beam="2">  1       21 0.21785287E-01 0.33476213E+03</pdfrwt>
<totfact> 0.68808003E+03</totfact>
</mgrwt>
</event>
<event>
 4    0  0.1321704E-001  0.3071433E+03  0.7546771E-02  0.1081723E+00
         21   -1    0    0  502  501  0.00000000000E+00  0.00000000000E+00  0.90576358676E+02  0.90576358676E+02  0.00000000000E+00 0.  1.
         21   -1    0    0  503  502 -0.00000000000E+00 -0.00000000000E+00 -0.12745793871E+04  0.12745793871E+04  0.00000000000E+00 0.  1.
         25    1    1    2    0    0  0.27808300555E+03 -0.37173509174E+02 -0.95445890241E+03  0.10026608720E+04  0.12500000000E+03 0.  0.
         21    1    1    2  503  501 -0.27808300555E+03  0.37173509174E+02 -0.22954412602E+03  0.36249487383E+03  0.00000000000E+00 0.  1.
<mgrwt>
<rscale>  3 0.30714333E+03</rscale>
<asrwt>0</asrwt>
<pdfrwt beam="1">  1       21 0.13934825E-01 0.30714333E+03</pdfrwt>
<pdfrwt beam="2">  1       21 0.19608913E+00 0.30714333E+03</pdfrwt>
<totfact> 0.58788064E+03</totfact>
</mgrwt>
</event>
<event>
 4    0  0.1644369E-001  0.2664963E+03  0.7546771E-02  0.1103302E+00
         21   -1    0    0  503  501  0.00000000000E+00  0.00000000000E+00  0.33799734446E+03  0.33799734446E+03  0.00000000000E+00 0. -1.
         21   -1    0    0  501  502 -0.00000000000E+00 -0.00000000000E+00 -0.66607459298E+03  0.66607459298E+03  0.00000000000E+00 0.  1.
         25    1    1    2    0    0  0.16982427386E+03 -0.16295709977E+03 -0.59274084632E+03  0.64989384614E+03  0.12500000000E+03 0.  0.
         21    1    1    2  503  502 -0.16982427386E+03  0.16295709977E+03  0.26466359780E+03  0.35417809129E+03  0.00000000000E+00 0. -1.
<mgrwt>
<rscale>  3 0.26649634E+03</rscale>
<asrwt>0</asrwt>
<pdfrwt beam="1">  1       21 0.51999592E-01 0.26649634E+03</pdfrwt>
<pdfrwt beam="2">  1       21 0.10247301E+00 0.26649634E+03</pdfrwt>
<totfact> 0.25703113E+03</totfact>
</mgrwt>
</event>
<event>
 4    0  0.1005289E-001  0.4483192E+03  0.7546771E-02  0.1028224E+00
         21   -1    0    0  502  501  0.00000000000E+00  0.00000000000E+00  0.11501086386E+04  0.11501086386E+04  0.00000000000E+00 0.  1.
         21   -1    0    0  503  502 -0.00000000000E+00 -0.00000000000E+00 -0.29876310026E+03  0.29876310026E+03  0.00000000000E+00 0.  1.
         25    1    1    2    0    0 -0.15578804957E+03 -0.40136664254E+03 -0.48892290578E+02  0.45097733226E+03  0.12500000000E+03 0.  0.
         21    1    1    2  503  501  0.15578804957E+03  0.40136664254E+03  0.90023782897E+03  0.99789440665E+03  0.00000000000E+00 0.  1.
<mgrwt>
<rscale>  3 0.44831919E+03</rscale>
<asrwt>0</asrwt>
<pdfrwt beam="1">  1       21 0.17693979E+00 0.44831919E+03</pdfrwt>
<pdfrwt beam="2">  1       21 0.45963554E-01 0.44831919E+03</pdfrwt>
<totfact> 0.72329141E+02</totfact>
</mgrwt>
</event>
<event>
 4    0  0.1221929E-001  0.3421641E+03  0.7546771E-02  0.1065878E+00
         21   -1    0    0  503  501  0.00000000000E+00  0.00000000000E+00  0.28245709160E+03  0.28245709160E+03  0.00000000000E+00 0.  1.
         21   -1    0    0  501  502 -0.00000000000E+00 -0.00000000000E+00 -0.69508517992E+03  0.69508517992E+03  0.00000000000E+00 0.  1.
         25    1    1    2    0    0 -0.29583799270E+03 -0.11803027846E+03 -0.53605553963E+03  0.63594953111E+03  0.12500000000E+03 0.  0.
         21    1    1    2  503  502  0.29583799270E+03  0.11803027846E+03  0.12342745130E+03  0.34159274040E+03  0.00000000000E+00 0.  1.
<mgrwt>
<rscale>  3 0.34216409E+03</rscale>
<asrwt>0</asrwt>
<pdfrwt beam="1">  1       21 0.43454937E-01 0.34216409E+03</pdfrwt>
<pdfrwt beam="2">  1       21 0.10693618E+00 0.34216409E+03</pdfrwt>
<totfact> 0.32347716E+03</totfact>
</mgrwt>
</event>
<event>
 4    0  0.1019821E-001  0.2638517E+03  0.7546771E-02  0.1104851E+00
         21   -1    0    0  502  501  0.00000000000E+00  0.00000000000E+00  0.10103249214E+03  0.10103249214E+03  0.00000000000E+00 0.  1.
         21   -1    0    0  503  502 -0.00000000000E+00 -0.00000000000E+00 -0.14793673720E+04  0.14793673720E+04  0.00000000000E+00 0.  1.
         25    1    1    2    0    0 -0.20529754109E+03 -0.10883755299E+03 -0.13126861573E+04  0.13389408653E+04  0.12500000000E+03 0.  0.
         21    1    1    2  503  501  0.20529754109E+03  0.10883755299E+03 -0.65648722545E+02  0.24145899878E+03  0.00000000000E+00 0.  1.
<mgrwt>
<rscale>  3 0.26385165E+03</rscale>
<asrwt>0</asrwt>
<pdfrwt beam="1">  1       21 0.15543460E-01 0.26385165E+03</pdfrwt>
<pdfrwt beam="2">  1       21 0.22759498E+00 0.26385165E+03</pdfrwt>
<totfact> 0.31183358E+03</totfact>
</mgrwt>
</event>
<event>
 4    0  0.1005289E-001  0.2517813E+03  0.7546771E-02  0.1112184E+00
         21   -1    0    0  503  501  0.00000000000E+00  0.00000000000E+00  0.20461996283E+04  0.20461996283E+04  0.00000000000E+00 0. -1.
         21   -1    0    0  501  502 -0.00000000000E+00 -0.00000000000E+00 -0.30499324852E+02  0.30499324852E+02  0.00000000000E+00 0. -1.
         25    1    1    2    0    0  0.19869165296E+03 -0.91051904461E+02  0.72142252105E+03  0.76409703320E+03  0.12500000000E+03 0.  0.
         21    1    1    2  503  502 -0.19869165296E+03  0.91051904461E+02  0.12942777824E+04  0.13126019200E+04  0.00000000000E+00 0. -1.
<mgrwt>
<rscale>  3 0.25178130E+03</rscale>
<asrwt>0</asrwt>
<pdfrwt beam="1">  1       21 0.31479984E+00 0.25178130E+03</pdfrwt>
<pdfrwt beam="2">  1       21 0.46922054E-02 0.25178130E+03</pdfrwt>
<totfact> 0.79182350E+03</totfact>
</mgrwt>
</event>
<event>
 4    0  0.1238948E-001  0.3607747E+03  0.7546771E-02  0.1058278E+00
         21   -1    0    0  502  501  0.00000000000E+00  0.00000000000E+00  0.13276495439E+03  0.13276495439E+03  0.00000000000E+00 0.  1.
         21   -1    0    0  503  502 -0.00000000000E+00 -0.00000000000E+00 -0.98869580211E+03  0.98869580211E+03  0.00000000000E+00 0.  1.
         25    1    1    2    0    0  0.21642747801E+03 -0.26017789558E+03 -0.29359414566E+03  0.46514074531E+03  0.12500000000E+03 0.  0.
         21    1    1    2  503  501 -0.21642747801E+03  0.26017789558E+03 -0.56233670207E+03  0.65632001118E+03  0.00000000000E+00 0.  1.
<mgrwt>
<rscale>  3 0.36077471E+03</rscale>
<asrwt>0</asrwt>
<pdfrwt beam="1">  1       21 0.20425378E-01 0.36077471E+03</pdfrwt>
<pdfrwt beam="2">  1       21 0.15210704E+00 0.36077471E+03</pdfrwt>
<totfact> 0.57778891E+03</totfact>
</mgrwt>
</event>
<event>
 4    0  0.1309361E-001  0.3213647E+03  0.7546771E-02  0.1075023E+00
         21   -1    0    0  502  501  0.00000000000E+00  0.00000000000E+00  0.14931748373E+03  0.14931748373E+03  0.00000000000E+00 0.  1.
         21   -1    0    0  503  502 -0.00000000000E+00 -0.00000000000E+00 -0.16412175460E+04  0.16412175460E+04  0.00000000000E+00 0. -1.
         25    1    1    2    0    0  0.17615854294E+03  0.23794632498E+03 -0.14574730740E+04  0.14924821765E+04  0.12500000000E+03 0.  0.
         21    1    1    2  503  501 -0.17615854294E+03 -0.23794632498E+03 -0.34426988347E+02  0.29805285329E+03  0.00000000000E+00 0.  1.
<mgrwt>
<rscale>  3 0.32136472E+03</rscale>
<asrwt>0</asrwt>
<pdfrwt beam="1">  1       21 0.22971921E-01 0.32136472E+03</pdfrwt>
<pdfrwt beam="2">  1       21 0.25249501E+00 0.32136472E+03</pdfrwt>
<totfact> 0.10127555E+03</totfact>
</mgrwt>
</event>
<event>
 4    0  0.1674651E-001  0.2373841E+03  0.7546771E-02  0.1121548E+00
         21   -1    0    0  503  501  0.00000000000E+00  0.00000000000E+00  0.26835193760E+03  0.26835193760E+03  0.00000000000E+00 0.  1.
         21   -1    0    0  501  502 -0.00000000000E+00 -0.00000000000E+00 -0.44706525090E+03  0.44706525090E+03  0.00000000000E+00 0. -1.
         25    1    1    2    0    0  0.12287562850E+03 -0.16008679055E+03 -0.36853032292E+03  0.43836719711E+03  0.12500000000E+03 0.  0.
         21    1    1    2  503  502 -0.12287562850E+03  0.16008679055E+03  0.18981700962E+03  0.27704999139E+03  0.00000000000E+00 0.  1.
<mgrwt>
<rscale>  3 0.23738408E+03</rscale>
<asrwt>0</asrwt>
<pdfrwt beam="1">  1       21 0.41284914E-01 0.23738408E+03</pdfrwt>
<pdfrwt beam="2">  1       21 0.68779269E-01 0.23738408E+03</pdfrwt>
<totfact> 0.10576829E+04</totfact>
</mgrwt>
</event>
<event>
 4    0  0.1005289E-001  0.2534008E+03  0.7546771E-02  0.1111174E+00
         21   -1    0    0  502  501  0.00000000000E+00  0.00000000000E+00  0.13234036960E+03  0.13234036960E+03  0.00000000000E+00 0. -1.
         21   -1    0    0  503  502 -0.00000000000E+00 -0.00000000000E+00 -0.61125150139E+03  0.61125150139E+03  0.00000000000E+00 0. -1.
         25    1    1    2    0    0  0.19606286742E+03  0.10072882181E+03 -0.45646026043E+02  0.25747913162E+03  0.12500000000E+03 0.  0.
         21    1    1    2  503  501 -0.19606286742E+03 -0.10072882181E+03 -0.43326510574E+03  0.48611273937E+03  0.00000000000E+00 0. -1.
<mgrwt>
<rscale>  3 0.25340076E+03</rscale>
<asrwt>0</asrwt>
<pdfrwt beam="1">  1       21 0.20360057E-01 0.25340076E+03</pdfrwt>
<pdfrwt beam="2">  1       21 0.94038692E-01 0.25340076E+03</pdfrwt>
<totfact> 0.20479106E+04</totfact>
</mgrwt>
</event>
<event>
 4    0  0.1409786E-001  0.5110306E+03  0.7546771E-02  0.1010939E+00
         21   -1    0    0  502  501  0.00000000000E+00  0.00000000000E+00  0.64170194877E+03  0.64170194877E+03  0.00000000000E+00 0. -1.
         21   -1    0    0  503  502 -0.00000000000E+00 -0.00000000000E+00 -0.39572425822E+03  0.39572425822E+03  0.00000000000E+00 0. -1.
         25    1    1    2    0    0  0.46757554301E+03  0.16401328991E+03  0.15127253719E+03  0.53294993029E+03  0.12500000000E+03 0.  0.
         21    1    1    2  503  501 -0.46757554301E+03 -0.16401328991E+03  0.94705153348E+02  0.50447627670E+03  0.00000000000E+00 0. -1.
<mgrwt>
<rscale>  3 0.51103057E+03</rscale>
<asrwt>0</asrwt>
<pdfrwt beam="1">  1       21 0.98723376E-01 0.51103057E+03</pdfrwt>
<pdfrwt beam="2">  1       21 0.60880655E-01 0.51103057E+03</pdfrwt>
<totfact> 0.17904407E+03</totfact>
</mgrwt>
</event>
<event>
 4    0  0.1133889E-001  0.2713189E+03  0.7546771E-02  0.1100527E+00
         21   -1    0    0  503  501  0.00000000000E+00  0.00000000000E+00  0.85113478831E+02  0.85113478831E+02  0.00000000000E+00 0. -1.
         21   -1    0    0  501  502 -0.00000000000E+00 -0.00000000000E+00 -0.12420917255E+04  0.12420917255E+04  0.00000000000E+00 0. -1.
         25    1    1    2    0    0  0.78152437446E+01 -0.24068207259E+03 -0.10083681147E+04  0.10442318674E+04  0.12500000000E+03 0.  0.
         21    1    1    2  503  502 -0.78152437446E+01  0.24068207259E+03 -0.14861013196E+03  0.28297333694E+03  0.00000000000E+00 0. -1.
<mgrwt>
<rscale>  3 0.27131889E+03</rscale>
<asrwt>0</asrwt>
<pdfrwt beam="1">  1       21 0.13094381E-01 0.27131889E+03</pdfrwt>
<pdfrwt beam="2">  1       21 0.19109103E+00 0.27131889E+03</pdfrwt>
<totfact> 0.72614295E+03</totfact>
</mgrwt>
</event>
<event>
 4    0  0.1069554E-001  0.2834589E+03  0.7546771E-02  0.1093815E+00
         21   -1    0    0  503  501  0.00000000000E+00  0.00000000000E+00  0.45455809321E+02  0.45455809321E+02  0.00000000000E+00 0. -1.
         21   -1    0    0  501  502 -0.00000000000E+00 -0.00000000000E+00 -0.17463396989E+04  0.17463396989E+04  0.00000000000E+00 0. -1.
         25    1    1    2    0    0  0.10347237802E+03  0.23241652482E+03 -0.11590347735E+04  0.11931934379E+04  0.12500000000E+03 0.  0.
         21    1    1    2  503  502 -0.10347237802E+03 -0.23241652482E+03 -0.54184911609E+03  0.59860207035E+03  0.00000000000E+00 0. -1.
<mgrwt>
<rscale>  3 0.28345895E+03</rscale>
<asrwt>0</asrwt>
<pdfrwt beam="1">  1       21 0.69932020E-02 0.28345895E+03</pdfrwt>
<pdfrwt beam="2">  1       21 0.26866762E+00 0.28345895E+03</pdfrwt>
<totfact> 0.72515913E+03</totfact>
</mgrwt>
</event>
<event>
 4    0  0.1005289E-001  0.3645259E+03  0.7546771E-02  0.1056806E+00
         21   -1    0    0  502  501  0.00000000000E+00  0.00000000000E+00  0.87048647680E+02  0.87048647680E+02  0.00000000000E+00 0.  1.
         21   -1    0    0  503  502 -0.00000000000E+00 -0.00000000000E+00 -0.24247453328E+04  0.24247453328E+04  0.00000000000E+00 0. -1.
         25    1    1    2    0    0  0.30122030280E+03 -0.16285095863E+03 -0.19924944955E+04  0.20255649632E+04  0.12500000000E+03 0.  0.
         21    1    1    2  503  501 -0.30122030280E+03  0.16285095863E+03 -0.34520218968E+03  0.48622901734E+03  0.00000000000E+00 0.  1.
<mgrwt>
<rscale>  3 0.36452586E+03</rscale>
<asrwt>0</asrwt>
<pdfrwt beam="1">  1       21 0.13392102E-01 0.36452586E+03</pdfrwt>
<pdfrwt beam="2">  1       21 0.37303768E+00 0.36452586E+03</pdfrwt>
<totfact> 0.50810254E+02</totfact>
</mgrwt>
</event>
<event>
 4    0  0.1116431E-001  0.2673137E+03  0.7546771E-02  0.1102827E+00
         21   -1    0    0  502  501  0.00000000000E+00  0.00000000000E+00  0.41389191586E+02  0.41389191586E+02  0.00000000000E+00 0. -1.
         21   -1    0    0  503  502 -0.00000000000E+00 -0.00000000000E+00 -0.15852649582E+04  0.15852649582E+04  0.00000000000E+00 0. -1.
         25    1    1    2    0    0 -0.47754392450E+02  0.23141120464E+03 -0.66892226740E+03  0.72035659742E+03  0.12500000000E+03 0.  0.
         21    1    1    2  503  501  0.47754392450E+02 -0.23141120464E+03 -0.87495349924E+03  0.90629755238E+03  0.00000000000E+00 0. -1.
<mgrwt>
<rscale>  3 0.26731373E+03</rscale>
<asrwt>0</asrwt>
<pdfrwt beam="1">  1       21 0.63675674E-02 0.26731373E+03</pdfrwt>
<pdfrwt beam="2">  1       21 0.24388694E+00 0.26731373E+03</pdfrwt>
<totfact> 0.12128556E+04</totfact>
</mgrwt>
</event>
<event>
 4    0  0.1236073E-001  0.2404452E+03  0.7546771E-02  0.1119497E+00
         21   -1    0    0  503  501  0.00000000000E+00  0.00000000000E+00  0.84009552142E+03  0.84009552142E+03  0.00000000000E+00 0.  1.
         21   -1    0    0  501  502 -0.00000000000E+00 -0.00000000000E+00 -0.12978690459E+03  0.12978690459E+03  0.00000000000E+00 0.  1.
         25    1    1    2    0    0  0.20458737082E+03  0.18245000742E+02  0.10632158798E+02  0.24068010959E+03  0.12500000000E+03 0.  0.
         21    1    1    2  503  502 -0.20458737082E+03 -0.18245000742E+02  0.69967645803E+03  0.72920231642E+03  0.00000000000E+00 0.  1.
<mgrwt>
<rscale>  3 0.24044515E+03</rscale>
<asrwt>0</asrwt>
<pdfrwt beam="1">  1       21 0.12924546E+00 0.24044515E+03</pdfrwt>
<pdfrwt beam="2">  1       21 0.19967217E-01 0.24044515E+03</pdfrwt>
<totfact> 0.98327561E+03</totfact>
</mgrwt>
</event>
<event>
 4    0  0.1225445E-001  0.2536000E+03  0.7546771E-02  0.1111051E+00
         21   -1    0    0  502  501  0.00000000000E+00  0.00000000000E+00  0.43112348129E+03  0.43112348129E+03  0.00000000000E+00 0.  1.
         21   -1    0    0  503  502 -0.00000000000E+00 -0.00000000000E+00 -0.21770723097E+03  0.21770723097E+03  0.00000000000E+00 0. -1.
         25    1    1    2    0    0 -0.79822588497E+02 -0.20570927261E+03 -0.93967212895E+02  0.27044923289E+03  0.12500000000E+03 0.  0.
         21    1    1    2  503  501  0.79822588497E+02  0.20570927261E+03  0.30738346322E+03  0.37838147937E+03  0.00000000000E+00 0.  1.
<mgrwt>
<rscale>  3 0.25359998E+03</rscale>
<asrwt>0</asrwt>
<pdfrwt beam="1">  1       21 0.66326689E-01 0.25359998E+03</pdfrwt>
<pdfrwt beam="2">  1       21 0.33493420E-01 0.25359998E+03</pdfrwt>
<totfact> 0.17305792E+04</totfact>
</mgrwt>
</event>
<event>
 4    0  0.1005289E-001  0.4214244E+03  0.7546771E-02  0.1036604E+00
         21   -1    0    0  503  501  0.00000000000E+00  0.00000000000E+00  0.20419463764E+03  0.20419463764E+03  0.00000000000E+00 0. -1.
         21   -1    0    0  501  502 -0.00000000000E+00 -0.00000000000E+00 -0.94481096336E+03  0.94481096336E+03  0.00000000000E+00 0.  1.
         25    1    1    2    0    0 -0.39121029580E+03  0.94488339543E+02 -0.57710881182E+03  0.71459997379E+03  0.12500000000E+03 0.  0.
         21    1    1    2  503  502  0.39121029580E+03 -0.94488339543E+02 -0.16350751390E+03  0.43440562721E+03  0.00000000000E+00 0. -1.
<mgrwt>
<rscale>  3 0.42142442E+03</rscale>
<asrwt>0</asrwt>
<pdfrwt beam="1">  1       21 0.31414559E-01 0.42142442E+03</pdfrwt>
<pdfrwt beam="2">  1       21 0.14535553E+00 0.42142442E+03</pdfrwt>
<totfact> 0.27555998E+03</totfact>
</mgrwt>
</event>
<event>
 4    0  0.1121161E-001  0.3228587E+03  0.7546771E-02  0.1074341E+00
         21   -1    0    0  502  501  0.00000000000E+00  0.00000000000E+00  0.91398840281E+03  0.91398840281E+03  0.00000000000E+00 0.  1.
         21   -1    0    0  503  502 -0.00000000000E+00 -0.00000000000E+00 -0.34297244522E+03  0.34297244522E+03  0.00000000000E+00 0.  1.
         25    1    1    2    0    0  0.27994406124E+03 -0.10121298023E+03 -0.23395386296E+03  0.39871312342E+03  0.12500000000E+03 0.  0.
         21    1    1    2  503  501 -0.27994406124E+03  0.10121298023E+03  0.80496982055E+03  0.85824772461E+03  0.00000000000E+00 0.  1.
<mgrwt>
<rscale>  3 0.32285871E+03</rscale>
<asrwt>0</asrwt>
<pdfrwt beam="1">  1       21 0.14061360E+00 0.32285871E+03</pdfrwt>
<pdfrwt beam="2">  1       21 0.52764992E-01 0.32285871E+03</pdfrwt>
<totfact> 0.10870775E+03</totfact>
</mgrwt>
</event>
<event>
 4    0  0.1005289E-001  0.2739758E+03  0.7546771E-02  0.1099025E+00
         21   -1    0    0  502  501  0.00000000000E+00  0.00000000000E+00  0.12294228872E+03  0.12294228872E+03  0.00000000000E+00 0. -1.
         21   -1    0    0  503  502 -0.00000000000E+00 -0.00000000000E+00 -0.64585970536E+03  0.64585970536E+03  0.00000000000E+00 0.  1.
         25    1    1    2    0    0  0.18787565122E+03 -0.15537201466E+03 -0.42589267811E+03  0.50640625641E+03  0.12500000000E+03 0.  0.
         21    1    1    2  503  501 -0.18787565122E+03  0.15537201466E+03 -0.97024738523E+02  0.26239573767E+03  0.00000000000E+00 0. -1.
<mgrwt>
<rscale>  3 0.27397577E+03</rscale>
<asrwt>0</asrwt>
<pdfrwt beam="1">  1       21 0.18914198E-01 0.27397577E+03</pdfrwt>
<pdfrwt beam="2">  1       21 0.99363031E-01 0.27397577E+03</pdfrwt>
<totfact> 0.20440466E+04</totfact>
</mgrwt>
</event>
<event>
 4    0  0.1255777E-001  0.3024235E+03  0.7546771E-02  0.1084035E+00
         21   -1    0    0  503  501  0.00000000000E+00  0.00000000000E+00  0.35799615432E+03  0.35799615432E+03  0.00000000000E+00 0.  1.
         21   -1    0    0  501  502 -0.00000000000E+00 -0.00000000000E+00 -0.25039799503E+03  0.25039799503E+03  0.00000000000E+00 0.  1.
         25    1    1    2    0    0  0.27430718251E+03  0.24300777114E+02  0.13591382527E+03  0.33156074262E+03  0.12500000000E+03 0.  0.
         21    1    1    2  503  502 -0.27430718251E+03 -0.24300777114E+02 -0.28315665977E+02  0.27683340673E+03  0.00000000000E+00 0.  1.
<mgrwt>
<rscale>  3 0.30242347E+03</rscale>
<asrwt>0</asrwt>
<pdfrwt beam="1">  1       21 0.55076332E-01 0.30242347E+03</pdfrwt>
<pdfrwt beam="2">  1       21 0.38522768E-01 0.30242347E+03</pdfrwt>
<totfact> 0.19139905E+04</totfact>
</mgrwt>
</event>
<event>
 4    0  0.1005289E-001  0.3095428E+03  0.7546771E-02  0.1080565E+00
         21   -1    0    0  502  501  0.00000000000E+00  0.00000000000E+00  0.16297569890E+04  0.16297569890E+04  0.00000000000E+00 0.  1.
         21   -1    0    0  503  502 -0.00000000000E+00 -0.00000000000E+00 -0.10855491222E+03  0.10855491222E+03  0.00000000000E+00 0.  1.
         25    1    1    2    0    0  0.28317973219E+03 -0.10057573371E+01  0.16093198323E+03  0.34887802381E+03  0.12500000000E+03 0.  0.
         21    1    1    2  503  501 -0.28317973219E+03  0.10057573371E+01  0.13602700935E+04  0.13894338774E+04  0.00000000000E+00 0.  1.
<mgrwt>
<rscale>  3 0.30954284E+03</rscale>
<asrwt>0</asrwt>
<pdfrwt beam="1">  1       21 0.25073183E+00 0.30954284E+03</pdfrwt>
<pdfrwt beam="2">  1       21 0.16700757E-01 0.30954284E+03</pdfrwt>
<totfact> 0.19094288E+03</totfact>
</mgrwt>
</event>
<event>
 4    0  0.1468370E-001  0.2397959E+03  0.7546771E-02  0.1119929E+00
         21   -1    0    0  503  501  0.00000000000E+00  0.00000000000E+00  0.21617371663E+03  0.21617371663E+03  0.00000000000E+00 0.  1.
         21   -1    0    0  501  502 -0.00000000000E+00 -0.00000000000E+00 -0.22874179635E+03  0.22874179635E+03  0.00000000000E+00 0.  1.
         25    1    1    2    0    0  0.66993565629E+01  0.20452915484E+03  0.14075765800E+01  0.23979999547E+03  0.12500000000E+03 0.  0.
         21    1    1    2  503  502 -0.66993565629E+01 -0.20452915484E+03 -0.13975656299E+02  0.20511551752E+03  0.00000000000E+00 0.  1.
<mgrwt>
<rscale>  3 0.23979586E+03</rscale>
<asrwt>0</asrwt>
<pdfrwt beam="1">  1       21 0.33257495E-01 0.23979586E+03</pdfrwt>
<pdfrwt beam="2">  1       21 0.35191046E-01 0.23979586E+03</pdfrwt>
<totfact> 0.66442178E+04</totfact>
</mgrwt>
</event>
<event>
 4    0  0.1005289E-001  0.2412361E+03  0.7546771E-02  0.1118972E+00
         21   -1    0    0  502  501  0.00000000000E+00  0.00000000000E+00  0.34546342761E+02  0.34546342761E+02  0.00000000000E+00 0.  1.
         21   -1    0    0  503  502 -0.00000000000E+00 -0.00000000000E+00 -0.14864670730E+04  0.14864670730E+04  0.00000000000E+00 0.  1.
         25    1    1    2    0    0 -0.18315081877E+03 -0.95003378557E+02 -0.66173598782E+03  0.70433612852E+03  0.12500000000E+03 0.  0.
         21    1    1    2  503  501  0.18315081877E+03  0.95003378557E+02 -0.79018474242E+03  0.81667728725E+03  0.00000000000E+00 0.  1.
<mgrwt>
<rscale>  3 0.24123612E+03</rscale>
<asrwt>0</asrwt>
<pdfrwt beam="1">  1       21 0.53148227E-02 0.24123612E+03</pdfrwt>
<pdfrwt beam="2">  1       21 0.22868721E+00 0.24123612E+03</pdfrwt>
<totfact> 0.20824733E+04</totfact>
</mgrwt>
</event>
<event>
 4    0  0.1205492E-001  0.3152775E+03  0.7546771E-02  0.1077843E+00
         21   -1    0    0  502  501  0.00000000000E+00  0.00000000000E+00  0.74297154943E+02  0.74297154943E+02  0.00000000000E+00 0.  1.
         21   -1    0    0  503  502 -0.00000000000E+00 -0.00000000000E+00 -0.12412463699E+04  0.12412463699E+04  0.00000000000E+00 0.  1.
         25    1    1    2    0    0 -0.16809560341E+03 -0.23562418501E+03 -0.66942030001E+03  0.73994825935E+03  0.12500000000E+03 0.  0.
         21    1    1    2  503  501  0.16809560341E+03  0.23562418501E+03 -0.49752891491E+03  0.57559526546E+03  0.00000000000E+00 0.  1.
<mgrwt>
<rscale>  3 0.31527748E+03</rscale>
<asrwt>0</asrwt>
<pdfrwt beam="1">  1       21 0.11430331E-01 0.31527748E+03</pdfrwt>
<pdfrwt beam="2">  1       21 0.19096099E+00 0.31527748E+03</pdfrwt>
<totfact> 0.90750173E+03</totfact>
</mgrwt>
</event>
<event>
 4    0  0.1129441E-001  0.2425043E+03  0.7546771E-02  0.1118136E+00
         21   -1    0    0  502  501  0.00000000000E+00  0.00000000000E+00  0.85739352290E+02  0.85739352290E+02  0.00000000000E+00 0.  1.
         21   -1    0    0  503  502 -0.00000000000E+00 -0.00000000000E+00 -0.12258756392E+04  0.12258756392E+04  0.00000000000E+00 0.  1.
         25    1    1    2    0    0 -0.78041825874E+01  0.20765939037E+03 -0.10624310356E+04  0.10897559512E+04  0.12500000000E+03 0.  0.
         21    1    1    2  503  501  0.78041825874E+01 -0.20765939037E+03 -0.77705251238E+02  0.22185904026E+03  0.00000000000E+00 0.  1.
<mgrwt>
<rscale>  3 0.24250428E+03</rscale>
<asrwt>0</asrwt>
<pdfrwt beam="1">  1       21 0.13190670E-01 0.24250428E+03</pdfrwt>
<pdfrwt beam="2">  1       21 0.18859625E+00 0.24250428E+03</pdfrwt>
<totfact> 0.75884925E+03</totfact>
</mgrwt>
</event>
<event>
 4    0  0.1710231E-001  0.2456919E+03  0.7546771E-02  0.1116058E+00
         21   -1    0    0  503  501  0.00000000000E+00  0.00000000000E+00  0.19660979243E+03  0.19660979243E+03  0.00000000000E+00 0.  1.
         21   -1    0    0  501  502 -0.00000000000E+00 -0.00000000000E+00 -0.88261185526E+03  0.88261185526E+03  0.00000000000E+00 0. -1.
         25    1    1    2    0    0  0.15187805004E+03  0.14721603516E+03 -0.80143964502E+03  0.83825414267E+03  0.12500000000E+03 0.  0.
         21    1    1    2  503  502 -0.15187805004E+03 -0.14721603516E+03  0.11543758219E+03  0.24096750502E+03  0.00000000000E+00 0.  1.
<mgrwt>
<rscale>  3 0.24569189E+03</rscale>
<asrwt>0</asrwt>
<pdfrwt beam="1">  1       21 0.30247660E-01 0.24569189E+03</pdfrwt>
<pdfrwt beam="2">  1       21 0.13578644E+00 0.24569189E+03</pdfrwt>
<totfact> 0.38954316E+03</totfact>
</mgrwt>
</event>
<event>
 4    0  0.1390176E-001  0.2497336E+03  0.7546771E-02  0.1113473E+00
         21   -1    0    0  502  501  0.00000000000E+00  0.00000000000E+00  0.33412078703E+03  0.33412078703E+03  0.00000000000E+00 0. -1.
         21   -1    0    0  503  502 -0.00000000000E+00 -0.00000000000E+00 -0.21492452567E+03  0.21492452567E+03  0.00000000000E+00 0. -1.
         25    1    1    2    0    0  0.68175028276E+02  0.20516835386E+03 -0.72558991174E+02  0.26006094499E+03  0.12500000000E+03 0.  0.
         21    1    1    2  503  501 -0.68175028276E+02 -0.20516835386E+03  0.19175525254E+03  0.28898436772E+03  0.00000000000E+00 0. -1.
<mgrwt>
<rscale>  3 0.24973363E+03</rscale>
<asrwt>0</asrwt>
<pdfrwt beam="1">  1       21 0.51403198E-01 0.24973363E+03</pdfrwt>
<pdfrwt beam="2">  1       21 0.33065312E-01 0.24973363E+03</pdfrwt>
<totfact> 0.30782248E+04</totfact>
</mgrwt>
</event>
<event>
 4    0  0.1502313E-001  0.2981633E+03  0.7546771E-02  0.1086162E+00
         21   -1    0    0  502  501  0.00000000000E+00  0.00000000000E+00  0.59655550145E+03  0.59655550145E+03  0.00000000000E+00 0. -1.
         21   -1    0    0  503  502 -0.00000000000E+00 -0.00000000000E+00 -0.14208111195E+03  0.14208111195E+03  0.00000000000E+00 0. -1.
         25    1    1    2    0    0 -0.22138576415E+03 -0.15577120394E+03  0.15899354819E+03  0.33790571601E+03  0.12500000000E+03 0.  0.
         21    1    1    2  503  501  0.22138576415E+03  0.15577120394E+03  0.29548084131E+03  0.40073089739E+03  0.00000000000E+00 0. -1.
<mgrwt>
<rscale>  3 0.29816325E+03</rscale>
<asrwt>0</asrwt>
<pdfrwt beam="1">  1       21 0.91777768E-01 0.29816325E+03</pdfrwt>
<pdfrwt beam="2">  1       21 0.21858633E-01 0.29816325E+03</pdfrwt>
<totfact> 0.18581305E+04</totfact>
</mgrwt>
</event>
<event>
 4    0  0.1166034E-001  0.3270968E+03  0.7546771E-02  0.1072429E+00
         21   -1    0    0  502  501  0.00000000000E+00  0.00000000000E+00  0.76621180572E+03  0.76621180572E+03  0.00000000000E+00 0. -1.
         21   -1    0    0  503  502 -0.00000000000E+00 -0.00000000000E+00 -0.23814048720E+03  0.23814048720E+03  0.00000000000E+00 0. -1.
         25    1    1    2    0    0 -0.24003254620E+03 -0.18371639402E+03 -0.69756929387E+02  0.33445233721E+03  0.12500000000E+03 0.  0.
         21    1    1    2  503  501  0.24003254620E+03  0.18371639402E+03  0.59782824791E+03  0.66989995571E+03  0.00000000000E+00 0. -1.
<mgrwt>
<rscale>  3 0.32709683E+03</rscale>
<asrwt>0</asrwt>
<pdfrwt beam="1">  1       21 0.11787874E+00 0.32709683E+03</pdfrwt>
<pdfrwt beam="2">  1       21 0.36636998E-01 0.32709683E+03</pdfrwt>
<totfact> 0.36327481E+03</totfact>
</mgrwt>
</event>
<event>
 4    0  0.1099689E-001  0.2476345E+03  0.7546771E-02  0.1114809E+00
         21   -1    0    0  503  501  0.00000000000E+00  0.00000000000E+00  0.20292956236E+03  0.20292956236E+03  0.00000000000E+00 0. -1.
         21   -1    0    0  501  502 -0.00000000000E+00 -0.00000000000E+00 -0.85129961992E+03  0.85129961992E+03  0.00000000000E+00 0. -1.
         25    1    1    2    0    0 -0.20904043449E+03  0.44720625803E+02 -0.76961144309E+03  0.80847053809E+03  0.12500000000E+03 0.  0.
         21    1    1    2  503  502  0.20904043449E+03 -0.44720625803E+02  0.12124138554E+03  0.24575864419E+03  0.00000000000E+00 0. -1.
<mgrwt>
<rscale>  3 0.24763448E+03</rscale>
<asrwt>0</asrwt>
<pdfrwt beam="1">  1       21 0.31219932E-01 0.24763448E+03</pdfrwt>
<pdfrwt beam="2">  1       21 0.13096917E+00 0.24763448E+03</pdfrwt>
<totfact> 0.40097596E+03</totfact>
</mgrwt>
</event>
<event>
 4    0  0.1005289E-001  0.2436729E+03  0.7546771E-02  0.1117370E+00
         21   -1    0    0  503  501  0.00000000000E+00  0.00000000000E+00  0.55132967655E+02  0.55132967655E+02  0.00000000000E+00 0. -1.
         21   -1    0    0  501  502 -0.00000000000E+00 -0.00000000000E+00 -0.21040703467E+04  0.21040703467E+04  0.00000000000E+00 0. -1.
         25    1    1    2    0    0 -0.20312570510E+03  0.49914188050E+02 -0.18644320548E+04  0.18802881069E+04  0.12500000000E+03 0.  0.
         21    1    1    2  503  502  0.20312570510E+03 -0.49914188050E+02 -0.18450532426E+03  0.27891520740E+03  0.00000000000E+00 0. -1.
<mgrwt>
<rscale>  3 0.24367289E+03</rscale>
<asrwt>0</asrwt>
<pdfrwt beam="1">  1       21 0.84819951E-02 0.24367289E+03</pdfrwt>
<pdfrwt beam="2">  1       21 0.32370313E+00 0.24367289E+03</pdfrwt>
<totfact> 0.25450377E+03</totfact>
</mgrwt>
</event>
<event>
 4    0  0.1176291E-001  0.2384953E+03  0.7546771E-02  0.1120799E+00
         21   -1    0    0  503  501  0.00000000000E+00  0.00000000000E+00  0.13926822489E+04  0.13926822489E+04  0.00000000000E+00 0. -1.
         21   -1    0    0  501  502 -0.00000000000E+00 -0.00000000000E+00 -0.42202955817E+02  0.42202955817E+02  0.00000000000E+00 0. -1.
         25    1    1    2    0    0 -0.19815196167E+03  0.44618294826E+02  0.42466843513E+03  0.48705571749E+03  0.12500000000E+03 0.  0.
         21    1    1    2  503  502  0.19815196167E+03 -0.44618294826E+02  0.92581085795E+03  0.94782948722E+03  0.00000000000E+00 0. -1.
<mgrwt>
<rscale>  3 0.23849527E+03</rscale>
<asrwt>0</asrwt>
<pdfrwt beam="1">  1       21 0.21425877E+00 0.23849527E+03</pdfrwt>
<pdfrwt beam="2">  1       21 0.64927635E-02 0.23849527E+03</pdfrwt>
<totfact> 0.18168282E+04</totfact>
</mgrwt>
</event>
<event>
 4    0  0.1302588E-001  0.4321716E+03  0.7546771E-02  0.1033176E+00
         21   -1    0    0  502  501  0.00000000000E+00  0.00000000000E+00  0.90562412024E+03  0.90562412024E+03  0.00000000000E+00 0. -1.
         21   -1    0    0  503  502 -0.00000000000E+00 -0.00000000000E+00 -0.22992490444E+03  0.22992490444E+03  0.00000000000E+00 0. -1.
         25    1    1    2    0    0 -0.15539909970E+03 -0.38340376152E+03  0.13106398343E+03  0.45160833948E+03  0.12500000000E+03 0.  0.
         21    1    1    2  503  501  0.15539909970E+03  0.38340376152E+03  0.54463523237E+03  0.68394068520E+03  0.00000000000E+00 0. -1.
<mgrwt>
<rscale>  3 0.43217164E+03</rscale>
<asrwt>0</asrwt>
<pdfrwt beam="1">  1       21 0.13932679E+00 0.43217164E+03</pdfrwt>
<pdfrwt beam="2">  1       21 0.35373063E-01 0.43217164E+03</pdfrwt>
<totfact> 0.24204327E+03</totfact>
</mgrwt>
</event>
<event>
 4    0  0.1005289E-001  0.3243538E+03  0.7546771E-02  0.1073663E+00
         21   -1    0    0  502  501  0.00000000000E+00  0.00000000000E+00  0.68549602827E+03  0.68549602827E+03  0.00000000000E+00 0. -1.
         21   -1    0    0  503  502 -0.00000000000E+00 -0.00000000000E+00 -0.14252660983E+03  0.14252660983E+03  0.00000000000E+00 0.  1.
         25    1    1    2    0    0 -0.28532979153E+01 -0.29928619574E+03  0.25378525775E+03  0.41184016963E+03  0.12500000000E+03 0.  0.
         21    1    1    2  503  501  0.28532979153E+01  0.29928619574E+03  0.28918416069E+03  0.41618246847E+03  0.00000000000E+00 0. -1.
<mgrwt>
<rscale>  3 0.32435377E+03</rscale>
<asrwt>0</asrwt>
<pdfrwt beam="1">  1       21 0.10546093E+00 0.32435377E+03</pdfrwt>
<pdfrwt beam="2">  1       21 0.21927171E-01 0.32435377E+03</pdfrwt>
<totfact> 0.13096997E+04</totfact>
</mgrwt>
</event>
<event>
 4    0  0.1412834E-001  0.3002156E+03  0.7546771E-02  0.1085133E+00
         21   -1    0    0  502  501  0.00000000000E+00  0.00000000000E+00  0.10550384895E+03  0.10550384895E+03  0.00000000000E+00 0.  1.
         21   -1    0    0  503  502 -0.00000000000E+00 -0.00000000000E+00 -0.95904768571E+03  0.95904768571E+03  0.00000000000E+00 0.  1.
         25    1    1    2    0    0  0.21407011636E+03  0.16934694604E+03 -0.67400473164E+03  0.73784265337E+03  0.12500000000E+03 0.  0.
         21    1    1    2  503  501 -0.21407011636E+03 -0.16934694604E+03 -0.17953910511E+03  0.32670888129E+03  0.00000000000E+00 0.  1.
<mgrwt>
<rscale>  3 0.30021559E+03</rscale>
<asrwt>0</asrwt>
<pdfrwt beam="1">  1       21 0.16231362E-01 0.30021559E+03</pdfrwt>
<pdfrwt beam="2">  1       21 0.14754579E+00 0.30021559E+03</pdfrwt>
<totfact> 0.99225223E+03</totfact>
</mgrwt>
</event>
<event>
 4    0  0.1005289E-001  0.2509932E+03  0.7546771E-02  0.1112679E+00
         21   -1    0    0  503  501  0.00000000000E+00  0.00000000000E+00  0.25032744577E+04  0.25032744577E+04  0.00000000000E+00 0. -1.
         21   -1    0    0  501  502 -0.00000000000E+00 -0.00000000000E+00 -0.50810317073E+02  0.50810317073E+02  0.00000000000E+00 0.  1.
         25    1    1    2    0    0  0.21268757255E+03  0.46223404632E+02  0.30222563253E+03  0.39285867638E+03  0.12500000000E+03 0.  0.
         21    1    1    2  503  502 -0.21268757255E+03 -0.46223404632E+02  0.21502385081E+04  0.21612260984E+04  0.00000000000E+00 0. -1.
<mgrwt>
<rscale>  3 0.25099324E+03</rscale>
<asrwt>0</asrwt>
<pdfrwt beam="1">  1       21 0.38511905E+00 0.25099324E+03</pdfrwt>
<pdfrwt beam="2">  1       21 0.78169738E-02 0.25099324E+03</pdfrwt>
<totfact> 0.12458821E+03</totfact>
</mgrwt>
</event>
<event>
 4    0  0.1343006E-001  0.2969963E+03  0.7546771E-02  0.1086752E+00
         21   -1    0    0  503  501  0.00000000000E+00  0.00000000000E+00  0.10906364148E+04  0.10906364148E+04  0.00000000000E+00 0.  1.
         21   -1    0    0  501  502 -0.00000000000E+00 -0.00000000000E+00 -0.90856108607E+02  0.90856108607E+02  0.00000000000E+00 0.  1.
         25    1    1    2    0    0 -0.63080687873E+02 -0.26192103695E+03  0.26193609047E+03  0.39600166448E+03  0.12500000000E+03 0.  0.
         21    1    1    2  503  502  0.63080687873E+02  0.26192103695E+03  0.73784421568E+03  0.78549085889E+03  0.00000000000E+00 0.  1.
<mgrwt>
<rscale>  3 0.29699630E+03</rscale>
<asrwt>0</asrwt>
<pdfrwt beam="1">  1       21 0.16779021E+00 0.29699630E+03</pdfrwt>
<pdfrwt beam="2">  1       21 0.13977864E-01 0.29699630E+03</pdfrwt>
<totfact> 0.92166934E+03</totfact>
</mgrwt>
</event>
<event>
 4    0  0.1005289E-001  0.3212410E+03  0.7546771E-02  0.1075080E+00
         21   -1    0    0  503  501  0.00000000000E+00  0.00000000000E+00  0.78476399735E+02  0.78476399735E+02  0.00000000000E+00 0.  1.
         21   -1    0    0  501  502 -0.00000000000E+00 -0.00000000000E+00 -0.20224879572E+04  0.20224879572E+04  0.00000000000E+00 0. -1.
         25    1    1    2    0    0 -0.17996754292E+02 -0.29537582987E+03 -0.16600152677E+04  0.16908123648E+04  0.12500000000E+03 0.  0.
         21    1    1    2  503  502  0.17996754292E+02  0.29537582987E+03 -0.28399628977E+03  0.41015199212E+03  0.00000000000E+00 0.  1.
<mgrwt>
<rscale>  3 0.32124098E+03</rscale>
<asrwt>0</asrwt>
<pdfrwt beam="1">  1       21 0.12073292E-01 0.32124098E+03</pdfrwt>
<pdfrwt beam="2">  1       21 0.31115199E+00 0.32124098E+03</pdfrwt>
<totfact> 0.15014955E+03</totfact>
</mgrwt>
</event>
<event>
 4    0  0.1604991E-001  0.2731873E+03  0.7546771E-02  0.1099469E+00
         21   -1    0    0  502  501  0.00000000000E+00  0.00000000000E+00  0.46074609776E+03  0.46074609776E+03  0.00000000000E+00 0.  1.
         21   -1    0    0  503  502 -0.00000000000E+00 -0.00000000000E+00 -0.17784137281E+03  0.17784137281E+03  0.00000000000E+00 0.  1.
         25    1    1    2    0    0 -0.18649168056E+03 -0.15565072331E+03  0.10192168580E+02  0.27337734888E+03  0.12500000000E+03 0.  0.
         21    1    1    2  503  501  0.18649168056E+03  0.15565072331E+03  0.27271255637E+03  0.36521012169E+03  0.00000000000E+00 0.  1.
<mgrwt>
<rscale>  3 0.27318729E+03</rscale>
<asrwt>0</asrwt>
<pdfrwt beam="1">  1       21 0.70884015E-01 0.27318729E+03</pdfrwt>
<pdfrwt beam="2">  1       21 0.27360211E-01 0.27318729E+03</pdfrwt>
<totfact> 0.22030492E+04</totfact>
</mgrwt>
</event>
<event>
 4    0  0.1396107E-001  0.3663427E+03  0.7546771E-02  0.1056100E+00
         21   -1    0    0  502  501  0.00000000000E+00  0.00000000000E+00  0.34317546109E+03  0.34317546109E+03  0.00000000000E+00 0.  1.
         21   -1    0    0  503  502 -0.00000000000E+00 -0.00000000000E+00 -0.37625922458E+03  0.37625922458E+03  0.00000000000E+00 0.  1.
         25    1    1    2    0    0 -0.20020367067E+03 -0.28017937852E+03  0.36367839347E+02  0.36814346882E+03  0.12500000000E+03 0.  0.
         21    1    1    2  503  501  0.20020367067E+03  0.28017937852E+03 -0.69451602845E+02  0.35129121685E+03  0.00000000000E+00 0.  1.
<mgrwt>
<rscale>  3 0.36634273E+03</rscale>
<asrwt>0</asrwt>
<pdfrwt beam="1">  1       21 0.52796225E-01 0.36634273E+03</pdfrwt>
<pdfrwt beam="2">  1       21 0.57886035E-01 0.36634273E+03</pdfrwt>
<totfact> 0.87035804E+03</totfact>
</mgrwt>
</event>
<event>
 4    0  0.1005289E-001  0.2611686E+03  0.7546771E-02  0.1106443E+00
         21   -1    0    0  503  501  0.00000000000E+00  0.00000000000E+00  0.46087113384E+02  0.46087113384E+02  0.00000000000E+00 0. -1.
         21   -1    0    0  501  502 -0.00000000000E+00 -0.00000000000E+00 -0.22254041220E+04  0.22254041220E+04  0.00000000000E+00 0.  1.
         25    1    1    2    0    0 -0.22640728177E+03 -0.36383680476E+02 -0.18606719317E+04  0.18789116709E+04  0.12500000000E+03 0.  0.
         21    1    1    2  503  502  0.22640728177E+03  0.36383680476E+02 -0.31864507688E+03  0.39257956450E+03  0.00000000000E+00 0. -1.
<mgrwt>
<rscale>  3 0.26116858E+03</rscale>
<asrwt>0</asrwt>
<pdfrwt beam="1">  1       21 0.70903242E-02 0.26116858E+03</pdfrwt>
<pdfrwt beam="2">  1       21 0.34236991E+00 0.26116858E+03</pdfrwt>
<totfact> 0.26539121E+03</totfact>
</mgrwt>
</event>
<event>
 4    0  0.1539272E-001  0.2375623E+03  0.7546771E-02  0.1121427E+00
         21   -1    0    0  502  501  0.00000000000E+00  0.00000000000E+00  0.33525874091E+03  0.33525874091E+03  0.00000000000E+00 0. -1.
         21   -1    0    0  503  502 -0.00000000000E+00 -0.00000000000E+00 -0.17262696288E+03  0.17262696288E+03  0.00000000000E+00 0. -1.
         25    1    1    2    0    0  0.25394744204E+02 -0.20041450852E+03 -0.16162118468E+02  0.23811149139E+03  0.12500000000E+03 0.  0.
         21    1    1    2  503  501 -0.25394744204E+02  0.20041450852E+03  0.17879389649E+03  0.26977421241E+03  0.00000000000E+00 0. -1.
<mgrwt>
<rscale>  3 0.23756235E+03</rscale>
<asrwt>0</asrwt>
<pdfrwt beam="1">  1       21 0.51578268E-01 0.23756235E+03</pdfrwt>
<pdfrwt beam="2">  1       21 0.26557994E-01 0.23756235E+03</pdfrwt>
<totfact> 0.47179752E+04</totfact>
</mgrwt>
</event>
<event>
 4    0  0.1005289E-001  0.3561970E+03  0.7546771E-02  0.1060100E+00
         21   -1    0    0  503  501  0.00000000000E+00  0.00000000000E+00  0.42794158360E+03  0.42794158360E+03  0.00000000000E+00 0.  1.
         21   -1    0    0  501  502 -0.00000000000E+00 -0.00000000000E+00 -0.10610601234E+04  0.10610601234E+04  0.00000000000E+00 0.  1.
         25    1    1    2    0    0  0.32864481388E+03 -0.56954941738E+02 -0.95879985668E+03  0.10228262043E+04  0.12500000000E+03 0.  0.
         21    1    1    2  503  502 -0.32864481388E+03  0.56954941738E+02  0.32568131692E+03  0.46617550265E+03  0.00000000000E+00 0.  1.
<mgrwt>
<rscale>  3 0.35619697E+03</rscale>
<asrwt>0</asrwt>
<pdfrwt beam="1">  1       21 0.65837167E-01 0.35619697E+03</pdfrwt>
<pdfrwt beam="2">  1       21 0.16324002E+00 0.35619697E+03</pdfrwt>
<totfact> 0.44010243E+02</totfact>
</mgrwt>
</event>
<event>
 4    0  0.1065312E-001  0.2370289E+03  0.7546771E-02  0.1121788E+00
         21   -1    0    0  502  501  0.00000000000E+00  0.00000000000E+00  0.29189787737E+03  0.29189787737E+03  0.00000000000E+00 0. -1.
         21   -1    0    0  503  502 -0.00000000000E+00 -0.00000000000E+00 -0.19899488224E+03  0.19899488224E+03  0.00000000000E+00 0. -1.
         25    1    1    2    0    0  0.53684568617E+02 -0.19410215649E+03  0.15130721167E+03  0.28120553402E+03  0.12500000000E+03 0.  0.
         21    1    1    2  503  501 -0.53684568617E+02  0.19410215649E+03 -0.58404216545E+02  0.20968722558E+03  0.00000000000E+00 0. -1.
<mgrwt>
<rscale>  3 0.23702886E+03</rscale>
<asrwt>0</asrwt>
<pdfrwt beam="1">  1       21 0.44907366E-01 0.23702886E+03</pdfrwt>
<pdfrwt beam="2">  1       21 0.30614597E-01 0.23702886E+03</pdfrwt>
<totfact> 0.47753758E+04</totfact>
</mgrwt>
</event>
<event>
 4    0  0.1005289E-001  0.2767431E+03  0.7546771E-02  0.1097481E+00
         21   -1    0    0  502  501  0.00000000000E+00  0.00000000000E+00  0.16648336379E+03  0.16648336379E+03  0.00000000000E+00 0. -1.
         21   -1    0    0  503  502 -0.00000000000E+00 -0.00000000000E+00 -0.17332851697E+04  0.17332851697E+04  0.00000000000E+00 0. -1.
         25    1    1    2    0    0  0.22052457707E+03 -0.11104357019E+03 -0.16231027511E+04  0.16465264359E+04  0.12500000000E+03 0.  0.
         21    1    1    2  503  501 -0.22052457707E+03  0.11104357019E+03  0.56300945144E+02  0.25324209760E+03  0.00000000000E+00 0. -1.
<mgrwt>
<rscale>  3 0.27674314E+03</rscale>
<asrwt>0</asrwt>
<pdfrwt beam="1">  1       21 0.25612824E-01 0.27674314E+03</pdfrwt>
<pdfrwt beam="2">  1       21 0.26665927E+00 0.27674314E+03</pdfrwt>
<totfact> 0.70095976E+02</totfact>
</mgrwt>
</event>
<event>
 4    0  0.1378123E-001  0.2447788E+03  0.7546771E-02  0.1116650E+00
         21   -1    0    0  503  501  0.00000000000E+00  0.00000000000E+00  0.25950177167E+03  0.25950177167E+03  0.00000000000E+00 0. -1.
         21   -1    0    0  501  502 -0.00000000000E+00 -0.00000000000E+00 -0.27909437880E+03  0.27909437880E+03  0.00000000000E+00 0. -1.
         25    1    1    2    0    0  0.11141778532E+03  0.17854332825E+03 -0.15370957120E+03  0.28903853588E+03  0.12500000000E+03 0.  0.
         21    1    1    2  503  502 -0.11141778532E+03 -0.17854332825E+03  0.13411696408E+03  0.24955761459E+03  0.00000000000E+00 0. -1.
<mgrwt>
<rscale>  3 0.24477876E+03</rscale>
<asrwt>0</asrwt>
<pdfrwt beam="1">  1       21 0.39923350E-01 0.24477876E+03</pdfrwt>
<pdfrwt beam="2">  1       21 0.42937597E-01 0.24477876E+03</pdfrwt>
<totfact> 0.30726505E+04</totfact>
</mgrwt>
</event>
<event>
 4    0  0.1005289E-001  0.4606455E+03  0.7546771E-02  0.1024594E+00
         21   -1    0    0  502  501  0.00000000000E+00  0.00000000000E+00  0.31283026344E+03  0.31283026344E+03  0.00000000000E+00 0.  1.
         21   -1    0    0  503  502 -0.00000000000E+00 -0.00000000000E+00 -0.74715774349E+03  0.74715774349E+03  0.00000000000E+00 0. -1.
         25    1    1    2    0    0 -0.27053217991E+03 -0.35125720297E+03 -0.40881564974E+03  0.61589326874E+03  0.12500000000E+03 0.  0.
         21    1    1    2  503  501  0.27053217991E+03  0.35125720297E+03 -0.25511830318E+02  0.44409473820E+03  0.00000000000E+00 0.  1.
<mgrwt>
<rscale>  3 0.46064551E+03</rscale>
<asrwt>0</asrwt>
<pdfrwt beam="1">  1       21 0.48127733E-01 0.46064551E+03</pdfrwt>
<pdfrwt beam="2">  1       21 0.11494734E+00 0.46064551E+03</pdfrwt>
<totfact> 0.20782679E+03</totfact>
</mgrwt>
</event>
<event>
 4    0  0.1207253E-001  0.2507688E+03  0.7546771E-02  0.1112820E+00
         21   -1    0    0  502  501  0.00000000000E+00  0.00000000000E+00  0.31513842530E+03  0.31513842530E+03  0.00000000000E+00 0. -1.
         21   -1    0    0  503  502 -0.00000000000E+00 -0.00000000000E+00 -0.41256898856E+03  0.41256898856E+03  0.00000000000E+00 0. -1.
         25    1    1    2    0    0  0.20448723174E+03 -0.73789994180E+02 -0.32664100674E+03  0.41180011956E+03  0.12500000000E+03 0.  0.
         21    1    1    2  503  501 -0.20448723174E+03  0.73789994180E+02  0.22921044349E+03  0.31590729430E+03  0.00000000000E+00 0. -1.
<mgrwt>
<rscale>  3 0.25076880E+03</rscale>
<asrwt>0</asrwt>
<pdfrwt beam="1">  1       21 0.48482834E-01 0.25076880E+03</pdfrwt>
<pdfrwt beam="2">  1       21 0.63472152E-01 0.25076880E+03</pdfrwt>
<totfact> 0.89867051E+03</totfact>
</mgrwt>
</event>
<event>
 4    0  0.1320224E-001  0.2509995E+03  0.7546771E-02  0.1112675E+00
         21   -1    0    0  502  501  0.00000000000E+00  0.00000000000E+00  0.18676400316E+03  0.18676400316E+03  0.00000000000E+00 0.  1.
         21   -1    0    0  503  502 -0.00000000000E+00 -0.00000000000E+00 -0.31739535180E+03  0.31739535180E+03  0.00000000000E+00 0.  1.
         25    1    1    2    0    0 -0.88342611412E+02 -0.19892539922E+03 -0.13551082511E+01  0.25100312302E+03  0.12500000000E+03 0.  0.
         21    1    1    2  503  501  0.88342611412E+02  0.19892539922E+03 -0.12927624038E+03  0.25315623194E+03  0.00000000000E+00 0.  1.
<mgrwt>
<rscale>  3 0.25099947E+03</rscale>
<asrwt>0</asrwt>
<pdfrwt beam="1">  1       21 0.28732924E-01 0.25099947E+03</pdfrwt>
<pdfrwt beam="2">  1       21 0.48830054E-01 0.25099947E+03</pdfrwt>
<totfact> 0.45174457E+04</totfact>
</mgrwt>
</event>
<event>
 4    0  0.1201170E-001  0.3063382E+03  0.7546771E-02  0.1082114E+00
         21   -1    0    0  502  501  0.00000000000E+00  0.00000000000E+00  0.13608891107E+04  0.13608891107E+04  0.00000000000E+00 0.  1.
         21   -1    0    0  503  502 -0.00000000000E+00 -0.00000000000E+00 -0.80701621459E+02  0.80701621459E+02  0.00000000000E+00 0.  1.
         25    1    1    2    0    0 -0.27737660547E+03  0.35781841965E+02  0.32637235171E+03  0.44761817818E+03  0.12500000000E+03 0.  0.
         21    1    1    2  503  501  0.27737660547E+03 -0.35781841965E+02  0.95381513757E+03  0.99397255402E+03  0.00000000000E+00 0.  1.
<mgrwt>
<rscale>  3 0.30633825E+03</rscale>
<asrwt>0</asrwt>
<pdfrwt beam="1">  1       21 0.20936754E+00 0.30633825E+03</pdfrwt>
<pdfrwt beam="2">  1       21 0.12415635E-01 0.30633825E+03</pdfrwt>
<totfact> 0.59463275E+03</totfact>
</mgrwt>
</event>
<event>
 4    0  0.1526314E-001  0.2902109E+03  0.7546771E-02  0.1090239E+00
         21   -1    0    0  502  501  0.00000000000E+00  0.00000000000E+00  0.16380437850E+03  0.16380437850E+03  0.00000000000E+00 0. -1.
         21   -1    0    0  503  502 -0.00000000000E+00 -0.00000000000E+00 -0.48564809814E+03  0.48564809814E+03  0.00000000000E+00 0. -1.
         25    1    1    2    0    0  0.83304368656E+02 -0.24830975625E+03 -0.23529393418E+03  0.37361154740E+03  0.12500000000E+03 0.  0.
         21    1    1    2  503  501 -0.83304368656E+02  0.24830975625E+03 -0.86549785465E+02  0.27584092925E+03  0.00000000000E+00 0. -1.
<mgrwt>
<rscale>  3 0.29021088E+03</rscale>
<asrwt>0</asrwt>
<pdfrwt beam="1">  1       21 0.25200674E-01 0.29021088E+03</pdfrwt>
<pdfrwt beam="2">  1       21 0.74715091E-01 0.29021088E+03</pdfrwt>
<totfact> 0.22792994E+04</totfact>
</mgrwt>
</event>
<event>
 4    0  0.1005289E-001  0.2490074E+03  0.7546771E-02  0.1113934E+00
         21   -1    0    0  503  501  0.00000000000E+00  0.00000000000E+00  0.28981317802E+04  0.28981317802E+04  0.00000000000E+00 0. -1.
         21   -1    0    0  501  502 -0.00000000000E+00 -0.00000000000E+00 -0.44791761030E+02  0.44791761030E+02  0.00000000000E+00 0. -1.
         25    1    1    2    0    0  0.19521629272E+03  0.90941052443E+02  0.34565015914E+03  0.42600317895E+03  0.12500000000E+03 0.  0.
         21    1    1    2  503  502 -0.19521629272E+03 -0.90941052443E+02  0.25076898601E+04  0.25169203623E+04  0.00000000000E+00 0. -1.
<mgrwt>
<rscale>  3 0.24900738E+03</rscale>
<asrwt>0</asrwt>
<pdfrwt beam="1">  1       21 0.44586628E+00 0.24900738E+03</pdfrwt>
<pdfrwt beam="2">  1       21 0.68910424E-02 0.24900738E+03</pdfrwt>
<totfact> 0.63510771E+02</totfact>
</mgrwt>
</event>
<event>
 4    0  0.1527908E-001  0.2851308E+03  0.7546771E-02  0.1092919E+00
         21   -1    0    0  503  501  0.00000000000E+00  0.00000000000E+00  0.19141814966E+03  0.19141814966E+03  0.00000000000E+00 0.  1.
         21   -1    0    0  501  502 -0.00000000000E+00 -0.00000000000E+00 -0.38299048230E+03  0.38299048230E+03  0.00000000000E+00 0.  1.
         25    1    1    2    0    0  0.19134063754E+03 -0.17047979033E+03 -0.94855153637E+02  0.30049475645E+03  0.12500000000E+03 0.  0.
         21    1    1    2  503  502 -0.19134063754E+03  0.17047979033E+03 -0.96717179007E+02  0.27391387551E+03  0.00000000000E+00 0.  1.
<mgrwt>
<rscale>  3 0.28513084E+03</rscale>
<asrwt>0</asrwt>
<pdfrwt beam="1">  1       21 0.29448947E-01 0.28513084E+03</pdfrwt>
<pdfrwt beam="2">  1       21 0.58921612E-01 0.28513084E+03</pdfrwt>
<totfact> 0.28489176E+04</totfact>
</mgrwt>
</event>
<event>
 4    0  0.1218586E-001  0.2516452E+03  0.7546771E-02  0.1112270E+00
         21   -1    0    0  502  501  0.00000000000E+00  0.00000000000E+00  0.20786594127E+03  0.20786594127E+03  0.00000000000E+00 0. -1.
         21   -1    0    0  503  502 -0.00000000000E+00 -0.00000000000E+00 -0.58569418144E+03  0.58569418144E+03  0.00000000000E+00 0. -1.
         25    1    1    2    0    0 -0.29684520820E+02 -0.21637727543E+03 -0.48791010176E+03  0.54898229798E+03  0.12500000000E+03 0.  0.
         21    1    1    2  503  501  0.29684520820E+02  0.21637727543E+03  0.11008186159E+03  0.24457782473E+03  0.00000000000E+00 0. -1.
<mgrwt>
<rscale>  3 0.25164518E+03</rscale>
<asrwt>0</asrwt>
<pdfrwt beam="1">  1       21 0.31979376E-01 0.25164518E+03</pdfrwt>
<pdfrwt beam="2">  1       21 0.90106796E-01 0.25164518E+03</pdfrwt>
<totfact> 0.94901846E+03</totfact>
</mgrwt>
</event>
<event>
 4    0  0.1227727E-001  0.3434624E+03  0.7546771E-02  0.1065331E+00
         21   -1    0    0  502  501  0.00000000000E+00  0.00000000000E+00  0.72789027785E+03  0.72789027785E+03  0.00000000000E+00 0.  1.
         21   -1    0    0  503  502 -0.00000000000E+00 -0.00000000000E+00 -0.32381766358E+03  0.32381766358E+03  0.00000000000E+00 0.  1.
         25    1    1    2    0    0 -0.26772550017E+03  0.17511275889E+03 -0.17850106807E+03  0.38707758016E+03  0.12500000000E+03 0.  0.
         21    1    1    2  503  501  0.26772550017E+03 -0.17511275889E+03  0.58257368233E+03  0.66463036126E+03  0.00000000000E+00 0.  1.
<mgrwt>
<rscale>  3 0.34346240E+03</rscale>
<asrwt>0</asrwt>
<pdfrwt beam="1">  1       21 0.11198312E+00 0.34346240E+03</pdfrwt>
<pdfrwt beam="2">  1       21 0.49818102E-01 0.34346240E+03</pdfrwt>
<totfact> 0.21682957E+03</totfact>
</mgrwt>
</event>
<event>
 4    0  0.1269123E-001  0.2537662E+03  0.7546771E-02  0.1110948E+00
         21   -1    0    0  502  501  0.00000000000E+00  0.00000000000E+00  0.72767997886E+02  0.72767997886E+02  0.00000000000E+00 0.  1.
         21   -1    0    0  503  502 -0.00000000000E+00 -0.00000000000E+00 -0.81567789031E+03  0.81567789031E+03  0.00000000000E+00 0.  1.
         25    1    1    2    0    0 -0.17638134853E+03  0.13289818659E+03 -0.29557466185E+03  0.38956602629E+03  0.12500000000E+03 0.  0.
         21    1    1    2  503  501  0.17638134853E+03 -0.13289818659E+03 -0.44733523057E+03  0.49887986191E+03  0.00000000000E+00 0.  1.
<mgrwt>
<rscale>  3 0.25376625E+03</rscale>
<asrwt>0</asrwt>
<pdfrwt beam="1">  1       21 0.11195076E-01 0.25376625E+03</pdfrwt>
<pdfrwt beam="2">  1       21 0.12548891E+00 0.25376625E+03</pdfrwt>
<totfact> 0.30365139E+04</totfact>
</mgrwt>
</event>
<event>
 4    0  0.1546592E-001  0.3091646E+03  0.7546771E-02  0.1080747E+00
         21   -1    0    0  503  501  0.00000000000E+00  0.00000000000E+00  0.17937922116E+03  0.17937922116E+03  0.00000000000E+00 0. -1.
         21   -1    0    0  501  502 -0.00000000000E+00 -0.00000000000E+00 -0.58456835264E+03  0.58456835264E+03  0.00000000000E+00 0. -1.
         25    1    1    2    0    0  0.28243840748E+03 -0.13647963826E+02 -0.36499903121E+03  0.47833776113E+03  0.12500000000E+03 0.  0.
         21    1    1    2  503  502 -0.28243840748E+03  0.13647963826E+02 -0.40190100267E+02  0.28560981268E+03  0.00000000000E+00 0. -1.
<mgrwt>
<rscale>  3 0.30916455E+03</rscale>
<asrwt>0</asrwt>
<pdfrwt beam="1">  1       21 0.27596803E-01 0.30916455E+03</pdfrwt>
<pdfrwt beam="2">  1       21 0.89933594E-01 0.30916455E+03</pdfrwt>
<totfact> 0.12381084E+04</totfact>
</mgrwt>
</event>
<event>
 4    0  0.1077352E-001  0.2420645E+03  0.7546771E-02  0.1118425E+00
         21   -1    0    0  503  501  0.00000000000E+00  0.00000000000E+00  0.13416374885E+03  0.13416374885E+03  0.00000000000E+00 0.  1.
         21   -1    0    0  501  502 -0.00000000000E+00 -0.00000000000E+00 -0.44967226787E+03  0.44967226787E+03  0.00000000000E+00 0.  1.
         25    1    1    2    0    0  0.86689270901E+01 -0.20711121382E+03 -0.50314547931E+02  0.24723826347E+03  0.12500000000E+03 0.  0.
         21    1    1    2  503  502 -0.86689270901E+01  0.20711121382E+03 -0.26519397109E+03  0.33659775325E+03  0.00000000000E+00 0.  1.
<mgrwt>
<rscale>  3 0.24206446E+03</rscale>
<asrwt>0</asrwt>
<pdfrwt beam="1">  1       21 0.20640576E-01 0.24206446E+03</pdfrwt>
<pdfrwt beam="2">  1       21 0.69180350E-01 0.24206446E+03</pdfrwt>
<totfact> 0.40408522E+04</totfact>
</mgrwt>
</event>
<event>
 4    0  0.1005289E-001  0.2376513E+03  0.7546771E-02  0.1121367E+00
         21   -1    0    0  502  501  0.00000000000E+00  0.00000000000E+00  0.12689096406E+04  0.12689096406E+04  0.00000000000E+00 0. -1.
         21   -1    0    0  503  502 -0.00000000000E+00 -0.00000000000E+00 -0.32913565252E+03  0.32913565252E+03  0.00000000000E+00 0. -1.
         25    1    1    2    0    0 -0.16327929090E+03  0.11913446020E+03 -0.27678371436E+03  0.36481141837E+03  0.12500000000E+03 0.  0.
         21    1    1    2  503  501  0.16327929090E+03 -0.11913446020E+03  0.12165577024E+04  0.12332338748E+04  0.00000000000E+00 0. -1.
<mgrwt>
<rscale>  3 0.23765131E+03</rscale>
<asrwt>0</asrwt>
<pdfrwt beam="1">  1       21 0.19521686E+00 0.23765131E+03</pdfrwt>
<pdfrwt beam="2">  1       21 0.50636255E-01 0.23765131E+03</pdfrwt>
<totfact> 0.50917229E+02</totfact>
</mgrwt>
</event>
<event>
 4    0  0.1005289E-001  0.2641746E+03  0.7546771E-02  0.1104661E+00
         21   -1    0    0  503  501  0.00000000000E+00  0.00000000000E+00  0.20153510506E+04  0.20153510506E+04  0.00000000000E+00 0.  1.
         21   -1    0    0  501  502 -0.00000000000E+00 -0.00000000000E+00 -0.30629175839E+02  0.30629175839E+02  0.00000000000E+00 0. -1.
         25    1    1    2    0    0 -0.18941255003E+03  0.13522614704E+03  0.10555393227E+04  0.10880953482E+04  0.12500000000E+03 0.  0.
         21    1    1    2  503  502  0.18941255003E+03 -0.13522614704E+03  0.92918255212E+03  0.95788487833E+03  0.00000000000E+00 0.  1.
<mgrwt>
<rscale>  3 0.26417461E+03</rscale>
<asrwt>0</asrwt>
<pdfrwt beam="1">  1       21 0.31005390E+00 0.26417461E+03</pdfrwt>
<pdfrwt beam="2">  1       21 0.47121825E-02 0.26417461E+03</pdfrwt>
<totfact> 0.82937458E+03</totfact>
</mgrwt>
</event>
<event>
 4    0  0.1300771E-001  0.2769833E+03  0.7546771E-02  0.1097348E+00
         21   -1    0    0  502  501  0.00000000000E+00  0.00000000000E+00  0.33742172525E+03  0.33742172525E+03  0.00000000000E+00 0. -1.
         21   -1    0    0  503  502 -0.00000000000E+00 -0.00000000000E+00 -0.44833454087E+03  0.44833454087E+03  0.00000000000E+00 0. -1.
         25    1    1    2    0    0 -0.14679704722E+03 -0.19886025115E+03 -0.34697116100E+03  0.44396932228E+03  0.12500000000E+03 0.  0.
         21    1    1    2  503  501  0.14679704722E+03  0.19886025115E+03  0.23605834538E+03  0.34178694384E+03  0.00000000000E+00 0. -1.
<mgrwt>
<rscale>  3 0.27698334E+03</rscale>
<asrwt>0</asrwt>
<pdfrwt beam="1">  1       21 0.51911035E-01 0.27698334E+03</pdfrwt>
<pdfrwt beam="2">  1       21 0.68974544E-01 0.27698334E+03</pdfrwt>
<totfact> 0.63905919E+03</totfact>
</mgrwt>
</event>
<event>
 4    0  0.1005289E-001  0.3497465E+03  0.7546771E-02  0.1062719E+00
         21   -1    0    0  502  501  0.00000000000E+00  0.00000000000E+00  0.19208972074E+04  0.19208972074E+04  0.00000000000E+00 0. -1.
         21   -1    0    0  503  502 -0.00000000000E+00 -0.00000000000E+00 -0.16370757692E+03  0.16370757692E+03  0.00000000000E+00 0. -1.
         25    1    1    2    0    0 -0.31475454861E+03  0.87333937087E+02  0.58268647624E+02  0.35456716957E+03  0.12500000000E+03 0.  0.
         21    1    1    2  503  501  0.31475454861E+03 -0.87333937087E+02  0.16989209828E+04  0.17300376147E+04  0.00000000000E+00 0. -1.
<mgrwt>
<rscale>  3 0.34974654E+03</rscale>
<asrwt>0</asrwt>
<pdfrwt beam="1">  1       21 0.29552263E+00 0.34974654E+03</pdfrwt>
<pdfrwt beam="2">  1       21 0.25185782E-01 0.34974654E+03</pdfrwt>
<totfact> 0.45990437E+02</totfact>
</mgrwt>
</event>
<event>
 4    0  0.1426628E-001  0.2576452E+03  0.7546771E-02  0.1108566E+00
         21   -1    0    0  502  501  0.00000000000E+00  0.00000000000E+00  0.10951318756E+03  0.10951318756E+03  0.00000000000E+00 0. -1.
         21   -1    0    0  503  502 -0.00000000000E+00 -0.00000000000E+00 -0.53457629478E+03  0.53457629478E+03  0.00000000000E+00 0. -1.
         25    1    1    2    0    0  0.20761513914E+03 -0.87475701646E+02 -0.24712732807E+03  0.35700554709E+03  0.12500000000E+03 0.  0.
         21    1    1    2  503  501 -0.20761513914E+03  0.87475701646E+02 -0.17793577916E+03  0.28708393525E+03  0.00000000000E+00 0. -1.
<mgrwt>
<rscale>  3 0.25764519E+03</rscale>
<asrwt>0</asrwt>
<pdfrwt beam="1">  1       21 0.16848182E-01 0.25764519E+03</pdfrwt>
<pdfrwt beam="2">  1       21 0.82242509E-01 0.25764519E+03</pdfrwt>
<totfact> 0.39731379E+04</totfact>
</mgrwt>
</event>
<event>
 4    0  0.1844967E-001  0.2637173E+03  0.7546771E-02  0.1104930E+00
         21   -1    0    0  503  501  0.00000000000E+00  0.00000000000E+00  0.36591776273E+03  0.36591776273E+03  0.00000000000E+00 0.  1.
         21   -1    0    0  501  502 -0.00000000000E+00 -0.00000000000E+00 -0.20293021878E+03  0.20293021878E+03  0.00000000000E+00 0.  1.
         25    1    1    2    0    0 -0.65814240094E+01 -0.23211744158E+03 -0.31969814524E+02  0.26564805828E+03  0.12500000000E+03 0.  0.
         21    1    1    2  503  502  0.65814240094E+01  0.23211744158E+03  0.19495735847E+03  0.30319992323E+03  0.00000000000E+00 0.  1.
<mgrwt>
<rscale>  3 0.26371731E+03</rscale>
<asrwt>0</asrwt>
<pdfrwt beam="1">  1       21 0.56295040E-01 0.26371731E+03</pdfrwt>
<pdfrwt beam="2">  1       21 0.31220034E-01 0.26371731E+03</pdfrwt>
<totfact> 0.28259957E+04</totfact>
</mgrwt>
</event>
<event>
 4    0  0.1170888E-001  0.2597664E+03  0.7546771E-02  0.1107284E+00
         21   -1    0    0  503  501  0.00000000000E+00  0.00000000000E+00  0.47852890233E+03  0.47852890233E+03  0.00000000000E+00 0.  1.
         21   -1    0    0  501  502 -0.00000000000E+00 -0.00000000000E+00 -0.30185216719E+03  0.30185216719E+03  0.00000000000E+00 0.  1.
         25    1    1    2    0    0 -0.22482596954E+03 -0.36150618769E+02 -0.20838878568E+03  0.33302322714E+03  0.12500000000E+03 0.  0.
         21    1    1    2  503  502  0.22482596954E+03  0.36150618769E+02  0.38506552082E+03  0.44735784239E+03  0.00000000000E+00 0.  1.
<mgrwt>
<rscale>  3 0.25976640E+03</rscale>
<asrwt>0</asrwt>
<pdfrwt beam="1">  1       21 0.73619831E-01 0.25976640E+03</pdfrwt>
<pdfrwt beam="2">  1       21 0.46438795E-01 0.25976640E+03</pdfrwt>
<totfact> 0.70456702E+03</totfact>
</mgrwt>
</event>
<event>
 4    0  0.1160780E-001  0.3495146E+03  0.7546771E-02  0.1062814E+00
         21   -1    0    0  502  501  0.00000000000E+00  0.00000000000E+00  0.11975066213E+04  0.11975066213E+04  0.00000000000E+00 0. -1.
         21   -1    0    0  503  502 -0.00000000000E+00 -0.00000000000E+00 -0.15135125488E+03  0.15135125488E+03  0.00000000000E+00 0. -1.
         25    1    1    2    0    0  0.32525541395E+03 -0.27282992951E+02  0.12435680084E+03  0.37097851680E+03  0.12500000000E+03 0.  0.
         21    1    1    2  503  501 -0.32525541395E+03  0.27282992951E+02  0.92179856560E+03  0.97787935941E+03  0.00000000000E+00 0. -1.
<mgrwt>
<rscale>  3 0.34951459E+03</rscale>
<asrwt>0</asrwt>
<pdfrwt beam="1">  1       21 0.18423178E+00 0.34951459E+03</pdfrwt>
<pdfrwt beam="2">  1       21 0.23284809E-01 0.34951459E+03</pdfrwt>
<totfact> 0.26396161E+03</totfact>
</mgrwt>
</event>
<event>
 4    0  0.1294022E-001  0.3379133E+03  0.7546771E-02  0.1067688E+00
         21   -1    0    0  503  501  0.00000000000E+00  0.00000000000E+00  0.86153892987E+03  0.86153892987E+03  0.00000000000E+00 0.  1.
         21   -1    0    0  501  502 -0.00000000000E+00 -0.00000000000E+00 -0.13133070583E+03  0.13133070583E+03  0.00000000000E+00 0.  1.
         25    1    1    2    0    0  0.30924963984E+03  0.54083932717E+02  0.50037720362E+03  0.60379032571E+03  0.12500000000E+03 0.  0.
         21    1    1    2  503  502 -0.30924963984E+03 -0.54083932717E+02  0.22983102042E+03  0.38907930999E+03  0.00000000000E+00 0.  1.
<mgrwt>
<rscale>  3 0.33791332E+03</rscale>
<asrwt>0</asrwt>
<pdfrwt beam="1">  1       21 0.13254445E+00 0.33791332E+03</pdfrwt>
<pdfrwt beam="2">  1       21 0.20204725E-01 0.33791332E+03</pdfrwt>
<totfact> 0.85758398E+03</totfact>
</mgrwt>
</event>
<event>
 4    0  0.1495058E-001  0.2929960E+03  0.7546771E-02  0.1088795E+00
         21   -1    0    0  502  501  0.00000000000E+00  0.00000000000E+00  0.76828543659E+02  0.76828543659E+02  0.00000000000E+00 0.  1.
         21   -1    0    0  503  502 -0.00000000000E+00 -0.00000000000E+00 -0.10277913163E+04  0.10277913163E+04  0.00000000000E+00 0.  1.
         25    1    1    2    0    0 -0.26010831499E+03  0.50649038675E+02 -0.56486235039E+03  0.63633020951E+03  0.12500000000E+03 0.  0.
         21    1    1    2  503  501  0.26010831499E+03 -0.50649038675E+02 -0.38610042220E+03  0.46828965040E+03  0.00000000000E+00 0.  1.
<mgrwt>
<rscale>  3 0.29299601E+03</rscale>
<asrwt>0</asrwt>
<pdfrwt beam="1">  1       21 0.11819777E-01 0.29299601E+03</pdfrwt>
<pdfrwt beam="2">  1       21 0.15812173E+00 0.29299601E+03</pdfrwt>
<totfact> 0.14752237E+04</totfact>
</mgrwt>
</event>
<event>
 4    0  0.1698000E-001  0.3048831E+03  0.7546771E-02  0.1082825E+00
         21   -1    0    0  503  501  0.00000000000E+00  0.00000000000E+00  0.60118303906E+03  0.60118303906E+03  0.00000000000E+00 0. -1.
         21   -1    0    0  501  502 -0.00000000000E+00 -0.00000000000E+00 -0.93458727907E+03  0.93458727907E+03  0.00000000000E+00 0.  1.
         25    1    1    2    0    0  0.23312896054E+03  0.15159030522E+03 -0.87519679119E+03  0.92678107241E+03  0.12500000000E+03 0.  0.
         21    1    1    2  503  502 -0.23312896054E+03 -0.15159030522E+03  0.54179255118E+03  0.60898924571E+03  0.00000000000E+00 0. -1.
<mgrwt>
<rscale>  3 0.30488315E+03</rscale>
<asrwt>0</asrwt>
<pdfrwt beam="1">  1       21 0.92489699E-01 0.30488315E+03</pdfrwt>
<pdfrwt beam="2">  1       21 0.14378266E+00 0.30488315E+03</pdfrwt>
<totfact> 0.29582960E+02</totfact>
</mgrwt>
</event>
<event>
 4    0  0.1544480E-001  0.3787406E+03  0.7546771E-02  0.1051400E+00
         21   -1    0    0  503  501  0.00000000000E+00  0.00000000000E+00  0.40031776149E+03  0.40031776149E+03  0.00000000000E+00 0.  1.
         21   -1    0    0  501  502 -0.00000000000E+00 -0.00000000000E+00 -0.39111054427E+03  0.39111054427E+03  0.00000000000E+00 0.  1.
         25    1    1    2    0    0  0.47155025083E+02  0.35439502186E+03 -0.14032247586E+03  0.40389952357E+03  0.12500000000E+03 0.  0.
         21    1    1    2  503  502 -0.47155025083E+02 -0.35439502186E+03  0.14952969308E+03  0.38752878219E+03  0.00000000000E+00 0.  1.
<mgrwt>
<rscale>  3 0.37874058E+03</rscale>
<asrwt>0</asrwt>
<pdfrwt beam="1">  1       21 0.61587348E-01 0.37874058E+03</pdfrwt>
<pdfrwt beam="2">  1       21 0.60170853E-01 0.37874058E+03</pdfrwt>
<totfact> 0.57063696E+03</totfact>
</mgrwt>
</event>
<event>
 4    0  0.1541003E-001  0.3066197E+03  0.7546771E-02  0.1081978E+00
         21   -1    0    0  502  501  0.00000000000E+00  0.00000000000E+00  0.10571809269E+03  0.10571809269E+03  0.00000000000E+00 0.  1.
         21   -1    0    0  503  502 -0.00000000000E+00 -0.00000000000E+00 -0.82320521591E+03  0.82320521591E+03  0.00000000000E+00 0.  1.
         25    1    1    2    0    0 -0.16726853185E+03  0.22452587962E+03 -0.42463056278E+03  0.52376210937E+03  0.12500000000E+03 0.  0.
         21    1    1    2  503  501  0.16726853185E+03 -0.22452587962E+03 -0.29285656044E+03  0.40516119923E+03  0.00000000000E+00 0.  1.
<mgrwt>
<rscale>  3 0.30661969E+03</rscale>
<asrwt>0</asrwt>
<pdfrwt beam="1">  1       21 0.16264322E-01 0.30661969E+03</pdfrwt>
<pdfrwt beam="2">  1       21 0.12664695E+00 0.30661969E+03</pdfrwt>
<totfact> 0.14668656E+04</totfact>
</mgrwt>
</event>
<event>
 4    0  0.1005289E-001  0.2606177E+03  0.7546771E-02  0.1106773E+00
         21   -1    0    0  502  501  0.00000000000E+00  0.00000000000E+00  0.69036795823E+02  0.69036795823E+02  0.00000000000E+00 0.  1.
         21   -1    0    0  503  502 -0.00000000000E+00 -0.00000000000E+00 -0.14775796464E+04  0.14775796464E+04  0.00000000000E+00 0.  1.
         25    1    1    2    0    0  0.11700200562E+03 -0.19648700066E+03 -0.23475271768E+03  0.35075696602E+03  0.12500000000E+03 0.  0.
         21    1    1    2  503  501 -0.11700200562E+03  0.19648700066E+03 -0.11737901328E+04  0.11958594762E+04  0.00000000000E+00 0.  1.
<mgrwt>
<rscale>  3 0.26061775E+03</rscale>
<asrwt>0</asrwt>
<pdfrwt beam="1">  1       21 0.10621045E-01 0.26061775E+03</pdfrwt>
<pdfrwt beam="2">  1       21 0.22731996E+00 0.26061775E+03</pdfrwt>
<totfact> 0.62559561E+03</totfact>
</mgrwt>
</event>
<event>
 4    0  0.1197425E-001  0.2555798E+03  0.7546771E-02  0.1109828E+00
         21   -1    0    0  503  501  0.00000000000E+00  0.00000000000E+00  0.14157668023E+03  0.14157668023E+03  0.00000000000E+00 0.  1.
         21   -1    0    0  501  502 -0.00000000000E+00 -0.00000000000E+00 -0.45250890901E+03  0.45250890901E+03  0.00000000000E+00 0.  1.
         25    1    1    2    0    0 -0.19774535915E+03 -0.10292141234E+03 -0.68210499730E+02  0.26452545522E+03  0.12500000000E+03 0.  0.
         21    1    1    2  503  502  0.19774535915E+03  0.10292141234E+03 -0.24272172904E+03  0.32956013402E+03  0.00000000000E+00 0.  1.
<mgrwt>
<rscale>  3 0.25557982E+03</rscale>
<asrwt>0</asrwt>
<pdfrwt beam="1">  1       21 0.21781028E-01 0.25557982E+03</pdfrwt>
<pdfrwt beam="2">  1       21 0.69616755E-01 0.25557982E+03</pdfrwt>
<totfact> 0.35792145E+04</totfact>
</mgrwt>
</event>
<event>
 4    0  0.1033072E-001  0.3769778E+03  0.7546771E-02  0.1052056E+00
         21   -1    0    0  502  501  0.00000000000E+00  0.00000000000E+00  0.10866842890E+03  0.10866842890E+03  0.00000000000E+00 0.  1.
         21   -1    0    0  503  502 -0.00000000000E+00 -0.00000000000E+00 -0.16505638345E+04  0.16505638345E+04  0.00000000000E+00 0.  1.
         25    1    1    2    0    0  0.18319793595E+03 -0.30483734905E+03 -0.12290555997E+04  0.12855698971E+04  0.12500000000E+03 0.  0.
         21    1    1    2  503  501 -0.18319793595E+03  0.30483734905E+03 -0.31283980588E+03  0.47366236631E+03  0.00000000000E+00 0.  1.
<mgrwt>
<rscale>  3 0.37697784E+03</rscale>
<asrwt>0</asrwt>
<pdfrwt beam="1">  1       21 0.16718219E-01 0.37697784E+03</pdfrwt>
<pdfrwt beam="2">  1       21 0.25393291E+00 0.37697784E+03</pdfrwt>
<totfact> 0.17457048E+03</totfact>
</mgrwt>
</event>
<event>
 4    0  0.1412216E-001  0.2468540E+03  0.7546771E-02  0.1115309E+00
         21   -1    0    0  503  501  0.00000000000E+00  0.00000000000E+00  0.13665274313E+04  0.13665274313E+04  0.00000000000E+00 0. -1.
         21   -1    0    0  501  502 -0.00000000000E+00 -0.00000000000E+00 -0.13393970333E+03  0.13393970333E+03  0.00000000000E+00 0.  1.
         25    1    1    2    0    0  0.10520425777E+03  0.18505119293E+03 -0.28045809604E+01  0.24686989596E+03  0.12500000000E+03 0.  0.
         21    1    1    2  503  502 -0.10520425777E+03 -0.18505119293E+03  0.12353923090E+04  0.12535972387E+04  0.00000000000E+00 0. -1.
<mgrwt>
<rscale>  3 0.24685396E+03</rscale>
<asrwt>0</asrwt>
<pdfrwt beam="1">  1       21 0.21023498E+00 0.24685396E+03</pdfrwt>
<pdfrwt beam="2">  1       21 0.20606109E-01 0.24685396E+03</pdfrwt>
<totfact> 0.24004049E+03</totfact>
</mgrwt>
</event>
<event>
 4    0  0.1191249E-001  0.2859847E+03  0.7546771E-02  0.1092464E+00
         21   -1    0    0  502  501  0.00000000000E+00  0.00000000000E+00  0.13676056659E+04  0.13676056659E+04  0.00000000000E+00 0.  1.
         21   -1    0    0  503  502 -0.00000000000E+00 -0.00000000000E+00 -0.54019501344E+02  0.54019501344E+02  0.00000000000E+00 0.  1.
         25    1    1    2    0    0  0.16857429465E+03  0.19428055446E+03  0.71884799467E+03  0.77364699063E+03  0.12500000000E+03 0.  0.
         21    1    1    2  503  501 -0.16857429465E+03 -0.19428055446E+03  0.59473816989E+03  0.64797817663E+03  0.00000000000E+00 0.  1.
<mgrwt>
<rscale>  3 0.28598466E+03</rscale>
<asrwt>0</asrwt>
<pdfrwt beam="1">  1       21 0.21040084E+00 0.28598466E+03</pdfrwt>
<pdfrwt beam="2">  1       21 0.83106936E-02 0.28598466E+03</pdfrwt>
<totfact> 0.12134490E+04</totfact>
</mgrwt>
</event>
<event>
 4    0  0.1237652E-001  0.2523365E+03  0.7546771E-02  0.1111837E+00
         21   -1    0    0  503  501  0.00000000000E+00  0.00000000000E+00  0.29183645329E+03  0.29183645329E+03  0.00000000000E+00 0.  1.
         21   -1    0    0  501  502 -0.00000000000E+00 -0.00000000000E+00 -0.20097336872E+03  0.20097336872E+03  0.00000000000E+00 0.  1.
         25    1    1    2    0    0 -0.14509761191E+03 -0.16430269700E+03  0.10465046851E+03  0.27317652495E+03  0.12500000000E+03 0.  0.
         21    1    1    2  503  502  0.14509761191E+03  0.16430269700E+03 -0.13787383943E+02  0.21963329707E+03  0.00000000000E+00 0.  1.
<mgrwt>
<rscale>  3 0.25233647E+03</rscale>
<asrwt>0</asrwt>
<pdfrwt beam="1">  1       21 0.44897916E-01 0.25233647E+03</pdfrwt>
<pdfrwt beam="2">  1       21 0.30918980E-01 0.25233647E+03</pdfrwt>
<totfact> 0.46563226E+04</totfact>
</mgrwt>
</event>
<event>
 4    0  0.1303123E-001  0.2619923E+03  0.7546771E-02  0.1105952E+00
         21   -1    0    0  502  501  0.00000000000E+00  0.00000000000E+00  0.27500920767E+03  0.27500920767E+03  0.00000000000E+00 0.  1.
         21   -1    0    0  503  502 -0.00000000000E+00 -0.00000000000E+00 -0.38218249564E+03  0.38218249564E+03  0.00000000000E+00 0.  1.
         25    1    1    2    0    0  0.22310270496E+03  0.56922356803E+02 -0.26920183423E+03  0.37564557659E+03  0.12500000000E+03 0.  0.
         21    1    1    2  503  501 -0.22310270496E+03 -0.56922356803E+02  0.16202854627E+03  0.28154612672E+03  0.00000000000E+00 0.  1.
<mgrwt>
<rscale>  3 0.26199231E+03</rscale>
<asrwt>0</asrwt>
<pdfrwt beam="1">  1       21 0.42309109E-01 0.26199231E+03</pdfrwt>
<pdfrwt beam="2">  1       21 0.58797307E-01 0.26199231E+03</pdfrwt>
<totfact> 0.13982527E+04</totfact>
</mgrwt>
</event>
<event>
 4    0  0.1080416E-001  0.3398671E+03  0.7546771E-02  0.1066853E+00
         21   -1    0    0  503  501  0.00000000000E+00  0.00000000000E+00  0.23829065152E+03  0.23829065152E+03  0.00000000000E+00 0. -1.
         21   -1    0    0  501  502 -0.00000000000E+00 -0.00000000000E+00 -0.21671858418E+04  0.21671858418E+04  0.00000000000E+00 0.  1.
         25    1    1    2    0    0  0.18070653430E+03 -0.25928703391E+03 -0.20417821996E+04  0.20698753992E+04  0.12500000000E+03 0.  0.
         21    1    1    2  503  502 -0.18070653430E+03  0.25928703391E+03  0.11288700935E+03  0.33560109412E+03  0.00000000000E+00 0. -1.
<mgrwt>
<rscale>  3 0.33986706E+03</rscale>
<asrwt>0</asrwt>
<pdfrwt beam="1">  1       21 0.36660100E-01 0.33986706E+03</pdfrwt>
<pdfrwt beam="2">  1       21 0.33341321E+00 0.33986706E+03</pdfrwt>
<totfact> 0.13114011E+02</totfact>
</mgrwt>
</event>
<event>
 4    0  0.1296349E-001  0.2517067E+03  0.7546771E-02  0.1112231E+00
         21   -1    0    0  502  501  0.00000000000E+00  0.00000000000E+00  0.20497442948E+03  0.20497442948E+03  0.00000000000E+00 0.  1.
         21   -1    0    0  503  502 -0.00000000000E+00 -0.00000000000E+00 -0.55982012888E+03  0.55982012888E+03  0.00000000000E+00 0. -1.
         25    1    1    2    0    0  0.96343276667E+02  0.19608474414E+03 -0.45844653482E+03  0.52300045806E+03  0.12500000000E+03 0.  0.
         21    1    1    2  503  501 -0.96343276667E+02 -0.19608474414E+03  0.10360083542E+03  0.24179410030E+03  0.00000000000E+00 0.  1.
<mgrwt>
<rscale>  3 0.25170668E+03</rscale>
<asrwt>0</asrwt>
<pdfrwt beam="1">  1       21 0.31534528E-01 0.25170668E+03</pdfrwt>
<pdfrwt beam="2">  1       21 0.86126173E-01 0.25170668E+03</pdfrwt>
<totfact> 0.10835032E+04</totfact>
</mgrwt>
</event>
<event>
 4    0  0.1315388E-001  0.2376482E+03  0.7546771E-02  0.1121370E+00
         21   -1    0    0  502  501  0.00000000000E+00  0.00000000000E+00  0.16666621609E+03  0.16666621609E+03  0.00000000000E+00 0. -1.
         21   -1    0    0  503  502 -0.00000000000E+00 -0.00000000000E+00 -0.47529463338E+03  0.47529463338E+03  0.00000000000E+00 0. -1.
         25    1    1    2    0    0 -0.20084865454E+03 -0.22615526187E+02 -0.36188859056E+03  0.43294340974E+03  0.12500000000E+03 0.  0.
         21    1    1    2  503  501  0.20084865454E+03  0.22615526187E+02  0.53260173269E+02  0.20901743973E+03  0.00000000000E+00 0. -1.
<mgrwt>
<rscale>  3 0.23764815E+03</rscale>
<asrwt>0</asrwt>
<pdfrwt beam="1">  1       21 0.25640957E-01 0.23764815E+03</pdfrwt>
<pdfrwt beam="2">  1       21 0.73122251E-01 0.23764815E+03</pdfrwt>
<totfact> 0.23687818E+04</totfact>
</mgrwt>
</event>
<event>
 4    0  0.1259172E-001  0.2570172E+03  0.7546771E-02  0.1108949E+00
         21   -1    0    0  503  501  0.00000000000E+00  0.00000000000E+00  0.15242963795E+03  0.15242963795E+03  0.00000000000E+00 0. -1.
         21   -1    0    0  501  502 -0.00000000000E+00 -0.00000000000E+00 -0.61459659724E+03  0.61459659724E+03  0.00000000000E+00 0. -1.
         25    1    1    2    0    0 -0.26236565016E+02  0.22303469671E+03 -0.47713502623E+03  0.54195541010E+03  0.12500000000E+03 0.  0.
         21    1    1    2  503  502  0.26236565016E+02 -0.22303469671E+03  0.14968066946E+02  0.22507082509E+03  0.00000000000E+00 0. -1.
<mgrwt>
<rscale>  3 0.25701718E+03</rscale>
<asrwt>0</asrwt>
<pdfrwt beam="1">  1       21 0.23450713E-01 0.25701718E+03</pdfrwt>
<pdfrwt beam="2">  1       21 0.94553323E-01 0.25701718E+03</pdfrwt>
<totfact> 0.15437058E+04</totfact>
</mgrwt>
</event>
<event>
 4    0  0.1005289E-001  0.3212797E+03  0.7546771E-02  0.1075062E+00
         21   -1    0    0  502  501  0.00000000000E+00  0.00000000000E+00  0.89593791377E+02  0.89593791377E+02  0.00000000000E+00 0.  1.
         21   -1    0    0  503  502 -0.00000000000E+00 -0.00000000000E+00 -0.13402603146E+04  0.13402603146E+04  0.00000000000E+00 0. -1.
         25    1    1    2    0    0  0.15786253858E+03  0.25034984654E+03 -0.97056556976E+03  0.10223591111E+04  0.12500000000E+03 0.  0.
         21    1    1    2  503  501 -0.15786253858E+03 -0.25034984654E+03 -0.28010095344E+03  0.40749499490E+03  0.00000000000E+00 0.  1.
<mgrwt>
<rscale>  3 0.32127967E+03</rscale>
<asrwt>0</asrwt>
<pdfrwt beam="1">  1       21 0.13783661E-01 0.32127967E+03</pdfrwt>
<pdfrwt beam="2">  1       21 0.20619388E+00 0.32127967E+03</pdfrwt>
<totfact> 0.51085840E+03</totfact>
</mgrwt>
</event>
<event>
 4    0  0.1101731E-001  0.2753093E+03  0.7546771E-02  0.1098279E+00
         21   -1    0    0  503  501  0.00000000000E+00  0.00000000000E+00  0.20363570629E+03  0.20363570629E+03  0.00000000000E+00 0. -1.
         21   -1    0    0  501  502 -0.00000000000E+00 -0.00000000000E+00 -0.55889494888E+03  0.55889494888E+03  0.00000000000E+00 0.  1.
         25    1    1    2    0    0  0.62444823807E+02 -0.23721482569E+03 -0.42601665435E+03  0.50723310157E+03  0.12500000000E+03 0.  0.
         21    1    1    2  503  502 -0.62444823807E+02  0.23721482569E+03  0.70757411761E+02  0.25529755359E+03  0.00000000000E+00 0. -1.
<mgrwt>
<rscale>  3 0.27530933E+03</rscale>
<asrwt>0</asrwt>
<pdfrwt beam="1">  1       21 0.31328571E-01 0.27530933E+03</pdfrwt>
<pdfrwt beam="2">  1       21 0.85983836E-01 0.27530933E+03</pdfrwt>
<totfact> 0.10883948E+04</totfact>
</mgrwt>
</event>
<event>
 4    0  0.1087694E-001  0.2685805E+03  0.7546771E-02  0.1102095E+00
         21   -1    0    0  503  501  0.00000000000E+00  0.00000000000E+00  0.11718350246E+03  0.11718350246E+03  0.00000000000E+00 0.  1.
         21   -1    0    0  501  502 -0.00000000000E+00 -0.00000000000E+00 -0.61804891831E+03  0.61804891831E+03  0.00000000000E+00 0.  1.
         25    1    1    2    0    0  0.17326438725E+03  0.16275728138E+03 -0.13939525412E+03  0.30259959915E+03  0.12500000000E+03 0.  0.
         21    1    1    2  503  502 -0.17326438725E+03 -0.16275728138E+03 -0.36147016172E+03  0.43263282162E+03  0.00000000000E+00 0.  1.
<mgrwt>
<rscale>  3 0.26858049E+03</rscale>
<asrwt>0</asrwt>
<pdfrwt beam="1">  1       21 0.18028231E-01 0.26858049E+03</pdfrwt>
<pdfrwt beam="2">  1       21 0.95084449E-01 0.26858049E+03</pdfrwt>
<totfact> 0.24882165E+04</totfact>
</mgrwt>
</event>
<event>
 4    0  0.1479601E-001  0.2754487E+03  0.7546771E-02  0.1098201E+00
         21   -1    0    0  503  501  0.00000000000E+00  0.00000000000E+00  0.11620065674E+03  0.11620065674E+03  0.00000000000E+00 0.  1.
         21   -1    0    0  501  502 -0.00000000000E+00 -0.00000000000E+00 -0.86260363795E+03  0.86260363795E+03  0.00000000000E+00 0.  1.
         25    1    1    2    0    0 -0.44266413575E+02  0.24142796952E+03 -0.66568122859E+03  0.72041896000E+03  0.12500000000E+03 0.  0.
         21    1    1    2  503  502  0.44266413575E+02 -0.24142796952E+03 -0.80721752620E+02  0.25838533469E+03  0.00000000000E+00 0.  1.
<mgrwt>
<rscale>  3 0.27544869E+03</rscale>
<asrwt>0</asrwt>
<pdfrwt beam="1">  1       21 0.17877023E-01 0.27544869E+03</pdfrwt>
<pdfrwt beam="2">  1       21 0.13270826E+00 0.27544869E+03</pdfrwt>
<totfact> 0.11082517E+04</totfact>
</mgrwt>
</event>
<event>
 4    0  0.1236526E-001  0.2381898E+03  0.7546771E-02  0.1121005E+00
         21   -1    0    0  502  501  0.00000000000E+00  0.00000000000E+00  0.18296386423E+03  0.18296386423E+03  0.00000000000E+00 0. -1.
         21   -1    0    0  503  502 -0.00000000000E+00 -0.00000000000E+00 -0.86103586287E+03  0.86103586287E+03  0.00000000000E+00 0. -1.
         25    1    1    2    0    0  0.35192033852E+02 -0.19967703221E+03 -0.78107192454E+03  0.81658297052E+03  0.12500000000E+03 0.  0.
         21    1    1    2  503  501 -0.35192033852E+02  0.19967703221E+03  0.10299992589E+03  0.22741675658E+03  0.00000000000E+00 0. -1.
<mgrwt>
<rscale>  3 0.23818983E+03</rscale>
<asrwt>0</asrwt>
<pdfrwt beam="1">  1       21 0.28148286E-01 0.23818983E+03</pdfrwt>
<pdfrwt beam="2">  1       21 0.13246706E+00 0.23818983E+03</pdfrwt>
<totfact> 0.48009655E+03</totfact>
</mgrwt>
</event>
<event>
 4    0  0.1329830E-001  0.3885131E+03  0.7546771E-02  0.1047831E+00
         21   -1    0    0  503  501  0.00000000000E+00  0.00000000000E+00  0.26230862901E+03  0.26230862901E+03  0.00000000000E+00 0. -1.
         21   -1    0    0  501  502 -0.00000000000E+00 -0.00000000000E+00 -0.67055348378E+03  0.67055348378E+03  0.00000000000E+00 0. -1.
         25    1    1    2    0    0  0.16194212380E+03  0.33029104942E+03 -0.41022480583E+03  0.56500161071E+03  0.12500000000E+03 0.  0.
         21    1    1    2  503  502 -0.16194212380E+03 -0.33029104942E+03  0.19799510522E+01  0.36786050208E+03  0.00000000000E+00 0. -1.
<mgrwt>
<rscale>  3 0.38851310E+03</rscale>
<asrwt>0</asrwt>
<pdfrwt beam="1">  1       21 0.40355174E-01 0.38851310E+03</pdfrwt>
<pdfrwt beam="2">  1       21 0.10316207E+00 0.38851310E+03</pdfrwt>
<totfact> 0.40323037E+03</totfact>
</mgrwt>
</event>
<event>
 4    0  0.1005289E-001  0.2457942E+03  0.7546771E-02  0.1115992E+00
         21   -1    0    0  502  501  0.00000000000E+00  0.00000000000E+00  0.19176852741E+04  0.19176852741E+04  0.00000000000E+00 0. -1.
         21   -1    0    0  503  502 -0.00000000000E+00 -0.00000000000E+00 -0.37367265064E+02  0.37367265064E+02  0.00000000000E+00 0. -1.
         25    1    1    2    0    0 -0.18299843732E+03  0.10630796602E+03  0.48450354408E+03  0.54328491230E+03  0.12500000000E+03 0.  0.
         21    1    1    2  503  501  0.18299843732E+03 -0.10630796602E+03  0.13958144649E+04  0.14117676268E+04  0.00000000000E+00 0. -1.
<mgrwt>
<rscale>  3 0.24579425E+03</rscale>
<asrwt>0</asrwt>
<pdfrwt beam="1">  1       21 0.29502843E+00 0.24579425E+03</pdfrwt>
<pdfrwt beam="2">  1       21 0.57488115E-02 0.24579425E+03</pdfrwt>
<totfact> 0.73405076E+03</totfact>
</mgrwt>
</event>
<event>
 4    0  0.1403671E-001  0.2361389E+03  0.7546771E-02  0.1122392E+00
         21   -1    0    0  502  501  0.00000000000E+00  0.00000000000E+00  0.66251126142E+02  0.66251126142E+02  0.00000000000E+00 0.  1.
         21   -1    0    0  503  502 -0.00000000000E+00 -0.00000000000E+00 -0.74914339297E+03  0.74914339297E+03  0.00000000000E+00 0.  1.
         25    1    1    2    0    0 -0.10118967927E+03  0.17290819169E+03 -0.44995505881E+03  0.50815465057E+03  0.12500000000E+03 0.  0.
         21    1    1    2  503  501  0.10118967927E+03 -0.17290819169E+03 -0.23293720802E+03  0.30723986854E+03  0.00000000000E+00 0.  1.
<mgrwt>
<rscale>  3 0.23613893E+03</rscale>
<asrwt>0</asrwt>
<pdfrwt beam="1">  1       21 0.10192481E-01 0.23613893E+03</pdfrwt>
<pdfrwt beam="2">  1       21 0.11525283E+00 0.23613893E+03</pdfrwt>
<totfact> 0.44752500E+04</totfact>
</mgrwt>
</event>
<event>
 4    0  0.1100968E-001  0.2705489E+03  0.7546771E-02  0.1100966E+00
         21   -1    0    0  502  501  0.00000000000E+00  0.00000000000E+00  0.69962991934E+03  0.69962991934E+03  0.00000000000E+00 0.  1.
         21   -1    0    0  503  502 -0.00000000000E+00 -0.00000000000E+00 -0.10413591418E+03  0.10413591418E+03  0.00000000000E+00 0.  1.
         25    1    1    2    0    0  0.28629884961E+01 -0.23992391818E+03  0.44420716001E+03  0.52011218427E+03  0.12500000000E+03 0.  0.
         21    1    1    2  503  501 -0.28629884961E+01  0.23992391818E+03  0.15128684515E+03  0.28365364925E+03  0.00000000000E+00 0.  1.
<mgrwt>
<rscale>  3 0.27054886E+03</rscale>
<asrwt>0</asrwt>
<pdfrwt beam="1">  1       21 0.10763537E+00 0.27054886E+03</pdfrwt>
<pdfrwt beam="2">  1       21 0.16020910E-01 0.27054886E+03</pdfrwt>
<totfact> 0.22971148E+04</totfact>
</mgrwt>
</event>
<event>
 4    0  0.1005289E-001  0.3451531E+03  0.7546771E-02  0.1064622E+00
         21   -1    0    0  502  501  0.00000000000E+00  0.00000000000E+00  0.26179355453E+03  0.26179355453E+03  0.00000000000E+00 0.  1.
         21   -1    0    0  503  502 -0.00000000000E+00 -0.00000000000E+00 -0.13193935936E+04  0.13193935936E+04  0.00000000000E+00 0.  1.
         25    1    1    2    0    0  0.13539315612E+03  0.29184647460E+03 -0.11856881667E+04  0.12349036805E+04  0.12500000000E+03 0.  0.
         21    1    1    2  503  501 -0.13539315612E+03 -0.29184647460E+03  0.12808812768E+03  0.34628346757E+03  0.00000000000E+00 0.  1.
<mgrwt>
<rscale>  3 0.34515311E+03</rscale>
<asrwt>0</asrwt>
<pdfrwt beam="1">  1       21 0.40275933E-01 0.34515311E+03</pdfrwt>
<pdfrwt beam="2">  1       21 0.20298362E+00 0.34515311E+03</pdfrwt>
<totfact> 0.66863136E+02</totfact>
</mgrwt>
</event>
<event>
 4    0  0.1359480E-001  0.2373173E+03  0.7546771E-02  0.1121593E+00
         21   -1    0    0  502  501  0.00000000000E+00  0.00000000000E+00  0.19008112050E+03  0.19008112050E+03  0.00000000000E+00 0.  1.
         21   -1    0    0  503  502 -0.00000000000E+00 -0.00000000000E+00 -0.54441663468E+03  0.54441663468E+03  0.00000000000E+00 0.  1.
         25    1    1    2    0    0  0.14216569641E+03 -0.14312029983E+03 -0.45189241981E+03  0.51041773533E+03  0.12500000000E+03 0.  0.
         21    1    1    2  503  501 -0.14216569641E+03  0.14312029983E+03  0.97556905623E+02  0.22408001985E+03  0.00000000000E+00 0.  1.
<mgrwt>
<rscale>  3 0.23731731E+03</rscale>
<asrwt>0</asrwt>
<pdfrwt beam="1">  1       21 0.29243249E-01 0.23731731E+03</pdfrwt>
<pdfrwt beam="2">  1       21 0.83756405E-01 0.23731731E+03</pdfrwt>
<totfact> 0.13503690E+04</totfact>
</mgrwt>
</event>
<event>
 4    0  0.1005289E-001  0.2483710E+03  0.7546771E-02  0.1114339E+00
         21   -1    0    0  502  501  0.00000000000E+00  0.00000000000E+00  0.85425388950E+03  0.85425388950E+03  0.00000000000E+00 0. -1.
         21   -1    0    0  503  502 -0.00000000000E+00 -0.00000000000E+00 -0.81504766586E+02  0.81504766586E+02  0.00000000000E+00 0.  1.
         25    1    1    2    0    0 -0.15794488309E+03  0.14531548470E+03  0.18397776121E+03  0.30908897232E+03  0.12500000000E+03 0.  0.
         21    1    1    2  503  501  0.15794488309E+03 -0.14531548470E+03  0.58877136170E+03  0.62666968377E+03  0.00000000000E+00 0. -1.
<mgrwt>
<rscale>  3 0.24837105E+03</rscale>
<asrwt>0</asrwt>
<pdfrwt beam="1">  1       21 0.13142367E+00 0.24837105E+03</pdfrwt>
<pdfrwt beam="2">  1       21 0.12539195E-01 0.24837105E+03</pdfrwt>
<totfact> 0.22080521E+04</totfact>
</mgrwt>
</event>
<event>
 4    0  0.1809563E-001  0.2779185E+03  0.7546771E-02  0.1096831E+00
         21   -1    0    0  503  501  0.00000000000E+00  0.00000000000E+00  0.53806059227E+03  0.53806059227E+03  0.00000000000E+00 0.  1.
         21   -1    0    0  501  502 -0.00000000000E+00 -0.00000000000E+00 -0.50774842463E+03  0.50774842463E+03  0.00000000000E+00 0. -1.
         25    1    1    2    0    0  0.61991939966E+02 -0.24035536470E+03 -0.43629130003E+03  0.51728986114E+03  0.12500000000E+03 0.  0.
         21    1    1    2  503  502 -0.61991939966E+02  0.24035536470E+03  0.46660346767E+03  0.52851915576E+03  0.00000000000E+00 0.  1.
<mgrwt>
<rscale>  3 0.27791852E+03</rscale>
<asrwt>0</asrwt>
<pdfrwt beam="1">  1       21 0.82778553E-01 0.27791852E+03</pdfrwt>
<pdfrwt beam="2">  1       21 0.78115142E-01 0.27791852E+03</pdfrwt>
<totfact> 0.17284219E+03</totfact>
</mgrwt>
</event>
<event>
 4    0  0.1005289E-001  0.3329499E+03  0.7546771E-02  0.1069839E+00
         21   -1    0    0  502  501  0.00000000000E+00  0.00000000000E+00  0.13679294289E+03  0.13679294289E+03  0.00000000000E+00 0. -1.
         21   -1    0    0  503  502 -0.00000000000E+00 -0.00000000000E+00 -0.13324142191E+04  0.13324142191E+04  0.00000000000E+00 0.  1.
         25    1    1    2    0    0  0.25592110182E+03 -0.17243854119E+03 -0.10951888159E+04  0.11446808304E+04  0.12500000000E+03 0.  0.
         21    1    1    2  503  501 -0.25592110182E+03  0.17243854119E+03 -0.10043246028E+03  0.32452633163E+03  0.00000000000E+00 0. -1.
<mgrwt>
<rscale>  3 0.33294994E+03</rscale>
<asrwt>0</asrwt>
<pdfrwt beam="1">  1       21 0.21045069E-01 0.33294994E+03</pdfrwt>
<pdfrwt beam="2">  1       21 0.20498679E+00 0.33294994E+03</pdfrwt>
<totfact> 0.23480560E+03</totfact>
</mgrwt>
</event>
<event>
 4    0  0.1452001E-001  0.3000382E+03  0.7546771E-02  0.1085222E+00
         21   -1    0    0  503  501  0.00000000000E+00  0.00000000000E+00  0.95184182967E+02  0.95184182967E+02  0.00000000000E+00 0. -1.
         21   -1    0    0  501  502 -0.00000000000E+00 -0.00000000000E+00 -0.88427815964E+03  0.88427815964E+03  0.00000000000E+00 0. -1.
         25    1    1    2    0    0 -0.47009776724E+02 -0.26867827411E+03 -0.49094900282E+03  0.57537279867E+03  0.12500000000E+03 0.  0.
         21    1    1    2  503  502  0.47009776724E+02  0.26867827411E+03 -0.29814497386E+03  0.40408954394E+03  0.00000000000E+00 0. -1.
<mgrwt>
<rscale>  3 0.30003822E+03</rscale>
<asrwt>0</asrwt>
<pdfrwt beam="1">  1       21 0.14643720E-01 0.30003822E+03</pdfrwt>
<pdfrwt beam="2">  1       21 0.13604280E+00 0.30003822E+03</pdfrwt>
<totfact> 0.14856317E+04</totfact>
</mgrwt>
</event>
<event>
 4    0  0.1005289E-001  0.4946412E+03  0.7546771E-02  0.1015187E+00
         21   -1    0    0  503  501  0.00000000000E+00  0.00000000000E+00  0.23972753131E+04  0.23972753131E+04  0.00000000000E+00 0.  1.
         21   -1    0    0  501  502 -0.00000000000E+00 -0.00000000000E+00 -0.12904753189E+03  0.12904753189E+03  0.00000000000E+00 0.  1.
         25    1    1    2    0    0 -0.12007558592E+03 -0.46327829622E+03  0.53670828387E+03  0.72988061219E+03  0.12500000000E+03 0.  0.
         21    1    1    2  503  502  0.12007558592E+03  0.46327829622E+03  0.17315194973E+04  0.17964422328E+04  0.00000000000E+00 0.  1.
<mgrwt>
<rscale>  3 0.49464121E+03</rscale>
<asrwt>0</asrwt>
<pdfrwt beam="1">  1       21 0.36881155E+00 0.49464121E+03</pdfrwt>
<pdfrwt beam="2">  1       21 0.19853468E-01 0.49464121E+03</pdfrwt>
<totfact> 0.23700988E+02</totfact>
</mgrwt>
</event>
<event>
 4    0  0.1005289E-001  0.4429751E+03  0.7546771E-02  0.1029838E+00
         21   -1    0    0  503  501  0.00000000000E+00  0.00000000000E+00  0.53406141713E+03  0.53406141713E+03  0.00000000000E+00 0.  1.
         21   -1    0    0  501  502 -0.00000000000E+00 -0.00000000000E+00 -0.82913670780E+03  0.82913670780E+03  0.00000000000E+00 0.  1.
         25    1    1    2    0    0  0.39714073358E+02  0.42311309244E+03 -0.66549869712E+03  0.79944694163E+03  0.12500000000E+03 0.  0.
         21    1    1    2  503  502 -0.39714073358E+02 -0.42311309244E+03  0.37042340646E+03  0.56375118329E+03  0.00000000000E+00 0.  1.
<mgrwt>
<rscale>  3 0.44297505E+03</rscale>
<asrwt>0</asrwt>
<pdfrwt beam="1">  1       21 0.82163295E-01 0.44297505E+03</pdfrwt>
<pdfrwt beam="2">  1       21 0.12755949E+00 0.44297505E+03</pdfrwt>
<totfact> 0.49187910E+02</totfact>
</mgrwt>
</event>
<event>
 4    0  0.1559231E-001  0.2394668E+03  0.7546771E-02  0.1120149E+00
         21   -1    0    0  502  501  0.00000000000E+00  0.00000000000E+00  0.14282683694E+03  0.14282683694E+03  0.00000000000E+00 0.  1.
         21   -1    0    0  503  502 -0.00000000000E+00 -0.00000000000E+00 -0.37605613302E+03  0.37605613302E+03  0.00000000000E+00 0.  1.
         25    1    1    2    0    0 -0.13649282233E+03  0.15195089212E+03 -0.19988307420E+03  0.31192564421E+03  0.12500000000E+03 0.  0.
         21    1    1    2  503  501  0.13649282233E+03 -0.15195089212E+03 -0.33346221879E+02  0.20695732574E+03  0.00000000000E+00 0.  1.
<mgrwt>
<rscale>  3 0.23946683E+03</rscale>
<asrwt>0</asrwt>
<pdfrwt beam="1">  1       21 0.21973360E-01 0.23946683E+03</pdfrwt>
<pdfrwt beam="2">  1       21 0.57854789E-01 0.23946683E+03</pdfrwt>
<totfact> 0.53065640E+04</totfact>
</mgrwt>
</event>
<event>
 4    0  0.1005289E-001  0.2703741E+03  0.7546771E-02  0.1101066E+00
         21   -1    0    0  503  501  0.00000000000E+00  0.00000000000E+00  0.90261893558E+02  0.90261893558E+02  0.00000000000E+00 0.  1.
         21   -1    0    0  501  502 -0.00000000000E+00 -0.00000000000E+00 -0.16222188360E+04  0.16222188360E+04  0.00000000000E+00 0.  1.
         25    1    1    2    0    0 -0.23973688410E+03  0.18452547287E+01 -0.14241934169E+04  0.14496306658E+04  0.12500000000E+03 0.  0.
         21    1    1    2  503  502  0.23973688410E+03 -0.18452547287E+01 -0.10776352554E+03  0.26285006373E+03  0.00000000000E+00 0.  1.
<mgrwt>
<rscale>  3 0.27037415E+03</rscale>
<asrwt>0</asrwt>
<pdfrwt beam="1">  1       21 0.13886447E-01 0.27037415E+03</pdfrwt>
<pdfrwt beam="2">  1       21 0.24957210E+00 0.27037415E+03</pdfrwt>
<totfact> 0.28056366E+03</totfact>
</mgrwt>
</event>
<event>
 4    0  0.1403814E-001  0.2698285E+03  0.7546771E-02  0.1101378E+00
         21   -1    0    0  503  501  0.00000000000E+00  0.00000000000E+00  0.30899938264E+03  0.30899938264E+03  0.00000000000E+00 0.  1.
         21   -1    0    0  501  502 -0.00000000000E+00 -0.00000000000E+00 -0.22547948491E+03  0.22547948491E+03  0.00000000000E+00 0.  1.
         25    1    1    2    0    0 -0.20893072791E+03 -0.11632018076E+03  0.11495084442E+03  0.29329359037E+03  0.12500000000E+03 0.  0.
         21    1    1    2  503  502  0.20893072791E+03  0.11632018076E+03 -0.31430946688E+02  0.24118527718E+03  0.00000000000E+00 0.  1.
<mgrwt>
<rscale>  3 0.26982853E+03</rscale>
<asrwt>0</asrwt>
<pdfrwt beam="1">  1       21 0.47538367E-01 0.26982853E+03</pdfrwt>
<pdfrwt beam="2">  1       21 0.34689151E-01 0.26982853E+03</pdfrwt>
<totfact> 0.32685808E+04</totfact>
</mgrwt>
</event>
<event>
 4    0  0.1590546E-001  0.4353863E+03  0.7546771E-02  0.1032172E+00
         21   -1    0    0  503  501  0.00000000000E+00  0.00000000000E+00  0.38463504575E+03  0.38463504575E+03  0.00000000000E+00 0. -1.
         21   -1    0    0  501  502 -0.00000000000E+00 -0.00000000000E+00 -0.51599248653E+03  0.51599248653E+03  0.00000000000E+00 0. -1.
         25    1    1    2    0    0 -0.27901567465E+03  0.30997813714E+03 -0.19797546710E+03  0.47828388827E+03  0.12500000000E+03 0.  0.
         21    1    1    2  503  502  0.27901567465E+03 -0.30997813714E+03  0.66618026319E+02  0.42234364401E+03  0.00000000000E+00 0. -1.
<mgrwt>
<rscale>  3 0.43538626E+03</rscale>
<asrwt>0</asrwt>
<pdfrwt beam="1">  1       21 0.59174622E-01 0.43538626E+03</pdfrwt>
<pdfrwt beam="2">  1       21 0.79383460E-01 0.43538626E+03</pdfrwt>
<totfact> 0.32756157E+03</totfact>
</mgrwt>
</event>
<event>
 4    0  0.1370932E-001  0.4099758E+03  0.7546771E-02  0.1040379E+00
         21   -1    0    0  502  501  0.00000000000E+00  0.00000000000E+00  0.22907204846E+03  0.22907204846E+03  0.00000000000E+00 0.  1.
         21   -1    0    0  503  502 -0.00000000000E+00 -0.00000000000E+00 -0.77698501307E+03  0.77698501307E+03  0.00000000000E+00 0.  1.
         25    1    1    2    0    0  0.36100478466E+03  0.14876391571E+03 -0.43906323684E+03  0.60071347838E+03  0.12500000000E+03 0.  0.
         21    1    1    2  503  501 -0.36100478466E+03 -0.14876391571E+03 -0.10884972778E+03  0.40534358315E+03  0.00000000000E+00 0.  1.
<mgrwt>
<rscale>  3 0.40997580E+03</rscale>
<asrwt>0</asrwt>
<pdfrwt beam="1">  1       21 0.35241854E-01 0.40997580E+03</pdfrwt>
<pdfrwt beam="2">  1       21 0.11953615E+00 0.40997580E+03</pdfrwt>
<totfact> 0.36569747E+03</totfact>
</mgrwt>
</event>
