<event>
 5    0  0.1911311E+001  0.2599686E+03  0.7546771E-02  0.1107162E+00
         21   -1    0    0  502  501  0.00000000000E+00  0.00000000000E+00  0.68074143920E+03  0.68074143920E+03  0.00000000000E+00 0. -1.
         21   -1    0    0  504  502 -0.00000000000E+00 -0.00000000000E+00 -0.73705377834E+03  0.73705377834E+03  0.00000000000E+00 0. -1.
         25    1    1    2    0    0 -0.22878627619E+03 -0.30854528739E+02 -0.53364610188E+03  0.59472541914E+03  0.12500000000E+03 0.  0.
         21    1    1    2  503  501  0.22771423640E+03 -0.10819825924E+02  0.62728795848E+03  0.66742866656E+03  0.00000000000E+00 0. -1.
         21    1    1    2  504  503  0.10720397883E+01  0.41674354663E+02 -0.14995419573E+03  0.15564113185E+03  0.00000000000E+00 0. -1.
<mgrwt>
<rscale>  4 0.25996862E+03</rscale>
<asrwt>0</asrwt>
<pdfrwt beam="1">  1       21 0.10472945E+00 0.25996862E+03</pdfrwt>
<pdfrwt beam="2">  1       21 0.11339289E+00 0.25996862E+03</pdfrwt>
<totfact> 0.41720249E+02</totfact>
</mgrwt>
</event>
<event>
 5    0  0.1911311E+001  0.2819480E+03  0.7546771E-02  0.1094630E+00
         21   -1    0    0  502  501  0.00000000000E+00  0.00000000000E+00  0.87771122348E+03  0.87771122348E+03  0.00000000000E+00 0. -1.
         21   -1    0    0  504  502 -0.00000000000E+00 -0.00000000000E+00 -0.61136247624E+03  0.61136247624E+03  0.00000000000E+00 0. -1.
         25    1    1    2    0    0  0.26268071402E+03 -0.30553729630E+03 -0.14562185498E+03  0.44630137979E+03  0.12500000000E+03 0.  0.
         21    1    1    2  503  501 -0.83341441409E+02  0.18455255193E+03  0.67354700089E+03  0.70332851690E+03  0.00000000000E+00 0. -1.
         21    1    1    2  504  503 -0.17933927261E+03  0.12098474437E+03 -0.26157639867E+03  0.33944380303E+03  0.00000000000E+00 0. -1.
<mgrwt>
<rscale>  4 0.28194805E+03</rscale>
<asrwt>0</asrwt>
<pdfrwt beam="1">  1       21 0.13503250E+00 0.28194805E+03</pdfrwt>
<pdfrwt beam="2">  1       21 0.94055766E-01 0.28194805E+03</pdfrwt>
<totfact> 0.34109152E+02</totfact>
</mgrwt>
</event>
<event>
 5    0  0.1911311E+001  0.2679570E+03  0.7546771E-02  0.1102455E+00
         21   -1    0    0  503  501  0.00000000000E+00  0.00000000000E+00  0.46890875636E+03  0.46890875636E+03  0.00000000000E+00 0. -1.
         21   -1    0    0  504  502 -0.00000000000E+00 -0.00000000000E+00 -0.27430878292E+03  0.27430878292E+03  0.00000000000E+00 0. -1.
         25    1    1    2    0    0  0.25522500167E+03  0.97964860404E+02  0.24842109809E+03  0.38996789269E+03  0.12500000000E+03 0.  0.
         21    1    1    2  503  502 -0.21840537255E+03 -0.70414171636E+02 -0.13038979247E+03  0.26393287083E+03  0.00000000000E+00 0. -1.
         21    1    1    2  504  501 -0.36819629122E+02 -0.27550688768E+02  0.76568667817E+02  0.89316775757E+02  0.00000000000E+00 0. -1.
<mgrwt>
<rscale>  4 0.26795698E+03</rscale>
<asrwt>0</asrwt>
<pdfrwt beam="1">  1       21 0.72139809E-01 0.26795698E+03</pdfrwt>
<pdfrwt beam="2">  1       21 0.42201351E-01 0.26795698E+03</pdfrwt>
<totfact> 0.89442795E+03</totfact>
</mgrwt>
</event>
<event>
 5    0  0.1911311E+001  0.2401674E+03  0.7546771E-02  0.1119681E+00
         21   -1    0    0  502  501  0.00000000000E+00  0.00000000000E+00  0.17805252892E+03  0.17805252892E+03  0.00000000000E+00 0.  1.
         21   -1    0    0  504  502 -0.00000000000E+00 -0.00000000000E+00 -0.47906351193E+03  0.47906351193E+03  0.00000000000E+00 0.  1.
         25    1    1    2    0    0 -0.17052430936E+03  0.12261214835E+03 -0.29415692995E+03  0.38244683087E+03  0.12500000000E+03 0.  0.
         21    1    1    2  503  501  0.19498404799E+03 -0.54868224156E+02 -0.45569056403E+01  0.20260815971E+03  0.00000000000E+00 0.  1.
         21    1    1    2  504  503 -0.24459738631E+02 -0.67743924194E+02 -0.22971474302E+01  0.72061050266E+02  0.00000000000E+00 0.  1.
<mgrwt>
<rscale>  4 0.24016736E+03</rscale>
<asrwt>0</asrwt>
<pdfrwt beam="1">  1       21 0.27392696E-01 0.24016736E+03</pdfrwt>
<pdfrwt beam="2">  1       21 0.73702080E-01 0.24016736E+03</pdfrwt>
<totfact> 0.20459306E+04</totfact>
</mgrwt>
</event>
