<event>
 5    0  0.2159162E+000  0.2476704E+03  0.7546771E-02  0.1114786E+00
         21   -1    0    0  502  501  0.00000000000E+00  0.00000000000E+00  0.17138582652E+04  0.17138582652E+04  0.00000000000E+00 0.  1.
         21   -1    0    0  503  502 -0.00000000000E+00 -0.00000000000E+00 -0.61876736240E+03  0.61876736240E+03  0.00000000000E+00 0.  1.
         25    1    1    2    0    0  0.73223889661E+02 -0.20026131255E+03  0.16582083969E+04  0.16765280847E+04  0.12500000000E+03 0.  0.
         21    1    1    2  503  504 -0.17348376010E+02 -0.46106685040E+02 -0.13309338367E+02  0.51028727628E+02  0.00000000000E+00 0. -1.
         21    1    1    2  504  501 -0.55875513651E+02  0.24636799759E+03 -0.54980815565E+03  0.60506881532E+03  0.00000000000E+00 0.  1.
<mgrwt>
<rscale>  4 0.24767037E+03</rscale>
<asrwt>0</asrwt>
<pdfrwt beam="1">  1       21 0.26367050E+00 0.24767037E+03</pdfrwt>
<pdfrwt beam="2">  1       21 0.95194980E-01 0.24767037E+03</pdfrwt>
<totfact> 0.47028626E+01</totfact>
</mgrwt>
</event>
<event>
 5    0  0.4179661E+000  0.2512115E+03  0.7546771E-02  0.1112542E+00
         21   -1    0    0  502  501  0.00000000000E+00  0.00000000000E+00  0.12283540160E+04  0.12283540160E+04  0.00000000000E+00 0.  1.
         21   -1    0    0  503  502 -0.00000000000E+00 -0.00000000000E+00 -0.12985126445E+03  0.12985126445E+03  0.00000000000E+00 0. -1.
         25    1    1    2    0    0 -0.10636368753E+03 -0.19018142980E+03  0.11041372184E+04  0.11323542765E+04  0.12500000000E+03 0.  0.
         21    1    1    2  503  504  0.14564568890E+02  0.34941287083E+02  0.21399016106E+02  0.43484918079E+02  0.00000000000E+00 0. -1.
         21    1    1    2  504  501  0.91799118639E+02  0.15524014272E+03 -0.27033482987E+02  0.18236608593E+03  0.00000000000E+00 0. -1.
<mgrwt>
<rscale>  4 0.25121149E+03</rscale>
<asrwt>0</asrwt>
<pdfrwt beam="1">  1       21 0.18897753E+00 0.25121149E+03</pdfrwt>
<pdfrwt beam="2">  1       21 0.19977118E-01 0.25121149E+03</pdfrwt>
<totfact> 0.34872469E+03</totfact>
</mgrwt>
</event>
<event>
 5    0  0.2159162E+000  0.2396867E+03  0.7546771E-02  0.1120002E+00
         21   -1    0    0  502  501  0.00000000000E+00  0.00000000000E+00  0.39114713755E+02  0.39114713755E+02  0.00000000000E+00 0.  1.
         21   -1    0    0  503  502 -0.00000000000E+00 -0.00000000000E+00 -0.27538760517E+04  0.27538760517E+04  0.00000000000E+00 0.  1.
         25    1    1    2    0    0 -0.76275446076E+01  0.20882079110E+03 -0.41974278368E+03  0.48525591875E+03  0.12500000000E+03 0.  0.
         21    1    1    2  503  504 -0.39638304771E+02 -0.23066222582E+02 -0.64316247856E+03  0.64479548669E+03  0.00000000000E+00 0.  1.
         21    1    1    2  504  501  0.47265849378E+02 -0.18575456851E+03 -0.16518560757E+04  0.16629393600E+04  0.00000000000E+00 0.  1.
<mgrwt>
<rscale>  4 0.23968666E+03</rscale>
<asrwt>0</asrwt>
<pdfrwt beam="1">  1       21 0.60176462E-02 0.23968666E+03</pdfrwt>
<pdfrwt beam="2">  1       21 0.42367338E+00 0.23968666E+03</pdfrwt>
<totfact> 0.11344788E+03</totfact>
</mgrwt>
</event>
<event>
 5    0  0.2159162E+000  0.3591639E+03  0.7546771E-02  0.1058915E+00
         21   -1    0    0  502  501  0.00000000000E+00  0.00000000000E+00  0.27704527925E+04  0.27704527925E+04  0.00000000000E+00 0.  1.
         21   -1    0    0  503  502 -0.00000000000E+00 -0.00000000000E+00 -0.56701199637E+02  0.56701199637E+02  0.00000000000E+00 0.  1.
         25    1    1    2    0    0 -0.10895567675E+03  0.31859432216E+03  0.20313740050E+04  0.20628812447E+04  0.12500000000E+03 0.  0.
         21    1    1    2  503  504  0.10354897090E+03 -0.23760859391E+03  0.56441957332E+03  0.62108750432E+03  0.00000000000E+00 0.  1.
         21    1    1    2  504  501  0.54067058555E+01 -0.80985728251E+02  0.11795801457E+03  0.14318524313E+03  0.00000000000E+00 0.  1.
<mgrwt>
<rscale>  4 0.35916386E+03</rscale>
<asrwt>0</asrwt>
<pdfrwt beam="1">  1       21 0.42622340E+00 0.35916386E+03</pdfrwt>
<pdfrwt beam="2">  1       21 0.87232636E-02 0.35916386E+03</pdfrwt>
<totfact> 0.50617784E+02</totfact>
</mgrwt>
</event>
<event>
 5    0  0.3002397E+000  0.2312872E+03  0.7546771E-02  0.1125737E+00
         21   -1    0    0  502  501  0.00000000000E+00  0.00000000000E+00  0.29312296235E+03  0.29312296235E+03  0.00000000000E+00 0.  1.
         21   -1    0    0  503  502 -0.00000000000E+00 -0.00000000000E+00 -0.21353850457E+03  0.21353850457E+03  0.00000000000E+00 0.  1.
         25    1    1    2    0    0  0.74342282567E+02  0.20247104635E+03  0.10479516693E+03  0.27042249648E+03  0.12500000000E+03 0.  0.
         21    1    1    2  503  504 -0.55624129048E+02 -0.17829303780E+03 -0.53816449778E+02  0.19436733606E+03  0.00000000000E+00 0.  1.
         21    1    1    2  504  501 -0.18718153520E+02 -0.24178008555E+02  0.28605740637E+02  0.41871634388E+02  0.00000000000E+00 0.  1.
<mgrwt>
<rscale>  4 0.23128722E+03</rscale>
<asrwt>0</asrwt>
<pdfrwt beam="1">  1       21 0.45095840E-01 0.23128722E+03</pdfrwt>
<pdfrwt beam="2">  1       21 0.32852078E-01 0.23128722E+03</pdfrwt>
<totfact> 0.41300457E+04</totfact>
</mgrwt>
</event>
<event>
 5    0  0.2159162E+000  0.2718900E+03  0.7546771E-02  0.1100203E+00
         21   -1    0    0  502  501  0.00000000000E+00  0.00000000000E+00  0.20092819026E+03  0.20092819026E+03  0.00000000000E+00 0. -1.
         21   -1    0    0  503  502 -0.00000000000E+00 -0.00000000000E+00 -0.35085993521E+03  0.35085993521E+03  0.00000000000E+00 0.  1.
         25    1    1    2    0    0  0.13258937053E+03 -0.20179004700E+03 -0.16568623364E+02  0.27239435296E+03  0.12500000000E+03 0.  0.
         21    1    1    2  503  504 -0.10969780884E+03  0.14880441056E+03 -0.82421362742E+02  0.20240959192E+03  0.00000000000E+00 0.  1.
         21    1    1    2  504  501 -0.22891561687E+02  0.52985636445E+02 -0.50941758851E+02  0.76984180588E+02  0.00000000000E+00 0.  1.
<mgrwt>
<rscale>  4 0.27188999E+03</rscale>
<asrwt>0</asrwt>
<pdfrwt beam="1">  1       21 0.30912030E-01 0.27188999E+03</pdfrwt>
<pdfrwt beam="2">  1       21 0.53978450E-01 0.27188999E+03</pdfrwt>
<totfact> 0.31414742E+04</totfact>
</mgrwt>
</event>
<event>
 5    0  0.2159162E+000  0.3962896E+03  0.7546771E-02  0.1045072E+00
         21   -1    0    0  502  501  0.00000000000E+00  0.00000000000E+00  0.78830505667E+03  0.78830505667E+03  0.00000000000E+00 0.  1.
         21   -1    0    0  503  502 -0.00000000000E+00 -0.00000000000E+00 -0.29758515183E+03  0.29758515183E+03  0.00000000000E+00 0.  1.
         25    1    1    2    0    0 -0.16269204824E+03  0.37977521720E+03  0.31656141323E+03  0.53528875059E+03  0.12500000000E+03 0.  0.
         21    1    1    2  503  504 -0.95297148956E+02 -0.14036586975E+03  0.43243878176E+02  0.17508328587E+03  0.00000000000E+00 0.  1.
         21    1    1    2  504  501  0.25798919720E+03 -0.23940934745E+03  0.13091461343E+03  0.37551817204E+03  0.00000000000E+00 0.  1.
<mgrwt>
<rscale>  4 0.39628965E+03</rscale>
<asrwt>0</asrwt>
<pdfrwt beam="1">  1       21 0.12127770E+00 0.39628965E+03</pdfrwt>
<pdfrwt beam="2">  1       21 0.45782331E-01 0.39628965E+03</pdfrwt>
<totfact> 0.20697356E+03</totfact>
</mgrwt>
</event>
<event>
 5    0  0.2159162E+000  0.3333925E+03  0.7546771E-02  0.1069646E+00
         21   -1    0    0  502  501  0.00000000000E+00  0.00000000000E+00  0.17008409989E+04  0.17008409989E+04  0.00000000000E+00 0.  1.
         21   -1    0    0  503  502 -0.00000000000E+00 -0.00000000000E+00 -0.46213051017E+03  0.46213051017E+03  0.00000000000E+00 0. -1.
         25    1    1    2    0    0  0.30430915193E+03 -0.54050879578E+02  0.16290064600E+04  0.16627725654E+04  0.12500000000E+03 0.  0.
         21    1    1    2  503  504 -0.26844269726E+03  0.53828751420E+02 -0.36516453389E+03  0.45640349802E+03  0.00000000000E+00 0. -1.
         21    1    1    2  504  501 -0.35866454670E+02  0.22212815799E+00 -0.25131437403E+02  0.43795445625E+02  0.00000000000E+00 0.  1.
<mgrwt>
<rscale>  4 0.33339250E+03</rscale>
<asrwt>0</asrwt>
<pdfrwt beam="1">  1       21 0.26166784E+00 0.33339250E+03</pdfrwt>
<pdfrwt beam="2">  1       21 0.71097003E-01 0.33339250E+03</pdfrwt>
<totfact> 0.86322392E+01</totfact>
</mgrwt>
</event>
<event>
 5    0  0.4800658E+000  0.2376174E+03  0.7546771E-02  0.1121390E+00
         21   -1    0    0  502  501  0.00000000000E+00  0.00000000000E+00  0.13971690451E+03  0.13971690451E+03  0.00000000000E+00 0.  1.
         21   -1    0    0  503  502 -0.00000000000E+00 -0.00000000000E+00 -0.41023259554E+03  0.41023259554E+03  0.00000000000E+00 0.  1.
         25    1    1    2    0    0 -0.54290141934E+02  0.20832208109E+03 -0.13744052550E+03  0.28435964381E+03  0.12500000000E+03 0.  0.
         21    1    1    2  503  504  0.86478460170E+01 -0.20824135682E+02 -0.51239197786E+02  0.55981115186E+02  0.00000000000E+00 0.  1.
         21    1    1    2  504  501  0.45642295917E+02 -0.18749794540E+03 -0.81835967750E+02  0.20960874105E+03  0.00000000000E+00 0.  1.
<mgrwt>
<rscale>  4 0.23761743E+03</rscale>
<asrwt>0</asrwt>
<pdfrwt beam="1">  1       21 0.21494908E-01 0.23761743E+03</pdfrwt>
<pdfrwt beam="2">  1       21 0.63112708E-01 0.23761743E+03</pdfrwt>
<totfact> 0.45875134E+04</totfact>
</mgrwt>
</event>
<event>
 5    0  0.2159162E+000  0.2937972E+03  0.7546771E-02  0.1088383E+00
         21   -1    0    0  502  501  0.00000000000E+00  0.00000000000E+00  0.42250839086E+03  0.42250839086E+03  0.00000000000E+00 0. -1.
         21   -1    0    0  503  502 -0.00000000000E+00 -0.00000000000E+00 -0.50675130104E+03  0.50675130104E+03  0.00000000000E+00 0.  1.
         25    1    1    2    0    0  0.23931436871E+03 -0.12563570416E+03  0.31803972001E+03  0.43569480229E+03  0.12500000000E+03 0.  0.
         21    1    1    2  503  504 -0.24575188022E+02  0.16170052107E+02 -0.11430375965E+03  0.11802864026E+03  0.00000000000E+00 0. -1.
         21    1    1    2  504  501 -0.21473918069E+03  0.10946565205E+03 -0.28797887054E+03  0.37553624936E+03  0.00000000000E+00 0.  1.
<mgrwt>
<rscale>  4 0.29379720E+03</rscale>
<asrwt>0</asrwt>
<pdfrwt beam="1">  1       21 0.65001291E-01 0.29379720E+03</pdfrwt>
<pdfrwt beam="2">  1       21 0.77961739E-01 0.29379720E+03</pdfrwt>
<totfact> 0.29608850E+03</totfact>
</mgrwt>
</event>
<event>
 5    0  0.2159162E+000  0.2411848E+03  0.7546771E-02  0.1119006E+00
         21   -1    0    0  502  501  0.00000000000E+00  0.00000000000E+00  0.53898420402E+03  0.53898420402E+03  0.00000000000E+00 0. -1.
         21   -1    0    0  503  502 -0.00000000000E+00 -0.00000000000E+00 -0.57586394358E+03  0.57586394358E+03  0.00000000000E+00 0. -1.
         25    1    1    2    0    0 -0.16226105046E+03  0.13998188690E+03  0.48217056820E+03  0.54225181788E+03  0.12500000000E+03 0.  0.
         21    1    1    2  503  504  0.10968583616E+03 -0.94949166569E+02 -0.20583330254E+03  0.25182072059E+03  0.00000000000E+00 0. -1.
         21    1    1    2  504  501  0.52575214297E+02 -0.45032720326E+02 -0.31321700521E+03  0.32077560913E+03  0.00000000000E+00 0. -1.
<mgrwt>
<rscale>  4 0.24118477E+03</rscale>
<asrwt>0</asrwt>
<pdfrwt beam="1">  1       21 0.82920647E-01 0.24118477E+03</pdfrwt>
<pdfrwt beam="2">  1       21 0.88594452E-01 0.24118477E+03</pdfrwt>
<totfact> 0.13236439E+03</totfact>
</mgrwt>
</event>
<event>
 5    0  0.2159162E+000  0.2751807E+03  0.7546771E-02  0.1098351E+00
         21   -1    0    0  502  501  0.00000000000E+00  0.00000000000E+00  0.13962969776E+03  0.13962969776E+03  0.00000000000E+00 0. -1.
         21   -1    0    0  503  502 -0.00000000000E+00 -0.00000000000E+00 -0.11217794329E+04  0.11217794329E+04  0.00000000000E+00 0. -1.
         25    1    1    2    0    0 -0.24507754909E+03  0.60335639225E+01 -0.30655912250E+02  0.27688299680E+03  0.12500000000E+03 0.  0.
         21    1    1    2  503  504  0.61684960453E+02 -0.23595290706E+02 -0.19332857808E+03  0.20429809396E+03  0.00000000000E+00 0. -1.
         21    1    1    2  504  501  0.18339258864E+03  0.17561726784E+02 -0.75816524480E+03  0.78022803989E+03  0.00000000000E+00 0. -1.
<mgrwt>
<rscale>  4 0.27518068E+03</rscale>
<asrwt>0</asrwt>
<pdfrwt beam="1">  1       21 0.21481491E-01 0.27518068E+03</pdfrwt>
<pdfrwt beam="2">  1       21 0.17258146E+00 0.27518068E+03</pdfrwt>
<totfact> 0.38777288E+03</totfact>
</mgrwt>
</event>
