<event>
 5    0  0.3275920E+000  0.2578213E+03  0.7546771E-02  0.1108459E+00
         21   -1    0    0  501  502  0.00000000000E+00  0.00000000000E+00  0.48762930321E+03  0.48762930321E+03  0.00000000000E+00 0. -1.
          1   -1    0    0  503    0 -0.00000000000E+00 -0.00000000000E+00 -0.21218785691E+04  0.21218785691E+04  0.00000000000E+00 0.  1.
         25    1    1    2    0    0 -0.90064526504E+02  0.20747530840E+03  0.43974154402E+03  0.51005416190E+03  0.12500000000E+03 0.  0.
         21    1    1    2  503  502 -0.35264774383E+02 -0.57603736046E+02 -0.13812026034E+03  0.15374980011E+03  0.00000000000E+00 0.  1.
          1    1    1    2  501    0  0.12532930089E+03 -0.14987157235E+03 -0.19358705496E+04  0.19457039103E+04  0.00000000000E+00 0.  1.
<mgrwt>
<rscale>  4 0.25782127E+03</rscale>
<asrwt>0</asrwt>
<pdfrwt beam="1">  1       21 0.75019893E-01 0.25782127E+03</pdfrwt>
<pdfrwt beam="2">  1        1 0.32644285E+00 0.25782127E+03</pdfrwt>
<totfact> 0.48272475E+01</totfact>
</mgrwt>
</event>
<event>
 5    0  0.3275920E+000  0.3036305E+03  0.7546771E-02  0.1083440E+00
          4   -1    0    0  503    0 -0.00000000000E+00  0.00000000000E+00  0.51676346333E+03  0.51676346333E+03  0.00000000000E+00 0.  1.
         21   -1    0    0  501  502  0.00000000000E+00 -0.00000000000E+00 -0.60298472601E+03  0.60298472601E+03  0.00000000000E+00 0.  1.
         25    1    1    2    0    0 -0.14096365975E+03 -0.22978253077E+03 -0.45784244043E+03  0.54581632906E+03  0.12500000000E+03 0.  0.
         21    1    1    2  503  502 -0.72684785239E+02 -0.17004756395E+02  0.18133372732E+03  0.19609732382E+03  0.00000000000E+00 0.  1.
          4    1    1    2  501    0  0.21364844499E+03  0.24678728716E+03  0.19028745043E+03  0.37783453646E+03  0.00000000000E+00 0.  1.
<mgrwt>
<rscale>  4 0.30363053E+03</rscale>
<asrwt>0</asrwt>
<pdfrwt beam="1">  1       21 0.92766881E-01 0.30363053E+03</pdfrwt>
<pdfrwt beam="2">  1        4 0.79502071E-01 0.30363053E+03</pdfrwt>
<totfact> 0.57488890E+01</totfact>
</mgrwt>
</event>
<event>
 5    0  0.3275920E+000  0.7402221E+03  0.7546771E-02  0.9650816E-01
         21   -1    0    0  501  502  0.00000000000E+00  0.00000000000E+00  0.31677516191E+03  0.31677516191E+03  0.00000000000E+00 0. -1.
          2   -1    0    0  503    0 -0.00000000000E+00 -0.00000000000E+00 -0.27424615911E+04  0.27424615911E+04  0.00000000000E+00 0.  1.
         25    1    1    2    0    0  0.69763867249E+03 -0.20957646752E+03 -0.49608997545E+03  0.89014171728E+03  0.12500000000E+03 0.  0.
         21    1    1    2  503  502  0.59775182796E+02  0.22516991785E+03 -0.43426491184E+03  0.49280886562E+03  0.00000000000E+00 0.  1.
          2    1    1    2  501    0 -0.75741385528E+03 -0.15593450336E+02 -0.14953315419E+04  0.16762861701E+04  0.00000000000E+00 0.  1.
<mgrwt>
<rscale>  4 0.74022210E+03</rscale>
<asrwt>0</asrwt>
<pdfrwt beam="1">  1       21 0.48734638E-01 0.74022210E+03</pdfrwt>
<pdfrwt beam="2">  1        2 0.42191719E+00 0.74022210E+03</pdfrwt>
<totfact> 0.12008663E+02</totfact>
</mgrwt>
</event>
<event>
 5    0  0.3275920E+000  0.4828430E+03  0.7546771E-02  0.1018357E+00
         21   -1    0    0  501  502  0.00000000000E+00  0.00000000000E+00  0.10967086338E+04  0.10967086338E+04  0.00000000000E+00 0. -1.
          1   -1    0    0  503    0 -0.00000000000E+00 -0.00000000000E+00 -0.10867064833E+04  0.10867064833E+04  0.00000000000E+00 0. -1.
         25    1    1    2    0    0  0.48299486474E+03  0.11064597095E+03  0.91537404397E+03  0.10483612024E+04  0.12500000000E+03 0.  0.
         21    1    1    2  503  502 -0.17223367726E+03  0.45242546589E+02 -0.71871408155E+03  0.74044666157E+03  0.00000000000E+00 0. -1.
          1    1    1    2  501    0 -0.31076118748E+03 -0.15588851754E+03 -0.18665781186E+03  0.39460725319E+03  0.00000000000E+00 0. -1.
<mgrwt>
<rscale>  4 0.48284298E+03</rscale>
<asrwt>0</asrwt>
<pdfrwt beam="1">  1       21 0.16872441E+00 0.48284298E+03</pdfrwt>
<pdfrwt beam="2">  1        1 0.16718561E+00 0.48284298E+03</pdfrwt>
<totfact> 0.27875475E+01</totfact>
</mgrwt>
</event>
<event>
 5    0  0.3275920E+000  0.3033687E+03  0.7546771E-02  0.1083569E+00
         21   -1    0    0  501  502  0.00000000000E+00  0.00000000000E+00  0.21855295013E+03  0.21855295013E+03  0.00000000000E+00 0. -1.
          2   -1    0    0  503    0 -0.00000000000E+00 -0.00000000000E+00 -0.14222161564E+04  0.14222161564E+04  0.00000000000E+00 0. -1.
         25    1    1    2    0    0  0.22209668366E+03 -0.17237622601E+03  0.42843299417E+02  0.31064617894E+03  0.12500000000E+03 0.  0.
         21    1    1    2  503  502  0.43096200066E+02  0.98618054585E+02 -0.78816247325E+03  0.79547651592E+03  0.00000000000E+00 0. -1.
          2    1    1    2  501    0 -0.26519288373E+03  0.73758171422E+02 -0.45834403246E+03  0.53464641168E+03  0.00000000000E+00 0. -1.
<mgrwt>
<rscale>  4 0.30336875E+03</rscale>
<asrwt>0</asrwt>
<pdfrwt beam="1">  1       21 0.33623532E-01 0.30336875E+03</pdfrwt>
<pdfrwt beam="2">  1        2 0.21880248E+00 0.30336875E+03</pdfrwt>
<totfact> 0.15607315E+03</totfact>
</mgrwt>
</event>
<event>
 5    0  0.3275920E+000  0.3089673E+03  0.7546771E-02  0.1080842E+00
          2   -1    0    0  503    0 -0.00000000000E+00  0.00000000000E+00  0.44366683507E+03  0.44366683507E+03  0.00000000000E+00 0.  1.
         21   -1    0    0  501  502  0.00000000000E+00 -0.00000000000E+00 -0.40056695682E+03  0.40056695682E+03  0.00000000000E+00 0.  1.
         25    1    1    2    0    0 -0.24207130971E+03  0.15295769793E+03 -0.26294085596E+03  0.40835948632E+03  0.12500000000E+03 0.  0.
         21    1    1    2  503  502  0.10079687694E+02 -0.18793179099E+02  0.87527107799E+02  0.90087614489E+02  0.00000000000E+00 0.  1.
          2    1    1    2  501    0  0.23199162201E+03 -0.13416451883E+03  0.21851362641E+03  0.34578669108E+03  0.00000000000E+00 0.  1.
<mgrwt>
<rscale>  4 0.30896732E+03</rscale>
<asrwt>0</asrwt>
<pdfrwt beam="1">  1       21 0.61625686E-01 0.30896732E+03</pdfrwt>
<pdfrwt beam="2">  1        2 0.68256436E-01 0.30896732E+03</pdfrwt>
<totfact> 0.20883794E+03</totfact>
</mgrwt>
</event>
<event>
 5    0  0.3275920E+000  0.3380941E+03  0.7546771E-02  0.1067611E+00
          2   -1    0    0  503    0 -0.00000000000E+00  0.00000000000E+00  0.17016242608E+04  0.17016242608E+04  0.00000000000E+00 0. -1.
         21   -1    0    0  501  502  0.00000000000E+00 -0.00000000000E+00 -0.19767896078E+04  0.19767896078E+04  0.00000000000E+00 0.  1.
         25    1    1    2    0    0 -0.30028296188E+03  0.92264584717E+02 -0.19470990054E+04  0.19762343352E+04  0.12500000000E+03 0.  0.
         21    1    1    2  503  502  0.24950669064E+02  0.83238471861E+01  0.14346523584E+03  0.14585642328E+03  0.00000000000E+00 0. -1.
          2    1    1    2  501    0  0.27533229282E+03 -0.10058843190E+03  0.15284684226E+04  0.15563231101E+04  0.00000000000E+00 0. -1.
<mgrwt>
<rscale>  4 0.33809409E+03</rscale>
<asrwt>0</asrwt>
<pdfrwt beam="1">  1       21 0.30412148E+00 0.33809409E+03</pdfrwt>
<pdfrwt beam="2">  1        2 0.26178835E+00 0.33809409E+03</pdfrwt>
<totfact> 0.36912974E+00</totfact>
</mgrwt>
</event>
<event>
 5    0  0.3275920E+000  0.2425789E+03  0.7546771E-02  0.1118087E+00
         21   -1    0    0  501  502  0.00000000000E+00  0.00000000000E+00  0.40445324889E+03  0.40445324889E+03  0.00000000000E+00 0. -1.
          1   -1    0    0  503    0 -0.00000000000E+00 -0.00000000000E+00 -0.43106513237E+03  0.43106513237E+03  0.00000000000E+00 0. -1.
         25    1    1    2    0    0 -0.39149006310E+02  0.19679646678E+03  0.25292307072E+03  0.34620308164E+03  0.12500000000E+03 0.  0.
         21    1    1    2  503  502  0.90095893502E+02  0.71236902600E+02 -0.27986489984E+02  0.11821679212E+03  0.00000000000E+00 0. -1.
          1    1    1    2  501    0 -0.50946887192E+02 -0.26803336938E+03 -0.25154846422E+03  0.37109850750E+03  0.00000000000E+00 0. -1.
<mgrwt>
<rscale>  4 0.24257886E+03</rscale>
<asrwt>0</asrwt>
<pdfrwt beam="1">  1       21 0.62223577E-01 0.24257886E+03</pdfrwt>
<pdfrwt beam="2">  1        1 0.66317713E-01 0.24257886E+03</pdfrwt>
<totfact> 0.14195871E+03</totfact>
</mgrwt>
</event>
<event>
 5    0  0.3275920E+000  0.2551051E+03  0.7546771E-02  0.1110120E+00
          2   -1    0    0  503    0 -0.00000000000E+00  0.00000000000E+00  0.34605323369E+04  0.34605323369E+04  0.00000000000E+00 0. -1.
         21   -1    0    0  501  502  0.00000000000E+00 -0.00000000000E+00 -0.88460781948E+02  0.88460781948E+02  0.00000000000E+00 0. -1.
         25    1    1    2    0    0 -0.16802880803E+03  0.14674647302E+03  0.11249702605E+03  0.27937213272E+03  0.12500000000E+03 0.  0.
         21    1    1    2  503  502 -0.79894223290E+01 -0.27446339330E+02  0.14467177445E+03  0.14746882631E+03  0.00000000000E+00 0.  1.
          2    1    1    2  501    0  0.17601823036E+03 -0.11930013369E+03  0.31149027544E+04  0.31221521598E+04  0.00000000000E+00 0. -1.
<mgrwt>
<rscale>  4 0.25510506E+03</rscale>
<asrwt>0</asrwt>
<pdfrwt beam="1">  1       21 0.13609354E-01 0.25510506E+03</pdfrwt>
<pdfrwt beam="2">  1        2 0.53238949E+00 0.25510506E+03</pdfrwt>
<totfact> 0.63784885E+02</totfact>
</mgrwt>
</event>
<event>
 5    0  0.3275920E+000  0.3228744E+03  0.7546771E-02  0.1074334E+00
          1   -1    0    0  503    0 -0.00000000000E+00  0.00000000000E+00  0.14799850481E+04  0.14799850481E+04  0.00000000000E+00 0. -1.
         21   -1    0    0  501  502  0.00000000000E+00 -0.00000000000E+00 -0.22848681767E+03  0.22848681767E+03  0.00000000000E+00 0.  1.
         25    1    1    2    0    0 -0.28447478605E+03  0.10507508640E+02  0.16871212518E+03  0.35373025431E+03  0.12500000000E+03 0.  0.
         21    1    1    2  503  502 -0.18522463836E+02  0.41540328630E+02  0.10438618547E+04  0.10448522634E+04  0.00000000000E+00 0. -1.
          1    1    1    2  501    0  0.30299724988E+03 -0.52047837271E+02  0.38924250592E+02  0.30988934813E+03  0.00000000000E+00 0. -1.
<mgrwt>
<rscale>  4 0.32287438E+03</rscale>
<asrwt>0</asrwt>
<pdfrwt beam="1">  1       21 0.35151819E-01 0.32287438E+03</pdfrwt>
<pdfrwt beam="2">  1        1 0.22769000E+00 0.32287438E+03</pdfrwt>
<totfact> 0.61043267E+02</totfact>
</mgrwt>
</event>
<event>
 5    0  0.3275920E+000  0.2802506E+03  0.7546771E-02  0.1095552E+00
         21   -1    0    0  501  502  0.00000000000E+00  0.00000000000E+00  0.11089784914E+03  0.11089784914E+03  0.00000000000E+00 0.  1.
          1   -1    0    0  503    0 -0.00000000000E+00 -0.00000000000E+00 -0.32980204788E+04  0.32980204788E+04  0.00000000000E+00 0.  1.
         25    1    1    2    0    0 -0.27663098307E+03 -0.11192568038E+03 -0.15845247691E+03  0.36025580656E+03  0.12500000000E+03 0.  0.
         21    1    1    2  503  502  0.49116560588E+02  0.12403220748E+02 -0.13231431297E+03  0.14168046381E+03  0.00000000000E+00 0.  1.
          1    1    1    2  501    0  0.22751442248E+03  0.99522459631E+02 -0.28963558398E+04  0.29069820576E+04  0.00000000000E+00 0.  1.
<mgrwt>
<rscale>  4 0.28025064E+03</rscale>
<asrwt>0</asrwt>
<pdfrwt beam="1">  1       21 0.17061209E-01 0.28025064E+03</pdfrwt>
<pdfrwt beam="2">  1        1 0.50738771E+00 0.28025064E+03</pdfrwt>
<totfact> 0.14972145E+02</totfact>
</mgrwt>
</event>
<event>
 5    0  0.3275920E+000  0.2326929E+03  0.7546771E-02  0.1124759E+00
          2   -1    0    0  503    0 -0.00000000000E+00  0.00000000000E+00  0.20068685155E+04  0.20068685155E+04  0.00000000000E+00 0.  1.
         21   -1    0    0  501  502  0.00000000000E+00 -0.00000000000E+00 -0.11533822860E+03  0.11533822860E+03  0.00000000000E+00 0.  1.
         25    1    1    2    0    0  0.19815351298E+03 -0.66242293143E+02  0.44962710360E+02  0.24758736121E+03  0.12500000000E+03 0.  0.
         21    1    1    2  503  502 -0.10868024425E+03  0.12453335922E+03  0.56691477110E+03  0.59051867942E+03  0.00000000000E+00 0.  1.
          2    1    1    2  501    0 -0.89473268734E+02 -0.58291066075E+02  0.12796528054E+04  0.12841007034E+04  0.00000000000E+00 0.  1.
<mgrwt>
<rscale>  4 0.23269287E+03</rscale>
<asrwt>0</asrwt>
<pdfrwt beam="1">  1       21 0.17744344E-01 0.23269287E+03</pdfrwt>
<pdfrwt beam="2">  1        2 0.30874898E+00 0.23269287E+03</pdfrwt>
<totfact> 0.26955067E+03</totfact>
</mgrwt>
</event>
<event>
 5    0  0.3275920E+000  0.5346504E+03  0.7546771E-02  0.1005111E+00
         21   -1    0    0  501  502  0.00000000000E+00  0.00000000000E+00  0.15456935719E+03  0.15456935719E+03  0.00000000000E+00 0.  1.
          2   -1    0    0  503    0 -0.00000000000E+00 -0.00000000000E+00 -0.20614781305E+04  0.20614781305E+04  0.00000000000E+00 0.  1.
         25    1    1    2    0    0  0.47168620135E+03 -0.14216943362E+03 -0.77818570574E+03  0.92946114121E+03  0.12500000000E+03 0.  0.
         21    1    1    2  503  502  0.55225955354E+02 -0.26196402802E+02 -0.15653513928E+03  0.16804584938E+03  0.00000000000E+00 0. -1.
          2    1    1    2  501    0 -0.52691215671E+03  0.16836583642E+03 -0.97218792834E+03  0.11185404972E+04  0.00000000000E+00 0.  1.
<mgrwt>
<rscale>  4 0.53465036E+03</rscale>
<asrwt>0</asrwt>
<pdfrwt beam="1">  1       21 0.23779901E-01 0.53465036E+03</pdfrwt>
<pdfrwt beam="2">  1        2 0.31715049E+00 0.53465036E+03</pdfrwt>
<totfact> 0.13072368E+03</totfact>
</mgrwt>
</event>
<event>
 5    0  0.3275920E+000  0.2901149E+03  0.7546771E-02  0.1090289E+00
         -1   -1    0    0    0  501 -0.00000000000E+00  0.00000000000E+00  0.27580370916E+03  0.27580370916E+03  0.00000000000E+00 0. -1.
         21   -1    0    0  503  502  0.00000000000E+00 -0.00000000000E+00 -0.36922917917E+03  0.36922917917E+03  0.00000000000E+00 0.  1.
         25    1    1    2    0    0  0.26366282199E+03  0.11764724929E+02 -0.18437567888E+03  0.34536340775E+03  0.12500000000E+03 0.  0.
         21    1    1    2  503  501 -0.78165067536E+01  0.21895764788E+02  0.23262485574E+02  0.32888683898E+02  0.00000000000E+00 0. -1.
         -1    1    1    2    0  502 -0.25584631524E+03 -0.33660489717E+02  0.67687723296E+02  0.26678079667E+03  0.00000000000E+00 0. -1.
<mgrwt>
<rscale>  4 0.29011490E+03</rscale>
<asrwt>0</asrwt>
<pdfrwt beam="1">  1       21 0.56804489E-01 0.29011490E+03</pdfrwt>
<pdfrwt beam="2">  1       -1 0.42431340E-01 0.29011490E+03</pdfrwt>
<totfact> 0.14453577E+03</totfact>
</mgrwt>
</event>
<event>
 5    0  0.3275920E+000  0.2365760E+03  0.7546771E-02  0.1122095E+00
         21   -1    0    0  501  502  0.00000000000E+00  0.00000000000E+00  0.14116081492E+04  0.14116081492E+04  0.00000000000E+00 0. -1.
          4   -1    0    0  503    0 -0.00000000000E+00 -0.00000000000E+00 -0.12619931098E+03  0.12619931098E+03  0.00000000000E+00 0. -1.
         25    1    1    2    0    0  0.20046539973E+03 -0.11250359029E+01  0.12445455448E+04  0.12667700089E+04  0.12500000000E+03 0.  0.
         21    1    1    2  503  502  0.34212039201E+01 -0.43065001300E+02  0.44994172304E+02  0.62376073253E+02  0.00000000000E+00 0. -1.
          4    1    1    2  501    0 -0.20388660365E+03  0.44190037202E+02 -0.41308789062E+01  0.20866137807E+03  0.00000000000E+00 0. -1.
<mgrwt>
<rscale>  4 0.23657601E+03</rscale>
<asrwt>0</asrwt>
<pdfrwt beam="1">  1       21 0.21717047E+00 0.23657601E+03</pdfrwt>
<pdfrwt beam="2">  1        4 0.19415280E-01 0.23657601E+03</pdfrwt>
<totfact> 0.10271286E+02</totfact>
</mgrwt>
</event>
<event>
 5    0  0.3275920E+000  0.2463278E+03  0.7546771E-02  0.1115648E+00
         21   -1    0    0  501  502  0.00000000000E+00  0.00000000000E+00  0.60894253313E+03  0.60894253313E+03  0.00000000000E+00 0.  1.
          1   -1    0    0  503    0 -0.00000000000E+00 -0.00000000000E+00 -0.11494944060E+04  0.11494944060E+04  0.00000000000E+00 0. -1.
         25    1    1    2    0    0 -0.17624648393E+02 -0.21062414443E+03  0.56541538353E+03  0.61643549085E+03  0.12500000000E+03 0.  0.
         21    1    1    2  503  502 -0.13896745800E+02 -0.30605075741E+02 -0.24598073495E+03  0.24826661510E+03  0.00000000000E+00 0. -1.
          1    1    1    2  501    0  0.31521394193E+02  0.24122922017E+03 -0.85998652140E+03  0.89373483313E+03  0.00000000000E+00 0. -1.
<mgrwt>
<rscale>  4 0.24632778E+03</rscale>
<asrwt>0</asrwt>
<pdfrwt beam="1">  1       21 0.93683468E-01 0.24632778E+03</pdfrwt>
<pdfrwt beam="2">  1        1 0.17684529E+00 0.24632778E+03</pdfrwt>
<totfact> 0.12874322E+02</totfact>
</mgrwt>
</event>
<event>
 5    0  0.3275920E+000  0.3411181E+03  0.7546771E-02  0.1066321E+00
         21   -1    0    0  501  502  0.00000000000E+00  0.00000000000E+00  0.15959100500E+04  0.15959100500E+04  0.00000000000E+00 0. -1.
          2   -1    0    0  503    0 -0.00000000000E+00 -0.00000000000E+00 -0.31138936390E+04  0.31138936390E+04  0.00000000000E+00 0.  1.
         25    1    1    2    0    0 -0.70513047161E+02 -0.21055142089E+03  0.15305722979E+04  0.15516380215E+04  0.12500000000E+03 0.  0.
         21    1    1    2  503  502 -0.98738199477E+02 -0.58594639379E+02 -0.24446686086E+02  0.11738911474E+03  0.00000000000E+00 0.  1.
          2    1    1    2  501    0  0.16925124664E+03  0.26914606027E+03 -0.30241092008E+04  0.30407765529E+04  0.00000000000E+00 0.  1.
<mgrwt>
<rscale>  4 0.34111810E+03</rscale>
<asrwt>0</asrwt>
<pdfrwt beam="1">  1       21 0.24552463E+00 0.34111810E+03</pdfrwt>
<pdfrwt beam="2">  1        2 0.47906056E+00 0.34111810E+03</pdfrwt>
<totfact> 0.13572804E+00</totfact>
</mgrwt>
</event>
