<event>
 5    0  0.7099509E-001  0.4115869E+03  0.7546771E-02  0.1039840E+00
          2   -1    0    0  503    0 -0.00000000000E+00  0.00000000000E+00  0.21276263965E+04  0.21276263965E+04  0.00000000000E+00 0. -1.
         21   -1    0    0  501  502  0.00000000000E+00 -0.00000000000E+00 -0.43996093461E+02  0.43996093461E+02  0.00000000000E+00 0. -1.
         25    1    1    2    0    0  0.17882925532E+03 -0.12180523042E+03  0.71678415125E+03  0.75909217899E+03  0.12500000000E+03 0.  0.
         21    1    1    2  503  502 -0.13187189096E+03  0.66047410692E+02  0.22921187559E+03  0.27256291017E+03  0.00000000000E+00 0. -1.
          2    1    1    2  501    0 -0.46957364354E+02  0.55757819726E+02  0.11376342762E+04  0.11399674008E+04  0.00000000000E+00 0. -1.
<mgrwt>
<rscale>  4 0.41158686E+03</rscale>
<asrwt>0</asrwt>
<pdfrwt beam="1">  1       21 0.67686314E-02 0.41158686E+03</pdfrwt>
<pdfrwt beam="2">  1        2 0.32732706E+00 0.41158686E+03</pdfrwt>
<totfact> 0.12445357E+04</totfact>
</mgrwt>
</event>
<event>
 5    0  0.7099509E-001  0.6886635E+03  0.7546771E-02  0.9736818E-01
         21   -1    0    0  501  502  0.00000000000E+00  0.00000000000E+00  0.12128264010E+03  0.12128264010E+03  0.00000000000E+00 0.  1.
          2   -1    0    0  503    0 -0.00000000000E+00 -0.00000000000E+00 -0.32409735410E+04  0.32409735410E+04  0.00000000000E+00 0.  1.
         25    1    1    2    0    0  0.16052746139E+02 -0.37881506839E+03 -0.61317090217E+03  0.73168442785E+03  0.12500000000E+03 0.  0.
         21    1    1    2  503  502 -0.59868810891E+01  0.27670124623E+03 -0.25380623255E+03  0.37552233767E+03  0.00000000000E+00 0. -1.
          2    1    1    2  501    0 -0.10065865050E+02  0.10211382216E+03 -0.22527137662E+04  0.22550494156E+04  0.00000000000E+00 0.  1.
<mgrwt>
<rscale>  4 0.68866354E+03</rscale>
<asrwt>0</asrwt>
<pdfrwt beam="1">  1       21 0.18658866E-01 0.68866354E+03</pdfrwt>
<pdfrwt beam="2">  1        2 0.49861135E+00 0.68866354E+03</pdfrwt>
<totfact> 0.41619054E+02</totfact>
</mgrwt>
</event>
<event>
 5    0  0.7099509E-001  0.6234011E+03  0.7546771E-02  0.9858011E-01
         21   -1    0    0  501  502  0.00000000000E+00  0.00000000000E+00  0.15426970169E+03  0.15426970169E+03  0.00000000000E+00 0. -1.
          2   -1    0    0  503    0 -0.00000000000E+00 -0.00000000000E+00 -0.20091589981E+04  0.20091589981E+04  0.00000000000E+00 0.  1.
         25    1    1    2    0    0  0.36510559386E+02 -0.25455758694E+03 -0.46693890261E+03  0.54753038709E+03  0.12500000000E+03 0.  0.
         21    1    1    2  503  502 -0.43961783629E+02  0.23253656119E+03 -0.90777176387E+01  0.23682967649E+03  0.00000000000E+00 0. -1.
          2    1    1    2  501    0  0.74512242425E+01  0.22021025751E+02 -0.13788726762E+04  0.13790686362E+04  0.00000000000E+00 0.  1.
<mgrwt>
<rscale>  4 0.62340106E+03</rscale>
<asrwt>0</asrwt>
<pdfrwt beam="1">  1       21 0.23733799E-01 0.62340106E+03</pdfrwt>
<pdfrwt beam="2">  1        2 0.30910141E+00 0.62340106E+03</pdfrwt>
<totfact> 0.13740790E+03</totfact>
</mgrwt>
</event>
<event>
 5    0  0.7099509E-001  0.4177169E+03  0.7546771E-02  0.1037812E+00
          2   -1    0    0  503    0 -0.00000000000E+00  0.00000000000E+00  0.81744194732E+03  0.81744194732E+03  0.00000000000E+00 0.  1.
         21   -1    0    0  501  502  0.00000000000E+00 -0.00000000000E+00 -0.58011757832E+03  0.58011757832E+03  0.00000000000E+00 0.  1.
         25    1    1    2    0    0 -0.13119510760E+03 -0.15299817870E+03 -0.15915956280E+03  0.28561751588E+03  0.12500000000E+03 0.  0.
         21    1    1    2  503  502  0.13339711731E+03  0.14475819538E+02 -0.33844283202E+03  0.36407127160E+03  0.00000000000E+00 0.  1.
          2    1    1    2  501    0 -0.22020097052E+01  0.13852235916E+03  0.73492676382E+03  0.74787073817E+03  0.00000000000E+00 0.  1.
<mgrwt>
<rscale>  4 0.41771686E+03</rscale>
<asrwt>0</asrwt>
<pdfrwt beam="1">  1       21 0.89248858E-01 0.41771686E+03</pdfrwt>
<pdfrwt beam="2">  1        2 0.12576030E+00 0.41771686E+03</pdfrwt>
<totfact> 0.42186986E+02</totfact>
</mgrwt>
</event>
<event>
 5    0  0.7099509E-001  0.5225977E+03  0.7546771E-02  0.1008043E+00
          2   -1    0    0  503    0 -0.00000000000E+00  0.00000000000E+00  0.31983724864E+04  0.31983724864E+04  0.00000000000E+00 0. -1.
         21   -1    0    0  501  502  0.00000000000E+00 -0.00000000000E+00 -0.69480936145E+02  0.69480936145E+02  0.00000000000E+00 0.  1.
         25    1    1    2    0    0  0.28169417028E+03  0.13492033572E+03  0.56210936712E+03  0.65509315610E+03  0.12500000000E+03 0.  0.
         21    1    1    2  503  502 -0.16655300894E+03 -0.78442421284E+02  0.38027463196E+03  0.42249486855E+03  0.00000000000E+00 0.  1.
          2    1    1    2  501    0 -0.11514116135E+03 -0.56477914437E+02  0.21865075512E+04  0.21902653979E+04  0.00000000000E+00 0. -1.
<mgrwt>
<rscale>  4 0.52259769E+03</rscale>
<asrwt>0</asrwt>
<pdfrwt beam="1">  1       21 0.10689377E-01 0.52259769E+03</pdfrwt>
<pdfrwt beam="2">  1        2 0.49205719E+00 0.52259769E+03</pdfrwt>
<totfact> 0.13007361E+03</totfact>
</mgrwt>
</event>
<event>
 5    0  0.7099509E-001  0.4829002E+03  0.7546771E-02  0.1018341E+00
         21   -1    0    0  501  502  0.00000000000E+00  0.00000000000E+00  0.67881900914E+02  0.67881900914E+02  0.00000000000E+00 0.  1.
         -3   -1    0    0    0  501 -0.00000000000E+00 -0.00000000000E+00 -0.13963949540E+04  0.13963949540E+04  0.00000000000E+00 0.  1.
         25    1    1    2    0    0  0.62315068822E+02  0.20212363472E+03 -0.59462419341E+03  0.64338173964E+03  0.12500000000E+03 0.  0.
         21    1    1    2  503  502 -0.10354298879E+03 -0.17970605431E+03 -0.21086197318E+03  0.29576711821E+03  0.00000000000E+00 0.  1.
         -3    1    1    2    0  503  0.41227919969E+02 -0.22417580417E+02 -0.52302688650E+03  0.52512799706E+03  0.00000000000E+00 0.  1.
<mgrwt>
<rscale>  4 0.48290021E+03</rscale>
<asrwt>0</asrwt>
<pdfrwt beam="1">  1       21 0.10443370E-01 0.48290021E+03</pdfrwt>
<pdfrwt beam="2">  1       -3 0.21482998E+00 0.48290021E+03</pdfrwt>
<totfact> 0.46582501E+02</totfact>
</mgrwt>
</event>
<event>
 5    0  0.7099509E-001  0.5479430E+03  0.7546771E-02  0.1001971E+00
         21   -1    0    0  501  502  0.00000000000E+00  0.00000000000E+00  0.14114954084E+03  0.14114954084E+03  0.00000000000E+00 0. -1.
          2   -1    0    0  503    0 -0.00000000000E+00 -0.00000000000E+00 -0.12888985300E+04  0.12888985300E+04  0.00000000000E+00 0.  1.
         25    1    1    2    0    0  0.28631493299E+03 -0.29356536606E+02 -0.36565240615E+03  0.48183475302E+03  0.12500000000E+03 0.  0.
         21    1    1    2  503  502 -0.19417170549E+03  0.22018236112E+02 -0.38849518443E+02  0.19924040508E+03  0.00000000000E+00 0. -1.
          2    1    1    2  501    0 -0.92143227496E+02  0.73383004943E+01 -0.74324706454E+03  0.74897291271E+03  0.00000000000E+00 0.  1.
<mgrwt>
<rscale>  4 0.54794303E+03</rscale>
<asrwt>0</asrwt>
<pdfrwt beam="1">  1       21 0.21715314E-01 0.54794303E+03</pdfrwt>
<pdfrwt beam="2">  1        2 0.19829208E+00 0.54794303E+03</pdfrwt>
<totfact> 0.41100102E+03</totfact>
</mgrwt>
</event>
<event>
 5    0  0.7099509E-001  0.4578311E+03  0.7546771E-02  0.1025412E+00
         21   -1    0    0  501  502  0.00000000000E+00  0.00000000000E+00  0.27522161508E+03  0.27522161508E+03  0.00000000000E+00 0.  1.
         -1   -1    0    0    0  501 -0.00000000000E+00 -0.00000000000E+00 -0.27647631228E+03  0.27647631228E+03  0.00000000000E+00 0.  1.
         25    1    1    2    0    0  0.16786466699E+03  0.12886614557E+03 -0.52204019799E+02  0.25126736673E+03  0.12500000000E+03 0.  0.
         21    1    1    2  503  502 -0.97471261964E+02 -0.15407205185E+03  0.10293256125E+03  0.20936560423E+03  0.00000000000E+00 0.  1.
         -1    1    1    2    0  503 -0.70393405031E+02  0.25205906279E+02 -0.51983238659E+02  0.91064956403E+02  0.00000000000E+00 0.  1.
<mgrwt>
<rscale>  4 0.45783114E+03</rscale>
<asrwt>0</asrwt>
<pdfrwt beam="1">  1       21 0.42341787E-01 0.45783114E+03</pdfrwt>
<pdfrwt beam="2">  1       -1 0.42534817E-01 0.45783114E+03</pdfrwt>
<totfact> 0.25940017E+03</totfact>
</mgrwt>
</event>
<event>
 5    0  0.7099509E-001  0.6565148E+03  0.7546771E-02  0.9794631E-01
         -1   -1    0    0    0  501 -0.00000000000E+00  0.00000000000E+00  0.38168966231E+03  0.38168966231E+03  0.00000000000E+00 0.  1.
         21   -1    0    0  501  502  0.00000000000E+00 -0.00000000000E+00 -0.39815286703E+03  0.39815286703E+03  0.00000000000E+00 0.  1.
         25    1    1    2    0    0 -0.26465254499E+03  0.80646481622E+02 -0.34963197451E+00  0.30359503753E+03  0.12500000000E+03 0.  0.
         21    1    1    2  503  502  0.33549641160E+03 -0.95718272230E+02  0.77993308661E+02  0.35749515526E+03  0.00000000000E+00 0.  1.
         -1    1    1    2    0  503 -0.70843866609E+02  0.15071790608E+02 -0.94106881402E+02  0.11875233655E+03  0.00000000000E+00 0.  1.
<mgrwt>
<rscale>  4 0.65651482E+03</rscale>
<asrwt>0</asrwt>
<pdfrwt beam="1">  1       21 0.61254287E-01 0.65651482E+03</pdfrwt>
<pdfrwt beam="2">  1       -1 0.58721487E-01 0.65651482E+03</pdfrwt>
<totfact> 0.62253470E+02</totfact>
</mgrwt>
</event>
<event>
 5    0  0.7099509E-001  0.3970124E+03  0.7546771E-02  0.1044819E+00
         21   -1    0    0  501  502  0.00000000000E+00  0.00000000000E+00  0.53092729853E+03  0.53092729853E+03  0.00000000000E+00 0.  1.
         -1   -1    0    0    0  501 -0.00000000000E+00 -0.00000000000E+00 -0.16874786661E+03  0.16874786661E+03  0.00000000000E+00 0.  1.
         25    1    1    2    0    0  0.14770276256E+03 -0.15628052065E+03  0.21120236303E+03  0.32629916541E+03  0.12500000000E+03 0.  0.
         21    1    1    2  503  502 -0.61057377999E+02  0.12434659996E+03  0.21868581733E+03  0.25886978779E+03  0.00000000000E+00 0.  1.
         -1    1    1    2    0  503 -0.86645384559E+02  0.31933920686E+02 -0.67708748440E+02  0.11450621193E+03  0.00000000000E+00 0.  1.
<mgrwt>
<rscale>  4 0.39701241E+03</rscale>
<asrwt>0</asrwt>
<pdfrwt beam="1">  1       21 0.81681122E-01 0.39701241E+03</pdfrwt>
<pdfrwt beam="2">  1       -1 0.25961210E-01 0.39701241E+03</pdfrwt>
<totfact> 0.14789671E+03</totfact>
</mgrwt>
</event>
<event>
 5    0  0.7981716E-001  0.4887247E+03  0.7546771E-02  0.1016765E+00
          2   -1    0    0  503    0 -0.00000000000E+00  0.00000000000E+00  0.75680841219E+03  0.75680841219E+03  0.00000000000E+00 0.  1.
         21   -1    0    0  501  502  0.00000000000E+00 -0.00000000000E+00 -0.64846851579E+03  0.64846851579E+03  0.00000000000E+00 0. -1.
         25    1    1    2    0    0  0.57216375576E+02  0.19414179714E+03 -0.88491049316E+02  0.25381177443E+03  0.12500000000E+03 0.  0.
         21    1    1    2  503  502 -0.29697115350E+02 -0.13232602039E+03 -0.46592656750E+03  0.48526246572E+03  0.00000000000E+00 0. -1.
          2    1    1    2  501    0 -0.27519260226E+02 -0.61815776745E+02  0.66275751322E+03  0.66620268782E+03  0.00000000000E+00 0.  1.
<mgrwt>
<rscale>  4 0.48872471E+03</rscale>
<asrwt>0</asrwt>
<pdfrwt beam="1">  1       21 0.99764387E-01 0.48872471E+03</pdfrwt>
<pdfrwt beam="2">  1        2 0.11643206E+00 0.48872471E+03</pdfrwt>
<totfact> 0.34974103E+02</totfact>
</mgrwt>
</event>
<event>
 5    0  0.7099509E-001  0.5146655E+03  0.7546771E-02  0.1010020E+00
         -2   -1    0    0    0  501 -0.00000000000E+00  0.00000000000E+00  0.49090081513E+03  0.49090081513E+03  0.00000000000E+00 0.  1.
         21   -1    0    0  501  502  0.00000000000E+00 -0.00000000000E+00 -0.12498328579E+04  0.12498328579E+04  0.00000000000E+00 0. -1.
         25    1    1    2    0    0  0.61002002993E+02  0.21424074885E+03 -0.39465352041E+03  0.47010290789E+03  0.12500000000E+03 0.  0.
         21    1    1    2  503  502  0.87827035072E+02 -0.20773430028E+03 -0.78896785303E+03  0.82057138673E+03  0.00000000000E+00 0. -1.
         -2    1    1    2    0  503 -0.14882903806E+03 -0.65064485673E+01  0.42468933071E+03  0.45005937837E+03  0.00000000000E+00 0.  1.
<mgrwt>
<rscale>  4 0.51466550E+03</rscale>
<asrwt>0</asrwt>
<pdfrwt beam="1">  1       21 0.19228197E+00 0.51466550E+03</pdfrwt>
<pdfrwt beam="2">  1       -2 0.75523205E-01 0.51466550E+03</pdfrwt>
<totfact> 0.16626904E+01</totfact>
</mgrwt>
</event>
<event>
 5    0  0.7099509E-001  0.4721661E+03  0.7546771E-02  0.1021311E+00
          2   -1    0    0  503    0 -0.00000000000E+00  0.00000000000E+00  0.10621950366E+04  0.10621950366E+04  0.00000000000E+00 0.  1.
         21   -1    0    0  501  502  0.00000000000E+00 -0.00000000000E+00 -0.20292245258E+03  0.20292245258E+03  0.00000000000E+00 0. -1.
         25    1    1    2    0    0  0.49946603397E+02 -0.21835379200E+03  0.10029173386E+03  0.27542053946E+03  0.12500000000E+03 0.  0.
         21    1    1    2  503  502 -0.34103608087E+02  0.19736522949E+03 -0.28034416882E+02  0.20224247434E+03  0.00000000000E+00 0. -1.
          2    1    1    2  501    0 -0.15842995309E+02  0.20988562512E+02  0.78701526705E+03  0.78745447540E+03  0.00000000000E+00 0.  1.
<mgrwt>
<rscale>  4 0.47216611E+03</rscale>
<asrwt>0</asrwt>
<pdfrwt beam="1">  1       21 0.31218839E-01 0.47216611E+03</pdfrwt>
<pdfrwt beam="2">  1        2 0.16341462E+00 0.47216611E+03</pdfrwt>
<totfact> 0.27808207E+03</totfact>
</mgrwt>
</event>
<event>
 5    0  0.7099509E-001  0.8116200E+03  0.7546771E-02  0.9543348E-01
         21   -1    0    0  501  502  0.00000000000E+00  0.00000000000E+00  0.40810157988E+03  0.40810157988E+03  0.00000000000E+00 0.  1.
          2   -1    0    0  503    0 -0.00000000000E+00 -0.00000000000E+00 -0.82837176455E+03  0.82837176455E+03  0.00000000000E+00 0. -1.
         25    1    1    2    0    0  0.25268817946E+02 -0.26875988618E+03  0.23865429218E+03  0.38138072940E+03  0.12500000000E+03 0.  0.
         21    1    1    2  503  502 -0.18406636688E+03  0.28466097951E+03 -0.26566999502E+03  0.43068880520E+03  0.00000000000E+00 0. -1.
          2    1    1    2  501    0  0.15879754893E+03 -0.15901093332E+02 -0.39325448183E+03  0.42440380983E+03  0.00000000000E+00 0. -1.
<mgrwt>
<rscale>  4 0.81162003E+03</rscale>
<asrwt>0</asrwt>
<pdfrwt beam="1">  1       21 0.62784860E-01 0.81162003E+03</pdfrwt>
<pdfrwt beam="2">  1        2 0.12744181E+00 0.81162003E+03</pdfrwt>
<totfact> 0.85889738E+02</totfact>
</mgrwt>
</event>
<event>
 5    0  0.7099509E-001  0.4031986E+03  0.7546771E-02  0.1042678E+00
         21   -1    0    0  501  502  0.00000000000E+00  0.00000000000E+00  0.96944168751E+02  0.96944168751E+02  0.00000000000E+00 0.  1.
          2   -1    0    0  503    0 -0.00000000000E+00 -0.00000000000E+00 -0.36638111826E+04  0.36638111826E+04  0.00000000000E+00 0.  1.
         25    1    1    2    0    0  0.26911267121E+03  0.96984625179E+02 -0.28214706442E+03  0.42078452121E+03  0.12500000000E+03 0.  0.
         21    1    1    2  503  502 -0.85081827648E+02 -0.27464922078E+02 -0.56498074500E+02  0.10576044517E+03  0.00000000000E+00 0.  1.
          2    1    1    2  501    0 -0.18403084356E+03 -0.69519703101E+02 -0.32282218749E+04  0.32342103849E+04  0.00000000000E+00 0.  1.
<mgrwt>
<rscale>  4 0.40319855E+03</rscale>
<asrwt>0</asrwt>
<pdfrwt beam="1">  1       21 0.14914486E-01 0.40319855E+03</pdfrwt>
<pdfrwt beam="2">  1        2 0.56366332E+00 0.40319855E+03</pdfrwt>
<totfact> 0.36237157E+02</totfact>
</mgrwt>
</event>
<event>
 5    0  0.7099509E-001  0.6033482E+03  0.7546771E-02  0.9898484E-01
          2   -1    0    0  503    0 -0.00000000000E+00  0.00000000000E+00  0.10822176243E+04  0.10822176243E+04  0.00000000000E+00 0. -1.
         21   -1    0    0  501  502  0.00000000000E+00 -0.00000000000E+00 -0.17092620554E+03  0.17092620554E+03  0.00000000000E+00 0.  1.
         25    1    1    2    0    0 -0.12166889583E+03  0.25896925968E+03  0.69663688809E+02  0.31991628156E+03  0.12500000000E+03 0.  0.
         21    1    1    2  503  502  0.13598525931E+03 -0.20555614359E+03  0.29765039081E+03  0.38644672863E+03  0.00000000000E+00 0. -1.
          2    1    1    2  501    0 -0.14316363477E+02 -0.53413116090E+02  0.54397733917E+03  0.54678081968E+03  0.00000000000E+00 0. -1.
<mgrwt>
<rscale>  4 0.60334822E+03</rscale>
<asrwt>0</asrwt>
<pdfrwt beam="1">  1       21 0.26296340E-01 0.60334822E+03</pdfrwt>
<pdfrwt beam="2">  1        2 0.16649501E+00 0.60334822E+03</pdfrwt>
<totfact> 0.37177784E+03</totfact>
</mgrwt>
</event>
<event>
 5    0  0.7099509E-001  0.5578260E+03  0.7546771E-02  0.9996986E-01
         21   -1    0    0  501  502  0.00000000000E+00  0.00000000000E+00  0.20346491853E+03  0.20346491853E+03  0.00000000000E+00 0. -1.
         -1   -1    0    0    0  501 -0.00000000000E+00 -0.00000000000E+00 -0.66648589244E+03  0.66648589244E+03  0.00000000000E+00 0. -1.
         25    1    1    2    0    0 -0.17005514954E+03 -0.13296261796E+03 -0.24526734375E+03  0.34982693088E+03  0.12500000000E+03 0.  0.
         21    1    1    2  503  502  0.16736288973E+03  0.15351986568E+03  0.65300940596E+02  0.23631102145E+03  0.00000000000E+00 0. -1.
         -1    1    1    2    0  503  0.26922598128E+01 -0.20557247718E+02 -0.28305457076E+03  0.28381285863E+03  0.00000000000E+00 0. -1.
<mgrwt>
<rscale>  4 0.55782595E+03</rscale>
<asrwt>0</asrwt>
<pdfrwt beam="1">  1       21 0.31302295E-01 0.55782595E+03</pdfrwt>
<pdfrwt beam="2">  1       -1 0.10253629E+00 0.55782595E+03</pdfrwt>
<totfact> 0.80192534E+02</totfact>
</mgrwt>
</event>
<event>
 5    0  0.7099509E-001  0.4289817E+03  0.7546771E-02  0.1034182E+00
         21   -1    0    0  501  502  0.00000000000E+00  0.00000000000E+00  0.47758667951E+03  0.47758667951E+03  0.00000000000E+00 0.  1.
          4   -1    0    0  503    0 -0.00000000000E+00 -0.00000000000E+00 -0.21410809803E+03  0.21410809803E+03  0.00000000000E+00 0. -1.
         25    1    1    2    0    0 -0.16941520150E+03 -0.13233207440E+03  0.18522790885E+03  0.31007687213E+03  0.12500000000E+03 0.  0.
         21    1    1    2  503  502  0.15426981578E+03  0.87276291743E+02  0.19020604031E+03  0.25998974005E+03  0.00000000000E+00 0.  1.
          4    1    1    2  501    0  0.15145385713E+02  0.45055782658E+02 -0.11195536767E+03  0.12162816536E+03  0.00000000000E+00 0. -1.
<mgrwt>
<rscale>  4 0.42898169E+03</rscale>
<asrwt>0</asrwt>
<pdfrwt beam="1">  1       21 0.73474873E-01 0.42898169E+03</pdfrwt>
<pdfrwt beam="2">  1        4 0.32939708E-01 0.42898169E+03</pdfrwt>
<totfact> 0.61077425E+02</totfact>
</mgrwt>
</event>
<event>
 5    0  0.7099509E-001  0.5859121E+03  0.7546771E-02  0.9935073E-01
         21   -1    0    0  501  502  0.00000000000E+00  0.00000000000E+00  0.61507880193E+03  0.61507880193E+03  0.00000000000E+00 0.  1.
          2   -1    0    0  503    0 -0.00000000000E+00 -0.00000000000E+00 -0.28688413361E+04  0.28688413361E+04  0.00000000000E+00 0.  1.
         25    1    1    2    0    0  0.20416150080E+03 -0.79487461476E+01  0.37485436941E+02  0.24243609252E+03  0.12500000000E+03 0.  0.
         21    1    1    2  503  502 -0.26328817319E+03  0.34843021670E+02  0.43758702922E+03  0.51187606551E+03  0.00000000000E+00 0.  1.
          2    1    1    2  501    0  0.59126672392E+02 -0.26894275523E+02 -0.27288350004E+04  0.27296079800E+04  0.00000000000E+00 0.  1.
<mgrwt>
<rscale>  4 0.58591210E+03</rscale>
<asrwt>0</asrwt>
<pdfrwt beam="1">  1       21 0.94627508E-01 0.58591210E+03</pdfrwt>
<pdfrwt beam="2">  1        2 0.44136021E+00 0.58591210E+03</pdfrwt>
<totfact> 0.23594324E+01</totfact>
</mgrwt>
</event>
<event>
 5    0  0.7099509E-001  0.4993416E+03  0.7546771E-02  0.1013951E+00
         21   -1    0    0  501  502  0.00000000000E+00  0.00000000000E+00  0.18872252554E+03  0.18872252554E+03  0.00000000000E+00 0.  1.
          2   -1    0    0  503    0 -0.00000000000E+00 -0.00000000000E+00 -0.41527094907E+03  0.41527094907E+03  0.00000000000E+00 0.  1.
         25    1    1    2    0    0  0.32953993289E+02  0.24077895774E+03 -0.13561146933E+03  0.30508350132E+03  0.12500000000E+03 0.  0.
         21    1    1    2  503  502 -0.33240718656E+02 -0.21285672973E+03 -0.12667637271E+02  0.21580871577E+03  0.00000000000E+00 0.  1.
          2    1    1    2  501    0  0.28672536653E+00 -0.27922228001E+02 -0.78269316934E+02  0.83101257519E+02  0.00000000000E+00 0.  1.
<mgrwt>
<rscale>  4 0.49934157E+03</rscale>
<asrwt>0</asrwt>
<pdfrwt beam="1">  1       21 0.29034235E-01 0.49934157E+03</pdfrwt>
<pdfrwt beam="2">  1        2 0.63887838E-01 0.49934157E+03</pdfrwt>
<totfact> 0.10367557E+04</totfact>
</mgrwt>
</event>
<event>
 5    0  0.7099509E-001  0.9826216E+03  0.7546771E-02  0.9327813E-01
          2   -1    0    0  503    0 -0.00000000000E+00  0.00000000000E+00  0.10606984501E+04  0.10606984501E+04  0.00000000000E+00 0.  1.
         21   -1    0    0  501  502  0.00000000000E+00 -0.00000000000E+00 -0.12037337937E+04  0.12037337937E+04  0.00000000000E+00 0.  1.
         25    1    1    2    0    0  0.10596038260E+03  0.46009912080E+03 -0.45848806830E+03  0.66989186621E+03  0.12500000000E+03 0.  0.
         21    1    1    2  503  502 -0.10191948571E+03 -0.48188104739E+03 -0.54454800747E+03  0.73425435500E+03  0.00000000000E+00 0.  1.
          2    1    1    2  501    0 -0.40408968906E+01  0.21781926589E+02  0.86000073226E+03  0.86028602259E+03  0.00000000000E+00 0.  1.
<mgrwt>
<rscale>  4 0.98262162E+03</rscale>
<asrwt>0</asrwt>
<pdfrwt beam="1">  1       21 0.18518981E+00 0.98262162E+03</pdfrwt>
<pdfrwt beam="2">  1        2 0.16318438E+00 0.98262162E+03</pdfrwt>
<totfact> 0.37009858E+01</totfact>
</mgrwt>
</event>
<event>
 5    0  0.7099509E-001  0.4610644E+03  0.7546771E-02  0.1024473E+00
         21   -1    0    0  501  502  0.00000000000E+00  0.00000000000E+00  0.84904582784E+02  0.84904582784E+02  0.00000000000E+00 0. -1.
          1   -1    0    0  503    0 -0.00000000000E+00 -0.00000000000E+00 -0.11182512347E+04  0.11182512347E+04  0.00000000000E+00 0. -1.
         25    1    1    2    0    0 -0.14843328153E+03 -0.19352127363E+03 -0.37985691422E+03  0.46840068072E+03  0.12500000000E+03 0.  0.
         21    1    1    2  503  502  0.10378974432E+03  0.15082043341E+03 -0.17827164122E+03  0.25553843591E+03  0.00000000000E+00 0. -1.
          1    1    1    2  501    0  0.44643537212E+02  0.42700840219E+02 -0.47521809648E+03  0.47921670087E+03  0.00000000000E+00 0. -1.
<mgrwt>
<rscale>  4 0.46106438E+03</rscale>
<asrwt>0</asrwt>
<pdfrwt beam="1">  1       21 0.13062244E-01 0.46106438E+03</pdfrwt>
<pdfrwt beam="2">  1        1 0.17203864E+00 0.46106438E+03</pdfrwt>
<totfact> 0.69924435E+03</totfact>
</mgrwt>
</event>
<event>
 5    0  0.7099509E-001  0.7187622E+03  0.7546771E-02  0.9685674E-01
         21   -1    0    0  501  502  0.00000000000E+00  0.00000000000E+00  0.92004961553E+03  0.92004961553E+03  0.00000000000E+00 0.  1.
          1   -1    0    0  503    0 -0.00000000000E+00 -0.00000000000E+00 -0.23659285434E+03  0.23659285434E+03  0.00000000000E+00 0.  1.
         25    1    1    2    0    0 -0.14479429725E+03  0.24023287702E+03  0.69763736727E+03  0.76223363867E+03  0.12500000000E+03 0.  0.
         21    1    1    2  503  502  0.17197612079E+03 -0.22775823235E+03  0.79344544905E+02  0.29621808745E+03  0.00000000000E+00 0. -1.
          1    1    1    2  501    0 -0.27181823539E+02 -0.12474644671E+02 -0.93525150988E+02  0.98190743748E+02  0.00000000000E+00 0.  1.
<mgrwt>
<rscale>  4 0.71876224E+03</rscale>
<asrwt>0</asrwt>
<pdfrwt beam="1">  1       21 0.14154609E+00 0.71876224E+03</pdfrwt>
<pdfrwt beam="2">  1        1 0.36398901E-01 0.71876224E+03</pdfrwt>
<totfact> 0.37987872E+02</totfact>
</mgrwt>
</event>
<event>
 5    0  0.7099509E-001  0.1409012E+04  0.7546771E-02  0.8947321E-01
         21   -1    0    0  501  502  0.00000000000E+00  0.00000000000E+00  0.63275645802E+03  0.63275645802E+03  0.00000000000E+00 0. -1.
          1   -1    0    0  503    0 -0.00000000000E+00 -0.00000000000E+00 -0.24912845104E+04  0.24912845104E+04  0.00000000000E+00 0.  1.
         25    1    1    2    0    0  0.79663972511E+01 -0.42490435339E+03 -0.50351478146E+03  0.67064096815E+03  0.12500000000E+03 0.  0.
         21    1    1    2  503  502 -0.12950064275E+03  0.66084527745E+03  0.32838026228E+03  0.74921324992E+03  0.00000000000E+00 0. -1.
          1    1    1    2  501    0  0.12153424550E+03 -0.23594092406E+03 -0.16833935332E+04  0.17041867504E+04  0.00000000000E+00 0.  1.
<mgrwt>
<rscale>  4 0.14090117E+04</rscale>
<asrwt>0</asrwt>
<pdfrwt beam="1">  1       21 0.97347147E-01 0.14090117E+04</pdfrwt>
<pdfrwt beam="2">  1        1 0.38327454E+00 0.14090117E+04</pdfrwt>
<totfact> 0.10458247E+01</totfact>
</mgrwt>
</event>
<event>
 5    0  0.7099509E-001  0.4833716E+03  0.7546771E-02  0.1018213E+00
         21   -1    0    0  501  502  0.00000000000E+00  0.00000000000E+00  0.17872341116E+03  0.17872341116E+03  0.00000000000E+00 0. -1.
         -1   -1    0    0    0  501 -0.00000000000E+00 -0.00000000000E+00 -0.14077129309E+04  0.14077129309E+04  0.00000000000E+00 0. -1.
         25    1    1    2    0    0 -0.81061627951E+02 -0.22968854067E+03 -0.26399991149E+03  0.38032718350E+03  0.12500000000E+03 0.  0.
         21    1    1    2  503  502  0.83142841273E+02  0.45378055311E+02  0.92667433031E+02  0.13251095465E+03  0.00000000000E+00 0. -1.
         -1    1    1    2    0  503 -0.20812133219E+01  0.18431048536E+03 -0.10576570412E+04  0.10735982039E+04  0.00000000000E+00 0. -1.
<mgrwt>
<rscale>  4 0.48337164E+03</rscale>
<asrwt>0</asrwt>
<pdfrwt beam="1">  1       21 0.27495909E-01 0.48337164E+03</pdfrwt>
<pdfrwt beam="2">  1       -1 0.21657123E+00 0.48337164E+03</pdfrwt>
<totfact> 0.13977918E+02</totfact>
</mgrwt>
</event>
<event>
 5    0  0.7099509E-001  0.7055508E+03  0.7546771E-02  0.9707786E-01
          1   -1    0    0  503    0 -0.00000000000E+00  0.00000000000E+00  0.16517260188E+03  0.16517260188E+03  0.00000000000E+00 0.  1.
         21   -1    0    0  501  502  0.00000000000E+00 -0.00000000000E+00 -0.14918827164E+04  0.14918827164E+04  0.00000000000E+00 0. -1.
         25    1    1    2    0    0 -0.27045798877E+03  0.10972262991E+03 -0.41787435459E+03  0.52481478202E+03  0.12500000000E+03 0.  0.
         21    1    1    2  503  502  0.29877957476E+03 -0.18781412369E+03 -0.96795544532E+03  0.10302820602E+04  0.00000000000E+00 0. -1.
          1    1    1    2  501    0 -0.28321585995E+02  0.78091493782E+02  0.59119685438E+02  0.10195847606E+03  0.00000000000E+00 0.  1.
<mgrwt>
<rscale>  4 0.70555082E+03</rscale>
<asrwt>0</asrwt>
<pdfrwt beam="1">  1       21 0.22952044E+00 0.70555082E+03</pdfrwt>
<pdfrwt beam="2">  1        1 0.25411167E-01 0.70555082E+03</pdfrwt>
<totfact> 0.14263689E+02</totfact>
</mgrwt>
</event>
<event>
 5    0  0.7099509E-001  0.5434852E+03  0.7546771E-02  0.1003013E+00
         21   -1    0    0  501  502  0.00000000000E+00  0.00000000000E+00  0.14509549791E+03  0.14509549791E+03  0.00000000000E+00 0.  1.
         -2   -1    0    0    0  501 -0.00000000000E+00 -0.00000000000E+00 -0.30332866398E+04  0.30332866398E+04  0.00000000000E+00 0.  1.
         25    1    1    2    0    0 -0.12969662231E+03 -0.41061400297E+03 -0.43169131689E+03  0.62242065065E+03  0.12500000000E+03 0.  0.
         21    1    1    2  503  502  0.35252099460E+02  0.60096912564E+02  0.30754018137E+01  0.69741003093E+02  0.00000000000E+00 0. -1.
         -2    1    1    2    0  503  0.94444522849E+02  0.35051709040E+03 -0.24595752268E+04  0.24862204839E+04  0.00000000000E+00 0.  1.
<mgrwt>
<rscale>  4 0.54348519E+03</rscale>
<asrwt>0</asrwt>
<pdfrwt beam="1">  1       21 0.22322385E-01 0.54348519E+03</pdfrwt>
<pdfrwt beam="2">  1       -2 0.46665948E+00 0.54348519E+03</pdfrwt>
<totfact> 0.44325841E+00</totfact>
</mgrwt>
</event>
<event>
 5    0  0.7099509E-001  0.7124698E+03  0.7546771E-02  0.9696142E-01
          2   -1    0    0  503    0 -0.00000000000E+00  0.00000000000E+00  0.13701952834E+04  0.13701952834E+04  0.00000000000E+00 0.  1.
         21   -1    0    0  501  502  0.00000000000E+00 -0.00000000000E+00 -0.15260913464E+03  0.15260913464E+03  0.00000000000E+00 0.  1.
         25    1    1    2    0    0 -0.13668885461E+02  0.29744006441E+03  0.58550215026E+03  0.66865177656E+03  0.12500000000E+03 0.  0.
         21    1    1    2  503  502  0.36639122227E+02 -0.29978698133E+03  0.95048544438E+02  0.31662104361E+03  0.00000000000E+00 0.  1.
          2    1    1    2  501    0 -0.22970236766E+02  0.23469169275E+01  0.53703545410E+03  0.53753159791E+03  0.00000000000E+00 0.  1.
<mgrwt>
<rscale>  4 0.71246985E+03</rscale>
<asrwt>0</asrwt>
<pdfrwt beam="1">  1       21 0.23478329E-01 0.71246985E+03</pdfrwt>
<pdfrwt beam="2">  1        2 0.21079927E+00 0.71246985E+03</pdfrwt>
<totfact> 0.31001627E+03</totfact>
</mgrwt>
</event>
<event>
 5    0  0.7099509E-001  0.6012252E+03  0.7546771E-02  0.9902867E-01
          2   -1    0    0  503    0 -0.00000000000E+00  0.00000000000E+00  0.65139045678E+03  0.65139045678E+03  0.00000000000E+00 0. -1.
         21   -1    0    0  501  502  0.00000000000E+00 -0.00000000000E+00 -0.61199762159E+03  0.61199762159E+03  0.00000000000E+00 0.  1.
         25    1    1    2    0    0  0.13707473755E+03  0.24756485614E+03 -0.77401965283E+02  0.31889481949E+03  0.12500000000E+03 0.  0.
         21    1    1    2  503  502 -0.13267109864E+03 -0.16701078845E+03 -0.38291521782E+03  0.43831300221E+03  0.00000000000E+00 0.  1.
          2    1    1    2  501    0 -0.44036389079E+01 -0.80554067690E+02  0.49971001829E+03  0.50618025666E+03  0.00000000000E+00 0. -1.
<mgrwt>
<rscale>  4 0.60122523E+03</rscale>
<asrwt>0</asrwt>
<pdfrwt beam="1">  1       21 0.94153480E-01 0.60122523E+03</pdfrwt>
<pdfrwt beam="2">  1        2 0.10021392E+00 0.60122523E+03</pdfrwt>
<totfact> 0.47281440E+02</totfact>
</mgrwt>
</event>
<event>
 5    0  0.7099509E-001  0.4755900E+03  0.7546771E-02  0.1020354E+00
         21   -1    0    0  501  502  0.00000000000E+00  0.00000000000E+00  0.55452577289E+02  0.55452577289E+02  0.00000000000E+00 0.  1.
         -1   -1    0    0    0  501 -0.00000000000E+00 -0.00000000000E+00 -0.13470928973E+04  0.13470928973E+04  0.00000000000E+00 0. -1.
         25    1    1    2    0    0 -0.19436357867E+03  0.72279888050E+02 -0.31326144025E+03  0.39592841888E+03  0.12500000000E+03 0.  0.
         21    1    1    2  503  502  0.17728481381E+03 -0.16320283768E+02 -0.71754643643E+03  0.73930314844E+03  0.00000000000E+00 0. -1.
         -1    1    1    2    0  503  0.17078764868E+02 -0.55959604282E+02 -0.26083244329E+03  0.26731390722E+03  0.00000000000E+00 0. -1.
<mgrwt>
<rscale>  4 0.47558998E+03</rscale>
<asrwt>0</asrwt>
<pdfrwt beam="1">  1       21 0.85311654E-02 0.47558998E+03</pdfrwt>
<pdfrwt beam="2">  1       -1 0.20724507E+00 0.47558998E+03</pdfrwt>
<totfact> 0.14331780E+03</totfact>
</mgrwt>
</event>
<event>
 5    0  0.7099509E-001  0.7119893E+03  0.7546771E-02  0.9696946E-01
          1   -1    0    0  503    0 -0.00000000000E+00  0.00000000000E+00  0.20950162061E+04  0.20950162061E+04  0.00000000000E+00 0.  1.
         21   -1    0    0  501  502  0.00000000000E+00 -0.00000000000E+00 -0.13227669019E+03  0.13227669019E+03  0.00000000000E+00 0.  1.
         25    1    1    2    0    0  0.30789884644E+02 -0.35224675477E+03  0.42066478743E+03  0.56356867960E+03  0.12500000000E+03 0.  0.
         21    1    1    2  503  502 -0.51687400605E+02  0.33268444846E+03  0.40663127697E+03  0.52791999872E+03  0.00000000000E+00 0.  1.
          1    1    1    2  501    0  0.20897515962E+02  0.19562306304E+02  0.11354434515E+04  0.11358042180E+04  0.00000000000E+00 0.  1.
<mgrwt>
<rscale>  4 0.71198930E+03</rscale>
<asrwt>0</asrwt>
<pdfrwt beam="1">  1       21 0.20350262E-01 0.71198930E+03</pdfrwt>
<pdfrwt beam="2">  1        1 0.32231016E+00 0.71198930E+03</pdfrwt>
<totfact> 0.62871742E+02</totfact>
</mgrwt>
</event>
<event>
 5    0  0.7099509E-001  0.5947712E+03  0.7546771E-02  0.9916314E-01
         21   -1    0    0  501  502  0.00000000000E+00  0.00000000000E+00  0.12135900187E+03  0.12135900187E+03  0.00000000000E+00 0. -1.
          2   -1    0    0  503    0 -0.00000000000E+00 -0.00000000000E+00 -0.15721980790E+04  0.15721980790E+04  0.00000000000E+00 0. -1.
         25    1    1    2    0    0  0.13258378665E+03  0.17915589097E+03 -0.51239948073E+03  0.57258494707E+03  0.12500000000E+03 0.  0.
         21    1    1    2  503  502 -0.14031462567E+03 -0.22158669312E+03 -0.98866080784E+02  0.28029156012E+03  0.00000000000E+00 0. -1.
          2    1    1    2  501    0  0.77308390130E+01  0.42430802152E+02 -0.83957351561E+03  0.84068057367E+03  0.00000000000E+00 0. -1.
<mgrwt>
<rscale>  4 0.59477117E+03</rscale>
<asrwt>0</asrwt>
<pdfrwt beam="1">  1       21 0.18670614E-01 0.59477117E+03</pdfrwt>
<pdfrwt beam="2">  1        2 0.24187665E+00 0.59477117E+03</pdfrwt>
<totfact> 0.37846447E+03</totfact>
</mgrwt>
</event>
<event>
 5    0  0.7099509E-001  0.5526451E+03  0.7546771E-02  0.1000884E+00
         21   -1    0    0  501  502  0.00000000000E+00  0.00000000000E+00  0.16699324019E+03  0.16699324019E+03  0.00000000000E+00 0. -1.
         -3   -1    0    0    0  501 -0.00000000000E+00 -0.00000000000E+00 -0.51492863080E+03  0.51492863080E+03  0.00000000000E+00 0.  1.
         25    1    1    2    0    0 -0.23707308123E+03  0.12915258908E+03 -0.14255946447E+03  0.32989731436E+03  0.12500000000E+03 0.  0.
         21    1    1    2  503  502  0.22924759261E+03 -0.10985537729E+03 -0.15555491119E+03  0.29802683274E+03  0.00000000000E+00 0.  1.
         -3    1    1    2    0  503  0.78254886160E+01 -0.19297211793E+02 -0.49821014953E+02  0.53997723897E+02  0.00000000000E+00 0.  1.
<mgrwt>
<rscale>  4 0.55264505E+03</rscale>
<asrwt>0</asrwt>
<pdfrwt beam="1">  1       21 0.25691268E-01 0.55264505E+03</pdfrwt>
<pdfrwt beam="2">  1       -3 0.79219789E-01 0.55264505E+03</pdfrwt>
<totfact> 0.10541790E+03</totfact>
</mgrwt>
</event>
<event>
 5    0  0.7099509E-001  0.3539223E+03  0.7546771E-02  0.1061017E+00
         21   -1    0    0  501  502  0.00000000000E+00  0.00000000000E+00  0.20686365889E+03  0.20686365889E+03  0.00000000000E+00 0. -1.
         -2   -1    0    0    0  501 -0.00000000000E+00 -0.00000000000E+00 -0.23604604830E+04  0.23604604830E+04  0.00000000000E+00 0. -1.
         25    1    1    2    0    0  0.13123104914E+02 -0.20560300257E+03  0.39907771604E+02  0.24425896254E+03  0.12500000000E+03 0.  0.
         21    1    1    2  503  502  0.71548371464E+02  0.87189566329E+02  0.11397699105E+02  0.11336268116E+03  0.00000000000E+00 0. -1.
         -2    1    1    2    0  503 -0.84671476378E+02  0.11841343624E+03 -0.22049022948E+04  0.22097024982E+04  0.00000000000E+00 0. -1.
<mgrwt>
<rscale>  4 0.35392229E+03</rscale>
<asrwt>0</asrwt>
<pdfrwt beam="1">  1       21 0.31825178E-01 0.35392229E+03</pdfrwt>
<pdfrwt beam="2">  1       -2 0.36314777E+00 0.35392229E+03</pdfrwt>
<totfact> 0.11134985E+01</totfact>
</mgrwt>
</event>
<event>
 5    0  0.7099509E-001  0.1350386E+04  0.7546771E-02  0.8990536E-01
         21   -1    0    0  501  502  0.00000000000E+00  0.00000000000E+00  0.33235397169E+04  0.33235397169E+04  0.00000000000E+00 0. -1.
         -1   -1    0    0    0  501 -0.00000000000E+00 -0.00000000000E+00 -0.13438269157E+04  0.13438269157E+04  0.00000000000E+00 0.  1.
         25    1    1    2    0    0  0.21282996895E+03 -0.31291091879E+03  0.31026775849E+04  0.31281692785E+04  0.12500000000E+03 0.  0.
         21    1    1    2  503  502 -0.15364465287E+03  0.28203379274E+03  0.82732036482E+02  0.33165393027E+03  0.00000000000E+00 0.  1.
         -1    1    1    2    0  503 -0.59185316080E+02  0.30877126053E+02 -0.12056968201E+04  0.12075434239E+04  0.00000000000E+00 0.  1.
<mgrwt>
<rscale>  4 0.13503859E+04</rscale>
<asrwt>0</asrwt>
<pdfrwt beam="1">  1       21 0.51131380E+00 0.13503859E+04</pdfrwt>
<pdfrwt beam="2">  1       -1 0.20674260E+00 0.13503859E+04</pdfrwt>
<totfact> 0.10484026E-02</totfact>
</mgrwt>
</event>
<event>
 5    0  0.7099509E-001  0.6197474E+03  0.7546771E-02  0.9865263E-01
         21   -1    0    0  501  502  0.00000000000E+00  0.00000000000E+00  0.14129883097E+03  0.14129883097E+03  0.00000000000E+00 0.  1.
          2   -1    0    0  503    0 -0.00000000000E+00 -0.00000000000E+00 -0.18149774837E+04  0.18149774837E+04  0.00000000000E+00 0. -1.
         25    1    1    2    0    0  0.16417331955E+03  0.25577243515E+03 -0.43422435508E+03  0.54456240044E+03  0.12500000000E+03 0.  0.
         21    1    1    2  503  502 -0.13094549270E+03 -0.22096825886E+03 -0.10701881248E+03  0.27825657173E+03  0.00000000000E+00 0.  1.
          2    1    1    2  501    0 -0.33227826845E+02 -0.34804176288E+02 -0.11324354852E+04  0.11334573425E+04  0.00000000000E+00 0. -1.
<mgrwt>
<rscale>  4 0.61974744E+03</rscale>
<asrwt>0</asrwt>
<pdfrwt beam="1">  1       21 0.21738283E-01 0.61974744E+03</pdfrwt>
<pdfrwt beam="2">  1        2 0.27922729E+00 0.61974744E+03</pdfrwt>
<totfact> 0.20772616E+03</totfact>
</mgrwt>
</event>
<event>
 5    0  0.7099509E-001  0.6693544E+03  0.7546771E-02  0.9771125E-01
         21   -1    0    0  501  502  0.00000000000E+00  0.00000000000E+00  0.61987045803E+03  0.61987045803E+03  0.00000000000E+00 0.  1.
          4   -1    0    0  503    0 -0.00000000000E+00 -0.00000000000E+00 -0.74795854109E+03  0.74795854109E+03  0.00000000000E+00 0.  1.
         25    1    1    2    0    0  0.24120237408E+03 -0.86449492531E+02  0.91734448831E+02  0.29948674281E+03  0.12500000000E+03 0.  0.
         21    1    1    2  503  502 -0.30184903094E+03  0.20159077524E+03  0.33773494366E+03  0.49579892125E+03  0.00000000000E+00 0.  1.
          4    1    1    2  501    0  0.60646656863E+02 -0.11514128271E+03 -0.55755747555E+03  0.57254333506E+03  0.00000000000E+00 0.  1.
<mgrwt>
<rscale>  4 0.66935441E+03</rscale>
<asrwt>0</asrwt>
<pdfrwt beam="1">  1       21 0.95364686E-01 0.66935441E+03</pdfrwt>
<pdfrwt beam="2">  1        4 0.11507054E+00 0.66935441E+03</pdfrwt>
<totfact> 0.21077878E+01</totfact>
</mgrwt>
</event>
<event>
 5    0  0.7099509E-001  0.7329723E+03  0.7546771E-02  0.9662449E-01
         21   -1    0    0  501  502  0.00000000000E+00  0.00000000000E+00  0.23062727044E+04  0.23062727044E+04  0.00000000000E+00 0.  1.
          2   -1    0    0  503    0 -0.00000000000E+00 -0.00000000000E+00 -0.45444224564E+03  0.45444224564E+03  0.00000000000E+00 0.  1.
         25    1    1    2    0    0 -0.35407522956E+03 -0.12938745758E+03  0.15095466513E+04  0.15609184715E+04  0.12500000000E+03 0.  0.
         21    1    1    2  503  502  0.28910676718E+03  0.12912181926E+03  0.73575714841E+03  0.80099547344E+03  0.00000000000E+00 0. -1.
          2    1    1    2  501    0  0.64968462378E+02  0.26563831948E+00 -0.39347334090E+03  0.39880100509E+03  0.00000000000E+00 0.  1.
<mgrwt>
<rscale>  4 0.73297226E+03</rscale>
<asrwt>0</asrwt>
<pdfrwt beam="1">  1       21 0.35481118E+00 0.73297226E+03</pdfrwt>
<pdfrwt beam="2">  1        2 0.69914193E-01 0.73297226E+03</pdfrwt>
<totfact> 0.97492068E+00</totfact>
</mgrwt>
</event>
<event>
 5    0  0.7099509E-001  0.3526713E+03  0.7546771E-02  0.1061524E+00
          2   -1    0    0  503    0 -0.00000000000E+00  0.00000000000E+00  0.76687979383E+03  0.76687979383E+03  0.00000000000E+00 0.  1.
         21   -1    0    0  501  502  0.00000000000E+00 -0.00000000000E+00 -0.13789315274E+03  0.13789315274E+03  0.00000000000E+00 0.  1.
         25    1    1    2    0    0 -0.23560726402E+03  0.49643549271E+02  0.15032008789E+03  0.31015543469E+03  0.12500000000E+03 0.  0.
         21    1    1    2  503  502  0.61123059032E+02  0.31176234964E+02 -0.10128561999E+02  0.69358299720E+02  0.00000000000E+00 0. -1.
          2    1    1    2  501    0  0.17448420499E+03 -0.80819784234E+02  0.48879511520E+03  0.52525921216E+03  0.00000000000E+00 0.  1.
<mgrwt>
<rscale>  4 0.35267125E+03</rscale>
<asrwt>0</asrwt>
<pdfrwt beam="1">  1       21 0.21214332E-01 0.35267125E+03</pdfrwt>
<pdfrwt beam="2">  1        2 0.11798150E+00 0.35267125E+03</pdfrwt>
<totfact> 0.94399401E+03</totfact>
</mgrwt>
</event>
<event>
 5    0  0.7099509E-001  0.9862289E+03  0.7546771E-02  0.9323779E-01
          2   -1    0    0  503    0 -0.00000000000E+00  0.00000000000E+00  0.80727000403E+03  0.80727000403E+03  0.00000000000E+00 0. -1.
         21   -1    0    0  501  502  0.00000000000E+00 -0.00000000000E+00 -0.55075227217E+03  0.55075227217E+03  0.00000000000E+00 0.  1.
         25    1    1    2    0    0 -0.20399991464E+03  0.33906249581E+03  0.24332988900E+03  0.48105485770E+03  0.12500000000E+03 0.  0.
         21    1    1    2  503  502  0.19195737320E+03 -0.31722247338E+03 -0.35180658209E+03  0.51112190517E+03  0.00000000000E+00 0.  1.
          2    1    1    2  501    0  0.12042541447E+02 -0.21840022425E+02  0.36499442495E+03  0.36584551333E+03  0.00000000000E+00 0. -1.
<mgrwt>
<rscale>  4 0.98622895E+03</rscale>
<asrwt>0</asrwt>
<pdfrwt beam="1">  1       21 0.84731119E-01 0.98622895E+03</pdfrwt>
<pdfrwt beam="2">  1        2 0.12419538E+00 0.98622895E+03</pdfrwt>
<totfact> 0.43568448E+02</totfact>
</mgrwt>
</event>
<event>
 5    0  0.7099509E-001  0.5963678E+03  0.7546771E-02  0.9912971E-01
          2   -1    0    0  503    0 -0.00000000000E+00  0.00000000000E+00  0.11768624440E+04  0.11768624440E+04  0.00000000000E+00 0.  1.
         21   -1    0    0  501  502  0.00000000000E+00 -0.00000000000E+00 -0.19670298387E+03  0.19670298387E+03  0.00000000000E+00 0. -1.
         25    1    1    2    0    0  0.56506413930E+02 -0.26258574562E+03  0.19388310900E+03  0.35406201233E+03  0.12500000000E+03 0.  0.
         21    1    1    2  503  502 -0.70691143922E+02  0.27948869406E+03  0.61988108790E+02  0.29487911687E+03  0.00000000000E+00 0. -1.
          2    1    1    2  501    0  0.14184729992E+02 -0.16902948440E+02  0.72428824233E+03  0.72462429866E+03  0.00000000000E+00 0.  1.
<mgrwt>
<rscale>  4 0.59636776E+03</rscale>
<asrwt>0</asrwt>
<pdfrwt beam="1">  1       21 0.30261998E-01 0.59636776E+03</pdfrwt>
<pdfrwt beam="2">  1        2 0.18105576E+00 0.59636776E+03</pdfrwt>
<totfact> 0.24706128E+03</totfact>
</mgrwt>
</event>
<event>
 5    0  0.7099509E-001  0.3637872E+03  0.7546771E-02  0.1057094E+00
          2   -1    0    0  503    0 -0.00000000000E+00  0.00000000000E+00  0.17699926041E+04  0.17699926041E+04  0.00000000000E+00 0. -1.
         21   -1    0    0  501  502  0.00000000000E+00 -0.00000000000E+00 -0.49272291217E+02  0.49272291217E+02  0.00000000000E+00 0.  1.
         25    1    1    2    0    0 -0.10247538314E+03  0.18666816878E+03  0.43087607481E+03  0.49661393580E+03  0.12500000000E+03 0.  0.
         21    1    1    2  503  502  0.78127520801E+02 -0.86275120733E+02  0.22989940823E+03  0.25768400002E+03  0.00000000000E+00 0.  1.
          2    1    1    2  501    0  0.24347862341E+02 -0.10039304805E+03  0.10599448299E+04  0.10649669595E+04  0.00000000000E+00 0. -1.
<mgrwt>
<rscale>  4 0.36378721E+03</rscale>
<asrwt>0</asrwt>
<pdfrwt beam="1">  1       21 0.75803539E-02 0.36378721E+03</pdfrwt>
<pdfrwt beam="2">  1        2 0.27230651E+00 0.36378721E+03</pdfrwt>
<totfact> 0.15982602E+04</totfact>
</mgrwt>
</event>
<event>
 5    0  0.7099509E-001  0.6456168E+03  0.7546771E-02  0.9815039E-01
          2   -1    0    0  503    0 -0.00000000000E+00  0.00000000000E+00  0.15516241318E+04  0.15516241318E+04  0.00000000000E+00 0.  1.
         21   -1    0    0  501  502  0.00000000000E+00 -0.00000000000E+00 -0.14327308035E+03  0.14327308035E+03  0.00000000000E+00 0.  1.
         25    1    1    2    0    0 -0.15078976098E+03 -0.29085316412E+03  0.33531728595E+03  0.48517604779E+03  0.12500000000E+03 0.  0.
         21    1    1    2  503  502  0.15948230881E+03  0.24761271007E+03  0.25233950725E+03  0.38784260716E+03  0.00000000000E+00 0.  1.
          2    1    1    2  501    0 -0.86925478260E+01  0.43240454049E+02  0.82069425830E+03  0.82187855725E+03  0.00000000000E+00 0.  1.
<mgrwt>
<rscale>  4 0.64561681E+03</rscale>
<asrwt>0</asrwt>
<pdfrwt beam="1">  1       21 0.22042013E-01 0.64561681E+03</pdfrwt>
<pdfrwt beam="2">  1        2 0.23871139E+00 0.64561681E+03</pdfrwt>
<totfact> 0.28025017E+03</totfact>
</mgrwt>
</event>
<event>
 5    0  0.7099509E-001  0.6350774E+03  0.7546771E-02  0.9835190E-01
         21   -1    0    0  501  502  0.00000000000E+00  0.00000000000E+00  0.10903056729E+03  0.10903056729E+03  0.00000000000E+00 0. -1.
          2   -1    0    0  503    0 -0.00000000000E+00 -0.00000000000E+00 -0.21589102569E+04  0.21589102569E+04  0.00000000000E+00 0.  1.
         25    1    1    2    0    0 -0.81474746782E+02 -0.31270677829E+03 -0.22557461543E+03  0.41343992391E+03  0.12500000000E+03 0.  0.
         21    1    1    2  503  502  0.62572742151E+02  0.13462250793E+03 -0.65892744739E+03  0.67544351994E+03  0.00000000000E+00 0.  1.
          2    1    1    2  501    0  0.18902004632E+02  0.17808427036E+03 -0.11653776268E+04  0.11790573804E+04  0.00000000000E+00 0.  1.
<mgrwt>
<rscale>  4 0.63507736E+03</rscale>
<asrwt>0</asrwt>
<pdfrwt beam="1">  1       21 0.16773934E-01 0.63507736E+03</pdfrwt>
<pdfrwt beam="2">  1        2 0.33214002E+00 0.63507736E+03</pdfrwt>
<totfact> 0.22095574E+03</totfact>
</mgrwt>
</event>
<event>
 5    0  0.7099509E-001  0.9427480E+03  0.7546771E-02  0.9373667E-01
          1   -1    0    0  503    0 -0.00000000000E+00  0.00000000000E+00  0.12563962476E+04  0.12563962476E+04  0.00000000000E+00 0. -1.
         21   -1    0    0  501  502  0.00000000000E+00 -0.00000000000E+00 -0.10912339815E+04  0.10912339815E+04  0.00000000000E+00 0.  1.
         25    1    1    2    0    0  0.33730544143E+02 -0.51190411100E+03 -0.79817721216E+03  0.95702425804E+03  0.12500000000E+03 0.  0.
         21    1    1    2  503  502 -0.88971613885E+02  0.30747915134E+03 -0.76761094300E+02  0.32916810627E+03  0.00000000000E+00 0.  1.
          1    1    1    2  501    0  0.55241069742E+02  0.20442495966E+03  0.10401005726E+04  0.10614378649E+04  0.00000000000E+00 0. -1.
<mgrwt>
<rscale>  4 0.94274798E+03</rscale>
<asrwt>0</asrwt>
<pdfrwt beam="1">  1       21 0.16788215E+00 0.94274798E+03</pdfrwt>
<pdfrwt beam="2">  1        1 0.19329173E+00 0.94274798E+03</pdfrwt>
<totfact> 0.18596436E+01</totfact>
</mgrwt>
</event>
<event>
 5    0  0.7099509E-001  0.4741225E+03  0.7546771E-02  0.1020763E+00
         21   -1    0    0  501  502  0.00000000000E+00  0.00000000000E+00  0.55791524043E+03  0.55791524043E+03  0.00000000000E+00 0. -1.
         -2   -1    0    0    0  501 -0.00000000000E+00 -0.00000000000E+00 -0.10808574888E+04  0.10808574888E+04  0.00000000000E+00 0. -1.
         25    1    1    2    0    0 -0.33183142115E+02 -0.20898008571E+03  0.38415443388E+03  0.45604103567E+03  0.12500000000E+03 0.  0.
         21    1    1    2  503  502  0.50085213850E+02  0.18211154404E+03  0.72728746375E+02  0.20239222729E+03  0.00000000000E+00 0. -1.
         -2    1    1    2    0  503 -0.16902071735E+02  0.26868541666E+02 -0.97982542861E+03  0.98033946626E+03  0.00000000000E+00 0. -1.
<mgrwt>
<rscale>  4 0.47412248E+03</rscale>
<asrwt>0</asrwt>
<pdfrwt beam="1">  1       21 0.85833115E-01 0.47412248E+03</pdfrwt>
<pdfrwt beam="2">  1       -2 0.16628576E+00 0.47412248E+03</pdfrwt>
<totfact> 0.20528630E+01</totfact>
</mgrwt>
</event>
<event>
 5    0  0.7099509E-001  0.3928276E+03  0.7546771E-02  0.1046292E+00
          1   -1    0    0  503    0 -0.00000000000E+00  0.00000000000E+00  0.23397275309E+04  0.23397275309E+04  0.00000000000E+00 0. -1.
         21   -1    0    0  501  502  0.00000000000E+00 -0.00000000000E+00 -0.41539404809E+02  0.41539404809E+02  0.00000000000E+00 0. -1.
         25    1    1    2    0    0 -0.92660162731E+02 -0.19225879392E+03  0.62922582301E+03  0.67609132959E+03  0.12500000000E+03 0.  0.
         21    1    1    2  503  502  0.23970312404E+02  0.14145394635E+03  0.28979991789E+03  0.32336942840E+03  0.00000000000E+00 0. -1.
          1    1    1    2  501    0  0.68689850327E+02  0.50804847564E+02  0.13791623852E+04  0.13818061778E+04  0.00000000000E+00 0. -1.
<mgrwt>
<rscale>  4 0.39282756E+03</rscale>
<asrwt>0</asrwt>
<pdfrwt beam="1">  1       21 0.63906795E-02 0.39282756E+03</pdfrwt>
<pdfrwt beam="2">  1        1 0.35995798E+00 0.39282756E+03</pdfrwt>
<totfact> 0.38344571E+03</totfact>
</mgrwt>
</event>
<event>
 5    0  0.7099509E-001  0.5891004E+03  0.7546771E-02  0.9928281E-01
          2   -1    0    0  503    0 -0.00000000000E+00  0.00000000000E+00  0.15150315833E+04  0.15150315833E+04  0.00000000000E+00 0. -1.
         21   -1    0    0  501  502  0.00000000000E+00 -0.00000000000E+00 -0.17559144350E+03  0.17559144350E+03  0.00000000000E+00 0.  1.
         25    1    1    2    0    0  0.58316806294E+01  0.21727714856E+03 -0.51023296263E+02  0.25587447029E+03  0.12500000000E+03 0.  0.
         21    1    1    2  503  502  0.51428021941E+02 -0.17426957524E+03  0.37436432335E+03  0.41612903395E+03  0.00000000000E+00 0. -1.
          2    1    1    2  501    0 -0.57259702571E+02 -0.43007573322E+02  0.10160991127E+04  0.10186195226E+04  0.00000000000E+00 0. -1.
<mgrwt>
<rscale>  4 0.58910041E+03</rscale>
<asrwt>0</asrwt>
<pdfrwt beam="1">  1       21 0.27014069E-01 0.58910041E+03</pdfrwt>
<pdfrwt beam="2">  1        2 0.23308177E+00 0.58910041E+03</pdfrwt>
<totfact> 0.19918166E+03</totfact>
</mgrwt>
</event>
<event>
 5    0  0.7099509E-001  0.6298255E+03  0.7546771E-02  0.9845389E-01
          1   -1    0    0  503    0 -0.00000000000E+00  0.00000000000E+00  0.92209242186E+03  0.92209242186E+03  0.00000000000E+00 0.  1.
         21   -1    0    0  501  502  0.00000000000E+00 -0.00000000000E+00 -0.15127873463E+03  0.15127873463E+03  0.00000000000E+00 0. -1.
         25    1    1    2    0    0 -0.26309887039E+03  0.93543153153E+02  0.52430753738E+03  0.60703766840E+03  0.12500000000E+03 0.  0.
         21    1    1    2  503  502  0.19492567738E+03 -0.93416491775E+02  0.58776415893E+01  0.21623414927E+03  0.00000000000E+00 0.  1.
          1    1    1    2  501    0  0.68173193010E+02 -0.12666137751E+00  0.24062850826E+03  0.25009933881E+03  0.00000000000E+00 0.  1.
<mgrwt>
<rscale>  4 0.62982550E+03</rscale>
<asrwt>0</asrwt>
<pdfrwt beam="1">  1       21 0.23273652E-01 0.62982550E+03</pdfrwt>
<pdfrwt beam="2">  1        1 0.14186037E+00 0.62982550E+03</pdfrwt>
<totfact> 0.32384989E+03</totfact>
</mgrwt>
</event>
<event>
 5    0  0.7099509E-001  0.5013405E+03  0.7546771E-02  0.1013430E+00
          2   -1    0    0  503    0 -0.00000000000E+00  0.00000000000E+00  0.10667171673E+04  0.10667171673E+04  0.00000000000E+00 0. -1.
         21   -1    0    0  501  502  0.00000000000E+00 -0.00000000000E+00 -0.15443567101E+03  0.15443567101E+03  0.00000000000E+00 0. -1.
         25    1    1    2    0    0  0.19346100615E+03  0.61548861876E+02  0.20001499567E+03  0.31120157742E+03  0.12500000000E+03 0.  0.
         21    1    1    2  503  502 -0.22889301648E+03 -0.87948520171E+02  0.55127544771E+02  0.25132847309E+03  0.00000000000E+00 0. -1.
          2    1    1    2  501    0  0.35432010330E+02  0.26399658295E+02  0.65713895585E+03  0.65862278780E+03  0.00000000000E+00 0. -1.
<mgrwt>
<rscale>  4 0.50134054E+03</rscale>
<asrwt>0</asrwt>
<pdfrwt beam="1">  1       21 0.23759335E-01 0.50134054E+03</pdfrwt>
<pdfrwt beam="2">  1        2 0.16411033E+00 0.50134054E+03</pdfrwt>
<totfact> 0.47049077E+03</totfact>
</mgrwt>
</event>
<event>
 5    0  0.7099509E-001  0.5249813E+03  0.7546771E-02  0.1007457E+00
         21   -1    0    0  501  502  0.00000000000E+00  0.00000000000E+00  0.10024036317E+04  0.10024036317E+04  0.00000000000E+00 0. -1.
          2   -1    0    0  503    0 -0.00000000000E+00 -0.00000000000E+00 -0.13040752694E+03  0.13040752694E+03  0.00000000000E+00 0. -1.
         25    1    1    2    0    0 -0.22003801661E+03  0.11763369852E+03  0.36395292631E+03  0.45862964181E+03  0.12500000000E+03 0.  0.
         21    1    1    2  503  502  0.19488147383E+03 -0.11321395444E+03  0.56687975961E+03  0.61004003982E+03  0.00000000000E+00 0. -1.
          2    1    1    2  501    0  0.25156542780E+02 -0.44197440801E+01 -0.58836581197E+02  0.64141476981E+02  0.00000000000E+00 0. -1.
<mgrwt>
<rscale>  4 0.52498133E+03</rscale>
<asrwt>0</asrwt>
<pdfrwt beam="1">  1       21 0.15421594E+00 0.52498133E+03</pdfrwt>
<pdfrwt beam="2">  1        2 0.20062697E-01 0.52498133E+03</pdfrwt>
<totfact> 0.83957590E+02</totfact>
</mgrwt>
</event>
<event>
 5    0  0.7099509E-001  0.5656180E+03  0.7546771E-02  0.9979423E-01
          1   -1    0    0  503    0 -0.00000000000E+00  0.00000000000E+00  0.11163376786E+04  0.11163376786E+04  0.00000000000E+00 0. -1.
         21   -1    0    0  501  502  0.00000000000E+00 -0.00000000000E+00 -0.10660546331E+03  0.10660546331E+03  0.00000000000E+00 0. -1.
         25    1    1    2    0    0  0.25393995026E+03  0.11873523301E+03  0.33085865549E+03  0.45130477929E+03  0.12500000000E+03 0.  0.
         21    1    1    2  503  502 -0.23367948386E+03 -0.10947148681E+03  0.31553743389E+03  0.40761989621E+03  0.00000000000E+00 0. -1.
          1    1    1    2  501    0 -0.20260466408E+02 -0.92637461986E+01  0.36333612590E+03  0.36401846640E+03  0.00000000000E+00 0. -1.
<mgrwt>
<rscale>  4 0.56561798E+03</rscale>
<asrwt>0</asrwt>
<pdfrwt beam="1">  1       21 0.16400841E-01 0.56561798E+03</pdfrwt>
<pdfrwt beam="2">  1        1 0.17174425E+00 0.56561798E+03</pdfrwt>
<totfact> 0.45270751E+03</totfact>
</mgrwt>
</event>
<event>
 5    0  0.7099509E-001  0.7074455E+03  0.7546771E-02  0.9704583E-01
         21   -1    0    0  501  502  0.00000000000E+00  0.00000000000E+00  0.10065983781E+04  0.10065983781E+04  0.00000000000E+00 0. -1.
          2   -1    0    0  503    0 -0.00000000000E+00 -0.00000000000E+00 -0.84296605760E+03  0.84296605760E+03  0.00000000000E+00 0.  1.
         25    1    1    2    0    0 -0.23808185276E+03  0.24681919790E+03  0.20504840600E+03  0.41865562682E+03  0.12500000000E+03 0.  0.
         21    1    1    2  503  502  0.12834006825E+03 -0.18349961786E+03  0.67096670603E+03  0.70734687634E+03  0.00000000000E+00 0. -1.
          2    1    1    2  501    0  0.10974178451E+03 -0.63319580039E+02 -0.71238279155E+03  0.72356193251E+03  0.00000000000E+00 0.  1.
<mgrwt>
<rscale>  4 0.70744552E+03</rscale>
<asrwt>0</asrwt>
<pdfrwt beam="1">  1       21 0.15486129E+00 0.70744552E+03</pdfrwt>
<pdfrwt beam="2">  1        2 0.12968709E+00 0.70744552E+03</pdfrwt>
<totfact> 0.91862906E+01</totfact>
</mgrwt>
</event>
<event>
 5    0  0.7099509E-001  0.7274778E+03  0.7546771E-02  0.9671362E-01
         21   -1    0    0  501  502  0.00000000000E+00  0.00000000000E+00  0.76871175914E+03  0.76871175914E+03  0.00000000000E+00 0.  1.
         -2   -1    0    0    0  501 -0.00000000000E+00 -0.00000000000E+00 -0.36848551448E+04  0.36848551448E+04  0.00000000000E+00 0.  1.
         25    1    1    2    0    0  0.24755969776E+03 -0.55454232039E+02  0.67739781101E+03  0.73406659791E+03  0.12500000000E+03 0.  0.
         21    1    1    2  503  502 -0.18969455654E+03  0.37864903225E+01 -0.81324221400E+02  0.20642672132E+03  0.00000000000E+00 0. -1.
         -2    1    1    2    0  503 -0.57865141223E+02  0.51667741716E+02 -0.35122169752E+04  0.35130735847E+04  0.00000000000E+00 0.  1.
<mgrwt>
<rscale>  4 0.72747781E+03</rscale>
<asrwt>0</asrwt>
<pdfrwt beam="1">  1       21 0.11826335E+00 0.72747781E+03</pdfrwt>
<pdfrwt beam="2">  1       -2 0.56690079E+00 0.72747781E+03</pdfrwt>
<totfact> 0.27745508E-02</totfact>
</mgrwt>
</event>
<event>
 5    0  0.7099509E-001  0.6468950E+03  0.7546771E-02  0.9812623E-01
         21   -1    0    0  501  502  0.00000000000E+00  0.00000000000E+00  0.25806244202E+03  0.25806244202E+03  0.00000000000E+00 0.  1.
         -1   -1    0    0    0  501 -0.00000000000E+00 -0.00000000000E+00 -0.54298360319E+03  0.54298360319E+03  0.00000000000E+00 0.  1.
         25    1    1    2    0    0 -0.24144507763E+03 -0.12362014827E+03 -0.27812134648E+03  0.40811046292E+03  0.12500000000E+03 0.  0.
         21    1    1    2  503  502  0.23502054451E+03  0.52843610689E+02  0.10312853214E+03  0.26203548934E+03  0.00000000000E+00 0.  1.
         -1    1    1    2    0  503  0.64245331170E+01  0.70776537581E+02 -0.10992834682E+03  0.13090009295E+03  0.00000000000E+00 0.  1.
<mgrwt>
<rscale>  4 0.64689498E+03</rscale>
<asrwt>0</asrwt>
<pdfrwt beam="1">  1       21 0.39701914E-01 0.64689498E+03</pdfrwt>
<pdfrwt beam="2">  1       -1 0.83535939E-01 0.64689498E+03</pdfrwt>
<totfact> 0.76761708E+02</totfact>
</mgrwt>
</event>
<event>
 5    0  0.7099509E-001  0.6169523E+03  0.7546771E-02  0.9870846E-01
         21   -1    0    0  501  502  0.00000000000E+00  0.00000000000E+00  0.23136134972E+03  0.23136134972E+03  0.00000000000E+00 0.  1.
          2   -1    0    0  503    0 -0.00000000000E+00 -0.00000000000E+00 -0.15480356050E+04  0.15480356050E+04  0.00000000000E+00 0. -1.
         25    1    1    2    0    0  0.16213969401E+03  0.16973257407E+03 -0.59816712220E+02  0.27258295276E+03  0.12500000000E+03 0.  0.
         21    1    1    2  503  502 -0.24672374670E+03 -0.24770297080E+03 -0.12830456395E+03  0.37241298320E+03  0.00000000000E+00 0.  1.
          2    1    1    2  501    0  0.84584052690E+02  0.77970396731E+02 -0.11285529791E+04  0.11344010187E+04  0.00000000000E+00 0. -1.
<mgrwt>
<rscale>  4 0.61695230E+03</rscale>
<asrwt>0</asrwt>
<pdfrwt beam="1">  1       21 0.35594053E-01 0.61695230E+03</pdfrwt>
<pdfrwt beam="2">  1        2 0.23815933E+00 0.61695230E+03</pdfrwt>
<totfact> 0.10924442E+03</totfact>
</mgrwt>
</event>
<event>
 5    0  0.7099509E-001  0.5545452E+03  0.7546771E-02  0.1000447E+00
         21   -1    0    0  501  502  0.00000000000E+00  0.00000000000E+00  0.31704140568E+03  0.31704140568E+03  0.00000000000E+00 0. -1.
          2   -1    0    0  503    0 -0.00000000000E+00 -0.00000000000E+00 -0.13689735990E+04  0.13689735990E+04  0.00000000000E+00 0.  1.
         25    1    1    2    0    0  0.61585358658E+02  0.24466993926E+03 -0.72954104044E+02  0.29086669950E+03  0.12500000000E+03 0.  0.
         21    1    1    2  503  502 -0.57123820479E+02 -0.21732176680E+03  0.14720242451E+03  0.26862694387E+03  0.00000000000E+00 0. -1.
          2    1    1    2  501    0 -0.44615381792E+01 -0.27348172460E+02 -0.11261805138E+04  0.11265213613E+04  0.00000000000E+00 0.  1.
<mgrwt>
<rscale>  4 0.55454515E+03</rscale>
<asrwt>0</asrwt>
<pdfrwt beam="1">  1       21 0.48775601E-01 0.55454515E+03</pdfrwt>
<pdfrwt beam="2">  1        2 0.21061132E+00 0.55454515E+03</pdfrwt>
<totfact> 0.72182621E+02</totfact>
</mgrwt>
</event>
<event>
 5    0  0.7099509E-001  0.4759058E+03  0.7546771E-02  0.1020266E+00
          1   -1    0    0  503    0 -0.00000000000E+00  0.00000000000E+00  0.66435761151E+03  0.66435761151E+03  0.00000000000E+00 0. -1.
         21   -1    0    0  501  502  0.00000000000E+00 -0.00000000000E+00 -0.53314761770E+03  0.53314761770E+03  0.00000000000E+00 0.  1.
         25    1    1    2    0    0 -0.96000769512E+02  0.23793072232E+03 -0.13766293224E+03  0.31686473341E+03  0.12500000000E+03 0.  0.
         21    1    1    2  503  502  0.60283667898E+02 -0.13284673741E+03 -0.28264098810E+03  0.31806965339E+03  0.00000000000E+00 0.  1.
          1    1    1    2  501    0  0.35717101615E+02 -0.10508398491E+03  0.55151391414E+03  0.56257084241E+03  0.00000000000E+00 0. -1.
<mgrwt>
<rscale>  4 0.47590576E+03</rscale>
<asrwt>0</asrwt>
<pdfrwt beam="1">  1       21 0.82022710E-01 0.47590576E+03</pdfrwt>
<pdfrwt beam="2">  1        1 0.10220886E+00 0.47590576E+03</pdfrwt>
<totfact> 0.39204035E+02</totfact>
</mgrwt>
</event>
<event>
 5    0  0.7099509E-001  0.4917192E+03  0.7546771E-02  0.1015963E+00
         21   -1    0    0  501  502  0.00000000000E+00  0.00000000000E+00  0.13017629168E+04  0.13017629168E+04  0.00000000000E+00 0.  1.
         -2   -1    0    0    0  501 -0.00000000000E+00 -0.00000000000E+00 -0.27497971824E+03  0.27497971824E+03  0.00000000000E+00 0. -1.
         25    1    1    2    0    0 -0.28137750174E+03 -0.37652976724E+02  0.53678396578E+03  0.61996215293E+03  0.12500000000E+03 0.  0.
         21    1    1    2  503  502 -0.99161252551E+01  0.14898269527E+03  0.60595238058E+03  0.62407728733E+03  0.00000000000E+00 0.  1.
         -2    1    1    2    0  503  0.29129362700E+03 -0.11132971854E+03 -0.11595314777E+03  0.33270319481E+03  0.00000000000E+00 0. -1.
<mgrwt>
<rscale>  4 0.49171920E+03</rscale>
<asrwt>0</asrwt>
<pdfrwt beam="1">  1       21 0.20027121E+00 0.49171920E+03</pdfrwt>
<pdfrwt beam="2">  1       -2 0.42304573E-01 0.49171920E+03</pdfrwt>
<totfact> 0.49295001E+01</totfact>
</mgrwt>
</event>
<event>
 5    0  0.7099509E-001  0.3346987E+03  0.7546771E-02  0.1069077E+00
          2   -1    0    0  503    0 -0.00000000000E+00  0.00000000000E+00  0.54426218896E+03  0.54426218896E+03  0.00000000000E+00 0. -1.
         21   -1    0    0  501  502  0.00000000000E+00 -0.00000000000E+00 -0.53580815768E+03  0.53580815768E+03  0.00000000000E+00 0.  1.
         25    1    1    2    0    0  0.12730385727E+03 -0.21315341016E+03 -0.40925316154E+03  0.49472598332E+03  0.12500000000E+03 0.  0.
         21    1    1    2  503  502 -0.40618099247E+02 -0.30762139590E+02 -0.36412915634E+02  0.62626189757E+02  0.00000000000E+00 0. -1.
          2    1    1    2  501    0 -0.86685758019E+02  0.24391554975E+03  0.45412010846E+03  0.52271817355E+03  0.00000000000E+00 0. -1.
<mgrwt>
<rscale>  4 0.33469866E+03</rscale>
<asrwt>0</asrwt>
<pdfrwt beam="1">  1       21 0.82432024E-01 0.33469866E+03</pdfrwt>
<pdfrwt beam="2">  1        2 0.83732645E-01 0.33469866E+03</pdfrwt>
<totfact> 0.85674958E+02</totfact>
</mgrwt>
</event>
<event>
 5    0  0.7099509E-001  0.7138787E+03  0.7546771E-02  0.9693788E-01
         21   -1    0    0  501  502  0.00000000000E+00  0.00000000000E+00  0.94957915863E+02  0.94957915863E+02  0.00000000000E+00 0.  1.
          1   -1    0    0  503    0 -0.00000000000E+00 -0.00000000000E+00 -0.24293008014E+04  0.24293008014E+04  0.00000000000E+00 0.  1.
         25    1    1    2    0    0  0.13831658417E+03  0.20679202269E+03 -0.13650571206E+03  0.31008583897E+03  0.12500000000E+03 0.  0.
         21    1    1    2  503  502 -0.74339597285E+02 -0.63451901639E+02 -0.12101243382E+04  0.12140648390E+04  0.00000000000E+00 0. -1.
          1    1    1    2  501    0 -0.63976986881E+02 -0.14334012105E+03 -0.98771283529E+03  0.10001080392E+04  0.00000000000E+00 0.  1.
<mgrwt>
<rscale>  4 0.71387870E+03</rscale>
<asrwt>0</asrwt>
<pdfrwt beam="1">  1       21 0.14608912E-01 0.71387870E+03</pdfrwt>
<pdfrwt beam="2">  1        1 0.37373855E+00 0.71387870E+03</pdfrwt>
<totfact> 0.70173643E+02</totfact>
</mgrwt>
</event>
<event>
 5    0  0.7099509E-001  0.4784607E+03  0.7546771E-02  0.1019559E+00
          2   -1    0    0  503    0 -0.00000000000E+00  0.00000000000E+00  0.17900870639E+04  0.17900870639E+04  0.00000000000E+00 0. -1.
         21   -1    0    0  501  502  0.00000000000E+00 -0.00000000000E+00 -0.17385953520E+03  0.17385953520E+03  0.00000000000E+00 0.  1.
         25    1    1    2    0    0 -0.88443770996E+02  0.34921215487E+03  0.13386367639E+03  0.40412363652E+03  0.12500000000E+03 0.  0.
         21    1    1    2  503  502 -0.77213218034E+02 -0.33437324657E+02  0.92941457657E+02  0.12537164859E+03  0.00000000000E+00 0. -1.
          2    1    1    2  501    0  0.16565698903E+03 -0.31577483022E+03  0.13894223947E+04  0.14344513140E+04  0.00000000000E+00 0. -1.
<mgrwt>
<rscale>  4 0.47846075E+03</rscale>
<asrwt>0</asrwt>
<pdfrwt beam="1">  1       21 0.26747622E-01 0.47846075E+03</pdfrwt>
<pdfrwt beam="2">  1        2 0.27539800E+00 0.47846075E+03</pdfrwt>
<totfact> 0.14744294E+03</totfact>
</mgrwt>
</event>
<event>
 5    0  0.7099509E-001  0.4687739E+03  0.7546771E-02  0.1022267E+00
          2   -1    0    0  503    0 -0.00000000000E+00  0.00000000000E+00  0.21768585513E+04  0.21768585513E+04  0.00000000000E+00 0.  1.
         21   -1    0    0  501  502  0.00000000000E+00 -0.00000000000E+00 -0.41936687701E+02  0.41936687701E+02  0.00000000000E+00 0.  1.
         25    1    1    2    0    0 -0.31526175535E+01  0.20128254868E+03  0.77574805531E+03  0.81113170861E+03  0.12500000000E+03 0.  0.
         21    1    1    2  503  502 -0.61487075315E+02 -0.21798968480E+03  0.53737205275E+03  0.58315425591E+03  0.00000000000E+00 0.  1.
          2    1    1    2  501    0  0.64639692869E+02  0.16707136127E+02  0.82180175551E+03  0.82450927444E+03  0.00000000000E+00 0.  1.
<mgrwt>
<rscale>  4 0.46877386E+03</rscale>
<asrwt>0</asrwt>
<pdfrwt beam="1">  1       21 0.64517998E-02 0.46877386E+03</pdfrwt>
<pdfrwt beam="2">  1        2 0.33490123E+00 0.46877386E+03</pdfrwt>
<totfact> 0.12594008E+04</totfact>
</mgrwt>
</event>
<event>
 5    0  0.7099509E-001  0.3753498E+03  0.7546771E-02  0.1052666E+00
          1   -1    0    0  503    0 -0.00000000000E+00  0.00000000000E+00  0.11399979758E+04  0.11399979758E+04  0.00000000000E+00 0. -1.
         21   -1    0    0  501  502  0.00000000000E+00 -0.00000000000E+00 -0.69553410389E+02  0.69553410389E+02  0.00000000000E+00 0.  1.
         25    1    1    2    0    0  0.44771064237E+02 -0.19655416191E+03  0.21159601700E+03  0.31786138672E+03  0.12500000000E+03 0.  0.
         21    1    1    2  503  502 -0.33146689352E+02  0.11510409077E+03  0.24895618014E+03  0.27627311552E+03  0.00000000000E+00 0.  1.
          1    1    1    2  501    0 -0.11624374885E+02  0.81450071140E+02  0.60989236829E+03  0.61541688397E+03  0.00000000000E+00 0. -1.
<mgrwt>
<rscale>  4 0.37534981E+03</rscale>
<asrwt>0</asrwt>
<pdfrwt beam="1">  1       21 0.10700526E-01 0.37534981E+03</pdfrwt>
<pdfrwt beam="2">  1        1 0.17538429E+00 0.37534981E+03</pdfrwt>
<totfact> 0.98255137E+03</totfact>
</mgrwt>
</event>
<event>
 5    0  0.7099509E-001  0.5923499E+03  0.7546771E-02  0.9921406E-01
         21   -1    0    0  501  502  0.00000000000E+00  0.00000000000E+00  0.15078924843E+04  0.15078924843E+04  0.00000000000E+00 0.  1.
          1   -1    0    0  503    0 -0.00000000000E+00 -0.00000000000E+00 -0.74078039913E+02  0.74078039913E+02  0.00000000000E+00 0.  1.
         25    1    1    2    0    0 -0.18726729634E+03 -0.96001819807E+02  0.24939441417E+03  0.34943949906E+03  0.12500000000E+03 0.  0.
         21    1    1    2  503  502  0.19213644328E+03  0.67554051044E+02  0.11862547000E+04  0.12036113060E+04  0.00000000000E+00 0.  1.
          1    1    1    2  501    0 -0.48691469389E+01  0.28447768764E+02 -0.18346698371E+01  0.28919719102E+02  0.00000000000E+00 0.  1.
<mgrwt>
<rscale>  4 0.59234992E+03</rscale>
<asrwt>0</asrwt>
<pdfrwt beam="1">  1       21 0.23198344E+00 0.59234992E+03</pdfrwt>
<pdfrwt beam="2">  1        1 0.11396623E-01 0.59234992E+03</pdfrwt>
<totfact> 0.41231735E+02</totfact>
</mgrwt>
</event>
<event>
 5    0  0.7099509E-001  0.5084318E+03  0.7546771E-02  0.1011601E+00
          2   -1    0    0  503    0 -0.00000000000E+00  0.00000000000E+00  0.11278276528E+04  0.11278276528E+04  0.00000000000E+00 0.  1.
         21   -1    0    0  501  502  0.00000000000E+00 -0.00000000000E+00 -0.36230155613E+03  0.36230155613E+03  0.00000000000E+00 0.  1.
         25    1    1    2    0    0 -0.11973308428E+03  0.22100933214E+03 -0.18307806771E+03  0.33514730379E+03  0.12500000000E+03 0.  0.
         21    1    1    2  503  502 -0.71339536559E+02 -0.18695679898E+03  0.14171783316E+02  0.20060661406E+03  0.00000000000E+00 0.  1.
          2    1    1    2  501    0  0.19107262084E+03 -0.34052533159E+02  0.93443238103E+03  0.95437529105E+03  0.00000000000E+00 0.  1.
<mgrwt>
<rscale>  4 0.50843183E+03</rscale>
<asrwt>0</asrwt>
<pdfrwt beam="1">  1       21 0.55738701E-01 0.50843183E+03</pdfrwt>
<pdfrwt beam="2">  1        2 0.17351195E+00 0.50843183E+03</pdfrwt>
<totfact> 0.75494070E+02</totfact>
</mgrwt>
</event>
<event>
 5    0  0.7099509E-001  0.5397814E+03  0.7546771E-02  0.1003887E+00
          2   -1    0    0  503    0 -0.00000000000E+00  0.00000000000E+00  0.78589285270E+03  0.78589285270E+03  0.00000000000E+00 0.  1.
         21   -1    0    0  501  502  0.00000000000E+00 -0.00000000000E+00 -0.31398162493E+03  0.31398162493E+03  0.00000000000E+00 0.  1.
         25    1    1    2    0    0 -0.34694397132E+03  0.15372719946E+03  0.12584823263E+03  0.41888536468E+03  0.12500000000E+03 0.  0.
         21    1    1    2  503  502 -0.10040302409E+03 -0.83375859612E+02  0.10789179738E+03  0.16933086297E+03  0.00000000000E+00 0. -1.
          2    1    1    2  501    0  0.44734699541E+03 -0.70351339849E+02  0.23817119776E+03  0.51165824997E+03  0.00000000000E+00 0.  1.
<mgrwt>
<rscale>  4 0.53978137E+03</rscale>
<asrwt>0</asrwt>
<pdfrwt beam="1">  1       21 0.48304866E-01 0.53978137E+03</pdfrwt>
<pdfrwt beam="2">  1        2 0.12090659E+00 0.53978137E+03</pdfrwt>
<totfact> 0.16996837E+03</totfact>
</mgrwt>
</event>
<event>
 5    0  0.7099509E-001  0.1128288E+04  0.7546771E-02  0.9178051E-01
         21   -1    0    0  501  502  0.00000000000E+00  0.00000000000E+00  0.27801125879E+03  0.27801125879E+03  0.00000000000E+00 0. -1.
          1   -1    0    0  503    0 -0.00000000000E+00 -0.00000000000E+00 -0.22627667710E+04  0.22627667710E+04  0.00000000000E+00 0. -1.
         25    1    1    2    0    0  0.63698131460E+02 -0.53500244871E+03 -0.48647092979E+03  0.73658946341E+03  0.12500000000E+03 0.  0.
         21    1    1    2  503  502 -0.18423941549E+03  0.54174562701E+03 -0.39733745441E+03  0.69664161466E+03  0.00000000000E+00 0. -1.
          1    1    1    2  501    0  0.12054128403E+03 -0.67431782972E+01 -0.11009471280E+04  0.11075469517E+04  0.00000000000E+00 0. -1.
<mgrwt>
<rscale>  4 0.11282881E+04</rscale>
<asrwt>0</asrwt>
<pdfrwt beam="1">  1       21 0.42770962E-01 0.11282881E+04</pdfrwt>
<pdfrwt beam="2">  1        1 0.34811797E+00 0.11282881E+04</pdfrwt>
<totfact> 0.10160936E+02</totfact>
</mgrwt>
</event>
<event>
 5    0  0.7099509E-001  0.7800743E+03  0.7546771E-02  0.9589315E-01
         21   -1    0    0  501  502  0.00000000000E+00  0.00000000000E+00  0.51074292246E+03  0.51074292246E+03  0.00000000000E+00 0.  1.
          1   -1    0    0  503    0 -0.00000000000E+00 -0.00000000000E+00 -0.11953457184E+04  0.11953457184E+04  0.00000000000E+00 0. -1.
         25    1    1    2    0    0 -0.23783405674E+03 -0.48331874142E+03  0.23984243508E+03  0.60275321485E+03  0.12500000000E+03 0.  0.
         21    1    1    2  503  502  0.60277823051E+02  0.15674539008E+03 -0.91583024462E+02  0.19128508471E+03  0.00000000000E+00 0. -1.
          1    1    1    2  501    0  0.17755623369E+03  0.32657335133E+03 -0.83286220653E+03  0.91205034126E+03  0.00000000000E+00 0. -1.
<mgrwt>
<rscale>  4 0.78007434E+03</rscale>
<asrwt>0</asrwt>
<pdfrwt beam="1">  1       21 0.78575835E-01 0.78007434E+03</pdfrwt>
<pdfrwt beam="2">  1        1 0.18389934E+00 0.78007434E+03</pdfrwt>
<totfact> 0.15026281E+02</totfact>
</mgrwt>
</event>
<event>
 5    0  0.7099509E-001  0.4721757E+03  0.7546771E-02  0.1021308E+00
         21   -1    0    0  501  502  0.00000000000E+00  0.00000000000E+00  0.10983811593E+04  0.10983811593E+04  0.00000000000E+00 0. -1.
         -2   -1    0    0    0  501 -0.00000000000E+00 -0.00000000000E+00 -0.26898435951E+03  0.26898435951E+03  0.00000000000E+00 0.  1.
         25    1    1    2    0    0 -0.20251561162E+03  0.13802836785E+03  0.31655046281E+03  0.41939670813E+03  0.12500000000E+03 0.  0.
         21    1    1    2  503  502  0.18609403345E+02 -0.62022839021E+02  0.68305124776E+03  0.68611380216E+03  0.00000000000E+00 0. -1.
         -2    1    1    2    0  503  0.18390620828E+03 -0.76005528834E+02 -0.17020491075E+03  0.26185500854E+03  0.00000000000E+00 0.  1.
<mgrwt>
<rscale>  4 0.47217572E+03</rscale>
<asrwt>0</asrwt>
<pdfrwt beam="1">  1       21 0.16898171E+00 0.47217572E+03</pdfrwt>
<pdfrwt beam="2">  1       -2 0.41382210E-01 0.47217572E+03</pdfrwt>
<totfact> 0.85640575E+01</totfact>
</mgrwt>
</event>
<event>
 5    0  0.7099509E-001  0.5912838E+03  0.7546771E-02  0.9923656E-01
          2   -1    0    0  503    0 -0.00000000000E+00  0.00000000000E+00  0.38215971480E+03  0.38215971480E+03  0.00000000000E+00 0. -1.
         21   -1    0    0  501  502  0.00000000000E+00 -0.00000000000E+00 -0.47210846771E+03  0.47210846771E+03  0.00000000000E+00 0. -1.
         25    1    1    2    0    0  0.11814306365E+03 -0.29449075032E+03 -0.29539580496E+03  0.45118318574E+03  0.12500000000E+03 0.  0.
         21    1    1    2  503  502 -0.53179441420E+02  0.18053881491E+03  0.40806268047E+02  0.19258106914E+03  0.00000000000E+00 0.  1.
          2    1    1    2  501    0 -0.64963622229E+02  0.11395193540E+03  0.16464078400E+03  0.21050392764E+03  0.00000000000E+00 0. -1.
<mgrwt>
<rscale>  4 0.59128384E+03</rscale>
<asrwt>0</asrwt>
<pdfrwt beam="1">  1       21 0.72632072E-01 0.59128384E+03</pdfrwt>
<pdfrwt beam="2">  1        2 0.58793802E-01 0.59128384E+03</pdfrwt>
<totfact> 0.16142041E+03</totfact>
</mgrwt>
</event>
<event>
 5    0  0.7099509E-001  0.5565666E+03  0.7546771E-02  0.9999854E-01
          2   -1    0    0  503    0 -0.00000000000E+00  0.00000000000E+00  0.69001812510E+03  0.69001812510E+03  0.00000000000E+00 0. -1.
         21   -1    0    0  501  502  0.00000000000E+00 -0.00000000000E+00 -0.39551135771E+03  0.39551135771E+03  0.00000000000E+00 0.  1.
         25    1    1    2    0    0  0.17797048500E+03  0.12604052245E+03  0.84554344050E+02  0.26520585199E+03  0.12500000000E+03 0.  0.
         21    1    1    2  503  502 -0.14467209578E+03 -0.74788488828E+02 -0.28142952047E+03  0.32515520656E+03  0.00000000000E+00 0.  1.
          2    1    1    2  501    0 -0.33298389220E+02 -0.51252033625E+02  0.49138194381E+03  0.49516842425E+03  0.00000000000E+00 0. -1.
<mgrwt>
<rscale>  4 0.55656657E+03</rscale>
<asrwt>0</asrwt>
<pdfrwt beam="1">  1       21 0.60847901E-01 0.55656657E+03</pdfrwt>
<pdfrwt beam="2">  1        2 0.10615663E+00 0.55656657E+03</pdfrwt>
<totfact> 0.12132814E+03</totfact>
</mgrwt>
</event>
<event>
 5    0  0.7099509E-001  0.5608108E+03  0.7546771E-02  0.9990222E-01
         -4   -1    0    0    0  501 -0.00000000000E+00  0.00000000000E+00  0.98644164179E+03  0.98644164179E+03  0.00000000000E+00 0.  1.
         21   -1    0    0  501  502  0.00000000000E+00 -0.00000000000E+00 -0.18314577342E+03  0.18314577342E+03  0.00000000000E+00 0.  1.
         25    1    1    2    0    0 -0.16487170570E+03  0.17593055199E+03  0.32097260899E+03  0.42045529392E+03  0.12500000000E+03 0.  0.
         21    1    1    2  503  502  0.19109082011E+03 -0.49579191276E+02 -0.48136794413E+02  0.20320174387E+03  0.00000000000E+00 0.  1.
         -4    1    1    2    0  503 -0.26219114403E+02 -0.12635136071E+03  0.53046005380E+03  0.54593037742E+03  0.00000000000E+00 0.  1.
<mgrwt>
<rscale>  4 0.56081077E+03</rscale>
<asrwt>0</asrwt>
<pdfrwt beam="1">  1       21 0.28176273E-01 0.56081077E+03</pdfrwt>
<pdfrwt beam="2">  1       -4 0.15176025E+00 0.56081077E+03</pdfrwt>
<totfact> 0.14818715E+02</totfact>
</mgrwt>
</event>
<event>
 5    0  0.7099509E-001  0.6318117E+03  0.7546771E-02  0.9841520E-01
          2   -1    0    0  503    0 -0.00000000000E+00  0.00000000000E+00  0.25896302747E+04  0.25896302747E+04  0.00000000000E+00 0. -1.
         21   -1    0    0  501  502  0.00000000000E+00 -0.00000000000E+00 -0.29458108268E+03  0.29458108268E+03  0.00000000000E+00 0. -1.
         25    1    1    2    0    0  0.94342091158E+02  0.22026296037E+03  0.24153894762E+03  0.36246691586E+03  0.12500000000E+03 0.  0.
         21    1    1    2  503  502 -0.10361661253E+03 -0.15537848327E+03 -0.19631862846E+03  0.27096102918E+03  0.00000000000E+00 0. -1.
          2    1    1    2  501    0  0.92745213705E+01 -0.64884477099E+02  0.22498288729E+04  0.22507834124E+04  0.00000000000E+00 0. -1.
<mgrwt>
<rscale>  4 0.63181175E+03</rscale>
<asrwt>0</asrwt>
<pdfrwt beam="1">  1       21 0.45320168E-01 0.63181175E+03</pdfrwt>
<pdfrwt beam="2">  1        2 0.39840464E+00 0.63181175E+03</pdfrwt>
<totfact> 0.17662735E+02</totfact>
</mgrwt>
</event>
<event>
 5    0  0.7099509E-001  0.5931293E+03  0.7546771E-02  0.9919764E-01
         21   -1    0    0  501  502  0.00000000000E+00  0.00000000000E+00  0.14422606607E+04  0.14422606607E+04  0.00000000000E+00 0. -1.
          2   -1    0    0  503    0 -0.00000000000E+00 -0.00000000000E+00 -0.33333859230E+03  0.33333859230E+03  0.00000000000E+00 0.  1.
         25    1    1    2    0    0  0.85911763933E+02  0.35025960510E+03  0.11849026374E+04  0.12448621940E+04  0.12500000000E+03 0.  0.
         21    1    1    2  503  502 -0.52383206492E+02 -0.14802353889E+03  0.15587617199E+03  0.22125177826E+03  0.00000000000E+00 0.  1.
          2    1    1    2  501    0 -0.33528557441E+02 -0.20223606621E+03 -0.23185674095E+03  0.30948528069E+03  0.00000000000E+00 0.  1.
<mgrwt>
<rscale>  4 0.59312930E+03</rscale>
<asrwt>0</asrwt>
<pdfrwt beam="1">  1       21 0.22188625E+00 0.59312930E+03</pdfrwt>
<pdfrwt beam="2">  1        2 0.51282861E-01 0.59312930E+03</pdfrwt>
<totfact> 0.96397585E+01</totfact>
</mgrwt>
</event>
<event>
 5    0  0.7099509E-001  0.6595084E+03  0.7546771E-02  0.9789099E-01
          1   -1    0    0  503    0 -0.00000000000E+00  0.00000000000E+00  0.43060391237E+04  0.43060391237E+04  0.00000000000E+00 0.  1.
         21   -1    0    0  501  502  0.00000000000E+00 -0.00000000000E+00 -0.18334813690E+03  0.18334813690E+03  0.00000000000E+00 0.  1.
         25    1    1    2    0    0 -0.14315678243E+03 -0.24239132514E+03  0.11661746901E+03  0.32935095709E+03  0.12500000000E+03 0.  0.
         21    1    1    2  503  502  0.18329911667E+03  0.28328801662E+03  0.29403938135E+03  0.44755985557E+03  0.00000000000E+00 0.  1.
          1    1    1    2  501    0 -0.40142334241E+02 -0.40896691485E+02  0.37120341364E+04  0.37124764479E+04  0.00000000000E+00 0.  1.
<mgrwt>
<rscale>  4 0.65950842E+03</rscale>
<asrwt>0</asrwt>
<pdfrwt beam="1">  1       21 0.28207409E-01 0.65950842E+03</pdfrwt>
<pdfrwt beam="2">  1        1 0.66246748E+00 0.65950842E+03</pdfrwt>
<totfact> 0.71480517E+00</totfact>
</mgrwt>
</event>
<event>
 5    0  0.7099509E-001  0.6013609E+03  0.7546771E-02  0.9902587E-01
          1   -1    0    0  503    0 -0.00000000000E+00  0.00000000000E+00  0.39521740059E+03  0.39521740059E+03  0.00000000000E+00 0. -1.
         21   -1    0    0  501  502  0.00000000000E+00 -0.00000000000E+00 -0.34093569565E+03  0.34093569565E+03  0.00000000000E+00 0. -1.
         25    1    1    2    0    0  0.22669027519E+02  0.26550400235E+03  0.12430565429E+03  0.31950454732E+03  0.12500000000E+03 0.  0.
         21    1    1    2  503  502 -0.39196155527E+02 -0.21066695521E+03 -0.18828350272E+03  0.28525003422E+03  0.00000000000E+00 0. -1.
          1    1    1    2  501    0  0.16527128007E+02 -0.54837047137E+02  0.11825955337E+03  0.13139851469E+03  0.00000000000E+00 0. -1.
<mgrwt>
<rscale>  4 0.60136091E+03</rscale>
<asrwt>0</asrwt>
<pdfrwt beam="1">  1       21 0.52451646E-01 0.60136091E+03</pdfrwt>
<pdfrwt beam="2">  1        1 0.60802677E-01 0.60136091E+03</pdfrwt>
<totfact> 0.21269071E+03</totfact>
</mgrwt>
</event>
<event>
 5    0  0.7099509E-001  0.4683365E+03  0.7546771E-02  0.1022391E+00
          1   -1    0    0  503    0 -0.00000000000E+00  0.00000000000E+00  0.17037434863E+04  0.17037434863E+04  0.00000000000E+00 0. -1.
         21   -1    0    0  501  502  0.00000000000E+00 -0.00000000000E+00 -0.87055087756E+02  0.87055087756E+02  0.00000000000E+00 0.  1.
         25    1    1    2    0    0  0.18253977915E+03  0.84675658982E+02  0.33950831998E+03  0.41398265366E+03  0.12500000000E+03 0.  0.
         21    1    1    2  503  502 -0.86283670123E+02  0.19761035428E+03  0.56142300121E+03  0.60140710848E+03  0.00000000000E+00 0.  1.
          1    1    1    2  501    0 -0.96256109031E+02 -0.28228601326E+03  0.71575707737E+03  0.77540881192E+03  0.00000000000E+00 0. -1.
<mgrwt>
<rscale>  4 0.46833655E+03</rscale>
<asrwt>0</asrwt>
<pdfrwt beam="1">  1       21 0.13393092E-01 0.46833655E+03</pdfrwt>
<pdfrwt beam="2">  1        1 0.26211436E+00 0.46833655E+03</pdfrwt>
<totfact> 0.26376737E+03</totfact>
</mgrwt>
</event>
<event>
 5    0  0.7099509E-001  0.8003790E+03  0.7546771E-02  0.9559469E-01
          2   -1    0    0  503    0 -0.00000000000E+00  0.00000000000E+00  0.29858984732E+04  0.29858984732E+04  0.00000000000E+00 0. -1.
         21   -1    0    0  501  502  0.00000000000E+00 -0.00000000000E+00 -0.25895307654E+03  0.25895307654E+03  0.00000000000E+00 0.  1.
         25    1    1    2    0    0  0.43545762517E+02  0.33059913359E+03  0.36783725075E+03  0.51197779601E+03  0.12500000000E+03 0.  0.
         21    1    1    2  503  502 -0.34921504985E+02 -0.36384890821E+03 -0.79098875374E+01  0.36560649042E+03  0.00000000000E+00 0.  1.
          2    1    1    2  501    0 -0.86242575322E+01  0.33249774622E+02  0.23670180334E+04  0.23672672633E+04  0.00000000000E+00 0. -1.
<mgrwt>
<rscale>  4 0.80037896E+03</rscale>
<asrwt>0</asrwt>
<pdfrwt beam="1">  1       21 0.39838937E-01 0.80037896E+03</pdfrwt>
<pdfrwt beam="2">  1        2 0.45936897E+00 0.80037896E+03</pdfrwt>
<totfact> 0.12963050E+02</totfact>
</mgrwt>
</event>
<event>
 5    0  0.7099509E-001  0.4006189E+03  0.7546771E-02  0.1043566E+00
         -1   -1    0    0    0  501 -0.00000000000E+00  0.00000000000E+00  0.24986118121E+04  0.24986118121E+04  0.00000000000E+00 0.  1.
         21   -1    0    0  501  502  0.00000000000E+00 -0.00000000000E+00 -0.30329294223E+02  0.30329294223E+02  0.00000000000E+00 0.  1.
         25    1    1    2    0    0 -0.14676211559E+03 -0.14387723082E+03  0.67594891429E+03  0.71747593050E+03  0.12500000000E+03 0.  0.
         21    1    1    2  503  502  0.22800963152E+02  0.59980664100E+02  0.11553697835E+04  0.11571503362E+04  0.00000000000E+00 0. -1.
         -1    1    1    2    0  503  0.12396115244E+03  0.83896566723E+02  0.63696382013E+03  0.65431483964E+03  0.00000000000E+00 0.  1.
<mgrwt>
<rscale>  4 0.40061886E+03</rscale>
<asrwt>0</asrwt>
<pdfrwt beam="1">  1       21 0.46660472E-02 0.40061886E+03</pdfrwt>
<pdfrwt beam="2">  1       -1 0.38440165E+00 0.40061886E+03</pdfrwt>
<totfact> 0.30300132E+02</totfact>
</mgrwt>
</event>
<event>
 5    0  0.7099509E-001  0.6539800E+03  0.7546771E-02  0.9799340E-01
          1   -1    0    0  503    0 -0.00000000000E+00  0.00000000000E+00  0.96184895896E+03  0.96184895896E+03  0.00000000000E+00 0.  1.
         21   -1    0    0  501  502  0.00000000000E+00 -0.00000000000E+00 -0.26611034767E+03  0.26611034767E+03  0.00000000000E+00 0.  1.
         25    1    1    2    0    0 -0.20699940701E+03 -0.79544246901E+02  0.14538704683E+03  0.29315257990E+03  0.12500000000E+03 0.  0.
         21    1    1    2  503  502  0.29204934971E+03 -0.26499802720E+03  0.35000105552E+03  0.52727366325E+03  0.00000000000E+00 0.  1.
          1    1    1    2  501    0 -0.85049942702E+02  0.34454227410E+03  0.20035050894E+03  0.40753306348E+03  0.00000000000E+00 0.  1.
<mgrwt>
<rscale>  4 0.65398001E+03</rscale>
<asrwt>0</asrwt>
<pdfrwt beam="1">  1       21 0.40940054E-01 0.65398001E+03</pdfrwt>
<pdfrwt beam="2">  1        1 0.14797676E+00 0.65398001E+03</pdfrwt>
<totfact> 0.96465631E+02</totfact>
</mgrwt>
</event>
<event>
 5    0  0.7099509E-001  0.3678367E+03  0.7546771E-02  0.1055523E+00
         21   -1    0    0  501  502  0.00000000000E+00  0.00000000000E+00  0.79084604220E+03  0.79084604220E+03  0.00000000000E+00 0.  1.
          4   -1    0    0  503    0 -0.00000000000E+00 -0.00000000000E+00 -0.23287620927E+03  0.23287620927E+03  0.00000000000E+00 0.  1.
         25    1    1    2    0    0 -0.12928260269E+03 -0.22726439043E+03  0.56906565853E+03  0.63861085038E+03  0.12500000000E+03 0.  0.
         21    1    1    2  503  502  0.43782744821E+02  0.63956023168E+02  0.13110414029E+03  0.15230100868E+03  0.00000000000E+00 0. -1.
          4    1    1    2  501    0  0.85499857865E+02  0.16330836726E+03 -0.14219996589E+03  0.23281039241E+03  0.00000000000E+00 0.  1.
<mgrwt>
<rscale>  4 0.36783668E+03</rscale>
<asrwt>0</asrwt>
<pdfrwt beam="1">  1       21 0.12166862E+00 0.36783668E+03</pdfrwt>
<pdfrwt beam="2">  1        4 0.35827110E-01 0.36783668E+03</pdfrwt>
<totfact> 0.15605733E+02</totfact>
</mgrwt>
</event>
<event>
 5    0  0.7099509E-001  0.1966760E+04  0.7546771E-02  0.8622321E-01
         21   -1    0    0  501  502  0.00000000000E+00  0.00000000000E+00  0.12083432802E+04  0.12083432802E+04  0.00000000000E+00 0. -1.
          1   -1    0    0  503    0 -0.00000000000E+00 -0.00000000000E+00 -0.15039095129E+04  0.15039095129E+04  0.00000000000E+00 0. -1.
         25    1    1    2    0    0  0.15167250823E+03  0.63653350718E+03 -0.52801509651E+03  0.85006140817E+03  0.12500000000E+03 0.  0.
         21    1    1    2  503  502 -0.13782402938E+03 -0.66945064020E+03  0.93530541610E+03  0.11584281782E+04  0.00000000000E+00 0. -1.
          1    1    1    2  501    0 -0.13848478851E+02  0.32917133021E+02 -0.70285655228E+03  0.70376320670E+03  0.00000000000E+00 0. -1.
<mgrwt>
<rscale>  4 0.19667600E+04</rscale>
<asrwt>0</asrwt>
<pdfrwt beam="1">  1       21 0.18589897E+00 0.19667600E+04</pdfrwt>
<pdfrwt beam="2">  1        1 0.23137069E+00 0.19667600E+04</pdfrwt>
<totfact> 0.78649370E+00</totfact>
</mgrwt>
</event>
<event>
 5    0  0.7099509E-001  0.8914510E+03  0.7546771E-02  0.9436332E-01
          1   -1    0    0  503    0 -0.00000000000E+00  0.00000000000E+00  0.90238369741E+03  0.90238369741E+03  0.00000000000E+00 0.  1.
         21   -1    0    0  501  502  0.00000000000E+00 -0.00000000000E+00 -0.93165195566E+03  0.93165195566E+03  0.00000000000E+00 0.  1.
         25    1    1    2    0    0  0.11520415313E+03  0.20885416125E+03 -0.85584356605E+03  0.89720971189E+03  0.12500000000E+03 0.  0.
         21    1    1    2  503  502 -0.17643179647E+03 -0.74756722463E+02  0.14716679565E+03  0.24160879971E+03  0.00000000000E+00 0. -1.
          1    1    1    2  501    0  0.61227643335E+02 -0.13409743878E+03  0.67940851215E+03  0.69521714146E+03  0.00000000000E+00 0.  1.
<mgrwt>
<rscale>  4 0.89145097E+03</rscale>
<asrwt>0</asrwt>
<pdfrwt beam="1">  1       21 0.14333107E+00 0.89145097E+03</pdfrwt>
<pdfrwt beam="2">  1        1 0.13882826E+00 0.89145097E+03</pdfrwt>
<totfact> 0.54498124E+01</totfact>
</mgrwt>
</event>
<event>
 5    0  0.1044222E+000  0.7268528E+03  0.7546771E-02  0.9672381E-01
          2   -1    0    0  503    0 -0.00000000000E+00  0.00000000000E+00  0.15829648613E+04  0.15829648613E+04  0.00000000000E+00 0.  1.
         21   -1    0    0  501  502  0.00000000000E+00 -0.00000000000E+00 -0.32307199757E+03  0.32307199757E+03  0.00000000000E+00 0. -1.
         25    1    1    2    0    0  0.32316589183E+01  0.25868571865E+03  0.32832277249E+03  0.43629071454E+03  0.12500000000E+03 0.  0.
         21    1    1    2  503  502  0.75636425936E+00 -0.17447201205E+03 -0.23913021062E+03  0.29601404140E+03  0.00000000000E+00 0. -1.
          2    1    1    2  501    0 -0.39880231777E+01 -0.84213706597E+02  0.11707003018E+04  0.11737321029E+04  0.00000000000E+00 0.  1.
<mgrwt>
<rscale>  4 0.72685277E+03</rscale>
<asrwt>0</asrwt>
<pdfrwt beam="1">  1       21 0.49703385E-01 0.72685277E+03</pdfrwt>
<pdfrwt beam="2">  1        2 0.24353305E+00 0.72685277E+03</pdfrwt>
<totfact> 0.50897607E+02</totfact>
</mgrwt>
</event>
<event>
 5    0  0.7099509E-001  0.5095600E+03  0.7546771E-02  0.1011313E+00
         21   -1    0    0  501  502  0.00000000000E+00  0.00000000000E+00  0.10490412106E+03  0.10490412106E+03  0.00000000000E+00 0.  1.
          2   -1    0    0  503    0 -0.00000000000E+00 -0.00000000000E+00 -0.17117382198E+04  0.17117382198E+04  0.00000000000E+00 0.  1.
         25    1    1    2    0    0 -0.66504564813E+02 -0.23138261909E+03 -0.32390982794E+03  0.42249656826E+03  0.12500000000E+03 0.  0.
         21    1    1    2  503  502  0.46035339982E+02  0.22921612749E+03 -0.19063805862E+03  0.30166563448E+03  0.00000000000E+00 0.  1.
          2    1    1    2  501    0  0.20469224831E+02  0.21664915913E+01 -0.10922862121E+04  0.10924801381E+04  0.00000000000E+00 0.  1.
<mgrwt>
<rscale>  4 0.50955998E+03</rscale>
<asrwt>0</asrwt>
<pdfrwt beam="1">  1       21 0.16139097E-01 0.50955998E+03</pdfrwt>
<pdfrwt beam="2">  1        2 0.26334431E+00 0.50955998E+03</pdfrwt>
<totfact> 0.42456090E+03</totfact>
</mgrwt>
</event>
<event>
 5    0  0.7099509E-001  0.5356191E+03  0.7546771E-02  0.1004878E+00
         21   -1    0    0  501  502  0.00000000000E+00  0.00000000000E+00  0.10651684700E+03  0.10651684700E+03  0.00000000000E+00 0.  1.
          2   -1    0    0  503    0 -0.00000000000E+00 -0.00000000000E+00 -0.12377075909E+04  0.12377075909E+04  0.00000000000E+00 0. -1.
         25    1    1    2    0    0  0.77125566294E+02 -0.23218352790E+03 -0.50710354559E+03  0.57674652106E+03  0.12500000000E+03 0.  0.
         21    1    1    2  503  502 -0.60466943647E+02  0.18791663943E+03 -0.67117256800E+02  0.20850333524E+03  0.00000000000E+00 0.  1.
          2    1    1    2  501    0 -0.16658622647E+02  0.44266888470E+02 -0.55696994151E+03  0.55897458159E+03  0.00000000000E+00 0. -1.
<mgrwt>
<rscale>  4 0.53561909E+03</rscale>
<asrwt>0</asrwt>
<pdfrwt beam="1">  1       21 0.16387207E-01 0.53561909E+03</pdfrwt>
<pdfrwt beam="2">  1        2 0.19041656E+00 0.53561909E+03</pdfrwt>
<totfact> 0.75231209E+03</totfact>
</mgrwt>
</event>
<event>
 5    0  0.7099509E-001  0.4292411E+03  0.7546771E-02  0.1034100E+00
          2   -1    0    0  503    0 -0.00000000000E+00  0.00000000000E+00  0.91115931211E+03  0.91115931211E+03  0.00000000000E+00 0.  1.
         21   -1    0    0  501  502  0.00000000000E+00 -0.00000000000E+00 -0.15378101884E+03  0.15378101884E+03  0.00000000000E+00 0. -1.
         25    1    1    2    0    0  0.17367203784E+03  0.21172263169E+03  0.16285445352E+03  0.34224994161E+03  0.12500000000E+03 0.  0.
         21    1    1    2  503  502  0.88910132321E+02 -0.63599031703E+02  0.16477930803E+03  0.19774243050E+03  0.00000000000E+00 0.  1.
          2    1    1    2  501    0 -0.26258217017E+03 -0.14812359999E+03  0.42974453171E+03  0.52494795885E+03  0.00000000000E+00 0.  1.
<mgrwt>
<rscale>  4 0.42924105E+03</rscale>
<asrwt>0</asrwt>
<pdfrwt beam="1">  1       21 0.23658619E-01 0.42924105E+03</pdfrwt>
<pdfrwt beam="2">  1        2 0.14017835E+00 0.42924105E+03</pdfrwt>
<totfact> 0.60198385E+03</totfact>
</mgrwt>
</event>
<event>
 5    0  0.7099509E-001  0.1088019E+04  0.7546771E-02  0.9216948E-01
          2   -1    0    0  503    0 -0.00000000000E+00  0.00000000000E+00  0.24938131956E+04  0.24938131956E+04  0.00000000000E+00 0.  1.
         21   -1    0    0  501  502  0.00000000000E+00 -0.00000000000E+00 -0.23286725576E+03  0.23286725576E+03  0.00000000000E+00 0.  1.
         25    1    1    2    0    0  0.43117912819E+03 -0.21610668531E+03  0.55394858419E+03  0.74505139014E+03  0.12500000000E+03 0.  0.
         21    1    1    2  503  502 -0.50107747265E+03  0.30244135915E+03  0.50069788917E+03  0.77022580165E+03  0.00000000000E+00 0.  1.
          2    1    1    2  501    0  0.69898344460E+02 -0.86334673837E+02  0.12062994665E+04  0.12114032596E+04  0.00000000000E+00 0.  1.
<mgrwt>
<rscale>  4 0.10880192E+04</rscale>
<asrwt>0</asrwt>
<pdfrwt beam="1">  1       21 0.35825734E-01 0.10880192E+04</pdfrwt>
<pdfrwt beam="2">  1        2 0.38366355E+00 0.10880192E+04</pdfrwt>
<totfact> 0.29956930E+02</totfact>
</mgrwt>
</event>
<event>
 5    0  0.7099509E-001  0.5541352E+03  0.7546771E-02  0.1000541E+00
          1   -1    0    0  503    0 -0.00000000000E+00  0.00000000000E+00  0.17059438810E+04  0.17059438810E+04  0.00000000000E+00 0. -1.
         21   -1    0    0  501  502  0.00000000000E+00 -0.00000000000E+00 -0.64502812040E+03  0.64502812040E+03  0.00000000000E+00 0. -1.
         25    1    1    2    0    0  0.26314193584E+03 -0.10188705664E+03 -0.34658366540E+03  0.46407961368E+03  0.12500000000E+03 0.  0.
         21    1    1    2  503  502 -0.21987169169E+03  0.97046881638E+02 -0.17907808091E+03  0.29971756222E+03  0.00000000000E+00 0.  1.
          1    1    1    2  501    0 -0.43270244154E+02  0.48401750029E+01  0.15865775069E+04  0.15871748256E+04  0.00000000000E+00 0. -1.
<mgrwt>
<rscale>  4 0.55413523E+03</rscale>
<asrwt>0</asrwt>
<pdfrwt beam="1">  1       21 0.99235096E-01 0.55413523E+03</pdfrwt>
<pdfrwt beam="2">  1        1 0.26245290E+00 0.55413523E+03</pdfrwt>
<totfact> 0.40561264E+01</totfact>
</mgrwt>
</event>
<event>
 5    0  0.7099509E-001  0.4951790E+03  0.7546771E-02  0.1015045E+00
          2   -1    0    0  503    0 -0.00000000000E+00  0.00000000000E+00  0.15210978828E+04  0.15210978828E+04  0.00000000000E+00 0.  1.
         21   -1    0    0  501  502  0.00000000000E+00 -0.00000000000E+00 -0.20007601325E+03  0.20007601325E+03  0.00000000000E+00 0.  1.
         25    1    1    2    0    0 -0.48803964309E+02 -0.24266949243E+03  0.12375461264E+03  0.30366184094E+03  0.12500000000E+03 0.  0.
         21    1    1    2  503  502  0.10358705265E+03  0.17482307430E+03 -0.13455708732E+02  0.20365274582E+03  0.00000000000E+00 0.  1.
          2    1    1    2  501    0 -0.54783088341E+02  0.67846418136E+02  0.12107229657E+04  0.12138593093E+04  0.00000000000E+00 0.  1.
<mgrwt>
<rscale>  4 0.49517900E+03</rscale>
<asrwt>0</asrwt>
<pdfrwt beam="1">  1       21 0.30780926E-01 0.49517900E+03</pdfrwt>
<pdfrwt beam="2">  1        2 0.23401505E+00 0.49517900E+03</pdfrwt>
<totfact> 0.15547423E+03</totfact>
</mgrwt>
</event>
<event>
 5    0  0.7099509E-001  0.6572797E+03  0.7546771E-02  0.9793214E-01
         21   -1    0    0  501  502  0.00000000000E+00  0.00000000000E+00  0.26117021764E+03  0.26117021764E+03  0.00000000000E+00 0.  1.
          1   -1    0    0  503    0 -0.00000000000E+00 -0.00000000000E+00 -0.11007957523E+04  0.11007957523E+04  0.00000000000E+00 0. -1.
         25    1    1    2    0    0 -0.23052080106E+03 -0.32586075901E+03 -0.47298276321E+02  0.42093610077E+03  0.12500000000E+03 0.  0.
         21    1    1    2  503  502 -0.95526769573E+01  0.20545256335E+03 -0.18365919486E+03  0.27574029318E+03  0.00000000000E+00 0. -1.
          1    1    1    2  501    0  0.24007347802E+03  0.12040819566E+03 -0.60866806349E+03  0.66528957600E+03  0.00000000000E+00 0. -1.
<mgrwt>
<rscale>  4 0.65727973E+03</rscale>
<asrwt>0</asrwt>
<pdfrwt beam="1">  1       21 0.40180034E-01 0.65727973E+03</pdfrwt>
<pdfrwt beam="2">  1        1 0.16935319E+00 0.65727973E+03</pdfrwt>
<totfact> 0.78532753E+02</totfact>
</mgrwt>
</event>
<event>
 5    0  0.7099509E-001  0.6976109E+03  0.7546771E-02  0.9721327E-01
         21   -1    0    0  501  502  0.00000000000E+00  0.00000000000E+00  0.65416506071E+02  0.65416506071E+02  0.00000000000E+00 0. -1.
          2   -1    0    0  503    0 -0.00000000000E+00 -0.00000000000E+00 -0.29324480623E+04  0.29324480623E+04  0.00000000000E+00 0. -1.
         25    1    1    2    0    0 -0.85860346033E+02  0.33168279852E+03 -0.15980734735E+04  0.16391611588E+04  0.12500000000E+03 0.  0.
         21    1    1    2  503  502  0.14326556735E+03 -0.20732189998E+03 -0.35974462364E+03  0.43923067657E+03  0.00000000000E+00 0. -1.
          2    1    1    2  501    0 -0.57405221322E+02 -0.12436089854E+03 -0.90921345914E+03  0.91947273304E+03  0.00000000000E+00 0. -1.
<mgrwt>
<rscale>  4 0.69761087E+03</rscale>
<asrwt>0</asrwt>
<pdfrwt beam="1">  1       21 0.10064079E-01 0.69761087E+03</pdfrwt>
<pdfrwt beam="2">  1        2 0.45114580E+00 0.69761087E+03</pdfrwt>
<totfact> 0.20334518E+03</totfact>
</mgrwt>
</event>
<event>
 5    0  0.7099509E-001  0.5518513E+03  0.7546771E-02  0.1001066E+00
         21   -1    0    0  501  502  0.00000000000E+00  0.00000000000E+00  0.66346943597E+02  0.66346943597E+02  0.00000000000E+00 0. -1.
          2   -1    0    0  503    0 -0.00000000000E+00 -0.00000000000E+00 -0.21622403322E+04  0.21622403322E+04  0.00000000000E+00 0. -1.
         25    1    1    2    0    0 -0.60886206723E+02 -0.25982015208E+03 -0.44218031819E+03  0.53137752623E+03  0.12500000000E+03 0.  0.
         21    1    1    2  503  502  0.10187366995E+02  0.23765373235E+03 -0.65313997347E+03  0.69510783616E+03  0.00000000000E+00 0.  1.
          2    1    1    2  501    0  0.50698839727E+02  0.22166419728E+02 -0.10005730969E+04  0.10021019134E+04  0.00000000000E+00 0. -1.
<mgrwt>
<rscale>  4 0.55185125E+03</rscale>
<asrwt>0</asrwt>
<pdfrwt beam="1">  1       21 0.10207223E-01 0.55185125E+03</pdfrwt>
<pdfrwt beam="2">  1        2 0.33265232E+00 0.55185125E+03</pdfrwt>
<totfact> 0.55870007E+03</totfact>
</mgrwt>
</event>
<event>
 5    0  0.7099509E-001  0.3827460E+03  0.7546771E-02  0.1049923E+00
          2   -1    0    0  503    0 -0.00000000000E+00  0.00000000000E+00  0.10679547317E+03  0.10679547317E+03  0.00000000000E+00 0. -1.
         21   -1    0    0  501  502  0.00000000000E+00 -0.00000000000E+00 -0.19363812110E+04  0.19363812110E+04  0.00000000000E+00 0. -1.
         25    1    1    2    0    0 -0.14994050951E+03  0.23442183815E+03 -0.11060800259E+04  0.11473769120E+04  0.12500000000E+03 0.  0.
         21    1    1    2  503  502  0.37274933494E+02  0.16459011369E+02 -0.58764170531E+03  0.58905270863E+03  0.00000000000E+00 0.  1.
          2    1    1    2  501    0  0.11266557601E+03 -0.25088084951E+03 -0.13586400661E+03  0.30674706350E+03  0.00000000000E+00 0. -1.
<mgrwt>
<rscale>  4 0.38274603E+03</rscale>
<asrwt>0</asrwt>
<pdfrwt beam="1">  1       21 0.29790479E+00 0.38274603E+03</pdfrwt>
<pdfrwt beam="2">  1        2 0.16430074E-01 0.38274603E+03</pdfrwt>
<totfact> 0.12966849E+02</totfact>
</mgrwt>
</event>
<event>
 5    0  0.7099509E-001  0.6630491E+03  0.7546771E-02  0.9782597E-01
         21   -1    0    0  501  502  0.00000000000E+00  0.00000000000E+00  0.15273358117E+03  0.15273358117E+03  0.00000000000E+00 0. -1.
          2   -1    0    0  503    0 -0.00000000000E+00 -0.00000000000E+00 -0.13041786583E+04  0.13041786583E+04  0.00000000000E+00 0.  1.
         25    1    1    2    0    0 -0.21672650284E+03 -0.14707084670E+03 -0.61643524031E+03  0.68133517191E+03  0.12500000000E+03 0.  0.
         21    1    1    2  503  502  0.16885608983E+03  0.97821191176E+02  0.37709260824E+02  0.19875450402E+03  0.00000000000E+00 0. -1.
          2    1    1    2  501    0  0.47870413011E+02  0.49249655522E+02 -0.57271909761E+03  0.57682256352E+03  0.00000000000E+00 0.  1.
<mgrwt>
<rscale>  4 0.66304908E+03</rscale>
<asrwt>0</asrwt>
<pdfrwt beam="1">  1       21 0.23497475E-01 0.66304908E+03</pdfrwt>
<pdfrwt beam="2">  1        2 0.20064287E+00 0.66304908E+03</pdfrwt>
<totfact> 0.33983641E+03</totfact>
</mgrwt>
</event>
<event>
 5    0  0.7099509E-001  0.3945794E+03  0.7546771E-02  0.1045673E+00
         21   -1    0    0  501  502  0.00000000000E+00  0.00000000000E+00  0.10379041746E+03  0.10379041746E+03  0.00000000000E+00 0.  1.
          2   -1    0    0  503    0 -0.00000000000E+00 -0.00000000000E+00 -0.99906631991E+03  0.99906631991E+03  0.00000000000E+00 0.  1.
         25    1    1    2    0    0 -0.21435172879E+03 -0.10552475870E+02 -0.12403189224E+03  0.27760930942E+03  0.12500000000E+03 0.  0.
         21    1    1    2  503  502  0.13314962976E+03 -0.10707961649E+02 -0.16073833622E+03  0.20899831836E+03  0.00000000000E+00 0.  1.
          2    1    1    2  501    0  0.81202099030E+02  0.21260437519E+02 -0.61050567399E+03  0.61624910959E+03  0.00000000000E+00 0.  1.
<mgrwt>
<rscale>  4 0.39457940E+03</rscale>
<asrwt>0</asrwt>
<pdfrwt beam="1">  1       21 0.15967756E-01 0.39457940E+03</pdfrwt>
<pdfrwt beam="2">  1        2 0.15370251E+00 0.39457940E+03</pdfrwt>
<totfact> 0.11205204E+04</totfact>
</mgrwt>
</event>
<event>
 5    0  0.7099509E-001  0.4857915E+03  0.7546771E-02  0.1017556E+00
         -2   -1    0    0    0  501 -0.00000000000E+00  0.00000000000E+00  0.72896790953E+02  0.72896790953E+02  0.00000000000E+00 0. -1.
         21   -1    0    0  501  502  0.00000000000E+00 -0.00000000000E+00 -0.11593049053E+04  0.11593049053E+04  0.00000000000E+00 0. -1.
         25    1    1    2    0    0 -0.95051147857E+02 -0.18080745188E+03 -0.86803584810E+03  0.90046504038E+03  0.12500000000E+03 0.  0.
         21    1    1    2  503  502  0.10752502788E+03  0.16133465509E+03 -0.23395499179E+03  0.30385101734E+03  0.00000000000E+00 0. -1.
         -2    1    1    2    0  503 -0.12473880025E+02  0.19472796793E+02  0.15582725578E+02  0.27885638494E+02  0.00000000000E+00 0. -1.
<mgrwt>
<rscale>  4 0.48579147E+03</rscale>
<asrwt>0</asrwt>
<pdfrwt beam="1">  1       21 0.17835459E+00 0.48579147E+03</pdfrwt>
<pdfrwt beam="2">  1       -2 0.11214892E-01 0.48579147E+03</pdfrwt>
<totfact> 0.73216938E+02</totfact>
</mgrwt>
</event>
<event>
 5    0  0.7099509E-001  0.7392307E+03  0.7546771E-02  0.9652399E-01
         -1   -1    0    0    0  501 -0.00000000000E+00  0.00000000000E+00  0.57310783047E+03  0.57310783047E+03  0.00000000000E+00 0.  1.
         21   -1    0    0  501  502  0.00000000000E+00 -0.00000000000E+00 -0.55184623916E+03  0.55184623916E+03  0.00000000000E+00 0.  1.
         25    1    1    2    0    0  0.24733247124E+03 -0.31780347120E+02  0.13491007138E+03  0.30985330263E+03  0.12500000000E+03 0.  0.
         21    1    1    2  503  502 -0.21675416876E+03  0.19857051037E+02 -0.43799525617E+03  0.48909765546E+03  0.00000000000E+00 0.  1.
         -1    1    1    2    0  503 -0.30578302480E+02  0.11923296083E+02  0.32434677609E+03  0.32600311154E+03  0.00000000000E+00 0.  1.
<mgrwt>
<rscale>  4 0.73923068E+03</rscale>
<asrwt>0</asrwt>
<pdfrwt beam="1">  1       21 0.84899422E-01 0.73923068E+03</pdfrwt>
<pdfrwt beam="2">  1       -1 0.88170435E-01 0.73923068E+03</pdfrwt>
<totfact> 0.12592177E+02</totfact>
</mgrwt>
</event>
<event>
 5    0  0.7099509E-001  0.8328054E+03  0.7546771E-02  0.9513710E-01
         -1   -1    0    0    0  501 -0.00000000000E+00  0.00000000000E+00  0.58874838178E+03  0.58874838178E+03  0.00000000000E+00 0. -1.
         21   -1    0    0  501  502  0.00000000000E+00 -0.00000000000E+00 -0.12799386190E+04  0.12799386190E+04  0.00000000000E+00 0.  1.
         25    1    1    2    0    0  0.48841888367E+03  0.40965527258E+03 -0.74067486234E+03  0.98518764709E+03  0.12500000000E+03 0.  0.
         21    1    1    2  503  502 -0.18137715318E+03 -0.15941845208E+02 -0.24392331872E+03  0.30438528141E+03  0.00000000000E+00 0. -1.
         -1    1    1    2    0  503 -0.30704173049E+03 -0.39371342738E+03  0.29340794386E+03  0.57911407225E+03  0.00000000000E+00 0. -1.
<mgrwt>
<rscale>  4 0.83280536E+03</rscale>
<asrwt>0</asrwt>
<pdfrwt beam="1">  1       21 0.19691363E+00 0.83280536E+03</pdfrwt>
<pdfrwt beam="2">  1       -1 0.90576675E-01 0.83280536E+03</pdfrwt>
<totfact> 0.12322598E+01</totfact>
</mgrwt>
</event>
<event>
 5    0  0.7099509E-001  0.3421185E+03  0.7546771E-02  0.1065897E+00
         21   -1    0    0  501  502  0.00000000000E+00  0.00000000000E+00  0.45749497414E+02  0.45749497414E+02  0.00000000000E+00 0.  1.
          2   -1    0    0  503    0 -0.00000000000E+00 -0.00000000000E+00 -0.18131646463E+04  0.18131646463E+04  0.00000000000E+00 0.  1.
         25    1    1    2    0    0  0.17648174097E+03  0.12952863907E+03 -0.61120258078E+03  0.66114829500E+03  0.12500000000E+03 0.  0.
         21    1    1    2  503  502 -0.27397696708E+02 -0.71498484515E+02 -0.83905125265E+02  0.11359021577E+03  0.00000000000E+00 0.  1.
          2    1    1    2  501    0 -0.14908404426E+03 -0.58030154555E+02 -0.10723074428E+04  0.10841756329E+04  0.00000000000E+00 0.  1.
<mgrwt>
<rscale>  4 0.34211845E+03</rscale>
<asrwt>0</asrwt>
<pdfrwt beam="1">  1       21 0.70383851E-02 0.34211845E+03</pdfrwt>
<pdfrwt beam="2">  1        2 0.27894837E+00 0.34211845E+03</pdfrwt>
<totfact> 0.17342828E+04</totfact>
</mgrwt>
</event>
<event>
 5    0  0.7099509E-001  0.5212169E+03  0.7546771E-02  0.1008385E+00
          2   -1    0    0  503    0 -0.00000000000E+00  0.00000000000E+00  0.42028054064E+03  0.42028054064E+03  0.00000000000E+00 0. -1.
         21   -1    0    0  501  502  0.00000000000E+00 -0.00000000000E+00 -0.26317699191E+03  0.26317699191E+03  0.00000000000E+00 0.  1.
         25    1    1    2    0    0 -0.28048724844E+03  0.12541073651E+02  0.17450425887E+03  0.35342200190E+03  0.12500000000E+03 0.  0.
         21    1    1    2  503  502  0.14518809363E+03 -0.60687536299E+01 -0.95301913121E+02  0.17377821195E+03  0.00000000000E+00 0. -1.
          2    1    1    2  501    0  0.13529915481E+03 -0.64723200210E+01  0.77901202980E+02  0.15625731869E+03  0.00000000000E+00 0. -1.
<mgrwt>
<rscale>  4 0.52121690E+03</rscale>
<asrwt>0</asrwt>
<pdfrwt beam="1">  1       21 0.40488768E-01 0.52121690E+03</pdfrwt>
<pdfrwt beam="2">  1        2 0.64658545E-01 0.52121690E+03</pdfrwt>
<totfact> 0.52040501E+03</totfact>
</mgrwt>
</event>
<event>
 5    0  0.7099509E-001  0.4766846E+03  0.7546771E-02  0.1020050E+00
          2   -1    0    0  503    0 -0.00000000000E+00  0.00000000000E+00  0.16913166556E+04  0.16913166556E+04  0.00000000000E+00 0. -1.
         21   -1    0    0  501  502  0.00000000000E+00 -0.00000000000E+00 -0.14389994805E+03  0.14389994805E+03  0.00000000000E+00 0.  1.
         25    1    1    2    0    0 -0.16574943710E+03 -0.19529536933E+03  0.65454861298E+02  0.29244229524E+03  0.12500000000E+03 0.  0.
         21    1    1    2  503  502  0.97042740465E+02  0.12578701213E+03  0.19240091531E+03  0.24951508593E+03  0.00000000000E+00 0.  1.
          2    1    1    2  501    0  0.68706696631E+02  0.69508357194E+02  0.12895609310E+04  0.12932592225E+04  0.00000000000E+00 0. -1.
<mgrwt>
<rscale>  4 0.47668459E+03</rscale>
<asrwt>0</asrwt>
<pdfrwt beam="1">  1       21 0.22138455E-01 0.47668459E+03</pdfrwt>
<pdfrwt beam="2">  1        2 0.26020255E+00 0.47668459E+03</pdfrwt>
<totfact> 0.24073132E+03</totfact>
</mgrwt>
</event>
<event>
 5    0  0.7099509E-001  0.4454047E+03  0.7546771E-02  0.1029101E+00
         21   -1    0    0  501  502  0.00000000000E+00  0.00000000000E+00  0.21325607909E+03  0.21325607909E+03  0.00000000000E+00 0.  1.
         -3   -1    0    0    0  501 -0.00000000000E+00 -0.00000000000E+00 -0.57939976803E+03  0.57939976803E+03  0.00000000000E+00 0. -1.
         25    1    1    2    0    0  0.20177588039E+03 -0.53385795818E+02  0.25719103537E+02  0.24464264017E+03  0.12500000000E+03 0.  0.
         21    1    1    2  503  502 -0.19291269681E+03  0.34382008120E+02 -0.45693833541E+02  0.20120973509E+03  0.00000000000E+00 0.  1.
         -3    1    1    2    0  503 -0.88631835791E+01  0.19003787698E+02 -0.34616895893E+03  0.34680347186E+03  0.00000000000E+00 0. -1.
<mgrwt>
<rscale>  4 0.44540470E+03</rscale>
<asrwt>0</asrwt>
<pdfrwt beam="1">  1       21 0.32808628E-01 0.44540470E+03</pdfrwt>
<pdfrwt beam="2">  1       -3 0.89138426E-01 0.44540470E+03</pdfrwt>
<totfact> 0.50193143E+02</totfact>
</mgrwt>
</event>
<event>
 5    0  0.7099509E-001  0.4361967E+03  0.7546771E-02  0.1031920E+00
         21   -1    0    0  501  502  0.00000000000E+00  0.00000000000E+00  0.44373467006E+03  0.44373467006E+03  0.00000000000E+00 0. -1.
          2   -1    0    0  503    0 -0.00000000000E+00 -0.00000000000E+00 -0.17254439488E+03  0.17254439488E+03  0.00000000000E+00 0. -1.
         25    1    1    2    0    0  0.19977620312E+03 -0.77031175808E+02  0.53731716843E+01  0.24798831495E+03  0.12500000000E+03 0.  0.
         21    1    1    2  503  502 -0.91044624552E+02  0.36451137043E+02  0.22469318933E+03  0.24516288133E+03  0.00000000000E+00 0.  1.
          2    1    1    2  501    0 -0.10873157856E+03  0.40580038766E+02  0.41123914170E+02  0.12312786866E+03  0.00000000000E+00 0. -1.
<mgrwt>
<rscale>  4 0.43619671E+03</rscale>
<asrwt>0</asrwt>
<pdfrwt beam="1">  1       21 0.68266872E-01 0.43619671E+03</pdfrwt>
<pdfrwt beam="2">  1        2 0.26545292E-01 0.43619671E+03</pdfrwt>
<totfact> 0.45961995E+03</totfact>
</mgrwt>
</event>
<event>
 5    0  0.7099509E-001  0.4978285E+03  0.7546771E-02  0.1014347E+00
          2   -1    0    0  503    0 -0.00000000000E+00  0.00000000000E+00  0.29546883255E+04  0.29546883255E+04  0.00000000000E+00 0. -1.
         21   -1    0    0  501  502  0.00000000000E+00 -0.00000000000E+00 -0.90376138741E+02  0.90376138741E+02  0.00000000000E+00 0.  1.
         25    1    1    2    0    0 -0.80590287864E+02  0.20465175573E+03  0.56104825742E+03  0.61544884660E+03  0.12500000000E+03 0.  0.
         21    1    1    2  503  502  0.12372167859E+03 -0.10596891616E+03  0.45295535542E+02  0.16908030780E+03  0.00000000000E+00 0.  1.
          2    1    1    2  501    0 -0.43131390724E+02 -0.98682839577E+02  0.22579683938E+04  0.22605353098E+04  0.00000000000E+00 0. -1.
<mgrwt>
<rscale>  4 0.49782848E+03</rscale>
<asrwt>0</asrwt>
<pdfrwt beam="1">  1       21 0.13904024E-01 0.49782848E+03</pdfrwt>
<pdfrwt beam="2">  1        2 0.45456736E+00 0.49782848E+03</pdfrwt>
<totfact> 0.11427078E+03</totfact>
</mgrwt>
</event>
<event>
 5    0  0.7099509E-001  0.4854194E+03  0.7546771E-02  0.1017656E+00
          2   -1    0    0  503    0 -0.00000000000E+00  0.00000000000E+00  0.33225475446E+04  0.33225475446E+04  0.00000000000E+00 0.  1.
         21   -1    0    0  501  502  0.00000000000E+00 -0.00000000000E+00 -0.34270119404E+02  0.34270119404E+02  0.00000000000E+00 0. -1.
         25    1    1    2    0    0  0.19753116321E+03 -0.68553440102E+02  0.62377038286E+03  0.66965112194E+03  0.12500000000E+03 0.  0.
         21    1    1    2  503  502 -0.21501994665E+03  0.45782778411E+02  0.10675174085E+04  0.10899188308E+04  0.00000000000E+00 0. -1.
          2    1    1    2  501    0  0.17488783443E+02  0.22770661692E+02  0.15969896338E+04  0.15972477112E+04  0.00000000000E+00 0.  1.
<mgrwt>
<rscale>  4 0.48541943E+03</rscale>
<asrwt>0</asrwt>
<pdfrwt beam="1">  1       21 0.52723287E-02 0.48541943E+03</pdfrwt>
<pdfrwt beam="2">  1        2 0.51116091E+00 0.48541943E+03</pdfrwt>
<totfact> 0.38264267E+03</totfact>
</mgrwt>
</event>
<event>
 5    0  0.7099509E-001  0.5272050E+03  0.7546771E-02  0.1006912E+00
          2   -1    0    0  503    0 -0.00000000000E+00  0.00000000000E+00  0.32489854640E+03  0.32489854640E+03  0.00000000000E+00 0.  1.
         21   -1    0    0  501  502  0.00000000000E+00 -0.00000000000E+00 -0.62128808309E+03  0.62128808309E+03  0.00000000000E+00 0.  1.
         25    1    1    2    0    0 -0.24475805800E+03 -0.42576025231E+02 -0.26442141641E+03  0.38374849881E+03  0.12500000000E+03 0.  0.
         21    1    1    2  503  502  0.23978071805E+03  0.67377323549E+02 -0.24413766754E+03  0.34876596334E+03  0.00000000000E+00 0.  1.
          2    1    1    2  501    0  0.49773399553E+01 -0.24801298318E+02  0.21216954726E+03  0.21367216734E+03  0.00000000000E+00 0.  1.
<mgrwt>
<rscale>  4 0.52720498E+03</rscale>
<asrwt>0</asrwt>
<pdfrwt beam="1">  1       21 0.95582781E-01 0.52720498E+03</pdfrwt>
<pdfrwt beam="2">  1        2 0.49984393E-01 0.52720498E+03</pdfrwt>
<totfact> 0.10266306E+03</totfact>
</mgrwt>
</event>
<event>
 5    0  0.7099509E-001  0.6505285E+03  0.7546771E-02  0.9805788E-01
          2   -1    0    0  503    0 -0.00000000000E+00  0.00000000000E+00  0.27328985258E+03  0.27328985258E+03  0.00000000000E+00 0.  1.
         21   -1    0    0  501  502  0.00000000000E+00 -0.00000000000E+00 -0.51949199854E+03  0.51949199854E+03  0.00000000000E+00 0. -1.
         25    1    1    2    0    0 -0.25913329839E+03  0.19880335577E+02 -0.39488294397E+03  0.48898142451E+03  0.12500000000E+03 0.  0.
         21    1    1    2  503  502  0.20620390324E+03 -0.22078029870E+02  0.94081737873E+02  0.22772541034E+03  0.00000000000E+00 0.  1.
          2    1    1    2  501    0  0.52929395155E+02  0.21976942934E+01  0.54599060144E+02  0.76075016269E+02  0.00000000000E+00 0.  1.
<mgrwt>
<rscale>  4 0.65052849E+03</rscale>
<asrwt>0</asrwt>
<pdfrwt beam="1">  1       21 0.79921846E-01 0.65052849E+03</pdfrwt>
<pdfrwt beam="2">  1        2 0.42044593E-01 0.65052849E+03</pdfrwt>
<totfact> 0.18631532E+03</totfact>
</mgrwt>
</event>
<event>
 5    0  0.7099509E-001  0.7917643E+03  0.7546771E-02  0.9572015E-01
         21   -1    0    0  501  502  0.00000000000E+00  0.00000000000E+00  0.69223141361E+03  0.69223141361E+03  0.00000000000E+00 0. -1.
          2   -1    0    0  503    0 -0.00000000000E+00 -0.00000000000E+00 -0.27085211304E+03  0.27085211304E+03  0.00000000000E+00 0. -1.
         25    1    1    2    0    0  0.29395239713E+03  0.21335742997E+03  0.64254429532E+02  0.38946506444E+03  0.12500000000E+03 0.  0.
         21    1    1    2  503  502 -0.24863321222E+03 -0.25995137934E+03  0.35952187113E+03  0.50857562826E+03  0.00000000000E+00 0.  1.
          2    1    1    2  501    0 -0.45319184911E+02  0.46593949372E+02 -0.23970000885E+01  0.65042833951E+02  0.00000000000E+00 0. -1.
<mgrwt>
<rscale>  4 0.79176432E+03</rscale>
<asrwt>0</asrwt>
<pdfrwt beam="1">  1       21 0.10649714E+00 0.79176432E+03</pdfrwt>
<pdfrwt beam="2">  1        2 0.41669556E-01 0.79176432E+03</pdfrwt>
<totfact> 0.92459950E+02</totfact>
</mgrwt>
</event>
<event>
 5    0  0.7099509E-001  0.6899648E+03  0.7546771E-02  0.9734549E-01
         21   -1    0    0  501  502  0.00000000000E+00  0.00000000000E+00  0.19468067031E+03  0.19468067031E+03  0.00000000000E+00 0. -1.
          1   -1    0    0  503    0 -0.00000000000E+00 -0.00000000000E+00 -0.22415437780E+04  0.22415437780E+04  0.00000000000E+00 0.  1.
         25    1    1    2    0    0  0.74656200481E+02  0.22808234605E+03  0.75958811553E+02  0.28105132254E+03  0.12500000000E+03 0.  0.
         21    1    1    2  503  502  0.88153079574E+02 -0.11688776857E+03 -0.51818651304E+03  0.53847096317E+03  0.00000000000E+00 0.  1.
          1    1    1    2  501    0 -0.16280928006E+03 -0.11119457748E+03 -0.16046354062E+04  0.16167021626E+04  0.00000000000E+00 0.  1.
<mgrwt>
<rscale>  4 0.68996481E+03</rscale>
<asrwt>0</asrwt>
<pdfrwt beam="1">  1       21 0.29950870E-01 0.68996481E+03</pdfrwt>
<pdfrwt beam="2">  1        1 0.34485292E+00 0.68996481E+03</pdfrwt>
<totfact> 0.23604442E+02</totfact>
</mgrwt>
</event>
<event>
 5    0  0.7099509E-001  0.4722665E+03  0.7546771E-02  0.1021282E+00
          1   -1    0    0  503    0 -0.00000000000E+00  0.00000000000E+00  0.12614725058E+04  0.12614725058E+04  0.00000000000E+00 0.  1.
         21   -1    0    0  501  502  0.00000000000E+00 -0.00000000000E+00 -0.14886960583E+03  0.14886960583E+03  0.00000000000E+00 0.  1.
         25    1    1    2    0    0  0.10070373353E+03 -0.17468647419E+03  0.17810823551E+03  0.29665493383E+03  0.12500000000E+03 0.  0.
         21    1    1    2  503  502 -0.12275496522E+03  0.18479261796E+03  0.48154692810E+02  0.22701534657E+03  0.00000000000E+00 0.  1.
          1    1    1    2  501    0  0.22051231694E+02 -0.10106143772E+02  0.88633997160E+03  0.88667183119E+03  0.00000000000E+00 0.  1.
<mgrwt>
<rscale>  4 0.47226650E+03</rscale>
<asrwt>0</asrwt>
<pdfrwt beam="1">  1       21 0.22903017E-01 0.47226650E+03</pdfrwt>
<pdfrwt beam="2">  1        1 0.19407269E+00 0.47226650E+03</pdfrwt>
<totfact> 0.19166392E+03</totfact>
</mgrwt>
</event>
<event>
 5    0  0.7099509E-001  0.4303703E+03  0.7546771E-02  0.1033743E+00
          2   -1    0    0  503    0 -0.00000000000E+00  0.00000000000E+00  0.32955915676E+03  0.32955915676E+03  0.00000000000E+00 0. -1.
         21   -1    0    0  501  502  0.00000000000E+00 -0.00000000000E+00 -0.59756233537E+03  0.59756233537E+03  0.00000000000E+00 0.  1.
         25    1    1    2    0    0 -0.12612087736E+02 -0.20540158919E+03 -0.22953389864E+03  0.33265550983E+03  0.12500000000E+03 0.  0.
         21    1    1    2  503  502  0.14431078114E+02  0.18069446203E+03 -0.28985126013E+03  0.34186619843E+03  0.00000000000E+00 0.  1.
          2    1    1    2  501    0 -0.18189903779E+01  0.24707127154E+02  0.25138198016E+03  0.25259978386E+03  0.00000000000E+00 0. -1.
<mgrwt>
<rscale>  4 0.43037030E+03</rscale>
<asrwt>0</asrwt>
<pdfrwt beam="1">  1       21 0.91932667E-01 0.43037030E+03</pdfrwt>
<pdfrwt beam="2">  1        2 0.50701409E-01 0.43037030E+03</pdfrwt>
<totfact> 0.11318582E+03</totfact>
</mgrwt>
</event>
<event>
 5    0  0.7099509E-001  0.5994652E+03  0.7546771E-02  0.9906516E-01
         -4   -1    0    0    0  501 -0.00000000000E+00  0.00000000000E+00  0.17694617437E+03  0.17694617437E+03  0.00000000000E+00 0.  1.
         21   -1    0    0  501  502  0.00000000000E+00 -0.00000000000E+00 -0.77057121973E+03  0.77057121973E+03  0.00000000000E+00 0.  1.
         25    1    1    2    0    0  0.16094014715E+03  0.16915621053E+03 -0.24460595228E+02  0.26596780866E+03  0.12500000000E+03 0.  0.
         21    1    1    2  503  502 -0.23052964817E+03 -0.55387058160E+02 -0.41274558456E+03  0.47599428827E+03  0.00000000000E+00 0.  1.
         -4    1    1    2    0  503  0.69589501019E+02 -0.11376915237E+03 -0.15641886557E+03  0.20555529716E+03  0.00000000000E+00 0.  1.
<mgrwt>
<rscale>  4 0.59946519E+03</rscale>
<asrwt>0</asrwt>
<pdfrwt beam="1">  1       21 0.11854942E+00 0.59946519E+03</pdfrwt>
<pdfrwt beam="2">  1       -4 0.27222488E-01 0.59946519E+03</pdfrwt>
<totfact> 0.27621907E+02</totfact>
</mgrwt>
</event>
<event>
 5    0  0.7099509E-001  0.4905854E+03  0.7546771E-02  0.1016266E+00
          2   -1    0    0  503    0 -0.00000000000E+00  0.00000000000E+00  0.12415572334E+04  0.12415572334E+04  0.00000000000E+00 0. -1.
         21   -1    0    0  501  502  0.00000000000E+00 -0.00000000000E+00 -0.98987841578E+02  0.98987841578E+02  0.00000000000E+00 0.  1.
         25    1    1    2    0    0 -0.13412600532E+03 -0.20711377309E+03  0.18212261992E+03  0.33117902861E+03  0.12500000000E+03 0.  0.
         21    1    1    2  503  502  0.81651927724E+02  0.16141627078E+03  0.34087337565E+03  0.38589753562E+03  0.00000000000E+00 0. -1.
          2    1    1    2  501    0  0.52474077596E+02  0.45697502310E+02  0.61957339626E+03  0.62346851075E+03  0.00000000000E+00 0. -1.
<mgrwt>
<rscale>  4 0.49058535E+03</rscale>
<asrwt>0</asrwt>
<pdfrwt beam="1">  1       21 0.15228900E-01 0.49058535E+03</pdfrwt>
<pdfrwt beam="2">  1        2 0.19100879E+00 0.49058535E+03</pdfrwt>
<totfact> 0.86389184E+03</totfact>
</mgrwt>
</event>
<event>
 5    0  0.7099509E-001  0.5747779E+03  0.7546771E-02  0.9959161E-01
         21   -1    0    0  501  502  0.00000000000E+00  0.00000000000E+00  0.12211303763E+03  0.12211303763E+03  0.00000000000E+00 0. -1.
          2   -1    0    0  503    0 -0.00000000000E+00 -0.00000000000E+00 -0.80799303459E+03  0.80799303459E+03  0.00000000000E+00 0. -1.
         25    1    1    2    0    0  0.25737348765E+02  0.21146967960E+03 -0.53238574590E+03  0.58689131783E+03  0.12500000000E+03 0.  0.
         21    1    1    2  503  502 -0.68841400277E+02 -0.21605388689E+03 -0.51699831912E+02  0.23257534919E+03  0.00000000000E+00 0. -1.
          2    1    1    2  501    0  0.43104051511E+02  0.45842072826E+01 -0.10179441915E+03  0.11063940520E+03  0.00000000000E+00 0. -1.
<mgrwt>
<rscale>  4 0.57477792E+03</rscale>
<asrwt>0</asrwt>
<pdfrwt beam="1">  1       21 0.18786622E-01 0.57477792E+03</pdfrwt>
<pdfrwt beam="2">  1        2 0.12430662E+00 0.57477792E+03</pdfrwt>
<totfact> 0.10802568E+04</totfact>
</mgrwt>
</event>
<event>
 5    0  0.7099509E-001  0.4849544E+03  0.7546771E-02  0.1017782E+00
          1   -1    0    0  503    0 -0.00000000000E+00  0.00000000000E+00  0.14093768770E+04  0.14093768770E+04  0.00000000000E+00 0. -1.
         21   -1    0    0  501  502  0.00000000000E+00 -0.00000000000E+00 -0.23429368703E+03  0.23429368703E+03  0.00000000000E+00 0. -1.
         25    1    1    2    0    0 -0.17909006076E+03 -0.13991158929E+03  0.84268248757E+02  0.27271714363E+03  0.12500000000E+03 0.  0.
         21    1    1    2  503  502  0.15519751523E+03  0.12866477173E+03 -0.67303547774E+02  0.21253390262E+03  0.00000000000E+00 0. -1.
          1    1    1    2  501    0  0.23892545529E+02  0.11246817564E+02  0.11581184890E+04  0.11584195178E+04  0.00000000000E+00 0. -1.
<mgrwt>
<rscale>  4 0.48495441E+03</rscale>
<asrwt>0</asrwt>
<pdfrwt beam="1">  1       21 0.36045183E-01 0.48495441E+03</pdfrwt>
<pdfrwt beam="2">  1        1 0.21682721E+00 0.48495441E+03</pdfrwt>
<totfact> 0.61471205E+02</totfact>
</mgrwt>
</event>
<event>
 5    0  0.7099509E-001  0.6101692E+03  0.7546771E-02  0.9884530E-01
         -1   -1    0    0    0  501 -0.00000000000E+00  0.00000000000E+00  0.84172422568E+03  0.84172422568E+03  0.00000000000E+00 0.  1.
         21   -1    0    0  501  502  0.00000000000E+00 -0.00000000000E+00 -0.10695343207E+04  0.10695343207E+04  0.00000000000E+00 0.  1.
         25    1    1    2    0    0 -0.27764196759E+03 -0.38155341166E+02 -0.17386008493E+03  0.35269423210E+03  0.12500000000E+03 0.  0.
         21    1    1    2  503  502 -0.29848835774E+02 -0.60174446910E+01 -0.77387636446E+03  0.77447517075E+03  0.00000000000E+00 0. -1.
         -1    1    1    2    0  503  0.30749080336E+03  0.44172785857E+02  0.71992635441E+03  0.78408914349E+03  0.00000000000E+00 0.  1.
<mgrwt>
<rscale>  4 0.61016923E+03</rscale>
<asrwt>0</asrwt>
<pdfrwt beam="1">  1       21 0.16454374E+00 0.61016923E+03</pdfrwt>
<pdfrwt beam="2">  1       -1 0.12949604E+00 0.61016923E+03</pdfrwt>
<totfact> 0.96332332E+00</totfact>
</mgrwt>
</event>
<event>
 5    0  0.7099509E-001  0.4347848E+03  0.7546771E-02  0.1032359E+00
         21   -1    0    0  501  502  0.00000000000E+00  0.00000000000E+00  0.88526164346E+02  0.88526164346E+02  0.00000000000E+00 0.  1.
          1   -1    0    0  503    0 -0.00000000000E+00 -0.00000000000E+00 -0.99242796091E+03  0.99242796091E+03  0.00000000000E+00 0.  1.
         25    1    1    2    0    0 -0.87128193542E+02  0.24936887129E+03 -0.33041693612E+03  0.44110827215E+03  0.12500000000E+03 0.  0.
         21    1    1    2  503  502  0.19149076681E+02 -0.10707947532E+03 -0.34862720083E+03  0.36520354096E+03  0.00000000000E+00 0. -1.
          1    1    1    2  501    0  0.67979116861E+02 -0.14228939598E+03 -0.22485765961E+03  0.27464231215E+03  0.00000000000E+00 0.  1.
<mgrwt>
<rscale>  4 0.43478477E+03</rscale>
<asrwt>0</asrwt>
<pdfrwt beam="1">  1       21 0.13619409E-01 0.43478477E+03</pdfrwt>
<pdfrwt beam="2">  1        1 0.15268123E+00 0.43478477E+03</pdfrwt>
<totfact> 0.80728791E+03</totfact>
</mgrwt>
</event>
<event>
 5    0  0.7099509E-001  0.4034336E+03  0.7546771E-02  0.1042597E+00
         -1   -1    0    0    0  501 -0.00000000000E+00  0.00000000000E+00  0.19798180339E+03  0.19798180339E+03  0.00000000000E+00 0. -1.
         21   -1    0    0  501  502  0.00000000000E+00 -0.00000000000E+00 -0.57951895885E+03  0.57951895885E+03  0.00000000000E+00 0. -1.
         25    1    1    2    0    0  0.20931097834E+03  0.63317101435E+02 -0.10355129253E+03  0.27233804577E+03  0.12500000000E+03 0.  0.
         21    1    1    2  503  502 -0.37318084341E+02  0.14579152714E+03 -0.87041621966E+02  0.17385066223E+03  0.00000000000E+00 0.  1.
         -1    1    1    2    0  503 -0.17199289400E+03 -0.20910862857E+03 -0.19094424096E+03  0.33131205424E+03  0.00000000000E+00 0. -1.
<mgrwt>
<rscale>  4 0.40343364E+03</rscale>
<asrwt>0</asrwt>
<pdfrwt beam="1">  1       21 0.89156762E-01 0.40343364E+03</pdfrwt>
<pdfrwt beam="2">  1       -1 0.30458739E-01 0.40343364E+03</pdfrwt>
<totfact> 0.91632341E+02</totfact>
</mgrwt>
</event>
<event>
 5    0  0.7099509E-001  0.4776518E+03  0.7546771E-02  0.1019783E+00
         21   -1    0    0  501  502  0.00000000000E+00  0.00000000000E+00  0.64582755178E+02  0.64582755178E+02  0.00000000000E+00 0.  1.
          1   -1    0    0  503    0 -0.00000000000E+00 -0.00000000000E+00 -0.15851890689E+04  0.15851890689E+04  0.00000000000E+00 0.  1.
         25    1    1    2    0    0  0.22069672004E+03  0.27916160154E+02 -0.67543080684E+03  0.72202363469E+03  0.12500000000E+03 0.  0.
         21    1    1    2  503  502 -0.17688691272E+03 -0.16821493706E+02 -0.15410822957E+03  0.23520478091E+03  0.00000000000E+00 0.  1.
          1    1    1    2  501    0 -0.43809807319E+02 -0.11094666447E+02 -0.69106727732E+03  0.69254340847E+03  0.00000000000E+00 0.  1.
<mgrwt>
<rscale>  4 0.47765178E+03</rscale>
<asrwt>0</asrwt>
<pdfrwt beam="1">  1       21 0.99358071E-02 0.47765178E+03</pdfrwt>
<pdfrwt beam="2">  1        1 0.24387528E+00 0.47765178E+03</pdfrwt>
<totfact> 0.54375259E+03</totfact>
</mgrwt>
</event>
<event>
 5    0  0.7099509E-001  0.4263643E+03  0.7546771E-02  0.1035015E+00
          1   -1    0    0  503    0 -0.00000000000E+00  0.00000000000E+00  0.61586914910E+03  0.61586914910E+03  0.00000000000E+00 0. -1.
         21   -1    0    0  501  502  0.00000000000E+00 -0.00000000000E+00 -0.28966137314E+03  0.28966137314E+03  0.00000000000E+00 0. -1.
         25    1    1    2    0    0  0.17768951157E+03 -0.12028327292E+03 -0.10134711012E+03  0.26821235057E+03  0.12500000000E+03 0.  0.
         21    1    1    2  503  502 -0.16904378518E+03  0.44952208353E+02 -0.26553671105E+02  0.17692258135E+03  0.00000000000E+00 0. -1.
          1    1    1    2  501    0 -0.86457263935E+01  0.75331064569E+02  0.45410855718E+03  0.46039559031E+03  0.00000000000E+00 0. -1.
<mgrwt>
<rscale>  4 0.42636428E+03</rscale>
<asrwt>0</asrwt>
<pdfrwt beam="1">  1       21 0.44563288E-01 0.42636428E+03</pdfrwt>
<pdfrwt beam="2">  1        1 0.94749099E-01 0.42636428E+03</pdfrwt>
<totfact> 0.16922768E+03</totfact>
</mgrwt>
</event>
