<event>
 5    0  0.1856407E+000  0.2987458E+03  0.7546771E-02  0.1085869E+00
         21   -1    0    0  502  501  0.00000000000E+00  0.00000000000E+00  0.96370875276E+03  0.96370875276E+03  0.00000000000E+00 0. -1.
         21   -1    0    0  503  502 -0.00000000000E+00 -0.00000000000E+00 -0.23592158644E+03  0.23592158644E+03  0.00000000000E+00 0. -1.
         25    1    1    2    0    0 -0.26405970115E+03  0.61613406006E+02  0.62379726713E+03  0.69157195436E+03  0.12500000000E+03 0.  0.
         21    1    1    2  503  504  0.25762141480E+03 -0.89164901242E+02  0.24360880924E+03  0.36560145639E+03  0.00000000000E+00 0. -1.
         21    1    1    2  504  501  0.64382863512E+01  0.27551495235E+02 -0.13961891006E+03  0.14245692846E+03  0.00000000000E+00 0. -1.
<mgrwt>
<rscale>  4 0.29874576E+03</rscale>
<asrwt>0</asrwt>
<pdfrwt beam="1">  1       21 0.14826288E+00 0.29874576E+03</pdfrwt>
<pdfrwt beam="2">  1       21 0.36295629E-01 0.29874576E+03</pdfrwt>
<totfact> 0.20796916E+03</totfact>
</mgrwt>
</event>
<event>
 5    0  0.1856407E+000  0.2513652E+03  0.7546771E-02  0.1112445E+00
         21   -1    0    0  502  501  0.00000000000E+00  0.00000000000E+00  0.25387345169E+04  0.25387345169E+04  0.00000000000E+00 0.  1.
         21   -1    0    0  503  502 -0.00000000000E+00 -0.00000000000E+00 -0.77825721668E+02  0.77825721668E+02  0.00000000000E+00 0.  1.
         25    1    1    2    0    0 -0.16482045554E+03  0.14222413402E+03  0.23192882385E+04  0.23328344176E+04  0.12500000000E+03 0.  0.
         21    1    1    2  503  504  0.18254414633E+03 -0.12757077203E+03  0.13121859306E+03  0.25848595010E+03  0.00000000000E+00 0.  1.
         21    1    1    2  504  501 -0.17723690791E+02 -0.14653361990E+02  0.10401963726E+02  0.25239870884E+02  0.00000000000E+00 0.  1.
<mgrwt>
<rscale>  4 0.25136517E+03</rscale>
<asrwt>0</asrwt>
<pdfrwt beam="1">  1       21 0.39057448E+00 0.25136517E+03</pdfrwt>
<pdfrwt beam="2">  1       21 0.11973190E-01 0.25136517E+03</pdfrwt>
<totfact> 0.54082881E+02</totfact>
</mgrwt>
</event>
<event>
 5    0  0.1856407E+000  0.2519168E+03  0.7546771E-02  0.1112099E+00
         21   -1    0    0  502  501  0.00000000000E+00  0.00000000000E+00  0.82393060989E+03  0.82393060989E+03  0.00000000000E+00 0.  1.
         21   -1    0    0  503  502 -0.00000000000E+00 -0.00000000000E+00 -0.17708203778E+03  0.17708203778E+03  0.00000000000E+00 0.  1.
         25    1    1    2    0    0 -0.20319225646E+03  0.80931954320E+02  0.72187444575E+03  0.76456836826E+03  0.12500000000E+03 0.  0.
         21    1    1    2  503  504  0.77246760172E+02 -0.10979391942E+02 -0.11018577465E+02  0.78797322631E+02  0.00000000000E+00 0. -1.
         21    1    1    2  504  501  0.12594549629E+03 -0.69952562378E+02 -0.64007296170E+02  0.15764695678E+03  0.00000000000E+00 0.  1.
<mgrwt>
<rscale>  4 0.25191680E+03</rscale>
<asrwt>0</asrwt>
<pdfrwt beam="1">  1       21 0.12675855E+00 0.25191680E+03</pdfrwt>
<pdfrwt beam="2">  1       21 0.27243391E-01 0.25191680E+03</pdfrwt>
<totfact> 0.56708551E+03</totfact>
</mgrwt>
</event>
<event>
 5    0  0.1856407E+000  0.2479619E+03  0.7546771E-02  0.1114600E+00
         21   -1    0    0  502  501  0.00000000000E+00  0.00000000000E+00  0.34933934973E+03  0.34933934973E+03  0.00000000000E+00 0. -1.
         21   -1    0    0  503  502 -0.00000000000E+00 -0.00000000000E+00 -0.48020688882E+03  0.48020688882E+03  0.00000000000E+00 0.  1.
         25    1    1    2    0    0  0.15701495364E+02  0.20160584100E+03  0.26028939149E+03  0.35251527542E+03  0.12500000000E+03 0.  0.
         21    1    1    2  503  504 -0.29896381320E+02  0.13335493627E+02 -0.27008230930E+01  0.32846970206E+02  0.00000000000E+00 0.  1.
         21    1    1    2  504  501  0.14194885956E+02 -0.21494133463E+03 -0.38845610749E+03  0.44418399292E+03  0.00000000000E+00 0.  1.
<mgrwt>
<rscale>  4 0.24796189E+03</rscale>
<asrwt>0</asrwt>
<pdfrwt beam="1">  1       21 0.53744515E-01 0.24796189E+03</pdfrwt>
<pdfrwt beam="2">  1       21 0.73877983E-01 0.24796189E+03</pdfrwt>
<totfact> 0.51799313E+03</totfact>
</mgrwt>
</event>
<event>
 5    0  0.1856407E+000  0.2468404E+03  0.7546771E-02  0.1115318E+00
         21   -1    0    0  502  501  0.00000000000E+00  0.00000000000E+00  0.33601134312E+03  0.33601134312E+03  0.00000000000E+00 0. -1.
         21   -1    0    0  503  502 -0.00000000000E+00 -0.00000000000E+00 -0.16535131761E+03  0.16535131761E+03  0.00000000000E+00 0. -1.
         25    1    1    2    0    0 -0.21043479430E+03  0.31974904708E+02  0.63213740937E+02  0.25480615029E+03  0.12500000000E+03 0.  0.
         21    1    1    2  503  504  0.10793340183E+03 -0.47795272508E+02  0.61795030108E+02  0.13323900724E+03  0.00000000000E+00 0. -1.
         21    1    1    2  504  501  0.10250139247E+03  0.15820367800E+02  0.45651254469E+02  0.11331750319E+03  0.00000000000E+00 0. -1.
<mgrwt>
<rscale>  4 0.24684043E+03</rscale>
<asrwt>0</asrwt>
<pdfrwt beam="1">  1       21 0.51694053E-01 0.24684043E+03</pdfrwt>
<pdfrwt beam="2">  1       21 0.25438664E-01 0.24684043E+03</pdfrwt>
<totfact> 0.50827805E+04</totfact>
</mgrwt>
</event>
<event>
 5    0  0.1856407E+000  0.3198488E+03  0.7546771E-02  0.1075719E+00
         21   -1    0    0  502  501  0.00000000000E+00  0.00000000000E+00  0.42852062601E+03  0.42852062601E+03  0.00000000000E+00 0. -1.
         21   -1    0    0  503  502 -0.00000000000E+00 -0.00000000000E+00 -0.81493370729E+03  0.81493370729E+03  0.00000000000E+00 0. -1.
         25    1    1    2    0    0  0.18704169338E+03  0.22736236445E+03  0.33395427598E+03  0.46241615270E+03  0.12500000000E+03 0.  0.
         21    1    1    2  503  504 -0.52520131830E+02 -0.66954897371E+02 -0.13735614011E+03  0.16157979996E+03  0.00000000000E+00 0. -1.
         21    1    1    2  504  501 -0.13452156155E+03 -0.16040746708E+03 -0.58301121716E+03  0.61945838064E+03  0.00000000000E+00 0. -1.
<mgrwt>
<rscale>  4 0.31984878E+03</rscale>
<asrwt>0</asrwt>
<pdfrwt beam="1">  1       21 0.65926251E-01 0.31984878E+03</pdfrwt>
<pdfrwt beam="2">  1       21 0.12537442E+00 0.31984878E+03</pdfrwt>
<totfact> 0.90388589E+02</totfact>
</mgrwt>
</event>
<event>
 5    0  0.1856407E+000  0.2534845E+03  0.7546771E-02  0.1111122E+00
         21   -1    0    0  502  501  0.00000000000E+00  0.00000000000E+00  0.23379323221E+03  0.23379323221E+03  0.00000000000E+00 0.  1.
         21   -1    0    0  503  502 -0.00000000000E+00 -0.00000000000E+00 -0.26423778361E+03  0.26423778361E+03  0.00000000000E+00 0.  1.
         25    1    1    2    0    0  0.65990382761E+02  0.21041547636E+03  0.54581786084E+02  0.25929437842E+03  0.12500000000E+03 0.  0.
         21    1    1    2  503  504  0.19344639353E+01 -0.23199178846E+02 -0.35126208115E+01  0.23543206128E+02  0.00000000000E+00 0.  1.
         21    1    1    2  504  501 -0.67924846697E+02 -0.18721629751E+03 -0.81513716669E+02  0.21519343126E+03  0.00000000000E+00 0.  1.
<mgrwt>
<rscale>  4 0.25348452E+03</rscale>
<asrwt>0</asrwt>
<pdfrwt beam="1">  1       21 0.35968189E-01 0.25348452E+03</pdfrwt>
<pdfrwt beam="2">  1       21 0.40651967E-01 0.25348452E+03</pdfrwt>
<totfact> 0.42258100E+04</totfact>
</mgrwt>
</event>
