<event>
 5    0  0.2159162E+000  0.3215337E+03  0.7546771E-02  0.1074946E+00
         21   -1    0    0  502  501  0.00000000000E+00  0.00000000000E+00  0.31556099071E+03  0.31556099071E+03  0.00000000000E+00 0.  1.
         21   -1    0    0  503  502 -0.00000000000E+00 -0.00000000000E+00 -0.31215725778E+03  0.31215725778E+03  0.00000000000E+00 0.  1.
         25    1    1    2    0    0  0.27553694787E+03  0.10880403696E+03 -0.17993060939E+02  0.32203676551E+03  0.12500000000E+03 0.  0.
         21    1    1    2  503  504 -0.17078859212E+03 -0.34607045530E+02 -0.62581856477E+01  0.17437188904E+03  0.00000000000E+00 0.  1.
         21    1    1    2  504  501 -0.10474835575E+03 -0.74196991431E+02  0.27654979510E+02  0.13130959394E+03  0.00000000000E+00 0.  1.
<mgrwt>
<rscale>  4 0.32153371E+03</rscale>
<asrwt>0</asrwt>
<pdfrwt beam="1">  1       21 0.48547845E-01 0.32153371E+03</pdfrwt>
<pdfrwt beam="2">  1       21 0.48024194E-01 0.32153371E+03</pdfrwt>
<totfact> 0.15747188E+04</totfact>
</mgrwt>
</event>
<event>
 5    0  0.2159162E+000  0.3432588E+03  0.7546771E-02  0.1065416E+00
         21   -1    0    0  502  501  0.00000000000E+00  0.00000000000E+00  0.76064802306E+03  0.76064802306E+03  0.00000000000E+00 0.  1.
         21   -1    0    0  503  502 -0.00000000000E+00 -0.00000000000E+00 -0.46100823943E+03  0.46100823943E+03  0.00000000000E+00 0.  1.
         25    1    1    2    0    0 -0.13711527162E+01 -0.38101576710E+03  0.56486729712E+03  0.69273007600E+03  0.12500000000E+03 0.  0.
         21    1    1    2  503  504 -0.25234876936E+02  0.31243827899E+03 -0.31159045518E+03  0.44197634434E+03  0.00000000000E+00 0.  1.
         21    1    1    2  504  501  0.26606029652E+02  0.68577488108E+02  0.46362941679E+02  0.86949842151E+02  0.00000000000E+00 0. -1.
<mgrwt>
<rscale>  4 0.34325880E+03</rscale>
<asrwt>0</asrwt>
<pdfrwt beam="1">  1       21 0.11702277E+00 0.34325880E+03</pdfrwt>
<pdfrwt beam="2">  1       21 0.70924345E-01 0.34325880E+03</pdfrwt>
<totfact> 0.90161266E+02</totfact>
</mgrwt>
</event>
<event>
 5    0  0.2159162E+000  0.3663083E+03  0.7546771E-02  0.1056114E+00
         21   -1    0    0  502  501  0.00000000000E+00  0.00000000000E+00  0.43201870134E+03  0.43201870134E+03  0.00000000000E+00 0.  1.
         21   -1    0    0  503  502 -0.00000000000E+00 -0.00000000000E+00 -0.42427855874E+03  0.42427855874E+03  0.00000000000E+00 0. -1.
         25    1    1    2    0    0 -0.13355921948E+03 -0.31736206835E+03  0.23523280899E+03  0.43533460919E+03  0.12500000000E+03 0.  0.
         21    1    1    2  503  504  0.50093623325E+02  0.98389893983E+02 -0.29765697063E+02  0.11435007240E+03  0.00000000000E+00 0. -1.
         21    1    1    2  504  501  0.83465596153E+02  0.21897217436E+03 -0.19772696933E+03  0.30661257849E+03  0.00000000000E+00 0. -1.
<mgrwt>
<rscale>  4 0.36630827E+03</rscale>
<asrwt>0</asrwt>
<pdfrwt beam="1">  1       21 0.66464416E-01 0.36630827E+03</pdfrwt>
<pdfrwt beam="2">  1       21 0.65273624E-01 0.36630827E+03</pdfrwt>
<totfact> 0.40530979E+03</totfact>
</mgrwt>
</event>
<event>
 5    0  0.2159162E+000  0.2821224E+03  0.7546771E-02  0.1094535E+00
         21   -1    0    0  502  501  0.00000000000E+00  0.00000000000E+00  0.10853715024E+04  0.10853715024E+04  0.00000000000E+00 0. -1.
         21   -1    0    0  503  502 -0.00000000000E+00 -0.00000000000E+00 -0.11973033718E+03  0.11973033718E+03  0.00000000000E+00 0.  1.
         25    1    1    2    0    0 -0.72310171834E+02 -0.24236191438E+03  0.87857562363E+03  0.92276117438E+03  0.12500000000E+03 0.  0.
         21    1    1    2  503  504  0.61140970738E+02  0.15682458145E+03  0.13313579035E+02  0.16884732463E+03  0.00000000000E+00 0.  1.
         21    1    1    2  504  501  0.11169201096E+02  0.85537332937E+02  0.73751962588E+02  0.11349334062E+03  0.00000000000E+00 0.  1.
<mgrwt>
<rscale>  4 0.28212242E+03</rscale>
<asrwt>0</asrwt>
<pdfrwt beam="1">  1       21 0.16698022E+00 0.28212242E+03</pdfrwt>
<pdfrwt beam="2">  1       21 0.18420053E-01 0.28212242E+03</pdfrwt>
<totfact> 0.56552979E+03</totfact>
</mgrwt>
</event>
<event>
 5    0  0.2159162E+000  0.5627020E+03  0.7546771E-02  0.1000831E+00
         21   -1    0    0  502  501  0.00000000000E+00  0.00000000000E+00  0.20762700737E+03  0.20762700737E+03  0.00000000000E+00 0. -1.
         21   -1    0    0  503  502 -0.00000000000E+00 -0.00000000000E+00 -0.14237158841E+04  0.14237158841E+04  0.00000000000E+00 0. -1.
         25    1    1    2    0    0 -0.12834629741E+03  0.49284474775E+03 -0.56796492038E+03  0.77303160882E+03  0.12500000000E+03 0.  0.
         21    1    1    2  503  504  0.11730841120E+03 -0.75362012555E+02 -0.11275313050E+03  0.17931526625E+03  0.00000000000E+00 0. -1.
         21    1    1    2  504  501  0.11037886207E+02 -0.41748273520E+03 -0.53537082584E+03  0.67899601639E+03  0.00000000000E+00 0. -1.
<mgrwt>
<rscale>  4 0.55287152E+03</rscale>
<asrwt>0</asrwt>
<pdfrwt beam="1">  1       21 0.31942616E-01 0.56270205E+03</pdfrwt>
<pdfrwt beam="2">  1       21 0.21903321E+00 0.56270205E+03</pdfrwt>
<totfact> 0.75661446E+02</totfact>
</mgrwt>
</event>
<event>
 5    0  0.2159162E+000  0.3351247E+03  0.7546771E-02  0.1068892E+00
         21   -1    0    0  502  501  0.00000000000E+00  0.00000000000E+00  0.46499692069E+03  0.46499692069E+03  0.00000000000E+00 0. -1.
         21   -1    0    0  503  502 -0.00000000000E+00 -0.00000000000E+00 -0.17493283062E+04  0.17493283062E+04  0.00000000000E+00 0. -1.
         25    1    1    2    0    0  0.12874032954E+03 -0.25575401741E+03  0.36849142583E+03  0.48310984339E+03  0.12500000000E+03 0.  0.
         21    1    1    2  503  504 -0.17423105693E+03  0.25864666209E+03 -0.16563915826E+04  0.16854932904E+04  0.00000000000E+00 0. -1.
         21    1    1    2  504  501  0.45490727396E+02 -0.28926446829E+01  0.35687712396E+01  0.45722093133E+02  0.00000000000E+00 0. -1.
<mgrwt>
<rscale>  4 0.33512472E+03</rscale>
<asrwt>0</asrwt>
<pdfrwt beam="1">  1       21 0.71537987E-01 0.33512472E+03</pdfrwt>
<pdfrwt beam="2">  1       21 0.26912744E+00 0.33512472E+03</pdfrwt>
<totfact> 0.76700169E+01</totfact>
</mgrwt>
</event>
<event>
 5    0  0.2159162E+000  0.6434161E+03  0.7546771E-02  0.9819212E-01
         21   -1    0    0  502  501  0.00000000000E+00  0.00000000000E+00  0.13822991654E+04  0.13822991654E+04  0.00000000000E+00 0.  1.
         21   -1    0    0  503  502 -0.00000000000E+00 -0.00000000000E+00 -0.39992291236E+03  0.39992291236E+03  0.00000000000E+00 0.  1.
         25    1    1    2    0    0 -0.36254768686E+03  0.48699800289E+03  0.52093853849E+03  0.80969737615E+03  0.12500000000E+03 0.  0.
         21    1    1    2  503  504  0.36264517080E+02  0.72659364267E+02  0.29175579250E+03  0.30284639815E+03  0.00000000000E+00 0. -1.
         21    1    1    2  504  501  0.32628316978E+03 -0.55965736715E+03  0.16968192209E+03  0.66967830350E+03  0.00000000000E+00 0.  1.
<mgrwt>
<rscale>  4 0.64341608E+03</rscale>
<asrwt>0</asrwt>
<pdfrwt beam="1">  1       21 0.21266141E+00 0.64341608E+03</pdfrwt>
<pdfrwt beam="2">  1       21 0.61526603E-01 0.64341608E+03</pdfrwt>
<totfact> 0.20309858E+02</totfact>
</mgrwt>
</event>
