<event>
 5    0  0.2215903E+000  0.2194729E+03  0.7546771E-02  0.1134277E+00
         21   -1    0    0  502  501  0.00000000000E+00  0.00000000000E+00  0.10551088231E+03  0.10551088231E+03  0.00000000000E+00 0.  1.
         21   -1    0    0  503  502 -0.00000000000E+00 -0.00000000000E+00 -0.11002328283E+04  0.11002328283E+04  0.00000000000E+00 0.  1.
         25    1    1    2    0    0  0.16407365557E+03  0.13306314950E+03 -0.76459513920E+02  0.25709341391E+03  0.12500000000E+03 0.  0.
         21    1    1    2  503  504 -0.57647662940E+02 -0.72604525783E+02 -0.60952594025E+03  0.61653592113E+03  0.00000000000E+00 0.  1.
         21    1    1    2  504  501 -0.10642599263E+03 -0.60458623716E+02 -0.30873649185E+03  0.33211437561E+03  0.00000000000E+00 0.  1.
<mgrwt>
<rscale>  4 0.21947287E+03</rscale>
<asrwt>0</asrwt>
<pdfrwt beam="1">  1       21 0.16232442E-01 0.21947287E+03</pdfrwt>
<pdfrwt beam="2">  1       21 0.16926660E+00 0.21947287E+03</pdfrwt>
<totfact> 0.71778585E+03</totfact>
</mgrwt>
</event>
<event>
 5    0  0.1856407E+000  0.3532231E+03  0.7546771E-02  0.1061300E+00
         21   -1    0    0  502  501  0.00000000000E+00  0.00000000000E+00  0.37239830035E+03  0.37239830035E+03  0.00000000000E+00 0.  1.
         21   -1    0    0  503  502 -0.00000000000E+00 -0.00000000000E+00 -0.32598128932E+03  0.32598128932E+03  0.00000000000E+00 0.  1.
         25    1    1    2    0    0 -0.30012244230E+03  0.13808729142E+03  0.26175271589E+02  0.35419165047E+03  0.12500000000E+03 0.  0.
         21    1    1    2  503  504  0.91040470979E+02 -0.92062609819E+02  0.54591192307E+01  0.12959048370E+03  0.00000000000E+00 0.  1.
         21    1    1    2  504  501  0.20908197132E+03 -0.46024681599E+02  0.14782620210E+02  0.21459745550E+03  0.00000000000E+00 0.  1.
<mgrwt>
<rscale>  4 0.35322313E+03</rscale>
<asrwt>0</asrwt>
<pdfrwt beam="1">  1       21 0.57292046E-01 0.35322313E+03</pdfrwt>
<pdfrwt beam="2">  1       21 0.50150968E-01 0.35322313E+03</pdfrwt>
<totfact> 0.99768598E+03</totfact>
</mgrwt>
</event>
<event>
 5    0  0.3712538E+000  0.2921318E+03  0.7546771E-02  0.1089241E+00
         21   -1    0    0  502  501  0.00000000000E+00  0.00000000000E+00  0.58769782413E+03  0.58769782413E+03  0.00000000000E+00 0. -1.
         21   -1    0    0  503  502 -0.00000000000E+00 -0.00000000000E+00 -0.15783764910E+03  0.15783764910E+03  0.00000000000E+00 0. -1.
         25    1    1    2    0    0 -0.88581032148E+02 -0.24873556387E+03  0.36516778532E+03  0.46764141329E+03  0.12500000000E+03 0.  0.
         21    1    1    2  503  504  0.63229661406E+02  0.22931440556E+03  0.62152721199E+02  0.24585777887E+03  0.00000000000E+00 0. -1.
         21    1    1    2  504  501  0.25351370742E+02  0.19421158314E+02  0.25396685094E+01  0.32036281071E+02  0.00000000000E+00 0. -1.
<mgrwt>
<rscale>  4 0.29213179E+03</rscale>
<asrwt>0</asrwt>
<pdfrwt beam="1">  1       21 0.90415049E-01 0.29213179E+03</pdfrwt>
<pdfrwt beam="2">  1       21 0.24282716E-01 0.29213179E+03</pdfrwt>
<totfact> 0.15779689E+04</totfact>
</mgrwt>
</event>
<event>
 5    0  0.1856407E+000  0.3948942E+03  0.7546771E-02  0.1045562E+00
         21   -1    0    0  502  501  0.00000000000E+00  0.00000000000E+00  0.12189149256E+03  0.12189149256E+03  0.00000000000E+00 0.  1.
         21   -1    0    0  503  502 -0.00000000000E+00 -0.00000000000E+00 -0.15115667398E+04  0.15115667398E+04  0.00000000000E+00 0.  1.
         25    1    1    2    0    0 -0.37376100495E+03  0.24881782461E+02 -0.35385786366E+03  0.53024218957E+03  0.12500000000E+03 0.  0.
         21    1    1    2  503  504  0.16029934829E+02 -0.13267641127E+02 -0.41155266912E+02  0.46116646737E+02  0.00000000000E+00 0. -1.
         21    1    1    2  504  501  0.35773107012E+03 -0.11614141335E+02 -0.99466211671E+03  0.10570993961E+04  0.00000000000E+00 0.  1.
<mgrwt>
<rscale>  4 0.39489415E+03</rscale>
<asrwt>0</asrwt>
<pdfrwt beam="1">  1       21 0.18752539E-01 0.39489415E+03</pdfrwt>
<pdfrwt beam="2">  1       21 0.23254871E+00 0.39489415E+03</pdfrwt>
<totfact> 0.18858732E+03</totfact>
</mgrwt>
</event>
<event>
 5    0  0.2628975E+000  0.2512421E+03  0.7546771E-02  0.1112522E+00
         21   -1    0    0  502  501  0.00000000000E+00  0.00000000000E+00  0.24184746310E+03  0.24184746310E+03  0.00000000000E+00 0. -1.
         21   -1    0    0  503  502 -0.00000000000E+00 -0.00000000000E+00 -0.27895432157E+03  0.27895432157E+03  0.00000000000E+00 0. -1.
         25    1    1    2    0    0  0.20017587860E+03 -0.86181238192E+02 -0.12752354591E+03  0.28175315961E+03  0.12500000000E+03 0.  0.
         21    1    1    2  503  504 -0.16270381459E+02  0.18199928242E+02  0.38235450107E+01  0.24709961499E+02  0.00000000000E+00 0. -1.
         21    1    1    2  504  501 -0.18390549714E+03  0.67981309951E+02  0.86593142428E+02  0.21433866356E+03  0.00000000000E+00 0. -1.
<mgrwt>
<rscale>  4 0.25124209E+03</rscale>
<asrwt>0</asrwt>
<pdfrwt beam="1">  1       21 0.37207302E-01 0.25124209E+03</pdfrwt>
<pdfrwt beam="2">  1       21 0.42916050E-01 0.25124209E+03</pdfrwt>
<totfact> 0.35367453E+04</totfact>
</mgrwt>
</event>
<event>
 5    0  0.1856407E+000  0.2476508E+03  0.7546771E-02  0.1114799E+00
         21   -1    0    0  502  501  0.00000000000E+00  0.00000000000E+00  0.30838694744E+03  0.30838694744E+03  0.00000000000E+00 0.  1.
         21   -1    0    0  503  502 -0.00000000000E+00 -0.00000000000E+00 -0.23934291610E+03  0.23934291610E+03  0.00000000000E+00 0.  1.
         25    1    1    2    0    0  0.21360068837E+03 -0.89807459676E+01  0.17225309831E+03  0.30166544009E+03  0.12500000000E+03 0.  0.
         21    1    1    2  503  504 -0.10423674322E+03  0.26177662648E+02 -0.24505538041E+02  0.11023198289E+03  0.00000000000E+00 0.  1.
         21    1    1    2  504  501 -0.10936394515E+03 -0.17196916680E+02 -0.78703528920E+02  0.13583244056E+03  0.00000000000E+00 0.  1.
<mgrwt>
<rscale>  4 0.24765078E+03</rscale>
<asrwt>0</asrwt>
<pdfrwt beam="1">  1       21 0.47444146E-01 0.24765078E+03</pdfrwt>
<pdfrwt beam="2">  1       21 0.36821987E-01 0.24765078E+03</pdfrwt>
<totfact> 0.29397143E+04</totfact>
</mgrwt>
</event>
<event>
 5    0  0.3792042E+000  0.3535404E+03  0.7546771E-02  0.1061171E+00
         21   -1    0    0  502  501  0.00000000000E+00  0.00000000000E+00  0.34703385235E+03  0.34703385235E+03  0.00000000000E+00 0. -1.
         21   -1    0    0  503  502 -0.00000000000E+00 -0.00000000000E+00 -0.41283486885E+03  0.41283486885E+03  0.00000000000E+00 0.  1.
         25    1    1    2    0    0  0.30587227519E+03 -0.12572963705E+03  0.12623848320E+03  0.37540237746E+03  0.12500000000E+03 0.  0.
         21    1    1    2  503  504 -0.18322503256E+02  0.14468065465E+02 -0.50994023376E+01  0.23896504934E+02  0.00000000000E+00 0.  1.
         21    1    1    2  504  501 -0.28754977193E+03  0.11126157159E+03 -0.18694009736E+03  0.36056983880E+03  0.00000000000E+00 0.  1.
<mgrwt>
<rscale>  4 0.35354037E+03</rscale>
<asrwt>0</asrwt>
<pdfrwt beam="1">  1       21 0.53389823E-01 0.35354037E+03</pdfrwt>
<pdfrwt beam="2">  1       21 0.63513057E-01 0.35354037E+03</pdfrwt>
<totfact> 0.69736434E+03</totfact>
</mgrwt>
</event>
<event>
 5    0  0.1856407E+000  0.2773208E+03  0.7546771E-02  0.1097161E+00
         21   -1    0    0  502  501  0.00000000000E+00  0.00000000000E+00  0.24124096924E+04  0.24124096924E+04  0.00000000000E+00 0. -1.
         21   -1    0    0  503  502 -0.00000000000E+00 -0.00000000000E+00 -0.71951083240E+02  0.71951083240E+02  0.00000000000E+00 0.  1.
         25    1    1    2    0    0  0.81939577526E+02 -0.23359734226E+03  0.21324619996E+04  0.21504187947E+04  0.12500000000E+03 0.  0.
         21    1    1    2  503  504 -0.87461811268E+01  0.10032283659E+03  0.12564913536E+03  0.16102444673E+03  0.00000000000E+00 0.  1.
         21    1    1    2  504  501 -0.73193396399E+02  0.13327450566E+03  0.82347474137E+02  0.17291753420E+03  0.00000000000E+00 0.  1.
<mgrwt>
<rscale>  4 0.27732078E+03</rscale>
<asrwt>0</asrwt>
<pdfrwt beam="1">  1       21 0.37113989E+00 0.27732078E+03</pdfrwt>
<pdfrwt beam="2">  1       21 0.11069399E-01 0.27732078E+03</pdfrwt>
<totfact> 0.79692203E+02</totfact>
</mgrwt>
</event>
<event>
 5    0  0.1856407E+000  0.2338756E+03  0.7546771E-02  0.1123941E+00
         21   -1    0    0  502  501  0.00000000000E+00  0.00000000000E+00  0.86522921702E+03  0.86522921702E+03  0.00000000000E+00 0.  1.
         21   -1    0    0  503  502 -0.00000000000E+00 -0.00000000000E+00 -0.26988715867E+03  0.26988715867E+03  0.00000000000E+00 0.  1.
         25    1    1    2    0    0 -0.19854327269E+03 -0.38501382989E+02  0.79433553228E+03  0.82915361994E+03  0.12500000000E+03 0.  0.
         21    1    1    2  503  504  0.15170281411E+03  0.60685629327E+02 -0.93068367041E+02  0.18803778971E+03  0.00000000000E+00 0.  1.
         21    1    1    2  504  501  0.46840458584E+02 -0.22184246338E+02 -0.10592510688E+03  0.11792496603E+03  0.00000000000E+00 0.  1.
<mgrwt>
<rscale>  4 0.23387561E+03</rscale>
<asrwt>0</asrwt>
<pdfrwt beam="1">  1       21 0.13311219E+00 0.23387561E+03</pdfrwt>
<pdfrwt beam="2">  1       21 0.41521102E-01 0.23387561E+03</pdfrwt>
<totfact> 0.21944552E+03</totfact>
</mgrwt>
</event>
<event>
 5    0  0.1856407E+000  0.2395737E+03  0.7546771E-02  0.1120077E+00
         21   -1    0    0  502  501  0.00000000000E+00  0.00000000000E+00  0.35464196038E+03  0.35464196038E+03  0.00000000000E+00 0. -1.
         21   -1    0    0  503  502 -0.00000000000E+00 -0.00000000000E+00 -0.22772853865E+03  0.22772853865E+03  0.00000000000E+00 0. -1.
         25    1    1    2    0    0  0.20291005354E+03  0.94190087091E+02  0.16607661474E+03  0.30536978288E+03  0.12500000000E+03 0.  0.
         21    1    1    2  503  504 -0.18008846666E+03 -0.86587399131E+01 -0.51774828816E+02  0.18758321486E+03  0.00000000000E+00 0. -1.
         21    1    1    2  504  501 -0.22821586887E+02 -0.85531347178E+02  0.12611635808E+02  0.89417501284E+02  0.00000000000E+00 0. -1.
<mgrwt>
<rscale>  4 0.23957365E+03</rscale>
<asrwt>0</asrwt>
<pdfrwt beam="1">  1       21 0.54560301E-01 0.23957365E+03</pdfrwt>
<pdfrwt beam="2">  1       21 0.35035160E-01 0.23957365E+03</pdfrwt>
<totfact> 0.24297260E+04</totfact>
</mgrwt>
</event>
<event>
 5    0  0.1856407E+000  0.3000381E+03  0.7546771E-02  0.1085222E+00
         21   -1    0    0  502  501  0.00000000000E+00  0.00000000000E+00  0.42630605227E+03  0.42630605227E+03  0.00000000000E+00 0. -1.
         21   -1    0    0  503  502 -0.00000000000E+00 -0.00000000000E+00 -0.36136983710E+03  0.36136983710E+03  0.00000000000E+00 0. -1.
         25    1    1    2    0    0  0.21177552979E+03 -0.17189818580E+03 -0.23481622353E+03  0.38100068258E+03  0.12500000000E+03 0.  0.
         21    1    1    2  503  504 -0.13064417754E+02  0.21221248041E+02  0.20396540484E+02  0.32203093693E+02  0.00000000000E+00 0. -1.
         21    1    1    2  504  501 -0.19871111203E+03  0.15067693776E+03  0.27935589821E+03  0.37447211309E+03  0.00000000000E+00 0. -1.
<mgrwt>
<rscale>  4 0.30003810E+03</rscale>
<asrwt>0</asrwt>
<pdfrwt beam="1">  1       21 0.65585547E-01 0.30003810E+03</pdfrwt>
<pdfrwt beam="2">  1       21 0.55595359E-01 0.30003810E+03</pdfrwt>
<totfact> 0.61017571E+03</totfact>
</mgrwt>
</event>
