<event>
 5    0  0.2349340E+000  0.1982851E+03  0.7546771E-02  0.1151194E+00
         21   -1    0    0  502  501  0.00000000000E+00  0.00000000000E+00  0.53295942699E+03  0.53295942699E+03  0.00000000000E+00 0.  1.
         21   -1    0    0  503  502 -0.00000000000E+00 -0.00000000000E+00 -0.13611700661E+03  0.13611700661E+03  0.00000000000E+00 0.  1.
         25    1    1    2    0    0 -0.18301592583E+03 -0.13285583373E+03  0.26029681460E+03  0.36677640784E+03  0.12500000000E+03 0.  0.
         21    1    1    2  503  504  0.84804923820E+02  0.35436698568E+02  0.13578297253E+03  0.16396539372E+03  0.00000000000E+00 0.  1.
         21    1    1    2  504  501  0.98211002008E+02  0.97419135159E+02  0.76263325359E+00  0.13833463203E+03  0.00000000000E+00 0.  1.
<mgrwt>
<rscale>  4 0.19828507E+03</rscale>
<asrwt>0</asrwt>
<pdfrwt beam="1">  1       21 0.81993757E-01 0.19828507E+03</pdfrwt>
<pdfrwt beam="2">  1       21 0.20941078E-01 0.19828507E+03</pdfrwt>
<totfact> 0.27460457E+04</totfact>
</mgrwt>
</event>
<event>
 5    0  0.2159162E+000  0.2839008E+03  0.7546771E-02  0.1093577E+00
         21   -1    0    0  502  501  0.00000000000E+00  0.00000000000E+00  0.86868705941E+03  0.86868705941E+03  0.00000000000E+00 0.  1.
         21   -1    0    0  503  502 -0.00000000000E+00 -0.00000000000E+00 -0.92411526840E+02  0.92411526840E+02  0.00000000000E+00 0.  1.
         25    1    1    2    0    0  0.11393761263E+03 -0.22801952769E+03  0.48808631729E+03  0.56464850810E+03  0.12500000000E+03 0.  0.
         21    1    1    2  503  504 -0.52258546163E+02  0.19448483726E+03  0.20127021299E+03  0.28471917078E+03  0.00000000000E+00 0.  1.
         21    1    1    2  504  501 -0.61679066469E+02  0.33534690427E+02  0.86919002290E+02  0.11173090737E+03  0.00000000000E+00 0.  1.
<mgrwt>
<rscale>  4 0.28390084E+03</rscale>
<asrwt>0</asrwt>
<pdfrwt beam="1">  1       21 0.13364416E+00 0.28390084E+03</pdfrwt>
<pdfrwt beam="2">  1       21 0.14217159E-01 0.28390084E+03</pdfrwt>
<totfact> 0.16542458E+04</totfact>
</mgrwt>
</event>
<event>
 5    0  0.2207717E+000  0.2327751E+03  0.7546771E-02  0.1124702E+00
         21   -1    0    0  502  501  0.00000000000E+00  0.00000000000E+00  0.18169052735E+03  0.18169052735E+03  0.00000000000E+00 0.  1.
         21   -1    0    0  503  502 -0.00000000000E+00 -0.00000000000E+00 -0.45402485972E+03  0.45402485972E+03  0.00000000000E+00 0.  1.
         25    1    1    2    0    0 -0.21230715820E+03 -0.27629842872E+02  0.31684041007E+02  0.24993322327E+03  0.12500000000E+03 0.  0.
         21    1    1    2  503  504  0.15678383575E+03  0.54864230121E+02 -0.16743899050E+03  0.23585391758E+03  0.00000000000E+00 0.  1.
         21    1    1    2  504  501  0.55523322455E+02 -0.27234387249E+02 -0.13657938288E+03  0.14992824621E+03  0.00000000000E+00 0.  1.
<mgrwt>
<rscale>  4 0.23277511E+03</rscale>
<asrwt>0</asrwt>
<pdfrwt beam="1">  1       21 0.27952389E-01 0.23277511E+03</pdfrwt>
<pdfrwt beam="2">  1       21 0.69849978E-01 0.23277511E+03</pdfrwt>
<totfact> 0.22252173E+04</totfact>
</mgrwt>
</event>
<event>
 5    0  0.2159162E+000  0.2889485E+03  0.7546771E-02  0.1090899E+00
         21   -1    0    0  502  501  0.00000000000E+00  0.00000000000E+00  0.15153700186E+04  0.15153700186E+04  0.00000000000E+00 0. -1.
         21   -1    0    0  503  502 -0.00000000000E+00 -0.00000000000E+00 -0.28983213889E+03  0.28983213889E+03  0.00000000000E+00 0. -1.
         25    1    1    2    0    0 -0.24509707695E+03  0.98317221056E+02  0.14210602224E+04  0.14507846183E+04  0.12500000000E+03 0.  0.
         21    1    1    2  503  504  0.64572962799E+02 -0.82430258279E+01  0.10644102591E+02  0.65961442672E+02  0.00000000000E+00 0. -1.
         21    1    1    2  504  501  0.18052411415E+03 -0.90074195228E+02 -0.20616644529E+03  0.28845609648E+03  0.00000000000E+00 0. -1.
<mgrwt>
<rscale>  4 0.28894846E+03</rscale>
<asrwt>0</asrwt>
<pdfrwt beam="1">  1       21 0.23313384E+00 0.28894846E+03</pdfrwt>
<pdfrwt beam="2">  1       21 0.44589561E-01 0.28894846E+03</pdfrwt>
<totfact> 0.36455458E+02</totfact>
</mgrwt>
</event>
<event>
 5    0  0.2159162E+000  0.2642065E+03  0.7546771E-02  0.1104642E+00
         21   -1    0    0  502  501  0.00000000000E+00  0.00000000000E+00  0.15332032090E+03  0.15332032090E+03  0.00000000000E+00 0. -1.
         21   -1    0    0  503  502 -0.00000000000E+00 -0.00000000000E+00 -0.69912328438E+03  0.69912328438E+03  0.00000000000E+00 0. -1.
         25    1    1    2    0    0  0.84164537338E+02 -0.21701708618E+03 -0.90581601861E+01  0.26436175083E+03  0.12500000000E+03 0.  0.
         21    1    1    2  503  504 -0.41513963468E+02  0.17700287958E+03 -0.40337721311E+03  0.44245520067E+03  0.00000000000E+00 0. -1.
         21    1    1    2  504  501 -0.42650573870E+02  0.40014206596E+02 -0.13336759018E+03  0.14562665378E+03  0.00000000000E+00 0. -1.
<mgrwt>
<rscale>  4 0.26420652E+03</rscale>
<asrwt>0</asrwt>
<pdfrwt beam="1">  1       21 0.23587742E-01 0.26420652E+03</pdfrwt>
<pdfrwt beam="2">  1       21 0.10755743E+00 0.26420652E+03</pdfrwt>
<totfact> 0.11165989E+04</totfact>
</mgrwt>
</event>
<event>
 5    0  0.2159162E+000  0.2816212E+03  0.7546771E-02  0.1094807E+00
         21   -1    0    0  502  501  0.00000000000E+00  0.00000000000E+00  0.20053114975E+03  0.20053114975E+03  0.00000000000E+00 0.  1.
         21   -1    0    0  503  502 -0.00000000000E+00 -0.00000000000E+00 -0.55364024592E+03  0.55364024592E+03  0.00000000000E+00 0.  1.
         25    1    1    2    0    0 -0.15938071854E+03  0.19566109504E+03  0.40426677739E+02  0.28450798552E+03  0.12500000000E+03 0.  0.
         21    1    1    2  503  504  0.21158220263E+02 -0.28282592428E+02 -0.30443403606E+02  0.46630206329E+02  0.00000000000E+00 0.  1.
         21    1    1    2  504  501  0.13822249828E+03 -0.16737850261E+03 -0.36309237030E+03  0.42303320382E+03  0.00000000000E+00 0.  1.
<mgrwt>
<rscale>  4 0.28162116E+03</rscale>
<asrwt>0</asrwt>
<pdfrwt beam="1">  1       21 0.30850947E-01 0.28162116E+03</pdfrwt>
<pdfrwt beam="2">  1       21 0.85175420E-01 0.28162116E+03</pdfrwt>
<totfact> 0.11431722E+04</totfact>
</mgrwt>
</event>
<event>
 5    0  0.4162289E+000  0.2431875E+03  0.7546771E-02  0.1117687E+00
         21   -1    0    0  502  501  0.00000000000E+00  0.00000000000E+00  0.44137870727E+03  0.44137870727E+03  0.00000000000E+00 0.  1.
         21   -1    0    0  503  502 -0.00000000000E+00 -0.00000000000E+00 -0.12025509061E+03  0.12025509061E+03  0.00000000000E+00 0.  1.
         25    1    1    2    0    0  0.45447112917E+02  0.20359206354E+03  0.12715921510E+03  0.27442600896E+03  0.12500000000E+03 0.  0.
         21    1    1    2  503  504 -0.21998850966E+02 -0.16596683495E+03  0.15044631641E+03  0.22508450384E+03  0.00000000000E+00 0.  1.
         21    1    1    2  504  501 -0.23448261952E+02 -0.37625228584E+02  0.43518085152E+02  0.62123285086E+02  0.00000000000E+00 0. -1.
<mgrwt>
<rscale>  4 0.24318752E+03</rscale>
<asrwt>0</asrwt>
<pdfrwt beam="1">  1       21 0.67904416E-01 0.24318752E+03</pdfrwt>
<pdfrwt beam="2">  1       21 0.18500783E-01 0.24318752E+03</pdfrwt>
<totfact> 0.51666177E+04</totfact>
</mgrwt>
</event>
<event>
 5    0  0.2159162E+000  0.3437154E+03  0.7546771E-02  0.1065224E+00
         21   -1    0    0  502  501  0.00000000000E+00  0.00000000000E+00  0.88997171239E+03  0.88997171239E+03  0.00000000000E+00 0. -1.
         21   -1    0    0  503  502 -0.00000000000E+00 -0.00000000000E+00 -0.35182598697E+03  0.35182598697E+03  0.00000000000E+00 0.  1.
         25    1    1    2    0    0  0.71657018685E+02 -0.30969724700E+03  0.69153233598E+03  0.77129053205E+03  0.12500000000E+03 0.  0.
         21    1    1    2  503  504 -0.15305111122E+03  0.30341147919E+03 -0.57639314772E+02  0.34468167773E+03  0.00000000000E+00 0.  1.
         21    1    1    2  504  501  0.81394092539E+02  0.62857678085E+01 -0.95747295789E+02  0.12582548958E+03  0.00000000000E+00 0.  1.
<mgrwt>
<rscale>  4 0.34371545E+03</rscale>
<asrwt>0</asrwt>
<pdfrwt beam="1">  1       21 0.13691872E+00 0.34371545E+03</pdfrwt>
<pdfrwt beam="2">  1       21 0.54127075E-01 0.34371545E+03</pdfrwt>
<totfact> 0.10907274E+03</totfact>
</mgrwt>
</event>
