<event>
 5    0  0.2396052E+000  0.7749748E+03  0.7546771E-02  0.9596964E-01
          2   -1    0    0  503    0 -0.00000000000E+00  0.00000000000E+00  0.47095359005E+04  0.47095359005E+04  0.00000000000E+00 0.  1.
         21   -1    0    0  501  502  0.00000000000E+00 -0.00000000000E+00 -0.88163765508E+02  0.88163765508E+02  0.00000000000E+00 0. -1.
         25    1    1    2    0    0  0.99825484247E+02  0.21434050961E+03  0.12746701608E+03  0.29627659636E+03  0.12500000000E+03 0.  0.
         21    1    1    2  503  502 -0.32595175213E+02 -0.12319663322E+03  0.15094883518E+04  0.15148580594E+04  0.00000000000E+00 0.  1.
          2    1    1    2  501    0 -0.67230309034E+02 -0.91143876387E+02  0.29844167671E+04  0.29865650102E+04  0.00000000000E+00 0.  1.
<mgrwt>
<rscale>  4 0.77497475E+03</rscale>
<asrwt>0</asrwt>
<pdfrwt beam="1">  1       21 0.13563660E-01 0.77497475E+03</pdfrwt>
<pdfrwt beam="2">  1        2 0.72454379E+00 0.77497475E+03</pdfrwt>
<totfact> 0.49207473E+01</totfact>
</mgrwt>
</event>
<event>
 5    0  0.2396052E+000  0.4323847E+03  0.7546771E-02  0.1033109E+00
         -1   -1    0    0    0  501 -0.00000000000E+00  0.00000000000E+00  0.13993548233E+03  0.13993548233E+03  0.00000000000E+00 0.  1.
         21   -1    0    0  501  502  0.00000000000E+00 -0.00000000000E+00 -0.11230429847E+04  0.11230429847E+04  0.00000000000E+00 0.  1.
         25    1    1    2    0    0 -0.61589534284E+01 -0.24482038610E+03 -0.79355790762E+03  0.83984171539E+03  0.12500000000E+03 0.  0.
         21    1    1    2  503  502  0.26889492637E+02  0.14519353542E+03 -0.26025241287E+03  0.29922487521E+03  0.00000000000E+00 0.  1.
         -1    1    1    2    0  503 -0.20730539209E+02  0.99626850682E+02  0.70702818107E+02  0.12391187643E+03  0.00000000000E+00 0.  1.
<mgrwt>
<rscale>  4 0.43238467E+03</rscale>
<asrwt>0</asrwt>
<pdfrwt beam="1">  1       21 0.17277584E+00 0.43238467E+03</pdfrwt>
<pdfrwt beam="2">  1       -1 0.21528536E-01 0.43238467E+03</pdfrwt>
<totfact> 0.29777888E+02</totfact>
</mgrwt>
</event>
<event>
 5    0  0.2396052E+000  0.4535060E+03  0.7546771E-02  0.1026682E+00
          2   -1    0    0  503    0 -0.00000000000E+00  0.00000000000E+00  0.23135377278E+03  0.23135377278E+03  0.00000000000E+00 0.  1.
         21   -1    0    0  501  502  0.00000000000E+00 -0.00000000000E+00 -0.38372700059E+03  0.38372700059E+03  0.00000000000E+00 0. -1.
         25    1    1    2    0    0  0.14185370558E+03  0.16724430005E+03 -0.24850262479E+03  0.35421982470E+03  0.12500000000E+03 0.  0.
         21    1    1    2  503  502 -0.12270803754E+03 -0.73943865023E+02  0.34321457188E+02  0.14731910968E+03  0.00000000000E+00 0.  1.
          2    1    1    2  501    0 -0.19145668036E+02 -0.93300435027E+02  0.61807939792E+02  0.11354183899E+03  0.00000000000E+00 0.  1.
<mgrwt>
<rscale>  4 0.45350604E+03</rscale>
<asrwt>0</asrwt>
<pdfrwt beam="1">  1       21 0.59034923E-01 0.45350604E+03</pdfrwt>
<pdfrwt beam="2">  1        2 0.35592888E-01 0.45350604E+03</pdfrwt>
<totfact> 0.45565299E+03</totfact>
</mgrwt>
</event>
<event>
 5    0  0.2396052E+000  0.6938473E+03  0.7546771E-02  0.9727812E-01
          2   -1    0    0  503    0 -0.00000000000E+00  0.00000000000E+00  0.74646238588E+03  0.74646238588E+03  0.00000000000E+00 0. -1.
         21   -1    0    0  501  502  0.00000000000E+00 -0.00000000000E+00 -0.32268154952E+03  0.32268154952E+03  0.00000000000E+00 0.  1.
         25    1    1    2    0    0 -0.26409805407E+03  0.22130293640E+02 -0.22187383377E+03  0.36754663673E+03  0.12500000000E+03 0.  0.
         21    1    1    2  503  502  0.15707626989E+03 -0.98480990995E+01  0.28959386479E+03  0.32959755179E+03  0.00000000000E+00 0. -1.
          2    1    1    2  501    0  0.10702178418E+03 -0.12282194540E+02  0.35606080534E+03  0.37199974689E+03  0.00000000000E+00 0. -1.
<mgrwt>
<rscale>  4 0.69384726E+03</rscale>
<asrwt>0</asrwt>
<pdfrwt beam="1">  1       21 0.49643316E-01 0.69384726E+03</pdfrwt>
<pdfrwt beam="2">  1        2 0.11484037E+00 0.69384726E+03</pdfrwt>
<totfact> 0.16735218E+03</totfact>
</mgrwt>
</event>
<event>
 5    0  0.2396052E+000  0.8864852E+03  0.7546771E-02  0.9442635E-01
         21   -1    0    0  501  502  0.00000000000E+00  0.00000000000E+00  0.29440551097E+03  0.29440551097E+03  0.00000000000E+00 0. -1.
          2   -1    0    0  503    0 -0.00000000000E+00 -0.00000000000E+00 -0.16083466950E+04  0.16083466950E+04  0.00000000000E+00 0.  1.
         25    1    1    2    0    0 -0.44439855493E+03  0.29829501455E+03 -0.23730084178E+03  0.59867076164E+03  0.12500000000E+03 0.  0.
         21    1    1    2  503  502  0.28435228614E+03 -0.17958250935E+03 -0.17197877554E+03  0.37773376806E+03  0.00000000000E+00 0. -1.
          2    1    1    2  501    0  0.16004626879E+03 -0.11871250521E+03 -0.90466156675E+03  0.92634767631E+03  0.00000000000E+00 0.  1.
<mgrwt>
<rscale>  4 0.88648519E+03</rscale>
<asrwt>0</asrwt>
<pdfrwt beam="1">  1       21 0.45293154E-01 0.88648519E+03</pdfrwt>
<pdfrwt beam="2">  1        2 0.24743796E+00 0.88648519E+03</pdfrwt>
<totfact> 0.58552017E+02</totfact>
</mgrwt>
</event>
<event>
 5    0  0.2396052E+000  0.8139672E+03  0.7546771E-02  0.9540017E-01
          1   -1    0    0  503    0 -0.00000000000E+00  0.00000000000E+00  0.37158034291E+03  0.37158034291E+03  0.00000000000E+00 0. -1.
         21   -1    0    0  501  502  0.00000000000E+00 -0.00000000000E+00 -0.84526694091E+03  0.84526694091E+03  0.00000000000E+00 0.  1.
         25    1    1    2    0    0 -0.61527166318E+02 -0.43179987009E+03 -0.33079953279E+03  0.56150694644E+03  0.12500000000E+03 0.  0.
         21    1    1    2  503  502 -0.31549586477E+02  0.35840254068E+03 -0.29304884385E+03  0.46403166104E+03  0.00000000000E+00 0. -1.
          1    1    1    2  501    0  0.93076752795E+02  0.73397329415E+02  0.15016177864E+03  0.19130867633E+03  0.00000000000E+00 0. -1.
<mgrwt>
<rscale>  4 0.81396722E+03</rscale>
<asrwt>0</asrwt>
<pdfrwt beam="1">  1       21 0.13004107E+00 0.81396722E+03</pdfrwt>
<pdfrwt beam="2">  1        1 0.57166207E-01 0.81396722E+03</pdfrwt>
<totfact> 0.26082634E+02</totfact>
</mgrwt>
</event>
<event>
 5    0  0.2396052E+000  0.8125483E+03  0.7546771E-02  0.9542029E-01
         -1   -1    0    0    0  501 -0.00000000000E+00  0.00000000000E+00  0.29667161193E+03  0.29667161193E+03  0.00000000000E+00 0.  1.
         21   -1    0    0  501  502  0.00000000000E+00 -0.00000000000E+00 -0.84555642165E+03  0.84555642165E+03  0.00000000000E+00 0.  1.
         25    1    1    2    0    0  0.29938260681E+03 -0.76129335258E+02 -0.49810661871E+03  0.59930027912E+03  0.12500000000E+03 0.  0.
         21    1    1    2  503  502 -0.39489724217E+03  0.89490324603E+02 -0.12216442870E+03  0.42293793600E+03  0.00000000000E+00 0.  1.
         -1    1    1    2    0  503  0.95514635353E+02 -0.13360989344E+02  0.71386237683E+02  0.11998981846E+03  0.00000000000E+00 0.  1.
<mgrwt>
<rscale>  4 0.81254833E+03</rscale>
<asrwt>0</asrwt>
<pdfrwt beam="1">  1       21 0.13008560E+00 0.81254833E+03</pdfrwt>
<pdfrwt beam="2">  1       -1 0.45641787E-01 0.81254833E+03</pdfrwt>
<totfact> 0.16083634E+02</totfact>
</mgrwt>
</event>
<event>
 5    0  0.2396052E+000  0.5815055E+03  0.7546771E-02  0.9944537E-01
          2   -1    0    0  503    0 -0.00000000000E+00  0.00000000000E+00  0.56480516772E+03  0.56480516772E+03  0.00000000000E+00 0. -1.
         21   -1    0    0  501  502  0.00000000000E+00 -0.00000000000E+00 -0.22468768598E+03  0.22468768598E+03  0.00000000000E+00 0. -1.
         25    1    1    2    0    0  0.14936488553E+03  0.22654189815E+03  0.19232254993E+03  0.35530840668E+03  0.12500000000E+03 0.  0.
         21    1    1    2  503  502 -0.12810887946E+03 -0.20704015865E+03 -0.37777658001E+02  0.24638316448E+03  0.00000000000E+00 0. -1.
          2    1    1    2  501    0 -0.21256006068E+02 -0.19501739495E+02  0.18557258981E+03  0.18780128254E+03  0.00000000000E+00 0. -1.
<mgrwt>
<rscale>  4 0.58150548E+03</rscale>
<asrwt>0</asrwt>
<pdfrwt beam="1">  1       21 0.34567336E-01 0.58150548E+03</pdfrwt>
<pdfrwt beam="2">  1        2 0.86893102E-01 0.58150548E+03</pdfrwt>
<totfact> 0.50893297E+03</totfact>
</mgrwt>
</event>
<event>
 5    0  0.2396052E+000  0.5842069E+03  0.7546771E-02  0.9938725E-01
         21   -1    0    0  501  502  0.00000000000E+00  0.00000000000E+00  0.74232396096E+03  0.74232396096E+03  0.00000000000E+00 0. -1.
          1   -1    0    0  503    0 -0.00000000000E+00 -0.00000000000E+00 -0.77505379416E+03  0.77505379416E+03  0.00000000000E+00 0. -1.
         25    1    1    2    0    0  0.21304653688E+03  0.60960840123E+02  0.54336434663E+03  0.59997905304E+03  0.12500000000E+03 0.  0.
         21    1    1    2  503  502 -0.23671002320E+03  0.44956673898E+02  0.78856195620E+02  0.25351733116E+03  0.00000000000E+00 0.  1.
          1    1    1    2  501    0  0.23663486323E+02 -0.10591751402E+03 -0.65495037544E+03  0.66388137092E+03  0.00000000000E+00 0. -1.
<mgrwt>
<rscale>  4 0.58420688E+03</rscale>
<asrwt>0</asrwt>
<pdfrwt beam="1">  1       21 0.11420369E+00 0.58420688E+03</pdfrwt>
<pdfrwt beam="2">  1        1 0.11923904E+00 0.58420688E+03</pdfrwt>
<totfact> 0.13550623E+02</totfact>
</mgrwt>
</event>
<event>
 5    0  0.2396052E+000  0.5747800E+03  0.7546771E-02  0.9959157E-01
         21   -1    0    0  501  502  0.00000000000E+00  0.00000000000E+00  0.35622573418E+03  0.35622573418E+03  0.00000000000E+00 0.  1.
          3   -1    0    0  503    0 -0.00000000000E+00 -0.00000000000E+00 -0.34889483438E+03  0.34889483438E+03  0.00000000000E+00 0.  1.
         25    1    1    2    0    0 -0.20399326294E+03  0.22698949689E+03 -0.30437737782E+02  0.33119320480E+03  0.12500000000E+03 0.  0.
         21    1    1    2  503  502  0.13253619663E+03 -0.17418058171E+03  0.12277921328E+03  0.25095707536E+03  0.00000000000E+00 0.  1.
          3    1    1    2  501    0  0.71457066312E+02 -0.52808915183E+02 -0.85010575697E+02  0.12297028840E+03  0.00000000000E+00 0.  1.
<mgrwt>
<rscale>  4 0.57477996E+03</rscale>
<asrwt>0</asrwt>
<pdfrwt beam="1">  1       21 0.54803959E-01 0.57477996E+03</pdfrwt>
<pdfrwt beam="2">  1        3 0.53676129E-01 0.57477996E+03</pdfrwt>
<totfact> 0.51192329E+02</totfact>
</mgrwt>
</event>
<event>
 5    0  0.2396052E+000  0.1133208E+04  0.7546771E-02  0.9173417E-01
          2   -1    0    0  503    0 -0.00000000000E+00  0.00000000000E+00  0.36571929259E+04  0.36571929259E+04  0.00000000000E+00 0.  1.
         21   -1    0    0  501  502  0.00000000000E+00 -0.00000000000E+00 -0.13501584677E+03  0.13501584677E+03  0.00000000000E+00 0.  1.
         25    1    1    2    0    0  0.45896238035E+03 -0.22195376521E+03  0.77076835039E+03  0.93253353314E+03  0.12500000000E+03 0.  0.
         21    1    1    2  503  502 -0.49231466731E+03  0.29203309143E+03  0.14944743466E+04  0.16003470345E+04  0.00000000000E+00 0.  1.
          2    1    1    2  501    0  0.33352286963E+02 -0.70079326219E+02  0.12569343821E+04  0.12593282050E+04  0.00000000000E+00 0.  1.
<mgrwt>
<rscale>  4 0.11332076E+04</rscale>
<asrwt>0</asrwt>
<pdfrwt beam="1">  1       21 0.20771671E-01 0.11332076E+04</pdfrwt>
<pdfrwt beam="2">  1        2 0.56264499E+00 0.11332076E+04</pdfrwt>
<totfact> 0.16232055E+02</totfact>
</mgrwt>
</event>
<event>
 5    0  0.2396052E+000  0.8761029E+03  0.7546771E-02  0.9455957E-01
          2   -1    0    0  503    0 -0.00000000000E+00  0.00000000000E+00  0.11089025858E+04  0.11089025858E+04  0.00000000000E+00 0.  1.
         21   -1    0    0  501  502  0.00000000000E+00 -0.00000000000E+00 -0.36822127584E+03  0.36822127584E+03  0.00000000000E+00 0. -1.
         25    1    1    2    0    0 -0.45509427063E+03  0.10540229399E+03 -0.94898589027E+02  0.49279933131E+03  0.12500000000E+03 0.  0.
         21    1    1    2  503  502  0.25437528560E+03 -0.11811427779E+03  0.29265526837E+03  0.40534537699E+03  0.00000000000E+00 0.  1.
          2    1    1    2  501    0  0.20071898503E+03  0.12711983804E+02  0.54292463063E+03  0.57897915336E+03  0.00000000000E+00 0.  1.
<mgrwt>
<rscale>  4 0.87610286E+03</rscale>
<asrwt>0</asrwt>
<pdfrwt beam="1">  1       21 0.56649428E-01 0.87610286E+03</pdfrwt>
<pdfrwt beam="2">  1        2 0.17060040E+00 0.87610286E+03</pdfrwt>
<totfact> 0.70135191E+02</totfact>
</mgrwt>
</event>
<event>
 5    0  0.2396052E+000  0.4881438E+03  0.7546771E-02  0.1016921E+00
         21   -1    0    0  501  502  0.00000000000E+00  0.00000000000E+00  0.12978234362E+03  0.12978234362E+03  0.00000000000E+00 0. -1.
          2   -1    0    0  503    0 -0.00000000000E+00 -0.00000000000E+00 -0.14280254819E+04  0.14280254819E+04  0.00000000000E+00 0.  1.
         25    1    1    2    0    0 -0.41723493824E+02  0.28032931080E+03 -0.11247993315E+03  0.32954833908E+03  0.12500000000E+03 0.  0.
         21    1    1    2  503  502  0.53891608901E+02 -0.23636725070E+02 -0.31151386058E+03  0.31702347802E+03  0.00000000000E+00 0.  1.
          2    1    1    2  501    0 -0.12168115077E+02 -0.25669258573E+03 -0.87424934460E+03  0.91123600847E+03  0.00000000000E+00 0.  1.
<mgrwt>
<rscale>  4 0.48814381E+03</rscale>
<asrwt>0</asrwt>
<pdfrwt beam="1">  1       21 0.19966515E-01 0.48814381E+03</pdfrwt>
<pdfrwt beam="2">  1        2 0.21969622E+00 0.48814381E+03</pdfrwt>
<totfact> 0.40735486E+03</totfact>
</mgrwt>
</event>
<event>
 5    0  0.2396052E+000  0.4774437E+03  0.7546771E-02  0.1019840E+00
          1   -1    0    0  503    0 -0.00000000000E+00  0.00000000000E+00  0.93974421793E+03  0.93974421793E+03  0.00000000000E+00 0. -1.
         21   -1    0    0  501  502  0.00000000000E+00 -0.00000000000E+00 -0.69066021424E+03  0.69066021424E+03  0.00000000000E+00 0. -1.
         25    1    1    2    0    0 -0.21255670593E+03  0.38524094035E+02 -0.15778178862E+03  0.29527030307E+03  0.12500000000E+03 0.  0.
         21    1    1    2  503  502  0.15907775019E+03 -0.20267086675E+02 -0.44932304672E+03  0.47708247266E+03  0.00000000000E+00 0. -1.
          1    1    1    2  501    0  0.53478955738E+02 -0.18257007360E+02  0.85618883904E+03  0.85805165644E+03  0.00000000000E+00 0. -1.
<mgrwt>
<rscale>  4 0.47744374E+03</rscale>
<asrwt>0</asrwt>
<pdfrwt beam="1">  1       21 0.10625542E+00 0.47744374E+03</pdfrwt>
<pdfrwt beam="2">  1        1 0.14457603E+00 0.47744374E+03</pdfrwt>
<totfact> 0.12225689E+02</totfact>
</mgrwt>
</event>
<event>
 5    0  0.2396052E+000  0.7742391E+03  0.7546771E-02  0.9598072E-01
         21   -1    0    0  501  502  0.00000000000E+00  0.00000000000E+00  0.34590587324E+03  0.34590587324E+03  0.00000000000E+00 0.  1.
          2   -1    0    0  503    0 -0.00000000000E+00 -0.00000000000E+00 -0.55090225131E+03  0.55090225131E+03  0.00000000000E+00 0. -1.
         25    1    1    2    0    0  0.92112109272E+02 -0.29426330187E+03  0.18830516835E+03  0.38230794908E+03  0.12500000000E+03 0.  0.
         21    1    1    2  503  502 -0.10212302886E+03  0.26148662548E+03 -0.28144747072E+03  0.39751358103E+03  0.00000000000E+00 0. -1.
          2    1    1    2  501    0  0.10010919588E+02  0.32776676387E+02 -0.11185407570E+03  0.11698659443E+03  0.00000000000E+00 0. -1.
<mgrwt>
<rscale>  4 0.77423907E+03</rscale>
<asrwt>0</asrwt>
<pdfrwt beam="1">  1       21 0.53216289E-01 0.77423907E+03</pdfrwt>
<pdfrwt beam="2">  1        2 0.84754191E-01 0.77423907E+03</pdfrwt>
<totfact> 0.20732644E+03</totfact>
</mgrwt>
</event>
<event>
 5    0  0.2396052E+000  0.7325437E+03  0.7546771E-02  0.9663142E-01
          2   -1    0    0  503    0 -0.00000000000E+00  0.00000000000E+00  0.11273862653E+04  0.11273862653E+04  0.00000000000E+00 0.  1.
         21   -1    0    0  501  502  0.00000000000E+00 -0.00000000000E+00 -0.15456074880E+03  0.15456074880E+03  0.00000000000E+00 0.  1.
         25    1    1    2    0    0 -0.91784609228E+02 -0.33553202280E+03  0.20600318011E+03  0.42316481781E+03  0.12500000000E+03 0.  0.
         21    1    1    2  503  502  0.86250452689E+02  0.30534051475E+03  0.51357443357E+03  0.60368093340E+03  0.00000000000E+00 0.  1.
          2    1    1    2  501    0  0.55341565395E+01  0.30191508057E+02  0.25324790279E+03  0.25510126286E+03  0.00000000000E+00 0.  1.
<mgrwt>
<rscale>  4 0.73254369E+03</rscale>
<asrwt>0</asrwt>
<pdfrwt beam="1">  1       21 0.23778577E-01 0.73254369E+03</pdfrwt>
<pdfrwt beam="2">  1        2 0.17344404E+00 0.73254369E+03</pdfrwt>
<totfact> 0.41821301E+03</totfact>
</mgrwt>
</event>
<event>
 5    0  0.2396052E+000  0.6490933E+03  0.7546771E-02  0.9808482E-01
          2   -1    0    0  503    0 -0.00000000000E+00  0.00000000000E+00  0.13559085469E+04  0.13559085469E+04  0.00000000000E+00 0.  1.
         21   -1    0    0  501  502  0.00000000000E+00 -0.00000000000E+00 -0.18669793743E+03  0.18669793743E+03  0.00000000000E+00 0.  1.
         25    1    1    2    0    0 -0.26004938399E+02 -0.21689239848E+03 -0.78267126060E+02  0.26357031768E+03  0.12500000000E+03 0.  0.
         21    1    1    2  503  502  0.33726283577E+02  0.16467689180E+03  0.45930831480E+03  0.48910128699E+03  0.00000000000E+00 0.  1.
          2    1    1    2  501    0 -0.77213451782E+01  0.52215506686E+02  0.78816942076E+03  0.78993487968E+03  0.00000000000E+00 0.  1.
<mgrwt>
<rscale>  4 0.64909333E+03</rscale>
<asrwt>0</asrwt>
<pdfrwt beam="1">  1       21 0.28722760E-01 0.64909333E+03</pdfrwt>
<pdfrwt beam="2">  1        2 0.20860131E+00 0.64909333E+03</pdfrwt>
<totfact> 0.21425383E+03</totfact>
</mgrwt>
</event>
<event>
 5    0  0.2396052E+000  0.5431697E+03  0.7546771E-02  0.1003087E+00
          2   -1    0    0  503    0 -0.00000000000E+00  0.00000000000E+00  0.70824271432E+03  0.70824271432E+03  0.00000000000E+00 0. -1.
         21   -1    0    0  501  502  0.00000000000E+00 -0.00000000000E+00 -0.39537673106E+03  0.39537673106E+03  0.00000000000E+00 0. -1.
         25    1    1    2    0    0 -0.15521314764E+03 -0.16008172994E+03  0.44317561823E+02  0.25943463097E+03  0.12500000000E+03 0.  0.
         21    1    1    2  503  502  0.14982365268E+03  0.13275791815E+03 -0.25259484067E+03  0.32229791384E+03  0.00000000000E+00 0. -1.
          2    1    1    2  501    0  0.53894949657E+01  0.27323811797E+02  0.52114326211E+03  0.52188690057E+03  0.00000000000E+00 0. -1.
<mgrwt>
<rscale>  4 0.54316971E+03</rscale>
<asrwt>0</asrwt>
<pdfrwt beam="1">  1       21 0.60827190E-01 0.54316971E+03</pdfrwt>
<pdfrwt beam="2">  1        2 0.10896042E+00 0.54316971E+03</pdfrwt>
<totfact> 0.11781862E+03</totfact>
</mgrwt>
</event>
<event>
 5    0  0.2396052E+000  0.4600994E+03  0.7546771E-02  0.1024752E+00
         21   -1    0    0  501  502  0.00000000000E+00  0.00000000000E+00  0.76639812769E+02  0.76639812769E+02  0.00000000000E+00 0. -1.
          1   -1    0    0  503    0 -0.00000000000E+00 -0.00000000000E+00 -0.19020622351E+04  0.19020622351E+04  0.00000000000E+00 0. -1.
         25    1    1    2    0    0 -0.10607327104E+03 -0.18196675306E+03 -0.47867180392E+03  0.53769427551E+03  0.12500000000E+03 0.  0.
         21    1    1    2  503  502  0.94073523333E+02  0.16015884969E+03 -0.13651132062E+03  0.23051252805E+03  0.00000000000E+00 0. -1.
          1    1    1    2  501    0  0.11999747709E+02  0.21807903365E+02 -0.12102392978E+04  0.12104952443E+04  0.00000000000E+00 0. -1.
<mgrwt>
<rscale>  4 0.46009935E+03</rscale>
<asrwt>0</asrwt>
<pdfrwt beam="1">  1       21 0.11790740E-01 0.46009935E+03</pdfrwt>
<pdfrwt beam="2">  1        1 0.29262497E+00 0.46009935E+03</pdfrwt>
<totfact> 0.24666398E+03</totfact>
</mgrwt>
</event>
<event>
 5    0  0.2396052E+000  0.4539367E+03  0.7546771E-02  0.1026555E+00
          2   -1    0    0  503    0 -0.00000000000E+00  0.00000000000E+00  0.46910967127E+03  0.46910967127E+03  0.00000000000E+00 0.  1.
         21   -1    0    0  501  502  0.00000000000E+00 -0.00000000000E+00 -0.24136617191E+03  0.24136617191E+03  0.00000000000E+00 0.  1.
         25    1    1    2    0    0 -0.19285603332E+03  0.80098739751E+02  0.21993585314E+03  0.32803359156E+03  0.12500000000E+03 0.  0.
         21    1    1    2  503  502  0.46929318183E+02  0.76085765290E+02 -0.10730933205E+03  0.13966637866E+03  0.00000000000E+00 0.  1.
          2    1    1    2  501    0  0.14592671514E+03 -0.15618450504E+03  0.11511697826E+03  0.24277587296E+03  0.00000000000E+00 0.  1.
<mgrwt>
<rscale>  4 0.45393670E+03</rscale>
<asrwt>0</asrwt>
<pdfrwt beam="1">  1       21 0.37133257E-01 0.45393670E+03</pdfrwt>
<pdfrwt beam="2">  1        2 0.72170718E-01 0.45393670E+03</pdfrwt>
<totfact> 0.55414360E+03</totfact>
</mgrwt>
</event>
<event>
 5    0  0.2396052E+000  0.4946311E+03  0.7546771E-02  0.1015190E+00
         21   -1    0    0  501  502  0.00000000000E+00  0.00000000000E+00  0.67675635261E+03  0.67675635261E+03  0.00000000000E+00 0. -1.
          1   -1    0    0  503    0 -0.00000000000E+00 -0.00000000000E+00 -0.36132194170E+03  0.36132194170E+03  0.00000000000E+00 0. -1.
         25    1    1    2    0    0  0.25989202894E+03  0.63509460279E+02  0.19760682775E+03  0.35531785295E+03  0.12500000000E+03 0.  0.
         21    1    1    2  503  502 -0.20319816207E+02  0.18486339180E+03  0.25141126058E+03  0.31272190602E+03  0.00000000000E+00 0. -1.
          1    1    1    2  501    0 -0.23957221273E+03 -0.24837285208E+03 -0.13358367742E+03  0.37003853534E+03  0.00000000000E+00 0. -1.
<mgrwt>
<rscale>  4 0.49463105E+03</rscale>
<asrwt>0</asrwt>
<pdfrwt beam="1">  1       21 0.10411636E+00 0.49463105E+03</pdfrwt>
<pdfrwt beam="2">  1        1 0.55587991E-01 0.49463105E+03</pdfrwt>
<totfact> 0.50603864E+02</totfact>
</mgrwt>
</event>
<event>
 5    0  0.2396052E+000  0.5975452E+03  0.7546771E-02  0.9910512E-01
         21   -1    0    0  501  502  0.00000000000E+00  0.00000000000E+00  0.27380433813E+03  0.27380433813E+03  0.00000000000E+00 0.  1.
          2   -1    0    0  503    0 -0.00000000000E+00 -0.00000000000E+00 -0.10826567815E+04  0.10826567815E+04  0.00000000000E+00 0.  1.
         25    1    1    2    0    0  0.28735672322E+03 -0.46762160588E+02 -0.23801079260E+02  0.31772956648E+03  0.12500000000E+03 0.  0.
         21    1    1    2  503  502 -0.28000836050E+03  0.18958723391E+02 -0.29011531691E+02  0.28214497003E+03  0.00000000000E+00 0.  1.
          2    1    1    2  501    0 -0.73483627214E+01  0.27803437197E+02 -0.75603983237E+03  0.75658658308E+03  0.00000000000E+00 0.  1.
<mgrwt>
<rscale>  4 0.59754522E+03</rscale>
<asrwt>0</asrwt>
<pdfrwt beam="1">  1       21 0.42123744E-01 0.59754522E+03</pdfrwt>
<pdfrwt beam="2">  1        2 0.16656258E+00 0.59754522E+03</pdfrwt>
<totfact> 0.14323160E+03</totfact>
</mgrwt>
</event>
<event>
 5    0  0.2396052E+000  0.4820905E+03  0.7546771E-02  0.1018562E+00
         21   -1    0    0  501  502  0.00000000000E+00  0.00000000000E+00  0.47010860508E+03  0.47010860508E+03  0.00000000000E+00 0.  1.
          1   -1    0    0  503    0 -0.00000000000E+00 -0.00000000000E+00 -0.10822355101E+04  0.10822355101E+04  0.00000000000E+00 0. -1.
         25    1    1    2    0    0  0.45053699392E+02 -0.19498980969E+03  0.37006657513E+03  0.43889079706E+03  0.12500000000E+03 0.  0.
         21    1    1    2  503  502  0.15594093615E+02  0.15081248597E+03 -0.25408543130E+02  0.15373085489E+03  0.00000000000E+00 0. -1.
          1    1    1    2  501    0 -0.60647793008E+02  0.44177323713E+02 -0.95678493704E+03  0.95972246326E+03  0.00000000000E+00 0. -1.
<mgrwt>
<rscale>  4 0.48209051E+03</rscale>
<asrwt>0</asrwt>
<pdfrwt beam="1">  1       21 0.72324401E-01 0.48209051E+03</pdfrwt>
<pdfrwt beam="2">  1        1 0.16649777E+00 0.48209051E+03</pdfrwt>
<totfact> 0.23593970E+02</totfact>
</mgrwt>
</event>
<event>
 5    0  0.2396052E+000  0.5485428E+03  0.7546771E-02  0.1001832E+00
          2   -1    0    0  503    0 -0.00000000000E+00  0.00000000000E+00  0.27532451686E+04  0.27532451686E+04  0.00000000000E+00 0. -1.
         21   -1    0    0  501  502  0.00000000000E+00 -0.00000000000E+00 -0.20642050233E+03  0.20642050233E+03  0.00000000000E+00 0.  1.
         25    1    1    2    0    0 -0.20723754354E+03  0.17802016074E+03  0.26497714337E+03  0.40059513675E+03  0.12500000000E+03 0.  0.
         21    1    1    2  503  502  0.87343335340E+02 -0.10783222847E+03 -0.10134279675E+03  0.17183425205E+03  0.00000000000E+00 0.  1.
          2    1    1    2  501    0  0.11989420820E+03 -0.70187932267E+02  0.23831903197E+04  0.23872362821E+04  0.00000000000E+00 0. -1.
<mgrwt>
<rscale>  4 0.54854280E+03</rscale>
<asrwt>0</asrwt>
<pdfrwt beam="1">  1       21 0.31757002E-01 0.54854280E+03</pdfrwt>
<pdfrwt beam="2">  1        2 0.42357616E+00 0.54854280E+03</pdfrwt>
<totfact> 0.30279856E+02</totfact>
</mgrwt>
</event>
<event>
 5    0  0.2396052E+000  0.8217242E+03  0.7546771E-02  0.9529094E-01
          1   -1    0    0  503    0 -0.00000000000E+00  0.00000000000E+00  0.30589640815E+04  0.30589640815E+04  0.00000000000E+00 0.  1.
         21   -1    0    0  501  502  0.00000000000E+00 -0.00000000000E+00 -0.72234621959E+02  0.72234621959E+02  0.00000000000E+00 0. -1.
         25    1    1    2    0    0  0.83759295368E+02 -0.34897537852E+03  0.63405219371E+03  0.73922027754E+03  0.12500000000E+03 0.  0.
         21    1    1    2  503  502 -0.10334157513E+03  0.34418197766E+03  0.16353816800E+04  0.16743995802E+04  0.00000000000E+00 0. -1.
          1    1    1    2  501    0  0.19582279761E+02  0.47934008697E+01  0.71729558582E+03  0.71757884571E+03  0.00000000000E+00 0.  1.
<mgrwt>
<rscale>  4 0.82172423E+03</rscale>
<asrwt>0</asrwt>
<pdfrwt beam="1">  1       21 0.11113021E-01 0.82172423E+03</pdfrwt>
<pdfrwt beam="2">  1        1 0.47060976E+00 0.82172423E+03</pdfrwt>
<totfact> 0.41459185E+02</totfact>
</mgrwt>
</event>
<event>
 5    0  0.2396052E+000  0.8626643E+03  0.7546771E-02  0.9473495E-01
         21   -1    0    0  501  502  0.00000000000E+00  0.00000000000E+00  0.13087925267E+03  0.13087925267E+03  0.00000000000E+00 0.  1.
          1   -1    0    0  503    0 -0.00000000000E+00 -0.00000000000E+00 -0.18961783411E+04  0.18961783411E+04  0.00000000000E+00 0.  1.
         25    1    1    2    0    0 -0.24439179205E+03 -0.16469949786E+02 -0.12982273341E+04  0.13270334654E+04  0.12500000000E+03 0.  0.
         21    1    1    2  503  502  0.22680822557E+03  0.44275090504E+02  0.70658236002E+00  0.23109035914E+03  0.00000000000E+00 0.  1.
          1    1    1    2  501    0  0.17583566479E+02 -0.27805140718E+02 -0.46777833665E+03  0.46893376920E+03  0.00000000000E+00 0.  1.
<mgrwt>
<rscale>  4 0.86266433E+03</rscale>
<asrwt>0</asrwt>
<pdfrwt beam="1">  1       21 0.20135271E-01 0.86266433E+03</pdfrwt>
<pdfrwt beam="2">  1        1 0.29171972E+00 0.86266433E+03</pdfrwt>
<totfact> 0.85108722E+02</totfact>
</mgrwt>
</event>
<event>
 5    0  0.2396052E+000  0.5194549E+03  0.7546771E-02  0.1008822E+00
         21   -1    0    0  501  502  0.00000000000E+00  0.00000000000E+00  0.30721153353E+03  0.30721153353E+03  0.00000000000E+00 0. -1.
          1   -1    0    0  503    0 -0.00000000000E+00 -0.00000000000E+00 -0.48130676309E+03  0.48130676309E+03  0.00000000000E+00 0. -1.
         25    1    1    2    0    0  0.47342566955E+02 -0.27823520217E+03 -0.94548362861E+00  0.30867789087E+03  0.12500000000E+03 0.  0.
         21    1    1    2  503  502 -0.51026951143E+01  0.20234454104E+03  0.75829534327E+02  0.21614686919E+03  0.00000000000E+00 0. -1.
          1    1    1    2  501    0 -0.42239871841E+02  0.75890661132E+02 -0.24897928026E+03  0.26369353655E+03  0.00000000000E+00 0. -1.
<mgrwt>
<rscale>  4 0.51945491E+03</rscale>
<asrwt>0</asrwt>
<pdfrwt beam="1">  1       21 0.47263313E-01 0.51945491E+03</pdfrwt>
<pdfrwt beam="2">  1        1 0.74047194E-01 0.51945491E+03</pdfrwt>
<totfact> 0.20681180E+03</totfact>
</mgrwt>
</event>
<event>
 5    0  0.2396052E+000  0.4709745E+03  0.7546771E-02  0.1021646E+00
         21   -1    0    0  501  502  0.00000000000E+00  0.00000000000E+00  0.20116915855E+03  0.20116915855E+03  0.00000000000E+00 0. -1.
         -2   -1    0    0    0  501 -0.00000000000E+00 -0.00000000000E+00 -0.35465903982E+03  0.35465903982E+03  0.00000000000E+00 0. -1.
         25    1    1    2    0    0  0.18238409154E+03 -0.10933762114E+03 -0.32244863270E+02  0.24876375028E+03  0.12500000000E+03 0.  0.
         21    1    1    2  503  502 -0.17002104275E+03  0.14522113767E+03 -0.54281392297E+02  0.23009303196E+03  0.00000000000E+00 0. -1.
         -2    1    1    2    0  503 -0.12363048790E+02 -0.35883516530E+02 -0.66963625708E+02  0.76971416135E+02  0.00000000000E+00 0. -1.
<mgrwt>
<rscale>  4 0.47097455E+03</rscale>
<asrwt>0</asrwt>
<pdfrwt beam="1">  1       21 0.30949102E-01 0.47097455E+03</pdfrwt>
<pdfrwt beam="2">  1       -2 0.54562929E-01 0.47097455E+03</pdfrwt>
<totfact> 0.25053392E+03</totfact>
</mgrwt>
</event>
<event>
 5    0  0.2396052E+000  0.6024698E+03  0.7546771E-02  0.9900295E-01
         21   -1    0    0  501  502  0.00000000000E+00  0.00000000000E+00  0.16854587576E+03  0.16854587576E+03  0.00000000000E+00 0.  1.
          1   -1    0    0  503    0 -0.00000000000E+00 -0.00000000000E+00 -0.16806423422E+04  0.16806423422E+04  0.00000000000E+00 0. -1.
         25    1    1    2    0    0  0.30694267442E+03  0.31958559819E+03 -0.62091777137E+03  0.77298941697E+03  0.12500000000E+03 0.  0.
         21    1    1    2  503  502 -0.57717986065E+02 -0.67072871965E+01  0.34649780252E+02  0.67653240043E+02  0.00000000000E+00 0. -1.
          1    1    1    2  501    0 -0.24922468836E+03 -0.31287831099E+03 -0.92582847530E+03  0.10085455609E+04  0.00000000000E+00 0. -1.
<mgrwt>
<rscale>  4 0.60246985E+03</rscale>
<asrwt>0</asrwt>
<pdfrwt beam="1">  1       21 0.25930134E-01 0.60246985E+03</pdfrwt>
<pdfrwt beam="2">  1        1 0.25856037E+00 0.60246985E+03</pdfrwt>
<totfact> 0.75783023E+02</totfact>
</mgrwt>
</event>
<event>
 5    0  0.2396052E+000  0.1075054E+04  0.7546771E-02  0.9229853E-01
          2   -1    0    0  503    0 -0.00000000000E+00  0.00000000000E+00  0.95475851013E+03  0.95475851013E+03  0.00000000000E+00 0. -1.
         21   -1    0    0  501  502  0.00000000000E+00 -0.00000000000E+00 -0.39197762227E+03  0.39197762227E+03  0.00000000000E+00 0.  1.
         25    1    1    2    0    0 -0.32022695724E+03  0.34930890857E+02  0.64447811979E+03  0.73126090977E+03  0.12500000000E+03 0.  0.
         21    1    1    2  503  502  0.27235910050E+03 -0.32337441824E+02 -0.29151097727E+03  0.40025471845E+03  0.00000000000E+00 0.  1.
          2    1    1    2  501    0  0.47867856732E+02 -0.25934490331E+01  0.20981374534E+03  0.21522050418E+03  0.00000000000E+00 0. -1.
<mgrwt>
<rscale>  4 0.10750543E+04</rscale>
<asrwt>0</asrwt>
<pdfrwt beam="1">  1       21 0.60304250E-01 0.10750543E+04</pdfrwt>
<pdfrwt beam="2">  1        2 0.14688592E+00 0.10750543E+04</pdfrwt>
<totfact> 0.74732403E+02</totfact>
</mgrwt>
</event>
<event>
 5    0  0.3094389E+000  0.1013642E+04  0.7546771E-02  0.9293707E-01
         21   -1    0    0  501  502  0.00000000000E+00  0.00000000000E+00  0.35995423517E+03  0.35995423517E+03  0.00000000000E+00 0. -1.
          2   -1    0    0  503    0 -0.00000000000E+00 -0.00000000000E+00 -0.15884889355E+04  0.15884889355E+04  0.00000000000E+00 0. -1.
         25    1    1    2    0    0  0.10875449667E+03 -0.17131265138E+03 -0.67369883769E+03  0.71461226478E+03  0.12500000000E+03 0.  0.
         21    1    1    2  503  502 -0.93168632445E+02  0.13710578873E+03  0.31883465126E+03  0.35935209227E+03  0.00000000000E+00 0. -1.
          2    1    1    2  501    0 -0.15585864223E+02  0.34206862648E+02 -0.87367051385E+03  0.87447881357E+03  0.00000000000E+00 0. -1.
<mgrwt>
<rscale>  4 0.10136424E+04</rscale>
<asrwt>0</asrwt>
<pdfrwt beam="1">  1       21 0.55377574E-01 0.10136424E+04</pdfrwt>
<pdfrwt beam="2">  1        2 0.24438292E+00 0.10136424E+04</pdfrwt>
<totfact> 0.38211331E+02</totfact>
</mgrwt>
</event>
<event>
 5    0  0.2396052E+000  0.8142154E+03  0.7546771E-02  0.9539666E-01
         -2   -1    0    0    0  501 -0.00000000000E+00  0.00000000000E+00  0.25077603487E+03  0.25077603487E+03  0.00000000000E+00 0. -1.
         21   -1    0    0  501  502  0.00000000000E+00 -0.00000000000E+00 -0.12724093693E+04  0.12724093693E+04  0.00000000000E+00 0. -1.
         25    1    1    2    0    0 -0.27821289192E+03  0.81894338302E+02 -0.12352440472E+03  0.33910525569E+03  0.12500000000E+03 0.  0.
         21    1    1    2  503  502  0.29805595379E+03 -0.71172637807E+02 -0.10174664054E+04  0.10626103623E+04  0.00000000000E+00 0. -1.
         -2    1    1    2    0  503 -0.19843061871E+02 -0.10721700495E+02  0.11935747565E+03  0.12146978620E+03  0.00000000000E+00 0. -1.
<mgrwt>
<rscale>  4 0.81421536E+03</rscale>
<asrwt>0</asrwt>
<pdfrwt beam="1">  1       21 0.19575529E+00 0.81421536E+03</pdfrwt>
<pdfrwt beam="2">  1       -2 0.38580929E-01 0.81421536E+03</pdfrwt>
<totfact> 0.58439969E+01</totfact>
</mgrwt>
</event>
<event>
 5    0  0.2396052E+000  0.9232983E+03  0.7546771E-02  0.9396917E-01
          2   -1    0    0  503    0 -0.00000000000E+00  0.00000000000E+00  0.15705855776E+04  0.15705855776E+04  0.00000000000E+00 0. -1.
         21   -1    0    0  501  502  0.00000000000E+00 -0.00000000000E+00 -0.13463764459E+04  0.13463764459E+04  0.00000000000E+00 0.  1.
         25    1    1    2    0    0 -0.29450547222E+03 -0.20499500956E+02 -0.19575759102E+02  0.32118828287E+03  0.12500000000E+03 0.  0.
         21    1    1    2  503  502  0.18988311343E+03  0.13163514999E+02 -0.11663324550E+04  0.11817615117E+04  0.00000000000E+00 0.  1.
          2    1    1    2  501    0  0.10462235879E+03  0.73359859566E+01  0.14101173458E+04  0.14140122289E+04  0.00000000000E+00 0. -1.
<mgrwt>
<rscale>  4 0.92329832E+03</rscale>
<asrwt>0</asrwt>
<pdfrwt beam="1">  1       21 0.20713484E+00 0.92329832E+03</pdfrwt>
<pdfrwt beam="2">  1        2 0.24162855E+00 0.92329832E+03</pdfrwt>
<totfact> 0.13314168E+01</totfact>
</mgrwt>
</event>
<event>
 5    0  0.2396052E+000  0.4875791E+03  0.7546771E-02  0.1017073E+00
         -4   -1    0    0    0  501 -0.00000000000E+00  0.00000000000E+00  0.37652272462E+03  0.37652272462E+03  0.00000000000E+00 0.  1.
         21   -1    0    0  501  502  0.00000000000E+00 -0.00000000000E+00 -0.67054007038E+03  0.67054007038E+03  0.00000000000E+00 0.  1.
         25    1    1    2    0    0  0.18057593761E+03  0.11609054748E+03 -0.41864289114E+03  0.48679724194E+03  0.12500000000E+03 0.  0.
         21    1    1    2  503  502 -0.20613271285E+03 -0.69185368207E+02 -0.16045246194E+03  0.27022639216E+03  0.00000000000E+00 0.  1.
         -4    1    1    2    0  503  0.25556775242E+02 -0.46905179272E+02  0.28507800731E+03  0.29003916090E+03  0.00000000000E+00 0.  1.
<mgrwt>
<rscale>  4 0.48757908E+03</rscale>
<asrwt>0</asrwt>
<pdfrwt beam="1">  1       21 0.10316001E+00 0.48757908E+03</pdfrwt>
<pdfrwt beam="2">  1       -4 0.57926573E-01 0.48757908E+03</pdfrwt>
<totfact> 0.86123442E+01</totfact>
</mgrwt>
</event>
<event>
 5    0  0.2396052E+000  0.4593676E+03  0.7546771E-02  0.1024965E+00
         21   -1    0    0  501  502  0.00000000000E+00  0.00000000000E+00  0.42013142281E+03  0.42013142281E+03  0.00000000000E+00 0.  1.
         -2   -1    0    0    0  501 -0.00000000000E+00 -0.00000000000E+00 -0.16479209397E+03  0.16479209397E+03  0.00000000000E+00 0. -1.
         25    1    1    2    0    0 -0.21033108929E+03 -0.90664065802E+02  0.41109848630E+02  0.26414798807E+03  0.12500000000E+03 0.  0.
         21    1    1    2  503  502  0.14472470202E+03  0.78281121868E+02  0.18587520047E+03  0.24823932719E+03  0.00000000000E+00 0.  1.
         -2    1    1    2    0  503  0.65606387269E+02  0.12382943934E+02  0.28354279735E+02  0.72536201515E+02  0.00000000000E+00 0. -1.
<mgrwt>
<rscale>  4 0.45936755E+03</rscale>
<asrwt>0</asrwt>
<pdfrwt beam="1">  1       21 0.64635603E-01 0.45936755E+03</pdfrwt>
<pdfrwt beam="2">  1       -2 0.25352630E-01 0.45936755E+03</pdfrwt>
<totfact> 0.23214651E+03</totfact>
</mgrwt>
</event>
<event>
 5    0  0.2396052E+000  0.3560521E+03  0.7546771E-02  0.1060158E+00
          2   -1    0    0  503    0 -0.00000000000E+00  0.00000000000E+00  0.59990314788E+03  0.59990314788E+03  0.00000000000E+00 0. -1.
         21   -1    0    0  501  502  0.00000000000E+00 -0.00000000000E+00 -0.89095168221E+03  0.89095168221E+03  0.00000000000E+00 0.  1.
         25    1    1    2    0    0  0.60361902033E+02  0.23575347560E+03 -0.55299144807E+03  0.61696661345E+03  0.12500000000E+03 0.  0.
         21    1    1    2  503  502 -0.11363574247E+02 -0.68582831201E+02 -0.28838558637E+03  0.29664622361E+03  0.00000000000E+00 0.  1.
          2    1    1    2  501    0 -0.48998327786E+02 -0.16717064440E+03  0.55032850012E+03  0.57724199303E+03  0.00000000000E+00 0. -1.
<mgrwt>
<rscale>  4 0.35605211E+03</rscale>
<asrwt>0</asrwt>
<pdfrwt beam="1">  1       21 0.13706949E+00 0.35605211E+03</pdfrwt>
<pdfrwt beam="2">  1        2 0.92292792E-01 0.35605211E+03</pdfrwt>
<totfact> 0.21834262E+02</totfact>
</mgrwt>
</event>
<event>
 5    0  0.2396052E+000  0.4777738E+03  0.7546771E-02  0.1019749E+00
         -2   -1    0    0    0  501 -0.00000000000E+00  0.00000000000E+00  0.14808221383E+04  0.14808221383E+04  0.00000000000E+00 0.  1.
         21   -1    0    0  501  502  0.00000000000E+00 -0.00000000000E+00 -0.10195854414E+03  0.10195854414E+03  0.00000000000E+00 0.  1.
         25    1    1    2    0    0 -0.34207948745E+02 -0.20035532546E+03  0.17428102168E+03  0.29548488069E+03  0.12500000000E+03 0.  0.
         21    1    1    2  503  502  0.72471470979E+02  0.21973453690E+03  0.28673148647E+03  0.36844311114E+03  0.00000000000E+00 0.  1.
         -2    1    1    2    0  503 -0.38263522234E+02 -0.19379211438E+02  0.91785108598E+03  0.91885269059E+03  0.00000000000E+00 0.  1.
<mgrwt>
<rscale>  4 0.47777384E+03</rscale>
<asrwt>0</asrwt>
<pdfrwt beam="1">  1       21 0.15685931E-01 0.47777384E+03</pdfrwt>
<pdfrwt beam="2">  1       -2 0.22781877E+00 0.47777384E+03</pdfrwt>
<totfact> 0.27011381E+02</totfact>
</mgrwt>
</event>
<event>
 5    0  0.2396052E+000  0.9170627E+03  0.7546771E-02  0.9404500E-01
          1   -1    0    0  503    0 -0.00000000000E+00  0.00000000000E+00  0.98557801152E+03  0.98557801152E+03  0.00000000000E+00 0.  1.
         21   -1    0    0  501  502  0.00000000000E+00 -0.00000000000E+00 -0.56290821121E+03  0.56290821121E+03  0.00000000000E+00 0. -1.
         25    1    1    2    0    0 -0.23186160760E+01 -0.32056793743E+03 -0.44660869461E+03  0.56378498081E+03  0.12500000000E+03 0.  0.
         21    1    1    2  503  502  0.39789324329E+02  0.26257682489E+03  0.26045938452E+03  0.37197966380E+03  0.00000000000E+00 0.  1.
          1    1    1    2  501    0 -0.37470708253E+02  0.57991112541E+02  0.60881911040E+03  0.61272157812E+03  0.00000000000E+00 0.  1.
<mgrwt>
<rscale>  4 0.91706265E+03</rscale>
<asrwt>0</asrwt>
<pdfrwt beam="1">  1       21 0.86601264E-01 0.91706265E+03</pdfrwt>
<pdfrwt beam="2">  1        1 0.15162739E+00 0.91706265E+03</pdfrwt>
<totfact> 0.16785982E+02</totfact>
</mgrwt>
</event>
<event>
 5    0  0.2396052E+000  0.9022873E+03  0.7546771E-02  0.9422727E-01
         21   -1    0    0  501  502  0.00000000000E+00  0.00000000000E+00  0.16409215636E+04  0.16409215636E+04  0.00000000000E+00 0. -1.
          2   -1    0    0  503    0 -0.00000000000E+00 -0.00000000000E+00 -0.20014097710E+03  0.20014097710E+03  0.00000000000E+00 0. -1.
         25    1    1    2    0    0 -0.32135643227E+03  0.23094280559E+03  0.12886739542E+04  0.13538501011E+04  0.12500000000E+03 0.  0.
         21    1    1    2  503  502  0.25314992469E+03 -0.22021963362E+03  0.21108537206E+03  0.39640712115E+03  0.00000000000E+00 0.  1.
          2    1    1    2  501    0  0.68206507585E+02 -0.10723171968E+02 -0.58978739830E+02  0.90805318379E+02  0.00000000000E+00 0. -1.
<mgrwt>
<rscale>  4 0.90228726E+03</rscale>
<asrwt>0</asrwt>
<pdfrwt beam="1">  1       21 0.25244946E+00 0.90228726E+03</pdfrwt>
<pdfrwt beam="2">  1        2 0.30790921E-01 0.90228726E+03</pdfrwt>
<totfact> 0.10112355E+02</totfact>
</mgrwt>
</event>
<event>
 5    0  0.2396052E+000  0.6215031E+03  0.7546771E-02  0.9861772E-01
         21   -1    0    0  501  502  0.00000000000E+00  0.00000000000E+00  0.55301503803E+03  0.55301503803E+03  0.00000000000E+00 0.  1.
         -1   -1    0    0    0  501 -0.00000000000E+00 -0.00000000000E+00 -0.34228504718E+03  0.34228504718E+03  0.00000000000E+00 0. -1.
         25    1    1    2    0    0  0.13694642684E+03 -0.19592535284E+03 -0.47507829275E+02  0.27390337995E+03  0.12500000000E+03 0.  0.
         21    1    1    2  503  502 -0.98013517317E+02  0.13660803013E+03  0.41584857743E+03  0.44855149406E+03  0.00000000000E+00 0.  1.
         -1    1    1    2    0  503 -0.38932909519E+02  0.59317322703E+02 -0.15761075730E+03  0.17284521120E+03  0.00000000000E+00 0. -1.
<mgrwt>
<rscale>  4 0.62150313E+03</rscale>
<asrwt>0</asrwt>
<pdfrwt beam="1">  1       21 0.85079236E-01 0.62150313E+03</pdfrwt>
<pdfrwt beam="2">  1       -1 0.52659238E-01 0.62150313E+03</pdfrwt>
<totfact> 0.36464000E+02</totfact>
</mgrwt>
</event>
