<event>
 5    0  0.2159162E+000  0.2631917E+03  0.7546771E-02  0.1105241E+00
         21   -1    0    0  502  501  0.00000000000E+00  0.00000000000E+00  0.68608754014E+03  0.68608754014E+03  0.00000000000E+00 0. -1.
         21   -1    0    0  503  502 -0.00000000000E+00 -0.00000000000E+00 -0.13921330040E+03  0.13921330040E+03  0.00000000000E+00 0. -1.
         25    1    1    2    0    0 -0.17646356119E+02 -0.23163917694E+03  0.49654628081E+02  0.26843748670E+03  0.12500000000E+03 0.  0.
         21    1    1    2  503  504  0.37662080710E+02  0.22707785560E+03  0.45413305808E+03  0.50913615003E+03  0.00000000000E+00 0. -1.
         21    1    1    2  504  501 -0.20015724592E+02  0.45613213382E+01  0.43086553589E+02  0.47727203809E+02  0.00000000000E+00 0. -1.
<mgrwt>
<rscale>  4 0.26319167E+03</rscale>
<asrwt>0</asrwt>
<pdfrwt beam="1">  1       21 0.10555193E+00 0.26319167E+03</pdfrwt>
<pdfrwt beam="2">  1       21 0.21417431E-01 0.26319167E+03</pdfrwt>
<totfact> 0.14052586E+04</totfact>
</mgrwt>
</event>
<event>
 5    0  0.2159162E+000  0.2637251E+03  0.7546771E-02  0.1104926E+00
         21   -1    0    0  502  501  0.00000000000E+00  0.00000000000E+00  0.39415027085E+02  0.39415027085E+02  0.00000000000E+00 0. -1.
         21   -1    0    0  503  502 -0.00000000000E+00 -0.00000000000E+00 -0.18609405516E+04  0.18609405516E+04  0.00000000000E+00 0. -1.
         25    1    1    2    0    0 -0.17947682254E+03 -0.14735676395E+03 -0.61851432734E+03  0.67239193841E+03  0.12500000000E+03 0.  0.
         21    1    1    2  503  504  0.13866371740E+03  0.86111773734E+02 -0.65496761385E+03  0.67500032540E+03  0.00000000000E+00 0. -1.
         21    1    1    2  504  501  0.40813105134E+02  0.61244990216E+02 -0.54804358336E+03  0.55296331491E+03  0.00000000000E+00 0. -1.
<mgrwt>
<rscale>  4 0.26372513E+03</rscale>
<asrwt>0</asrwt>
<pdfrwt beam="1">  1       21 0.60638498E-02 0.26372513E+03</pdfrwt>
<pdfrwt beam="2">  1       21 0.28629857E+00 0.26372513E+03</pdfrwt>
<totfact> 0.74211008E+03</totfact>
</mgrwt>
</event>
<event>
 5    0  0.2159162E+000  0.3649665E+03  0.7546771E-02  0.1056634E+00
         21   -1    0    0  502  501  0.00000000000E+00  0.00000000000E+00  0.72169458519E+03  0.72169458519E+03  0.00000000000E+00 0. -1.
         21   -1    0    0  503  502 -0.00000000000E+00 -0.00000000000E+00 -0.24047121635E+03  0.24047121635E+03  0.00000000000E+00 0. -1.
         25    1    1    2    0    0  0.14704553238E+03  0.29873602755E+03  0.37900269380E+03  0.51974382599E+03  0.12500000000E+03 0.  0.
         21    1    1    2  503  504 -0.38571337238E+02  0.50120360885E+02  0.70436424927E+00  0.63247883447E+02  0.00000000000E+00 0. -1.
         21    1    1    2  504  501 -0.10847419515E+03 -0.34885638844E+03  0.10151631079E+03  0.37917409211E+03  0.00000000000E+00 0. -1.
<mgrwt>
<rscale>  4 0.36496649E+03</rscale>
<asrwt>0</asrwt>
<pdfrwt beam="1">  1       21 0.11102993E+00 0.36496649E+03</pdfrwt>
<pdfrwt beam="2">  1       21 0.36995572E-01 0.36496649E+03</pdfrwt>
<totfact> 0.40596815E+03</totfact>
</mgrwt>
</event>
<event>
 5    0  0.3743649E+000  0.3939292E+03  0.7546771E-02  0.1045902E+00
         21   -1    0    0  502  501  0.00000000000E+00  0.00000000000E+00  0.30875698700E+03  0.30875698700E+03  0.00000000000E+00 0. -1.
         21   -1    0    0  503  502 -0.00000000000E+00 -0.00000000000E+00 -0.49397371792E+03  0.49397371792E+03  0.00000000000E+00 0. -1.
         25    1    1    2    0    0 -0.33268748896E+03 -0.16992424351E+03 -0.30636101249E+02  0.39511869678E+03  0.12500000000E+03 0.  0.
         21    1    1    2  503  504  0.38746076539E+02  0.36849913937E+01 -0.22862070500E+02  0.45138806766E+02  0.00000000000E+00 0. -1.
         21    1    1    2  504  501  0.29394141243E+03  0.16623925212E+03 -0.13171855917E+03  0.36247320137E+03  0.00000000000E+00 0. -1.
<mgrwt>
<rscale>  4 0.39392920E+03</rscale>
<asrwt>0</asrwt>
<pdfrwt beam="1">  1       21 0.47501075E-01 0.39392920E+03</pdfrwt>
<pdfrwt beam="2">  1       21 0.75995956E-01 0.39392920E+03</pdfrwt>
<totfact> 0.58860358E+03</totfact>
</mgrwt>
</event>
<event>
 5    0  0.2474767E+000  0.2443320E+03  0.7546771E-02  0.1116940E+00
         21   -1    0    0  502  501  0.00000000000E+00  0.00000000000E+00  0.26694223395E+03  0.26694223395E+03  0.00000000000E+00 0.  1.
         21   -1    0    0  503  502 -0.00000000000E+00 -0.00000000000E+00 -0.29620087126E+03  0.29620087126E+03  0.00000000000E+00 0.  1.
         25    1    1    2    0    0  0.69999986841E+02  0.19792205304E+03  0.13921036125E+03  0.28120750686E+03  0.12500000000E+03 0.  0.
         21    1    1    2  503  504 -0.77811734606E+02 -0.15635619474E+03 -0.99420013352E+02  0.20096334176E+03  0.00000000000E+00 0.  1.
         21    1    1    2  504  501  0.78117477652E+01 -0.41565858301E+02 -0.69048985204E+02  0.80972256589E+02  0.00000000000E+00 0.  1.
<mgrwt>
<rscale>  4 0.24433202E+03</rscale>
<asrwt>0</asrwt>
<pdfrwt beam="1">  1       21 0.41068036E-01 0.24433202E+03</pdfrwt>
<pdfrwt beam="2">  1       21 0.45569365E-01 0.24433202E+03</pdfrwt>
<totfact> 0.25666520E+04</totfact>
</mgrwt>
</event>
<event>
 5    0  0.2159162E+000  0.2504695E+03  0.7546771E-02  0.1113008E+00
         21   -1    0    0  502  501  0.00000000000E+00  0.00000000000E+00  0.10906006131E+04  0.10906006131E+04  0.00000000000E+00 0.  1.
         21   -1    0    0  503  502 -0.00000000000E+00 -0.00000000000E+00 -0.30150244408E+03  0.30150244408E+03  0.00000000000E+00 0.  1.
         25    1    1    2    0    0 -0.18640001629E+03  0.18181979555E+03  0.97734068459E+03  0.10191286562E+04  0.12500000000E+03 0.  0.
         21    1    1    2  503  504  0.25725214905E+02 -0.38667242296E+02  0.38532820379E+02  0.60346669792E+02  0.00000000000E+00 0. -1.
         21    1    1    2  504  501  0.16067480138E+03 -0.14315255326E+03 -0.22677533595E+03  0.31262773118E+03  0.00000000000E+00 0.  1.
<mgrwt>
<rscale>  4 0.25046951E+03</rscale>
<asrwt>0</asrwt>
<pdfrwt beam="1">  1       21 0.16778471E+00 0.25046951E+03</pdfrwt>
<pdfrwt beam="2">  1       21 0.46384992E-01 0.25046951E+03</pdfrwt>
<totfact> 0.93158802E+02</totfact>
</mgrwt>
</event>
