<event>
 5    0  0.2438172E+000  0.3456350E+03  0.7546771E-02  0.1064421E+00
         21   -1    0    0  502  501  0.00000000000E+00  0.00000000000E+00  0.10012305048E+03  0.10012305048E+03  0.00000000000E+00 0. -1.
         21   -1    0    0  503  502 -0.00000000000E+00 -0.00000000000E+00 -0.11642066797E+04  0.11642066797E+04  0.00000000000E+00 0. -1.
         25    1    1    2    0    0 -0.13060838436E+03  0.29458448140E+03 -0.43611395674E+03  0.55647008007E+03  0.12500000000E+03 0.  0.
         21    1    1    2  503  504  0.91147971210E+02 -0.25328147911E+03 -0.53043551931E+03  0.59482879928E+03  0.00000000000E+00 0. -1.
         21    1    1    2  504  501  0.39460413152E+02 -0.41303002292E+02 -0.97534153178E+02  0.11303085084E+03  0.00000000000E+00 0. -1.
<mgrwt>
<rscale>  4 0.34563502E+03</rscale>
<asrwt>0</asrwt>
<pdfrwt beam="1">  1       21 0.15403547E-01 0.34563502E+03</pdfrwt>
<pdfrwt beam="2">  1       21 0.17910871E+00 0.34563502E+03</pdfrwt>
<totfact> 0.62516854E+03</totfact>
</mgrwt>
</event>
<event>
 5    0  0.4257961E+000  0.2502965E+03  0.7546771E-02  0.1113118E+00
         21   -1    0    0  502  501  0.00000000000E+00  0.00000000000E+00  0.22110047667E+03  0.22110047667E+03  0.00000000000E+00 0.  1.
         21   -1    0    0  503  502 -0.00000000000E+00 -0.00000000000E+00 -0.28622981145E+03  0.28622981145E+03  0.00000000000E+00 0.  1.
         25    1    1    2    0    0 -0.16891769665E+03 -0.13597846618E+03  0.56935795640E+02  0.25669050690E+03  0.12500000000E+03 0.  0.
         21    1    1    2  503  504  0.22891482386E+02  0.66739289961E+01 -0.12365328458E+02  0.26860056626E+02  0.00000000000E+00 0. -1.
         21    1    1    2  504  501  0.14602621427E+03  0.12930453718E+03 -0.10969980197E+03  0.22377972460E+03  0.00000000000E+00 0.  1.
<mgrwt>
<rscale>  4 0.25029649E+03</rscale>
<asrwt>0</asrwt>
<pdfrwt beam="1">  1       21 0.34015458E-01 0.25029649E+03</pdfrwt>
<pdfrwt beam="2">  1       21 0.44035355E-01 0.25029649E+03</pdfrwt>
<totfact> 0.40155055E+04</totfact>
</mgrwt>
</event>
<event>
 5    0  0.2159162E+000  0.3761233E+03  0.7546771E-02  0.1052376E+00
         21   -1    0    0  502  501  0.00000000000E+00  0.00000000000E+00  0.82140267253E+02  0.82140267253E+02  0.00000000000E+00 0.  1.
         21   -1    0    0  503  502 -0.00000000000E+00 -0.00000000000E+00 -0.23672581494E+04  0.23672581494E+04  0.00000000000E+00 0.  1.
         25    1    1    2    0    0  0.34419815573E+03  0.85856653927E+02 -0.48964841933E+03  0.61743364825E+03  0.12500000000E+03 0.  0.
         21    1    1    2  503  504 -0.11262739584E+03 -0.11758139359E+02 -0.75630042978E+03  0.76473101429E+03  0.00000000000E+00 0.  1.
         21    1    1    2  504  501 -0.23157075989E+03 -0.74098514568E+02 -0.10391690330E+04  0.10672337541E+04  0.00000000000E+00 0.  1.
<mgrwt>
<rscale>  4 0.37612330E+03</rscale>
<asrwt>0</asrwt>
<pdfrwt beam="1">  1       21 0.12636967E-01 0.37612330E+03</pdfrwt>
<pdfrwt beam="2">  1       21 0.36419349E+00 0.37612330E+03</pdfrwt>
<totfact> 0.63507916E+02</totfact>
</mgrwt>
</event>
<event>
 5    0  0.2159162E+000  0.2386147E+03  0.7546771E-02  0.1120719E+00
         21   -1    0    0  502  501  0.00000000000E+00  0.00000000000E+00  0.37592905445E+03  0.37592905445E+03  0.00000000000E+00 0. -1.
         21   -1    0    0  503  502 -0.00000000000E+00 -0.00000000000E+00 -0.43517247670E+03  0.43517247670E+03  0.00000000000E+00 0.  1.
         25    1    1    2    0    0  0.82053327192E+02  0.19494699002E+03  0.29344043494E+03  0.38271316450E+03  0.12500000000E+03 0.  0.
         21    1    1    2  503  504 -0.76216481401E+02 -0.14843128161E+03 -0.16396742612E+03  0.23393613280E+03  0.00000000000E+00 0.  1.
         21    1    1    2  504  501 -0.58368457910E+01 -0.46515708410E+02 -0.18871643107E+03  0.19445223386E+03  0.00000000000E+00 0.  1.
<mgrwt>
<rscale>  4 0.23861471E+03</rscale>
<asrwt>0</asrwt>
<pdfrwt beam="1">  1       21 0.57835239E-01 0.23861471E+03</pdfrwt>
<pdfrwt beam="2">  1       21 0.66949612E-01 0.23861471E+03</pdfrwt>
<totfact> 0.55445393E+03</totfact>
</mgrwt>
</event>
<event>
 5    0  0.2159162E+000  0.5396482E+03  0.7546771E-02  0.1003919E+00
         21   -1    0    0  502  501  0.00000000000E+00  0.00000000000E+00  0.12899564637E+04  0.12899564637E+04  0.00000000000E+00 0. -1.
         21   -1    0    0  503  502 -0.00000000000E+00 -0.00000000000E+00 -0.26040170443E+03  0.26040170443E+03  0.00000000000E+00 0. -1.
         25    1    1    2    0    0  0.51848344912E+03 -0.12891106641E+03  0.74853502356E+03  0.92810173556E+03  0.12500000000E+03 0.  0.
         21    1    1    2  503  504 -0.16899492410E+02  0.36801503551E+02  0.10964511972E+01  0.40511056670E+02  0.00000000000E+00 0.  1.
         21    1    1    2  504  501 -0.50158395671E+03  0.92109562857E+02  0.27992328455E+03  0.58174537595E+03  0.00000000000E+00 0. -1.
<mgrwt>
<rscale>  4 0.53964822E+03</rscale>
<asrwt>0</asrwt>
<pdfrwt beam="1">  1       21 0.19845484E+00 0.53964822E+03</pdfrwt>
<pdfrwt beam="2">  1       21 0.40061801E-01 0.53964822E+03</pdfrwt>
<totfact> 0.65771516E+02</totfact>
</mgrwt>
</event>
<event>
 5    0  0.2159162E+000  0.2960017E+03  0.7546771E-02  0.1087257E+00
         21   -1    0    0  502  501  0.00000000000E+00  0.00000000000E+00  0.36900548985E+03  0.36900548985E+03  0.00000000000E+00 0.  1.
         21   -1    0    0  503  502 -0.00000000000E+00 -0.00000000000E+00 -0.48489072786E+03  0.48489072786E+03  0.00000000000E+00 0. -1.
         25    1    1    2    0    0 -0.14015258986E+03 -0.23543293418E+03  0.24577812783E+03  0.38872008317E+03  0.12500000000E+03 0.  0.
         21    1    1    2  503  504  0.12893439025E+03  0.19935450429E+03 -0.35459810381E+03  0.42673892557E+03  0.00000000000E+00 0. -1.
         21    1    1    2  504  501  0.11218199612E+02  0.36078429887E+02 -0.70652620297E+01  0.38437208968E+02  0.00000000000E+00 0. -1.
<mgrwt>
<rscale>  4 0.29600169E+03</rscale>
<asrwt>0</asrwt>
<pdfrwt beam="1">  1       21 0.56770076E-01 0.29600169E+03</pdfrwt>
<pdfrwt beam="2">  1       21 0.74598573E-01 0.29600169E+03</pdfrwt>
<totfact> 0.43870109E+03</totfact>
</mgrwt>
</event>
<event>
 5    0  0.2159162E+000  0.3107958E+03  0.7546771E-02  0.1079965E+00
         21   -1    0    0  502  501  0.00000000000E+00  0.00000000000E+00  0.53532286586E+03  0.53532286586E+03  0.00000000000E+00 0.  1.
         21   -1    0    0  503  502 -0.00000000000E+00 -0.00000000000E+00 -0.16098071683E+04  0.16098071683E+04  0.00000000000E+00 0.  1.
         25    1    1    2    0    0  0.16689797627E+03 -0.23135754779E+03  0.47319442688E+03  0.56649732129E+03  0.12500000000E+03 0.  0.
         21    1    1    2  503  504 -0.18422589052E+02  0.99585519736E+01 -0.39400370938E+03  0.39455986561E+03  0.00000000000E+00 0.  1.
         21    1    1    2  504  501 -0.14847538722E+03  0.22139899581E+03 -0.11536750200E+04  0.11840728473E+04  0.00000000000E+00 0.  1.
<mgrwt>
<rscale>  4 0.31079580E+03</rscale>
<asrwt>0</asrwt>
<pdfrwt beam="1">  1       21 0.82357365E-01 0.31079580E+03</pdfrwt>
<pdfrwt beam="2">  1       21 0.24766264E+00 0.31079580E+03</pdfrwt>
<totfact> 0.76626576E+01</totfact>
</mgrwt>
</event>
<event>
 5    0  0.2159162E+000  0.2200458E+03  0.7546771E-02  0.1133849E+00
         21   -1    0    0  502  501  0.00000000000E+00  0.00000000000E+00  0.28454762190E+03  0.28454762190E+03  0.00000000000E+00 0.  1.
         21   -1    0    0  503  502 -0.00000000000E+00 -0.00000000000E+00 -0.29257346561E+03  0.29257346561E+03  0.00000000000E+00 0.  1.
         25    1    1    2    0    0  0.93301497990E+02  0.21614008545E+03  0.69438408931E+02  0.27544218759E+03  0.12500000000E+03 0.  0.
         21    1    1    2  503  504 -0.12428953139E+03 -0.86614400700E+02 -0.85723525747E+01  0.15173472658E+03  0.00000000000E+00 0.  1.
         21    1    1    2  504  501  0.30988033400E+02 -0.12952568475E+03 -0.68891900068E+02  0.14994417334E+03  0.00000000000E+00 0.  1.
<mgrwt>
<rscale>  4 0.22004577E+03</rscale>
<asrwt>0</asrwt>
<pdfrwt beam="1">  1       21 0.43776557E-01 0.22004577E+03</pdfrwt>
<pdfrwt beam="2">  1       21 0.45011302E-01 0.22004577E+03</pdfrwt>
<totfact> 0.23384032E+04</totfact>
</mgrwt>
</event>
<event>
 5    0  0.2159162E+000  0.2771449E+03  0.7546771E-02  0.1097259E+00
         21   -1    0    0  502  501  0.00000000000E+00  0.00000000000E+00  0.59834267693E+03  0.59834267693E+03  0.00000000000E+00 0. -1.
         21   -1    0    0  503  502 -0.00000000000E+00 -0.00000000000E+00 -0.29904407316E+03  0.29904407316E+03  0.00000000000E+00 0. -1.
         25    1    1    2    0    0 -0.11993448071E+03  0.21633308980E+03  0.50168849565E+03  0.57314974664E+03  0.12500000000E+03 0.  0.
         21    1    1    2  503  504  0.31502941041E+01 -0.46276316855E+02 -0.46369729456E+02  0.65586383224E+02  0.00000000000E+00 0.  1.
         21    1    1    2  504  501  0.11678418660E+03 -0.17005677294E+03 -0.15602016242E+03  0.25865062023E+03  0.00000000000E+00 0. -1.
<mgrwt>
<rscale>  4 0.27714488E+03</rscale>
<asrwt>0</asrwt>
<pdfrwt beam="1">  1       21 0.92052720E-01 0.27714488E+03</pdfrwt>
<pdfrwt beam="2">  1       21 0.46006780E-01 0.27714488E+03</pdfrwt>
<totfact> 0.42599412E+03</totfact>
</mgrwt>
</event>
