<event>
 5    0  0.1911311E+001  0.2035324E+03  0.7546771E-02  0.1146793E+00
         21   -1    0    0  504  501  0.00000000000E+00  0.00000000000E+00  0.48424854376E+03  0.48424854376E+03  0.00000000000E+00 0. -1.
         21   -1    0    0  503  502 -0.00000000000E+00 -0.00000000000E+00 -0.48799114442E+03  0.48799114442E+03  0.00000000000E+00 0. -1.
         25    1    1    2    0    0 -0.17384981021E+03 -0.21252886198E+03 -0.13743410485E+03  0.33151984384E+03  0.12500000000E+03 0.  0.
         21    1    1    2  503  501  0.92421721738E+02  0.82903492202E+02 -0.22151251481E+03  0.25393416053E+03  0.00000000000E+00 0. -1.
         21    1    1    2  504  502  0.81428088470E+02  0.12962536978E+03  0.35520401901E+03  0.38678568381E+03  0.00000000000E+00 0. -1.
<mgrwt>
<rscale>  4 0.20353236E+03</rscale>
<asrwt>0</asrwt>
<pdfrwt beam="1">  1       21 0.74499776E-01 0.20353236E+03</pdfrwt>
<pdfrwt beam="2">  1       21 0.75075560E-01 0.20353236E+03</pdfrwt>
<totfact> 0.25360989E+03</totfact>
</mgrwt>
</event>
<event>
 5    0  0.1911311E+001  0.2475059E+03  0.7546771E-02  0.1114891E+00
         21   -1    0    0  504  501  0.00000000000E+00  0.00000000000E+00  0.12371958568E+04  0.12371958568E+04  0.00000000000E+00 0. -1.
         21   -1    0    0  501  502 -0.00000000000E+00 -0.00000000000E+00 -0.17980175069E+03  0.17980175069E+03  0.00000000000E+00 0. -1.
         25    1    1    2    0    0  0.14358207389E+02  0.27732102617E+03  0.42066311972E+01  0.30455837769E+03  0.12500000000E+03 0.  0.
         21    1    1    2  503  502 -0.56069806375E+02 -0.20166306527E+03  0.97062700663E+03  0.99293937432E+03  0.00000000000E+00 0. -1.
         21    1    1    2  504  503  0.41711598986E+02 -0.75657960895E+02  0.82560468311E+02  0.11949985550E+03  0.00000000000E+00 0. -1.
<mgrwt>
<rscale>  4 0.24750589E+03</rscale>
<asrwt>0</asrwt>
<pdfrwt beam="1">  1       21 0.19033782E+00 0.24750589E+03</pdfrwt>
<pdfrwt beam="2">  1       21 0.27661809E-01 0.24750589E+03</pdfrwt>
<totfact> 0.18397543E+03</totfact>
</mgrwt>
</event>
<event>
 5    0  0.1911311E+001  0.2520401E+03  0.7546771E-02  0.1112022E+00
         21   -1    0    0  504  501  0.00000000000E+00  0.00000000000E+00  0.39190569979E+03  0.39190569979E+03  0.00000000000E+00 0.  1.
         21   -1    0    0  503  502 -0.00000000000E+00 -0.00000000000E+00 -0.21827176993E+03  0.21827176993E+03  0.00000000000E+00 0.  1.
         25    1    1    2    0    0  0.35645630180E+02  0.24038362287E+03  0.63253486188E+02  0.28050115973E+03  0.12500000000E+03 0.  0.
         21    1    1    2  503  501 -0.33489841507E+02 -0.20227029105E+03 -0.81140212563E+01  0.20518449617E+03  0.00000000000E+00 0.  1.
         21    1    1    2  504  502 -0.21557886724E+01 -0.38113331822E+02  0.11849446493E+03  0.12449181381E+03  0.00000000000E+00 0.  1.
<mgrwt>
<rscale>  4 0.25204015E+03</rscale>
<asrwt>0</asrwt>
<pdfrwt beam="1">  1       21 0.60293184E-01 0.25204015E+03</pdfrwt>
<pdfrwt beam="2">  1       21 0.33580272E-01 0.25204015E+03</pdfrwt>
<totfact> 0.21214727E+04</totfact>
</mgrwt>
</event>
<event>
 5    0  0.1911311E+001  0.2415776E+03  0.7546771E-02  0.1118746E+00
         21   -1    0    0  502  501  0.00000000000E+00  0.00000000000E+00  0.13950470778E+04  0.13950470778E+04  0.00000000000E+00 0.  1.
         21   -1    0    0  504  502 -0.00000000000E+00 -0.00000000000E+00 -0.66541953478E+02  0.66541953478E+02  0.00000000000E+00 0.  1.
         25    1    1    2    0    0 -0.20996958232E+03  0.41472931859E+02  0.87013618248E+03  0.90474814487E+03  0.12500000000E+03 0.  0.
         21    1    1    2  503  501  0.41007943681E+01 -0.47828407194E+02  0.28087227183E+03  0.28494491772E+03  0.00000000000E+00 0.  1.
         21    1    1    2  504  503  0.20586878795E+03  0.63554753348E+01  0.17749666997E+03  0.27189596865E+03  0.00000000000E+00 0.  1.
<mgrwt>
<rscale>  4 0.24157757E+03</rscale>
<asrwt>0</asrwt>
<pdfrwt beam="1">  1       21 0.21462261E+00 0.24157757E+03</pdfrwt>
<pdfrwt beam="2">  1       21 0.10237225E-01 0.24157757E+03</pdfrwt>
<totfact> 0.81210077E+03</totfact>
</mgrwt>
</event>
<event>
 5    0  0.1911311E+001  0.2326075E+03  0.7546771E-02  0.1124818E+00
         21   -1    0    0  502  501  0.00000000000E+00  0.00000000000E+00  0.91607563125E+03  0.91607563125E+03  0.00000000000E+00 0. -1.
         21   -1    0    0  504  502 -0.00000000000E+00 -0.00000000000E+00 -0.82061112342E+02  0.82061112342E+02  0.00000000000E+00 0. -1.
         25    1    1    2    0    0 -0.17802375854E+03 -0.10625100242E+03  0.16747874435E+03  0.29437368077E+03  0.12500000000E+03 0.  0.
         21    1    1    2  503  501  0.27989128746E+02  0.15982006953E+02  0.24787479780E+03  0.24996145954E+03  0.00000000000E+00 0. -1.
         21    1    1    2  504  503  0.15003462979E+03  0.90268995470E+02  0.41866097676E+03  0.45380160328E+03  0.00000000000E+00 0. -1.
<mgrwt>
<rscale>  4 0.23260752E+03</rscale>
<asrwt>0</asrwt>
<pdfrwt beam="1">  1       21 0.14093471E+00 0.23260752E+03</pdfrwt>
<pdfrwt beam="2">  1       21 0.12624787E-01 0.23260752E+03</pdfrwt>
<totfact> 0.18373150E+04</totfact>
</mgrwt>
</event>
