<event>
 5    0  0.1911311E+001  0.2690942E+03  0.7546771E-02  0.1101799E+00
         21   -1    0    0  504  501  0.00000000000E+00  0.00000000000E+00  0.86311182392E+03  0.86311182392E+03  0.00000000000E+00 0. -1.
         21   -1    0    0  503  502 -0.00000000000E+00 -0.00000000000E+00 -0.28027768131E+03  0.28027768131E+03  0.00000000000E+00 0. -1.
         25    1    1    2    0    0  0.23265108016E+03  0.14411597796E+03  0.55073542157E+03  0.62755911656E+03  0.12500000000E+03 0.  0.
         21    1    1    2  503  501 -0.17841398354E+03 -0.15311411290E+03 -0.18039426776E+03  0.29634029921E+03  0.00000000000E+00 0. -1.
         21    1    1    2  504  502 -0.54237096620E+02  0.89981349389E+01  0.21249298880E+03  0.21949008946E+03  0.00000000000E+00 0.  1.
<mgrwt>
<rscale>  4 0.26909418E+03</rscale>
<asrwt>0</asrwt>
<pdfrwt beam="1">  1       21 0.13278643E+00 0.26909418E+03</pdfrwt>
<pdfrwt beam="2">  1       21 0.43119644E-01 0.26909418E+03</pdfrwt>
<totfact> 0.19921965E+03</totfact>
</mgrwt>
</event>
<event>
 5    0  0.1911311E+001  0.3965789E+03  0.7546771E-02  0.1044971E+00
         21   -1    0    0  502  501  0.00000000000E+00  0.00000000000E+00  0.53641879670E+03  0.53641879670E+03  0.00000000000E+00 0. -1.
         21   -1    0    0  504  502 -0.00000000000E+00 -0.00000000000E+00 -0.12791754572E+04  0.12791754572E+04  0.00000000000E+00 0. -1.
         25    1    1    2    0    0 -0.30091835365E+03  0.27701675891E+03 -0.10665218242E+04  0.11490796063E+04  0.12500000000E+03 0.  0.
         21    1    1    2  503  501  0.27877814978E+03 -0.24971964197E+03  0.42088890701E+03  0.56322697772E+03  0.00000000000E+00 0. -1.
         21    1    1    2  504  503  0.22140203871E+02 -0.27297116933E+02 -0.97123743331E+02  0.10328766983E+03  0.00000000000E+00 0.  1.
<mgrwt>
<rscale>  4 0.39657888E+03</rscale>
<asrwt>0</asrwt>
<pdfrwt beam="1">  1       21 0.82525970E-01 0.39657888E+03</pdfrwt>
<pdfrwt beam="2">  1       21 0.19679622E+00 0.39657888E+03</pdfrwt>
<totfact> 0.14964103E+02</totfact>
</mgrwt>
</event>
<event>
 5    0  0.1911311E+001  0.2338707E+03  0.7546771E-02  0.1123945E+00
         21   -1    0    0  503  501  0.00000000000E+00  0.00000000000E+00  0.12341543379E+03  0.12341543379E+03  0.00000000000E+00 0. -1.
         21   -1    0    0  504  502 -0.00000000000E+00 -0.00000000000E+00 -0.70646560748E+03  0.70646560748E+03  0.00000000000E+00 0. -1.
         25    1    1    2    0    0  0.62572717810E+02  0.20566745705E+03 -0.42061619427E+03  0.48862811092E+03  0.12500000000E+03 0.  0.
         21    1    1    2  503  502 -0.30496184904E+02 -0.14434595844E+02 -0.14236991665E+03  0.14631325305E+03  0.00000000000E+00 0.  1.
         21    1    1    2  504  501 -0.32076532907E+02 -0.19123286121E+03 -0.20064062776E+02  0.19493967730E+03  0.00000000000E+00 0. -1.
<mgrwt>
<rscale>  4 0.23387068E+03</rscale>
<asrwt>0</asrwt>
<pdfrwt beam="1">  1       21 0.18986990E-01 0.23387068E+03</pdfrwt>
<pdfrwt beam="2">  1       21 0.10868702E+00 0.23387068E+03</pdfrwt>
<totfact> 0.16672277E+04</totfact>
</mgrwt>
</event>
<event>
 5    0  0.1911311E+001  0.2444921E+03  0.7546771E-02  0.1116836E+00
         21   -1    0    0  502  501  0.00000000000E+00  0.00000000000E+00  0.45216470385E+02  0.45216470385E+02  0.00000000000E+00 0.  1.
         21   -1    0    0  504  502 -0.00000000000E+00 -0.00000000000E+00 -0.12187244662E+04  0.12187244662E+04  0.00000000000E+00 0.  1.
         25    1    1    2    0    0 -0.15202641737E+03  0.14504957667E+03 -0.50628404053E+03  0.56222765937E+03  0.12500000000E+03 0.  0.
         21    1    1    2  503  501  0.12890120182E+03 -0.14203206709E+03 -0.55853812253E+03  0.59055352190E+03  0.00000000000E+00 0.  1.
         21    1    1    2  504  503  0.23125215555E+02 -0.30175095822E+01 -0.10868583275E+03  0.11115975531E+03  0.00000000000E+00 0.  1.
<mgrwt>
<rscale>  4 0.24449215E+03</rscale>
<asrwt>0</asrwt>
<pdfrwt beam="1">  1       21 0.69563797E-02 0.24449215E+03</pdfrwt>
<pdfrwt beam="2">  1       21 0.18749608E+00 0.24449215E+03</pdfrwt>
<totfact> 0.23948532E+04</totfact>
</mgrwt>
</event>
<event>
 5    0  0.2512677E+001  0.2979586E+03  0.7546771E-02  0.1086266E+00
         21   -1    0    0  503  501  0.00000000000E+00  0.00000000000E+00  0.77322868121E+03  0.77322868121E+03  0.00000000000E+00 0. -1.
         21   -1    0    0  504  502 -0.00000000000E+00 -0.00000000000E+00 -0.14311428203E+03  0.14311428203E+03  0.00000000000E+00 0.  1.
         25    1    1    2    0    0 -0.12926179792E+03 -0.21121581427E+03  0.49577122242E+03  0.56809755991E+03  0.12500000000E+03 0.  0.
         21    1    1    2  503  502  0.15262185474E+03  0.23317719099E+03  0.88687089568E+02  0.29245586470E+03  0.00000000000E+00 0.  1.
         21    1    1    2  504  501 -0.23360056829E+02 -0.21961376720E+02  0.45656087188E+02  0.55789538624E+02  0.00000000000E+00 0. -1.
<mgrwt>
<rscale>  4 0.29795865E+03</rscale>
<asrwt>0</asrwt>
<pdfrwt beam="1">  1       21 0.11895826E+00 0.29795865E+03</pdfrwt>
<pdfrwt beam="2">  1       21 0.22017582E-01 0.29795865E+03</pdfrwt>
<totfact> 0.97713967E+03</totfact>
</mgrwt>
</event>
<event>
 5    0  0.3515772E+001  0.4087959E+03  0.7546771E-02  0.1040776E+00
         21   -1    0    0  503  501  0.00000000000E+00  0.00000000000E+00  0.47062170107E+03  0.47062170107E+03  0.00000000000E+00 0.  1.
         21   -1    0    0  501  502 -0.00000000000E+00 -0.00000000000E+00 -0.44226510936E+03  0.44226510936E+03  0.00000000000E+00 0.  1.
         25    1    1    2    0    0 -0.37295715056E+03 -0.15908253706E+03 -0.13212812835E+03  0.44439524305E+03  0.12500000000E+03 0.  0.
         21    1    1    2  503  504  0.27472212202E+02 -0.53858286746E+01 -0.30026315987E+02  0.41052518139E+02  0.00000000000E+00 0. -1.
         21    1    1    2  504  502  0.34548493836E+03  0.16446836573E+03  0.19051103605E+03  0.42743904924E+03  0.00000000000E+00 0.  1.
<mgrwt>
<rscale>  4 0.40879586E+03</rscale>
<asrwt>0</asrwt>
<pdfrwt beam="1">  1       21 0.72403339E-01 0.40879586E+03</pdfrwt>
<pdfrwt beam="2">  1       21 0.68040786E-01 0.40879586E+03</pdfrwt>
<totfact> 0.29981641E+03</totfact>
</mgrwt>
</event>
