<event>
 5    0  0.1911311E+001  0.2994991E+03  0.7546771E-02  0.1085491E+00
         21   -1    0    0  502  501  0.00000000000E+00  0.00000000000E+00  0.19097071521E+04  0.19097071521E+04  0.00000000000E+00 0.  1.
         21   -1    0    0  504  502 -0.00000000000E+00 -0.00000000000E+00 -0.40085839964E+03  0.40085839964E+03  0.00000000000E+00 0.  1.
         25    1    1    2    0    0 -0.26471085463E+03  0.15445683520E+03 -0.21108738180E+03  0.39257054558E+03  0.12500000000E+03 0.  0.
         21    1    1    2  503  501  0.25066046606E+03 -0.10328699205E+03  0.18008998333E+04  0.18211916652E+04  0.00000000000E+00 0.  1.
         21    1    1    2  504  503  0.14050388570E+02 -0.51169843148E+02 -0.80963699001E+02  0.96803340969E+02  0.00000000000E+00 0.  1.
<mgrwt>
<rscale>  4 0.29949906E+03</rscale>
<asrwt>0</asrwt>
<pdfrwt beam="1">  1       21 0.29380110E+00 0.29949906E+03</pdfrwt>
<pdfrwt beam="2">  1       21 0.61670524E-01 0.29949906E+03</pdfrwt>
<totfact> 0.78722901E+01</totfact>
</mgrwt>
</event>
<event>
 5    0  0.1911311E+001  0.3426510E+03  0.7546771E-02  0.1065672E+00
         21   -1    0    0  502  501  0.00000000000E+00  0.00000000000E+00  0.60905905926E+03  0.60905905926E+03  0.00000000000E+00 0.  1.
         21   -1    0    0  504  502 -0.00000000000E+00 -0.00000000000E+00 -0.29897141018E+03  0.29897141018E+03  0.00000000000E+00 0.  1.
         25    1    1    2    0    0 -0.12330657383E+03 -0.29641609571E+03  0.42768007861E+03  0.54918326867E+03  0.12500000000E+03 0.  0.
         21    1    1    2  503  501  0.26447578730E+02 -0.77044635470E+00 -0.94861245864E+01  0.28107909349E+02  0.00000000000E+00 0.  1.
         21    1    1    2  504  503  0.96858995102E+02  0.29718654207E+03 -0.10810630494E+03  0.33073929142E+03  0.00000000000E+00 0.  1.
<mgrwt>
<rscale>  4 0.34265099E+03</rscale>
<asrwt>0</asrwt>
<pdfrwt beam="1">  1       21 0.93701393E-01 0.34265099E+03</pdfrwt>
<pdfrwt beam="2">  1       21 0.45995602E-01 0.34265099E+03</pdfrwt>
<totfact> 0.39523414E+03</totfact>
</mgrwt>
</event>
<event>
 5    0  0.1911311E+001  0.2959466E+03  0.7546771E-02  0.1087285E+00
         21   -1    0    0  503  501  0.00000000000E+00  0.00000000000E+00  0.15811007844E+03  0.15811007844E+03  0.00000000000E+00 0.  1.
         21   -1    0    0  504  502 -0.00000000000E+00 -0.00000000000E+00 -0.88113883864E+03  0.88113883864E+03  0.00000000000E+00 0. -1.
         25    1    1    2    0    0  0.22845127934E+03  0.40496817142E+01 -0.19684030642E+03  0.32646208537E+03  0.12500000000E+03 0.  0.
         21    1    1    2  503  502 -0.28292895484E+03 -0.80708043503E+02 -0.54268342734E+03  0.61730696099E+03  0.00000000000E+00 0. -1.
         21    1    1    2  504  501  0.54477675499E+02  0.76658361789E+02  0.16494973558E+02  0.95479870720E+02  0.00000000000E+00 0.  1.
<mgrwt>
<rscale>  4 0.29594656E+03</rscale>
<asrwt>0</asrwt>
<pdfrwt beam="1">  1       21 0.24324627E-01 0.29594656E+03</pdfrwt>
<pdfrwt beam="2">  1       21 0.13555982E+00 0.29594656E+03</pdfrwt>
<totfact> 0.57948948E+03</totfact>
</mgrwt>
</event>
