<event>
 5    0  0.1856407E+000  0.3557569E+03  0.7546771E-02  0.1060277E+00
         21   -1    0    0  502  501  0.00000000000E+00  0.00000000000E+00  0.55387371760E+02  0.55387371760E+02  0.00000000000E+00 0.  1.
         21   -1    0    0  503  502 -0.00000000000E+00 -0.00000000000E+00 -0.24628734690E+04  0.24628734690E+04  0.00000000000E+00 0.  1.
         25    1    1    2    0    0 -0.20023043293E+03  0.26616861544E+03 -0.16661598625E+04  0.17037170086E+04  0.12500000000E+03 0.  0.
         21    1    1    2  503  504  0.16700168773E+03 -0.24796324561E+03 -0.64054687233E+03  0.70687738013E+03  0.00000000000E+00 0.  1.
         21    1    1    2  504  501  0.33228745198E+02 -0.18205369831E+02 -0.10077936242E+03  0.10766645201E+03  0.00000000000E+00 0.  1.
<mgrwt>
<rscale>  4 0.35575688E+03</rscale>
<asrwt>0</asrwt>
<pdfrwt beam="1">  1       21 0.85211373E-02 0.35575688E+03</pdfrwt>
<pdfrwt beam="2">  1       21 0.37890347E+00 0.35575688E+03</pdfrwt>
<totfact> 0.10611099E+03</totfact>
</mgrwt>
</event>
<event>
 5    0  0.1856407E+000  0.3180854E+03  0.7546771E-02  0.1076534E+00
         21   -1    0    0  502  501  0.00000000000E+00  0.00000000000E+00  0.53636353168E+02  0.53636353168E+02  0.00000000000E+00 0.  1.
         21   -1    0    0  503  502 -0.00000000000E+00 -0.00000000000E+00 -0.19070548350E+04  0.19070548350E+04  0.00000000000E+00 0.  1.
         25    1    1    2    0    0 -0.18734201902E+03  0.22462470977E+03 -0.12297526037E+04  0.12702242946E+04  0.12500000000E+03 0.  0.
         21    1    1    2  503  504  0.35278156450E+02 -0.29977282370E+02 -0.66750066603E+02  0.81232734611E+02  0.00000000000E+00 0.  1.
         21    1    1    2  504  501  0.15206386256E+03 -0.19464742740E+03 -0.55691581157E+03  0.60923415898E+03  0.00000000000E+00 0.  1.
<mgrwt>
<rscale>  4 0.31808535E+03</rscale>
<asrwt>0</asrwt>
<pdfrwt beam="1">  1       21 0.82517478E-02 0.31808535E+03</pdfrwt>
<pdfrwt beam="2">  1       21 0.29339301E+00 0.31808535E+03</pdfrwt>
<totfact> 0.37834346E+03</totfact>
</mgrwt>
</event>
<event>
 5    0  0.1856407E+000  0.2510534E+03  0.7546771E-02  0.1112641E+00
         21   -1    0    0  502  501  0.00000000000E+00  0.00000000000E+00  0.10479252999E+04  0.10479252999E+04  0.00000000000E+00 0. -1.
         21   -1    0    0  503  502 -0.00000000000E+00 -0.00000000000E+00 -0.10781128729E+04  0.10781128729E+04  0.00000000000E+00 0.  1.
         25    1    1    2    0    0 -0.14720480278E+03 -0.16517187393E+03  0.10029331659E+04  0.10346259890E+04  0.12500000000E+03 0.  0.
         21    1    1    2  503  504  0.96206679773E+02  0.13373337559E+03 -0.21382347372E+03  0.26992743265E+03  0.00000000000E+00 0. -1.
         21    1    1    2  504  501  0.50998123009E+02  0.31438498341E+02 -0.81929726511E+03  0.82148475114E+03  0.00000000000E+00 0.  1.
<mgrwt>
<rscale>  4 0.25105343E+03</rscale>
<asrwt>0</asrwt>
<pdfrwt beam="1">  1       21 0.16121928E+00 0.25105343E+03</pdfrwt>
<pdfrwt beam="2">  1       21 0.16586352E+00 0.25105343E+03</pdfrwt>
<totfact> 0.52038226E+01</totfact>
</mgrwt>
</event>
<event>
 5    0  0.2084898E+000  0.2209678E+03  0.7546771E-02  0.1133164E+00
         21   -1    0    0  502  501  0.00000000000E+00  0.00000000000E+00  0.92550814870E+02  0.92550814870E+02  0.00000000000E+00 0.  1.
         21   -1    0    0  503  502 -0.00000000000E+00 -0.00000000000E+00 -0.95789709237E+03  0.95789709237E+03  0.00000000000E+00 0.  1.
         25    1    1    2    0    0 -0.99809728140E+02 -0.17500459950E+03 -0.12128854134E+03  0.26631654462E+03  0.12500000000E+03 0.  0.
         21    1    1    2  503  504  0.18770650159E+02  0.12914041868E+03 -0.58882122364E+03  0.60310862907E+03  0.00000000000E+00 0.  1.
         21    1    1    2  504  501  0.81039077982E+02  0.45864180828E+02 -0.15523651251E+03  0.18102273355E+03  0.00000000000E+00 0.  1.
<mgrwt>
<rscale>  4 0.22096782E+03</rscale>
<asrwt>0</asrwt>
<pdfrwt beam="1">  1       21 0.14238587E-01 0.22096782E+03</pdfrwt>
<pdfrwt beam="2">  1       21 0.14736878E+00 0.22096782E+03</pdfrwt>
<totfact> 0.13239747E+04</totfact>
</mgrwt>
</event>
<event>
 5    0  0.2759152E+000  0.2365894E+03  0.7546771E-02  0.1122086E+00
         21   -1    0    0  502  501  0.00000000000E+00  0.00000000000E+00  0.19233899303E+03  0.19233899303E+03  0.00000000000E+00 0.  1.
         21   -1    0    0  503  502 -0.00000000000E+00 -0.00000000000E+00 -0.43760192388E+03  0.43760192388E+03  0.00000000000E+00 0.  1.
         25    1    1    2    0    0 -0.59565457353E+02  0.19183717163E+03  0.74384086834E+02  0.24800712994E+03  0.12500000000E+03 0.  0.
         21    1    1    2  503  504  0.13713946872E+02 -0.23566257998E+02 -0.15590383292E+02  0.31408611973E+02  0.00000000000E+00 0.  1.
         21    1    1    2  504  501  0.45851510481E+02 -0.16827091363E+03 -0.30405663439E+03  0.35052517499E+03  0.00000000000E+00 0.  1.
<mgrwt>
<rscale>  4 0.23658940E+03</rscale>
<asrwt>0</asrwt>
<pdfrwt beam="1">  1       21 0.29590614E-01 0.23658940E+03</pdfrwt>
<pdfrwt beam="2">  1       21 0.67323373E-01 0.23658940E+03</pdfrwt>
<totfact> 0.21560654E+04</totfact>
</mgrwt>
</event>
<event>
 5    0  0.1856407E+000  0.3819121E+03  0.7546771E-02  0.1050229E+00
         21   -1    0    0  502  501  0.00000000000E+00  0.00000000000E+00  0.59869249206E+03  0.59869249206E+03  0.00000000000E+00 0. -1.
         21   -1    0    0  503  502 -0.00000000000E+00 -0.00000000000E+00 -0.63948654131E+03  0.63948654131E+03  0.00000000000E+00 0. -1.
         25    1    1    2    0    0 -0.23220296585E+03  0.27624916431E+03  0.46856053744E+03  0.60448804403E+03  0.12500000000E+03 0.  0.
         21    1    1    2  503  504  0.56212287765E+02 -0.10625749374E+03 -0.98130603360E+02  0.15517761304E+03  0.00000000000E+00 0. -1.
         21    1    1    2  504  501  0.17599067808E+03 -0.16999167057E+03 -0.41122398333E+03  0.47851337630E+03  0.00000000000E+00 0. -1.
<mgrwt>
<rscale>  4 0.38191206E+03</rscale>
<asrwt>0</asrwt>
<pdfrwt beam="1">  1       21 0.92106538E-01 0.38191206E+03</pdfrwt>
<pdfrwt beam="2">  1       21 0.98382545E-01 0.38191206E+03</pdfrwt>
<totfact> 0.74029117E+02</totfact>
</mgrwt>
</event>
<event>
 5    0  0.1856407E+000  0.3494431E+03  0.7546771E-02  0.1062844E+00
         21   -1    0    0  502  501  0.00000000000E+00  0.00000000000E+00  0.36578995187E+03  0.36578995187E+03  0.00000000000E+00 0. -1.
         21   -1    0    0  503  502 -0.00000000000E+00 -0.00000000000E+00 -0.32679634679E+03  0.32679634679E+03  0.00000000000E+00 0. -1.
         25    1    1    2    0    0 -0.32004567797E+03 -0.63688613230E+02 -0.33579027263E+01  0.34945922646E+03  0.12500000000E+03 0.  0.
         21    1    1    2  503  504  0.17765725694E+03  0.61004114928E+02 -0.17489551747E+02  0.18865176226E+03  0.00000000000E+00 0. -1.
         21    1    1    2  504  501  0.14238842103E+03  0.26844983017E+01  0.59841059552E+02  0.15447530995E+03  0.00000000000E+00 0. -1.
<mgrwt>
<rscale>  4 0.34944309E+03</rscale>
<asrwt>0</asrwt>
<pdfrwt beam="1">  1       21 0.56275377E-01 0.34944309E+03</pdfrwt>
<pdfrwt beam="2">  1       21 0.50276361E-01 0.34944309E+03</pdfrwt>
<totfact> 0.10329940E+04</totfact>
</mgrwt>
</event>
<event>
 5    0  0.1856407E+000  0.2980814E+03  0.7546771E-02  0.1086204E+00
         21   -1    0    0  502  501  0.00000000000E+00  0.00000000000E+00  0.45648388459E+03  0.45648388459E+03  0.00000000000E+00 0.  1.
         21   -1    0    0  503  502 -0.00000000000E+00 -0.00000000000E+00 -0.17996886658E+03  0.17996886658E+03  0.00000000000E+00 0. -1.
         25    1    1    2    0    0  0.21291771603E+03  0.16701363331E+03  0.16223270017E+03  0.33936994050E+03  0.12500000000E+03 0.  0.
         21    1    1    2  503  504 -0.49151871432E+02 -0.27823145798E+02  0.41792428240E+02  0.70261233732E+02  0.00000000000E+00 0.  1.
         21    1    1    2  504  501 -0.16376584460E+03 -0.13919048751E+03  0.72489889595E+02  0.22682157694E+03  0.00000000000E+00 0. -1.
<mgrwt>
<rscale>  4 0.29808138E+03</rscale>
<asrwt>0</asrwt>
<pdfrwt beam="1">  1       21 0.70228290E-01 0.29808138E+03</pdfrwt>
<pdfrwt beam="2">  1       21 0.27687518E-01 0.29808138E+03</pdfrwt>
<totfact> 0.21751552E+04</totfact>
</mgrwt>
</event>
<event>
 5    0  0.1856407E+000  0.2628087E+03  0.7546771E-02  0.1105467E+00
         21   -1    0    0  502  501  0.00000000000E+00  0.00000000000E+00  0.17310901714E+04  0.17310901714E+04  0.00000000000E+00 0.  1.
         21   -1    0    0  503  502 -0.00000000000E+00 -0.00000000000E+00 -0.69566847093E+02  0.69566847093E+02  0.00000000000E+00 0.  1.
         25    1    1    2    0    0  0.22547271572E+03  0.51043615186E+02  0.14589386858E+04  0.14824204819E+04  0.12500000000E+03 0.  0.
         21    1    1    2  503  504 -0.88704374198E+02 -0.39572218795E+02  0.38914765939E+02  0.10463644446E+03  0.00000000000E+00 0.  1.
         21    1    1    2  504  501 -0.13676834153E+03 -0.11471396391E+02  0.16366987259E+03  0.21360009216E+03  0.00000000000E+00 0.  1.
<mgrwt>
<rscale>  4 0.26280867E+03</rscale>
<asrwt>0</asrwt>
<pdfrwt beam="1">  1       21 0.26632153E+00 0.26280867E+03</pdfrwt>
<pdfrwt beam="2">  1       21 0.10702593E-01 0.26280867E+03</pdfrwt>
<totfact> 0.35914710E+03</totfact>
</mgrwt>
</event>
<event>
 5    0  0.1856407E+000  0.3854455E+03  0.7546771E-02  0.1048939E+00
         21   -1    0    0  502  501  0.00000000000E+00  0.00000000000E+00  0.20499730761E+04  0.20499730761E+04  0.00000000000E+00 0.  1.
         21   -1    0    0  503  502 -0.00000000000E+00 -0.00000000000E+00 -0.15882524955E+03  0.15882524955E+03  0.00000000000E+00 0.  1.
         25    1    1    2    0    0  0.34894768629E+03 -0.12523570195E+03  0.11396073929E+04  0.12048977047E+04  0.12500000000E+03 0.  0.
         21    1    1    2  503  504 -0.12842850021E+03 -0.22045367490E+03  0.30558572727E+03  0.39809086797E+03  0.00000000000E+00 0.  1.
         21    1    1    2  504  501 -0.22051918607E+03  0.34568937685E+03  0.44595470637E+03  0.60580975300E+03  0.00000000000E+00 0.  1.
<mgrwt>
<rscale>  4 0.38544552E+03</rscale>
<asrwt>0</asrwt>
<pdfrwt beam="1">  1       21 0.31538046E+00 0.38544552E+03</pdfrwt>
<pdfrwt beam="2">  1       21 0.24434655E-01 0.38544552E+03</pdfrwt>
<totfact> 0.36179584E+02</totfact>
</mgrwt>
</event>
<event>
 5    0  0.1856407E+000  0.2502990E+03  0.7546771E-02  0.1113116E+00
         21   -1    0    0  502  501  0.00000000000E+00  0.00000000000E+00  0.11464564204E+04  0.11464564204E+04  0.00000000000E+00 0.  1.
         21   -1    0    0  503  502 -0.00000000000E+00 -0.00000000000E+00 -0.60176866845E+02  0.60176866845E+02  0.00000000000E+00 0.  1.
         25    1    1    2    0    0  0.16061427283E+03  0.14569715250E+03  0.79289856674E+03  0.83146722246E+03  0.12500000000E+03 0.  0.
         21    1    1    2  503  504 -0.23535172098E+02 -0.59705335665E+02  0.13124493632E+03  0.14609539603E+03  0.00000000000E+00 0.  1.
         21    1    1    2  504  501 -0.13707910073E+03 -0.85991816831E+02  0.16213605053E+03  0.22907066879E+03  0.00000000000E+00 0.  1.
<mgrwt>
<rscale>  4 0.25029903E+03</rscale>
<asrwt>0</asrwt>
<pdfrwt beam="1">  1       21 0.17637789E+00 0.25029903E+03</pdfrwt>
<pdfrwt beam="2">  1       21 0.92579804E-02 0.25029903E+03</pdfrwt>
<totfact> 0.17236944E+04</totfact>
</mgrwt>
</event>
<event>
 5    0  0.1856407E+000  0.5053294E+03  0.7546771E-02  0.1012397E+00
         21   -1    0    0  502  501  0.00000000000E+00  0.00000000000E+00  0.65460448372E+03  0.65460448372E+03  0.00000000000E+00 0. -1.
         21   -1    0    0  503  502 -0.00000000000E+00 -0.00000000000E+00 -0.93420992704E+03  0.93420992704E+03  0.00000000000E+00 0. -1.
         25    1    1    2    0    0  0.48502722023E+03  0.75279593558E+02  0.42478422393E+03  0.66104845395E+03  0.12500000000E+03 0.  0.
         21    1    1    2  503  504 -0.49179940506E+03  0.33787803380E+02 -0.60124290850E+03  0.77749682025E+03  0.00000000000E+00 0. -1.
         21    1    1    2  504  501  0.67721848348E+01 -0.10906739694E+03 -0.10314675875E+03  0.15026913656E+03  0.00000000000E+00 0.  1.
<mgrwt>
<rscale>  4 0.50532935E+03</rscale>
<asrwt>0</asrwt>
<pdfrwt beam="1">  1       21 0.10070838E+00 0.50532935E+03</pdfrwt>
<pdfrwt beam="2">  1       21 0.14372460E+00 0.50532935E+03</pdfrwt>
<totfact> 0.21518931E+02</totfact>
</mgrwt>
</event>
<event>
 5    0  0.1856407E+000  0.2894530E+03  0.7546771E-02  0.1090635E+00
         21   -1    0    0  502  501  0.00000000000E+00  0.00000000000E+00  0.34194618365E+03  0.34194618365E+03  0.00000000000E+00 0.  1.
         21   -1    0    0  503  502 -0.00000000000E+00 -0.00000000000E+00 -0.45278748166E+03  0.45278748166E+03  0.00000000000E+00 0.  1.
         25    1    1    2    0    0  0.21355757878E+03 -0.15017057832E+03  0.22324124931E+03  0.36554028155E+03  0.12500000000E+03 0.  0.
         21    1    1    2  503  504 -0.11021782498E+03  0.10280771649E+03 -0.23048661685E+03  0.27539331157E+03  0.00000000000E+00 0.  1.
         21    1    1    2  504  501 -0.10333975380E+03  0.47362861832E+02 -0.10359593047E+03  0.15380007219E+03  0.00000000000E+00 0.  1.
<mgrwt>
<rscale>  4 0.28945300E+03</rscale>
<asrwt>0</asrwt>
<pdfrwt beam="1">  1       21 0.52607105E-01 0.28945300E+03</pdfrwt>
<pdfrwt beam="2">  1       21 0.69659613E-01 0.28945300E+03</pdfrwt>
<totfact> 0.60384710E+03</totfact>
</mgrwt>
</event>
<event>
 5    0  0.1856407E+000  0.2589029E+03  0.7546771E-02  0.1107804E+00
         21   -1    0    0  502  501  0.00000000000E+00  0.00000000000E+00  0.11788711893E+03  0.11788711893E+03  0.00000000000E+00 0.  1.
         21   -1    0    0  503  502 -0.00000000000E+00 -0.00000000000E+00 -0.73886899459E+03  0.73886899459E+03  0.00000000000E+00 0.  1.
         25    1    1    2    0    0 -0.13011998446E+03 -0.18567309727E+03 -0.54211281007E+03  0.60076368752E+03  0.12500000000E+03 0.  0.
         21    1    1    2  503  504  0.64799711321E+01  0.53898310021E+02 -0.48430018560E+02  0.72749464237E+02  0.00000000000E+00 0.  1.
         21    1    1    2  504  501  0.12364001333E+03  0.13177478725E+03 -0.30439047029E+02  0.18324296176E+03  0.00000000000E+00 0.  1.
<mgrwt>
<rscale>  4 0.25890290E+03</rscale>
<asrwt>0</asrwt>
<pdfrwt beam="1">  1       21 0.18136480E-01 0.25890290E+03</pdfrwt>
<pdfrwt beam="2">  1       21 0.11367215E+00 0.25890290E+03</pdfrwt>
<totfact> 0.16061474E+04</totfact>
</mgrwt>
</event>
<event>
 5    0  0.2589520E+000  0.2594156E+03  0.7546771E-02  0.1107495E+00
         21   -1    0    0  502  501  0.00000000000E+00  0.00000000000E+00  0.89895678122E+02  0.89895678122E+02  0.00000000000E+00 0.  1.
         21   -1    0    0  503  502 -0.00000000000E+00 -0.00000000000E+00 -0.90040744904E+03  0.90040744904E+03  0.00000000000E+00 0.  1.
         25    1    1    2    0    0  0.21177266157E+03 -0.82606184489E+02 -0.17165674156E+03  0.31106667907E+03  0.12500000000E+03 0.  0.
         21    1    1    2  503  504 -0.46330419695E+02  0.26172144926E+02 -0.10906477647E+03  0.12135326294E+03  0.00000000000E+00 0. -1.
         21    1    1    2  504  501 -0.16544224188E+03  0.56434039564E+02 -0.52979025289E+03  0.55788318515E+03  0.00000000000E+00 0.  1.
<mgrwt>
<rscale>  4 0.25941558E+03</rscale>
<asrwt>0</asrwt>
<pdfrwt beam="1">  1       21 0.13830104E-01 0.25941558E+03</pdfrwt>
<pdfrwt beam="2">  1       21 0.13852422E+00 0.25941558E+03</pdfrwt>
<totfact> 0.16052096E+04</totfact>
</mgrwt>
</event>
