<event>
 5    0  0.1911311E+001  0.2584155E+03  0.7546771E-02  0.1108099E+00
         21   -1    0    0  504  501  0.00000000000E+00  0.00000000000E+00  0.24499855083E+03  0.24499855083E+03  0.00000000000E+00 0. -1.
         21   -1    0    0  503  502 -0.00000000000E+00 -0.00000000000E+00 -0.37905976003E+03  0.37905976003E+03  0.00000000000E+00 0. -1.
         25    1    1    2    0    0 -0.19376071997E+03 -0.11524495388E+03 -0.20291521764E+03  0.32806127713E+03  0.12500000000E+03 0.  0.
         21    1    1    2  503  501  0.26014505396E+02 -0.38358102184E+02 -0.21711812126E+02  0.51181063685E+02  0.00000000000E+00 0. -1.
         21    1    1    2  504  502  0.16774621458E+03  0.15360305607E+03  0.90565820566E+02  0.24481597005E+03  0.00000000000E+00 0. -1.
<mgrwt>
<rscale>  4 0.25841551E+03</rscale>
<asrwt>0</asrwt>
<pdfrwt beam="1">  1       21 0.37692085E-01 0.25841551E+03</pdfrwt>
<pdfrwt beam="2">  1       21 0.58316886E-01 0.25841551E+03</pdfrwt>
<totfact> 0.18034837E+04</totfact>
</mgrwt>
</event>
<event>
 5    0  0.1911311E+001  0.3216326E+03  0.7546771E-02  0.1074900E+00
         21   -1    0    0  504  501  0.00000000000E+00  0.00000000000E+00  0.18363948250E+04  0.18363948250E+04  0.00000000000E+00 0.  1.
         21   -1    0    0  503  502 -0.00000000000E+00 -0.00000000000E+00 -0.25680777596E+03  0.25680777596E+03  0.00000000000E+00 0.  1.
         25    1    1    2    0    0 -0.29477365694E+02 -0.25485086379E+03  0.60379270569E+02  0.29169939008E+03  0.12500000000E+03 0.  0.
         21    1    1    2  503  501 -0.19782836259E+03  0.45577592369E+02 -0.44275905800E+02  0.20778290066E+03  0.00000000000E+00 0.  1.
         21    1    1    2  504  502  0.22730572828E+03  0.20927327142E+03  0.15634836843E+04  0.15937203102E+04  0.00000000000E+00 0.  1.
<mgrwt>
<rscale>  4 0.32163259E+03</rscale>
<asrwt>0</asrwt>
<pdfrwt beam="1">  1       21 0.28252227E+00 0.32163259E+03</pdfrwt>
<pdfrwt beam="2">  1       21 0.39508890E-01 0.32163259E+03</pdfrwt>
<totfact> 0.22972935E+02</totfact>
</mgrwt>
</event>
<event>
 5    0  0.1911311E+001  0.2320033E+03  0.7546771E-02  0.1125238E+00
         21   -1    0    0  504  501  0.00000000000E+00  0.00000000000E+00  0.11027200178E+03  0.11027200178E+03  0.00000000000E+00 0.  1.
         21   -1    0    0  503  502 -0.00000000000E+00 -0.00000000000E+00 -0.13826999782E+04  0.13826999782E+04  0.00000000000E+00 0.  1.
         25    1    1    2    0    0  0.21219036784E+03  0.23120084726E+03 -0.60563190093E+03  0.69346491144E+03  0.12500000000E+03 0.  0.
         21    1    1    2  503  501 -0.14213894163E+03 -0.72597467521E+02 -0.58760203599E+03  0.60889245661E+03  0.00000000000E+00 0.  1.
         21    1    1    2  504  502 -0.70051426217E+02 -0.15860337974E+03 -0.79194039473E+02  0.19061461189E+03  0.00000000000E+00 0.  1.
<mgrwt>
<rscale>  4 0.23200332E+03</rscale>
<asrwt>0</asrwt>
<pdfrwt beam="1">  1       21 0.16964923E-01 0.23200332E+03</pdfrwt>
<pdfrwt beam="2">  1       21 0.21272308E+00 0.23200332E+03</pdfrwt>
<totfact> 0.33682222E+03</totfact>
</mgrwt>
</event>
<event>
 5    0  0.2023882E+001  0.3220245E+03  0.7546771E-02  0.1074721E+00
         21   -1    0    0  502  501  0.00000000000E+00  0.00000000000E+00  0.47213129900E+03  0.47213129900E+03  0.00000000000E+00 0.  1.
         21   -1    0    0  504  502 -0.00000000000E+00 -0.00000000000E+00 -0.30063178990E+03  0.30063178990E+03  0.00000000000E+00 0.  1.
         25    1    1    2    0    0  0.15696821652E+03 -0.30053704851E+03  0.18064293412E+03  0.40400298040E+03  0.12500000000E+03 0.  0.
         21    1    1    2  503  501 -0.19070950399E+02  0.56112852345E+02  0.55032230232E+02  0.80875828971E+02  0.00000000000E+00 0. -1.
         21    1    1    2  504  503 -0.13789726613E+03  0.24442419616E+03 -0.64175655254E+02  0.28788427953E+03  0.00000000000E+00 0.  1.
<mgrwt>
<rscale>  4 0.32202447E+03</rscale>
<asrwt>0</asrwt>
<pdfrwt beam="1">  1       21 0.72635584E-01 0.32202447E+03</pdfrwt>
<pdfrwt beam="2">  1       21 0.46251045E-01 0.32202447E+03</pdfrwt>
<totfact> 0.70995289E+03</totfact>
</mgrwt>
</event>
