<event>
 5    0  0.1467858E+000  0.2448565E+03  0.7546771E-02  0.1116599E+00
         21   -1    0    0  504  501  0.00000000000E+00  0.00000000000E+00  0.17935508090E+03  0.17935508090E+03  0.00000000000E+00 0.  1.
         21   -1    0    0  501  502 -0.00000000000E+00 -0.00000000000E+00 -0.10959258245E+04  0.10959258245E+04  0.00000000000E+00 0. -1.
         25    1    1    2    0    0 -0.20653189996E+03  0.29121626294E+02 -0.95160952410E+03  0.98218591987E+03  0.12500000000E+03 0.  0.
         21    1    1    2  503  502 -0.26365861195E+02 -0.48710456520E+02 -0.63059348335E+01  0.55746139105E+02  0.00000000000E+00 0.  1.
         21    1    1    2  504  503  0.23289776116E+03  0.19588830227E+02  0.41344715327E+02  0.23734884644E+03  0.00000000000E+00 0.  1.
<mgrwt>
<rscale>  4 0.24485654E+03</rscale>
<asrwt>0</asrwt>
<pdfrwt beam="1">  1       21 0.27593089E-01 0.24485654E+03</pdfrwt>
<pdfrwt beam="2">  1       21 0.16860397E+00 0.24485654E+03</pdfrwt>
<totfact> 0.26154384E+03</totfact>
</mgrwt>
</event>
<event>
 5    0  0.1467858E+000  0.2914767E+03  0.7546771E-02  0.1089581E+00
         21   -1    0    0  504  501  0.00000000000E+00  0.00000000000E+00  0.34435383121E+03  0.34435383121E+03  0.00000000000E+00 0.  1.
         21   -1    0    0  501  502 -0.00000000000E+00 -0.00000000000E+00 -0.24805509229E+03  0.24805509229E+03  0.00000000000E+00 0.  1.
         25    1    1    2    0    0 -0.22718976235E+03  0.13311080428E+03  0.23438363038E+01  0.29148613672E+03  0.12500000000E+03 0.  0.
         21    1    1    2  503  502  0.15225382260E+03 -0.11343856026E+03  0.15242377897E+02  0.19047798700E+03  0.00000000000E+00 0.  1.
         21    1    1    2  504  503  0.74935939749E+02 -0.19672244019E+02  0.78712524712E+02  0.11044479977E+03  0.00000000000E+00 0.  1.
<mgrwt>
<rscale>  4 0.29147671E+03</rscale>
<asrwt>0</asrwt>
<pdfrwt beam="1">  1       21 0.52977512E-01 0.29147671E+03</pdfrwt>
<pdfrwt beam="2">  1       21 0.38162322E-01 0.29147671E+03</pdfrwt>
<totfact> 0.21286330E+04</totfact>
</mgrwt>
</event>
<event>
 5    0  0.1467858E+000  0.3099195E+03  0.7546771E-02  0.1080384E+00
         21   -1    0    0  504  501  0.00000000000E+00  0.00000000000E+00  0.17269314068E+03  0.17269314068E+03  0.00000000000E+00 0. -1.
         21   -1    0    0  501  502 -0.00000000000E+00 -0.00000000000E+00 -0.71814518348E+03  0.71814518348E+03  0.00000000000E+00 0.  1.
         25    1    1    2    0    0 -0.21633638832E+03  0.18336761648E+03 -0.50901523217E+03  0.59594179436E+03  0.12500000000E+03 0.  0.
         21    1    1    2  503  502  0.25923048451E+02 -0.42943596820E+00  0.79966230030E+01  0.27131804873E+02  0.00000000000E+00 0.  1.
         21    1    1    2  504  503  0.19041333987E+03 -0.18293818051E+03 -0.44433433629E+02  0.26776472493E+03  0.00000000000E+00 0. -1.
<mgrwt>
<rscale>  4 0.30991953E+03</rscale>
<asrwt>0</asrwt>
<pdfrwt beam="1">  1       21 0.26568176E-01 0.30991953E+03</pdfrwt>
<pdfrwt beam="2">  1       21 0.11048387E+00 0.30991953E+03</pdfrwt>
<totfact> 0.81278554E+03</totfact>
</mgrwt>
</event>
<event>
 5    0  0.1467858E+000  0.3508146E+03  0.7546771E-02  0.1062281E+00
         21   -1    0    0  504  501  0.00000000000E+00  0.00000000000E+00  0.35902672221E+03  0.35902672221E+03  0.00000000000E+00 0.  1.
         21   -1    0    0  501  502 -0.00000000000E+00 -0.00000000000E+00 -0.43277099329E+03  0.43277099329E+03  0.00000000000E+00 0.  1.
         25    1    1    2    0    0  0.17987618659E+03 -0.27402641172E+03  0.16021245182E+03  0.38566688546E+03  0.12500000000E+03 0.  0.
         21    1    1    2  503  502 -0.33419266423E+02  0.33118302500E+02 -0.54176516277E+02  0.71754890040E+02  0.00000000000E+00 0. -1.
         21    1    1    2  504  503 -0.14645692017E+03  0.24090810922E+03 -0.17978020662E+03  0.33437593999E+03  0.00000000000E+00 0.  1.
<mgrwt>
<rscale>  4 0.35081465E+03</rscale>
<asrwt>0</asrwt>
<pdfrwt beam="1">  1       21 0.55234880E-01 0.35081465E+03</pdfrwt>
<pdfrwt beam="2">  1       21 0.66580153E-01 0.35081465E+03</pdfrwt>
<totfact> 0.58488331E+03</totfact>
</mgrwt>
</event>
<event>
 5    0  0.1467858E+000  0.2423904E+03  0.7546771E-02  0.1118211E+00
         21   -1    0    0  504  501  0.00000000000E+00  0.00000000000E+00  0.95414470928E+02  0.95414470928E+02  0.00000000000E+00 0. -1.
         21   -1    0    0  501  502 -0.00000000000E+00 -0.00000000000E+00 -0.12195540888E+04  0.12195540888E+04  0.00000000000E+00 0. -1.
         25    1    1    2    0    0 -0.19547443366E+03  0.70127435075E+02 -0.10668600926E+04  0.10940491619E+04  0.12500000000E+03 0.  0.
         21    1    1    2  503  502  0.54555130298E+02 -0.35246049204E+01  0.54897389363E+00  0.54671623846E+02  0.00000000000E+00 0. -1.
         21    1    1    2  504  503  0.14091930336E+03 -0.66602830155E+02 -0.57828499121E+02  0.16624777399E+03  0.00000000000E+00 0. -1.
<mgrwt>
<rscale>  4 0.24239041E+03</rscale>
<asrwt>0</asrwt>
<pdfrwt beam="1">  1       21 0.14679150E-01 0.24239041E+03</pdfrwt>
<pdfrwt beam="2">  1       21 0.18762370E+00 0.24239041E+03</pdfrwt>
<totfact> 0.63416282E+03</totfact>
</mgrwt>
</event>
<event>
 5    0  0.1467858E+000  0.2836936E+03  0.7546771E-02  0.1093689E+00
         21   -1    0    0  504  501  0.00000000000E+00  0.00000000000E+00  0.10302813793E+04  0.10302813793E+04  0.00000000000E+00 0.  1.
         21   -1    0    0  501  502 -0.00000000000E+00 -0.00000000000E+00 -0.81368630184E+02  0.81368630184E+02  0.00000000000E+00 0.  1.
         25    1    1    2    0    0 -0.19533556387E+03  0.16229459512E+03  0.35669006854E+03  0.45535516151E+03  0.12500000000E+03 0.  0.
         21    1    1    2  503  502  0.14995259550E+02  0.19849337035E+02  0.75487874055E+02  0.79481275273E+02  0.00000000000E+00 0.  1.
         21    1    1    2  504  503  0.18034030432E+03 -0.18214393215E+03  0.51673480652E+03  0.57681357270E+03  0.00000000000E+00 0.  1.
<mgrwt>
<rscale>  4 0.28369358E+03</rscale>
<asrwt>0</asrwt>
<pdfrwt beam="1">  1       21 0.15850482E+00 0.28369358E+03</pdfrwt>
<pdfrwt beam="2">  1       21 0.12518252E-01 0.28369358E+03</pdfrwt>
<totfact> 0.13271526E+04</totfact>
</mgrwt>
</event>
<event>
 5    0  0.1467858E+000  0.2763874E+03  0.7546771E-02  0.1097679E+00
         21   -1    0    0  504  501  0.00000000000E+00  0.00000000000E+00  0.26825701902E+04  0.26825701902E+04  0.00000000000E+00 0. -1.
         21   -1    0    0  501  502 -0.00000000000E+00 -0.00000000000E+00 -0.40271930294E+02  0.40271930294E+02  0.00000000000E+00 0. -1.
         25    1    1    2    0    0  0.24443408706E+03  0.31889989817E+02  0.55386007018E+03  0.61899189954E+03  0.12500000000E+03 0.  0.
         21    1    1    2  503  502 -0.78794957585E+02  0.17928905618E+02  0.72191773896E+03  0.72642639876E+03  0.00000000000E+00 0. -1.
         21    1    1    2  504  503 -0.16563912947E+03 -0.49818895435E+02  0.13665204508E+04  0.13774238222E+04  0.00000000000E+00 0. -1.
<mgrwt>
<rscale>  4 0.27638740E+03</rscale>
<asrwt>0</asrwt>
<pdfrwt beam="1">  1       21 0.41270297E+00 0.27638740E+03</pdfrwt>
<pdfrwt beam="2">  1       21 0.61956837E-02 0.27638740E+03</pdfrwt>
<totfact> 0.12170262E+03</totfact>
</mgrwt>
</event>
<event>
 5    0  0.1467858E+000  0.3158735E+03  0.7546771E-02  0.1077564E+00
         21   -1    0    0  504  501  0.00000000000E+00  0.00000000000E+00  0.53388644005E+03  0.53388644005E+03  0.00000000000E+00 0.  1.
         21   -1    0    0  501  502 -0.00000000000E+00 -0.00000000000E+00 -0.17656145773E+03  0.17656145773E+03  0.00000000000E+00 0.  1.
         25    1    1    2    0    0  0.28350928237E+03 -0.61429484854E+02  0.18718973044E+03  0.36717310629E+03  0.12500000000E+03 0.  0.
         21    1    1    2  503  502 -0.19303276670E+03  0.35952283722E+02  0.76876860222E+02  0.21086551961E+03  0.00000000000E+00 0.  1.
         21    1    1    2  504  503 -0.90476515668E+02  0.25477201132E+02  0.93258391658E+02  0.13240927188E+03  0.00000000000E+00 0.  1.
<mgrwt>
<rscale>  4 0.31587354E+03</rscale>
<asrwt>0</asrwt>
<pdfrwt beam="1">  1       21 0.82136375E-01 0.31587354E+03</pdfrwt>
<pdfrwt beam="2">  1       21 0.27163301E-01 0.31587354E+03</pdfrwt>
<totfact> 0.15721057E+04</totfact>
</mgrwt>
</event>
<event>
 5    0  0.1467858E+000  0.2562663E+03  0.7546771E-02  0.1109407E+00
         21   -1    0    0  504  501  0.00000000000E+00  0.00000000000E+00  0.24803200633E+03  0.24803200633E+03  0.00000000000E+00 0.  1.
         21   -1    0    0  501  502 -0.00000000000E+00 -0.00000000000E+00 -0.31285043604E+03  0.31285043604E+03  0.00000000000E+00 0.  1.
         25    1    1    2    0    0 -0.12942788288E+03  0.18247154159E+03 -0.16450433670E+03  0.30452276951E+03  0.12500000000E+03 0.  0.
         21    1    1    2  503  502  0.55466647565E+01 -0.33985160779E+02 -0.75304324915E+01  0.35248603612E+02  0.00000000000E+00 0. -1.
         21    1    1    2  504  503  0.12388121813E+03 -0.14848638081E+03  0.10721633949E+03  0.22111106925E+03  0.00000000000E+00 0.  1.
<mgrwt>
<rscale>  4 0.25626635E+03</rscale>
<asrwt>0</asrwt>
<pdfrwt beam="1">  1       21 0.38158770E-01 0.25626635E+03</pdfrwt>
<pdfrwt beam="2">  1       21 0.48130836E-01 0.25626635E+03</pdfrwt>
<totfact> 0.26449789E+04</totfact>
</mgrwt>
</event>
<event>
 5    0  0.1467858E+000  0.3361532E+03  0.7546771E-02  0.1068446E+00
         21   -1    0    0  504  501  0.00000000000E+00  0.00000000000E+00  0.10395633190E+04  0.10395633190E+04  0.00000000000E+00 0. -1.
         21   -1    0    0  501  502 -0.00000000000E+00 -0.00000000000E+00 -0.30746626558E+03  0.30746626558E+03  0.00000000000E+00 0.  1.
         25    1    1    2    0    0 -0.22645450575E+03  0.21469123662E+03 -0.17836934874E+03  0.38054512850E+03  0.12500000000E+03 0.  0.
         21    1    1    2  503  502  0.55417000154E+02 -0.10808149735E+03  0.30208588854E+03  0.32558952384E+03  0.00000000000E+00 0. -1.
         21    1    1    2  504  503  0.17103750560E+03 -0.10660973927E+03  0.60838051357E+03  0.64089493220E+03  0.00000000000E+00 0. -1.
<mgrwt>
<rscale>  4 0.33615319E+03</rscale>
<asrwt>0</asrwt>
<pdfrwt beam="1">  1       21 0.15993282E+00 0.33615319E+03</pdfrwt>
<pdfrwt beam="2">  1       21 0.47302503E-01 0.33615319E+03</pdfrwt>
<totfact> 0.96068578E+02</totfact>
</mgrwt>
</event>
<event>
 5    0  0.1467858E+000  0.2622444E+03  0.7546771E-02  0.1105802E+00
         21   -1    0    0  504  501  0.00000000000E+00  0.00000000000E+00  0.44336687652E+03  0.44336687652E+03  0.00000000000E+00 0.  1.
         21   -1    0    0  501  502 -0.00000000000E+00 -0.00000000000E+00 -0.21977390839E+03  0.21977390839E+03  0.00000000000E+00 0.  1.
         25    1    1    2    0    0  0.16761278359E+03 -0.15828170099E+03 -0.82900131033E+02  0.27503558645E+03  0.12500000000E+03 0.  0.
         21    1    1    2  503  502 -0.30100061762E+02  0.60186821485E+02  0.66331283834E+02  0.94489715915E+02  0.00000000000E+00 0.  1.
         21    1    1    2  504  503 -0.13751272183E+03  0.98094879505E+02  0.24016181532E+03  0.29361548254E+03  0.00000000000E+00 0.  1.
<mgrwt>
<rscale>  4 0.26224443E+03</rscale>
<asrwt>0</asrwt>
<pdfrwt beam="1">  1       21 0.68210289E-01 0.26224443E+03</pdfrwt>
<pdfrwt beam="2">  1       21 0.33811371E-01 0.26224443E+03</pdfrwt>
<totfact> 0.15899352E+04</totfact>
</mgrwt>
</event>
<event>
 5    0  0.1467858E+000  0.3500587E+03  0.7546771E-02  0.1062891E+00
         21   -1    0    0  504  501  0.00000000000E+00  0.00000000000E+00  0.51474474342E+03  0.51474474342E+03  0.00000000000E+00 0. -1.
         21   -1    0    0  501  502 -0.00000000000E+00 -0.00000000000E+00 -0.28973428202E+03  0.28973428202E+03  0.00000000000E+00 0. -1.
         25    1    1    2    0    0 -0.45884693525E+02 -0.32059856571E+03 -0.60958020395E+02  0.35246237485E+03  0.12500000000E+03 0.  0.
         21    1    1    2  503  502 -0.34561759178E+02  0.20616828595E+03  0.15331558156E+03  0.25924032263E+03  0.00000000000E+00 0. -1.
         21    1    1    2  504  503  0.80446452702E+02  0.11443027976E+03  0.13265290024E+03  0.19277632796E+03  0.00000000000E+00 0. -1.
<mgrwt>
<rscale>  4 0.34932950E+03</rscale>
<asrwt>0</asrwt>
<pdfrwt beam="1">  1       21 0.79191499E-01 0.35005868E+03</pdfrwt>
<pdfrwt beam="2">  1       21 0.44574505E-01 0.35005868E+03</pdfrwt>
<totfact> 0.62258969E+03</totfact>
</mgrwt>
</event>
<event>
 5    0  0.1467858E+000  0.3084291E+03  0.7546771E-02  0.1081101E+00
         21   -1    0    0  504  501  0.00000000000E+00  0.00000000000E+00  0.13160205500E+04  0.13160205500E+04  0.00000000000E+00 0.  1.
         21   -1    0    0  501  502 -0.00000000000E+00 -0.00000000000E+00 -0.75216593949E+02  0.75216593949E+02  0.00000000000E+00 0.  1.
         25    1    1    2    0    0 -0.17392060174E+03 -0.22193504550E+03  0.41333347941E+03  0.51572580440E+03  0.12500000000E+03 0.  0.
         21    1    1    2  503  502  0.35183492969E+02  0.23523019065E+02  0.15946454016E+03  0.16498530290E+03  0.00000000000E+00 0.  1.
         21    1    1    2  504  503  0.13873710877E+03  0.19841202643E+03  0.66800593650E+03  0.71052603667E+03  0.00000000000E+00 0.  1.
<mgrwt>
<rscale>  4 0.30842915E+03</rscale>
<asrwt>0</asrwt>
<pdfrwt beam="1">  1       21 0.20246468E+00 0.30842915E+03</pdfrwt>
<pdfrwt beam="2">  1       21 0.11571785E-01 0.30842915E+03</pdfrwt>
<totfact> 0.74750874E+03</totfact>
</mgrwt>
</event>
<event>
 5    0  0.1467858E+000  0.3027103E+03  0.7546771E-02  0.1083894E+00
         21   -1    0    0  504  501  0.00000000000E+00  0.00000000000E+00  0.39887120610E+03  0.39887120610E+03  0.00000000000E+00 0. -1.
         21   -1    0    0  501  502 -0.00000000000E+00 -0.00000000000E+00 -0.31928594522E+03  0.31928594522E+03  0.00000000000E+00 0. -1.
         25    1    1    2    0    0  0.23370451092E+03 -0.14625569417E+03 -0.15814091499E+03  0.34152902584E+03  0.12500000000E+03 0.  0.
         21    1    1    2  503  502 -0.14280162179E+03  0.11467718367E+03  0.20520550568E+03  0.27504992129E+03  0.00000000000E+00 0. -1.
         21    1    1    2  504  503 -0.90902889128E+02  0.31578510493E+02  0.32520670199E+02  0.10157820419E+03  0.00000000000E+00 0.  1.
<mgrwt>
<rscale>  4 0.30271030E+03</rscale>
<asrwt>0</asrwt>
<pdfrwt beam="1">  1       21 0.61364801E-01 0.30271030E+03</pdfrwt>
<pdfrwt beam="2">  1       21 0.49120915E-01 0.30271030E+03</pdfrwt>
<totfact> 0.91696636E+03</totfact>
</mgrwt>
</event>
<event>
 5    0  0.1467858E+000  0.2481294E+03  0.7546771E-02  0.1114493E+00
         21   -1    0    0  504  501  0.00000000000E+00  0.00000000000E+00  0.17427941342E+04  0.17427941342E+04  0.00000000000E+00 0.  1.
         21   -1    0    0  501  502 -0.00000000000E+00 -0.00000000000E+00 -0.35905547430E+02  0.35905547430E+02  0.00000000000E+00 0.  1.
         25    1    1    2    0    0 -0.20032565566E+03 -0.76241990185E+02  0.12016940850E+04  0.12270439614E+04  0.12500000000E+03 0.  0.
         21    1    1    2  503  502  0.18285901114E+03  0.49228180594E+02  0.43598817924E+03  0.47533832599E+03  0.00000000000E+00 0.  1.
         21    1    1    2  504  503  0.17466644526E+02  0.27013809591E+02  0.69206322567E+02  0.76317394235E+02  0.00000000000E+00 0. -1.
<mgrwt>
<rscale>  4 0.24812942E+03</rscale>
<asrwt>0</asrwt>
<pdfrwt beam="1">  1       21 0.26812211E+00 0.24812942E+03</pdfrwt>
<pdfrwt beam="2">  1       21 0.55239317E-02 0.24812942E+03</pdfrwt>
<totfact> 0.11272430E+04</totfact>
</mgrwt>
</event>
<event>
 5    0  0.1467858E+000  0.2476192E+03  0.7546771E-02  0.1114819E+00
         21   -1    0    0  504  501  0.00000000000E+00  0.00000000000E+00  0.27377581690E+03  0.27377581690E+03  0.00000000000E+00 0. -1.
         21   -1    0    0  501  502 -0.00000000000E+00 -0.00000000000E+00 -0.29726001507E+03  0.29726001507E+03  0.00000000000E+00 0. -1.
         25    1    1    2    0    0  0.41431536897E+02 -0.23959680782E+03 -0.85538608947E+02  0.28646999178E+03  0.12500000000E+03 0.  0.
         21    1    1    2  503  502  0.22008131805E+02  0.45651417906E+02 -0.31935957259E+02  0.59902547428E+02  0.00000000000E+00 0.  1.
         21    1    1    2  504  503 -0.63439668702E+02  0.19394538992E+03  0.93990368037E+02  0.22466329277E+03  0.00000000000E+00 0. -1.
<mgrwt>
<rscale>  4 0.24761916E+03</rscale>
<asrwt>0</asrwt>
<pdfrwt beam="1">  1       21 0.42119357E-01 0.24761916E+03</pdfrwt>
<pdfrwt beam="2">  1       21 0.45732310E-01 0.24761916E+03</pdfrwt>
<totfact> 0.24157895E+04</totfact>
</mgrwt>
</event>
<event>
 5    0  0.1467858E+000  0.2003557E+03  0.7546771E-02  0.1149439E+00
         21   -1    0    0  504  501  0.00000000000E+00  0.00000000000E+00  0.24007401874E+03  0.24007401874E+03  0.00000000000E+00 0. -1.
         21   -1    0    0  501  502 -0.00000000000E+00 -0.00000000000E+00 -0.26919342948E+03  0.26919342948E+03  0.00000000000E+00 0. -1.
         25    1    1    2    0    0  0.20535264542E+03  0.30922836174E+02  0.52603007490E+02  0.24802823867E+03  0.12500000000E+03 0.  0.
         21    1    1    2  503  502 -0.11563534697E+03 -0.56658196955E+02  0.11550862020E+02  0.12928691800E+03  0.00000000000E+00 0. -1.
         21    1    1    2  504  503 -0.89717298449E+02  0.25735360781E+02 -0.93273280252E+02  0.13195229155E+03  0.00000000000E+00 0. -1.
<mgrwt>
<rscale>  4 0.20035572E+03</rscale>
<asrwt>0</asrwt>
<pdfrwt beam="1">  1       21 0.36934465E-01 0.20035572E+03</pdfrwt>
<pdfrwt beam="2">  1       21 0.41414373E-01 0.20035572E+03</pdfrwt>
<totfact> 0.39533752E+04</totfact>
</mgrwt>
</event>
<event>
 5    0  0.1467858E+000  0.4240545E+03  0.7546771E-02  0.1035755E+00
         21   -1    0    0  504  501  0.00000000000E+00  0.00000000000E+00  0.92400991258E+03  0.92400991258E+03  0.00000000000E+00 0. -1.
         21   -1    0    0  501  502 -0.00000000000E+00 -0.00000000000E+00 -0.27607111390E+03  0.27607111390E+03  0.00000000000E+00 0. -1.
         25    1    1    2    0    0 -0.85272854844E+02  0.46468572536E+03  0.30337493383E+03  0.57520920855E+03  0.12500000000E+03 0.  0.
         21    1    1    2  503  502  0.10038631634E+03 -0.35348923117E+03  0.35654882162E+03  0.51201475688E+03  0.00000000000E+00 0. -1.
         21    1    1    2  504  503 -0.15113461493E+02 -0.11119649419E+03 -0.11984956772E+02  0.11285706104E+03  0.00000000000E+00 0. -1.
<mgrwt>
<rscale>  4 0.42405453E+03</rscale>
<asrwt>0</asrwt>
<pdfrwt beam="1">  1       21 0.14215537E+00 0.42405453E+03</pdfrwt>
<pdfrwt beam="2">  1       21 0.42472480E-01 0.42405453E+03</pdfrwt>
<totfact> 0.15824680E+03</totfact>
</mgrwt>
</event>
<event>
 5    0  0.1467858E+000  0.2593852E+03  0.7546771E-02  0.1107513E+00
         21   -1    0    0  504  501  0.00000000000E+00  0.00000000000E+00  0.80710109542E+02  0.80710109542E+02  0.00000000000E+00 0. -1.
         21   -1    0    0  501  502 -0.00000000000E+00 -0.00000000000E+00 -0.18181701116E+04  0.18181701116E+04  0.00000000000E+00 0.  1.
         25    1    1    2    0    0  0.20742774012E+03  0.92894641560E+02 -0.16080316409E+04  0.16288174974E+04  0.12500000000E+03 0.  0.
         21    1    1    2  503  502 -0.64584473524E+02 -0.41139542290E+01 -0.59529006615E+02  0.87930549119E+02  0.00000000000E+00 0.  1.
         21    1    1    2  504  503 -0.14284326659E+03 -0.88780687331E+02 -0.69899354530E+02  0.18213217458E+03  0.00000000000E+00 0. -1.
<mgrwt>
<rscale>  4 0.25938520E+03</rscale>
<asrwt>0</asrwt>
<pdfrwt beam="1">  1       21 0.12416941E-01 0.25938520E+03</pdfrwt>
<pdfrwt beam="2">  1       21 0.27971846E+00 0.25938520E+03</pdfrwt>
<totfact> 0.23005342E+03</totfact>
</mgrwt>
</event>
<event>
 5    0  0.1467858E+000  0.7193348E+03  0.7546771E-02  0.9684727E-01
         21   -1    0    0  504  501  0.00000000000E+00  0.00000000000E+00  0.22984762749E+04  0.22984762749E+04  0.00000000000E+00 0.  1.
         21   -1    0    0  501  502 -0.00000000000E+00 -0.00000000000E+00 -0.46916989274E+03  0.46916989274E+03  0.00000000000E+00 0.  1.
         25    1    1    2    0    0 -0.49659476512E+03 -0.53086752490E+03 -0.41077517559E+02  0.73874153273E+03  0.12500000000E+03 0.  0.
         21    1    1    2  503  502  0.51405142735E+03  0.48319461267E+03  0.18378448480E+04  0.19686034616E+04  0.00000000000E+00 0.  1.
         21    1    1    2  504  503 -0.17456662224E+02  0.47672912232E+02  0.32539051698E+02  0.60301173306E+02  0.00000000000E+00 0.  1.
<mgrwt>
<rscale>  4 0.71933480E+03</rscale>
<asrwt>0</asrwt>
<pdfrwt beam="1">  1       21 0.35361173E+00 0.71933480E+03</pdfrwt>
<pdfrwt beam="2">  1       21 0.72179985E-01 0.71933480E+03</pdfrwt>
<totfact> 0.18187670E+01</totfact>
</mgrwt>
</event>
<event>
 5    0  0.1467858E+000  0.2497720E+03  0.7546771E-02  0.1113449E+00
         21   -1    0    0  504  501  0.00000000000E+00  0.00000000000E+00  0.22350695386E+03  0.22350695386E+03  0.00000000000E+00 0.  1.
         21   -1    0    0  501  502 -0.00000000000E+00 -0.00000000000E+00 -0.39289492169E+03  0.39289492169E+03  0.00000000000E+00 0.  1.
         25    1    1    2    0    0  0.13872614284E+03 -0.16587974823E+03 -0.26653933934E+03  0.36527969147E+03  0.12500000000E+03 0.  0.
         21    1    1    2  503  502 -0.77770918291E+02  0.33194616351E+02  0.24540561971E+02  0.88047927110E+02  0.00000000000E+00 0.  1.
         21    1    1    2  504  503 -0.60955224551E+02  0.13268513188E+03  0.72610809540E+02  0.16307425697E+03  0.00000000000E+00 0.  1.
<mgrwt>
<rscale>  4 0.24977196E+03</rscale>
<asrwt>0</asrwt>
<pdfrwt beam="1">  1       21 0.34385685E-01 0.24977196E+03</pdfrwt>
<pdfrwt beam="2">  1       21 0.60445372E-01 0.24977196E+03</pdfrwt>
<totfact> 0.20148835E+04</totfact>
</mgrwt>
</event>
<event>
 5    0  0.1467858E+000  0.2374439E+03  0.7546771E-02  0.1121507E+00
         21   -1    0    0  504  501  0.00000000000E+00  0.00000000000E+00  0.89047375257E+02  0.89047375257E+02  0.00000000000E+00 0.  1.
         21   -1    0    0  501  502 -0.00000000000E+00 -0.00000000000E+00 -0.64220852166E+03  0.64220852166E+03  0.00000000000E+00 0.  1.
         25    1    1    2    0    0 -0.11052030281E+03 -0.16893749342E+03 -0.39311648652E+03  0.45926047728E+03  0.12500000000E+03 0.  0.
         21    1    1    2  503  502  0.55870702813E+02  0.37159116472E+02 -0.15418629856E+02  0.68848162767E+02  0.00000000000E+00 0.  1.
         21    1    1    2  504  503  0.54649600000E+02  0.13177837695E+03 -0.14462603002E+03  0.20314725687E+03  0.00000000000E+00 0.  1.
<mgrwt>
<rscale>  4 0.23744392E+03</rscale>
<asrwt>0</asrwt>
<pdfrwt beam="1">  1       21 0.13699596E-01 0.23744392E+03</pdfrwt>
<pdfrwt beam="2">  1       21 0.98801315E-01 0.23744392E+03</pdfrwt>
<totfact> 0.38182828E+04</totfact>
</mgrwt>
</event>
<event>
 5    0  0.1467858E+000  0.2473424E+03  0.7546771E-02  0.1114996E+00
         21   -1    0    0  504  501  0.00000000000E+00  0.00000000000E+00  0.10680692648E+04  0.10680692648E+04  0.00000000000E+00 0.  1.
         21   -1    0    0  501  502 -0.00000000000E+00 -0.00000000000E+00 -0.53735965426E+02  0.53735965426E+02  0.00000000000E+00 0.  1.
         25    1    1    2    0    0 -0.20816218875E+03  0.47135464111E+02  0.51058492486E+03  0.56734047476E+03  0.12500000000E+03 0.  0.
         21    1    1    2  503  502  0.62459444473E+02 -0.15379624716E+02  0.26720960466E+03  0.27484302407E+03  0.00000000000E+00 0.  1.
         21    1    1    2  504  503  0.14570274428E+03 -0.31755839395E+02  0.23653876989E+03  0.27962173143E+03  0.00000000000E+00 0.  1.
<mgrwt>
<rscale>  4 0.24734237E+03</rscale>
<asrwt>0</asrwt>
<pdfrwt beam="1">  1       21 0.16431833E+00 0.24734237E+03</pdfrwt>
<pdfrwt beam="2">  1       21 0.82670724E-02 0.24734237E+03</pdfrwt>
<totfact> 0.25670427E+04</totfact>
</mgrwt>
</event>
<event>
 5    0  0.1467858E+000  0.2414950E+03  0.7546771E-02  0.1118801E+00
         21   -1    0    0  504  501  0.00000000000E+00  0.00000000000E+00  0.10214479328E+03  0.10214479328E+03  0.00000000000E+00 0. -1.
         21   -1    0    0  501  502 -0.00000000000E+00 -0.00000000000E+00 -0.73624538288E+03  0.73624538288E+03  0.00000000000E+00 0. -1.
         25    1    1    2    0    0  0.13274802302E+03  0.19811801037E+03 -0.41392993779E+03  0.49379730361E+03  0.12500000000E+03 0.  0.
         21    1    1    2  503  502 -0.74874196711E+02 -0.16483807633E+03 -0.20965891863E+03  0.27701010614E+03  0.00000000000E+00 0. -1.
         21    1    1    2  504  503 -0.57873826309E+02 -0.33279934039E+02 -0.10511733181E+02  0.67582766411E+02  0.00000000000E+00 0. -1.
<mgrwt>
<rscale>  4 0.24149499E+03</rscale>
<asrwt>0</asrwt>
<pdfrwt beam="1">  1       21 0.15714583E-01 0.24149499E+03</pdfrwt>
<pdfrwt beam="2">  1       21 0.11326852E+00 0.24149499E+03</pdfrwt>
<totfact> 0.21310934E+04</totfact>
</mgrwt>
</event>
<event>
 5    0  0.1467858E+000  0.3952219E+03  0.7546771E-02  0.1045447E+00
         21   -1    0    0  504  501  0.00000000000E+00  0.00000000000E+00  0.14348294307E+03  0.14348294307E+03  0.00000000000E+00 0.  1.
         21   -1    0    0  501  502 -0.00000000000E+00 -0.00000000000E+00 -0.12960027183E+04  0.12960027183E+04  0.00000000000E+00 0.  1.
         25    1    1    2    0    0  0.17730626375E+03  0.34425141579E+03 -0.34255760084E+03  0.53189966942E+03  0.12500000000E+03 0.  0.
         21    1    1    2  503  502 -0.29243048195E+02 -0.20239598347E+02 -0.18353766039E+03  0.18695151776E+03  0.00000000000E+00 0. -1.
         21    1    1    2  504  503 -0.14806321555E+03 -0.32401181744E+03 -0.62642451400E+03  0.72063447418E+03  0.00000000000E+00 0.  1.
<mgrwt>
<rscale>  4 0.39522188E+03</rscale>
<asrwt>0</asrwt>
<pdfrwt beam="1">  1       21 0.22074298E-01 0.39522188E+03</pdfrwt>
<pdfrwt beam="2">  1       21 0.19938504E+00 0.39522188E+03</pdfrwt>
<totfact> 0.22570238E+03</totfact>
</mgrwt>
</event>
<event>
 5    0  0.1467858E+000  0.2446335E+03  0.7546771E-02  0.1116744E+00
         21   -1    0    0  504  501  0.00000000000E+00  0.00000000000E+00  0.16190574651E+04  0.16190574651E+04  0.00000000000E+00 0.  1.
         21   -1    0    0  501  502 -0.00000000000E+00 -0.00000000000E+00 -0.12351173742E+03  0.12351173742E+03  0.00000000000E+00 0.  1.
         25    1    1    2    0    0 -0.84136111833E+01 -0.21284143404E+03  0.28206660552E+02  0.24858173826E+03  0.12500000000E+03 0.  0.
         21    1    1    2  503  502 -0.41159771773E+02  0.31953813919E+02  0.90474042069E+02  0.10440653871E+03  0.00000000000E+00 0. -1.
         21    1    1    2  504  503  0.49573382956E+02  0.18088762012E+03  0.13768650251E+04  0.13895809256E+04  0.00000000000E+00 0.  1.
<mgrwt>
<rscale>  4 0.24463355E+03</rscale>
<asrwt>0</asrwt>
<pdfrwt beam="1">  1       21 0.24908575E+00 0.24463355E+03</pdfrwt>
<pdfrwt beam="2">  1       21 0.19001807E-01 0.24463355E+03</pdfrwt>
<totfact> 0.16186847E+03</totfact>
</mgrwt>
</event>
<event>
 5    0  0.1467858E+000  0.2981472E+03  0.7546771E-02  0.1086170E+00
         21   -1    0    0  504  501  0.00000000000E+00  0.00000000000E+00  0.40817659020E+03  0.40817659020E+03  0.00000000000E+00 0. -1.
         21   -1    0    0  501  502 -0.00000000000E+00 -0.00000000000E+00 -0.51198663321E+03  0.51198663321E+03  0.00000000000E+00 0.  1.
         25    1    1    2    0    0 -0.19531466964E+03 -0.18740053058E+03 -0.40586437662E+03  0.50360467755E+03  0.12500000000E+03 0.  0.
         21    1    1    2  503  502  0.52478953752E+01  0.39935637162E+02  0.78144684891E+02  0.87914659176E+02  0.00000000000E+00 0. -1.
         21    1    1    2  504  503  0.19006677427E+03  0.14746489341E+03  0.22390964871E+03  0.32864388669E+03  0.00000000000E+00 0. -1.
<mgrwt>
<rscale>  4 0.29814724E+03</rscale>
<asrwt>0</asrwt>
<pdfrwt beam="1">  1       21 0.62796399E-01 0.29814724E+03</pdfrwt>
<pdfrwt beam="2">  1       21 0.78767174E-01 0.29814724E+03</pdfrwt>
<totfact> 0.31123731E+03</totfact>
</mgrwt>
</event>
<event>
 5    0  0.1467858E+000  0.2971712E+03  0.7546771E-02  0.1086663E+00
         21   -1    0    0  504  501  0.00000000000E+00  0.00000000000E+00  0.59981974814E+03  0.59981974814E+03  0.00000000000E+00 0.  1.
         21   -1    0    0  501  502 -0.00000000000E+00 -0.00000000000E+00 -0.27543416218E+03  0.27543416218E+03  0.00000000000E+00 0.  1.
         25    1    1    2    0    0  0.14294297834E+03 -0.32119960123E+03  0.25798396722E+02  0.37402197283E+03  0.12500000000E+03 0.  0.
         21    1    1    2  503  502 -0.21316790442E+02  0.24823538489E+03  0.24552806306E+03  0.34979885880E+03  0.00000000000E+00 0.  1.
         21    1    1    2  504  503 -0.12162618790E+03  0.72964216343E+02  0.53059126184E+02  0.15143307869E+03  0.00000000000E+00 0.  1.
<mgrwt>
<rscale>  4 0.29717124E+03</rscale>
<asrwt>0</asrwt>
<pdfrwt beam="1">  1       21 0.92279961E-01 0.29717124E+03</pdfrwt>
<pdfrwt beam="2">  1       21 0.42374487E-01 0.29717124E+03</pdfrwt>
<totfact> 0.49664217E+03</totfact>
</mgrwt>
</event>
<event>
 5    0  0.1467858E+000  0.3424750E+03  0.7546771E-02  0.1065747E+00
         21   -1    0    0  504  501  0.00000000000E+00  0.00000000000E+00  0.39599796583E+03  0.39599796583E+03  0.00000000000E+00 0.  1.
         21   -1    0    0  501  502 -0.00000000000E+00 -0.00000000000E+00 -0.36530823250E+03  0.36530823250E+03  0.00000000000E+00 0. -1.
         25    1    1    2    0    0 -0.16968909182E+03 -0.26994400784E+03 -0.15726623666E+03  0.37685783055E+03  0.12500000000E+03 0.  0.
         21    1    1    2  503  502  0.40538476036E+02  0.68453169207E+01  0.13031177277E+02  0.43128157674E+02  0.00000000000E+00 0.  1.
         21    1    1    2  504  503  0.12915061578E+03  0.26309869092E+03  0.17492479272E+03  0.34132021011E+03  0.00000000000E+00 0.  1.
<mgrwt>
<rscale>  4 0.34247504E+03</rscale>
<asrwt>0</asrwt>
<pdfrwt beam="1">  1       21 0.60922764E-01 0.34247504E+03</pdfrwt>
<pdfrwt beam="2">  1       21 0.56201266E-01 0.34247504E+03</pdfrwt>
<totfact> 0.68747122E+03</totfact>
</mgrwt>
</event>
<event>
 5    0  0.1467858E+000  0.2896026E+03  0.7546771E-02  0.1090557E+00
         21   -1    0    0  504  501  0.00000000000E+00  0.00000000000E+00  0.24844159225E+03  0.24844159225E+03  0.00000000000E+00 0. -1.
         21   -1    0    0  501  502 -0.00000000000E+00 -0.00000000000E+00 -0.62249984742E+03  0.62249984742E+03  0.00000000000E+00 0. -1.
         25    1    1    2    0    0 -0.26099738143E+03  0.11181220938E+02 -0.49307245292E+03  0.57183047894E+03  0.12500000000E+03 0.  0.
         21    1    1    2  503  502  0.30369809302E+02  0.54932120050E+01  0.48285212685E+02  0.57305867581E+02  0.00000000000E+00 0. -1.
         21    1    1    2  504  503  0.23062757213E+03 -0.16674432943E+02  0.70728985063E+02  0.24180509314E+03  0.00000000000E+00 0. -1.
<mgrwt>
<rscale>  4 0.28960258E+03</rscale>
<asrwt>0</asrwt>
<pdfrwt beam="1">  1       21 0.38221784E-01 0.28960258E+03</pdfrwt>
<pdfrwt beam="2">  1       21 0.95769206E-01 0.28960258E+03</pdfrwt>
<totfact> 0.56380316E+03</totfact>
</mgrwt>
</event>
<event>
 5    0  0.1467858E+000  0.2554910E+03  0.7546771E-02  0.1109883E+00
         21   -1    0    0  504  501  0.00000000000E+00  0.00000000000E+00  0.10960581028E+03  0.10960581028E+03  0.00000000000E+00 0.  1.
         21   -1    0    0  501  502 -0.00000000000E+00 -0.00000000000E+00 -0.98647354370E+03  0.98647354370E+03  0.00000000000E+00 0. -1.
         25    1    1    2    0    0 -0.74251265374E+02 -0.21008899048E+03 -0.81905932491E+03  0.85798240777E+03  0.12500000000E+03 0.  0.
         21    1    1    2  503  502  0.17622628766E+02  0.13164576054E+03 -0.46339743508E+02  0.14067172830E+03  0.00000000000E+00 0.  1.
         21    1    1    2  504  503  0.56628636608E+02  0.78443229938E+02 -0.11468664996E+02  0.97425217906E+02  0.00000000000E+00 0.  1.
<mgrwt>
<rscale>  4 0.25549097E+03</rscale>
<asrwt>0</asrwt>
<pdfrwt beam="1">  1       21 0.16862433E-01 0.25549097E+03</pdfrwt>
<pdfrwt beam="2">  1       21 0.15176516E+00 0.25549097E+03</pdfrwt>
<totfact> 0.87878842E+03</totfact>
</mgrwt>
</event>
<event>
 5    0  0.1467858E+000  0.1891646E+03  0.7546771E-02  0.1159217E+00
         21   -1    0    0  504  501  0.00000000000E+00  0.00000000000E+00  0.70338160073E+03  0.70338160073E+03  0.00000000000E+00 0. -1.
         21   -1    0    0  501  502 -0.00000000000E+00 -0.00000000000E+00 -0.14909778541E+03  0.14909778541E+03  0.00000000000E+00 0. -1.
         25    1    1    2    0    0 -0.15489416168E+03  0.17863316967E+03  0.71330592956E+02  0.27679426317E+03  0.12500000000E+03 0.  0.
         21    1    1    2  503  502  0.81300331441E+02 -0.67680517675E+02  0.39900094536E+02  0.11305933800E+03  0.00000000000E+00 0. -1.
         21    1    1    2  504  503  0.73593830244E+02 -0.11095265200E+03  0.44305312784E+03  0.46262578497E+03  0.00000000000E+00 0. -1.
<mgrwt>
<rscale>  4 0.18916458E+03</rscale>
<asrwt>0</asrwt>
<pdfrwt beam="1">  1       21 0.10821255E+00 0.18916458E+03</pdfrwt>
<pdfrwt beam="2">  1       21 0.22938121E-01 0.18916458E+03</pdfrwt>
<totfact> 0.12150595E+04</totfact>
</mgrwt>
</event>
<event>
 5    0  0.1467858E+000  0.2092017E+03  0.7546771E-02  0.1142200E+00
         21   -1    0    0  504  501  0.00000000000E+00  0.00000000000E+00  0.21604462133E+03  0.21604462133E+03  0.00000000000E+00 0.  1.
         21   -1    0    0  501  502 -0.00000000000E+00 -0.00000000000E+00 -0.26336411145E+03  0.26336411145E+03  0.00000000000E+00 0.  1.
         25    1    1    2    0    0  0.39618804650E+02 -0.20240929318E+03 -0.29263320400E+02  0.24294137888E+03  0.12500000000E+03 0.  0.
         21    1    1    2  503  502 -0.31668839263E+02  0.14793051992E+03  0.39975366919E+02  0.15647486720E+03  0.00000000000E+00 0.  1.
         21    1    1    2  504  503 -0.79499653870E+01  0.54478773261E+02 -0.58031536636E+02  0.79992486710E+02  0.00000000000E+00 0.  1.
<mgrwt>
<rscale>  4 0.20920172E+03</rscale>
<asrwt>0</asrwt>
<pdfrwt beam="1">  1       21 0.33237634E-01 0.20920172E+03</pdfrwt>
<pdfrwt beam="2">  1       21 0.40517556E-01 0.20920172E+03</pdfrwt>
<totfact> 0.50750019E+04</totfact>
</mgrwt>
</event>
<event>
 5    0  0.1467858E+000  0.2247268E+03  0.7546771E-02  0.1130407E+00
         21   -1    0    0  504  501  0.00000000000E+00  0.00000000000E+00  0.76964379435E+03  0.76964379435E+03  0.00000000000E+00 0. -1.
         21   -1    0    0  501  502 -0.00000000000E+00 -0.00000000000E+00 -0.25569410045E+03  0.25569410045E+03  0.00000000000E+00 0. -1.
         25    1    1    2    0    0 -0.15629073726E+03 -0.13620324565E+03 -0.15868312334E+03  0.28945371359E+03  0.12500000000E+03 0.  0.
         21    1    1    2  503  502  0.14651814522E+03  0.11398788870E+03  0.68424486516E+03  0.70897943634E+03  0.00000000000E+00 0. -1.
         21    1    1    2  504  503  0.97725920360E+01  0.22215356947E+02 -0.11612047919E+02  0.26904744866E+02  0.00000000000E+00 0.  1.
<mgrwt>
<rscale>  4 0.22472678E+03</rscale>
<asrwt>0</asrwt>
<pdfrwt beam="1">  1       21 0.11840674E+00 0.22472678E+03</pdfrwt>
<pdfrwt beam="2">  1       21 0.39337554E-01 0.22472678E+03</pdfrwt>
<totfact> 0.33127916E+03</totfact>
</mgrwt>
</event>
<event>
 5    0  0.1467858E+000  0.2935430E+03  0.7546771E-02  0.1088514E+00
         21   -1    0    0  504  501  0.00000000000E+00  0.00000000000E+00  0.19661985282E+03  0.19661985282E+03  0.00000000000E+00 0. -1.
         21   -1    0    0  501  502 -0.00000000000E+00 -0.00000000000E+00 -0.52275674226E+03  0.52275674226E+03  0.00000000000E+00 0. -1.
         25    1    1    2    0    0  0.23929665298E+03  0.11523723301E+03 -0.30973058893E+03  0.42673240528E+03  0.12500000000E+03 0.  0.
         21    1    1    2  503  502 -0.17128071866E+03 -0.30972040928E+02 -0.46665927693E+02  0.18020560677E+03  0.00000000000E+00 0. -1.
         21    1    1    2  504  503 -0.68015934324E+02 -0.84265192080E+02  0.30259627180E+02  0.11243858304E+03  0.00000000000E+00 0.  1.
<mgrwt>
<rscale>  4 0.29354303E+03</rscale>
<asrwt>0</asrwt>
<pdfrwt beam="1">  1       21 0.30249208E-01 0.29354303E+03</pdfrwt>
<pdfrwt beam="2">  1       21 0.80424114E-01 0.29354303E+03</pdfrwt>
<totfact> 0.13488348E+04</totfact>
</mgrwt>
</event>
<event>
 5    0  0.1467858E+000  0.3020152E+03  0.7546771E-02  0.1084238E+00
         21   -1    0    0  504  501  0.00000000000E+00  0.00000000000E+00  0.25177091083E+03  0.25177091083E+03  0.00000000000E+00 0.  1.
         21   -1    0    0  501  502 -0.00000000000E+00 -0.00000000000E+00 -0.35310025082E+03  0.35310025082E+03  0.00000000000E+00 0.  1.
         25    1    1    2    0    0  0.66433973608E+02  0.26678592965E+03 -0.12124112995E+03  0.32544218641E+03  0.12500000000E+03 0.  0.
         21    1    1    2  503  502 -0.15040293194E+02 -0.31369797356E+02 -0.11016196605E+02  0.36491522209E+02  0.00000000000E+00 0. -1.
         21    1    1    2  504  503 -0.51393680414E+02 -0.23541613229E+03  0.30927986560E+02  0.24293745302E+03  0.00000000000E+00 0.  1.
<mgrwt>
<rscale>  4 0.30201524E+03</rscale>
<asrwt>0</asrwt>
<pdfrwt beam="1">  1       21 0.38733987E-01 0.30201524E+03</pdfrwt>
<pdfrwt beam="2">  1       21 0.54323115E-01 0.30201524E+03</pdfrwt>
<totfact> 0.19497005E+04</totfact>
</mgrwt>
</event>
<event>
 5    0  0.1467858E+000  0.2888630E+03  0.7546771E-02  0.1090944E+00
         21   -1    0    0  504  501  0.00000000000E+00  0.00000000000E+00  0.19180620186E+04  0.19180620186E+04  0.00000000000E+00 0. -1.
         21   -1    0    0  501  502 -0.00000000000E+00 -0.00000000000E+00 -0.14860605881E+03  0.14860605881E+03  0.00000000000E+00 0. -1.
         25    1    1    2    0    0  0.83969855902E+02 -0.24879931746E+03  0.42909810365E+02  0.29396987753E+03  0.12500000000E+03 0.  0.
         21    1    1    2  503  502  0.10482248564E+02  0.25534722418E+03  0.15627376067E+04  0.15834964192E+04  0.00000000000E+00 0. -1.
         21    1    1    2  504  503 -0.94452104466E+02 -0.65479067188E+01  0.16380854271E+03  0.18920178061E+03  0.00000000000E+00 0. -1.
<mgrwt>
<rscale>  4 0.28886304E+03</rscale>
<asrwt>0</asrwt>
<pdfrwt beam="1">  1       21 0.29508645E+00 0.28886304E+03</pdfrwt>
<pdfrwt beam="2">  1       21 0.22862472E-01 0.28886304E+03</pdfrwt>
<totfact> 0.58624927E+02</totfact>
</mgrwt>
</event>
<event>
 5    0  0.1467858E+000  0.2720744E+03  0.7546771E-02  0.1100098E+00
         21   -1    0    0  504  501  0.00000000000E+00  0.00000000000E+00  0.61215160706E+03  0.61215160706E+03  0.00000000000E+00 0.  1.
         21   -1    0    0  501  502 -0.00000000000E+00 -0.00000000000E+00 -0.19664388158E+03  0.19664388158E+03  0.00000000000E+00 0. -1.
         25    1    1    2    0    0  0.20510955273E+03 -0.12778713617E+03 -0.55193511414E+02  0.27761629004E+03  0.12500000000E+03 0.  0.
         21    1    1    2  503  502 -0.21537518772E+02  0.17811948423E+02  0.92546208172E+02  0.96674354761E+02  0.00000000000E+00 0.  1.
         21    1    1    2  504  503 -0.18357203396E+03  0.10997518774E+03  0.37815502872E+03  0.43450484384E+03  0.00000000000E+00 0.  1.
<mgrwt>
<rscale>  4 0.27207440E+03</rscale>
<asrwt>0</asrwt>
<pdfrwt beam="1">  1       21 0.94177169E-01 0.27207440E+03</pdfrwt>
<pdfrwt beam="2">  1       21 0.30252905E-01 0.27207440E+03</pdfrwt>
<totfact> 0.94407327E+03</totfact>
</mgrwt>
</event>
<event>
 5    0  0.1467858E+000  0.2464274E+03  0.7546771E-02  0.1115584E+00
         21   -1    0    0  504  501  0.00000000000E+00  0.00000000000E+00  0.45930505811E+03  0.45930505811E+03  0.00000000000E+00 0. -1.
         21   -1    0    0  501  502 -0.00000000000E+00 -0.00000000000E+00 -0.17036153755E+03  0.17036153755E+03  0.00000000000E+00 0. -1.
         25    1    1    2    0    0 -0.88286416171E+02  0.19315008747E+03 -0.22648937383E+02  0.24746600157E+03  0.12500000000E+03 0.  0.
         21    1    1    2  503  502  0.62998641174E+02 -0.15097587522E+03  0.18815557435E+03  0.24932922782E+03  0.00000000000E+00 0. -1.
         21    1    1    2  504  503  0.25287774997E+02 -0.42174212249E+02  0.12343688360E+03  0.13287136627E+03  0.00000000000E+00 0. -1.
<mgrwt>
<rscale>  4 0.24642737E+03</rscale>
<asrwt>0</asrwt>
<pdfrwt beam="1">  1       21 0.70662316E-01 0.24642737E+03</pdfrwt>
<pdfrwt beam="2">  1       21 0.26209468E-01 0.24642737E+03</pdfrwt>
<totfact> 0.24404072E+04</totfact>
</mgrwt>
</event>
<event>
 5    0  0.1467858E+000  0.2796592E+03  0.7546771E-02  0.1095875E+00
         21   -1    0    0  504  501  0.00000000000E+00  0.00000000000E+00  0.14536561776E+03  0.14536561776E+03  0.00000000000E+00 0.  1.
         21   -1    0    0  501  502 -0.00000000000E+00 -0.00000000000E+00 -0.68753100941E+03  0.68753100941E+03  0.00000000000E+00 0.  1.
         25    1    1    2    0    0 -0.19793805446E+03 -0.16394293208E+03 -0.44554564421E+03  0.52933229588E+03  0.12500000000E+03 0.  0.
         21    1    1    2  503  502  0.20774689231E+03  0.11871111737E+03 -0.94422957199E+02  0.25722907203E+03  0.00000000000E+00 0.  1.
         21    1    1    2  504  503 -0.98088378536E+01  0.45231814718E+02 -0.21967902378E+01  0.46335259254E+02  0.00000000000E+00 0. -1.
<mgrwt>
<rscale>  4 0.27965917E+03</rscale>
<asrwt>0</asrwt>
<pdfrwt beam="1">  1       21 0.22363941E-01 0.27965917E+03</pdfrwt>
<pdfrwt beam="2">  1       21 0.10577400E+00 0.27965917E+03</pdfrwt>
<totfact> 0.12773731E+04</totfact>
</mgrwt>
</event>
<event>
 5    0  0.1467858E+000  0.3545308E+03  0.7546771E-02  0.1060771E+00
         21   -1    0    0  504  501  0.00000000000E+00  0.00000000000E+00  0.14803472144E+04  0.14803472144E+04  0.00000000000E+00 0. -1.
         21   -1    0    0  501  502 -0.00000000000E+00 -0.00000000000E+00 -0.16915888251E+03  0.16915888251E+03  0.00000000000E+00 0. -1.
         25    1    1    2    0    0 -0.35136994994E+03  0.10550780687E+03  0.16963792583E+03  0.42307772916E+03  0.12500000000E+03 0.  0.
         21    1    1    2  503  502  0.24950267563E+03 -0.11707517859E+03  0.45273834555E+03  0.53002848237E+03  0.00000000000E+00 0. -1.
         21    1    1    2  504  503  0.10186727431E+03  0.11567371720E+02  0.68881206046E+03  0.69639988534E+03  0.00000000000E+00 0.  1.
<mgrwt>
<rscale>  4 0.35453079E+03</rscale>
<asrwt>0</asrwt>
<pdfrwt beam="1">  1       21 0.22774572E+00 0.35453079E+03</pdfrwt>
<pdfrwt beam="2">  1       21 0.26024444E-01 0.35453079E+03</pdfrwt>
<totfact> 0.11039918E+03</totfact>
</mgrwt>
</event>
<event>
 5    0  0.1467858E+000  0.2776501E+03  0.7546771E-02  0.1096979E+00
         21   -1    0    0  504  501  0.00000000000E+00  0.00000000000E+00  0.64090587961E+03  0.64090587961E+03  0.00000000000E+00 0.  1.
         21   -1    0    0  501  502 -0.00000000000E+00 -0.00000000000E+00 -0.75448457414E+03  0.75448457414E+03  0.00000000000E+00 0. -1.
         25    1    1    2    0    0  0.23153477724E+02 -0.24683699396E+03 -0.70236824513E+03  0.75525541169E+03  0.12500000000E+03 0.  0.
         21    1    1    2  503  502  0.35467143361E+01  0.28626727204E+02  0.43462332674E+02  0.52163618111E+02  0.00000000000E+00 0. -1.
         21    1    1    2  504  503 -0.26700192060E+02  0.21821026676E+03  0.54532721792E+03  0.58797142395E+03  0.00000000000E+00 0.  1.
<mgrwt>
<rscale>  4 0.27765011E+03</rscale>
<asrwt>0</asrwt>
<pdfrwt beam="1">  1       21 0.98600904E-01 0.27765011E+03</pdfrwt>
<pdfrwt beam="2">  1       21 0.11607455E+00 0.27765011E+03</pdfrwt>
<totfact> 0.44881332E+02</totfact>
</mgrwt>
</event>
<event>
 5    0  0.1467858E+000  0.2390530E+03  0.7546771E-02  0.1120425E+00
         21   -1    0    0  504  501  0.00000000000E+00  0.00000000000E+00  0.31282386064E+03  0.31282386064E+03  0.00000000000E+00 0.  1.
         21   -1    0    0  501  502 -0.00000000000E+00 -0.00000000000E+00 -0.27204400992E+03  0.27204400992E+03  0.00000000000E+00 0.  1.
         25    1    1    2    0    0 -0.19608211275E+03  0.55435935361E+02 -0.16574926365E+03  0.29089371989E+03  0.12500000000E+03 0.  0.
         21    1    1    2  503  502  0.76976809913E+02 -0.15852539775E+02  0.11211103984E+03  0.13691463594E+03  0.00000000000E+00 0.  1.
         21    1    1    2  504  503  0.11910530284E+03 -0.39583395586E+02  0.94418074527E+02  0.15705951473E+03  0.00000000000E+00 0.  1.
<mgrwt>
<rscale>  4 0.23905300E+03</rscale>
<asrwt>0</asrwt>
<pdfrwt beam="1">  1       21 0.48126748E-01 0.23905300E+03</pdfrwt>
<pdfrwt beam="2">  1       21 0.41852925E-01 0.23905300E+03</pdfrwt>
<totfact> 0.22101622E+04</totfact>
</mgrwt>
</event>
<event>
 5    0  0.1467858E+000  0.2483731E+03  0.7546771E-02  0.1114337E+00
         21   -1    0    0  504  501  0.00000000000E+00  0.00000000000E+00  0.78327172885E+03  0.78327172885E+03  0.00000000000E+00 0.  1.
         21   -1    0    0  501  502 -0.00000000000E+00 -0.00000000000E+00 -0.18627902326E+03  0.18627902326E+03  0.00000000000E+00 0. -1.
         25    1    1    2    0    0  0.21275845670E+03  0.34587431873E+02 -0.73064330204E+02  0.25966487574E+03  0.12500000000E+03 0.  0.
         21    1    1    2  503  502 -0.10377148023E+02  0.20481633293E+02  0.96163264664E+02  0.98866354107E+02  0.00000000000E+00 0.  1.
         21    1    1    2  504  503 -0.20238130868E+03 -0.55069065166E+02  0.57389377113E+03  0.61101952227E+03  0.00000000000E+00 0.  1.
<mgrwt>
<rscale>  4 0.24837312E+03</rscale>
<asrwt>0</asrwt>
<pdfrwt beam="1">  1       21 0.12050334E+00 0.24837312E+03</pdfrwt>
<pdfrwt beam="2">  1       21 0.28658312E-01 0.24837312E+03</pdfrwt>
<totfact> 0.58503294E+03</totfact>
</mgrwt>
</event>
<event>
 5    0  0.1467858E+000  0.4052044E+03  0.7546771E-02  0.1041992E+00
         21   -1    0    0  504  501  0.00000000000E+00  0.00000000000E+00  0.10514852516E+04  0.10514852516E+04  0.00000000000E+00 0.  1.
         21   -1    0    0  501  502 -0.00000000000E+00 -0.00000000000E+00 -0.35998897288E+03  0.35998897288E+03  0.00000000000E+00 0. -1.
         25    1    1    2    0    0  0.23112855753E+03  0.27265071618E+03 -0.17444632411E+03  0.41691167306E+03  0.12500000000E+03 0.  0.
         21    1    1    2  503  502 -0.11885833801E+02  0.49508423679E+02  0.70476800587E+01  0.51400650332E+02  0.00000000000E+00 0. -1.
         21    1    1    2  504  503 -0.21924272373E+03 -0.32215913986E+03  0.85889492273E+03  0.94316190105E+03  0.00000000000E+00 0.  1.
<mgrwt>
<rscale>  4 0.40520444E+03</rscale>
<asrwt>0</asrwt>
<pdfrwt beam="1">  1       21 0.16176696E+00 0.40520444E+03</pdfrwt>
<pdfrwt beam="2">  1       21 0.55382919E-01 0.40520444E+03</pdfrwt>
<totfact> 0.64066848E+02</totfact>
</mgrwt>
</event>
<event>
 5    0  0.1467858E+000  0.2412659E+03  0.7546771E-02  0.1118952E+00
         21   -1    0    0  504  501  0.00000000000E+00  0.00000000000E+00  0.16248237797E+03  0.16248237797E+03  0.00000000000E+00 0. -1.
         21   -1    0    0  501  502 -0.00000000000E+00 -0.00000000000E+00 -0.31597758977E+03  0.31597758977E+03  0.00000000000E+00 0. -1.
         25    1    1    2    0    0  0.52037920542E+02  0.19969054374E+03 -0.66824296613E+02  0.25034924616E+03  0.12500000000E+03 0.  0.
         21    1    1    2  503  502 -0.16937644800E+02 -0.40142405344E+02 -0.85270205993E+00  0.43577788138E+02  0.00000000000E+00 0. -1.
         21    1    1    2  504  503 -0.35100275742E+02 -0.15954813840E+03 -0.85818213127E+02  0.18453293345E+03  0.00000000000E+00 0. -1.
<mgrwt>
<rscale>  4 0.24126595E+03</rscale>
<asrwt>0</asrwt>
<pdfrwt beam="1">  1       21 0.24997289E-01 0.24126595E+03</pdfrwt>
<pdfrwt beam="2">  1       21 0.48611937E-01 0.24126595E+03</pdfrwt>
<totfact> 0.59934905E+04</totfact>
</mgrwt>
</event>
<event>
 5    0  0.1467858E+000  0.3015350E+03  0.7546771E-02  0.1084476E+00
         21   -1    0    0  504  501  0.00000000000E+00  0.00000000000E+00  0.19112454866E+03  0.19112454866E+03  0.00000000000E+00 0. -1.
         21   -1    0    0  501  502 -0.00000000000E+00 -0.00000000000E+00 -0.63833862009E+03  0.63833862009E+03  0.00000000000E+00 0. -1.
         25    1    1    2    0    0 -0.13039440346E+03  0.23161054099E+03 -0.37101441478E+03  0.47320485958E+03  0.12500000000E+03 0.  0.
         21    1    1    2  503  502  0.17889659838E+03 -0.23458328317E+03 -0.84688808623E+02  0.30692915137E+03  0.00000000000E+00 0. -1.
         21    1    1    2  504  503 -0.48502194921E+02  0.29727421759E+01  0.84891519758E+01  0.49329157802E+02  0.00000000000E+00 0.  1.
<mgrwt>
<rscale>  4 0.30153497E+03</rscale>
<asrwt>0</asrwt>
<pdfrwt beam="1">  1       21 0.29403777E-01 0.30153497E+03</pdfrwt>
<pdfrwt beam="2">  1       21 0.98205942E-01 0.30153497E+03</pdfrwt>
<totfact> 0.89093663E+03</totfact>
</mgrwt>
</event>
<event>
 5    0  0.1467858E+000  0.2573350E+03  0.7546771E-02  0.1108755E+00
         21   -1    0    0  504  501  0.00000000000E+00  0.00000000000E+00  0.78367692873E+03  0.78367692873E+03  0.00000000000E+00 0.  1.
         21   -1    0    0  501  502 -0.00000000000E+00 -0.00000000000E+00 -0.12581678048E+03  0.12581678048E+03  0.00000000000E+00 0.  1.
         25    1    1    2    0    0 -0.18394440083E+00 -0.21889526697E+03  0.70705024720E+02  0.26180025259E+03  0.12500000000E+03 0.  0.
         21    1    1    2  503  502  0.71824732732E+01 -0.26534553813E+02  0.49287320259E+02  0.56435010469E+02  0.00000000000E+00 0. -1.
         21    1    1    2  504  503 -0.69985288724E+01  0.24542982078E+03  0.53786780328E+03  0.59125844614E+03  0.00000000000E+00 0.  1.
<mgrwt>
<rscale>  4 0.25733504E+03</rscale>
<asrwt>0</asrwt>
<pdfrwt beam="1">  1       21 0.12056568E+00 0.25733504E+03</pdfrwt>
<pdfrwt beam="2">  1       21 0.19356428E-01 0.25733504E+03</pdfrwt>
<totfact> 0.12302472E+04</totfact>
</mgrwt>
</event>
<event>
 5    0  0.1467858E+000  0.2497688E+03  0.7546771E-02  0.1113451E+00
         21   -1    0    0  504  501  0.00000000000E+00  0.00000000000E+00  0.25860735337E+03  0.25860735337E+03  0.00000000000E+00 0.  1.
         21   -1    0    0  501  502 -0.00000000000E+00 -0.00000000000E+00 -0.36651089127E+03  0.36651089127E+03  0.00000000000E+00 0.  1.
         25    1    1    2    0    0  0.22878007380E+03  0.73462800351E+02 -0.45173719204E+02  0.27459564838E+03  0.12500000000E+03 0.  0.
         21    1    1    2  503  502 -0.81588423519E+02  0.79023081879E+02 -0.78389004680E+02  0.13800780549E+03  0.00000000000E+00 0.  1.
         21    1    1    2  504  503 -0.14719165028E+03 -0.15248588223E+03  0.15659185980E+02  0.21251479077E+03  0.00000000000E+00 0.  1.
<mgrwt>
<rscale>  4 0.24976876E+03</rscale>
<asrwt>0</asrwt>
<pdfrwt beam="1">  1       21 0.39785747E-01 0.24976876E+03</pdfrwt>
<pdfrwt beam="2">  1       21 0.56386291E-01 0.24976876E+03</pdfrwt>
<totfact> 0.17449259E+04</totfact>
</mgrwt>
</event>
<event>
 5    0  0.1467858E+000  0.2573549E+03  0.7546771E-02  0.1108743E+00
         21   -1    0    0  504  501  0.00000000000E+00  0.00000000000E+00  0.42860054077E+04  0.42860054077E+04  0.00000000000E+00 0. -1.
         21   -1    0    0  501  502 -0.00000000000E+00 -0.00000000000E+00 -0.31917188295E+03  0.31917188295E+03  0.00000000000E+00 0.  1.
         25    1    1    2    0    0  0.17958772522E+03 -0.13614197310E+03 -0.26071460674E+03  0.36658354308E+03  0.12500000000E+03 0.  0.
         21    1    1    2  503  502 -0.36158050393E+02  0.45679985321E+01  0.99585818519E+02  0.10604530385E+03  0.00000000000E+00 0. -1.
         21    1    1    2  504  503 -0.14342967483E+03  0.13157397457E+03  0.41279623130E+04  0.41325484437E+04  0.00000000000E+00 0. -1.
<mgrwt>
<rscale>  4 0.25735486E+03</rscale>
<asrwt>0</asrwt>
<pdfrwt beam="1">  1       21 0.65938541E+00 0.25735486E+03</pdfrwt>
<pdfrwt beam="2">  1       21 0.49103370E-01 0.25735486E+03</pdfrwt>
<totfact> 0.39125979E-01</totfact>
</mgrwt>
</event>
<event>
 5    0  0.1467858E+000  0.2940451E+03  0.7546771E-02  0.1088256E+00
         21   -1    0    0  504  501  0.00000000000E+00  0.00000000000E+00  0.10054423704E+03  0.10054423704E+03  0.00000000000E+00 0.  1.
         21   -1    0    0  501  502 -0.00000000000E+00 -0.00000000000E+00 -0.17181955424E+04  0.17181955424E+04  0.00000000000E+00 0.  1.
         25    1    1    2    0    0 -0.22299101951E+03  0.15662046403E+03 -0.14153487817E+04  0.14467522726E+04  0.12500000000E+03 0.  0.
         21    1    1    2  503  502  0.71545492182E+01 -0.56033850180E+02 -0.95617153214E+02  0.11105683198E+03  0.00000000000E+00 0.  1.
         21    1    1    2  504  503  0.21583647029E+03 -0.10058661385E+03 -0.10668537043E+03  0.26093067481E+03  0.00000000000E+00 0.  1.
<mgrwt>
<rscale>  4 0.29404506E+03</rscale>
<asrwt>0</asrwt>
<pdfrwt beam="1">  1       21 0.15468345E-01 0.29404506E+03</pdfrwt>
<pdfrwt beam="2">  1       21 0.26433775E+00 0.29404506E+03</pdfrwt>
<totfact> 0.18450768E+03</totfact>
</mgrwt>
</event>
<event>
 5    0  0.1467858E+000  0.2503771E+03  0.7546771E-02  0.1113067E+00
         21   -1    0    0  504  501  0.00000000000E+00  0.00000000000E+00  0.12237832714E+04  0.12237832714E+04  0.00000000000E+00 0.  1.
         21   -1    0    0  501  502 -0.00000000000E+00 -0.00000000000E+00 -0.58752531713E+02  0.58752531713E+02  0.00000000000E+00 0.  1.
         25    1    1    2    0    0 -0.14215221128E+03  0.16387927761E+03  0.90939071677E+03  0.94322857492E+03  0.12500000000E+03 0.  0.
         21    1    1    2  503  502  0.29394949276E+02 -0.12476317890E+02  0.56571416723E+02  0.64961886834E+02  0.00000000000E+00 0.  1.
         21    1    1    2  504  503  0.11275726201E+03 -0.15140295972E+03  0.19906860617E+03  0.27434534133E+03  0.00000000000E+00 0.  1.
<mgrwt>
<rscale>  4 0.25037705E+03</rscale>
<asrwt>0</asrwt>
<pdfrwt beam="1">  1       21 0.18827433E+00 0.25037705E+03</pdfrwt>
<pdfrwt beam="2">  1       21 0.90388520E-02 0.25037705E+03</pdfrwt>
<totfact> 0.14911968E+04</totfact>
</mgrwt>
</event>
<event>
 5    0  0.1467858E+000  0.2218596E+03  0.7546771E-02  0.1132504E+00
         21   -1    0    0  504  501  0.00000000000E+00  0.00000000000E+00  0.62881099460E+03  0.62881099460E+03  0.00000000000E+00 0.  1.
         21   -1    0    0  501  502 -0.00000000000E+00 -0.00000000000E+00 -0.12475631295E+03  0.12475631295E+03  0.00000000000E+00 0.  1.
         25    1    1    2    0    0  0.17883528096E+03 -0.93739484887E+02  0.49748213275E+02  0.24262941592E+03  0.12500000000E+03 0.  0.
         21    1    1    2  503  502 -0.14441001279E+03  0.54648416776E+02  0.20721532211E+03  0.25841611979E+03  0.00000000000E+00 0.  1.
         21    1    1    2  504  503 -0.34425268178E+02  0.39091068111E+02  0.24709114626E+03  0.25252177185E+03  0.00000000000E+00 0.  1.
<mgrwt>
<rscale>  4 0.22185959E+03</rscale>
<asrwt>0</asrwt>
<pdfrwt beam="1">  1       21 0.96740151E-01 0.22185959E+03</pdfrwt>
<pdfrwt beam="2">  1       21 0.19193279E-01 0.22185959E+03</pdfrwt>
<totfact> 0.21749583E+04</totfact>
</mgrwt>
</event>
<event>
 5    0  0.1467858E+000  0.2443299E+03  0.7546771E-02  0.1116942E+00
         21   -1    0    0  504  501  0.00000000000E+00  0.00000000000E+00  0.23110335189E+04  0.23110335189E+04  0.00000000000E+00 0.  1.
         21   -1    0    0  501  502 -0.00000000000E+00 -0.00000000000E+00 -0.12190552963E+03  0.12190552963E+03  0.00000000000E+00 0.  1.
         25    1    1    2    0    0 -0.20098838639E+03  0.60627952420E+02  0.12330619765E+02  0.24464080662E+03  0.12500000000E+03 0.  0.
         21    1    1    2  503  502  0.17072313479E+03 -0.74747010436E+02  0.16614994010E+04  0.16719191858E+04  0.00000000000E+00 0.  1.
         21    1    1    2  504  503  0.30265251602E+02  0.14119058017E+02  0.51529796846E+03  0.51637905607E+03  0.00000000000E+00 0.  1.
<mgrwt>
<rscale>  4 0.24432986E+03</rscale>
<asrwt>0</asrwt>
<pdfrwt beam="1">  1       21 0.35554359E+00 0.24432986E+03</pdfrwt>
<pdfrwt beam="2">  1       21 0.18754699E-01 0.24432986E+03</pdfrwt>
<totfact> 0.39232038E+02</totfact>
</mgrwt>
</event>
<event>
 5    0  0.1467858E+000  0.3207429E+03  0.7546771E-02  0.1075308E+00
         21   -1    0    0  504  501  0.00000000000E+00  0.00000000000E+00  0.59585232247E+03  0.59585232247E+03  0.00000000000E+00 0. -1.
         21   -1    0    0  501  502 -0.00000000000E+00 -0.00000000000E+00 -0.19369761180E+03  0.19369761180E+03  0.00000000000E+00 0. -1.
         25    1    1    2    0    0 -0.25551653606E+03  0.14819695841E+03  0.36051927708E+03  0.48254552929E+03  0.12500000000E+03 0.  0.
         21    1    1    2  503  502  0.14882370296E+02 -0.33127811414E+02 -0.34830769980E+01  0.36483813672E+02  0.00000000000E+00 0. -1.
         21    1    1    2  504  503  0.24063416577E+03 -0.11506914700E+03  0.45118510585E+02  0.27052059131E+03  0.00000000000E+00 0. -1.
<mgrwt>
<rscale>  4 0.32074295E+03</rscale>
<asrwt>0</asrwt>
<pdfrwt beam="1">  1       21 0.91669587E-01 0.32074295E+03</pdfrwt>
<pdfrwt beam="2">  1       21 0.29799633E-01 0.32074295E+03</pdfrwt>
<totfact> 0.10131174E+04</totfact>
</mgrwt>
</event>
<event>
 5    0  0.1467858E+000  0.2447057E+03  0.7546771E-02  0.1116697E+00
         21   -1    0    0  504  501  0.00000000000E+00  0.00000000000E+00  0.16877759042E+04  0.16877759042E+04  0.00000000000E+00 0.  1.
         21   -1    0    0  501  502 -0.00000000000E+00 -0.00000000000E+00 -0.61111332250E+02  0.61111332250E+02  0.00000000000E+00 0.  1.
         25    1    1    2    0    0  0.87499405594E+02  0.19131051384E+03  0.23032031610E+03  0.33604807200E+03  0.12500000000E+03 0.  0.
         21    1    1    2  503  502 -0.18068474152E+01 -0.29520257112E+02  0.28308481421E+03  0.28462558268E+03  0.00000000000E+00 0.  1.
         21    1    1    2  504  503 -0.85692558178E+02 -0.16179025673E+03  0.11132594417E+04  0.11282135818E+04  0.00000000000E+00 0.  1.
<mgrwt>
<rscale>  4 0.24470566E+03</rscale>
<asrwt>0</asrwt>
<pdfrwt beam="1">  1       21 0.25965780E+00 0.24470566E+03</pdfrwt>
<pdfrwt beam="2">  1       21 0.94017447E-02 0.24470566E+03</pdfrwt>
<totfact> 0.50257610E+03</totfact>
</mgrwt>
</event>
<event>
 5    0  0.1467858E+000  0.2287210E+03  0.7546771E-02  0.1127543E+00
         21   -1    0    0  504  501  0.00000000000E+00  0.00000000000E+00  0.49544878378E+03  0.49544878378E+03  0.00000000000E+00 0.  1.
         21   -1    0    0  501  502 -0.00000000000E+00 -0.00000000000E+00 -0.16197566629E+03  0.16197566629E+03  0.00000000000E+00 0.  1.
         25    1    1    2    0    0  0.10715413675E+03 -0.21274270219E+03  0.78485742698E+02  0.28022576285E+03  0.12500000000E+03 0.  0.
         21    1    1    2  503  502  0.18443464475E+02  0.12101347621E+03  0.11015491140E+03  0.16467703942E+03  0.00000000000E+00 0.  1.
         21    1    1    2  504  503 -0.12559760123E+03  0.91729225978E+02  0.14483246339E+03  0.21252164780E+03  0.00000000000E+00 0.  1.
<mgrwt>
<rscale>  4 0.22872099E+03</rscale>
<asrwt>0</asrwt>
<pdfrwt beam="1">  1       21 0.76222889E-01 0.22872099E+03</pdfrwt>
<pdfrwt beam="2">  1       21 0.24919334E-01 0.22872099E+03</pdfrwt>
<totfact> 0.22900923E+04</totfact>
</mgrwt>
</event>
<event>
 5    0  0.1467858E+000  0.2696743E+03  0.7546771E-02  0.1101466E+00
         21   -1    0    0  504  501  0.00000000000E+00  0.00000000000E+00  0.26182104068E+03  0.26182104068E+03  0.00000000000E+00 0. -1.
         21   -1    0    0  501  502 -0.00000000000E+00 -0.00000000000E+00 -0.26649227763E+03  0.26649227763E+03  0.00000000000E+00 0.  1.
         25    1    1    2    0    0  0.11939908655E+03  0.20698565319E+03 -0.48864718863E+02  0.27406561850E+03  0.12500000000E+03 0.  0.
         21    1    1    2  503  502 -0.11848335833E+03 -0.16131189353E+03  0.54457757412E+02  0.20742584346E+03  0.00000000000E+00 0. -1.
         21    1    1    2  504  503 -0.91572822813E+00 -0.45673759664E+02 -0.10264275499E+02  0.46821856345E+02  0.00000000000E+00 0. -1.
<mgrwt>
<rscale>  4 0.26967425E+03</rscale>
<asrwt>0</asrwt>
<pdfrwt beam="1">  1       21 0.40280160E-01 0.26967425E+03</pdfrwt>
<pdfrwt beam="2">  1       21 0.40998812E-01 0.26967425E+03</pdfrwt>
<totfact> 0.32821880E+04</totfact>
</mgrwt>
</event>
<event>
 5    0  0.1467858E+000  0.2552228E+03  0.7546771E-02  0.1110048E+00
         21   -1    0    0  504  501  0.00000000000E+00  0.00000000000E+00  0.16166615223E+03  0.16166615223E+03  0.00000000000E+00 0.  1.
         21   -1    0    0  501  502 -0.00000000000E+00 -0.00000000000E+00 -0.42816113477E+03  0.42816113477E+03  0.00000000000E+00 0. -1.
         25    1    1    2    0    0  0.18291673129E+03 -0.12670892096E+03 -0.26048391437E+03  0.36467869540E+03  0.12500000000E+03 0.  0.
         21    1    1    2  503  502 -0.15523782651E+03  0.10420448789E+03 -0.17209120578E+02  0.18775918594E+03  0.00000000000E+00 0.  1.
         21    1    1    2  504  503 -0.27678904785E+02  0.22504433074E+02  0.11198052406E+02  0.37389405662E+02  0.00000000000E+00 0. -1.
<mgrwt>
<rscale>  4 0.25522281E+03</rscale>
<asrwt>0</asrwt>
<pdfrwt beam="1">  1       21 0.24871716E-01 0.25522281E+03</pdfrwt>
<pdfrwt beam="2">  1       21 0.65870944E-01 0.25522281E+03</pdfrwt>
<totfact> 0.31400345E+04</totfact>
</mgrwt>
</event>
<event>
 5    0  0.1467858E+000  0.2959390E+03  0.7546771E-02  0.1087288E+00
         21   -1    0    0  504  501  0.00000000000E+00  0.00000000000E+00  0.87768971087E+02  0.87768971087E+02  0.00000000000E+00 0.  1.
         21   -1    0    0  501  502 -0.00000000000E+00 -0.00000000000E+00 -0.11369385881E+04  0.11369385881E+04  0.00000000000E+00 0.  1.
         25    1    1    2    0    0  0.25530783386E+03 -0.82297132827E+02 -0.80601445231E+03  0.85862634797E+03  0.12500000000E+03 0.  0.
         21    1    1    2  503  502 -0.16991342100E+02  0.19324512171E+02 -0.35073879487E+02  0.43500798835E+02  0.00000000000E+00 0.  1.
         21    1    1    2  504  503 -0.23831649176E+03  0.62972620656E+02 -0.20808128522E+03  0.32258041238E+03  0.00000000000E+00 0.  1.
<mgrwt>
<rscale>  4 0.29593903E+03</rscale>
<asrwt>0</asrwt>
<pdfrwt beam="1">  1       21 0.13502919E-01 0.29593903E+03</pdfrwt>
<pdfrwt beam="2">  1       21 0.17491363E+00 0.29593903E+03</pdfrwt>
<totfact> 0.87391295E+03</totfact>
</mgrwt>
</event>
<event>
 5    0  0.1467858E+000  0.2621802E+03  0.7546771E-02  0.1105840E+00
         21   -1    0    0  504  501  0.00000000000E+00  0.00000000000E+00  0.44541144111E+03  0.44541144111E+03  0.00000000000E+00 0.  1.
         21   -1    0    0  501  502 -0.00000000000E+00 -0.00000000000E+00 -0.14340166186E+03  0.14340166186E+03  0.00000000000E+00 0. -1.
         25    1    1    2    0    0 -0.44378151919E+02  0.22615045822E+03  0.10756844208E+03  0.28338916679E+03  0.12500000000E+03 0.  0.
         21    1    1    2  503  502  0.29699623352E+02 -0.58216148132E+02  0.70903841172E+02  0.96428949094E+02  0.00000000000E+00 0.  1.
         21    1    1    2  504  503  0.14678528567E+02 -0.16793431009E+03  0.12353749600E+03  0.20899498708E+03  0.00000000000E+00 0.  1.
<mgrwt>
<rscale>  4 0.26218019E+03</rscale>
<asrwt>0</asrwt>
<pdfrwt beam="1">  1       21 0.68524837E-01 0.26218019E+03</pdfrwt>
<pdfrwt beam="2">  1       21 0.22061794E-01 0.26218019E+03</pdfrwt>
<totfact> 0.36079701E+04</totfact>
</mgrwt>
</event>
<event>
 5    0  0.1467858E+000  0.2426664E+03  0.7546771E-02  0.1118029E+00
         21   -1    0    0  504  501  0.00000000000E+00  0.00000000000E+00  0.31037912967E+03  0.31037912967E+03  0.00000000000E+00 0.  1.
         21   -1    0    0  501  502 -0.00000000000E+00 -0.00000000000E+00 -0.13718791822E+04  0.13718791822E+04  0.00000000000E+00 0. -1.
         25    1    1    2    0    0  0.19932326159E+03 -0.61967697820E+02 -0.13190745778E+04  0.13413249047E+04  0.12500000000E+03 0.  0.
         21    1    1    2  503  502 -0.19451672599E+02  0.47948323545E+01 -0.18468389563E+01  0.20118866726E+02  0.00000000000E+00 0.  1.
         21    1    1    2  504  503 -0.17987158899E+03  0.57172865466E+02  0.25942136429E+03  0.32081454038E+03  0.00000000000E+00 0.  1.
<mgrwt>
<rscale>  4 0.24266641E+03</rscale>
<asrwt>0</asrwt>
<pdfrwt beam="1">  1       21 0.47750634E-01 0.24266641E+03</pdfrwt>
<pdfrwt beam="2">  1       21 0.21105834E+00 0.24266641E+03</pdfrwt>
<totfact> 0.45293701E+02</totfact>
</mgrwt>
</event>
<event>
 5    0  0.1467858E+000  0.3332365E+03  0.7546771E-02  0.1069714E+00
         21   -1    0    0  504  501  0.00000000000E+00  0.00000000000E+00  0.88733282747E+03  0.88733282747E+03  0.00000000000E+00 0. -1.
         21   -1    0    0  501  502 -0.00000000000E+00 -0.00000000000E+00 -0.66530410948E+03  0.66530410948E+03  0.00000000000E+00 0. -1.
         25    1    1    2    0    0  0.30798787890E+03  0.23769953820E+02 -0.59222772631E+03  0.67954412959E+03  0.12500000000E+03 0.  0.
         21    1    1    2  503  502 -0.29076057334E+03 -0.37093878351E+02  0.76517961968E+03  0.81940070613E+03  0.00000000000E+00 0. -1.
         21    1    1    2  504  503 -0.17227305556E+02  0.13323924532E+02  0.49076824606E+02  0.53692101235E+02  0.00000000000E+00 0.  1.
<mgrwt>
<rscale>  4 0.33323647E+03</rscale>
<asrwt>0</asrwt>
<pdfrwt beam="1">  1       21 0.13651274E+00 0.33323647E+03</pdfrwt>
<pdfrwt beam="2">  1       21 0.10235448E+00 0.33323647E+03</pdfrwt>
<totfact> 0.26073646E+02</totfact>
</mgrwt>
</event>
<event>
 5    0  0.1467858E+000  0.2509814E+03  0.7546771E-02  0.1112686E+00
         21   -1    0    0  504  501  0.00000000000E+00  0.00000000000E+00  0.59154156854E+03  0.59154156854E+03  0.00000000000E+00 0. -1.
         21   -1    0    0  501  502 -0.00000000000E+00 -0.00000000000E+00 -0.32308114137E+03  0.32308114137E+03  0.00000000000E+00 0. -1.
         25    1    1    2    0    0 -0.10451002311E+03 -0.19955136072E+03 -0.23012652258E+03  0.34543640065E+03  0.12500000000E+03 0.  0.
         21    1    1    2  503  502 -0.29416262559E+02  0.86233674725E+02  0.11000588077E+03  0.14283856960E+03  0.00000000000E+00 0. -1.
         21    1    1    2  504  503  0.13392628567E+03  0.11331768600E+03  0.38858106898E+03  0.42634773967E+03  0.00000000000E+00 0. -1.
<mgrwt>
<rscale>  4 0.25098144E+03</rscale>
<asrwt>0</asrwt>
<pdfrwt beam="1">  1       21 0.91006395E-01 0.25098144E+03</pdfrwt>
<pdfrwt beam="2">  1       21 0.49704791E-01 0.25098144E+03</pdfrwt>
<totfact> 0.37833416E+03</totfact>
</mgrwt>
</event>
<event>
 5    0  0.1467858E+000  0.9567282E+03  0.7546771E-02  0.9357321E-01
         21   -1    0    0  504  501  0.00000000000E+00  0.00000000000E+00  0.19213899659E+04  0.19213899659E+04  0.00000000000E+00 0.  1.
         21   -1    0    0  501  502 -0.00000000000E+00 -0.00000000000E+00 -0.15867071818E+04  0.15867071818E+04  0.00000000000E+00 0. -1.
         25    1    1    2    0    0  0.43948192845E+03 -0.83065617778E+03 -0.12001497964E+04  0.15294177274E+04  0.12500000000E+03 0.  0.
         21    1    1    2  503  502 -0.11825437662E+03 -0.16239151042E+03  0.19147404141E+03  0.27752010518E+03  0.00000000000E+00 0.  1.
         21    1    1    2  504  503 -0.32122755183E+03  0.99304768819E+03  0.13433585390E+04  0.17011593151E+04  0.00000000000E+00 0.  1.
<mgrwt>
<rscale>  4 0.95672824E+03</rscale>
<asrwt>0</asrwt>
<pdfrwt beam="1">  1       21 0.29559846E+00 0.95672824E+03</pdfrwt>
<pdfrwt beam="2">  1       21 0.24410880E+00 0.95672824E+03</pdfrwt>
<totfact> 0.13323745E+00</totfact>
</mgrwt>
</event>
<event>
 5    0  0.1467858E+000  0.2646443E+03  0.7546771E-02  0.1104384E+00
         21   -1    0    0  504  501  0.00000000000E+00  0.00000000000E+00  0.34006613859E+03  0.34006613859E+03  0.00000000000E+00 0. -1.
         21   -1    0    0  501  502 -0.00000000000E+00 -0.00000000000E+00 -0.48182023174E+03  0.48182023174E+03  0.00000000000E+00 0. -1.
         25    1    1    2    0    0 -0.23591528667E+03  0.17588404302E+02 -0.38199016366E+03  0.46637630685E+03  0.12500000000E+03 0.  0.
         21    1    1    2  503  502  0.27068757668E+02  0.19146379849E+02 -0.24334955255E+01  0.33244900413E+02  0.00000000000E+00 0.  1.
         21    1    1    2  504  503  0.20884652900E+03 -0.36734784151E+02  0.24266956605E+03  0.32226516307E+03  0.00000000000E+00 0. -1.
<mgrwt>
<rscale>  4 0.26464435E+03</rscale>
<asrwt>0</asrwt>
<pdfrwt beam="1">  1       21 0.52317868E-01 0.26464435E+03</pdfrwt>
<pdfrwt beam="2">  1       21 0.74126189E-01 0.26464435E+03</pdfrwt>
<totfact> 0.53887703E+03</totfact>
</mgrwt>
</event>
<event>
 5    0  0.1467858E+000  0.2489269E+03  0.7546771E-02  0.1113985E+00
         21   -1    0    0  504  501  0.00000000000E+00  0.00000000000E+00  0.18003775402E+03  0.18003775402E+03  0.00000000000E+00 0. -1.
         21   -1    0    0  501  502 -0.00000000000E+00 -0.00000000000E+00 -0.50703800816E+03  0.50703800816E+03  0.00000000000E+00 0.  1.
         25    1    1    2    0    0  0.13881293503E+03  0.16453133686E+03 -0.38728336134E+03  0.46038352893E+03  0.12500000000E+03 0.  0.
         21    1    1    2  503  502 -0.34714003398E+02 -0.37481977454E+02 -0.17512462741E+01  0.51117780950E+02  0.00000000000E+00 0. -1.
         21    1    1    2  504  503 -0.10409893163E+03 -0.12704935940E+03  0.62034353469E+02  0.17557445231E+03  0.00000000000E+00 0. -1.
<mgrwt>
<rscale>  4 0.24892688E+03</rscale>
<asrwt>0</asrwt>
<pdfrwt beam="1">  1       21 0.27698116E-01 0.24892688E+03</pdfrwt>
<pdfrwt beam="2">  1       21 0.78005847E-01 0.24892688E+03</pdfrwt>
<totfact> 0.17544593E+04</totfact>
</mgrwt>
</event>
<event>
 5    0  0.1467858E+000  0.2602978E+03  0.7546771E-02  0.1106964E+00
         21   -1    0    0  504  501  0.00000000000E+00  0.00000000000E+00  0.40102401195E+03  0.40102401195E+03  0.00000000000E+00 0.  1.
         21   -1    0    0  501  502 -0.00000000000E+00 -0.00000000000E+00 -0.29152601900E+03  0.29152601900E+03  0.00000000000E+00 0. -1.
         25    1    1    2    0    0  0.14327696379E+03  0.18850754689E+03 -0.16191553406E+03  0.31289778484E+03  0.12500000000E+03 0.  0.
         21    1    1    2  503  502 -0.52682889351E+02 -0.11961172554E+02  0.16255635624E+02  0.56416328919E+02  0.00000000000E+00 0.  1.
         21    1    1    2  504  503 -0.90594074438E+02 -0.17654637434E+03  0.25515789139E+03  0.32323591718E+03  0.00000000000E+00 0.  1.
<mgrwt>
<rscale>  4 0.26029782E+03</rscale>
<asrwt>0</asrwt>
<pdfrwt beam="1">  1       21 0.61696002E-01 0.26029782E+03</pdfrwt>
<pdfrwt beam="2">  1       21 0.44850157E-01 0.26029782E+03</pdfrwt>
<totfact> 0.11182363E+04</totfact>
</mgrwt>
</event>
<event>
 5    0  0.1467858E+000  0.3177971E+03  0.7546771E-02  0.1076668E+00
         21   -1    0    0  504  501  0.00000000000E+00  0.00000000000E+00  0.76120484992E+03  0.76120484992E+03  0.00000000000E+00 0. -1.
         21   -1    0    0  501  502 -0.00000000000E+00 -0.00000000000E+00 -0.13855379731E+03  0.13855379731E+03  0.00000000000E+00 0. -1.
         25    1    1    2    0    0 -0.15131244813E+03  0.24994913768E+03  0.18163111545E+03  0.36603946575E+03  0.12500000000E+03 0.  0.
         21    1    1    2  503  502  0.12243411285E+03 -0.19600210524E+03  0.29031619513E+03  0.37106661181E+03  0.00000000000E+00 0. -1.
         21    1    1    2  504  503  0.28878335286E+02 -0.53947032436E+02  0.15070374203E+03  0.16265256967E+03  0.00000000000E+00 0. -1.
<mgrwt>
<rscale>  4 0.31779715E+03</rscale>
<asrwt>0</asrwt>
<pdfrwt beam="1">  1       21 0.11710844E+00 0.31779715E+03</pdfrwt>
<pdfrwt beam="2">  1       21 0.21315969E-01 0.31779715E+03</pdfrwt>
<totfact> 0.10708796E+04</totfact>
</mgrwt>
</event>
<event>
 5    0  0.1467858E+000  0.2686819E+03  0.7546771E-02  0.1102036E+00
         21   -1    0    0  504  501  0.00000000000E+00  0.00000000000E+00  0.16256268324E+03  0.16256268324E+03  0.00000000000E+00 0.  1.
         21   -1    0    0  501  502 -0.00000000000E+00 -0.00000000000E+00 -0.58355017039E+03  0.58355017039E+03  0.00000000000E+00 0.  1.
         25    1    1    2    0    0 -0.11910621235E+03  0.24550661171E+03 -0.24242928781E+03  0.38581957675E+03  0.12500000000E+03 0.  0.
         21    1    1    2  503  502  0.10336211869E+03 -0.19628479867E+03 -0.58252001131E+02  0.22935724406E+03  0.00000000000E+00 0.  1.
         21    1    1    2  504  503  0.15744093653E+02 -0.49221813047E+02 -0.12030619820E+03  0.13093603282E+03  0.00000000000E+00 0.  1.
<mgrwt>
<rscale>  4 0.26868187E+03</rscale>
<asrwt>0</asrwt>
<pdfrwt beam="1">  1       21 0.25009643E-01 0.26868187E+03</pdfrwt>
<pdfrwt beam="2">  1       21 0.89776950E-01 0.26868187E+03</pdfrwt>
<totfact> 0.15322079E+04</totfact>
</mgrwt>
</event>
<event>
 5    0  0.1467858E+000  0.2477573E+03  0.7546771E-02  0.1114730E+00
         21   -1    0    0  504  501  0.00000000000E+00  0.00000000000E+00  0.15188577413E+03  0.15188577413E+03  0.00000000000E+00 0. -1.
         21   -1    0    0  501  502 -0.00000000000E+00 -0.00000000000E+00 -0.11891900312E+04  0.11891900312E+04  0.00000000000E+00 0.  1.
         25    1    1    2    0    0  0.15281589536E+03  0.14968625661E+03 -0.10908286977E+04  0.11186111572E+04  0.12500000000E+03 0.  0.
         21    1    1    2  503  502 -0.13571239944E+03 -0.13851350069E+03  0.56111501122E+02  0.20187210256E+03  0.00000000000E+00 0. -1.
         21    1    1    2  504  503 -0.17103495925E+02 -0.11172755924E+02 -0.25870604010E+01  0.20592545479E+02  0.00000000000E+00 0. -1.
<mgrwt>
<rscale>  4 0.24775729E+03</rscale>
<asrwt>0</asrwt>
<pdfrwt beam="1">  1       21 0.23367043E-01 0.24775729E+03</pdfrwt>
<pdfrwt beam="2">  1       21 0.18295231E+00 0.24775729E+03</pdfrwt>
<totfact> 0.28536729E+03</totfact>
</mgrwt>
</event>
<event>
 5    0  0.1467858E+000  0.3085447E+03  0.7546771E-02  0.1081046E+00
         21   -1    0    0  504  501  0.00000000000E+00  0.00000000000E+00  0.17343780930E+03  0.17343780930E+03  0.00000000000E+00 0. -1.
         21   -1    0    0  501  502 -0.00000000000E+00 -0.00000000000E+00 -0.68782221191E+03  0.68782221191E+03  0.00000000000E+00 0.  1.
         25    1    1    2    0    0  0.17906738516E+03 -0.21796724603E+03 -0.48275764379E+03  0.57293524190E+03  0.12500000000E+03 0.  0.
         21    1    1    2  503  502 -0.14701270827E+03  0.17935186226E+03 -0.60189489939E+01  0.23198287574E+03  0.00000000000E+00 0. -1.
         21    1    1    2  504  503 -0.32054676894E+02  0.38615383766E+02 -0.25607809823E+02  0.56341903572E+02  0.00000000000E+00 0. -1.
<mgrwt>
<rscale>  4 0.30854473E+03</rscale>
<asrwt>0</asrwt>
<pdfrwt beam="1">  1       21 0.26682739E-01 0.30854473E+03</pdfrwt>
<pdfrwt beam="2">  1       21 0.10581880E+00 0.30854473E+03</pdfrwt>
<totfact> 0.89636855E+03</totfact>
</mgrwt>
</event>
<event>
 5    0  0.1467858E+000  0.2603841E+03  0.7546771E-02  0.1106913E+00
         21   -1    0    0  504  501  0.00000000000E+00  0.00000000000E+00  0.20920067904E+03  0.20920067904E+03  0.00000000000E+00 0.  1.
         21   -1    0    0  501  502 -0.00000000000E+00 -0.00000000000E+00 -0.29210614469E+03  0.29210614469E+03  0.00000000000E+00 0.  1.
         25    1    1    2    0    0 -0.16302811975E+03 -0.15998975525E+03 -0.42957256442E+02  0.26390379969E+03  0.12500000000E+03 0.  0.
         21    1    1    2  503  502  0.14595878257E+03  0.14143543418E+03 -0.18110780273E+02  0.20404888780E+03  0.00000000000E+00 0.  1.
         21    1    1    2  504  503  0.17069337180E+02  0.18554321069E+02 -0.21837428930E+02  0.33354136241E+02  0.00000000000E+00 0. -1.
<mgrwt>
<rscale>  4 0.26038412E+03</rscale>
<asrwt>0</asrwt>
<pdfrwt beam="1">  1       21 0.32184720E-01 0.26038412E+03</pdfrwt>
<pdfrwt beam="2">  1       21 0.44939407E-01 0.26038412E+03</pdfrwt>
<totfact> 0.42800046E+04</totfact>
</mgrwt>
</event>
<event>
 5    0  0.1467858E+000  0.2803434E+03  0.7546771E-02  0.1095943E+00
         21   -1    0    0  504  501  0.00000000000E+00  0.00000000000E+00  0.39815417444E+03  0.39815417444E+03  0.00000000000E+00 0. -1.
         21   -1    0    0  501  502 -0.00000000000E+00 -0.00000000000E+00 -0.23931364891E+03  0.23931364891E+03  0.00000000000E+00 0. -1.
         25    1    1    2    0    0  0.14298480912E+03  0.20181136424E+03 -0.57903998532E+02  0.28310838105E+03  0.12500000000E+03 0.  0.
         21    1    1    2  503  502 -0.19699615861E+02 -0.13417827197E+03  0.76249455458E+02  0.15558233509E+03  0.00000000000E+00 0. -1.
         21    1    1    2  504  503 -0.12328519326E+03 -0.67633092273E+02  0.14049506861E+03  0.19877710721E+03  0.00000000000E+00 0. -1.
<mgrwt>
<rscale>  4 0.27953496E+03</rscale>
<asrwt>0</asrwt>
<pdfrwt beam="1">  1       21 0.61254489E-01 0.28034341E+03</pdfrwt>
<pdfrwt beam="2">  1       21 0.36817484E-01 0.28034341E+03</pdfrwt>
<totfact> 0.16830739E+04</totfact>
</mgrwt>
</event>
<event>
 5    0  0.1467858E+000  0.2596934E+03  0.7546771E-02  0.1107328E+00
         21   -1    0    0  504  501  0.00000000000E+00  0.00000000000E+00  0.11295256888E+03  0.11295256888E+03  0.00000000000E+00 0.  1.
         21   -1    0    0  501  502 -0.00000000000E+00 -0.00000000000E+00 -0.56463826153E+03  0.56463826153E+03  0.00000000000E+00 0. -1.
         25    1    1    2    0    0 -0.12827772856E+02  0.22726877928E+03 -0.31984637687E+03  0.41199800314E+03  0.12500000000E+03 0.  0.
         21    1    1    2  503  502  0.14327616927E+02 -0.18464052879E+03 -0.12215053641E+03  0.22185165995E+03  0.00000000000E+00 0.  1.
         21    1    1    2  504  503 -0.14998440703E+01 -0.42628250496E+02 -0.96887793712E+01  0.43741167317E+02  0.00000000000E+00 0.  1.
<mgrwt>
<rscale>  4 0.25969338E+03</rscale>
<asrwt>0</asrwt>
<pdfrwt beam="1">  1       21 0.17377318E-01 0.25969338E+03</pdfrwt>
<pdfrwt beam="2">  1       21 0.86867425E-01 0.25969338E+03</pdfrwt>
<totfact> 0.33046811E+04</totfact>
</mgrwt>
</event>
<event>
 5    0  0.1467858E+000  0.4784061E+03  0.7546771E-02  0.1019574E+00
         21   -1    0    0  504  501  0.00000000000E+00  0.00000000000E+00  0.94319865892E+03  0.94319865892E+03  0.00000000000E+00 0.  1.
         21   -1    0    0  501  502 -0.00000000000E+00 -0.00000000000E+00 -0.25877748019E+03  0.25877748019E+03  0.00000000000E+00 0. -1.
         25    1    1    2    0    0 -0.44768984121E+03  0.12017355878E+03  0.25641837092E+03  0.54428233399E+03  0.12500000000E+03 0.  0.
         21    1    1    2  503  502  0.12160063809E+02  0.31071686362E+02  0.86679340719E+01  0.34473902104E+02  0.00000000000E+00 0.  1.
         21    1    1    2  504  503  0.43552977740E+03 -0.15124524514E+03  0.41933487374E+03  0.62321990302E+03  0.00000000000E+00 0.  1.
<mgrwt>
<rscale>  4 0.47840613E+03</rscale>
<asrwt>0</asrwt>
<pdfrwt beam="1">  1       21 0.14510748E+00 0.47840613E+03</pdfrwt>
<pdfrwt beam="2">  1       21 0.39811921E-01 0.47840613E+03</pdfrwt>
<totfact> 0.16749878E+03</totfact>
</mgrwt>
</event>
<event>
 5    0  0.1467858E+000  0.2298165E+03  0.7546771E-02  0.1126769E+00
         21   -1    0    0  504  501  0.00000000000E+00  0.00000000000E+00  0.91103476226E+03  0.91103476226E+03  0.00000000000E+00 0. -1.
         21   -1    0    0  501  502 -0.00000000000E+00 -0.00000000000E+00 -0.18275462830E+03  0.18275462830E+03  0.00000000000E+00 0. -1.
         25    1    1    2    0    0 -0.10201089655E+02  0.23028969644E+03 -0.32901319704E+02  0.26428186346E+03  0.12500000000E+03 0.  0.
         21    1    1    2  503  502 -0.76608298408E+02 -0.11323997518E+03  0.58550762489E+03  0.60125809946E+03  0.00000000000E+00 0. -1.
         21    1    1    2  504  503  0.86809388063E+02 -0.11704972126E+03  0.17567382878E+03  0.22824942764E+03  0.00000000000E+00 0. -1.
<mgrwt>
<rscale>  4 0.22981648E+03</rscale>
<asrwt>0</asrwt>
<pdfrwt beam="1">  1       21 0.14015919E+00 0.22981648E+03</pdfrwt>
<pdfrwt beam="2">  1       21 0.28116097E-01 0.22981648E+03</pdfrwt>
<totfact> 0.41854210E+03</totfact>
</mgrwt>
</event>
<event>
 5    0  0.1467858E+000  0.2605113E+03  0.7546771E-02  0.1106836E+00
         21   -1    0    0  504  501  0.00000000000E+00  0.00000000000E+00  0.19301438637E+03  0.19301438637E+03  0.00000000000E+00 0. -1.
         21   -1    0    0  501  502 -0.00000000000E+00 -0.00000000000E+00 -0.12716643062E+04  0.12716643062E+04  0.00000000000E+00 0. -1.
         25    1    1    2    0    0 -0.47635435844E+02 -0.22475585491E+03 -0.11681898282E+04  0.11971118594E+04  0.12500000000E+03 0.  0.
         21    1    1    2  503  502 -0.19890406837E+02  0.17347669449E+02  0.32959425516E+02  0.42224325333E+02  0.00000000000E+00 0.  1.
         21    1    1    2  504  503  0.67525842682E+02  0.20740818546E+03  0.56580482850E+02  0.22534250790E+03  0.00000000000E+00 0. -1.
<mgrwt>
<rscale>  4 0.26051128E+03</rscale>
<asrwt>0</asrwt>
<pdfrwt beam="1">  1       21 0.29694521E-01 0.26051128E+03</pdfrwt>
<pdfrwt beam="2">  1       21 0.19564066E+00 0.26051128E+03</pdfrwt>
<totfact> 0.14620728E+03</totfact>
</mgrwt>
</event>
<event>
 5    0  0.1467858E+000  0.2463920E+03  0.7546771E-02  0.1115606E+00
         21   -1    0    0  504  501  0.00000000000E+00  0.00000000000E+00  0.65181633046E+02  0.65181633046E+02  0.00000000000E+00 0. -1.
         21   -1    0    0  501  502 -0.00000000000E+00 -0.00000000000E+00 -0.90613895598E+03  0.90613895598E+03  0.00000000000E+00 0. -1.
         25    1    1    2    0    0  0.10846226692E+03  0.18253751073E+03 -0.29866983527E+03  0.38718558427E+03  0.12500000000E+03 0.  0.
         21    1    1    2  503  502 -0.59737231575E+02 -0.13893071397E+03 -0.35999887179E+03  0.39047338938E+03  0.00000000000E+00 0. -1.
         21    1    1    2  504  503 -0.48725035341E+02 -0.43606796763E+02 -0.18228861587E+03  0.19366161537E+03  0.00000000000E+00 0. -1.
<mgrwt>
<rscale>  4 0.24639198E+03</rscale>
<asrwt>0</asrwt>
<pdfrwt beam="1">  1       21 0.10027944E-01 0.24639198E+03</pdfrwt>
<pdfrwt beam="2">  1       21 0.13940598E+00 0.24639198E+03</pdfrwt>
<totfact> 0.28335552E+04</totfact>
</mgrwt>
</event>
<event>
 5    0  0.1467858E+000  0.2622615E+03  0.7546771E-02  0.1105792E+00
         21   -1    0    0  504  501  0.00000000000E+00  0.00000000000E+00  0.68933628613E+03  0.68933628613E+03  0.00000000000E+00 0. -1.
         21   -1    0    0  501  502 -0.00000000000E+00 -0.00000000000E+00 -0.43778724085E+03  0.43778724085E+03  0.00000000000E+00 0.  1.
         25    1    1    2    0    0 -0.22550379776E+03  0.48001343310E+02 -0.37564551419E+03  0.45813823688E+03  0.12500000000E+03 0.  0.
         21    1    1    2  503  502  0.20163625574E+03 -0.52658649687E+02  0.56455775537E+03  0.60179362922E+03  0.00000000000E+00 0. -1.
         21    1    1    2  504  503  0.23867542017E+02  0.46573063772E+01  0.62636804096E+02  0.67191660881E+02  0.00000000000E+00 0. -1.
<mgrwt>
<rscale>  4 0.26226150E+03</rscale>
<asrwt>0</asrwt>
<pdfrwt beam="1">  1       21 0.10605174E+00 0.26226150E+03</pdfrwt>
<pdfrwt beam="2">  1       21 0.67351883E-01 0.26226150E+03</pdfrwt>
<totfact> 0.13568192E+03</totfact>
</mgrwt>
</event>
<event>
 5    0  0.1467858E+000  0.2704182E+03  0.7546771E-02  0.1101041E+00
         21   -1    0    0  504  501  0.00000000000E+00  0.00000000000E+00  0.30368949018E+03  0.30368949018E+03  0.00000000000E+00 0. -1.
         21   -1    0    0  501  502 -0.00000000000E+00 -0.00000000000E+00 -0.58828014374E+03  0.58828014374E+03  0.00000000000E+00 0. -1.
         25    1    1    2    0    0 -0.20275321817E+03  0.13993486241E+03 -0.47730990569E+03  0.55148923767E+03  0.12500000000E+03 0.  0.
         21    1    1    2  503  502  0.23288400959E+02 -0.53235688852E+02 -0.67543892669E+01  0.58497948350E+02  0.00000000000E+00 0. -1.
         21    1    1    2  504  503  0.17946481721E+03 -0.86699173557E+02  0.19947364140E+03  0.28198244790E+03  0.00000000000E+00 0. -1.
<mgrwt>
<rscale>  4 0.27041816E+03</rscale>
<asrwt>0</asrwt>
<pdfrwt beam="1">  1       21 0.46721461E-01 0.27041816E+03</pdfrwt>
<pdfrwt beam="2">  1       21 0.90504636E-01 0.27041816E+03</pdfrwt>
<totfact> 0.43097523E+03</totfact>
</mgrwt>
</event>
<event>
 5    0  0.1467858E+000  0.2472893E+03  0.7546771E-02  0.1115030E+00
         21   -1    0    0  504  501  0.00000000000E+00  0.00000000000E+00  0.42844641469E+03  0.42844641469E+03  0.00000000000E+00 0.  1.
         21   -1    0    0  501  502 -0.00000000000E+00 -0.00000000000E+00 -0.13198279900E+03  0.13198279900E+03  0.00000000000E+00 0.  1.
         25    1    1    2    0    0 -0.11898767943E+02 -0.21303847917E+03  0.13838476159E+03  0.28337663370E+03  0.12500000000E+03 0.  0.
         21    1    1    2  503  502 -0.14351154201E+01  0.15693577523E+03  0.70162628083E+02  0.17191187127E+03  0.00000000000E+00 0.  1.
         21    1    1    2  504  503  0.13333883364E+02  0.56102703935E+02  0.87916226021E+02  0.10514070873E+03  0.00000000000E+00 0.  1.
<mgrwt>
<rscale>  4 0.24728925E+03</rscale>
<asrwt>0</asrwt>
<pdfrwt beam="1">  1       21 0.65914832E-01 0.24728925E+03</pdfrwt>
<pdfrwt beam="2">  1       21 0.20305046E-01 0.24728925E+03</pdfrwt>
<totfact> 0.46260937E+04</totfact>
</mgrwt>
</event>
<event>
 5    0  0.1467858E+000  0.2397204E+03  0.7546771E-02  0.1119979E+00
         21   -1    0    0  504  501  0.00000000000E+00  0.00000000000E+00  0.19548215030E+03  0.19548215030E+03  0.00000000000E+00 0. -1.
         21   -1    0    0  501  502 -0.00000000000E+00 -0.00000000000E+00 -0.84481442339E+03  0.84481442339E+03  0.00000000000E+00 0. -1.
         25    1    1    2    0    0  0.18698987937E+03 -0.85404749165E+02 -0.75034423656E+03  0.78797249921E+03  0.12500000000E+03 0.  0.
         21    1    1    2  503  502  0.43634340225E+01  0.32179195912E+02  0.17192843975E+02  0.36744170830E+02  0.00000000000E+00 0. -1.
         21    1    1    2  504  503 -0.19135331339E+03  0.53225553253E+02  0.83819119501E+02  0.21557990366E+03  0.00000000000E+00 0. -1.
<mgrwt>
<rscale>  4 0.23972036E+03</rscale>
<asrwt>0</asrwt>
<pdfrwt beam="1">  1       21 0.30074177E-01 0.23972036E+03</pdfrwt>
<pdfrwt beam="2">  1       21 0.12997145E+00 0.23972036E+03</pdfrwt>
<totfact> 0.44238680E+03</totfact>
</mgrwt>
</event>
<event>
 5    0  0.1467858E+000  0.2536422E+03  0.7546771E-02  0.1111024E+00
         21   -1    0    0  504  501  0.00000000000E+00  0.00000000000E+00  0.47960362963E+03  0.47960362963E+03  0.00000000000E+00 0. -1.
         21   -1    0    0  501  502 -0.00000000000E+00 -0.00000000000E+00 -0.11307959382E+04  0.11307959382E+04  0.00000000000E+00 0. -1.
         25    1    1    2    0    0 -0.19803050905E+03  0.13120627270E+03 -0.10467939064E+04  0.10806635235E+04  0.12500000000E+03 0.  0.
         21    1    1    2  503  502  0.10995427400E+03 -0.87312566800E+02  0.20442363239E+02  0.14188487201E+03  0.00000000000E+00 0. -1.
         21    1    1    2  504  503  0.88076235056E+02 -0.43893705901E+02  0.37515923457E+03  0.38785117234E+03  0.00000000000E+00 0. -1.
<mgrwt>
<rscale>  4 0.25364224E+03</rscale>
<asrwt>0</asrwt>
<pdfrwt beam="1">  1       21 0.73785174E-01 0.25364224E+03</pdfrwt>
<pdfrwt beam="2">  1       21 0.17396861E+00 0.25364224E+03</pdfrwt>
<totfact> 0.30891743E+02</totfact>
</mgrwt>
</event>
<event>
 5    0  0.1467858E+000  0.2529453E+03  0.7546771E-02  0.1111457E+00
         21   -1    0    0  504  501  0.00000000000E+00  0.00000000000E+00  0.45049783943E+03  0.45049783943E+03  0.00000000000E+00 0.  1.
         21   -1    0    0  501  502 -0.00000000000E+00 -0.00000000000E+00 -0.84869822016E+03  0.84869822016E+03  0.00000000000E+00 0. -1.
         25    1    1    2    0    0  0.10617016786E+03  0.19257268315E+03 -0.79958086624E+03  0.83863633626E+03  0.12500000000E+03 0.  0.
         21    1    1    2  503  502 -0.84570874019E+02 -0.11794368720E+03  0.22393899347E+03  0.26685505219E+03  0.00000000000E+00 0.  1.
         21    1    1    2  504  503 -0.21599293839E+02 -0.74628995943E+02  0.17744149203E+03  0.19370467115E+03  0.00000000000E+00 0. -1.
<mgrwt>
<rscale>  4 0.25294534E+03</rscale>
<asrwt>0</asrwt>
<pdfrwt beam="1">  1       21 0.69307361E-01 0.25294534E+03</pdfrwt>
<pdfrwt beam="2">  1       21 0.13056896E+00 0.25294534E+03</pdfrwt>
<totfact> 0.76509667E+02</totfact>
</mgrwt>
</event>
<event>
 5    0  0.1467858E+000  0.2453827E+03  0.7546771E-02  0.1116258E+00
         21   -1    0    0  504  501  0.00000000000E+00  0.00000000000E+00  0.10329535982E+04  0.10329535982E+04  0.00000000000E+00 0.  1.
         21   -1    0    0  501  502 -0.00000000000E+00 -0.00000000000E+00 -0.16104300691E+03  0.16104300691E+03  0.00000000000E+00 0.  1.
         25    1    1    2    0    0 -0.16726974063E+03  0.12887399599E+03 -0.46894492278E+02  0.24982347043E+03  0.12500000000E+03 0.  0.
         21    1    1    2  503  502  0.14375014772E+03 -0.83409206171E+02  0.69866460016E+03  0.71815974835E+03  0.00000000000E+00 0.  1.
         21    1    1    2  504  503  0.23519592916E+02 -0.45464789814E+02  0.22014048343E+03  0.22601338635E+03  0.00000000000E+00 0.  1.
<mgrwt>
<rscale>  4 0.24538271E+03</rscale>
<asrwt>0</asrwt>
<pdfrwt beam="1">  1       21 0.15891593E+00 0.24538271E+03</pdfrwt>
<pdfrwt beam="2">  1       21 0.24775848E-01 0.24538271E+03</pdfrwt>
<totfact> 0.37857237E+03</totfact>
</mgrwt>
</event>
<event>
 5    0  0.1467858E+000  0.2994621E+03  0.7546771E-02  0.1085510E+00
         21   -1    0    0  504  501  0.00000000000E+00  0.00000000000E+00  0.95065928091E+03  0.95065928091E+03  0.00000000000E+00 0. -1.
         21   -1    0    0  501  502 -0.00000000000E+00 -0.00000000000E+00 -0.80447385080E+03  0.80447385080E+03  0.00000000000E+00 0.  1.
         25    1    1    2    0    0  0.27103509282E+03 -0.25936354718E+02 -0.74437358741E+03  0.80240248858E+03  0.12500000000E+03 0.  0.
         21    1    1    2  503  502 -0.10219251804E+02 -0.62339040558E+02  0.16400683102E+03  0.17575218265E+03  0.00000000000E+00 0. -1.
         21    1    1    2  504  503 -0.26081584102E+03  0.88275395275E+02  0.72655218651E+03  0.77697846049E+03  0.00000000000E+00 0. -1.
<mgrwt>
<rscale>  4 0.29946208E+03</rscale>
<asrwt>0</asrwt>
<pdfrwt beam="1">  1       21 0.14625527E+00 0.29946208E+03</pdfrwt>
<pdfrwt beam="2">  1       21 0.12376521E+00 0.29946208E+03</pdfrwt>
<totfact> 0.13947266E+02</totfact>
</mgrwt>
</event>
<event>
 5    0  0.1467858E+000  0.2497686E+03  0.7546771E-02  0.1113451E+00
         21   -1    0    0  504  501  0.00000000000E+00  0.00000000000E+00  0.31657201783E+03  0.31657201783E+03  0.00000000000E+00 0.  1.
         21   -1    0    0  501  502 -0.00000000000E+00 -0.00000000000E+00 -0.43775503150E+03  0.43775503150E+03  0.00000000000E+00 0.  1.
         25    1    1    2    0    0  0.21409147997E+03 -0.30400662518E+02 -0.35024831769E+03  0.43018396777E+03  0.12500000000E+03 0.  0.
         21    1    1    2  503  502 -0.97233579097E+02 -0.18418928598E+02  0.72020149591E+02  0.12239496633E+03  0.00000000000E+00 0.  1.
         21    1    1    2  504  503 -0.11685790087E+03  0.48819591117E+02  0.15704515443E+03  0.20174811524E+03  0.00000000000E+00 0.  1.
<mgrwt>
<rscale>  4 0.24976862E+03</rscale>
<asrwt>0</asrwt>
<pdfrwt beam="1">  1       21 0.48703387E-01 0.24976862E+03</pdfrwt>
<pdfrwt beam="2">  1       21 0.67346928E-01 0.24976862E+03</pdfrwt>
<totfact> 0.78213217E+03</totfact>
</mgrwt>
</event>
<event>
 5    0  0.1467858E+000  0.2867336E+03  0.7546771E-02  0.1092067E+00
         21   -1    0    0  504  501  0.00000000000E+00  0.00000000000E+00  0.15090696998E+04  0.15090696998E+04  0.00000000000E+00 0.  1.
         21   -1    0    0  501  502 -0.00000000000E+00 -0.00000000000E+00 -0.51263450932E+02  0.51263450932E+02  0.00000000000E+00 0.  1.
         25    1    1    2    0    0  0.49419556385E+02 -0.25327623656E+03  0.88434967948E+03  0.92967225416E+03  0.12500000000E+03 0.  0.
         21    1    1    2  503  502 -0.44986360292E+02  0.22882711790E+03  0.54549554743E+03  0.59325459523E+03  0.00000000000E+00 0.  1.
         21    1    1    2  504  503 -0.44331960929E+01  0.24449118659E+02  0.27961021950E+02  0.37406301331E+02  0.00000000000E+00 0.  1.
<mgrwt>
<rscale>  4 0.28673358E+03</rscale>
<asrwt>0</asrwt>
<pdfrwt beam="1">  1       21 0.23216453E+00 0.28673358E+03</pdfrwt>
<pdfrwt beam="2">  1       21 0.78866859E-02 0.28673358E+03</pdfrwt>
<totfact> 0.97208180E+03</totfact>
</mgrwt>
</event>
<event>
 5    0  0.1467858E+000  0.2367666E+03  0.7546771E-02  0.1121966E+00
         21   -1    0    0  504  501  0.00000000000E+00  0.00000000000E+00  0.19451717707E+04  0.19451717707E+04  0.00000000000E+00 0. -1.
         21   -1    0    0  501  502 -0.00000000000E+00 -0.00000000000E+00 -0.47518461074E+02  0.47518461074E+02  0.00000000000E+00 0. -1.
         25    1    1    2    0    0 -0.19944102397E+03 -0.24056628329E+02  0.31519041540E+03  0.39411348793E+03  0.12500000000E+03 0.  0.
         21    1    1    2  503  502  0.21062979674E+01 -0.23244225653E+02  0.18112790917E+03  0.18262543634E+03  0.00000000000E+00 0.  1.
         21    1    1    2  504  503  0.19733472601E+03  0.47300853982E+02  0.14013349851E+04  0.14159513075E+04  0.00000000000E+00 0. -1.
<mgrwt>
<rscale>  4 0.23676662E+03</rscale>
<asrwt>0</asrwt>
<pdfrwt beam="1">  1       21 0.29925713E+00 0.23676662E+03</pdfrwt>
<pdfrwt beam="2">  1       21 0.73105340E-02 0.23676662E+03</pdfrwt>
<totfact> 0.46154962E+03</totfact>
</mgrwt>
</event>
<event>
 5    0  0.1467858E+000  0.2487292E+03  0.7546771E-02  0.1114111E+00
         21   -1    0    0  504  501  0.00000000000E+00  0.00000000000E+00  0.24652179009E+03  0.24652179009E+03  0.00000000000E+00 0. -1.
         21   -1    0    0  501  502 -0.00000000000E+00 -0.00000000000E+00 -0.28256082735E+03  0.28256082735E+03  0.00000000000E+00 0. -1.
         25    1    1    2    0    0  0.13757613397E+03 -0.17935173677E+03 -0.90168946595E+02  0.27358669019E+03  0.12500000000E+03 0.  0.
         21    1    1    2  503  502 -0.15143867509E+03  0.13390523278E+03  0.45458624267E+02  0.20719741842E+03  0.00000000000E+00 0. -1.
         21    1    1    2  504  503  0.13862541113E+02  0.45446503987E+02  0.86712850719E+01  0.48298508834E+02  0.00000000000E+00 0. -1.
<mgrwt>
<rscale>  4 0.24872925E+03</rscale>
<asrwt>0</asrwt>
<pdfrwt beam="1">  1       21 0.37926430E-01 0.24872925E+03</pdfrwt>
<pdfrwt beam="2">  1       21 0.43470896E-01 0.24872925E+03</pdfrwt>
<totfact> 0.33178221E+04</totfact>
</mgrwt>
</event>
<event>
 5    0  0.1467858E+000  0.2850246E+03  0.7546771E-02  0.1092976E+00
         21   -1    0    0  504  501  0.00000000000E+00  0.00000000000E+00  0.66293469732E+02  0.66293469732E+02  0.00000000000E+00 0.  1.
         21   -1    0    0  501  502 -0.00000000000E+00 -0.00000000000E+00 -0.13893514136E+04  0.13893514136E+04  0.00000000000E+00 0.  1.
         25    1    1    2    0    0  0.27142243056E+03 -0.27346360446E+02 -0.52682780804E+03  0.60629242001E+03  0.12500000000E+03 0.  0.
         21    1    1    2  503  502 -0.24464564354E+02  0.34095840343E+01 -0.13312307447E+02  0.28059894902E+02  0.00000000000E+00 0.  1.
         21    1    1    2  504  503 -0.24695786620E+03  0.23936776412E+02 -0.78291782843E+03  0.82129256847E+03  0.00000000000E+00 0.  1.
<mgrwt>
<rscale>  4 0.28502460E+03</rscale>
<asrwt>0</asrwt>
<pdfrwt beam="1">  1       21 0.10198995E-01 0.28502460E+03</pdfrwt>
<pdfrwt beam="2">  1       21 0.21374638E+00 0.28502460E+03</pdfrwt>
<totfact> 0.80421785E+03</totfact>
</mgrwt>
</event>
<event>
 5    0  0.1467858E+000  0.4977817E+03  0.7546771E-02  0.1014360E+00
         21   -1    0    0  504  501  0.00000000000E+00  0.00000000000E+00  0.55066241875E+03  0.55066241875E+03  0.00000000000E+00 0. -1.
         21   -1    0    0  501  502 -0.00000000000E+00 -0.00000000000E+00 -0.60610099228E+03  0.60610099228E+03  0.00000000000E+00 0.  1.
         25    1    1    2    0    0 -0.34305238067E+03  0.35801580213E+03 -0.23040287309E+03  0.56086605743E+03  0.12500000000E+03 0.  0.
         21    1    1    2  503  502  0.38039587371E+03 -0.28923320557E+03  0.19334986969E+03  0.51550076629E+03  0.00000000000E+00 0. -1.
         21    1    1    2  504  503 -0.37343493040E+02 -0.68782596557E+02 -0.18385570139E+02  0.80396587308E+02  0.00000000000E+00 0. -1.
<mgrwt>
<rscale>  4 0.49778174E+03</rscale>
<asrwt>0</asrwt>
<pdfrwt beam="1">  1       21 0.84717296E-01 0.49778174E+03</pdfrwt>
<pdfrwt beam="2">  1       21 0.93246306E-01 0.49778174E+03</pdfrwt>
<totfact> 0.97480793E+02</totfact>
</mgrwt>
</event>
<event>
 5    0  0.1467858E+000  0.2922320E+03  0.7546771E-02  0.1089190E+00
         21   -1    0    0  504  501  0.00000000000E+00  0.00000000000E+00  0.32834231993E+03  0.32834231993E+03  0.00000000000E+00 0.  1.
         21   -1    0    0  501  502 -0.00000000000E+00 -0.00000000000E+00 -0.28334942614E+03  0.28334942614E+03  0.00000000000E+00 0.  1.
         25    1    1    2    0    0 -0.17883129275E+02  0.26354261040E+03 -0.87865903516E+02  0.30515558459E+03  0.12500000000E+03 0.  0.
         21    1    1    2  503  502 -0.11508802798E+02 -0.23495325966E+03  0.11220021927E+03  0.26062305341E+03  0.00000000000E+00 0.  1.
         21    1    1    2  504  503  0.29391932074E+02 -0.28589350735E+02  0.20658578038E+02  0.45913108074E+02  0.00000000000E+00 0.  1.
<mgrwt>
<rscale>  4 0.29223195E+03</rscale>
<asrwt>0</asrwt>
<pdfrwt beam="1">  1       21 0.50514203E-01 0.29223195E+03</pdfrwt>
<pdfrwt beam="2">  1       21 0.43592219E-01 0.29223195E+03</pdfrwt>
<totfact> 0.17928235E+04</totfact>
</mgrwt>
</event>
<event>
 5    0  0.1467858E+000  0.2810145E+03  0.7546771E-02  0.1095136E+00
         21   -1    0    0  504  501  0.00000000000E+00  0.00000000000E+00  0.21878444505E+03  0.21878444505E+03  0.00000000000E+00 0.  1.
         21   -1    0    0  501  502 -0.00000000000E+00 -0.00000000000E+00 -0.41766512908E+03  0.41766512908E+03  0.00000000000E+00 0.  1.
         25    1    1    2    0    0  0.24542184489E+03 -0.55787799508E+02  0.35541896465E+02  0.28325322050E+03  0.12500000000E+03 0.  0.
         21    1    1    2  503  502 -0.19651485115E+03  0.18984661801E+02 -0.14553417190E+03  0.24527270394E+03  0.00000000000E+00 0.  1.
         21    1    1    2  504  503 -0.48906993732E+02  0.36803137707E+02 -0.88888408588E+02  0.10792364969E+03  0.00000000000E+00 0. -1.
<mgrwt>
<rscale>  4 0.28101452E+03</rscale>
<asrwt>0</asrwt>
<pdfrwt beam="1">  1       21 0.33659146E-01 0.28101452E+03</pdfrwt>
<pdfrwt beam="2">  1       21 0.64256173E-01 0.28101452E+03</pdfrwt>
<totfact> 0.18141075E+04</totfact>
</mgrwt>
</event>
<event>
 5    0  0.1467858E+000  0.3108625E+03  0.7546771E-02  0.1079933E+00
         21   -1    0    0  504  501  0.00000000000E+00  0.00000000000E+00  0.56705139016E+03  0.56705139016E+03  0.00000000000E+00 0.  1.
         21   -1    0    0  501  502 -0.00000000000E+00 -0.00000000000E+00 -0.74458172414E+03  0.74458172414E+03  0.00000000000E+00 0. -1.
         25    1    1    2    0    0  0.18667028524E+03 -0.23397552328E+03 -0.63138464101E+03  0.70983230822E+03  0.12500000000E+03 0.  0.
         21    1    1    2  503  502 -0.36265039554E+01  0.20018553990E+03  0.29808582135E+03  0.35908572627E+03  0.00000000000E+00 0.  1.
         21    1    1    2  504  503 -0.18304378128E+03  0.33789983372E+02  0.15576848567E+03  0.24271507982E+03  0.00000000000E+00 0.  1.
<mgrwt>
<rscale>  4 0.31086250E+03</rscale>
<asrwt>0</asrwt>
<pdfrwt beam="1">  1       21 0.87238675E-01 0.31086250E+03</pdfrwt>
<pdfrwt beam="2">  1       21 0.11455103E+00 0.31086250E+03</pdfrwt>
<totfact> 0.60429094E+02</totfact>
</mgrwt>
</event>
<event>
 5    0  0.1467858E+000  0.2574480E+03  0.7546771E-02  0.1108686E+00
         21   -1    0    0  504  501  0.00000000000E+00  0.00000000000E+00  0.59726014139E+03  0.59726014139E+03  0.00000000000E+00 0.  1.
         21   -1    0    0  501  502 -0.00000000000E+00 -0.00000000000E+00 -0.50298891497E+03  0.50298891497E+03  0.00000000000E+00 0. -1.
         25    1    1    2    0    0 -0.24697062116E+02  0.22370630670E+03 -0.44480309011E+03  0.51393505962E+03  0.12500000000E+03 0.  0.
         21    1    1    2  503  502  0.25888376620E+02 -0.91887956725E+02  0.27630977969E+03  0.29233661931E+03  0.00000000000E+00 0.  1.
         21    1    1    2  504  503 -0.11913145046E+01 -0.13181834997E+03  0.26276453684E+03  0.29397737743E+03  0.00000000000E+00 0.  1.
<mgrwt>
<rscale>  4 0.25744797E+03</rscale>
<asrwt>0</asrwt>
<pdfrwt beam="1">  1       21 0.91886176E-01 0.25744797E+03</pdfrwt>
<pdfrwt beam="2">  1       21 0.77382910E-01 0.25744797E+03</pdfrwt>
<totfact> 0.14055366E+03</totfact>
</mgrwt>
</event>
<event>
 5    0  0.1467858E+000  0.2600388E+03  0.7546771E-02  0.1107120E+00
         21   -1    0    0  504  501  0.00000000000E+00  0.00000000000E+00  0.81031966442E+02  0.81031966442E+02  0.00000000000E+00 0.  1.
         21   -1    0    0  501  502 -0.00000000000E+00 -0.00000000000E+00 -0.91050316100E+03  0.91050316100E+03  0.00000000000E+00 0.  1.
         25    1    1    2    0    0  0.12902020539E+03 -0.20371520527E+03 -0.51805006636E+03  0.58493330348E+03  0.12500000000E+03 0.  0.
         21    1    1    2  503  502  0.34030596647E+01  0.25730507035E+02 -0.88010481526E+02  0.91757749895E+02  0.00000000000E+00 0. -1.
         21    1    1    2  504  503 -0.13242326505E+03  0.17798469823E+03 -0.22341064666E+03  0.31484407407E+03  0.00000000000E+00 0.  1.
<mgrwt>
<rscale>  4 0.26003882E+03</rscale>
<asrwt>0</asrwt>
<pdfrwt beam="1">  1       21 0.12466455E-01 0.26003882E+03</pdfrwt>
<pdfrwt beam="2">  1       21 0.14007743E+00 0.26003882E+03</pdfrwt>
<totfact> 0.18816546E+04</totfact>
</mgrwt>
</event>
<event>
 5    0  0.1467858E+000  0.2539304E+03  0.7546771E-02  0.1110846E+00
         21   -1    0    0  504  501  0.00000000000E+00  0.00000000000E+00  0.13841832670E+03  0.13841832670E+03  0.00000000000E+00 0. -1.
         21   -1    0    0  501  502 -0.00000000000E+00 -0.00000000000E+00 -0.70659208332E+03  0.70659208332E+03  0.00000000000E+00 0. -1.
         25    1    1    2    0    0  0.30901317250E+01  0.22101152328E+03 -0.55297128950E+03  0.60848819984E+03  0.12500000000E+03 0.  0.
         21    1    1    2  503  502 -0.25638961411E+02 -0.58884734108E+02  0.23382869561E+02  0.68348568691E+02  0.00000000000E+00 0. -1.
         21    1    1    2  504  503  0.22548829686E+02 -0.16212678917E+03 -0.38585336680E+02  0.16817364149E+03  0.00000000000E+00 0. -1.
<mgrwt>
<rscale>  4 0.25393039E+03</rscale>
<asrwt>0</asrwt>
<pdfrwt beam="1">  1       21 0.21295127E-01 0.25393039E+03</pdfrwt>
<pdfrwt beam="2">  1       21 0.10870647E+00 0.25393039E+03</pdfrwt>
<totfact> 0.13287968E+04</totfact>
</mgrwt>
</event>
<event>
 5    0  0.1467858E+000  0.3048077E+03  0.7546771E-02  0.1082862E+00
         21   -1    0    0  504  501  0.00000000000E+00  0.00000000000E+00  0.17122088017E+03  0.17122088017E+03  0.00000000000E+00 0.  1.
         21   -1    0    0  501  502 -0.00000000000E+00 -0.00000000000E+00 -0.58104118167E+03  0.58104118167E+03  0.00000000000E+00 0.  1.
         25    1    1    2    0    0 -0.10788218538E+03  0.25972465878E+03 -0.96906485978E+02  0.32266287566E+03  0.12500000000E+03 0.  0.
         21    1    1    2  503  502 -0.14284935934E+02 -0.15422588630E+02 -0.26406398506E+02  0.33752237211E+02  0.00000000000E+00 0. -1.
         21    1    1    2  504  503  0.12216712131E+03 -0.24430207015E+03 -0.28650741702E+03  0.39584694898E+03  0.00000000000E+00 0.  1.
<mgrwt>
<rscale>  4 0.30480770E+03</rscale>
<asrwt>0</asrwt>
<pdfrwt beam="1">  1       21 0.26341674E-01 0.30480770E+03</pdfrwt>
<pdfrwt beam="2">  1       21 0.89390951E-01 0.30480770E+03</pdfrwt>
<totfact> 0.13774125E+04</totfact>
</mgrwt>
</event>
<event>
 5    0  0.1467858E+000  0.2828273E+03  0.7546771E-02  0.1094155E+00
         21   -1    0    0  504  501  0.00000000000E+00  0.00000000000E+00  0.25219773856E+03  0.25219773856E+03  0.00000000000E+00 0. -1.
         21   -1    0    0  501  502 -0.00000000000E+00 -0.00000000000E+00 -0.60839518194E+03  0.60839518194E+03  0.00000000000E+00 0. -1.
         25    1    1    2    0    0 -0.21113830750E+03  0.14066598058E+03 -0.48125695908E+03  0.55821103863E+03  0.12500000000E+03 0.  0.
         21    1    1    2  503  502  0.82339500696E+02 -0.63313947085E+02  0.11015659438E+03  0.15140318542E+03  0.00000000000E+00 0. -1.
         21    1    1    2  504  503  0.12879880680E+03 -0.77352033494E+02  0.14902921310E+02  0.15097869645E+03  0.00000000000E+00 0. -1.
<mgrwt>
<rscale>  4 0.28282734E+03</rscale>
<asrwt>0</asrwt>
<pdfrwt beam="1">  1       21 0.38799653E-01 0.28282734E+03</pdfrwt>
<pdfrwt beam="2">  1       21 0.93599257E-01 0.28282734E+03</pdfrwt>
<totfact> 0.57943363E+03</totfact>
</mgrwt>
</event>
<event>
 5    0  0.1467858E+000  0.4344166E+03  0.7546771E-02  0.1032474E+00
         21   -1    0    0  504  501  0.00000000000E+00  0.00000000000E+00  0.34425443092E+03  0.34425443092E+03  0.00000000000E+00 0.  1.
         21   -1    0    0  501  502 -0.00000000000E+00 -0.00000000000E+00 -0.59985340810E+03  0.59985340810E+03  0.00000000000E+00 0.  1.
         25    1    1    2    0    0  0.19842667778E+02  0.41557076481E+03 -0.28857020698E+03  0.52152713868E+03  0.12500000000E+03 0.  0.
         21    1    1    2  503  502  0.82374584453E+01 -0.22328244360E+02  0.14575594546E+02  0.27907958976E+02  0.00000000000E+00 0.  1.
         21    1    1    2  504  503 -0.28080126223E+02 -0.39324252044E+03  0.18395635264E+02  0.39467274136E+03  0.00000000000E+00 0.  1.
<mgrwt>
<rscale>  4 0.43441661E+03</rscale>
<asrwt>0</asrwt>
<pdfrwt beam="1">  1       21 0.52962220E-01 0.43441661E+03</pdfrwt>
<pdfrwt beam="2">  1       21 0.92285140E-01 0.43441661E+03</pdfrwt>
<totfact> 0.29278410E+03</totfact>
</mgrwt>
</event>
<event>
 5    0  0.1467858E+000  0.2379842E+03  0.7546771E-02  0.1121143E+00
         21   -1    0    0  504  501  0.00000000000E+00  0.00000000000E+00  0.19555245885E+03  0.19555245885E+03  0.00000000000E+00 0. -1.
         21   -1    0    0  501  502 -0.00000000000E+00 -0.00000000000E+00 -0.25839270900E+03  0.25839270900E+03  0.00000000000E+00 0. -1.
         25    1    1    2    0    0 -0.11148689067E+03  0.16906255732E+03 -0.57409673855E+02  0.24481083663E+03  0.12500000000E+03 0.  0.
         21    1    1    2  503  502  0.33931417929E+01 -0.35993745155E+02  0.84692711869E+01  0.37132083916E+02  0.00000000000E+00 0.  1.
         21    1    1    2  504  503  0.10809374888E+03 -0.13306881217E+03 -0.13899847482E+02  0.17200224731E+03  0.00000000000E+00 0. -1.
<mgrwt>
<rscale>  4 0.23798419E+03</rscale>
<asrwt>0</asrwt>
<pdfrwt beam="1">  1       21 0.30084994E-01 0.23798419E+03</pdfrwt>
<pdfrwt beam="2">  1       21 0.39752725E-01 0.23798419E+03</pdfrwt>
<totfact> 0.63395894E+04</totfact>
</mgrwt>
</event>
<event>
 5    0  0.1467858E+000  0.2453749E+03  0.7546771E-02  0.1116263E+00
         21   -1    0    0  504  501  0.00000000000E+00  0.00000000000E+00  0.36913707970E+03  0.36913707970E+03  0.00000000000E+00 0.  1.
         21   -1    0    0  501  502 -0.00000000000E+00 -0.00000000000E+00 -0.14670896756E+03  0.14670896756E+03  0.00000000000E+00 0.  1.
         25    1    1    2    0    0 -0.20267344457E+03  0.59222697444E+02  0.86330424329E+02  0.26011880976E+03  0.12500000000E+03 0.  0.
         21    1    1    2  503  502  0.91989835095E+02 -0.25788978960E+02  0.90003886803E+02  0.13125509832E+03  0.00000000000E+00 0.  1.
         21    1    1    2  504  503  0.11068360948E+03 -0.33433718484E+02  0.46093801006E+02  0.12447213917E+03  0.00000000000E+00 0.  1.
<mgrwt>
<rscale>  4 0.24537492E+03</rscale>
<asrwt>0</asrwt>
<pdfrwt beam="1">  1       21 0.56790319E-01 0.24537492E+03</pdfrwt>
<pdfrwt beam="2">  1       21 0.22570611E-01 0.24537492E+03</pdfrwt>
<totfact> 0.52355871E+04</totfact>
</mgrwt>
</event>
<event>
 5    0  0.1467858E+000  0.3043429E+03  0.7546771E-02  0.1083090E+00
         21   -1    0    0  504  501  0.00000000000E+00  0.00000000000E+00  0.68611598501E+03  0.68611598501E+03  0.00000000000E+00 0. -1.
         21   -1    0    0  501  502 -0.00000000000E+00 -0.00000000000E+00 -0.14323651512E+03  0.14323651512E+03  0.00000000000E+00 0. -1.
         25    1    1    2    0    0 -0.50011817054E+02 -0.27294397901E+03  0.15243267414E+03  0.34038260483E+03  0.12500000000E+03 0.  0.
         21    1    1    2  503  502  0.66764733617E+02  0.15182132213E+03  0.17405977091E+03  0.24042472285E+03  0.00000000000E+00 0. -1.
         21    1    1    2  504  503 -0.16752916564E+02  0.12112265689E+03  0.21638702485E+03  0.24854517245E+03  0.00000000000E+00 0. -1.
<mgrwt>
<rscale>  4 0.30434289E+03</rscale>
<asrwt>0</asrwt>
<pdfrwt beam="1">  1       21 0.10555630E+00 0.30434289E+03</pdfrwt>
<pdfrwt beam="2">  1       21 0.22036387E-01 0.30434289E+03</pdfrwt>
<totfact> 0.13055637E+04</totfact>
</mgrwt>
</event>
<event>
 5    0  0.1467858E+000  0.2357605E+03  0.7546771E-02  0.1122650E+00
         21   -1    0    0  504  501  0.00000000000E+00  0.00000000000E+00  0.20786515752E+03  0.20786515752E+03  0.00000000000E+00 0.  1.
         21   -1    0    0  501  502 -0.00000000000E+00 -0.00000000000E+00 -0.48213143786E+03  0.48213143786E+03  0.00000000000E+00 0.  1.
         25    1    1    2    0    0 -0.17576606838E+03  0.15845357769E+03 -0.31170748738E+03  0.41083793005E+03  0.12500000000E+03 0.  0.
         21    1    1    2  503  502  0.13452508641E+03 -0.13921983207E+03  0.86678035598E+02  0.21211374866E+03  0.00000000000E+00 0.  1.
         21    1    1    2  504  503  0.41240981974E+02 -0.19233745616E+02 -0.49236828565E+02  0.67044916674E+02  0.00000000000E+00 0.  1.
<mgrwt>
<rscale>  4 0.23576047E+03</rscale>
<asrwt>0</asrwt>
<pdfrwt beam="1">  1       21 0.31979255E-01 0.23576047E+03</pdfrwt>
<pdfrwt beam="2">  1       21 0.74174068E-01 0.23576047E+03</pdfrwt>
<totfact> 0.14933729E+04</totfact>
</mgrwt>
</event>
<event>
 5    0  0.1467858E+000  0.3054062E+03  0.7546771E-02  0.1082569E+00
         21   -1    0    0  504  501  0.00000000000E+00  0.00000000000E+00  0.28265499041E+03  0.28265499041E+03  0.00000000000E+00 0.  1.
         21   -1    0    0  501  502 -0.00000000000E+00 -0.00000000000E+00 -0.48355806889E+03  0.48355806889E+03  0.00000000000E+00 0.  1.
         25    1    1    2    0    0 -0.24067409144E+03  0.15314986719E+03 -0.31162695153E+03  0.44058513029E+03  0.12500000000E+03 0.  0.
         21    1    1    2  503  502  0.23382144921E+03 -0.11847192275E+03  0.69213706125E+02  0.27110625907E+03  0.00000000000E+00 0.  1.
         21    1    1    2  504  503  0.68526422210E+01 -0.34677944435E+02  0.41510166927E+02  0.54521669949E+02  0.00000000000E+00 0.  1.
<mgrwt>
<rscale>  4 0.30540617E+03</rscale>
<asrwt>0</asrwt>
<pdfrwt beam="1">  1       21 0.43485384E-01 0.30540617E+03</pdfrwt>
<pdfrwt beam="2">  1       21 0.74393548E-01 0.30540617E+03</pdfrwt>
<totfact> 0.77043925E+03</totfact>
</mgrwt>
</event>
<event>
 5    0  0.1467858E+000  0.3184727E+03  0.7546771E-02  0.1076354E+00
         21   -1    0    0  504  501  0.00000000000E+00  0.00000000000E+00  0.55282787393E+03  0.55282787393E+03  0.00000000000E+00 0. -1.
         21   -1    0    0  501  502 -0.00000000000E+00 -0.00000000000E+00 -0.69279954474E+03  0.69279954474E+03  0.00000000000E+00 0.  1.
         25    1    1    2    0    0  0.71232274674E+02  0.28412288784E+03 -0.60607558282E+03  0.68465499665E+03  0.12500000000E+03 0.  0.
         21    1    1    2  503  502 -0.63601397760E+02 -0.59409979885E+02  0.11970596721E+03  0.14800068275E+03  0.00000000000E+00 0. -1.
         21    1    1    2  504  503 -0.76308769134E+01 -0.22471290795E+03  0.34639794479E+03  0.41297173927E+03  0.00000000000E+00 0. -1.
<mgrwt>
<rscale>  4 0.31847269E+03</rscale>
<asrwt>0</asrwt>
<pdfrwt beam="1">  1       21 0.85050442E-01 0.31847269E+03</pdfrwt>
<pdfrwt beam="2">  1       21 0.10658455E+00 0.31847269E+03</pdfrwt>
<totfact> 0.76156990E+02</totfact>
</mgrwt>
</event>
