<event>
 5    0  0.2324070E+000  0.4921177E+03  0.7546771E-02  0.1015857E+00
         21   -1    0    0  503  501  0.00000000000E+00  0.00000000000E+00  0.42998620051E+03  0.42998620051E+03  0.00000000000E+00 0.  1.
         21   -1    0    0  504  502 -0.00000000000E+00 -0.00000000000E+00 -0.16540015989E+03  0.16540015989E+03  0.00000000000E+00 0. -1.
         25    1    1    2    0    0 -0.20412451283E+03  0.19465164939E+02  0.25949784057E+02  0.24154523526E+03  0.12500000000E+03 0.  0.
         21    1    1    2  503  502  0.20329810115E+03  0.84916620510E+01  0.25112373151E+03  0.32321100659E+03  0.00000000000E+00 0.  1.
         21    1    1    2  504  501  0.82641168381E+00 -0.27956826990E+02 -0.12487474949E+02  0.30630118547E+02  0.00000000000E+00 0. -1.
<mgrwt>
<rscale>  4 0.49211775E+03</rscale>
<asrwt>0</asrwt>
<pdfrwt beam="1">  1       21 0.66151723E-01 0.49211775E+03</pdfrwt>
<pdfrwt beam="2">  1       21 0.25446179E-01 0.49211775E+03</pdfrwt>
<totfact> 0.27678182E+04</totfact>
</mgrwt>
</event>
<event>
 5    0  0.2324070E+000  0.5880093E+03  0.7546771E-02  0.9930600E-01
         21   -1    0    0  503  501  0.00000000000E+00  0.00000000000E+00  0.61781967622E+03  0.61781967622E+03  0.00000000000E+00 0.  1.
         21   -1    0    0  504  502 -0.00000000000E+00 -0.00000000000E+00 -0.22515206746E+03  0.22515206746E+03  0.00000000000E+00 0.  1.
         25    1    1    2    0    0  0.21068352779E+03 -0.19063010056E+03  0.35138370193E+03  0.46885273819E+03  0.12500000000E+03 0.  0.
         21    1    1    2  503  502 -0.18871938524E+03  0.17765503133E+03  0.12417244822E+03  0.28739365584E+03  0.00000000000E+00 0.  1.
         21    1    1    2  504  501 -0.21964142552E+02  0.12975069230E+02 -0.82888541387E+02  0.86725349655E+02  0.00000000000E+00 0.  1.
<mgrwt>
<rscale>  4 0.58800932E+03</rscale>
<asrwt>0</asrwt>
<pdfrwt beam="1">  1       21 0.95049181E-01 0.58800932E+03</pdfrwt>
<pdfrwt beam="2">  1       21 0.34638780E-01 0.58800932E+03</pdfrwt>
<totfact> 0.63183564E+03</totfact>
</mgrwt>
</event>
<event>
 5    0  0.2324070E+000  0.6642779E+03  0.7546771E-02  0.9780350E-01
         21   -1    0    0  503  501  0.00000000000E+00  0.00000000000E+00  0.30631880099E+03  0.30631880099E+03  0.00000000000E+00 0.  1.
         21   -1    0    0  504  502 -0.00000000000E+00 -0.00000000000E+00 -0.12926787025E+04  0.12926787025E+04  0.00000000000E+00 0.  1.
         25    1    1    2    0    0 -0.15402376927E+03  0.29461878767E+03  0.12463107089E+03  0.37640597149E+03  0.12500000000E+03 0.  0.
         21    1    1    2  503  502 -0.26760538465E+02 -0.17945696119E+03 -0.91280096911E+03  0.93065919463E+03  0.00000000000E+00 0.  1.
         21    1    1    2  504  501  0.18078430773E+03 -0.11516182647E+03 -0.19819000329E+03  0.29193233737E+03  0.00000000000E+00 0. -1.
<mgrwt>
<rscale>  4 0.66427794E+03</rscale>
<asrwt>0</asrwt>
<pdfrwt beam="1">  1       21 0.47125970E-01 0.66427794E+03</pdfrwt>
<pdfrwt beam="2">  1       21 0.19887364E+00 0.66427794E+03</pdfrwt>
<totfact> 0.44465804E+02</totfact>
</mgrwt>
</event>
<event>
 5    0  0.2324070E+000  0.7171998E+03  0.7546771E-02  0.9688262E-01
         21   -1    0    0  503  501  0.00000000000E+00  0.00000000000E+00  0.59416439261E+03  0.59416439261E+03  0.00000000000E+00 0. -1.
         21   -1    0    0  504  502 -0.00000000000E+00 -0.00000000000E+00 -0.33524001856E+03  0.33524001856E+03  0.00000000000E+00 0.  1.
         25    1    1    2    0    0 -0.22436960954E+03 -0.24169747548E+02 -0.98170215683E+02  0.27602226292E+03  0.12500000000E+03 0.  0.
         21    1    1    2  503  502 -0.19961005299E+02  0.94295588565E+01 -0.11740779831E+03  0.11946526448E+03  0.00000000000E+00 0.  1.
         21    1    1    2  504  501  0.24433061484E+03  0.14740188691E+02  0.47450238805E+03  0.53391688377E+03  0.00000000000E+00 0. -1.
<mgrwt>
<rscale>  4 0.71719978E+03</rscale>
<asrwt>0</asrwt>
<pdfrwt beam="1">  1       21 0.91409907E-01 0.71719978E+03</pdfrwt>
<pdfrwt beam="2">  1       21 0.51575387E-01 0.71719978E+03</pdfrwt>
<totfact> 0.29295605E+03</totfact>
</mgrwt>
</event>
<event>
 5    0  0.2324070E+000  0.5057577E+03  0.7546771E-02  0.1012287E+00
         21   -1    0    0  503  501  0.00000000000E+00  0.00000000000E+00  0.17299114150E+04  0.17299114150E+04  0.00000000000E+00 0. -1.
         21   -1    0    0  504  502 -0.00000000000E+00 -0.00000000000E+00 -0.88756941644E+02  0.88756941644E+02  0.00000000000E+00 0.  1.
         25    1    1    2    0    0 -0.12946183796E+03  0.19413462178E+03  0.10749646200E+04  0.11070783862E+04  0.12500000000E+03 0.  0.
         21    1    1    2  503  502  0.14594567330E+03 -0.17906369681E+03  0.61551892905E+03  0.65744011065E+03  0.00000000000E+00 0.  1.
         21    1    1    2  504  501 -0.16483835342E+02 -0.15070924969E+02 -0.49329075713E+02  0.54149859812E+02  0.00000000000E+00 0.  1.
<mgrwt>
<rscale>  4 0.50575774E+03</rscale>
<asrwt>0</asrwt>
<pdfrwt beam="1">  1       21 0.26614019E+00 0.50575774E+03</pdfrwt>
<pdfrwt beam="2">  1       21 0.13654915E-01 0.50575774E+03</pdfrwt>
<totfact> 0.20100729E+03</totfact>
</mgrwt>
</event>
<event>
 5    0  0.2324070E+000  0.4451989E+03  0.7546771E-02  0.1029164E+00
         21   -1    0    0  503  501  0.00000000000E+00  0.00000000000E+00  0.57512765011E+03  0.57512765011E+03  0.00000000000E+00 0.  1.
         21   -1    0    0  504  502 -0.00000000000E+00 -0.00000000000E+00 -0.49038612914E+03  0.49038612914E+03  0.00000000000E+00 0.  1.
         25    1    1    2    0    0  0.24058990689E+03 -0.13077489531E+03  0.36862257196E+03  0.47591299320E+03  0.12500000000E+03 0.  0.
         21    1    1    2  503  502  0.33293928725E+02  0.12600720832E+03  0.65317069651E+02  0.14578278989E+03  0.00000000000E+00 0. -1.
         21    1    1    2  504  501 -0.27388383561E+03  0.47676869847E+01 -0.34919812065E+03  0.44381799616E+03  0.00000000000E+00 0.  1.
<mgrwt>
<rscale>  4 0.44519887E+03</rscale>
<asrwt>0</asrwt>
<pdfrwt beam="1">  1       21 0.88481177E-01 0.44519887E+03</pdfrwt>
<pdfrwt beam="2">  1       21 0.75444020E-01 0.44519887E+03</pdfrwt>
<totfact> 0.14732849E+03</totfact>
</mgrwt>
</event>
<event>
 5    0  0.2324070E+000  0.5048697E+03  0.7546771E-02  0.1012516E+00
         21   -1    0    0  503  501  0.00000000000E+00  0.00000000000E+00  0.50007468587E+03  0.50007468587E+03  0.00000000000E+00 0. -1.
         21   -1    0    0  504  502 -0.00000000000E+00 -0.00000000000E+00 -0.10550609335E+04  0.10550609335E+04  0.00000000000E+00 0.  1.
         25    1    1    2    0    0 -0.89787324209E+02  0.19158348683E+03  0.45035917506E+03  0.51304423062E+03  0.12500000000E+03 0.  0.
         21    1    1    2  503  502 -0.20013931433E+02 -0.61039949779E+02 -0.87606022505E+02  0.10863354960E+03  0.00000000000E+00 0.  1.
         21    1    1    2  504  501  0.10980125564E+03 -0.13054353705E+03 -0.91773940015E+03  0.93345783911E+03  0.00000000000E+00 0.  1.
<mgrwt>
<rscale>  4 0.50486970E+03</rscale>
<asrwt>0</asrwt>
<pdfrwt beam="1">  1       21 0.76934568E-01 0.50486970E+03</pdfrwt>
<pdfrwt beam="2">  1       21 0.16231707E+00 0.50486970E+03</pdfrwt>
<totfact> 0.29131793E+02</totfact>
</mgrwt>
</event>
<event>
 5    0  0.2324070E+000  0.5994206E+03  0.7546771E-02  0.9906609E-01
         21   -1    0    0  503  501  0.00000000000E+00  0.00000000000E+00  0.10186889090E+03  0.10186889090E+03  0.00000000000E+00 0. -1.
         21   -1    0    0  504  502 -0.00000000000E+00 -0.00000000000E+00 -0.21360916652E+04  0.21360916652E+04  0.00000000000E+00 0. -1.
         25    1    1    2    0    0  0.15252548571E+03  0.25987297349E+03 -0.51703336313E+03  0.61134808802E+03  0.12500000000E+03 0.  0.
         21    1    1    2  503  502 -0.13231390899E+03 -0.22840726714E+03 -0.26558428637E+03  0.37444874598E+03  0.00000000000E+00 0. -1.
         21    1    1    2  504  501 -0.20211576720E+02 -0.31465706347E+02 -0.12516051248E+04  0.12521637221E+04  0.00000000000E+00 0. -1.
<mgrwt>
<rscale>  4 0.59942056E+03</rscale>
<asrwt>0</asrwt>
<pdfrwt beam="1">  1       21 0.15672137E-01 0.59942056E+03</pdfrwt>
<pdfrwt beam="2">  1       21 0.32862950E+00 0.59942056E+03</pdfrwt>
<totfact> 0.62308934E+02</totfact>
</mgrwt>
</event>
<event>
 5    0  0.2324070E+000  0.5078839E+03  0.7546771E-02  0.1011741E+00
         21   -1    0    0  503  501  0.00000000000E+00  0.00000000000E+00  0.93899511089E+03  0.93899511089E+03  0.00000000000E+00 0.  1.
         21   -1    0    0  504  502 -0.00000000000E+00 -0.00000000000E+00 -0.94815351697E+02  0.94815351697E+02  0.00000000000E+00 0.  1.
         25    1    1    2    0    0  0.11029169239E+03 -0.21016466619E+03  0.56856273448E+03  0.62866686517E+03  0.12500000000E+03 0.  0.
         21    1    1    2  503  502 -0.12526834683E+03  0.19125568046E+03  0.29568525441E+03  0.37376551968E+03  0.00000000000E+00 0.  1.
         21    1    1    2  504  501  0.14976654440E+02  0.18908985728E+02 -0.20068229694E+02  0.31378077738E+02  0.00000000000E+00 0.  1.
<mgrwt>
<rscale>  4 0.50788394E+03</rscale>
<asrwt>0</asrwt>
<pdfrwt beam="1">  1       21 0.14446078E+00 0.50788394E+03</pdfrwt>
<pdfrwt beam="2">  1       21 0.14586978E-01 0.50788394E+03</pdfrwt>
<totfact> 0.11867592E+04</totfact>
</mgrwt>
</event>
<event>
 5    0  0.2324070E+000  0.6530689E+03  0.7546771E-02  0.9801038E-01
         21   -1    0    0  503  501  0.00000000000E+00  0.00000000000E+00  0.11105831462E+03  0.11105831462E+03  0.00000000000E+00 0.  1.
         21   -1    0    0  504  502 -0.00000000000E+00 -0.00000000000E+00 -0.13628978351E+04  0.13628978351E+04  0.00000000000E+00 0. -1.
         25    1    1    2    0    0  0.28274320645E+03 -0.94252550898E+02 -0.69048536731E+03  0.76237937184E+03  0.12500000000E+03 0.  0.
         21    1    1    2  503  502 -0.24342420752E+03  0.11390382048E+03 -0.17053803026E+03  0.31829647326E+03  0.00000000000E+00 0.  1.
         21    1    1    2  504  501 -0.39318998935E+02 -0.19651269587E+02 -0.39081612292E+03  0.39328030462E+03  0.00000000000E+00 0. -1.
<mgrwt>
<rscale>  4 0.65306890E+03</rscale>
<asrwt>0</asrwt>
<pdfrwt beam="1">  1       21 0.17085894E-01 0.65306890E+03</pdfrwt>
<pdfrwt beam="2">  1       21 0.20967660E+00 0.65306890E+03</pdfrwt>
<totfact> 0.28590155E+03</totfact>
</mgrwt>
</event>
<event>
 5    0  0.2324070E+000  0.6276489E+03  0.7546771E-02  0.9849647E-01
         21   -1    0    0  503  501  0.00000000000E+00  0.00000000000E+00  0.28863145062E+04  0.28863145062E+04  0.00000000000E+00 0.  1.
         21   -1    0    0  504  502 -0.00000000000E+00 -0.00000000000E+00 -0.48836282275E+02  0.48836282275E+02  0.00000000000E+00 0.  1.
         25    1    1    2    0    0 -0.21971907494E+03  0.23749557219E+03  0.85368074612E+03  0.92145343615E+03  0.12500000000E+03 0.  0.
         21    1    1    2  503  502  0.16893292768E+03 -0.12546588145E+03  0.14912453196E+04  0.15060187996E+04  0.00000000000E+00 0.  1.
         21    1    1    2  504  501  0.50786147263E+02 -0.11202969074E+03  0.49255215825E+03  0.50767855278E+03  0.00000000000E+00 0. -1.
<mgrwt>
<rscale>  4 0.62764895E+03</rscale>
<asrwt>0</asrwt>
<pdfrwt beam="1">  1       21 0.44404825E+00 0.62764895E+03</pdfrwt>
<pdfrwt beam="2">  1       21 0.75132764E-02 0.62764895E+03</pdfrwt>
<totfact> 0.42739321E+02</totfact>
</mgrwt>
</event>
<event>
 5    0  0.2324070E+000  0.4045181E+03  0.7546771E-02  0.1042226E+00
         21   -1    0    0  503  501  0.00000000000E+00  0.00000000000E+00  0.23771032413E+03  0.23771032413E+03  0.00000000000E+00 0.  1.
         21   -1    0    0  504  502 -0.00000000000E+00 -0.00000000000E+00 -0.34148023719E+03  0.34148023719E+03  0.00000000000E+00 0.  1.
         25    1    1    2    0    0 -0.12786750869E+03 -0.21154425871E+03 -0.10084447567E+03  0.29478073452E+03  0.12500000000E+03 0.  0.
         21    1    1    2  503  502  0.10225476994E+03  0.48240148740E+02  0.27436869076E+02  0.11634402310E+03  0.00000000000E+00 0. -1.
         21    1    1    2  504  501  0.25612738749E+02  0.16330410997E+03 -0.30362306472E+02  0.16806580370E+03  0.00000000000E+00 0.  1.
<mgrwt>
<rscale>  4 0.40451810E+03</rscale>
<asrwt>0</asrwt>
<pdfrwt beam="1">  1       21 0.36570819E-01 0.40451810E+03</pdfrwt>
<pdfrwt beam="2">  1       21 0.52535421E-01 0.40451810E+03</pdfrwt>
<totfact> 0.22741401E+04</totfact>
</mgrwt>
</event>
<event>
 5    0  0.2324070E+000  0.3846262E+03  0.7546771E-02  0.1049237E+00
         21   -1    0    0  503  501  0.00000000000E+00  0.00000000000E+00  0.91465363181E+02  0.91465363181E+02  0.00000000000E+00 0.  1.
         21   -1    0    0  504  502 -0.00000000000E+00 -0.00000000000E+00 -0.18512231824E+04  0.18512231824E+04  0.00000000000E+00 0. -1.
         25    1    1    2    0    0  0.91637490903E+02  0.18069584913E+03 -0.91276567965E+02  0.25496045084E+03  0.12500000000E+03 0.  0.
         21    1    1    2  503  502 -0.68452529150E+02 -0.24793668961E+02 -0.24617206521E+03  0.25671221330E+03  0.00000000000E+00 0. -1.
         21    1    1    2  504  501 -0.23184961753E+02 -0.15590218017E+03 -0.14223091860E+04  0.14310158814E+04  0.00000000000E+00 0. -1.
<mgrwt>
<rscale>  4 0.38462623E+03</rscale>
<asrwt>0</asrwt>
<pdfrwt beam="1">  1       21 0.14071595E-01 0.38462623E+03</pdfrwt>
<pdfrwt beam="2">  1       21 0.28480355E+00 0.38462623E+03</pdfrwt>
<totfact> 0.15597363E+03</totfact>
</mgrwt>
</event>
<event>
 5    0  0.2324070E+000  0.4054773E+03  0.7546771E-02  0.1041899E+00
         21   -1    0    0  503  501  0.00000000000E+00  0.00000000000E+00  0.20137056135E+03  0.20137056135E+03  0.00000000000E+00 0.  1.
         21   -1    0    0  504  502 -0.00000000000E+00 -0.00000000000E+00 -0.11454212696E+04  0.11454212696E+04  0.00000000000E+00 0. -1.
         25    1    1    2    0    0  0.17698019505E+03 -0.12943335561E+03 -0.12131887658E+01  0.25239147135E+03  0.12500000000E+03 0.  0.
         21    1    1    2  503  502 -0.48481924599E+02  0.46259110284E+02 -0.93889343523E+03  0.94128172458E+03  0.00000000000E+00 0. -1.
         21    1    1    2  504  501 -0.12849827045E+03  0.83174245330E+02 -0.39440842722E+01  0.15311863504E+03  0.00000000000E+00 0.  1.
<mgrwt>
<rscale>  4 0.40547731E+03</rscale>
<asrwt>0</asrwt>
<pdfrwt beam="1">  1       21 0.30980086E-01 0.40547731E+03</pdfrwt>
<pdfrwt beam="2">  1       21 0.17621866E+00 0.40547731E+03</pdfrwt>
<totfact> 0.16713087E+03</totfact>
</mgrwt>
</event>
<event>
 5    0  0.2324070E+000  0.6021789E+03  0.7546771E-02  0.9900896E-01
         21   -1    0    0  503  501  0.00000000000E+00  0.00000000000E+00  0.27971161031E+04  0.27971161031E+04  0.00000000000E+00 0. -1.
         21   -1    0    0  504  502 -0.00000000000E+00 -0.00000000000E+00 -0.72172205707E+02  0.72172205707E+02  0.00000000000E+00 0. -1.
         25    1    1    2    0    0 -0.83216763152E+02  0.25025430742E+03  0.14738867590E+04  0.15025043848E+04  0.12500000000E+03 0.  0.
         21    1    1    2  503  502  0.93559708305E+02 -0.29303928267E+03  0.12784511773E+04  0.13149383457E+04  0.00000000000E+00 0. -1.
         21    1    1    2  504  501 -0.10342945152E+02  0.42784975248E+02 -0.27394038912E+02  0.51845578300E+02  0.00000000000E+00 0. -1.
<mgrwt>
<rscale>  4 0.60217890E+03</rscale>
<asrwt>0</asrwt>
<pdfrwt beam="1">  1       21 0.43032547E+00 0.60217890E+03</pdfrwt>
<pdfrwt beam="2">  1       21 0.11103418E-01 0.60217890E+03</pdfrwt>
<totfact> 0.26478184E+02</totfact>
</mgrwt>
</event>
<event>
 5    0  0.2324070E+000  0.4630511E+03  0.7546771E-02  0.1023900E+00
         21   -1    0    0  503  501  0.00000000000E+00  0.00000000000E+00  0.15465056325E+03  0.15465056325E+03  0.00000000000E+00 0.  1.
         21   -1    0    0  504  502 -0.00000000000E+00 -0.00000000000E+00 -0.15551546712E+04  0.15551546712E+04  0.00000000000E+00 0. -1.
         25    1    1    2    0    0 -0.19392456621E+03 -0.22232503482E+03 -0.15928959984E+03  0.35781746059E+03  0.12500000000E+03 0.  0.
         21    1    1    2  503  502  0.11079465823E+03  0.88445220662E+02 -0.49896601103E+02  0.15029199630E+03  0.00000000000E+00 0.  1.
         21    1    1    2  504  501  0.83129907981E+02  0.13387981416E+03 -0.11913179070E+04  0.12016957776E+04  0.00000000000E+00 0. -1.
<mgrwt>
<rscale>  4 0.46305113E+03</rscale>
<asrwt>0</asrwt>
<pdfrwt beam="1">  1       21 0.23792393E-01 0.46305113E+03</pdfrwt>
<pdfrwt beam="2">  1       21 0.23925458E+00 0.46305113E+03</pdfrwt>
<totfact> 0.10505578E+03</totfact>
</mgrwt>
</event>
<event>
 5    0  0.2324070E+000  0.9348055E+03  0.7546771E-02  0.9383089E-01
         21   -1    0    0  503  501  0.00000000000E+00  0.00000000000E+00  0.72722996824E+03  0.72722996824E+03  0.00000000000E+00 0. -1.
         21   -1    0    0  504  502 -0.00000000000E+00 -0.00000000000E+00 -0.35968081542E+03  0.35968081542E+03  0.00000000000E+00 0.  1.
         25    1    1    2    0    0 -0.22810738205E+03 -0.36674601632E+03  0.20967029525E+03  0.49610709624E+03  0.12500000000E+03 0.  0.
         21    1    1    2  503  502  0.19639916622E+03  0.44168442974E+03  0.16067191705E+03  0.50938515182E+03  0.00000000000E+00 0. -1.
         21    1    1    2  504  501  0.31708215830E+02 -0.74938413418E+02 -0.27930594812E+01  0.81418535593E+02  0.00000000000E+00 0. -1.
<mgrwt>
<rscale>  4 0.93480549E+03</rscale>
<asrwt>0</asrwt>
<pdfrwt beam="1">  1       21 0.11188153E+00 0.93480549E+03</pdfrwt>
<pdfrwt beam="2">  1       21 0.55335510E-01 0.93480549E+03</pdfrwt>
<totfact> 0.14612720E+03</totfact>
</mgrwt>
</event>
<event>
 5    0  0.2324070E+000  0.4897593E+03  0.7546771E-02  0.1016487E+00
         21   -1    0    0  503  501  0.00000000000E+00  0.00000000000E+00  0.16640770056E+04  0.16640770056E+04  0.00000000000E+00 0. -1.
         21   -1    0    0  504  502 -0.00000000000E+00 -0.00000000000E+00 -0.52562055204E+02  0.52562055204E+02  0.00000000000E+00 0. -1.
         25    1    1    2    0    0  0.79010633364E+02  0.19617254299E+03  0.51051283628E+03  0.56654629362E+03  0.12500000000E+03 0.  0.
         21    1    1    2  503  502 -0.20713959830E+02 -0.13640441190E+02 -0.68990018705E+01  0.25743465083E+02  0.00000000000E+00 0. -1.
         21    1    1    2  504  501 -0.58296673534E+02 -0.18253210180E+03  0.11079011160E+04  0.11243493021E+04  0.00000000000E+00 0. -1.
<mgrwt>
<rscale>  4 0.48975932E+03</rscale>
<asrwt>0</asrwt>
<pdfrwt beam="1">  1       21 0.25601181E+00 0.48975932E+03</pdfrwt>
<pdfrwt beam="2">  1       21 0.80864713E-02 0.48975932E+03</pdfrwt>
<totfact> 0.60202208E+03</totfact>
</mgrwt>
</event>
<event>
 5    0  0.2324070E+000  0.6331658E+03  0.7546771E-02  0.9838890E-01
         21   -1    0    0  503  501  0.00000000000E+00  0.00000000000E+00  0.14894608678E+03  0.14894608678E+03  0.00000000000E+00 0. -1.
         21   -1    0    0  504  502 -0.00000000000E+00 -0.00000000000E+00 -0.94308295266E+03  0.94308295266E+03  0.00000000000E+00 0. -1.
         25    1    1    2    0    0  0.12153337500E+03 -0.22967285339E+03 -0.53444646003E+02  0.29325980122E+03  0.12500000000E+03 0.  0.
         21    1    1    2  503  502 -0.12146741604E+03  0.20616917679E+03 -0.47335504897E+03  0.53040085313E+03  0.00000000000E+00 0. -1.
         21    1    1    2  504  501 -0.65958958411E-01  0.23503676609E+02 -0.26733717092E+03  0.26836838510E+03  0.00000000000E+00 0. -1.
<mgrwt>
<rscale>  4 0.63316582E+03</rscale>
<asrwt>0</asrwt>
<pdfrwt beam="1">  1       21 0.22914783E-01 0.63316582E+03</pdfrwt>
<pdfrwt beam="2">  1       21 0.14508968E+00 0.63316582E+03</pdfrwt>
<totfact> 0.48207324E+03</totfact>
</mgrwt>
</event>
<event>
 5    0  0.2324070E+000  0.6228477E+03  0.7546771E-02  0.9859106E-01
         21   -1    0    0  503  501  0.00000000000E+00  0.00000000000E+00  0.31183907339E+03  0.31183907339E+03  0.00000000000E+00 0. -1.
         21   -1    0    0  504  502 -0.00000000000E+00 -0.00000000000E+00 -0.49916481308E+03  0.49916481308E+03  0.00000000000E+00 0. -1.
         25    1    1    2    0    0 -0.12647399693E+03 -0.28670107827E+03 -0.73106026216E+01  0.33744869994E+03  0.12500000000E+03 0.  0.
         21    1    1    2  503  502  0.11232169774E+02  0.25672056389E+02 -0.18605657044E+03  0.18815489236E+03  0.00000000000E+00 0. -1.
         21    1    1    2  504  501  0.11524182716E+03  0.26102902188E+03  0.60414333672E+01  0.28540029416E+03  0.00000000000E+00 0. -1.
<mgrwt>
<rscale>  4 0.62284770E+03</rscale>
<asrwt>0</asrwt>
<pdfrwt beam="1">  1       21 0.47975242E-01 0.62284770E+03</pdfrwt>
<pdfrwt beam="2">  1       21 0.76794586E-01 0.62284770E+03</pdfrwt>
<totfact> 0.52665406E+03</totfact>
</mgrwt>
</event>
<event>
 5    0  0.2324070E+000  0.4093214E+03  0.7546771E-02  0.1040599E+00
         21   -1    0    0  503  501  0.00000000000E+00  0.00000000000E+00  0.16388187146E+04  0.16388187146E+04  0.00000000000E+00 0. -1.
         21   -1    0    0  504  502 -0.00000000000E+00 -0.00000000000E+00 -0.62306974079E+02  0.62306974079E+02  0.00000000000E+00 0.  1.
         25    1    1    2    0    0 -0.20402627588E+03  0.46604319763E+02  0.53184210402E+03  0.58504675666E+03  0.12500000000E+03 0.  0.
         21    1    1    2  503  502  0.19251226544E+03  0.11825594064E+03  0.65259390097E+03  0.69059701667E+03  0.00000000000E+00 0. -1.
         21    1    1    2  504  501  0.11514010439E+02 -0.16486026041E+03  0.39207573548E+03  0.42548191530E+03  0.00000000000E+00 0. -1.
<mgrwt>
<rscale>  4 0.40932142E+03</rscale>
<asrwt>0</asrwt>
<pdfrwt beam="1">  1       21 0.25212592E+00 0.40932142E+03</pdfrwt>
<pdfrwt beam="2">  1       21 0.95856895E-02 0.40932142E+03</pdfrwt>
<totfact> 0.48594147E+03</totfact>
</mgrwt>
</event>
<event>
 5    0  0.2324070E+000  0.3670636E+03  0.7546771E-02  0.1055821E+00
         21   -1    0    0  503  501  0.00000000000E+00  0.00000000000E+00  0.25839039032E+03  0.25839039032E+03  0.00000000000E+00 0. -1.
         21   -1    0    0  504  502 -0.00000000000E+00 -0.00000000000E+00 -0.25198131310E+03  0.25198131310E+03  0.00000000000E+00 0.  1.
         25    1    1    2    0    0  0.15762167356E+03  0.16227859581E+03  0.47392624635E+02  0.26277365831E+03  0.12500000000E+03 0.  0.
         21    1    1    2  503  502 -0.59642715085E+02 -0.90735992066E+02  0.22174231470E+02  0.11082405091E+03  0.00000000000E+00 0.  1.
         21    1    1    2  504  501 -0.97978958477E+02 -0.71542603740E+02 -0.63157778893E+02  0.13677399420E+03  0.00000000000E+00 0.  1.
<mgrwt>
<rscale>  4 0.36706362E+03</rscale>
<asrwt>0</asrwt>
<pdfrwt beam="1">  1       21 0.39752368E-01 0.36706362E+03</pdfrwt>
<pdfrwt beam="2">  1       21 0.38766356E-01 0.36706362E+03</pdfrwt>
<totfact> 0.36587547E+04</totfact>
</mgrwt>
</event>
<event>
 5    0  0.2324070E+000  0.6164929E+03  0.7546771E-02  0.9871767E-01
         21   -1    0    0  503  501  0.00000000000E+00  0.00000000000E+00  0.58152581018E+02  0.58152581018E+02  0.00000000000E+00 0.  1.
         21   -1    0    0  504  502 -0.00000000000E+00 -0.00000000000E+00 -0.24885989249E+04  0.24885989249E+04  0.00000000000E+00 0. -1.
         25    1    1    2    0    0 -0.16736580338E+03  0.19659071854E+03 -0.39908592686E+03  0.49148123034E+03  0.12500000000E+03 0.  0.
         21    1    1    2  503  502  0.85455596258E+01 -0.20142094677E+02 -0.85058941823E+03  0.85087078277E+03  0.00000000000E+00 0. -1.
         21    1    1    2  504  501  0.15882024375E+03 -0.17644862387E+03 -0.11807709988E+04  0.12043994928E+04  0.00000000000E+00 0. -1.
<mgrwt>
<rscale>  4 0.61649292E+03</rscale>
<asrwt>0</asrwt>
<pdfrwt beam="1">  1       21 0.89465504E-02 0.61649292E+03</pdfrwt>
<pdfrwt beam="2">  1       21 0.38286139E+00 0.61649292E+03</pdfrwt>
<totfact> 0.79297989E+02</totfact>
</mgrwt>
</event>
<event>
 5    0  0.2324070E+000  0.6288828E+03  0.7546771E-02  0.9847231E-01
         21   -1    0    0  503  501  0.00000000000E+00  0.00000000000E+00  0.10181843976E+04  0.10181843976E+04  0.00000000000E+00 0. -1.
         21   -1    0    0  504  502 -0.00000000000E+00 -0.00000000000E+00 -0.14883845432E+03  0.14883845432E+03  0.00000000000E+00 0. -1.
         25    1    1    2    0    0 -0.22671072703E+03 -0.10991585805E+03  0.20312497530E+03  0.34693515993E+03  0.12500000000E+03 0.  0.
         21    1    1    2  503  502  0.24132286244E+03  0.13145872033E+03  0.71434184625E+03  0.76537728762E+03  0.00000000000E+00 0. -1.
         21    1    1    2  504  501 -0.14612135412E+02 -0.21542862284E+02 -0.48120878302E+02  0.54710404360E+02  0.00000000000E+00 0. -1.
<mgrwt>
<rscale>  4 0.62888283E+03</rscale>
<asrwt>0</asrwt>
<pdfrwt beam="1">  1       21 0.15664375E+00 0.62888283E+03</pdfrwt>
<pdfrwt beam="2">  1       21 0.22898224E-01 0.62888283E+03</pdfrwt>
<totfact> 0.39138843E+03</totfact>
</mgrwt>
</event>
<event>
 5    0  0.2324070E+000  0.3581962E+03  0.7546771E-02  0.1059300E+00
         21   -1    0    0  503  501  0.00000000000E+00  0.00000000000E+00  0.15274676041E+03  0.15274676041E+03  0.00000000000E+00 0.  1.
         21   -1    0    0  504  502 -0.00000000000E+00 -0.00000000000E+00 -0.55958997250E+03  0.55958997250E+03  0.00000000000E+00 0. -1.
         25    1    1    2    0    0  0.22975110787E+03 -0.51684467941E+02 -0.12346133089E+03  0.29381040829E+03  0.12500000000E+03 0.  0.
         21    1    1    2  503  502 -0.18519577359E+03 -0.24637696081E+02 -0.27118780237E+03  0.32931339903E+03  0.00000000000E+00 0. -1.
         21    1    1    2  504  501 -0.44555334277E+02  0.76322164022E+02 -0.12194078829E+02  0.89212925588E+02  0.00000000000E+00 0. -1.
<mgrwt>
<rscale>  4 0.35819615E+03</rscale>
<asrwt>0</asrwt>
<pdfrwt beam="1">  1       21 0.23499501E-01 0.35819615E+03</pdfrwt>
<pdfrwt beam="2">  1       21 0.86090766E-01 0.35819615E+03</pdfrwt>
<totfact> 0.18373334E+04</totfact>
</mgrwt>
</event>
<event>
 5    0  0.2324070E+000  0.5267600E+03  0.7546771E-02  0.1007021E+00
         21   -1    0    0  503  501  0.00000000000E+00  0.00000000000E+00  0.21541104164E+03  0.21541104164E+03  0.00000000000E+00 0.  1.
         21   -1    0    0  504  502 -0.00000000000E+00 -0.00000000000E+00 -0.10961995260E+04  0.10961995260E+04  0.00000000000E+00 0.  1.
         25    1    1    2    0    0 -0.15503329683E+03 -0.16800932907E+03 -0.99977877020E+02  0.27907531900E+03  0.12500000000E+03 0.  0.
         21    1    1    2  503  502  0.58786152750E+02  0.25374352550E+03 -0.20382494438E+02  0.26126047265E+03  0.00000000000E+00 0.  1.
         21    1    1    2  504  501  0.96247144079E+02 -0.85734196437E+02 -0.76042811288E+03  0.77127477596E+03  0.00000000000E+00 0.  1.
<mgrwt>
<rscale>  4 0.52676005E+03</rscale>
<asrwt>0</asrwt>
<pdfrwt beam="1">  1       21 0.33140160E-01 0.52676005E+03</pdfrwt>
<pdfrwt beam="2">  1       21 0.16864608E+00 0.52676005E+03</pdfrwt>
<totfact> 0.15768774E+03</totfact>
</mgrwt>
</event>
<event>
 5    0  0.2324070E+000  0.5095544E+03  0.7546771E-02  0.1011315E+00
         21   -1    0    0  503  501  0.00000000000E+00  0.00000000000E+00  0.74756156077E+02  0.74756156077E+02  0.00000000000E+00 0.  1.
         21   -1    0    0  504  502 -0.00000000000E+00 -0.00000000000E+00 -0.14014623684E+04  0.14014623684E+04  0.00000000000E+00 0. -1.
         25    1    1    2    0    0 -0.20933292268E+03 -0.48471256199E+02 -0.81002695935E+03  0.84731246307E+03  0.12500000000E+03 0.  0.
         21    1    1    2  503  502  0.13530902584E+03  0.23016338007E+01 -0.35534943979E+02  0.13991626866E+03  0.00000000000E+00 0.  1.
         21    1    1    2  504  501  0.74023896842E+02  0.46169622398E+02 -0.48114430899E+03  0.48898979274E+03  0.00000000000E+00 0. -1.
<mgrwt>
<rscale>  4 0.50955435E+03</rscale>
<asrwt>0</asrwt>
<pdfrwt beam="1">  1       21 0.11500947E-01 0.50955435E+03</pdfrwt>
<pdfrwt beam="2">  1       21 0.21560960E+00 0.50955435E+03</pdfrwt>
<totfact> 0.56920607E+03</totfact>
</mgrwt>
</event>
<event>
 5    0  0.2324070E+000  0.5182481E+03  0.7546771E-02  0.1009123E+00
         21   -1    0    0  503  501  0.00000000000E+00  0.00000000000E+00  0.65470401374E+03  0.65470401374E+03  0.00000000000E+00 0.  1.
         21   -1    0    0  504  502 -0.00000000000E+00 -0.00000000000E+00 -0.16367667566E+03  0.16367667566E+03  0.00000000000E+00 0.  1.
         25    1    1    2    0    0 -0.37552513563E+02  0.22016543797E+03  0.34460193848E+03  0.42925343022E+03  0.12500000000E+03 0.  0.
         21    1    1    2  503  502 -0.75985554087E+01  0.29225621634E+02 -0.56758527237E+02  0.64291565685E+02  0.00000000000E+00 0.  1.
         21    1    1    2  504  501  0.45151068972E+02 -0.24939105961E+03  0.20318392684E+03  0.32483569349E+03  0.00000000000E+00 0.  1.
<mgrwt>
<rscale>  4 0.51824806E+03</rscale>
<asrwt>0</asrwt>
<pdfrwt beam="1">  1       21 0.10072369E+00 0.51824806E+03</pdfrwt>
<pdfrwt beam="2">  1       21 0.25181027E-01 0.51824806E+03</pdfrwt>
<totfact> 0.10541327E+04</totfact>
</mgrwt>
</event>
