<event>
 5    0  0.1856407E+000  0.3515547E+03  0.7546771E-02  0.1061979E+00
         21   -1    0    0  502  501  0.00000000000E+00  0.00000000000E+00  0.72117520772E+03  0.72117520772E+03  0.00000000000E+00 0.  1.
         21   -1    0    0  503  502 -0.00000000000E+00 -0.00000000000E+00 -0.16285675108E+03  0.16285675108E+03  0.00000000000E+00 0.  1.
         25    1    1    2    0    0 -0.30400029366E+03  0.12469778957E+03  0.27516972634E+03  0.44644047259E+03  0.12500000000E+03 0.  0.
         21    1    1    2  503  504  0.23390214275E+03 -0.11571463786E+03  0.24150826515E+03  0.35556480694E+03  0.00000000000E+00 0.  1.
         21    1    1    2  504  501  0.70098150908E+02 -0.89831517157E+01  0.41640465136E+02  0.82026679271E+02  0.00000000000E+00 0.  1.
<mgrwt>
<rscale>  4 0.35155471E+03</rscale>
<asrwt>0</asrwt>
<pdfrwt beam="1">  1       21 0.11095003E+00 0.35155471E+03</pdfrwt>
<pdfrwt beam="2">  1       21 0.25054885E-01 0.35155471E+03</pdfrwt>
<totfact> 0.88512766E+03</totfact>
</mgrwt>
</event>
<event>
 5    0  0.1952523E+000  0.3004503E+03  0.7546771E-02  0.1085016E+00
         21   -1    0    0  502  501  0.00000000000E+00  0.00000000000E+00  0.20459866212E+03  0.20459866212E+03  0.00000000000E+00 0.  1.
         21   -1    0    0  503  502 -0.00000000000E+00 -0.00000000000E+00 -0.46635482697E+03  0.46635482697E+03  0.00000000000E+00 0.  1.
         25    1    1    2    0    0  0.22775253760E+03  0.15091118785E+03 -0.14580618209E+02  0.30080392190E+03  0.12500000000E+03 0.  0.
         21    1    1    2  503  504 -0.20398127926E+03 -0.13608323607E+03 -0.23488473927E+03  0.33955537128E+03  0.00000000000E+00 0.  1.
         21    1    1    2  504  501 -0.23771258340E+02 -0.14827951788E+02 -0.12290807368E+02  0.30594195905E+02  0.00000000000E+00 0.  1.
<mgrwt>
<rscale>  4 0.30045034E+03</rscale>
<asrwt>0</asrwt>
<pdfrwt beam="1">  1       21 0.31476718E-01 0.30045034E+03</pdfrwt>
<pdfrwt beam="2">  1       21 0.71746895E-01 0.30045034E+03</pdfrwt>
<totfact> 0.16098878E+04</totfact>
</mgrwt>
</event>
<event>
 5    0  0.1856407E+000  0.4658243E+03  0.7546771E-02  0.1023105E+00
         21   -1    0    0  502  501  0.00000000000E+00  0.00000000000E+00  0.27137337444E+03  0.27137337444E+03  0.00000000000E+00 0.  1.
         21   -1    0    0  503  502 -0.00000000000E+00 -0.00000000000E+00 -0.78754095481E+03  0.78754095481E+03  0.00000000000E+00 0.  1.
         25    1    1    2    0    0  0.23123257257E+03  0.38457613941E+03 -0.27267482544E+03  0.53976279054E+03  0.12500000000E+03 0.  0.
         21    1    1    2  503  504 -0.12738846246E+03 -0.13677500791E+03 -0.12894332008E+03  0.22707180131E+03  0.00000000000E+00 0.  1.
         21    1    1    2  504  501 -0.10384411012E+03 -0.24780113149E+03 -0.11454943485E+03  0.29207973740E+03  0.00000000000E+00 0.  1.
<mgrwt>
<rscale>  4 0.46582433E+03</rscale>
<asrwt>0</asrwt>
<pdfrwt beam="1">  1       21 0.41749749E-01 0.46582433E+03</pdfrwt>
<pdfrwt beam="2">  1       21 0.12116015E+00 0.46582433E+03</pdfrwt>
<totfact> 0.24460440E+03</totfact>
</mgrwt>
</event>
<event>
 5    0  0.7032985E+001  0.2668153E+03  0.7546771E-02  0.1103116E+00
         21   -1    0    0  502  501  0.00000000000E+00  0.00000000000E+00  0.24315101212E+03  0.24315101212E+03  0.00000000000E+00 0.  1.
         21   -1    0    0  503  502 -0.00000000000E+00 -0.00000000000E+00 -0.50374244031E+03  0.50374244031E+03  0.00000000000E+00 0.  1.
         25    1    1    2    0    0 -0.23020085079E+03  0.50724616748E+02 -0.39292229758E+03  0.47495089260E+03  0.12500000000E+03 0.  0.
         21    1    1    2  503  504  0.20589258404E+03 -0.43133042455E+02  0.10695053380E+03  0.23598862725E+03  0.00000000000E+00 0.  1.
         21    1    1    2  504  501  0.24308266755E+02 -0.75915742933E+01  0.25380335600E+02  0.35953932581E+02  0.00000000000E+00 0. -1.
<mgrwt>
<rscale>  4 0.26681533E+03</rscale>
<asrwt>0</asrwt>
<pdfrwt beam="1">  1       21 0.37407849E-01 0.26681533E+03</pdfrwt>
<pdfrwt beam="2">  1       21 0.77498835E-01 0.26681533E+03</pdfrwt>
<totfact> 0.97337722E+03</totfact>
</mgrwt>
</event>
<event>
 5    0  0.1856407E+000  0.2829960E+03  0.7546771E-02  0.1094064E+00
         21   -1    0    0  502  501  0.00000000000E+00  0.00000000000E+00  0.43941865615E+03  0.43941865615E+03  0.00000000000E+00 0.  1.
         21   -1    0    0  503  502 -0.00000000000E+00 -0.00000000000E+00 -0.17853474875E+03  0.17853474875E+03  0.00000000000E+00 0.  1.
         25    1    1    2    0    0 -0.25384540183E+03  0.49221399778E+01  0.18762199605E+03  0.33954193982E+03  0.12500000000E+03 0.  0.
         21    1    1    2  503  504  0.11846794656E+03  0.38948714072E+02  0.49310863833E+02  0.13410152118E+03  0.00000000000E+00 0.  1.
         21    1    1    2  504  501  0.13537745527E+03 -0.43870854050E+02  0.23951047517E+02  0.14430994390E+03  0.00000000000E+00 0.  1.
<mgrwt>
<rscale>  4 0.28299596E+03</rscale>
<asrwt>0</asrwt>
<pdfrwt beam="1">  1       21 0.67602870E-01 0.28299596E+03</pdfrwt>
<pdfrwt beam="2">  1       21 0.27466885E-01 0.28299596E+03</pdfrwt>
<totfact> 0.24191278E+04</totfact>
</mgrwt>
</event>
<event>
 5    0  0.1856407E+000  0.2515852E+03  0.7546771E-02  0.1112307E+00
         21   -1    0    0  502  501  0.00000000000E+00  0.00000000000E+00  0.14569136950E+04  0.14569136950E+04  0.00000000000E+00 0. -1.
         21   -1    0    0  503  502 -0.00000000000E+00 -0.00000000000E+00 -0.43482588377E+02  0.43482588377E+02  0.00000000000E+00 0. -1.
         25    1    1    2    0    0 -0.32226803256E+02 -0.21594335888E+03  0.92218187120E+03  0.95588414814E+03  0.12500000000E+03 0.  0.
         21    1    1    2  503  504  0.44843236003E+02  0.64472804658E+02  0.12069542562E+03  0.14399668094E+03  0.00000000000E+00 0.  1.
         21    1    1    2  504  501 -0.12616432747E+02  0.15147055422E+03  0.37055380976E+03  0.40051545426E+03  0.00000000000E+00 0. -1.
<mgrwt>
<rscale>  4 0.25158518E+03</rscale>
<asrwt>0</asrwt>
<pdfrwt beam="1">  1       21 0.22414053E+00 0.25158518E+03</pdfrwt>
<pdfrwt beam="2">  1       21 0.66896301E-02 0.25158518E+03</pdfrwt>
<totfact> 0.14846022E+04</totfact>
</mgrwt>
</event>
<event>
 5    0  0.1856407E+000  0.4882925E+03  0.7546771E-02  0.1016881E+00
         21   -1    0    0  502  501  0.00000000000E+00  0.00000000000E+00  0.23775258061E+03  0.23775258061E+03  0.00000000000E+00 0.  1.
         21   -1    0    0  503  502 -0.00000000000E+00 -0.00000000000E+00 -0.10387405866E+04  0.10387405866E+04  0.00000000000E+00 0.  1.
         25    1    1    2    0    0  0.62924385869E+02  0.46780877160E+03 -0.26621102875E+03  0.55614551779E+03  0.12500000000E+03 0.  0.
         21    1    1    2  503  504  0.23106278236E+02 -0.10423489625E+03 -0.91390659269E+02  0.14053848687E+03  0.00000000000E+00 0. -1.
         21    1    1    2  504  501 -0.86030664105E+02 -0.36357387536E+03 -0.44338631797E+03  0.57980916255E+03  0.00000000000E+00 0.  1.
<mgrwt>
<rscale>  4 0.48829246E+03</rscale>
<asrwt>0</asrwt>
<pdfrwt beam="1">  1       21 0.36577321E-01 0.48829246E+03</pdfrwt>
<pdfrwt beam="2">  1       21 0.15980624E+00 0.48829246E+03</pdfrwt>
<totfact> 0.15240282E+03</totfact>
</mgrwt>
</event>
<event>
 5    0  0.1944584E+000  0.2451470E+03  0.7546771E-02  0.1116411E+00
         21   -1    0    0  502  501  0.00000000000E+00  0.00000000000E+00  0.33547407769E+03  0.33547407769E+03  0.00000000000E+00 0. -1.
         21   -1    0    0  503  502 -0.00000000000E+00 -0.00000000000E+00 -0.16128967781E+03  0.16128967781E+03  0.00000000000E+00 0. -1.
         25    1    1    2    0    0 -0.17616696099E+03 -0.11591916287E+03  0.12109864631E+03  0.27342628367E+03  0.12500000000E+03 0.  0.
         21    1    1    2  503  504  0.14288707151E+03  0.99720896524E+02  0.62555143548E+02  0.18513270481E+03  0.00000000000E+00 0. -1.
         21    1    1    2  504  501  0.33279889483E+02  0.16198266351E+02 -0.94693899757E+01  0.38204767023E+02  0.00000000000E+00 0. -1.
<mgrwt>
<rscale>  4 0.24514700E+03</rscale>
<asrwt>0</asrwt>
<pdfrwt beam="1">  1       21 0.51611397E-01 0.24514700E+03</pdfrwt>
<pdfrwt beam="2">  1       21 0.24813797E-01 0.24514700E+03</pdfrwt>
<totfact> 0.53531445E+04</totfact>
</mgrwt>
</event>
<event>
 5    0  0.1856407E+000  0.4203507E+03  0.7546771E-02  0.1036952E+00
         21   -1    0    0  502  501  0.00000000000E+00  0.00000000000E+00  0.49423131039E+03  0.49423131039E+03  0.00000000000E+00 0. -1.
         21   -1    0    0  503  502 -0.00000000000E+00 -0.00000000000E+00 -0.10696269870E+04  0.10696269870E+04  0.00000000000E+00 0.  1.
         25    1    1    2    0    0  0.33278521598E+03 -0.22432954430E+03  0.35283875181E+03  0.54880773427E+03  0.12500000000E+03 0.  0.
         21    1    1    2  503  504 -0.66137210699E+02  0.90902540876E+02 -0.26684549077E+03  0.28955814360E+03  0.00000000000E+00 0.  1.
         21    1    1    2  504  501 -0.26664800528E+03  0.13342700343E+03 -0.66138893768E+03  0.72549241957E+03  0.00000000000E+00 0.  1.
<mgrwt>
<rscale>  4 0.42035074E+03</rscale>
<asrwt>0</asrwt>
<pdfrwt beam="1">  1       21 0.76035587E-01 0.42035074E+03</pdfrwt>
<pdfrwt beam="2">  1       21 0.16455800E+00 0.42035074E+03</pdfrwt>
<totfact> 0.29999449E+02</totfact>
</mgrwt>
</event>
