<event>
 5    0  0.1911311E+001  0.2834388E+03  0.7546771E-02  0.1093825E+00
         21   -1    0    0  502  501  0.00000000000E+00  0.00000000000E+00  0.35563975571E+03  0.35563975571E+03  0.00000000000E+00 0.  1.
         21   -1    0    0  504  502 -0.00000000000E+00 -0.00000000000E+00 -0.93103524331E+03  0.93103524331E+03  0.00000000000E+00 0.  1.
         25    1    1    2    0    0  0.90514964722E+02  0.25059063951E+03 -0.27075822122E+03  0.39990454087E+03  0.12500000000E+03 0.  0.
         21    1    1    2  503  501  0.81976828227E+02 -0.24789813720E+03  0.21564135363E+03  0.33863679686E+03  0.00000000000E+00 0.  1.
         21    1    1    2  504  503 -0.17249179295E+03 -0.26925023132E+01 -0.52027862000E+03  0.54813366129E+03  0.00000000000E+00 0.  1.
<mgrwt>
<rscale>  4 0.28343885E+03</rscale>
<asrwt>0</asrwt>
<pdfrwt beam="1">  1       21 0.54713808E-01 0.28343885E+03</pdfrwt>
<pdfrwt beam="2">  1       21 0.14323619E+00 0.28343885E+03</pdfrwt>
<totfact> 0.98330785E+02</totfact>
</mgrwt>
</event>
<event>
 5    0  0.1911311E+001  0.2588049E+03  0.7546771E-02  0.1107863E+00
         21   -1    0    0  503  501  0.00000000000E+00  0.00000000000E+00  0.61246782392E+03  0.61246782392E+03  0.00000000000E+00 0.  1.
         21   -1    0    0  501  502 -0.00000000000E+00 -0.00000000000E+00 -0.14110377979E+03  0.14110377979E+03  0.00000000000E+00 0. -1.
         25    1    1    2    0    0 -0.12594933866E+03 -0.16317434979E+03  0.37645413800E+02  0.24399033079E+03  0.12500000000E+03 0.  0.
         21    1    1    2  503  504 -0.15245055319E+02 -0.21662950645E+02  0.14598284223E+02  0.30245744239E+02  0.00000000000E+00 0. -1.
         21    1    1    2  504  502  0.14119439398E+03  0.18483730044E+03  0.41912034611E+03  0.47933552867E+03  0.00000000000E+00 0.  1.
<mgrwt>
<rscale>  4 0.25880486E+03</rscale>
<asrwt>0</asrwt>
<pdfrwt beam="1">  1       21 0.94225817E-01 0.25880486E+03</pdfrwt>
<pdfrwt beam="2">  1       21 0.21708274E-01 0.25880486E+03</pdfrwt>
<totfact> 0.18010572E+04</totfact>
</mgrwt>
</event>
<event>
 5    0  0.1911311E+001  0.2205439E+03  0.7546771E-02  0.1133478E+00
         21   -1    0    0  504  501  0.00000000000E+00  0.00000000000E+00  0.57225447921E+03  0.57225447921E+03  0.00000000000E+00 0. -1.
         21   -1    0    0  503  502 -0.00000000000E+00 -0.00000000000E+00 -0.12394306597E+03  0.12394306597E+03  0.00000000000E+00 0. -1.
         25    1    1    2    0    0 -0.15261931345E+03  0.13461627721E+03  0.88553279464E+02  0.25471725547E+03  0.12500000000E+03 0.  0.
         21    1    1    2  503  501  0.10074316007E+02 -0.30380598957E+02 -0.84603778542E+01  0.33106655365E+02  0.00000000000E+00 0. -1.
         21    1    1    2  504  502  0.14254499745E+03 -0.10423567825E+03  0.36821851164E+03  0.40837363435E+03  0.00000000000E+00 0. -1.
<mgrwt>
<rscale>  4 0.22054389E+03</rscale>
<asrwt>0</asrwt>
<pdfrwt beam="1">  1       21 0.88039149E-01 0.22054389E+03</pdfrwt>
<pdfrwt beam="2">  1       21 0.19068164E-01 0.22054389E+03</pdfrwt>
<totfact> 0.27458851E+04</totfact>
</mgrwt>
</event>
<event>
 5    0  0.1911311E+001  0.2077581E+03  0.7546771E-02  0.1143354E+00
         21   -1    0    0  503  501  0.00000000000E+00  0.00000000000E+00  0.68169756156E+02  0.68169756156E+02  0.00000000000E+00 0.  1.
         21   -1    0    0  504  502 -0.00000000000E+00 -0.00000000000E+00 -0.14370794415E+04  0.14370794415E+04  0.00000000000E+00 0.  1.
         25    1    1    2    0    0 -0.33813279479E+02  0.20763068465E+03 -0.26074025293E+03  0.35758120557E+03  0.12500000000E+03 0.  0.
         21    1    1    2  503  502  0.46471139265E+02 -0.15375484927E+03 -0.10661476475E+04  0.10781794502E+04  0.00000000000E+00 0.  1.
         21    1    1    2  504  501 -0.12657859786E+02 -0.53875835375E+02 -0.42021784882E+02  0.69488541908E+02  0.00000000000E+00 0.  1.
<mgrwt>
<rscale>  4 0.20775806E+03</rscale>
<asrwt>0</asrwt>
<pdfrwt beam="1">  1       21 0.10487657E-01 0.20775806E+03</pdfrwt>
<pdfrwt beam="2">  1       21 0.22108910E+00 0.20775806E+03</pdfrwt>
<totfact> 0.72884670E+03</totfact>
</mgrwt>
</event>
