<event>
 5    0  0.1856407E+000  0.3292858E+03  0.7546771E-02  0.1071453E+00
         21   -1    0    0  502  501  0.00000000000E+00  0.00000000000E+00  0.10737861189E+03  0.10737861189E+03  0.00000000000E+00 0.  1.
         21   -1    0    0  503  502 -0.00000000000E+00 -0.00000000000E+00 -0.97445656315E+03  0.97445656315E+03  0.00000000000E+00 0.  1.
         25    1    1    2    0    0  0.11968073034E+03  0.28014402418E+03 -0.41001015715E+03  0.52586831095E+03  0.12500000000E+03 0.  0.
         21    1    1    2  503  504 -0.48298812310E+02 -0.90646337085E+02 -0.89149821739E+02  0.13600450145E+03  0.00000000000E+00 0.  1.
         21    1    1    2  504  501 -0.71381918031E+02 -0.18949768710E+03 -0.36791797238E+03  0.41996236264E+03  0.00000000000E+00 0.  1.
<mgrwt>
<rscale>  4 0.32928582E+03</rscale>
<asrwt>0</asrwt>
<pdfrwt beam="1">  1       21 0.16519787E-01 0.32928582E+03</pdfrwt>
<pdfrwt beam="2">  1       21 0.14991639E+00 0.32928582E+03</pdfrwt>
<totfact> 0.90764430E+03</totfact>
</mgrwt>
</event>
<event>
 5    0  0.1856407E+000  0.2380493E+03  0.7546771E-02  0.1121099E+00
         21   -1    0    0  502  501  0.00000000000E+00  0.00000000000E+00  0.29346578297E+03  0.29346578297E+03  0.00000000000E+00 0.  1.
         21   -1    0    0  503  502 -0.00000000000E+00 -0.00000000000E+00 -0.17483377073E+03  0.17483377073E+03  0.00000000000E+00 0.  1.
         25    1    1    2    0    0 -0.40828451570E+02  0.19843257716E+03  0.91172246152E+02  0.25491141325E+03  0.12500000000E+03 0.  0.
         21    1    1    2  503  504 -0.13653492324E+02 -0.51615002348E+02 -0.44298471967E+01  0.53573779652E+02  0.00000000000E+00 0.  1.
         21    1    1    2  504  501  0.54481943894E+02 -0.14681757481E+03  0.31889613277E+02  0.15981436080E+03  0.00000000000E+00 0.  1.
<mgrwt>
<rscale>  4 0.23804926E+03</rscale>
<asrwt>0</asrwt>
<pdfrwt beam="1">  1       21 0.45148582E-01 0.23804926E+03</pdfrwt>
<pdfrwt beam="2">  1       21 0.26897503E-01 0.23804926E+03</pdfrwt>
<totfact> 0.60755890E+04</totfact>
</mgrwt>
</event>
<event>
 5    0  0.1856407E+000  0.5088044E+03  0.7546771E-02  0.1011506E+00
         21   -1    0    0  502  501  0.00000000000E+00  0.00000000000E+00  0.76855168005E+03  0.76855168005E+03  0.00000000000E+00 0. -1.
         21   -1    0    0  503  502 -0.00000000000E+00 -0.00000000000E+00 -0.61833309804E+03  0.61833309804E+03  0.00000000000E+00 0. -1.
         25    1    1    2    0    0  0.77443714185E+02  0.55655320404E+03 -0.56542783044E+02  0.57842119957E+03  0.12500000000E+03 0.  0.
         21    1    1    2  503  504  0.18913632892E+03 -0.15787351003E+03 -0.68209860979E+02  0.25563485916E+03  0.00000000000E+00 0. -1.
         21    1    1    2  504  501 -0.26658004310E+03 -0.39867969401E+03  0.27497122603E+03  0.55282871936E+03  0.00000000000E+00 0. -1.
<mgrwt>
<rscale>  4 0.50880442E+03</rscale>
<asrwt>0</asrwt>
<pdfrwt beam="1">  1       21 0.11823872E+00 0.50880442E+03</pdfrwt>
<pdfrwt beam="2">  1       21 0.95128169E-01 0.50880442E+03</pdfrwt>
<totfact> 0.41074913E+02</totfact>
</mgrwt>
</event>
<event>
 5    0  0.1856407E+000  0.2300540E+03  0.7546771E-02  0.1126602E+00
         21   -1    0    0  502  501  0.00000000000E+00  0.00000000000E+00  0.92027050201E+02  0.92027050201E+02  0.00000000000E+00 0. -1.
         21   -1    0    0  503  502 -0.00000000000E+00 -0.00000000000E+00 -0.10205679554E+04  0.10205679554E+04  0.00000000000E+00 0. -1.
         25    1    1    2    0    0 -0.21901462885E+03  0.56062613421E+02 -0.20201516183E+03  0.32794138178E+03  0.12500000000E+03 0.  0.
         21    1    1    2  503  504  0.62180889565E+02  0.48018336846E+02 -0.83519503655E+02  0.11466355651E+03  0.00000000000E+00 0. -1.
         21    1    1    2  504  501  0.15683373928E+03 -0.10408095027E+03 -0.64300623970E+03  0.66999006730E+03  0.00000000000E+00 0. -1.
<mgrwt>
<rscale>  4 0.23005398E+03</rscale>
<asrwt>0</asrwt>
<pdfrwt beam="1">  1       21 0.14158008E-01 0.23005398E+03</pdfrwt>
<pdfrwt beam="2">  1       21 0.15701045E+00 0.23005398E+03</pdfrwt>
<totfact> 0.11233184E+04</totfact>
</mgrwt>
</event>
<event>
 5    0  0.1856407E+000  0.3368759E+03  0.7546771E-02  0.1068134E+00
         21   -1    0    0  502  501  0.00000000000E+00  0.00000000000E+00  0.20917874817E+03  0.20917874817E+03  0.00000000000E+00 0.  1.
         21   -1    0    0  503  502 -0.00000000000E+00 -0.00000000000E+00 -0.52410497461E+03  0.52410497461E+03  0.00000000000E+00 0.  1.
         25    1    1    2    0    0 -0.10585533087E+03  0.29437223148E+03 -0.17434131171E+03  0.37931550813E+03  0.12500000000E+03 0.  0.
         21    1    1    2  503  504  0.15109215211E+02 -0.13922456670E+03 -0.92759543765E+02  0.16797649037E+03  0.00000000000E+00 0.  1.
         21    1    1    2  504  501  0.90746115660E+02 -0.15514766478E+03 -0.47825370966E+02  0.18599172429E+03  0.00000000000E+00 0.  1.
<mgrwt>
<rscale>  4 0.33687588E+03</rscale>
<asrwt>0</asrwt>
<pdfrwt beam="1">  1       21 0.32181346E-01 0.33687588E+03</pdfrwt>
<pdfrwt beam="2">  1       21 0.80631534E-01 0.33687588E+03</pdfrwt>
<totfact> 0.11648741E+04</totfact>
</mgrwt>
</event>
<event>
 5    0  0.2778979E+000  0.2859458E+03  0.7546771E-02  0.1092485E+00
         21   -1    0    0  502  501  0.00000000000E+00  0.00000000000E+00  0.79334280324E+03  0.79334280324E+03  0.00000000000E+00 0. -1.
         21   -1    0    0  503  502 -0.00000000000E+00 -0.00000000000E+00 -0.16996349915E+03  0.16996349915E+03  0.00000000000E+00 0. -1.
         25    1    1    2    0    0 -0.20239919329E+03  0.21630699726E+03  0.50645240041E+03  0.59989431101E+03  0.12500000000E+03 0.  0.
         21    1    1    2  503  504  0.10221647189E+03 -0.27697653411E+02 -0.22628051952E+02  0.10829310165E+03  0.00000000000E+00 0. -1.
         21    1    1    2  504  501  0.10018272141E+03 -0.18860934384E+03  0.13955495564E+03  0.25511888973E+03  0.00000000000E+00 0. -1.
<mgrwt>
<rscale>  4 0.28594584E+03</rscale>
<asrwt>0</asrwt>
<pdfrwt beam="1">  1       21 0.12205274E+00 0.28594584E+03</pdfrwt>
<pdfrwt beam="2">  1       21 0.26148231E-01 0.28594584E+03</pdfrwt>
<totfact> 0.66243673E+03</totfact>
</mgrwt>
</event>
<event>
 5    0  0.1856407E+000  0.3272655E+03  0.7546771E-02  0.1072353E+00
         21   -1    0    0  502  501  0.00000000000E+00  0.00000000000E+00  0.24847808750E+03  0.24847808750E+03  0.00000000000E+00 0. -1.
         21   -1    0    0  503  502 -0.00000000000E+00 -0.00000000000E+00 -0.50157180906E+03  0.50157180906E+03  0.00000000000E+00 0.  1.
         25    1    1    2    0    0 -0.13589118251E+03 -0.27020598744E+03  0.25869960186E+02  0.32828637494E+03  0.12500000000E+03 0.  0.
         21    1    1    2  503  504  0.10208488740E+03  0.14055043569E+03 -0.20504418359E+03  0.26873568136E+03  0.00000000000E+00 0.  1.
         21    1    1    2  504  501  0.33806295109E+02  0.12965555175E+03 -0.73919498154E+02  0.15302784026E+03  0.00000000000E+00 0.  1.
<mgrwt>
<rscale>  4 0.32726547E+03</rscale>
<asrwt>0</asrwt>
<pdfrwt beam="1">  1       21 0.38227398E-01 0.32726547E+03</pdfrwt>
<pdfrwt beam="2">  1       21 0.77164894E-01 0.32726547E+03</pdfrwt>
<totfact> 0.91464830E+03</totfact>
</mgrwt>
</event>
<event>
 5    0  0.1856407E+000  0.2698266E+03  0.7546771E-02  0.1101379E+00
         21   -1    0    0  502  501  0.00000000000E+00  0.00000000000E+00  0.14139740567E+03  0.14139740567E+03  0.00000000000E+00 0.  1.
         21   -1    0    0  503  502 -0.00000000000E+00 -0.00000000000E+00 -0.65856629398E+03  0.65856629398E+03  0.00000000000E+00 0. -1.
         25    1    1    2    0    0 -0.21293942894E+02 -0.27274227676E+03 -0.19435491917E+03  0.35810698979E+03  0.12500000000E+03 0.  0.
         21    1    1    2  503  504 -0.15378836241E+02  0.21252509071E+03 -0.16663501461E+03  0.27050074099E+03  0.00000000000E+00 0. -1.
         21    1    1    2  504  501  0.36672779134E+02  0.60217186047E+02 -0.15617895454E+03  0.17135596886E+03  0.00000000000E+00 0. -1.
<mgrwt>
<rscale>  4 0.26982657E+03</rscale>
<asrwt>0</asrwt>
<pdfrwt beam="1">  1       21 0.21753446E-01 0.26982657E+03</pdfrwt>
<pdfrwt beam="2">  1       21 0.10131789E+00 0.26982657E+03</pdfrwt>
<totfact> 0.15013938E+04</totfact>
</mgrwt>
</event>
<event>
 5    0  0.1856407E+000  0.3710879E+03  0.7546771E-02  0.1054278E+00
         21   -1    0    0  502  501  0.00000000000E+00  0.00000000000E+00  0.67924978573E+03  0.67924978573E+03  0.00000000000E+00 0. -1.
         21   -1    0    0  503  502 -0.00000000000E+00 -0.00000000000E+00 -0.20953393800E+03  0.20953393800E+03  0.00000000000E+00 0. -1.
         25    1    1    2    0    0  0.90991513477E+02  0.33734519653E+03  0.13505775751E+03  0.39490104458E+03  0.12500000000E+03 0.  0.
         21    1    1    2  503  504 -0.11302120121E+02 -0.20615413388E+03  0.15889192164E+03  0.26052621288E+03  0.00000000000E+00 0. -1.
         21    1    1    2  504  501 -0.79689393356E+02 -0.13119106265E+03  0.17576616858E+03  0.23335646627E+03  0.00000000000E+00 0. -1.
<mgrwt>
<rscale>  4 0.37108791E+03</rscale>
<asrwt>0</asrwt>
<pdfrwt beam="1">  1       21 0.10449997E+00 0.37108791E+03</pdfrwt>
<pdfrwt beam="2">  1       21 0.32235991E-01 0.37108791E+03</pdfrwt>
<totfact> 0.62005100E+03</totfact>
</mgrwt>
</event>
<event>
 5    0  0.1856407E+000  0.2850017E+03  0.7546771E-02  0.1092988E+00
         21   -1    0    0  502  501  0.00000000000E+00  0.00000000000E+00  0.23029647005E+03  0.23029647005E+03  0.00000000000E+00 0. -1.
         21   -1    0    0  503  502 -0.00000000000E+00 -0.00000000000E+00 -0.72617992258E+03  0.72617992258E+03  0.00000000000E+00 0. -1.
         25    1    1    2    0    0  0.71567153331E+02 -0.24592497198E+03  0.10236680088E+03  0.30282818759E+03  0.12500000000E+03 0.  0.
         21    1    1    2  503  504 -0.33465088979E+02  0.34171387537E+02 -0.96035345250E+02  0.10728645508E+03  0.00000000000E+00 0.  1.
         21    1    1    2  504  501 -0.38102064352E+02  0.21175358444E+03 -0.50221490816E+03  0.54636174995E+03  0.00000000000E+00 0. -1.
<mgrwt>
<rscale>  4 0.28500167E+03</rscale>
<asrwt>0</asrwt>
<pdfrwt beam="1">  1       21 0.35430226E-01 0.28500167E+03</pdfrwt>
<pdfrwt beam="2">  1       21 0.11171999E+00 0.28500167E+03</pdfrwt>
<totfact> 0.45371048E+03</totfact>
</mgrwt>
</event>
<event>
 5    0  0.1856407E+000  0.3893932E+03  0.7546771E-02  0.1047516E+00
         21   -1    0    0  502  501  0.00000000000E+00  0.00000000000E+00  0.14112255725E+04  0.14112255725E+04  0.00000000000E+00 0. -1.
         21   -1    0    0  503  502 -0.00000000000E+00 -0.00000000000E+00 -0.44974851182E+03  0.44974851182E+03  0.00000000000E+00 0.  1.
         25    1    1    2    0    0 -0.14568435868E+03 -0.33878925825E+03  0.12985627268E+04  0.13556888468E+04  0.12500000000E+03 0.  0.
         21    1    1    2  503  504  0.38757192371E+02  0.29523419274E+02 -0.35568906924E+02  0.60323290575E+02  0.00000000000E+00 0.  1.
         21    1    1    2  504  501  0.10692716631E+03  0.30926583897E+03 -0.30151675927E+03  0.44496194688E+03  0.00000000000E+00 0.  1.
<mgrwt>
<rscale>  4 0.38939324E+03</rscale>
<asrwt>0</asrwt>
<pdfrwt beam="1">  1       21 0.21711162E+00 0.38939324E+03</pdfrwt>
<pdfrwt beam="2">  1       21 0.69192079E-01 0.38939324E+03</pdfrwt>
<totfact> 0.16548365E+02</totfact>
</mgrwt>
</event>
<event>
 5    0  0.2011747E+000  0.2178376E+03  0.7546771E-02  0.1135506E+00
         21   -1    0    0  502  501  0.00000000000E+00  0.00000000000E+00  0.29611599179E+03  0.29611599179E+03  0.00000000000E+00 0.  1.
         21   -1    0    0  503  502 -0.00000000000E+00 -0.00000000000E+00 -0.25206834468E+03  0.25206834468E+03  0.00000000000E+00 0.  1.
         25    1    1    2    0    0 -0.17523073477E+03 -0.12931021808E+03  0.13282640340E+03  0.28406829522E+03  0.12500000000E+03 0.  0.
         21    1    1    2  503  504  0.15734769603E+03  0.65132587652E+02 -0.98589270718E+02  0.19677498754E+03  0.00000000000E+00 0.  1.
         21    1    1    2  504  501  0.17883038738E+02  0.64177630431E+02  0.98105144306E+01  0.67341053716E+02  0.00000000000E+00 0.  1.
<mgrwt>
<rscale>  4 0.21783761E+03</rscale>
<asrwt>0</asrwt>
<pdfrwt beam="1">  1       21 0.45556306E-01 0.21783761E+03</pdfrwt>
<pdfrwt beam="2">  1       21 0.38779745E-01 0.21783761E+03</pdfrwt>
<totfact> 0.29225350E+04</totfact>
</mgrwt>
</event>
<event>
 5    0  0.1856407E+000  0.2852876E+03  0.7546771E-02  0.1092835E+00
         21   -1    0    0  502  501  0.00000000000E+00  0.00000000000E+00  0.53187014636E+03  0.53187014636E+03  0.00000000000E+00 0.  1.
         21   -1    0    0  503  502 -0.00000000000E+00 -0.00000000000E+00 -0.78178867873E+03  0.78178867873E+03  0.00000000000E+00 0. -1.
         25    1    1    2    0    0  0.18200351276E+03  0.20016200592E+03  0.45407804870E+03  0.54314084875E+03  0.12500000000E+03 0.  0.
         21    1    1    2  503  504 -0.59761385349E+02 -0.15952753602E+03 -0.28363797312E+03  0.33086395652E+03  0.00000000000E+00 0. -1.
         21    1    1    2  504  501 -0.12224212741E+03 -0.40634469899E+02 -0.42035860796E+03  0.43965401982E+03  0.00000000000E+00 0. -1.
<mgrwt>
<rscale>  4 0.28528765E+03</rscale>
<asrwt>0</asrwt>
<pdfrwt beam="1">  1       21 0.81826177E-01 0.28528765E+03</pdfrwt>
<pdfrwt beam="2">  1       21 0.12027518E+00 0.28528765E+03</pdfrwt>
<totfact> 0.63175168E+02</totfact>
</mgrwt>
</event>
<event>
 5    0  0.1856407E+000  0.2930448E+03  0.7546771E-02  0.1088770E+00
         21   -1    0    0  502  501  0.00000000000E+00  0.00000000000E+00  0.27459863478E+03  0.27459863478E+03  0.00000000000E+00 0.  1.
         21   -1    0    0  503  502 -0.00000000000E+00 -0.00000000000E+00 -0.30992307601E+03  0.30992307601E+03  0.00000000000E+00 0.  1.
         25    1    1    2    0    0  0.26358631791E+03  0.27794153900E+02 -0.72144629192E+02  0.30179481357E+03  0.12500000000E+03 0.  0.
         21    1    1    2  503  504 -0.40400412498E+02  0.29302626389E+02  0.83211856012E+01  0.50597226931E+02  0.00000000000E+00 0.  1.
         21    1    1    2  504  501 -0.22318590541E+03 -0.57096780288E+02  0.28499002365E+02  0.23212967029E+03  0.00000000000E+00 0.  1.
<mgrwt>
<rscale>  4 0.29304481E+03</rscale>
<asrwt>0</asrwt>
<pdfrwt beam="1">  1       21 0.42245944E-01 0.29304481E+03</pdfrwt>
<pdfrwt beam="2">  1       21 0.47680473E-01 0.29304481E+03</pdfrwt>
<totfact> 0.21584571E+04</totfact>
</mgrwt>
</event>
<event>
 5    0  0.2437200E+000  0.3034096E+03  0.7546771E-02  0.1083548E+00
         21   -1    0    0  502  501  0.00000000000E+00  0.00000000000E+00  0.73308532975E+03  0.73308532975E+03  0.00000000000E+00 0. -1.
         21   -1    0    0  503  502 -0.00000000000E+00 -0.00000000000E+00 -0.14154422730E+03  0.14154422730E+03  0.00000000000E+00 0. -1.
         25    1    1    2    0    0  0.25738190366E+03  0.10093039680E+03  0.49323309338E+03  0.57908226854E+03  0.12500000000E+03 0.  0.
         21    1    1    2  503  504 -0.23391360240E+03 -0.80737731214E+02  0.82955140983E+02  0.26098986579E+03  0.00000000000E+00 0. -1.
         21    1    1    2  504  501 -0.23468301254E+02 -0.20192665585E+02  0.15352868085E+02  0.34557422728E+02  0.00000000000E+00 0. -1.
<mgrwt>
<rscale>  4 0.30340961E+03</rscale>
<asrwt>0</asrwt>
<pdfrwt beam="1">  1       21 0.11278236E+00 0.30340961E+03</pdfrwt>
<pdfrwt beam="2">  1       21 0.21776035E-01 0.30340961E+03</pdfrwt>
<totfact> 0.11358984E+04</totfact>
</mgrwt>
</event>
<event>
 5    0  0.1856407E+000  0.4490172E+03  0.7546771E-02  0.1028016E+00
         21   -1    0    0  502  501  0.00000000000E+00  0.00000000000E+00  0.31941880340E+03  0.31941880340E+03  0.00000000000E+00 0.  1.
         21   -1    0    0  503  502 -0.00000000000E+00 -0.00000000000E+00 -0.87146260690E+03  0.87146260690E+03  0.00000000000E+00 0.  1.
         25    1    1    2    0    0  0.42223016731E+03 -0.87824254439E+02  0.43992685713E+02  0.45116712009E+03  0.12500000000E+03 0.  0.
         21    1    1    2  503  504 -0.40554025069E+03  0.75219476097E+02 -0.58577700040E+03  0.71641856391E+03  0.00000000000E+00 0.  1.
         21    1    1    2  504  501 -0.16689916619E+02  0.12604778341E+02 -0.10259488815E+02  0.23295726314E+02  0.00000000000E+00 0.  1.
<mgrwt>
<rscale>  4 0.44901716E+03</rscale>
<asrwt>0</asrwt>
<pdfrwt beam="1">  1       21 0.49141355E-01 0.44901716E+03</pdfrwt>
<pdfrwt beam="2">  1       21 0.13407117E+00 0.44901716E+03</pdfrwt>
<totfact> 0.13462575E+03</totfact>
</mgrwt>
</event>
