<event>
 5    0  0.1856407E+000  0.2674732E+03  0.7546771E-02  0.1102735E+00
         21   -1    0    0  502  501  0.00000000000E+00  0.00000000000E+00  0.14425908374E+03  0.14425908374E+03  0.00000000000E+00 0. -1.
         21   -1    0    0  503  502 -0.00000000000E+00 -0.00000000000E+00 -0.71910654095E+03  0.71910654095E+03  0.00000000000E+00 0. -1.
         25    1    1    2    0    0 -0.19690849934E+02 -0.20986407992E+03 -0.17853866844E+03  0.30320243690E+03  0.12500000000E+03 0.  0.
         21    1    1    2  503  504 -0.10130468898E+03 -0.37072022574E+02 -0.18184248742E+03  0.21143241260E+03  0.00000000000E+00 0. -1.
         21    1    1    2  504  501  0.12099553892E+03  0.24693610249E+03 -0.21446630135E+03  0.34873077519E+03  0.00000000000E+00 0. -1.
<mgrwt>
<rscale>  4 0.26747317E+03</rscale>
<asrwt>0</asrwt>
<pdfrwt beam="1">  1       21 0.22193706E-01 0.26747317E+03</pdfrwt>
<pdfrwt beam="2">  1       21 0.11063177E+00 0.26747317E+03</pdfrwt>
<totfact> 0.11687522E+04</totfact>
</mgrwt>
</event>
<event>
 5    0  0.2369600E+000  0.2573399E+03  0.7546771E-02  0.1108752E+00
         21   -1    0    0  502  501  0.00000000000E+00  0.00000000000E+00  0.15553449284E+03  0.15553449284E+03  0.00000000000E+00 0. -1.
         21   -1    0    0  503  502 -0.00000000000E+00 -0.00000000000E+00 -0.70304455123E+03  0.70304455123E+03  0.00000000000E+00 0. -1.
         25    1    1    2    0    0 -0.19332244623E+03 -0.19169800706E+03 -0.12808946426E+03  0.32581222350E+03  0.12500000000E+03 0.  0.
         21    1    1    2  503  504  0.49981699191E+02  0.16724288419E+03 -0.28799635673E+03  0.33676438953E+03  0.00000000000E+00 0. -1.
         21    1    1    2  504  501  0.14334074704E+03  0.24455122875E+02 -0.13142423740E+03  0.19600243104E+03  0.00000000000E+00 0. -1.
<mgrwt>
<rscale>  4 0.25733990E+03</rscale>
<asrwt>0</asrwt>
<pdfrwt beam="1">  1       21 0.23928384E-01 0.25733990E+03</pdfrwt>
<pdfrwt beam="2">  1       21 0.10816070E+00 0.25733990E+03</pdfrwt>
<totfact> 0.10756400E+04</totfact>
</mgrwt>
</event>
<event>
 5    0  0.1856407E+000  0.2392134E+03  0.7546771E-02  0.1120318E+00
         21   -1    0    0  502  501  0.00000000000E+00  0.00000000000E+00  0.13124896747E+03  0.13124896747E+03  0.00000000000E+00 0.  1.
         21   -1    0    0  503  502 -0.00000000000E+00 -0.00000000000E+00 -0.11721298745E+04  0.11721298745E+04  0.00000000000E+00 0.  1.
         25    1    1    2    0    0  0.16531306451E+03  0.11945567477E+03 -0.15648816560E+01  0.23921855360E+03  0.12500000000E+03 0.  0.
         21    1    1    2  503  504 -0.10972282982E+03 -0.16093973815E+02 -0.53414060095E+03  0.54553120622E+03  0.00000000000E+00 0.  1.
         21    1    1    2  504  501 -0.55590234691E+02 -0.10336170095E+03 -0.50517542437E+03  0.51862908211E+03  0.00000000000E+00 0.  1.
<mgrwt>
<rscale>  4 0.23921344E+03</rscale>
<asrwt>0</asrwt>
<pdfrwt beam="1">  1       21 0.20192148E-01 0.23921344E+03</pdfrwt>
<pdfrwt beam="2">  1       21 0.18032768E+00 0.23921344E+03</pdfrwt>
<totfact> 0.39464667E+03</totfact>
</mgrwt>
</event>
<event>
 5    0  0.3199274E+000  0.3173786E+03  0.7546771E-02  0.1076862E+00
         21   -1    0    0  502  501  0.00000000000E+00  0.00000000000E+00  0.47650301628E+03  0.47650301628E+03  0.00000000000E+00 0. -1.
         21   -1    0    0  503  502 -0.00000000000E+00 -0.00000000000E+00 -0.28291961531E+03  0.28291961531E+03  0.00000000000E+00 0. -1.
         25    1    1    2    0    0 -0.26146299702E+03 -0.12938819030E+03  0.29754822083E+03  0.43504499344E+03  0.12500000000E+03 0.  0.
         21    1    1    2  503  504  0.21963172428E+03  0.13132158173E+03 -0.11577402788E+03  0.28086843481E+03  0.00000000000E+00 0. -1.
         21    1    1    2  504  501  0.41831272737E+02 -0.19333914297E+01  0.11809208018E+02  0.43509203339E+02  0.00000000000E+00 0. -1.
<mgrwt>
<rscale>  4 0.31737864E+03</rscale>
<asrwt>0</asrwt>
<pdfrwt beam="1">  1       21 0.73308157E-01 0.31737864E+03</pdfrwt>
<pdfrwt beam="2">  1       21 0.43526095E-01 0.31737864E+03</pdfrwt>
<totfact> 0.79053607E+03</totfact>
</mgrwt>
</event>
<event>
 5    0  0.1856407E+000  0.3335601E+03  0.7546771E-02  0.1069572E+00
         21   -1    0    0  502  501  0.00000000000E+00  0.00000000000E+00  0.42705465225E+03  0.42705465225E+03  0.00000000000E+00 0. -1.
         21   -1    0    0  503  502 -0.00000000000E+00 -0.00000000000E+00 -0.71239359474E+03  0.71239359474E+03  0.00000000000E+00 0. -1.
         25    1    1    2    0    0  0.45024233880E+01 -0.30938132336E+03  0.30517705106E+03  0.45221135275E+03  0.12500000000E+03 0.  0.
         21    1    1    2  503  504 -0.36873240550E+02  0.10575299792E+01 -0.10392276233E+03  0.11027554021E+03  0.00000000000E+00 0. -1.
         21    1    1    2  504  501  0.32370817162E+02  0.30832379338E+03 -0.48659323122E+03  0.57696135403E+03  0.00000000000E+00 0. -1.
<mgrwt>
<rscale>  4 0.33356011E+03</rscale>
<asrwt>0</asrwt>
<pdfrwt beam="1">  1       21 0.65700716E-01 0.33356011E+03</pdfrwt>
<pdfrwt beam="2">  1       21 0.10959901E+00 0.33356011E+03</pdfrwt>
<totfact> 0.12641688E+03</totfact>
</mgrwt>
</event>
<event>
 5    0  0.5956499E+000  0.2659848E+03  0.7546771E-02  0.1103600E+00
         21   -1    0    0  502  501  0.00000000000E+00  0.00000000000E+00  0.41356449163E+03  0.41356449163E+03  0.00000000000E+00 0.  1.
         21   -1    0    0  503  502 -0.00000000000E+00 -0.00000000000E+00 -0.21150140007E+03  0.21150140007E+03  0.00000000000E+00 0. -1.
         25    1    1    2    0    0 -0.17540132939E+03 -0.16169928146E+03  0.25273172881E+03  0.36933807104E+03  0.12500000000E+03 0.  0.
         21    1    1    2  503  504  0.15316546372E+03  0.16704999985E+03 -0.38716493416E+02  0.22992244038E+03  0.00000000000E+00 0. -1.
         21    1    1    2  504  501  0.22235865664E+02 -0.53507183909E+01 -0.11952143838E+02  0.25805380281E+02  0.00000000000E+00 0.  1.
<mgrwt>
<rscale>  4 0.26598484E+03</rscale>
<asrwt>0</asrwt>
<pdfrwt beam="1">  1       21 0.63625306E-01 0.26598484E+03</pdfrwt>
<pdfrwt beam="2">  1       21 0.32538677E-01 0.26598484E+03</pdfrwt>
<totfact> 0.19961341E+04</totfact>
</mgrwt>
</event>
<event>
 5    0  0.2899356E+000  0.3154959E+03  0.7546771E-02  0.1077741E+00
         21   -1    0    0  502  501  0.00000000000E+00  0.00000000000E+00  0.55135459313E+03  0.55135459313E+03  0.00000000000E+00 0. -1.
         21   -1    0    0  503  502 -0.00000000000E+00 -0.00000000000E+00 -0.21853566066E+03  0.21853566066E+03  0.00000000000E+00 0. -1.
         25    1    1    2    0    0  0.29915948833E+03 -0.45017909550E+02  0.35309117532E+02  0.32923357274E+03  0.12500000000E+03 0.  0.
         21    1    1    2  503  504 -0.14659789387E+02  0.28804146817E+02  0.57549674074E+01  0.32828462477E+02  0.00000000000E+00 0. -1.
         21    1    1    2  504  501 -0.28449969895E+03  0.16213762733E+02  0.29175484754E+03  0.40782821857E+03  0.00000000000E+00 0. -1.
<mgrwt>
<rscale>  4 0.31549586E+03</rscale>
<asrwt>0</asrwt>
<pdfrwt beam="1">  1       21 0.84823783E-01 0.31549586E+03</pdfrwt>
<pdfrwt beam="2">  1       21 0.33620871E-01 0.31549586E+03</pdfrwt>
<totfact> 0.95817518E+03</totfact>
</mgrwt>
</event>
<event>
 5    0  0.1856407E+000  0.2801296E+03  0.7546771E-02  0.1095618E+00
         21   -1    0    0  502  501  0.00000000000E+00  0.00000000000E+00  0.70452188318E+03  0.70452188318E+03  0.00000000000E+00 0.  1.
         21   -1    0    0  503  502 -0.00000000000E+00 -0.00000000000E+00 -0.27681423001E+03  0.27681423001E+03  0.00000000000E+00 0.  1.
         25    1    1    2    0    0  0.25319617661E+03  0.64975613292E+02  0.58150584553E+03  0.64969545370E+03  0.12500000000E+03 0.  0.
         21    1    1    2  503  504 -0.81804514755E+02  0.36939828499E+02 -0.21365810812E+02  0.92266068711E+02  0.00000000000E+00 0. -1.
         21    1    1    2  504  501 -0.17139166186E+03 -0.10191544179E+03 -0.13243238154E+03  0.23937459078E+03  0.00000000000E+00 0.  1.
<mgrwt>
<rscale>  4 0.28012964E+03</rscale>
<asrwt>0</asrwt>
<pdfrwt beam="1">  1       21 0.10838798E+00 0.28012964E+03</pdfrwt>
<pdfrwt beam="2">  1       21 0.42586805E-01 0.28012964E+03</pdfrwt>
<totfact> 0.33722721E+03</totfact>
</mgrwt>
</event>
<event>
 5    0  0.1856407E+000  0.2961070E+03  0.7546771E-02  0.1087203E+00
         21   -1    0    0  502  501  0.00000000000E+00  0.00000000000E+00  0.13231096722E+04  0.13231096722E+04  0.00000000000E+00 0.  1.
         21   -1    0    0  503  502 -0.00000000000E+00 -0.00000000000E+00 -0.70519309359E+02  0.70519309359E+02  0.00000000000E+00 0.  1.
         25    1    1    2    0    0  0.71460316623E+02  0.25874265714E+03  0.87454369753E+03  0.92331252475E+03  0.12500000000E+03 0.  0.
         21    1    1    2  503  504 -0.57915844068E+01 -0.94047143167E+02  0.80413760969E+02  0.12387405112E+03  0.00000000000E+00 0.  1.
         21    1    1    2  504  501 -0.65668732216E+02 -0.16469551397E+03  0.29763290436E+03  0.34644240571E+03  0.00000000000E+00 0.  1.
<mgrwt>
<rscale>  4 0.29610697E+03</rscale>
<asrwt>0</asrwt>
<pdfrwt beam="1">  1       21 0.20355532E+00 0.29610697E+03</pdfrwt>
<pdfrwt beam="2">  1       21 0.10849125E-01 0.29610697E+03</pdfrwt>
<totfact> 0.83155253E+03</totfact>
</mgrwt>
</event>
<event>
 5    0  0.1856407E+000  0.3767221E+03  0.7546771E-02  0.1052152E+00
         21   -1    0    0  502  501  0.00000000000E+00  0.00000000000E+00  0.78403598118E+03  0.78403598118E+03  0.00000000000E+00 0.  1.
         21   -1    0    0  503  502 -0.00000000000E+00 -0.00000000000E+00 -0.72947278009E+03  0.72947278009E+03  0.00000000000E+00 0.  1.
         25    1    1    2    0    0 -0.82819881780E+02 -0.34704791496E+03  0.67132953880E+03  0.77046073084E+03  0.12500000000E+03 0.  0.
         21    1    1    2  503  504  0.13254976272E+03  0.31500641874E+03 -0.58057972367E+03  0.67369970979E+03  0.00000000000E+00 0.  1.
         21    1    1    2  504  501 -0.49729880943E+02  0.32041496217E+02 -0.36186614045E+02  0.69348320632E+02  0.00000000000E+00 0.  1.
<mgrwt>
<rscale>  4 0.37672209E+03</rscale>
<asrwt>0</asrwt>
<pdfrwt beam="1">  1       21 0.12062092E+00 0.37672209E+03</pdfrwt>
<pdfrwt beam="2">  1       21 0.11222658E+00 0.37672209E+03</pdfrwt>
<totfact> 0.27802115E+02</totfact>
</mgrwt>
</event>
<event>
 5    0  0.1856407E+000  0.3254302E+03  0.7546771E-02  0.1073177E+00
         21   -1    0    0  502  501  0.00000000000E+00  0.00000000000E+00  0.35530905604E+03  0.35530905604E+03  0.00000000000E+00 0.  1.
         21   -1    0    0  503  502 -0.00000000000E+00 -0.00000000000E+00 -0.58120564100E+03  0.58120564100E+03  0.00000000000E+00 0.  1.
         25    1    1    2    0    0 -0.31323348486E+03  0.24463568670E+03 -0.25797524400E+03  0.49003883699E+03  0.12500000000E+03 0.  0.
         21    1    1    2  503  504  0.23290659401E+03 -0.14921739463E+03  0.11191010926E+03  0.29838764208E+03  0.00000000000E+00 0.  1.
         21    1    1    2  504  501  0.80326890846E+02 -0.95418292077E+02 -0.79831450215E+02  0.14808821796E+03  0.00000000000E+00 0.  1.
<mgrwt>
<rscale>  4 0.32543020E+03</rscale>
<asrwt>0</asrwt>
<pdfrwt beam="1">  1       21 0.54662932E-01 0.32543020E+03</pdfrwt>
<pdfrwt beam="2">  1       21 0.89416252E-01 0.32543020E+03</pdfrwt>
<totfact> 0.30896478E+03</totfact>
</mgrwt>
</event>
