<event>
 4    0  0.1005289E-001  0.2684521E+03  0.7546771E-02  0.1102169E+00
         21   -1    0    0  503  501  0.00000000000E+00  0.00000000000E+00  0.14124473280E+03  0.14124473280E+03  0.00000000000E+00 0.  1.
         21   -1    0    0  501  502 -0.00000000000E+00 -0.00000000000E+00 -0.12416624133E+04  0.12416624133E+04  0.00000000000E+00 0.  1.
         25    1    1    2    0    0 -0.17818859157E+03  0.15713160574E+03 -0.11130806731E+04  0.11449956771E+04  0.12500000000E+03 0.  0.
         21    1    1    2  503  502  0.17818859157E+03 -0.15713160574E+03  0.12662992658E+02  0.23791146897E+03  0.00000000000E+00 0.  1.
<mgrwt>
<rscale>  3 0.26845207E+03</rscale>
<asrwt>0</asrwt>
<pdfrwt beam="1">  1       21 0.21729959E-01 0.26845207E+03</pdfrwt>
<pdfrwt beam="2">  1       21 0.19102499E+00 0.26845207E+03</pdfrwt>
<totfact> 0.28470384E+03</totfact>
</mgrwt>
</event>
<event>
 4    0  0.1246653E-001  0.4615249E+03  0.7546771E-02  0.1024340E+00
         21   -1    0    0  503  501  0.00000000000E+00  0.00000000000E+00  0.83377298232E+03  0.83377298232E+03  0.00000000000E+00 0.  1.
         21   -1    0    0  501  502 -0.00000000000E+00 -0.00000000000E+00 -0.54603390946E+03  0.54603390946E+03  0.00000000000E+00 0. -1.
         25    1    1    2    0    0 -0.39095344929E+03 -0.21103474907E+03 -0.36624729663E+03  0.58918787082E+03  0.12500000000E+03 0.  0.
         21    1    1    2  503  502  0.39095344929E+03  0.21103474907E+03  0.65398636949E+03  0.79061902096E+03  0.00000000000E+00 0.  1.
<mgrwt>
<rscale>  3 0.46152493E+03</rscale>
<asrwt>0</asrwt>
<pdfrwt beam="1">  1       21 0.12827277E+00 0.46152493E+03</pdfrwt>
<pdfrwt beam="2">  1       21 0.84005217E-01 0.46152493E+03</pdfrwt>
<totfact> 0.45655505E+02</totfact>
</mgrwt>
</event>
<event>
 4    0  0.1005289E-001  0.3009611E+03  0.7546771E-02  0.1084761E+00
         21   -1    0    0  503  501  0.00000000000E+00  0.00000000000E+00  0.11111474633E+03  0.11111474633E+03  0.00000000000E+00 0. -1.
         21   -1    0    0  501  502 -0.00000000000E+00 -0.00000000000E+00 -0.23288640134E+04  0.23288640134E+04  0.00000000000E+00 0.  1.
         25    1    1    2    0    0  0.24604399990E+03 -0.12006219983E+03 -0.21319302101E+04  0.21530685085E+04  0.12500000000E+03 0.  0.
         21    1    1    2  503  502 -0.24604399990E+03  0.12006219983E+03 -0.85819057012E+02  0.28691025123E+03  0.00000000000E+00 0. -1.
<mgrwt>
<rscale>  3 0.30096110E+03</rscale>
<asrwt>0</asrwt>
<pdfrwt beam="1">  1       21 0.17094577E-01 0.30096110E+03</pdfrwt>
<pdfrwt beam="2">  1       21 0.35828676E+00 0.30096110E+03</pdfrwt>
<totfact> 0.42176555E+02</totfact>
</mgrwt>
</event>
<event>
 4    0  0.1342326E-001  0.3046758E+03  0.7546771E-02  0.1082926E+00
         21   -1    0    0  502  501  0.00000000000E+00  0.00000000000E+00  0.12211955986E+03  0.12211955986E+03  0.00000000000E+00 0.  1.
         21   -1    0    0  503  502 -0.00000000000E+00 -0.00000000000E+00 -0.92504092050E+03  0.92504092050E+03  0.00000000000E+00 0.  1.
         25    1    1    2    0    0 -0.24634944449E+03 -0.12850795366E+03 -0.67641088664E+03  0.74186186755E+03  0.12500000000E+03 0.  0.
         21    1    1    2  503  501  0.24634944449E+03  0.12850795366E+03 -0.12651047400E+03  0.30529861282E+03  0.00000000000E+00 0.  1.
<mgrwt>
<rscale>  3 0.30467580E+03</rscale>
<asrwt>0</asrwt>
<pdfrwt beam="1">  1       21 0.18787624E-01 0.30467580E+03</pdfrwt>
<pdfrwt beam="2">  1       21 0.14231399E+00 0.30467580E+03</pdfrwt>
<totfact> 0.82965619E+03</totfact>
</mgrwt>
</event>
<event>
 4    0  0.1005289E-001  0.2364882E+03  0.7546771E-02  0.1122155E+00
         21   -1    0    0  503  501  0.00000000000E+00  0.00000000000E+00  0.57105475075E+03  0.57105475075E+03  0.00000000000E+00 0.  1.
         21   -1    0    0  501  502 -0.00000000000E+00 -0.00000000000E+00 -0.46428769553E+03  0.46428769553E+03  0.00000000000E+00 0.  1.
         25    1    1    2    0    0  0.56322227075E+02  0.19269012406E+03 -0.41424253037E+03  0.47699428837E+03  0.12500000000E+03 0.  0.
         21    1    1    2  503  502 -0.56322227075E+02 -0.19269012406E+03  0.52100958559E+03  0.55834815791E+03  0.00000000000E+00 0.  1.
<mgrwt>
<rscale>  3 0.23648822E+03</rscale>
<asrwt>0</asrwt>
<pdfrwt beam="1">  1       21 0.87854577E-01 0.23648822E+03</pdfrwt>
<pdfrwt beam="2">  1       21 0.71428877E-01 0.23648822E+03</pdfrwt>
<totfact> 0.18966882E+03</totfact>
</mgrwt>
</event>
<event>
 4    0  0.1005289E-001  0.2635742E+03  0.7546771E-02  0.1105015E+00
         21   -1    0    0  502  501  0.00000000000E+00  0.00000000000E+00  0.67848979008E+03  0.67848979008E+03  0.00000000000E+00 0. -1.
         21   -1    0    0  503  502 -0.00000000000E+00 -0.00000000000E+00 -0.61749414280E+03  0.61749414280E+03  0.00000000000E+00 0. -1.
         25    1    1    2    0    0  0.39498514302E+02 -0.22866181692E+03 -0.56766109488E+03  0.62586777980E+03  0.12500000000E+03 0.  0.
         21    1    1    2  503  501 -0.39498514302E+02  0.22866181692E+03  0.62865674217E+03  0.67011615308E+03  0.00000000000E+00 0. -1.
<mgrwt>
<rscale>  3 0.26357420E+03</rscale>
<asrwt>0</asrwt>
<pdfrwt beam="1">  1       21 0.10438304E+00 0.26357420E+03</pdfrwt>
<pdfrwt beam="2">  1       21 0.94999099E-01 0.26357420E+03</pdfrwt>
<totfact> 0.64276821E+02</totfact>
</mgrwt>
</event>
<event>
 4    0  0.1487962E-001  0.2886134E+03  0.7546771E-02  0.1091075E+00
         21   -1    0    0  503  501  0.00000000000E+00  0.00000000000E+00  0.86495140989E+03  0.86495140989E+03  0.00000000000E+00 0.  1.
         21   -1    0    0  501  502 -0.00000000000E+00 -0.00000000000E+00 -0.21506688916E+03  0.21506688916E+03  0.00000000000E+00 0. -1.
         25    1    1    2    0    0  0.36772823663E+02 -0.25752758097E+03 -0.84656486940E+02  0.30077303120E+03  0.12500000000E+03 0.  0.
         21    1    1    2  503  502 -0.36772823663E+02  0.25752758097E+03  0.73454100767E+03  0.77924526785E+03  0.00000000000E+00 0.  1.
<mgrwt>
<rscale>  3 0.28861340E+03</rscale>
<asrwt>0</asrwt>
<pdfrwt beam="1">  1       21 0.13306945E+00 0.28861340E+03</pdfrwt>
<pdfrwt beam="2">  1       21 0.33087214E-01 0.28861340E+03</pdfrwt>
<totfact> 0.33438777E+03</totfact>
</mgrwt>
</event>
<event>
 4    0  0.1215233E-001  0.2528636E+03  0.7546771E-02  0.1111508E+00
         21   -1    0    0  502  501  0.00000000000E+00  0.00000000000E+00  0.16341324893E+03  0.16341324893E+03  0.00000000000E+00 0. -1.
         21   -1    0    0  503  502 -0.00000000000E+00 -0.00000000000E+00 -0.63538237432E+03  0.63538237432E+03  0.00000000000E+00 0.  1.
         25    1    1    2    0    0  0.25172358957E+02 -0.21836063531E+03 -0.51599573441E+03  0.57462301785E+03  0.12500000000E+03 0.  0.
         21    1    1    2  503  501 -0.25172358957E+02  0.21836063531E+03  0.44026609026E+02  0.22417260540E+03  0.00000000000E+00 0. -1.
<mgrwt>
<rscale>  3 0.25286363E+03</rscale>
<asrwt>0</asrwt>
<pdfrwt beam="1">  1       21 0.25140500E-01 0.25286363E+03</pdfrwt>
<pdfrwt beam="2">  1       21 0.97751133E-01 0.25286363E+03</pdfrwt>
<totfact> 0.12514593E+04</totfact>
</mgrwt>
</event>
<event>
 4    0  0.1005289E-001  0.2360526E+03  0.7546771E-02  0.1122451E+00
         21   -1    0    0  503  501  0.00000000000E+00  0.00000000000E+00  0.31752339468E+03  0.31752339468E+03  0.00000000000E+00 0. -1.
         21   -1    0    0  501  502 -0.00000000000E+00 -0.00000000000E+00 -0.22172580615E+03  0.22172580615E+03  0.00000000000E+00 0.  1.
         25    1    1    2    0    0  0.84088550454E+02  0.18172771319E+03 -0.10258287421E+03  0.25737927683E+03  0.12500000000E+03 0.  0.
         21    1    1    2  503  502 -0.84088550454E+02 -0.18172771319E+03  0.19838046275E+03  0.28186992401E+03  0.00000000000E+00 0. -1.
<mgrwt>
<rscale>  3 0.23605263E+03</rscale>
<asrwt>0</asrwt>
<pdfrwt beam="1">  1       21 0.48849753E-01 0.23605263E+03</pdfrwt>
<pdfrwt beam="2">  1       21 0.34111662E-01 0.23605263E+03</pdfrwt>
<totfact> 0.32398043E+04</totfact>
</mgrwt>
</event>
<event>
 4    0  0.1048707E-001  0.2812700E+03  0.7546771E-02  0.1094997E+00
         21   -1    0    0  502  501  0.00000000000E+00  0.00000000000E+00  0.93602680579E+03  0.93602680579E+03  0.00000000000E+00 0. -1.
         21   -1    0    0  503  502 -0.00000000000E+00 -0.00000000000E+00 -0.14388017765E+03  0.14388017765E+03  0.00000000000E+00 0. -1.
         25    1    1    2    0    0  0.17390026696E+03 -0.18233620253E+03  0.36829446719E+02  0.28367093920E+03  0.12500000000E+03 0.  0.
         21    1    1    2  503  501 -0.17390026696E+03  0.18233620253E+03  0.75531718143E+03  0.79623604425E+03  0.00000000000E+00 0. -1.
<mgrwt>
<rscale>  3 0.28126997E+03</rscale>
<asrwt>0</asrwt>
<pdfrwt beam="1">  1       21 0.14400412E+00 0.28126997E+03</pdfrwt>
<pdfrwt beam="2">  1       21 0.22135412E-01 0.28126997E+03</pdfrwt>
<totfact> 0.59720772E+03</totfact>
</mgrwt>
</event>
<event>
 4    0  0.1540606E-001  0.2606474E+03  0.7546771E-02  0.1106755E+00
         21   -1    0    0  502  501  0.00000000000E+00  0.00000000000E+00  0.32059016021E+03  0.32059016021E+03  0.00000000000E+00 0.  1.
         21   -1    0    0  503  502 -0.00000000000E+00 -0.00000000000E+00 -0.23710094753E+03  0.23710094753E+03  0.00000000000E+00 0.  1.
         25    1    1    2    0    0  0.22822180434E+03  0.15062989242E+02 -0.84395842767E+02  0.27397033398E+03  0.12500000000E+03 0.  0.
         21    1    1    2  503  501 -0.22822180434E+03 -0.15062989242E+02  0.16788505545E+03  0.28372077377E+03  0.00000000000E+00 0.  1.
<mgrwt>
<rscale>  3 0.26064744E+03</rscale>
<asrwt>0</asrwt>
<pdfrwt beam="1">  1       21 0.49321563E-01 0.26064744E+03</pdfrwt>
<pdfrwt beam="2">  1       21 0.36477069E-01 0.26064744E+03</pdfrwt>
<totfact> 0.27467964E+04</totfact>
</mgrwt>
</event>
<event>
 4    0  0.1178009E-001  0.2737279E+03  0.7546771E-02  0.1099165E+00
         21   -1    0    0  503  501  0.00000000000E+00  0.00000000000E+00  0.14783935543E+04  0.14783935543E+04  0.00000000000E+00 0. -1.
         21   -1    0    0  501  502 -0.00000000000E+00 -0.00000000000E+00 -0.63314216972E+02  0.63314216972E+02  0.00000000000E+00 0. -1.
         25    1    1    2    0    0  0.24169025725E+03 -0.29795527278E+02  0.32573663426E+03  0.42547774183E+03  0.12500000000E+03 0.  0.
         21    1    1    2  503  502 -0.24169025725E+03  0.29795527278E+02  0.10893427030E+04  0.11162300294E+04  0.00000000000E+00 0. -1.
<mgrwt>
<rscale>  3 0.27372788E+03</rscale>
<asrwt>0</asrwt>
<pdfrwt beam="1">  1       21 0.22744514E+00 0.27372788E+03</pdfrwt>
<pdfrwt beam="2">  1       21 0.97406499E-02 0.27372788E+03</pdfrwt>
<totfact> 0.72192913E+03</totfact>
</mgrwt>
</event>
<event>
 4    0  0.1142144E-001  0.2484482E+03  0.7546771E-02  0.1114289E+00
         21   -1    0    0  502  501  0.00000000000E+00  0.00000000000E+00  0.21329208255E+03  0.21329208255E+03  0.00000000000E+00 0.  1.
         21   -1    0    0  503  502 -0.00000000000E+00 -0.00000000000E+00 -0.93014007241E+03  0.93014007241E+03  0.00000000000E+00 0.  1.
         25    1    1    2    0    0  0.18516729267E+03  0.10869501615E+03 -0.85349772256E+03  0.88892344734E+03  0.12500000000E+03 0.  0.
         21    1    1    2  503  501 -0.18516729267E+03 -0.10869501615E+03  0.13664973270E+03  0.25450870762E+03  0.00000000000E+00 0.  1.
<mgrwt>
<rscale>  3 0.24844825E+03</rscale>
<asrwt>0</asrwt>
<pdfrwt beam="1">  1       21 0.32814167E-01 0.24844825E+03</pdfrwt>
<pdfrwt beam="2">  1       21 0.14309847E+00 0.24844825E+03</pdfrwt>
<totfact> 0.28886110E+03</totfact>
</mgrwt>
</event>
<event>
 4    0  0.1081769E-001  0.2466746E+03  0.7546771E-02  0.1115425E+00
         21   -1    0    0  502  501  0.00000000000E+00  0.00000000000E+00  0.19400437148E+04  0.19400437148E+04  0.00000000000E+00 0. -1.
         21   -1    0    0  503  502 -0.00000000000E+00 -0.00000000000E+00 -0.27835604356E+02  0.27835604356E+02  0.00000000000E+00 0. -1.
         25    1    1    2    0    0 -0.38591571523E+01  0.21262278327E+03  0.87562477180E+03  0.90970714082E+03  0.12500000000E+03 0.  0.
         21    1    1    2  503  501  0.38591571523E+01 -0.21262278327E+03  0.10365833386E+04  0.10581721783E+04  0.00000000000E+00 0. -1.
<mgrwt>
<rscale>  3 0.24667457E+03</rscale>
<asrwt>0</asrwt>
<pdfrwt beam="1">  1       21 0.29846816E+00 0.24667457E+03</pdfrwt>
<pdfrwt beam="2">  1       21 0.42824022E-02 0.24667457E+03</pdfrwt>
<totfact> 0.11568130E+04</totfact>
</mgrwt>
</event>
<event>
 4    0  0.1613789E-001  0.2678335E+03  0.7546771E-02  0.1102526E+00
         21   -1    0    0  503  501  0.00000000000E+00  0.00000000000E+00  0.53248035075E+03  0.53248035075E+03  0.00000000000E+00 0.  1.
         21   -1    0    0  501  502 -0.00000000000E+00 -0.00000000000E+00 -0.14981584641E+03  0.14981584641E+03  0.00000000000E+00 0.  1.
         25    1    1    2    0    0  0.14861586864E+03 -0.18445358675E+03  0.47714076073E+02  0.27205042755E+03  0.12500000000E+03 0.  0.
         21    1    1    2  503  502 -0.14861586864E+03  0.18445358675E+03  0.33495042827E+03  0.41024576960E+03  0.00000000000E+00 0.  1.
<mgrwt>
<rscale>  3 0.26783353E+03</rscale>
<asrwt>0</asrwt>
<pdfrwt beam="1">  1       21 0.81920053E-01 0.26783353E+03</pdfrwt>
<pdfrwt beam="2">  1       21 0.23048592E-01 0.26783353E+03</pdfrwt>
<totfact> 0.22153370E+04</totfact>
</mgrwt>
</event>
<event>
 4    0  0.1005289E-001  0.2370475E+03  0.7546771E-02  0.1121775E+00
         21   -1    0    0  503  501  0.00000000000E+00  0.00000000000E+00  0.43720429083E+02  0.43720429083E+02  0.00000000000E+00 0. -1.
         21   -1    0    0  501  502 -0.00000000000E+00 -0.00000000000E+00 -0.21086611696E+04  0.21086611696E+04  0.00000000000E+00 0. -1.
         25    1    1    2    0    0  0.20018966787E+03 -0.22149564841E+02 -0.18195131596E+04  0.18348895455E+04  0.12500000000E+03 0.  0.
         21    1    1    2  503  502 -0.20018966787E+03  0.22149564841E+02 -0.24542758095E+03  0.31749205319E+03  0.00000000000E+00 0. -1.
<mgrwt>
<rscale>  3 0.23704748E+03</rscale>
<asrwt>0</asrwt>
<pdfrwt beam="1">  1       21 0.67262200E-02 0.23704748E+03</pdfrwt>
<pdfrwt beam="2">  1       21 0.32440941E+00 0.23704748E+03</pdfrwt>
<totfact> 0.38022239E+03</totfact>
</mgrwt>
</event>
<event>
 4    0  0.1005289E-001  0.4979867E+03  0.7546771E-02  0.1014306E+00
         21   -1    0    0  502  501  0.00000000000E+00  0.00000000000E+00  0.58088559211E+03  0.58088559211E+03  0.00000000000E+00 0. -1.
         21   -1    0    0  503  502 -0.00000000000E+00 -0.00000000000E+00 -0.50342815958E+03  0.50342815958E+03  0.00000000000E+00 0.  1.
         25    1    1    2    0    0 -0.48054939091E+03  0.37920950906E+02 -0.19004944136E+03  0.53301923585E+03  0.12500000000E+03 0.  0.
         21    1    1    2  503  501  0.48054939091E+03 -0.37920950906E+02  0.26750687388E+03  0.55129451584E+03  0.00000000000E+00 0. -1.
<mgrwt>
<rscale>  3 0.49798666E+03</rscale>
<asrwt>0</asrwt>
<pdfrwt beam="1">  1       21 0.89367014E-01 0.49798666E+03</pdfrwt>
<pdfrwt beam="2">  1       21 0.77450486E-01 0.49798666E+03</pdfrwt>
<totfact> 0.13282631E+03</totfact>
</mgrwt>
</event>
<event>
 4    0  0.1005289E-001  0.3122431E+03  0.7546771E-02  0.1079276E+00
         21   -1    0    0  503  501  0.00000000000E+00  0.00000000000E+00  0.10543155203E+03  0.10543155203E+03  0.00000000000E+00 0. -1.
         21   -1    0    0  501  502 -0.00000000000E+00 -0.00000000000E+00 -0.11884804129E+04  0.11884804129E+04  0.00000000000E+00 0.  1.
         25    1    1    2    0    0 -0.24798324131E+03 -0.14274119539E+03 -0.90393316619E+03  0.95634246260E+03  0.12500000000E+03 0.  0.
         21    1    1    2  503  502  0.24798324131E+03  0.14274119539E+03 -0.17911569472E+03  0.33756950237E+03  0.00000000000E+00 0. -1.
<mgrwt>
<rscale>  3 0.31224307E+03</rscale>
<asrwt>0</asrwt>
<pdfrwt beam="1">  1       21 0.16220238E-01 0.31224307E+03</pdfrwt>
<pdfrwt beam="2">  1       21 0.18284315E+00 0.31224307E+03</pdfrwt>
<totfact> 0.54453062E+03</totfact>
</mgrwt>
</event>
<event>
 4    0  0.1005289E-001  0.2623245E+03  0.7546771E-02  0.1105755E+00
         21   -1    0    0  502  501  0.00000000000E+00  0.00000000000E+00  0.46967593081E+02  0.46967593081E+02  0.00000000000E+00 0. -1.
         21   -1    0    0  503  502 -0.00000000000E+00 -0.00000000000E+00 -0.14538392352E+04  0.14538392352E+04  0.00000000000E+00 0. -1.
         25    1    1    2    0    0 -0.22886665073E+03 -0.28446741767E+02 -0.49489626217E+03  0.56012183607E+03  0.12500000000E+03 0.  0.
         21    1    1    2  503  501  0.22886665073E+03  0.28446741767E+02 -0.91197537990E+03  0.94068499216E+03  0.00000000000E+00 0. -1.
<mgrwt>
<rscale>  3 0.26232453E+03</rscale>
<asrwt>0</asrwt>
<pdfrwt beam="1">  1       21 0.72257833E-02 0.26232453E+03</pdfrwt>
<pdfrwt beam="2">  1       21 0.22366758E+00 0.26232453E+03</pdfrwt>
<totfact> 0.12980719E+04</totfact>
</mgrwt>
</event>
<event>
 4    0  0.1364183E-001  0.3539285E+03  0.7546771E-02  0.1061014E+00
         21   -1    0    0  502  501  0.00000000000E+00  0.00000000000E+00  0.13536220501E+03  0.13536220501E+03  0.00000000000E+00 0. -1.
         21   -1    0    0  503  502 -0.00000000000E+00 -0.00000000000E+00 -0.90641522352E+03  0.90641522352E+03  0.00000000000E+00 0. -1.
         25    1    1    2    0    0  0.33062696825E+03 -0.18061298992E+02 -0.50673145891E+03  0.61809560272E+03  0.12500000000E+03 0.  0.
         21    1    1    2  503  501 -0.33062696825E+03  0.18061298992E+02 -0.26432155960E+03  0.42368182581E+03  0.00000000000E+00 0. -1.
<mgrwt>
<rscale>  3 0.35392853E+03</rscale>
<asrwt>0</asrwt>
<pdfrwt beam="1">  1       21 0.20824955E-01 0.35392853E+03</pdfrwt>
<pdfrwt beam="2">  1       21 0.13944850E+00 0.35392853E+03</pdfrwt>
<totfact> 0.70448960E+03</totfact>
</mgrwt>
</event>
<event>
 4    0  0.1524249E-001  0.2564766E+03  0.7546771E-02  0.1109279E+00
         21   -1    0    0  503  501  0.00000000000E+00  0.00000000000E+00  0.39262383138E+03  0.39262383138E+03  0.00000000000E+00 0.  1.
         21   -1    0    0  501  502 -0.00000000000E+00 -0.00000000000E+00 -0.29786515578E+03  0.29786515578E+03  0.00000000000E+00 0. -1.
         25    1    1    2    0    0  0.21957415178E+03 -0.44073154626E+02 -0.19648937378E+03  0.32309182146E+03  0.12500000000E+03 0.  0.
         21    1    1    2  503  502 -0.21957415178E+03  0.44073154626E+02  0.29124804939E+03  0.36739716569E+03  0.00000000000E+00 0.  1.
<mgrwt>
<rscale>  3 0.25647661E+03</rscale>
<asrwt>0</asrwt>
<pdfrwt beam="1">  1       21 0.60403666E-01 0.25647661E+03</pdfrwt>
<pdfrwt beam="2">  1       21 0.45825409E-01 0.25647661E+03</pdfrwt>
<totfact> 0.11220106E+04</totfact>
</mgrwt>
</event>
<event>
 4    0  0.1285265E-001  0.2725363E+03  0.7546771E-02  0.1099837E+00
         21   -1    0    0  503  501  0.00000000000E+00  0.00000000000E+00  0.27719313049E+03  0.27719313049E+03  0.00000000000E+00 0. -1.
         21   -1    0    0  501  502 -0.00000000000E+00 -0.00000000000E+00 -0.24973420306E+03  0.24973420306E+03  0.00000000000E+00 0. -1.
         25    1    1    2    0    0 -0.17602331198E+03 -0.16633354198E+03  0.69181386611E+02  0.28117986735E+03  0.12500000000E+03 0.  0.
         21    1    1    2  503  502  0.17602331198E+03  0.16633354198E+03 -0.41722459174E+02  0.24574746621E+03  0.00000000000E+00 0. -1.
<mgrwt>
<rscale>  3 0.27253633E+03</rscale>
<asrwt>0</asrwt>
<pdfrwt beam="1">  1       21 0.42645097E-01 0.27253633E+03</pdfrwt>
<pdfrwt beam="2">  1       21 0.38420647E-01 0.27253633E+03</pdfrwt>
<totfact> 0.33291241E+04</totfact>
</mgrwt>
</event>
<event>
 4    0  0.1619939E-001  0.2782782E+03  0.7546771E-02  0.1096633E+00
         21   -1    0    0  502  501  0.00000000000E+00  0.00000000000E+00  0.43031494374E+03  0.43031494374E+03  0.00000000000E+00 0.  1.
         21   -1    0    0  503  502 -0.00000000000E+00 -0.00000000000E+00 -0.16302544577E+03  0.16302544577E+03  0.00000000000E+00 0.  1.
         25    1    1    2    0    0 -0.56882370748E+02 -0.24202925750E+03  0.17162873860E+03  0.32694829791E+03  0.12500000000E+03 0.  0.
         21    1    1    2  503  501  0.56882370748E+02  0.24202925750E+03  0.95660759370E+02  0.26639209161E+03  0.00000000000E+00 0.  1.
<mgrwt>
<rscale>  3 0.27827822E+03</rscale>
<asrwt>0</asrwt>
<pdfrwt beam="1">  1       21 0.66202299E-01 0.27827822E+03</pdfrwt>
<pdfrwt beam="2">  1       21 0.25080838E-01 0.27827822E+03</pdfrwt>
<totfact> 0.30267896E+04</totfact>
</mgrwt>
</event>
<event>
 4    0  0.1452823E-001  0.2507042E+03  0.7546771E-02  0.1112861E+00
         21   -1    0    0  503  501  0.00000000000E+00  0.00000000000E+00  0.97967686176E+02  0.97967686176E+02  0.00000000000E+00 0. -1.
         21   -1    0    0  501  502 -0.00000000000E+00 -0.00000000000E+00 -0.61391412678E+03  0.61391412678E+03  0.00000000000E+00 0. -1.
         25    1    1    2    0    0 -0.17339209905E+03  0.13100674033E+03 -0.38096093380E+03  0.45605243022E+03  0.12500000000E+03 0.  0.
         21    1    1    2  503  502  0.17339209905E+03 -0.13100674033E+03 -0.13498550680E+03  0.25582938274E+03  0.00000000000E+00 0. -1.
<mgrwt>
<rscale>  3 0.25070418E+03</rscale>
<asrwt>0</asrwt>
<pdfrwt beam="1">  1       21 0.15071952E-01 0.25070418E+03</pdfrwt>
<pdfrwt beam="2">  1       21 0.94448324E-01 0.25070418E+03</pdfrwt>
<totfact> 0.35475346E+04</totfact>
</mgrwt>
</event>
<event>
 4    0  0.1418203E-001  0.3870331E+03  0.7546771E-02  0.1048364E+00
         21   -1    0    0  502  501  0.00000000000E+00  0.00000000000E+00  0.23154331273E+03  0.23154331273E+03  0.00000000000E+00 0.  1.
         21   -1    0    0  503  502 -0.00000000000E+00 -0.00000000000E+00 -0.73257728411E+03  0.73257728411E+03  0.00000000000E+00 0.  1.
         25    1    1    2    0    0 -0.33643143504E+03  0.14485685116E+03 -0.45120008571E+03  0.59445448536E+03  0.12500000000E+03 0.  0.
         21    1    1    2  503  501  0.33643143504E+03 -0.14485685116E+03 -0.49833885669E+02  0.36966611148E+03  0.00000000000E+00 0.  1.
<mgrwt>
<rscale>  3 0.38703310E+03</rscale>
<asrwt>0</asrwt>
<pdfrwt beam="1">  1       21 0.35622048E-01 0.38703310E+03</pdfrwt>
<pdfrwt beam="2">  1       21 0.11270420E+00 0.38703310E+03</pdfrwt>
<totfact> 0.41844536E+03</totfact>
</mgrwt>
</event>
<event>
 4    0  0.1224105E-001  0.2445731E+03  0.7546771E-02  0.1116783E+00
         21   -1    0    0  503  501  0.00000000000E+00  0.00000000000E+00  0.50002042584E+02  0.50002042584E+02  0.00000000000E+00 0.  1.
         21   -1    0    0  501  502 -0.00000000000E+00 -0.00000000000E+00 -0.12449366263E+04  0.12449366263E+04  0.00000000000E+00 0.  1.
         25    1    1    2    0    0 -0.16741593988E+03 -0.12713332056E+03 -0.90076275812E+03  0.93337533958E+03  0.12500000000E+03 0.  0.
         21    1    1    2  503  502  0.16741593988E+03  0.12713332056E+03 -0.29417182561E+03  0.36156332931E+03  0.00000000000E+00 0.  1.
<mgrwt>
<rscale>  3 0.24457305E+03</rscale>
<asrwt>0</asrwt>
<pdfrwt beam="1">  1       21 0.76926222E-02 0.24457305E+03</pdfrwt>
<pdfrwt beam="2">  1       21 0.19152870E+00 0.24457305E+03</pdfrwt>
<totfact> 0.18893034E+04</totfact>
</mgrwt>
</event>
<event>
 4    0  0.1236707E-001  0.2456431E+03  0.7546771E-02  0.1116090E+00
         21   -1    0    0  502  501  0.00000000000E+00  0.00000000000E+00  0.12910713838E+04  0.12910713838E+04  0.00000000000E+00 0.  1.
         21   -1    0    0  503  502 -0.00000000000E+00 -0.00000000000E+00 -0.61949273894E+02  0.61949273894E+02  0.00000000000E+00 0.  1.
         25    1    1    2    0    0 -0.12077439604E+03  0.17357736409E+03  0.24685467361E+03  0.34824960294E+03  0.12500000000E+03 0.  0.
         21    1    1    2  503  501  0.12077439604E+03 -0.17357736409E+03  0.98226743625E+03  0.10047710547E+04  0.00000000000E+00 0.  1.
<mgrwt>
<rscale>  3 0.24564315E+03</rscale>
<asrwt>0</asrwt>
<pdfrwt beam="1">  1       21 0.19862635E+00 0.24564315E+03</pdfrwt>
<pdfrwt beam="2">  1       21 0.95306585E-02 0.24564315E+03</pdfrwt>
<totfact> 0.11633832E+04</totfact>
</mgrwt>
</event>
<event>
 4    0  0.1571435E-001  0.2484254E+03  0.7546771E-02  0.1114304E+00
         21   -1    0    0  503  501  0.00000000000E+00  0.00000000000E+00  0.25962730159E+03  0.25962730159E+03  0.00000000000E+00 0.  1.
         21   -1    0    0  501  502 -0.00000000000E+00 -0.00000000000E+00 -0.20707566533E+03  0.20707566533E+03  0.00000000000E+00 0.  1.
         25    1    1    2    0    0 -0.67526834582E+01 -0.21458001115E+03  0.40246434826E+02  0.25166437061E+03  0.12500000000E+03 0.  0.
         21    1    1    2  503  502  0.67526834582E+01  0.21458001115E+03  0.12305201434E+02  0.21503859631E+03  0.00000000000E+00 0.  1.
<mgrwt>
<rscale>  3 0.24842540E+03</rscale>
<asrwt>0</asrwt>
<pdfrwt beam="1">  1       21 0.39942662E-01 0.24842540E+03</pdfrwt>
<pdfrwt beam="2">  1       21 0.31857795E-01 0.24842540E+03</pdfrwt>
<totfact> 0.55871534E+04</totfact>
</mgrwt>
</event>
<event>
 4    0  0.1432721E-001  0.2721784E+03  0.7546771E-02  0.1100039E+00
         21   -1    0    0  502  501  0.00000000000E+00  0.00000000000E+00  0.61434085446E+03  0.61434085446E+03  0.00000000000E+00 0.  1.
         21   -1    0    0  503  502 -0.00000000000E+00 -0.00000000000E+00 -0.10754999658E+03  0.10754999658E+03  0.00000000000E+00 0.  1.
         25    1    1    2    0    0 -0.19422503186E+03  0.14398868104E+03  0.26010533725E+03  0.37647827259E+03  0.12500000000E+03 0.  0.
         21    1    1    2  503  501  0.19422503186E+03 -0.14398868104E+03  0.24668552063E+03  0.34541257846E+03  0.00000000000E+00 0.  1.
<mgrwt>
<rscale>  3 0.27217844E+03</rscale>
<asrwt>0</asrwt>
<pdfrwt beam="1">  1       21 0.94513976E-01 0.27217844E+03</pdfrwt>
<pdfrwt beam="2">  1       21 0.16546154E-01 0.27217844E+03</pdfrwt>
<totfact> 0.29550452E+04</totfact>
</mgrwt>
</event>
<event>
 4    0  0.1460179E-001  0.2538444E+03  0.7546771E-02  0.1110899E+00
         21   -1    0    0  503  501  0.00000000000E+00  0.00000000000E+00  0.35249827059E+03  0.35249827059E+03  0.00000000000E+00 0. -1.
         21   -1    0    0  501  502 -0.00000000000E+00 -0.00000000000E+00 -0.20032538912E+03  0.20032538912E+03  0.00000000000E+00 0. -1.
         25    1    1    2    0    0  0.15238678977E+03  0.15996952567E+03 -0.43682817751E+02  0.25757556446E+03  0.12500000000E+03 0.  0.
         21    1    1    2  503  502 -0.15238678977E+03 -0.15996952567E+03  0.19585569922E+03  0.29524809526E+03  0.00000000000E+00 0. -1.
<mgrwt>
<rscale>  3 0.25384441E+03</rscale>
<asrwt>0</asrwt>
<pdfrwt beam="1">  1       21 0.54230503E-01 0.25384441E+03</pdfrwt>
<pdfrwt beam="2">  1       21 0.30819291E-01 0.25384441E+03</pdfrwt>
<totfact> 0.31526038E+04</totfact>
</mgrwt>
</event>
<event>
 4    0  0.1005289E-001  0.3570968E+03  0.7546771E-02  0.1059739E+00
         21   -1    0    0  503  501  0.00000000000E+00  0.00000000000E+00  0.16828193263E+04  0.16828193263E+04  0.00000000000E+00 0. -1.
         21   -1    0    0  501  502 -0.00000000000E+00 -0.00000000000E+00 -0.12649706492E+03  0.12649706492E+03  0.00000000000E+00 0.  1.
         25    1    1    2    0    0  0.22597768206E+03  0.24663170270E+03  0.19372370024E+03  0.40625974647E+03  0.12500000000E+03 0.  0.
         21    1    1    2  503  502 -0.22597768206E+03 -0.24663170270E+03  0.13625985612E+04  0.14030566448E+04  0.00000000000E+00 0. -1.
<mgrwt>
<rscale>  3 0.35709678E+03</rscale>
<asrwt>0</asrwt>
<pdfrwt beam="1">  1       21 0.25889526E+00 0.35709678E+03</pdfrwt>
<pdfrwt beam="2">  1       21 0.19461088E-01 0.35709678E+03</pdfrwt>
<totfact> 0.12398517E+03</totfact>
</mgrwt>
</event>
<event>
 4    0  0.1258794E-001  0.2732963E+03  0.7546771E-02  0.1099408E+00
         21   -1    0    0  502  501  0.00000000000E+00  0.00000000000E+00  0.12931271622E+03  0.12931271622E+03  0.00000000000E+00 0.  1.
         21   -1    0    0  503  502 -0.00000000000E+00 -0.00000000000E+00 -0.92093552447E+03  0.92093552447E+03  0.00000000000E+00 0. -1.
         25    1    1    2    0    0 -0.22016143608E+03  0.10293121133E+03 -0.75692092608E+03  0.80474852006E+03  0.12500000000E+03 0.  0.
         21    1    1    2  503  501  0.22016143608E+03 -0.10293121133E+03 -0.34701882169E+02  0.24549972063E+03  0.00000000000E+00 0.  1.
<mgrwt>
<rscale>  3 0.27329635E+03</rscale>
<asrwt>0</asrwt>
<pdfrwt beam="1">  1       21 0.19894265E-01 0.27329635E+03</pdfrwt>
<pdfrwt beam="2">  1       21 0.14168238E+00 0.27329635E+03</pdfrwt>
<totfact> 0.76634850E+03</totfact>
</mgrwt>
</event>
<event>
 4    0  0.1005289E-001  0.3214020E+03  0.7546771E-02  0.1075006E+00
         21   -1    0    0  503  501  0.00000000000E+00  0.00000000000E+00  0.15956851502E+03  0.15956851502E+03  0.00000000000E+00 0. -1.
         21   -1    0    0  501  502 -0.00000000000E+00 -0.00000000000E+00 -0.65066156448E+03  0.65066156448E+03  0.00000000000E+00 0.  1.
         25    1    1    2    0    0  0.28984575958E+03 -0.60528211992E+02 -0.37059899275E+03  0.49055360790E+03  0.12500000000E+03 0.  0.
         21    1    1    2  503  502 -0.28984575958E+03  0.60528211992E+02 -0.12049405670E+03  0.31967647160E+03  0.00000000000E+00 0. -1.
<mgrwt>
<rscale>  3 0.32140197E+03</rscale>
<asrwt>0</asrwt>
<pdfrwt beam="1">  1       21 0.24549003E-01 0.32140197E+03</pdfrwt>
<pdfrwt beam="2">  1       21 0.10010178E+00 0.32140197E+03</pdfrwt>
<totfact> 0.11985174E+04</totfact>
</mgrwt>
</event>
<event>
 4    0  0.1033681E-001  0.2376275E+03  0.7546771E-02  0.1121383E+00
         21   -1    0    0  502  501  0.00000000000E+00  0.00000000000E+00  0.19828477598E+03  0.19828477598E+03  0.00000000000E+00 0.  1.
         21   -1    0    0  503  502 -0.00000000000E+00 -0.00000000000E+00 -0.35445236969E+03  0.35445236969E+03  0.00000000000E+00 0. -1.
         25    1    1    2    0    0 -0.19290041638E+03 -0.60259891624E+02 -0.23650280865E+03  0.33526169432E+03  0.12500000000E+03 0.  0.
         21    1    1    2  503  501  0.19290041638E+03  0.60259891624E+02  0.80335214938E+02  0.21747545135E+03  0.00000000000E+00 0.  1.
<mgrwt>
<rscale>  3 0.23762749E+03</rscale>
<asrwt>0</asrwt>
<pdfrwt beam="1">  1       21 0.30505351E-01 0.23762749E+03</pdfrwt>
<pdfrwt beam="2">  1       21 0.54531133E-01 0.23762749E+03</pdfrwt>
<totfact> 0.32021007E+04</totfact>
</mgrwt>
</event>
<event>
 4    0  0.1005289E-001  0.2620363E+03  0.7546771E-02  0.1105926E+00
         21   -1    0    0  503  501  0.00000000000E+00  0.00000000000E+00  0.17192267771E+03  0.17192267771E+03  0.00000000000E+00 0.  1.
         21   -1    0    0  501  502 -0.00000000000E+00 -0.00000000000E+00 -0.35659214787E+03  0.35659214787E+03  0.00000000000E+00 0. -1.
         25    1    1    2    0    0 -0.80416558638E+02 -0.21580364194E+03 -0.12654872310E+03  0.29099418224E+03  0.12500000000E+03 0.  0.
         21    1    1    2  503  502  0.80416558638E+02  0.21580364194E+03 -0.58120747059E+02  0.23752064335E+03  0.00000000000E+00 0.  1.
<mgrwt>
<rscale>  3 0.26203632E+03</rscale>
<asrwt>0</asrwt>
<pdfrwt beam="1">  1       21 0.26449643E-01 0.26203632E+03</pdfrwt>
<pdfrwt beam="2">  1       21 0.54860331E-01 0.26203632E+03</pdfrwt>
<totfact> 0.41315489E+04</totfact>
</mgrwt>
</event>
<event>
 4    0  0.1649030E-001  0.2834205E+03  0.7546771E-02  0.1093835E+00
         21   -1    0    0  503  501  0.00000000000E+00  0.00000000000E+00  0.23043236551E+03  0.23043236551E+03  0.00000000000E+00 0. -1.
         21   -1    0    0  501  502 -0.00000000000E+00 -0.00000000000E+00 -0.31746739231E+03  0.31746739231E+03  0.00000000000E+00 0. -1.
         25    1    1    2    0    0 -0.15313963369E+03  0.20310198112E+03 -0.75348040382E+02  0.29326522012E+03  0.12500000000E+03 0.  0.
         21    1    1    2  503  502  0.15313963369E+03 -0.20310198112E+03 -0.11686986417E+02  0.25463453771E+03  0.00000000000E+00 0. -1.
<mgrwt>
<rscale>  3 0.28342047E+03</rscale>
<asrwt>0</asrwt>
<pdfrwt beam="1">  1       21 0.35451133E-01 0.28342047E+03</pdfrwt>
<pdfrwt beam="2">  1       21 0.48841137E-01 0.28342047E+03</pdfrwt>
<totfact> 0.29414002E+04</totfact>
</mgrwt>
</event>
<event>
 4    0  0.1387285E-001  0.2387213E+03  0.7546771E-02  0.1120648E+00
         21   -1    0    0  502  501  0.00000000000E+00  0.00000000000E+00  0.36276625096E+03  0.36276625096E+03  0.00000000000E+00 0.  1.
         21   -1    0    0  503  502 -0.00000000000E+00 -0.00000000000E+00 -0.13617216391E+03  0.13617216391E+03  0.00000000000E+00 0.  1.
         25    1    1    2    0    0  0.12176992152E+03 -0.16289549727E+03  0.14814996438E+03  0.28095599080E+03  0.12500000000E+03 0.  0.
         21    1    1    2  503  501 -0.12176992152E+03  0.16289549727E+03  0.78444122668E+02  0.21798242407E+03  0.00000000000E+00 0.  1.
<mgrwt>
<rscale>  3 0.23872130E+03</rscale>
<asrwt>0</asrwt>
<pdfrwt beam="1">  1       21 0.55810192E-01 0.23872130E+03</pdfrwt>
<pdfrwt beam="2">  1       21 0.20949564E-01 0.23872130E+03</pdfrwt>
<totfact> 0.62737205E+04</totfact>
</mgrwt>
</event>
<event>
 4    0  0.1286399E-001  0.2663704E+03  0.7546771E-02  0.1103375E+00
         21   -1    0    0  502  501  0.00000000000E+00  0.00000000000E+00  0.10638991370E+04  0.10638991370E+04  0.00000000000E+00 0.  1.
         21   -1    0    0  503  502 -0.00000000000E+00 -0.00000000000E+00 -0.86038607714E+02  0.86038607714E+02  0.00000000000E+00 0.  1.
         25    1    1    2    0    0 -0.42047107508E+02  0.23143082975E+03  0.18861771919E+03  0.32638908101E+03  0.12500000000E+03 0.  0.
         21    1    1    2  503  501  0.42047107508E+02 -0.23143082975E+03  0.78924281012E+03  0.82354866373E+03  0.00000000000E+00 0.  1.
<mgrwt>
<rscale>  3 0.26637040E+03</rscale>
<asrwt>0</asrwt>
<pdfrwt beam="1">  1       21 0.16367678E+00 0.26637040E+03</pdfrwt>
<pdfrwt beam="2">  1       21 0.13236710E-01 0.26637040E+03</pdfrwt>
<totfact> 0.11087264E+04</totfact>
</mgrwt>
</event>
<event>
 4    0  0.1005289E-001  0.2522715E+03  0.7546771E-02  0.1111878E+00
         21   -1    0    0  502  501  0.00000000000E+00  0.00000000000E+00  0.77492131678E+02  0.77492131678E+02  0.00000000000E+00 0.  1.
         21   -1    0    0  503  502 -0.00000000000E+00 -0.00000000000E+00 -0.73129550041E+03  0.73129550041E+03  0.00000000000E+00 0. -1.
         25    1    1    2    0    0 -0.13773783077E+03  0.17042361061E+03 -0.29282597214E+03  0.38650739584E+03  0.12500000000E+03 0.  0.
         21    1    1    2  503  501  0.13773783077E+03 -0.17042361061E+03 -0.36097739659E+03  0.42228023625E+03  0.00000000000E+00 0.  1.
<mgrwt>
<rscale>  3 0.25227151E+03</rscale>
<asrwt>0</asrwt>
<pdfrwt beam="1">  1       21 0.11921867E-01 0.25227151E+03</pdfrwt>
<pdfrwt beam="2">  1       21 0.11250700E+00 0.25227151E+03</pdfrwt>
<totfact> 0.35614002E+04</totfact>
</mgrwt>
</event>
<event>
 4    0  0.1553185E-001  0.2377541E+03  0.7546771E-02  0.1121298E+00
         21   -1    0    0  502  501  0.00000000000E+00  0.00000000000E+00  0.43709561600E+03  0.43709561600E+03  0.00000000000E+00 0. -1.
         21   -1    0    0  503  502 -0.00000000000E+00 -0.00000000000E+00 -0.11201914516E+03  0.11201914516E+03  0.00000000000E+00 0. -1.
         25    1    1    2    0    0 -0.19567497630E+03 -0.51120495065E+02  0.14613734677E+03  0.27907548349E+03  0.12500000000E+03 0.  0.
         21    1    1    2  503  501  0.19567497630E+03  0.51120495065E+02  0.17893912407E+03  0.27003927768E+03  0.00000000000E+00 0. -1.
<mgrwt>
<rscale>  3 0.23775408E+03</rscale>
<asrwt>0</asrwt>
<pdfrwt beam="1">  1       21 0.67245478E-01 0.23775408E+03</pdfrwt>
<pdfrwt beam="2">  1       21 0.17233715E-01 0.23775408E+03</pdfrwt>
<totfact> 0.60354913E+04</totfact>
</mgrwt>
</event>
<event>
 4    0  0.1489052E-001  0.2369306E+03  0.7546771E-02  0.1121855E+00
         21   -1    0    0  502  501  0.00000000000E+00  0.00000000000E+00  0.34256575827E+03  0.34256575827E+03  0.00000000000E+00 0.  1.
         21   -1    0    0  503  502 -0.00000000000E+00 -0.00000000000E+00 -0.14875951470E+03  0.14875951470E+03  0.00000000000E+00 0.  1.
         25    1    1    2    0    0 -0.15697609237E+03  0.12597461152E+03  0.45367464243E+02  0.24123495422E+03  0.12500000000E+03 0.  0.
         21    1    1    2  503  501  0.15697609237E+03 -0.12597461152E+03  0.14843877933E+03  0.25009031875E+03  0.00000000000E+00 0.  1.
<mgrwt>
<rscale>  3 0.23693057E+03</rscale>
<asrwt>0</asrwt>
<pdfrwt beam="1">  1       21 0.52702424E-01 0.23693057E+03</pdfrwt>
<pdfrwt beam="2">  1       21 0.22886079E-01 0.23693057E+03</pdfrwt>
<totfact> 0.59970160E+04</totfact>
</mgrwt>
</event>
<event>
 4    0  0.1318473E-001  0.2370029E+03  0.7546771E-02  0.1121806E+00
         21   -1    0    0  503  501  0.00000000000E+00  0.00000000000E+00  0.14067543578E+03  0.14067543578E+03  0.00000000000E+00 0. -1.
         21   -1    0    0  501  502 -0.00000000000E+00 -0.00000000000E+00 -0.51993458109E+03  0.51993458109E+03  0.00000000000E+00 0. -1.
         25    1    1    2    0    0  0.10787176515E+03  0.17002658647E+03 -0.39283775802E+03  0.45879392101E+03  0.12500000000E+03 0.  0.
         21    1    1    2  503  502 -0.10787176515E+03 -0.17002658647E+03  0.13578612709E+02  0.20181609586E+03  0.00000000000E+00 0. -1.
<mgrwt>
<rscale>  3 0.23700286E+03</rscale>
<asrwt>0</asrwt>
<pdfrwt beam="1">  1       21 0.21642374E-01 0.23700286E+03</pdfrwt>
<pdfrwt beam="2">  1       21 0.79989937E-01 0.23700286E+03</pdfrwt>
<totfact> 0.26744224E+04</totfact>
</mgrwt>
</event>
<event>
 4    0  0.1056159E-001  0.2946052E+03  0.7546771E-02  0.1087969E+00
         21   -1    0    0  503  501  0.00000000000E+00  0.00000000000E+00  0.27595916559E+03  0.27595916559E+03  0.00000000000E+00 0.  1.
         21   -1    0    0  501  502 -0.00000000000E+00 -0.00000000000E+00 -0.10211365241E+04  0.10211365241E+04  0.00000000000E+00 0.  1.
         25    1    1    2    0    0  0.24186152599E+02  0.26567324388E+03 -0.92803233412E+03  0.97367153377E+03  0.12500000000E+03 0.  0.
         21    1    1    2  503  502 -0.24186152599E+02 -0.26567324388E+03  0.18285497565E+03  0.32342415588E+03  0.00000000000E+00 0.  1.
<mgrwt>
<rscale>  3 0.29460523E+03</rscale>
<asrwt>0</asrwt>
<pdfrwt beam="1">  1       21 0.42455255E-01 0.29460523E+03</pdfrwt>
<pdfrwt beam="2">  1       21 0.15709793E+00 0.29460523E+03</pdfrwt>
<totfact> 0.12967706E+03</totfact>
</mgrwt>
</event>
<event>
 4    0  0.1012551E-001  0.2712546E+03  0.7546771E-02  0.1100564E+00
         21   -1    0    0  503  501  0.00000000000E+00  0.00000000000E+00  0.89198061175E+03  0.89198061175E+03  0.00000000000E+00 0.  1.
         21   -1    0    0  501  502 -0.00000000000E+00 -0.00000000000E+00 -0.19494783342E+03  0.19494783342E+03  0.00000000000E+00 0.  1.
         25    1    1    2    0    0 -0.16822199953E+03  0.17220741722E+03 -0.72370417719E+02  0.28074278803E+03  0.12500000000E+03 0.  0.
         21    1    1    2  503  502  0.16822199953E+03 -0.17220741722E+03  0.76940319605E+03  0.80618565713E+03  0.00000000000E+00 0.  1.
<mgrwt>
<rscale>  3 0.27125456E+03</rscale>
<asrwt>0</asrwt>
<pdfrwt beam="1">  1       21 0.13722779E+00 0.27125456E+03</pdfrwt>
<pdfrwt beam="2">  1       21 0.29991975E-01 0.27125456E+03</pdfrwt>
<totfact> 0.37904054E+03</totfact>
</mgrwt>
</event>
<event>
 4    0  0.1005289E-001  0.2850677E+03  0.7546771E-02  0.1092953E+00
         21   -1    0    0  502  501  0.00000000000E+00  0.00000000000E+00  0.36560855650E+04  0.36560855650E+04  0.00000000000E+00 0.  1.
         21   -1    0    0  503  502 -0.00000000000E+00 -0.00000000000E+00 -0.16715842322E+03  0.16715842322E+03  0.00000000000E+00 0.  1.
         25    1    1    2    0    0  0.24260104874E+03  0.82361033995E+02 -0.37498896409E+02  0.28752352252E+03  0.12500000000E+03 0.  0.
         21    1    1    2  503  501 -0.24260104874E+03 -0.82361033995E+02  0.35264260382E+04  0.35357204657E+04  0.00000000000E+00 0.  1.
<mgrwt>
<rscale>  3 0.28506773E+03</rscale>
<asrwt>0</asrwt>
<pdfrwt beam="1">  1       21 0.56247464E+00 0.28506773E+03</pdfrwt>
<pdfrwt beam="2">  1       21 0.25716683E-01 0.28506773E+03</pdfrwt>
<totfact> 0.81289799E+00</totfact>
</mgrwt>
</event>
<event>
 4    0  0.1005289E-001  0.2804402E+03  0.7546771E-02  0.1095449E+00
         21   -1    0    0  502  501  0.00000000000E+00  0.00000000000E+00  0.20631001656E+04  0.20631001656E+04  0.00000000000E+00 0.  1.
         21   -1    0    0  503  502 -0.00000000000E+00 -0.00000000000E+00 -0.34981073279E+02  0.34981073279E+02  0.00000000000E+00 0.  1.
         25    1    1    2    0    0  0.10155069950E+03  0.22958469715E+03  0.91537177406E+03  0.95736730803E+03  0.12500000000E+03 0.  0.
         21    1    1    2  503  501 -0.10155069950E+03 -0.22958469715E+03  0.11127473183E+04  0.11407139308E+04  0.00000000000E+00 0.  1.
<mgrwt>
<rscale>  3 0.28044015E+03</rscale>
<asrwt>0</asrwt>
<pdfrwt beam="1">  1       21 0.31739993E+00 0.28044015E+03</pdfrwt>
<pdfrwt beam="2">  1       21 0.53817052E-02 0.28044015E+03</pdfrwt>
<totfact> 0.59034152E+03</totfact>
</mgrwt>
</event>
<event>
 4    0  0.1541608E-001  0.3900172E+03  0.7546771E-02  0.1047292E+00
         21   -1    0    0  502  501  0.00000000000E+00  0.00000000000E+00  0.58368077337E+03  0.58368077337E+03  0.00000000000E+00 0.  1.
         21   -1    0    0  503  502 -0.00000000000E+00 -0.00000000000E+00 -0.90131515141E+03  0.90131515141E+03  0.00000000000E+00 0. -1.
         25    1    1    2    0    0  0.34816616827E+03 -0.12356661956E+03 -0.79254226947E+03  0.88331004698E+03  0.12500000000E+03 0.  0.
         21    1    1    2  503  501 -0.34816616827E+03  0.12356661956E+03  0.47490789143E+03  0.60168587780E+03  0.00000000000E+00 0.  1.
<mgrwt>
<rscale>  3 0.39001717E+03</rscale>
<asrwt>0</asrwt>
<pdfrwt beam="1">  1       21 0.89797043E-01 0.39001717E+03</pdfrwt>
<pdfrwt beam="2">  1       21 0.13866387E+00 0.39001717E+03</pdfrwt>
<totfact> 0.33027456E+02</totfact>
</mgrwt>
</event>
<event>
 4    0  0.1336072E-001  0.2480289E+03  0.7546771E-02  0.1114557E+00
         21   -1    0    0  503  501  0.00000000000E+00  0.00000000000E+00  0.77196661724E+03  0.77196661724E+03  0.00000000000E+00 0. -1.
         21   -1    0    0  501  502 -0.00000000000E+00 -0.00000000000E+00 -0.69200359041E+02  0.69200359041E+02  0.00000000000E+00 0. -1.
         25    1    1    2    0    0 -0.58274875045E+02 -0.20614889173E+03  0.37784203487E+03  0.45197669180E+03  0.12500000000E+03 0.  0.
         21    1    1    2  503  502  0.58274875045E+02  0.20614889173E+03  0.32492422333E+03  0.38919028447E+03  0.00000000000E+00 0. -1.
<mgrwt>
<rscale>  3 0.24802888E+03</rscale>
<asrwt>0</asrwt>
<pdfrwt beam="1">  1       21 0.11876409E+00 0.24802888E+03</pdfrwt>
<pdfrwt beam="2">  1       21 0.10646210E-01 0.24802888E+03</pdfrwt>
<totfact> 0.38250912E+04</totfact>
</mgrwt>
</event>
<event>
 4    0  0.1536564E-001  0.2500172E+03  0.7546771E-02  0.1113294E+00
         21   -1    0    0  502  501  0.00000000000E+00  0.00000000000E+00  0.34192757085E+03  0.34192757085E+03  0.00000000000E+00 0.  1.
         21   -1    0    0  503  502 -0.00000000000E+00 -0.00000000000E+00 -0.15953237999E+03  0.15953237999E+03  0.00000000000E+00 0.  1.
         25    1    1    2    0    0 -0.14254098644E+03 -0.16298972223E+03  0.85386637151E+02  0.26419587463E+03  0.12500000000E+03 0.  0.
         21    1    1    2  503  501  0.14254098644E+03  0.16298972223E+03  0.97008553717E+02  0.23726407621E+03  0.00000000000E+00 0.  1.
<mgrwt>
<rscale>  3 0.25001716E+03</rscale>
<asrwt>0</asrwt>
<pdfrwt beam="1">  1       21 0.52604242E-01 0.25001716E+03</pdfrwt>
<pdfrwt beam="2">  1       21 0.24543443E-01 0.25001716E+03</pdfrwt>
<totfact> 0.52412290E+04</totfact>
</mgrwt>
</event>
<event>
 4    0  0.1302480E-001  0.2359955E+03  0.7546771E-02  0.1122490E+00
         21   -1    0    0  503  501  0.00000000000E+00  0.00000000000E+00  0.30532045641E+03  0.30532045641E+03  0.00000000000E+00 0.  1.
         21   -1    0    0  501  502 -0.00000000000E+00 -0.00000000000E+00 -0.30346934502E+03  0.30346934502E+03  0.00000000000E+00 0.  1.
         25    1    1    2    0    0  0.18364256406E+03  0.79650951143E+02 -0.21102394310E+03  0.31658327485E+03  0.12500000000E+03 0.  0.
         21    1    1    2  503  502 -0.18364256406E+03 -0.79650951143E+02  0.21287505449E+03  0.29220652658E+03  0.00000000000E+00 0.  1.
<mgrwt>
<rscale>  3 0.23599548E+03</rscale>
<asrwt>0</asrwt>
<pdfrwt beam="1">  1       21 0.46972378E-01 0.23599548E+03</pdfrwt>
<pdfrwt beam="2">  1       21 0.46687591E-01 0.23599548E+03</pdfrwt>
<totfact> 0.18589472E+04</totfact>
</mgrwt>
</event>
<event>
 4    0  0.1218431E-001  0.2625699E+03  0.7546771E-02  0.1105609E+00
         21   -1    0    0  502  501  0.00000000000E+00  0.00000000000E+00  0.41552926902E+03  0.41552926902E+03  0.00000000000E+00 0. -1.
         21   -1    0    0  503  502 -0.00000000000E+00 -0.00000000000E+00 -0.26541142211E+03  0.26541142211E+03  0.00000000000E+00 0. -1.
         25    1    1    2    0    0  0.22084059496E+03  0.67434352854E+02 -0.14990557525E+03  0.30234854360E+03  0.12500000000E+03 0.  0.
         21    1    1    2  503  501 -0.22084059496E+03 -0.67434352854E+02  0.30002342216E+03  0.37859214753E+03  0.00000000000E+00 0. -1.
<mgrwt>
<rscale>  3 0.26256992E+03</rscale>
<asrwt>0</asrwt>
<pdfrwt beam="1">  1       21 0.63927580E-01 0.26256992E+03</pdfrwt>
<pdfrwt beam="2">  1       21 0.40832527E-01 0.26256992E+03</pdfrwt>
<totfact> 0.12534972E+04</totfact>
</mgrwt>
</event>
<event>
 4    0  0.1968235E-001  0.2701763E+03  0.7546771E-02  0.1101179E+00
         21   -1    0    0  503  501  0.00000000000E+00  0.00000000000E+00  0.58773981202E+03  0.58773981202E+03  0.00000000000E+00 0.  1.
         21   -1    0    0  501  502 -0.00000000000E+00 -0.00000000000E+00 -0.51488905282E+03  0.51488905282E+03  0.00000000000E+00 0. -1.
         25    1    1    2    0    0  0.50400492609E+02  0.23415808361E+03 -0.45149950688E+03  0.52616254379E+03  0.12500000000E+03 0.  0.
         21    1    1    2  503  502 -0.50400492609E+02 -0.23415808361E+03  0.52435026608E+03  0.57646632105E+03  0.00000000000E+00 0.  1.
<mgrwt>
<rscale>  3 0.27017627E+03</rscale>
<asrwt>0</asrwt>
<pdfrwt beam="1">  1       21 0.90421509E-01 0.27017627E+03</pdfrwt>
<pdfrwt beam="2">  1       21 0.79213701E-01 0.27017627E+03</pdfrwt>
<totfact> 0.13715157E+03</totfact>
</mgrwt>
</event>
<event>
 4    0  0.1417557E-001  0.3449086E+03  0.7546771E-02  0.1064724E+00
         21   -1    0    0  502  501  0.00000000000E+00  0.00000000000E+00  0.24135650964E+03  0.24135650964E+03  0.00000000000E+00 0. -1.
         21   -1    0    0  503  502 -0.00000000000E+00 -0.00000000000E+00 -0.57058702585E+03  0.57058702585E+03  0.00000000000E+00 0. -1.
         25    1    1    2    0    0  0.19250173080E+03  0.25744910616E+03 -0.34796111386E+03  0.48993764438E+03  0.12500000000E+03 0.  0.
         21    1    1    2  503  501 -0.19250173080E+03 -0.25744910616E+03  0.18730597652E+02  0.32200589111E+03  0.00000000000E+00 0. -1.
<mgrwt>
<rscale>  3 0.34490862E+03</rscale>
<asrwt>0</asrwt>
<pdfrwt beam="1">  1       21 0.37131771E-01 0.34490862E+03</pdfrwt>
<pdfrwt beam="2">  1       21 0.87782618E-01 0.34490862E+03</pdfrwt>
<totfact> 0.71530076E+03</totfact>
</mgrwt>
</event>
<event>
 4    0  0.1209013E-001  0.4595928E+03  0.7546771E-02  0.1024899E+00
         21   -1    0    0  502  501  0.00000000000E+00  0.00000000000E+00  0.47899424682E+03  0.47899424682E+03  0.00000000000E+00 0. -1.
         21   -1    0    0  503  502 -0.00000000000E+00 -0.00000000000E+00 -0.79084428574E+03  0.79084428574E+03  0.00000000000E+00 0.  1.
         25    1    1    2    0    0  0.28940814894E+03 -0.33443003322E+03 -0.58961732735E+03  0.74757883632E+03  0.12500000000E+03 0.  0.
         21    1    1    2  503  501 -0.28940814894E+03  0.33443003322E+03  0.27776728843E+03  0.52225969624E+03  0.00000000000E+00 0. -1.
<mgrwt>
<rscale>  3 0.45959278E+03</rscale>
<asrwt>0</asrwt>
<pdfrwt beam="1">  1       21 0.73691423E-01 0.45959278E+03</pdfrwt>
<pdfrwt beam="2">  1       21 0.12166835E+00 0.45959278E+03</pdfrwt>
<totfact> 0.70797553E+02</totfact>
</mgrwt>
</event>
<event>
 4    0  0.1211185E-001  0.2918558E+03  0.7546771E-02  0.1089384E+00
         21   -1    0    0  503  501  0.00000000000E+00  0.00000000000E+00  0.75823879496E+03  0.75823879496E+03  0.00000000000E+00 0. -1.
         21   -1    0    0  501  502 -0.00000000000E+00 -0.00000000000E+00 -0.17808269792E+03  0.17808269792E+03  0.00000000000E+00 0. -1.
         25    1    1    2    0    0 -0.25817740657E+03  0.53844344521E+02 -0.77624925201E+01  0.29195897484E+03  0.12500000000E+03 0.  0.
         21    1    1    2  503  502  0.25817740657E+03 -0.53844344521E+02  0.58791858956E+03  0.64436251804E+03  0.00000000000E+00 0. -1.
<mgrwt>
<rscale>  3 0.29185576E+03</rscale>
<asrwt>0</asrwt>
<pdfrwt beam="1">  1       21 0.11665212E+00 0.29185576E+03</pdfrwt>
<pdfrwt beam="2">  1       21 0.27397338E-01 0.29185576E+03</pdfrwt>
<totfact> 0.67555563E+03</totfact>
</mgrwt>
</event>
<event>
 4    0  0.1379479E-001  0.2989247E+03  0.7546771E-02  0.1085779E+00
         21   -1    0    0  502  501  0.00000000000E+00  0.00000000000E+00  0.79171152675E+02  0.79171152675E+02  0.00000000000E+00 0.  1.
         21   -1    0    0  503  502 -0.00000000000E+00 -0.00000000000E+00 -0.11441539580E+04  0.11441539580E+04  0.00000000000E+00 0.  1.
         25    1    1    2    0    0 -0.25799279375E+03  0.84679907891E+02 -0.75047962989E+03  0.80782154174E+03  0.12500000000E+03 0.  0.
         21    1    1    2  503  501  0.25799279375E+03 -0.84679907891E+02 -0.31450317539E+03  0.41550356889E+03  0.00000000000E+00 0.  1.
<mgrwt>
<rscale>  3 0.29892469E+03</rscale>
<asrwt>0</asrwt>
<pdfrwt beam="1">  1       21 0.12180177E-01 0.29892469E+03</pdfrwt>
<pdfrwt beam="2">  1       21 0.17602369E+00 0.29892469E+03</pdfrwt>
<totfact> 0.10334278E+04</totfact>
</mgrwt>
</event>
<event>
 4    0  0.1233116E-001  0.3377848E+03  0.7546771E-02  0.1067743E+00
         21   -1    0    0  503  501  0.00000000000E+00  0.00000000000E+00  0.35057094412E+03  0.35057094412E+03  0.00000000000E+00 0. -1.
         21   -1    0    0  501  502 -0.00000000000E+00 -0.00000000000E+00 -0.86796607265E+03  0.86796607265E+03  0.00000000000E+00 0. -1.
         25    1    1    2    0    0 -0.31360773068E+03 -0.11126211982E+02 -0.75355347111E+03  0.82579745408E+03  0.12500000000E+03 0.  0.
         21    1    1    2  503  502  0.31360773068E+03  0.11126211982E+02  0.23615834258E+03  0.39273956270E+03  0.00000000000E+00 0. -1.
<mgrwt>
<rscale>  3 0.33778484E+03</rscale>
<asrwt>0</asrwt>
<pdfrwt beam="1">  1       21 0.53933992E-01 0.33778484E+03</pdfrwt>
<pdfrwt beam="2">  1       21 0.13353324E+00 0.33778484E+03</pdfrwt>
<totfact> 0.11768350E+03</totfact>
</mgrwt>
</event>
<event>
 4    0  0.1284581E-001  0.2792557E+03  0.7546771E-02  0.1096096E+00
         21   -1    0    0  503  501  0.00000000000E+00  0.00000000000E+00  0.52142519420E+03  0.52142519420E+03  0.00000000000E+00 0.  1.
         21   -1    0    0  501  502 -0.00000000000E+00 -0.00000000000E+00 -0.24946943878E+03  0.24946943878E+03  0.00000000000E+00 0.  1.
         25    1    1    2    0    0 -0.20066308508E+03  0.14863742023E+03 -0.12177450676E+03  0.30465191105E+03  0.12500000000E+03 0.  0.
         21    1    1    2  503  502  0.20066308508E+03 -0.14863742023E+03  0.39373026218E+03  0.46624272194E+03  0.00000000000E+00 0.  1.
<mgrwt>
<rscale>  3 0.27925572E+03</rscale>
<asrwt>0</asrwt>
<pdfrwt beam="1">  1       21 0.80219260E-01 0.27925572E+03</pdfrwt>
<pdfrwt beam="2">  1       21 0.38379914E-01 0.27925572E+03</pdfrwt>
<totfact> 0.84896533E+03</totfact>
</mgrwt>
</event>
<event>
 4    0  0.1005289E-001  0.3223663E+03  0.7546771E-02  0.1074565E+00
         21   -1    0    0  502  501  0.00000000000E+00  0.00000000000E+00  0.16718608155E+04  0.16718608155E+04  0.00000000000E+00 0. -1.
         21   -1    0    0  503  502 -0.00000000000E+00 -0.00000000000E+00 -0.12737422506E+03  0.12737422506E+03  0.00000000000E+00 0. -1.
         25    1    1    2    0    0  0.27034311163E+03 -0.12332722358E+03  0.11982574536E+03  0.34391599459E+03  0.12500000000E+03 0.  0.
         21    1    1    2  503  501 -0.27034311163E+03  0.12332722358E+03  0.14246608451E+04  0.14553190460E+04  0.00000000000E+00 0. -1.
<mgrwt>
<rscale>  3 0.32236625E+03</rscale>
<asrwt>0</asrwt>
<pdfrwt beam="1">  1       21 0.25720934E+00 0.32236625E+03</pdfrwt>
<pdfrwt beam="2">  1       21 0.19596036E-01 0.32236625E+03</pdfrwt>
<totfact> 0.12824113E+03</totfact>
</mgrwt>
</event>
<event>
 4    0  0.1421782E-001  0.2622567E+03  0.7546771E-02  0.1105795E+00
         21   -1    0    0  502  501  0.00000000000E+00  0.00000000000E+00  0.67214961467E+03  0.67214961467E+03  0.00000000000E+00 0.  1.
         21   -1    0    0  503  502 -0.00000000000E+00 -0.00000000000E+00 -0.12078325055E+03  0.12078325055E+03  0.00000000000E+00 0.  1.
         25    1    1    2    0    0 -0.76405740211E+02  0.21752179612E+03  0.90177261293E+02  0.27732743712E+03  0.12500000000E+03 0.  0.
         21    1    1    2  503  501  0.76405740211E+02 -0.21752179612E+03  0.46118910283E+03  0.51560542811E+03  0.00000000000E+00 0.  1.
<mgrwt>
<rscale>  3 0.26225669E+03</rscale>
<asrwt>0</asrwt>
<pdfrwt beam="1">  1       21 0.10340763E+00 0.26225669E+03</pdfrwt>
<pdfrwt beam="2">  1       21 0.18582039E-01 0.26225669E+03</pdfrwt>
<totfact> 0.19299808E+04</totfact>
</mgrwt>
</event>
<event>
 4    0  0.1251781E-001  0.2744893E+03  0.7546771E-02  0.1098737E+00
         21   -1    0    0  503  501  0.00000000000E+00  0.00000000000E+00  0.17554849067E+03  0.17554849067E+03  0.00000000000E+00 0. -1.
         21   -1    0    0  501  502 -0.00000000000E+00 -0.00000000000E+00 -0.10710085127E+04  0.10710085127E+04  0.00000000000E+00 0.  1.
         25    1    1    2    0    0  0.21426733589E+03 -0.11751127632E+03 -0.95614019758E+03  0.99476050822E+03  0.12500000000E+03 0.  0.
         21    1    1    2  503  502 -0.21426733589E+03  0.11751127632E+03  0.60680175505E+02  0.25179649519E+03  0.00000000000E+00 0. -1.
<mgrwt>
<rscale>  3 0.27448933E+03</rscale>
<asrwt>0</asrwt>
<pdfrwt beam="1">  1       21 0.27007460E-01 0.27448933E+03</pdfrwt>
<pdfrwt beam="2">  1       21 0.16477054E+00 0.27448933E+03</pdfrwt>
<totfact> 0.28451500E+03</totfact>
</mgrwt>
</event>
<event>
 4    0  0.1259749E-001  0.2566263E+03  0.7546771E-02  0.1109187E+00
         21   -1    0    0  502  501  0.00000000000E+00  0.00000000000E+00  0.53839712002E+03  0.53839712002E+03  0.00000000000E+00 0. -1.
         21   -1    0    0  503  502 -0.00000000000E+00 -0.00000000000E+00 -0.10865201646E+03  0.10865201646E+03  0.00000000000E+00 0. -1.
         25    1    1    2    0    0 -0.61567633077E+02 -0.21550289813E+03  0.26496854089E+03  0.36887043824E+03  0.12500000000E+03 0.  0.
         21    1    1    2  503  501  0.61567633077E+02  0.21550289813E+03  0.16477656267E+03  0.27817869823E+03  0.00000000000E+00 0. -1.
<mgrwt>
<rscale>  3 0.25662633E+03</rscale>
<asrwt>0</asrwt>
<pdfrwt beam="1">  1       21 0.82830325E-01 0.25662633E+03</pdfrwt>
<pdfrwt beam="2">  1       21 0.16715695E-01 0.25662633E+03</pdfrwt>
<totfact> 0.39679946E+04</totfact>
</mgrwt>
</event>
<event>
 4    0  0.1206132E-001  0.2598687E+03  0.7546771E-02  0.1107222E+00
         21   -1    0    0  502  501  0.00000000000E+00  0.00000000000E+00  0.49154804401E+03  0.49154804401E+03  0.00000000000E+00 0.  1.
         21   -1    0    0  503  502 -0.00000000000E+00 -0.00000000000E+00 -0.27144541684E+03  0.27144541684E+03  0.00000000000E+00 0.  1.
         25    1    1    2    0    0 -0.22070203176E+03  0.56545238165E+02 -0.17049527404E+03  0.31080603155E+03  0.12500000000E+03 0.  0.
         21    1    1    2  503  501  0.22070203176E+03 -0.56545238165E+02  0.39059790121E+03  0.45218742930E+03  0.00000000000E+00 0.  1.
<mgrwt>
<rscale>  3 0.25986872E+03</rscale>
<asrwt>0</asrwt>
<pdfrwt beam="1">  1       21 0.75622776E-01 0.25986872E+03</pdfrwt>
<pdfrwt beam="2">  1       21 0.41760833E-01 0.25986872E+03</pdfrwt>
<totfact> 0.82564804E+03</totfact>
</mgrwt>
</event>
<event>
 4    0  0.1553570E-001  0.2817050E+03  0.7546771E-02  0.1094761E+00
         21   -1    0    0  503  501  0.00000000000E+00  0.00000000000E+00  0.29064104008E+03  0.29064104008E+03  0.00000000000E+00 0. -1.
         21   -1    0    0  501  502 -0.00000000000E+00 -0.00000000000E+00 -0.25050089814E+03  0.25050089814E+03  0.00000000000E+00 0. -1.
         25    1    1    2    0    0  0.23164364744E+03 -0.10036887891E+03 -0.17302641949E+02  0.28223584583E+03  0.12500000000E+03 0.  0.
         21    1    1    2  503  502 -0.23164364744E+03  0.10036887891E+03  0.57442783885E+02  0.25890609239E+03  0.00000000000E+00 0. -1.
<mgrwt>
<rscale>  3 0.28170497E+03</rscale>
<asrwt>0</asrwt>
<pdfrwt beam="1">  1       21 0.44714006E-01 0.28170497E+03</pdfrwt>
<pdfrwt beam="2">  1       21 0.38538600E-01 0.28170497E+03</pdfrwt>
<totfact> 0.29895918E+04</totfact>
</mgrwt>
</event>
<event>
 4    0  0.1200819E-001  0.2415040E+03  0.7546771E-02  0.1118795E+00
         21   -1    0    0  503  501  0.00000000000E+00  0.00000000000E+00  0.23677148973E+04  0.23677148973E+04  0.00000000000E+00 0. -1.
         21   -1    0    0  501  502 -0.00000000000E+00 -0.00000000000E+00 -0.10913101664E+03  0.10913101664E+03  0.00000000000E+00 0.  1.
         25    1    1    2    0    0  0.20059839538E+03  0.49592947790E+02  0.35406072706E+02  0.24408557247E+03  0.12500000000E+03 0.  0.
         21    1    1    2  503  502 -0.20059839538E+03 -0.49592947790E+02  0.22231778079E+04  0.22327603414E+04  0.00000000000E+00 0. -1.
<mgrwt>
<rscale>  3 0.24150399E+03</rscale>
<asrwt>0</asrwt>
<pdfrwt beam="1">  1       21 0.36426379E+00 0.24150399E+03</pdfrwt>
<pdfrwt beam="2">  1       21 0.16789389E-01 0.24150399E+03</pdfrwt>
<totfact> 0.42843335E+02</totfact>
</mgrwt>
</event>
<event>
 4    0  0.1152422E-001  0.2697983E+03  0.7546771E-02  0.1101395E+00
         21   -1    0    0  502  501  0.00000000000E+00  0.00000000000E+00  0.28055699613E+03  0.28055699613E+03  0.00000000000E+00 0.  1.
         21   -1    0    0  503  502 -0.00000000000E+00 -0.00000000000E+00 -0.34280606938E+03  0.34280606938E+03  0.00000000000E+00 0. -1.
         25    1    1    2    0    0 -0.22833097119E+03  0.70930261650E+02 -0.21035636388E+03  0.34211245848E+03  0.12500000000E+03 0.  0.
         21    1    1    2  503  501  0.22833097119E+03 -0.70930261650E+02  0.14810729062E+03  0.28125060703E+03  0.00000000000E+00 0.  1.
<mgrwt>
<rscale>  3 0.26979832E+03</rscale>
<asrwt>0</asrwt>
<pdfrwt beam="1">  1       21 0.43162615E-01 0.26979832E+03</pdfrwt>
<pdfrwt beam="2">  1       21 0.52739395E-01 0.26979832E+03</pdfrwt>
<totfact> 0.16868604E+04</totfact>
</mgrwt>
</event>
<event>
 4    0  0.1418994E-001  0.3458045E+03  0.7546771E-02  0.1064350E+00
         21   -1    0    0  503  501  0.00000000000E+00  0.00000000000E+00  0.40062592773E+03  0.40062592773E+03  0.00000000000E+00 0. -1.
         21   -1    0    0  501  502 -0.00000000000E+00 -0.00000000000E+00 -0.27943999224E+03  0.27943999224E+03  0.00000000000E+00 0. -1.
         25    1    1    2    0    0  0.27197509076E+03  0.17316274163E+03  0.80856016253E+02  0.35513163820E+03  0.12500000000E+03 0.  0.
         21    1    1    2  503  502 -0.27197509076E+03 -0.17316274163E+03  0.40329919239E+02  0.32493428177E+03  0.00000000000E+00 0. -1.
<mgrwt>
<rscale>  3 0.34580455E+03</rscale>
<asrwt>0</asrwt>
<pdfrwt beam="1">  1       21 0.61634758E-01 0.34580455E+03</pdfrwt>
<pdfrwt beam="2">  1       21 0.42990768E-01 0.34580455E+03</pdfrwt>
<totfact> 0.11780775E+04</totfact>
</mgrwt>
</event>
<event>
 4    0  0.1067115E-001  0.2969489E+03  0.7546771E-02  0.1086776E+00
         21   -1    0    0  502  501  0.00000000000E+00  0.00000000000E+00  0.78131671980E+03  0.78131671980E+03  0.00000000000E+00 0.  1.
         21   -1    0    0  503  502 -0.00000000000E+00 -0.00000000000E+00 -0.44624560191E+03  0.44624560191E+03  0.00000000000E+00 0.  1.
         25    1    1    2    0    0  0.15850399676E+03  0.21778464533E+03 -0.36904699718E+03  0.47368170205E+03  0.12500000000E+03 0.  0.
         21    1    1    2  503  501 -0.15850399676E+03 -0.21778464533E+03  0.70411811507E+03  0.75388061966E+03  0.00000000000E+00 0.  1.
<mgrwt>
<rscale>  3 0.29694893E+03</rscale>
<asrwt>0</asrwt>
<pdfrwt beam="1">  1       21 0.12020257E+00 0.29694893E+03</pdfrwt>
<pdfrwt beam="2">  1       21 0.68653170E-01 0.29694893E+03</pdfrwt>
<totfact> 0.93279927E+02</totfact>
</mgrwt>
</event>
<event>
 4    0  0.1502645E-001  0.2568586E+03  0.7546771E-02  0.1109045E+00
         21   -1    0    0  503  501  0.00000000000E+00  0.00000000000E+00  0.24995057002E+03  0.24995057002E+03  0.00000000000E+00 0. -1.
         21   -1    0    0  501  502 -0.00000000000E+00 -0.00000000000E+00 -0.32313178743E+03  0.32313178743E+03  0.00000000000E+00 0. -1.
         25    1    1    2    0    0 -0.17311730171E+03 -0.14276466538E+03 -0.19057682193E+03  0.31983726314E+03  0.12500000000E+03 0.  0.
         21    1    1    2  503  502  0.17311730171E+03  0.14276466538E+03  0.11739560453E+03  0.25324509431E+03  0.00000000000E+00 0. -1.
<mgrwt>
<rscale>  3 0.25685862E+03</rscale>
<asrwt>0</asrwt>
<pdfrwt beam="1">  1       21 0.38453934E-01 0.25685862E+03</pdfrwt>
<pdfrwt beam="2">  1       21 0.49712582E-01 0.25685862E+03</pdfrwt>
<totfact> 0.24330389E+04</totfact>
</mgrwt>
</event>
<event>
 4    0  0.1626569E-001  0.2810773E+03  0.7546771E-02  0.1095102E+00
         21   -1    0    0  502  501  0.00000000000E+00  0.00000000000E+00  0.18910744062E+03  0.18910744062E+03  0.00000000000E+00 0. -1.
         21   -1    0    0  503  502 -0.00000000000E+00 -0.00000000000E+00 -0.56593953078E+03  0.56593953078E+03  0.00000000000E+00 0. -1.
         25    1    1    2    0    0 -0.25175276922E+03 -0.12406586462E+00 -0.41416942286E+03  0.50054049090E+03  0.12500000000E+03 0.  0.
         21    1    1    2  503  501  0.25175276922E+03  0.12406586462E+00  0.37337332699E+02  0.25450648050E+03  0.00000000000E+00 0. -1.
<mgrwt>
<rscale>  3 0.28107734E+03</rscale>
<asrwt>0</asrwt>
<pdfrwt beam="1">  1       21 0.29093452E-01 0.28107734E+03</pdfrwt>
<pdfrwt beam="2">  1       21 0.87067621E-01 0.28107734E+03</pdfrwt>
<totfact> 0.12195309E+04</totfact>
</mgrwt>
</event>
<event>
 4    0  0.1171515E-001  0.2767730E+03  0.7546771E-02  0.1097465E+00
         21   -1    0    0  502  501  0.00000000000E+00  0.00000000000E+00  0.39424332478E+03  0.39424332478E+03  0.00000000000E+00 0. -1.
         21   -1    0    0  503  502 -0.00000000000E+00 -0.00000000000E+00 -0.30928023636E+03  0.30928023636E+03  0.00000000000E+00 0.  1.
         25    1    1    2    0    0  0.25305950782E+02  0.24563774272E+03 -0.18865351497E+03  0.33495289297E+03  0.12500000000E+03 0.  0.
         21    1    1    2  503  501 -0.25305950782E+02 -0.24563774272E+03  0.27361660339E+03  0.36857066818E+03  0.00000000000E+00 0. -1.
<mgrwt>
<rscale>  3 0.27677300E+03</rscale>
<asrwt>0</asrwt>
<pdfrwt beam="1">  1       21 0.60652820E-01 0.27677300E+03</pdfrwt>
<pdfrwt beam="2">  1       21 0.47581574E-01 0.27677300E+03</pdfrwt>
<totfact> 0.10177783E+04</totfact>
</mgrwt>
</event>
<event>
 4    0  0.1434104E-001  0.2535102E+03  0.7546771E-02  0.1111106E+00
         21   -1    0    0  503  501  0.00000000000E+00  0.00000000000E+00  0.26396569765E+03  0.26396569765E+03  0.00000000000E+00 0.  1.
         21   -1    0    0  501  502 -0.00000000000E+00 -0.00000000000E+00 -0.44544861896E+03  0.44544861896E+03  0.00000000000E+00 0. -1.
         25    1    1    2    0    0  0.12012119425E+03 -0.18496845354E+03 -0.34977888402E+03  0.43198691858E+03  0.12500000000E+03 0.  0.
         21    1    1    2  503  502 -0.12012119425E+03  0.18496845354E+03  0.16829596271E+03  0.27742739803E+03  0.00000000000E+00 0.  1.
<mgrwt>
<rscale>  3 0.25351022E+03</rscale>
<asrwt>0</asrwt>
<pdfrwt beam="1">  1       21 0.40610107E-01 0.25351022E+03</pdfrwt>
<pdfrwt beam="2">  1       21 0.68530557E-01 0.25351022E+03</pdfrwt>
<totfact> 0.10928762E+04</totfact>
</mgrwt>
</event>
<event>
 4    0  0.1420935E-001  0.3090420E+03  0.7546771E-02  0.1080806E+00
         21   -1    0    0  502  501  0.00000000000E+00  0.00000000000E+00  0.32183242462E+03  0.32183242462E+03  0.00000000000E+00 0.  1.
         21   -1    0    0  503  502 -0.00000000000E+00 -0.00000000000E+00 -0.28962410390E+03  0.28962410390E+03  0.00000000000E+00 0.  1.
         25    1    1    2    0    0  0.22829645496E+03 -0.16662139193E+03 -0.58689309027E+02  0.31456540590E+03  0.12500000000E+03 0.  0.
         21    1    1    2  503  501 -0.22829645496E+03  0.16662139193E+03  0.90897629748E+02  0.29689112262E+03  0.00000000000E+00 0.  1.
<mgrwt>
<rscale>  3 0.30904200E+03</rscale>
<asrwt>0</asrwt>
<pdfrwt beam="1">  1       21 0.49512681E-01 0.30904200E+03</pdfrwt>
<pdfrwt beam="2">  1       21 0.44557554E-01 0.30904200E+03</pdfrwt>
<totfact> 0.17751296E+04</totfact>
</mgrwt>
</event>
<event>
 4    0  0.1484802E-001  0.3035830E+03  0.7546771E-02  0.1083463E+00
         21   -1    0    0  503  501  0.00000000000E+00  0.00000000000E+00  0.90718317164E+02  0.90718317164E+02  0.00000000000E+00 0.  1.
         21   -1    0    0  501  502 -0.00000000000E+00 -0.00000000000E+00 -0.94014953178E+03  0.94014953178E+03  0.00000000000E+00 0.  1.
         25    1    1    2    0    0 -0.63220902506E+02  0.26933385805E+03 -0.50316967825E+03  0.58765834863E+03  0.12500000000E+03 0.  0.
         21    1    1    2  503  502  0.63220902506E+02 -0.26933385805E+03 -0.34626153636E+03  0.44320950031E+03  0.00000000000E+00 0.  1.
<mgrwt>
<rscale>  3 0.30358295E+03</rscale>
<asrwt>0</asrwt>
<pdfrwt beam="1">  1       21 0.13956665E-01 0.30358295E+03</pdfrwt>
<pdfrwt beam="2">  1       21 0.14463838E+00 0.30358295E+03</pdfrwt>
<totfact> 0.13789921E+04</totfact>
</mgrwt>
</event>
<event>
 4    0  0.1096616E-001  0.2450881E+03  0.7546771E-02  0.1116449E+00
         21   -1    0    0  503  501  0.00000000000E+00  0.00000000000E+00  0.95917190751E+03  0.95917190751E+03  0.00000000000E+00 0. -1.
         21   -1    0    0  501  502 -0.00000000000E+00 -0.00000000000E+00 -0.12348478263E+03  0.12348478263E+03  0.00000000000E+00 0. -1.
         25    1    1    2    0    0  0.18822999691E+03  0.94935045842E+02  0.26567289335E+02  0.24652386401E+03  0.12500000000E+03 0.  0.
         21    1    1    2  503  502 -0.18822999691E+03 -0.94935045842E+02  0.80911983554E+03  0.83613282613E+03  0.00000000000E+00 0. -1.
<mgrwt>
<rscale>  3 0.24508814E+03</rscale>
<asrwt>0</asrwt>
<pdfrwt beam="1">  1       21 0.14756490E+00 0.24508814E+03</pdfrwt>
<pdfrwt beam="2">  1       21 0.18997659E-01 0.24508814E+03</pdfrwt>
<totfact> 0.76343482E+03</totfact>
</mgrwt>
</event>
<event>
 4    0  0.1100300E-001  0.2389324E+03  0.7546771E-02  0.1120506E+00
         21   -1    0    0  503  501  0.00000000000E+00  0.00000000000E+00  0.12441348066E+04  0.12441348066E+04  0.00000000000E+00 0.  1.
         21   -1    0    0  501  502 -0.00000000000E+00 -0.00000000000E+00 -0.92656842856E+02  0.92656842856E+02  0.00000000000E+00 0.  1.
         25    1    1    2    0    0  0.60372208693E+02  0.19447078992E+03  0.88989045522E+02  0.25496615842E+03  0.12500000000E+03 0.  0.
         21    1    1    2  503  502 -0.60372208693E+02 -0.19447078992E+03  0.10624889183E+04  0.10818254911E+04  0.00000000000E+00 0.  1.
<mgrwt>
<rscale>  3 0.23893240E+03</rscale>
<asrwt>0</asrwt>
<pdfrwt beam="1">  1       21 0.19140534E+00 0.23893240E+03</pdfrwt>
<pdfrwt beam="2">  1       21 0.14254900E-01 0.23893240E+03</pdfrwt>
<totfact> 0.63286058E+03</totfact>
</mgrwt>
</event>
<event>
 4    0  0.1005289E-001  0.2367695E+03  0.7546771E-02  0.1121964E+00
         21   -1    0    0  503  501  0.00000000000E+00  0.00000000000E+00  0.50485096360E+02  0.50485096360E+02  0.00000000000E+00 0. -1.
         21   -1    0    0  501  502 -0.00000000000E+00 -0.00000000000E+00 -0.10504547929E+04  0.10504547929E+04  0.00000000000E+00 0.  1.
         25    1    1    2    0    0 -0.19700846586E+03 -0.40279851141E+02 -0.70706164775E+03  0.74565137681E+03  0.12500000000E+03 0.  0.
         21    1    1    2  503  502  0.19700846586E+03  0.40279851141E+02 -0.29290804878E+03  0.35528851243E+03  0.00000000000E+00 0. -1.
<mgrwt>
<rscale>  3 0.23676951E+03</rscale>
<asrwt>0</asrwt>
<pdfrwt beam="1">  1       21 0.77669387E-02 0.23676951E+03</pdfrwt>
<pdfrwt beam="2">  1       21 0.16160841E+00 0.23676951E+03</pdfrwt>
<totfact> 0.30137492E+04</totfact>
</mgrwt>
</event>
<event>
 4    0  0.1005289E-001  0.2944949E+03  0.7546771E-02  0.1088025E+00
         21   -1    0    0  503  501  0.00000000000E+00  0.00000000000E+00  0.34391680738E+03  0.34391680738E+03  0.00000000000E+00 0. -1.
         21   -1    0    0  501  502 -0.00000000000E+00 -0.00000000000E+00 -0.97960488820E+03  0.97960488820E+03  0.00000000000E+00 0. -1.
         25    1    1    2    0    0  0.15419947918E+02 -0.26620383367E+03 -0.90067339899E+03  0.94759686972E+03  0.12500000000E+03 0.  0.
         21    1    1    2  503  502 -0.15419947918E+02  0.26620383367E+03  0.26498531817E+03  0.37592482586E+03  0.00000000000E+00 0. -1.
<mgrwt>
<rscale>  3 0.29449492E+03</rscale>
<asrwt>0</asrwt>
<pdfrwt beam="1">  1       21 0.52910279E-01 0.29449492E+03</pdfrwt>
<pdfrwt beam="2">  1       21 0.15070844E+00 0.29449492E+03</pdfrwt>
<totfact> 0.91553961E+02</totfact>
</mgrwt>
</event>
<event>
 4    0  0.1005289E-001  0.2385004E+03  0.7546771E-02  0.1120796E+00
         21   -1    0    0  503  501  0.00000000000E+00  0.00000000000E+00  0.40006588475E+03  0.40006588475E+03  0.00000000000E+00 0.  1.
         21   -1    0    0  501  502 -0.00000000000E+00 -0.00000000000E+00 -0.12599945467E+03  0.12599945467E+03  0.00000000000E+00 0. -1.
         25    1    1    2    0    0  0.19863275133E+03 -0.42455406217E+02  0.10019584501E+03  0.25869216991E+03  0.12500000000E+03 0.  0.
         21    1    1    2  503  502 -0.19863275133E+03  0.42455406217E+02  0.17387058507E+03  0.26737316951E+03  0.00000000000E+00 0.  1.
<mgrwt>
<rscale>  3 0.23850038E+03</rscale>
<asrwt>0</asrwt>
<pdfrwt beam="1">  1       21 0.61548597E-01 0.23850038E+03</pdfrwt>
<pdfrwt beam="2">  1       21 0.19384532E-01 0.23850038E+03</pdfrwt>
<totfact> 0.58818625E+04</totfact>
</mgrwt>
</event>
<event>
 4    0  0.1498372E-001  0.2504172E+03  0.7546771E-02  0.1113041E+00
         21   -1    0    0  503  501  0.00000000000E+00  0.00000000000E+00  0.11742661752E+03  0.11742661752E+03  0.00000000000E+00 0.  1.
         21   -1    0    0  501  502 -0.00000000000E+00 -0.00000000000E+00 -0.47116207752E+03  0.47116207752E+03  0.00000000000E+00 0.  1.
         25    1    1    2    0    0 -0.14720769586E+03 -0.15941662579E+03 -0.22261098774E+03  0.33505882791E+03  0.12500000000E+03 0.  0.
         21    1    1    2  503  502  0.14720769586E+03  0.15941662579E+03 -0.13112447227E+03  0.25352986713E+03  0.00000000000E+00 0.  1.
<mgrwt>
<rscale>  3 0.25041718E+03</rscale>
<asrwt>0</asrwt>
<pdfrwt beam="1">  1       21 0.18065633E-01 0.25041718E+03</pdfrwt>
<pdfrwt beam="2">  1       21 0.72486475E-01 0.25041718E+03</pdfrwt>
<totfact> 0.46582314E+04</totfact>
</mgrwt>
</event>
<event>
 4    0  0.1070206E-001  0.3077260E+03  0.7546771E-02  0.1081441E+00
         21   -1    0    0  503  501  0.00000000000E+00  0.00000000000E+00  0.19896885327E+03  0.19896885327E+03  0.00000000000E+00 0.  1.
         21   -1    0    0  501  502 -0.00000000000E+00 -0.00000000000E+00 -0.56429606320E+03  0.56429606320E+03  0.00000000000E+00 0.  1.
         25    1    1    2    0    0 -0.47780497158E+02  0.27710527027E+03 -0.70366973147E+01  0.30780646814E+03  0.12500000000E+03 0.  0.
         21    1    1    2  503  502  0.47780497158E+02 -0.27710527027E+03 -0.35829051262E+03  0.45545844832E+03  0.00000000000E+00 0.  1.
<mgrwt>
<rscale>  3 0.30772603E+03</rscale>
<asrwt>0</asrwt>
<pdfrwt beam="1">  1       21 0.30610593E-01 0.30772603E+03</pdfrwt>
<pdfrwt beam="2">  1       21 0.86814778E-01 0.30772603E+03</pdfrwt>
<totfact> 0.10976126E+04</totfact>
</mgrwt>
</event>
<event>
 4    0  0.1070857E-001  0.2439387E+03  0.7546771E-02  0.1117196E+00
         21   -1    0    0  502  501  0.00000000000E+00  0.00000000000E+00  0.13811902357E+04  0.13811902357E+04  0.00000000000E+00 0. -1.
         21   -1    0    0  503  502 -0.00000000000E+00 -0.00000000000E+00 -0.77704015161E+02  0.77704015161E+02  0.00000000000E+00 0. -1.
         25    1    1    2    0    0  0.20938777986E+03 -0.61516851147E+01  0.14962177027E+03  0.28616911036E+03  0.12500000000E+03 0.  0.
         21    1    1    2  503  501 -0.20938777986E+03  0.61516851147E+01  0.11538644502E+04  0.11727251405E+04  0.00000000000E+00 0. -1.
<mgrwt>
<rscale>  3 0.24393869E+03</rscale>
<asrwt>0</asrwt>
<pdfrwt beam="1">  1       21 0.21249079E+00 0.24393869E+03</pdfrwt>
<pdfrwt beam="2">  1       21 0.11954465E-01 0.24393869E+03</pdfrwt>
<totfact> 0.63364508E+03</totfact>
</mgrwt>
</event>
<event>
 4    0  0.1043394E-001  0.2945411E+03  0.7546771E-02  0.1088002E+00
         21   -1    0    0  503  501  0.00000000000E+00  0.00000000000E+00  0.53298266730E+02  0.53298266730E+02  0.00000000000E+00 0.  1.
         21   -1    0    0  501  502 -0.00000000000E+00 -0.00000000000E+00 -0.18421747433E+04  0.18421747433E+04  0.00000000000E+00 0.  1.
         25    1    1    2    0    0 -0.24915439847E+03  0.95139468356E+02 -0.13512794299E+04  0.13830077839E+04  0.12500000000E+03 0.  0.
         21    1    1    2  503  502  0.24915439847E+03 -0.95139468356E+02 -0.43759704666E+03  0.51246522610E+03  0.00000000000E+00 0.  1.
<mgrwt>
<rscale>  3 0.29454105E+03</rscale>
<asrwt>0</asrwt>
<pdfrwt beam="1">  1       21 0.81997334E-02 0.29454105E+03</pdfrwt>
<pdfrwt beam="2">  1       21 0.28341150E+00 0.29454105E+03</pdfrwt>
<totfact> 0.44560333E+03</totfact>
</mgrwt>
</event>
<event>
 4    0  0.1666083E-001  0.2434386E+03  0.7546771E-02  0.1117523E+00
         21   -1    0    0  503  501  0.00000000000E+00  0.00000000000E+00  0.12081558321E+03  0.12081558321E+03  0.00000000000E+00 0.  1.
         21   -1    0    0  501  502 -0.00000000000E+00 -0.00000000000E+00 -0.43250677110E+03  0.43250677110E+03  0.00000000000E+00 0.  1.
         25    1    1    2    0    0  0.32245544682E-01 -0.20889551251E+03 -0.20755891609E+03  0.31991098736E+03  0.12500000000E+03 0.  0.
         21    1    1    2  503  502 -0.32245544682E-01  0.20889551251E+03 -0.10413227181E+03  0.23341136695E+03  0.00000000000E+00 0.  1.
<mgrwt>
<rscale>  3 0.24343857E+03</rscale>
<asrwt>0</asrwt>
<pdfrwt beam="1">  1       21 0.18587013E-01 0.24343857E+03</pdfrwt>
<pdfrwt beam="2">  1       21 0.66539503E-01 0.24343857E+03</pdfrwt>
<totfact> 0.53557500E+04</totfact>
</mgrwt>
</event>
<event>
 4    0  0.1646144E-001  0.2619942E+03  0.7546771E-02  0.1105951E+00
         21   -1    0    0  503  501  0.00000000000E+00  0.00000000000E+00  0.17924901105E+03  0.17924901105E+03  0.00000000000E+00 0. -1.
         21   -1    0    0  501  502 -0.00000000000E+00 -0.00000000000E+00 -0.37849530345E+03  0.37849530345E+03  0.00000000000E+00 0. -1.
         25    1    1    2    0    0  0.14084582082E+03 -0.18214940990E+03 -0.19646710106E+03  0.32747560912E+03  0.12500000000E+03 0.  0.
         21    1    1    2  503  502 -0.14084582082E+03  0.18214940990E+03 -0.27791913330E+01  0.23026870538E+03  0.00000000000E+00 0. -1.
<mgrwt>
<rscale>  3 0.26199418E+03</rscale>
<asrwt>0</asrwt>
<pdfrwt beam="1">  1       21 0.27576771E-01 0.26199418E+03</pdfrwt>
<pdfrwt beam="2">  1       21 0.58230046E-01 0.26199418E+03</pdfrwt>
<totfact> 0.33537234E+04</totfact>
</mgrwt>
</event>
<event>
 4    0  0.1621198E-001  0.2823699E+03  0.7546771E-02  0.1094402E+00
         21   -1    0    0  502  501  0.00000000000E+00  0.00000000000E+00  0.24880057956E+03  0.24880057956E+03  0.00000000000E+00 0.  1.
         21   -1    0    0  503  502 -0.00000000000E+00 -0.00000000000E+00 -0.35230525316E+03  0.35230525316E+03  0.00000000000E+00 0.  1.
         25    1    1    2    0    0  0.13606926887E+03  0.21352502072E+03 -0.18209620655E+03  0.33599376310E+03  0.12500000000E+03 0.  0.
         21    1    1    2  503  501 -0.13606926887E+03 -0.21352502072E+03  0.78591532941E+02  0.26511206962E+03  0.00000000000E+00 0.  1.
<mgrwt>
<rscale>  3 0.28236994E+03</rscale>
<asrwt>0</asrwt>
<pdfrwt beam="1">  1       21 0.38277012E-01 0.28236994E+03</pdfrwt>
<pdfrwt beam="2">  1       21 0.54200808E-01 0.28236994E+03</pdfrwt>
<totfact> 0.20229707E+04</totfact>
</mgrwt>
</event>
<event>
 4    0  0.1005289E-001  0.3009331E+03  0.7546771E-02  0.1084775E+00
         21   -1    0    0  503  501  0.00000000000E+00  0.00000000000E+00  0.49242920881E+02  0.49242920881E+02  0.00000000000E+00 0.  1.
         21   -1    0    0  501  502 -0.00000000000E+00 -0.00000000000E+00 -0.19853666702E+04  0.19853666702E+04  0.00000000000E+00 0.  1.
         25    1    1    2    0    0  0.19790300987E+03 -0.18912985879E+03 -0.60597012686E+03  0.67658000225E+03  0.12500000000E+03 0.  0.
         21    1    1    2  503  502 -0.19790300987E+03  0.18912985879E+03 -0.13301536224E+04  0.13580295888E+04  0.00000000000E+00 0.  1.
<mgrwt>
<rscale>  3 0.30093306E+03</rscale>
<asrwt>0</asrwt>
<pdfrwt beam="1">  1       21 0.75758343E-02 0.30093306E+03</pdfrwt>
<pdfrwt beam="2">  1       21 0.30544101E+00 0.30093306E+03</pdfrwt>
<totfact> 0.37790972E+03</totfact>
</mgrwt>
</event>
<event>
 4    0  0.1208622E-001  0.2561107E+03  0.7546771E-02  0.1109503E+00
         21   -1    0    0  503  501  0.00000000000E+00  0.00000000000E+00  0.73487795676E+02  0.73487795676E+02  0.00000000000E+00 0. -1.
         21   -1    0    0  501  502 -0.00000000000E+00 -0.00000000000E+00 -0.78763865928E+03  0.78763865928E+03  0.00000000000E+00 0. -1.
         25    1    1    2    0    0 -0.21650626570E+03  0.55612459597E+02 -0.34697098803E+03  0.43125581188E+03  0.12500000000E+03 0.  0.
         21    1    1    2  503  502  0.21650626570E+03 -0.55612459597E+02 -0.36717987557E+03  0.42987064307E+03  0.00000000000E+00 0. -1.
<mgrwt>
<rscale>  3 0.25611074E+03</rscale>
<asrwt>0</asrwt>
<pdfrwt beam="1">  1       21 0.11305814E-01 0.25611074E+03</pdfrwt>
<pdfrwt beam="2">  1       21 0.12117518E+00 0.25611074E+03</pdfrwt>
<totfact> 0.32546644E+04</totfact>
</mgrwt>
</event>
<event>
 4    0  0.1996019E-001  0.2495752E+03  0.7546771E-02  0.1113574E+00
         21   -1    0    0  502  501  0.00000000000E+00  0.00000000000E+00  0.59723740952E+03  0.59723740952E+03  0.00000000000E+00 0.  1.
         21   -1    0    0  503  502 -0.00000000000E+00 -0.00000000000E+00 -0.36436999465E+03  0.36436999465E+03  0.00000000000E+00 0. -1.
         25    1    1    2    0    0 -0.10142939666E+03 -0.19072196329E+03 -0.29786281047E+03  0.38860010763E+03  0.12500000000E+03 0.  0.
         21    1    1    2  503  501  0.10142939666E+03  0.19072196329E+03  0.53073022534E+03  0.57300729654E+03  0.00000000000E+00 0.  1.
<mgrwt>
<rscale>  3 0.24957522E+03</rscale>
<asrwt>0</asrwt>
<pdfrwt beam="1">  1       21 0.91882678E-01 0.24957522E+03</pdfrwt>
<pdfrwt beam="2">  1       21 0.56056922E-01 0.24957522E+03</pdfrwt>
<totfact> 0.28708948E+03</totfact>
</mgrwt>
</event>
<event>
 4    0  0.1078844E-001  0.2426489E+03  0.7546771E-02  0.1118041E+00
         21   -1    0    0  502  501  0.00000000000E+00  0.00000000000E+00  0.36468805719E+02  0.36468805719E+02  0.00000000000E+00 0.  1.
         21   -1    0    0  503  502 -0.00000000000E+00 -0.00000000000E+00 -0.18121731582E+04  0.18121731582E+04  0.00000000000E+00 0.  1.
         25    1    1    2    0    0 -0.16529341095E+03  0.12622035986E+03 -0.13843840116E+04  0.14054883787E+04  0.12500000000E+03 0.  0.
         21    1    1    2  503  501  0.16529341095E+03 -0.12622035986E+03 -0.39132034087E+03  0.44315358526E+03  0.00000000000E+00 0.  1.
<mgrwt>
<rscale>  3 0.24264890E+03</rscale>
<asrwt>0</asrwt>
<pdfrwt beam="1">  1       21 0.56105865E-02 0.24264890E+03</pdfrwt>
<pdfrwt beam="2">  1       21 0.27879582E+00 0.24264890E+03</pdfrwt>
<totfact> 0.95443837E+03</totfact>
</mgrwt>
</event>
<event>
 4    0  0.1005289E-001  0.2483569E+03  0.7546771E-02  0.1114348E+00
         21   -1    0    0  503  501  0.00000000000E+00  0.00000000000E+00  0.31066006040E+04  0.31066006040E+04  0.00000000000E+00 0.  1.
         21   -1    0    0  501  502 -0.00000000000E+00 -0.00000000000E+00 -0.31359738183E+02  0.31359738183E+02  0.00000000000E+00 0. -1.
         25    1    1    2    0    0 -0.61163328542E+02 -0.20570661051E+03  0.54832883813E+03  0.60195155710E+03  0.12500000000E+03 0.  0.
         21    1    1    2  503  502  0.61163328542E+02  0.20570661051E+03  0.25269120276E+04  0.25360087850E+04  0.00000000000E+00 0.  1.
<mgrwt>
<rscale>  3 0.24835693E+03</rscale>
<asrwt>0</asrwt>
<pdfrwt beam="1">  1       21 0.47793831E+00 0.24835693E+03</pdfrwt>
<pdfrwt beam="2">  1       21 0.48245776E-02 0.24835693E+03</pdfrwt>
<totfact> 0.71122799E+02</totfact>
</mgrwt>
</event>
<event>
 4    0  0.1180295E-001  0.3372114E+03  0.7546771E-02  0.1067990E+00
         21   -1    0    0  502  501  0.00000000000E+00  0.00000000000E+00  0.12603031295E+03  0.12603031295E+03  0.00000000000E+00 0.  1.
         21   -1    0    0  503  502 -0.00000000000E+00 -0.00000000000E+00 -0.10643912644E+04  0.10643912644E+04  0.00000000000E+00 0.  1.
         25    1    1    2    0    0  0.11565886366E+03  0.29104902439E+03 -0.75651963372E+03  0.82827137072E+03  0.12500000000E+03 0.  0.
         21    1    1    2  503  501 -0.11565886366E+03 -0.29104902439E+03 -0.18184131775E+03  0.36215020666E+03  0.00000000000E+00 0.  1.
<mgrwt>
<rscale>  3 0.33721137E+03</rscale>
<asrwt>0</asrwt>
<pdfrwt beam="1">  1       21 0.19389279E-01 0.33721137E+03</pdfrwt>
<pdfrwt beam="2">  1       21 0.16375250E+00 0.33721137E+03</pdfrwt>
<totfact> 0.52642112E+03</totfact>
</mgrwt>
</event>
<event>
 4    0  0.1174839E-001  0.3129732E+03  0.7546771E-02  0.1078929E+00
         21   -1    0    0  502  501  0.00000000000E+00  0.00000000000E+00  0.12274869638E+04  0.12274869638E+04  0.00000000000E+00 0.  1.
         21   -1    0    0  503  502 -0.00000000000E+00 -0.00000000000E+00 -0.13156139783E+03  0.13156139783E+03  0.00000000000E+00 0.  1.
         25    1    1    2    0    0 -0.59661208906E+02  0.28065591861E+03  0.10923946475E+03  0.33148976630E+03  0.12500000000E+03 0.  0.
         21    1    1    2  503  501  0.59661208906E+02 -0.28065591861E+03  0.98668610121E+03  0.10275585953E+04  0.00000000000E+00 0.  1.
<mgrwt>
<rscale>  3 0.31297317E+03</rscale>
<asrwt>0</asrwt>
<pdfrwt beam="1">  1       21 0.18884414E+00 0.31297317E+03</pdfrwt>
<pdfrwt beam="2">  1       21 0.20240216E-01 0.31297317E+03</pdfrwt>
<totfact> 0.32733153E+03</totfact>
</mgrwt>
</event>
<event>
 4    0  0.1005289E-001  0.2511024E+03  0.7546771E-02  0.1112610E+00
         21   -1    0    0  502  501  0.00000000000E+00  0.00000000000E+00  0.40089731555E+02  0.40089731555E+02  0.00000000000E+00 0. -1.
         21   -1    0    0  503  502 -0.00000000000E+00 -0.00000000000E+00 -0.14513064388E+04  0.14513064388E+04  0.00000000000E+00 0. -1.
         25    1    1    2    0    0  0.55775922634E+02  0.21051475228E+03 -0.57796882909E+03  0.63015901317E+03  0.12500000000E+03 0.  0.
         21    1    1    2  503  501 -0.55775922634E+02 -0.21051475228E+03 -0.83324787818E+03  0.86123715721E+03  0.00000000000E+00 0. -1.
<mgrwt>
<rscale>  3 0.25110240E+03</rscale>
<asrwt>0</asrwt>
<pdfrwt beam="1">  1       21 0.61676507E-02 0.25110240E+03</pdfrwt>
<pdfrwt beam="2">  1       21 0.22327792E+00 0.25110240E+03</pdfrwt>
<totfact> 0.17301215E+04</totfact>
</mgrwt>
</event>
<event>
 4    0  0.1005289E-001  0.2765662E+03  0.7546771E-02  0.1097579E+00
         21   -1    0    0  503  501  0.00000000000E+00  0.00000000000E+00  0.17406948820E+04  0.17406948820E+04  0.00000000000E+00 0. -1.
         21   -1    0    0  501  502 -0.00000000000E+00 -0.00000000000E+00 -0.42599896584E+02  0.42599896584E+02  0.00000000000E+00 0. -1.
         25    1    1    2    0    0 -0.86715780316E+02  0.23096374557E+03  0.11406100678E+04  0.11736610265E+04  0.12500000000E+03 0.  0.
         21    1    1    2  503  502  0.86715780316E+02 -0.23096374557E+03  0.55748491758E+03  0.60963375207E+03  0.00000000000E+00 0. -1.
<mgrwt>
<rscale>  3 0.27656623E+03</rscale>
<asrwt>0</asrwt>
<pdfrwt beam="1">  1       21 0.26779916E+00 0.27656623E+03</pdfrwt>
<pdfrwt beam="2">  1       21 0.65538316E-02 0.27656623E+03</pdfrwt>
<totfact> 0.82546236E+03</totfact>
</mgrwt>
</event>
<event>
 4    0  0.1234655E-001  0.2805843E+03  0.7546771E-02  0.1095370E+00
         21   -1    0    0  503  501  0.00000000000E+00  0.00000000000E+00  0.11920983088E+03  0.11920983088E+03  0.00000000000E+00 0. -1.
         21   -1    0    0  501  502 -0.00000000000E+00 -0.00000000000E+00 -0.10021877540E+04  0.10021877540E+04  0.00000000000E+00 0. -1.
         25    1    1    2    0    0 -0.22307245629E+03 -0.11550429320E+03 -0.81384652540E+03  0.86085639302E+03  0.12500000000E+03 0.  0.
         21    1    1    2  503  502  0.22307245629E+03  0.11550429320E+03 -0.69131397714E+02  0.26054119186E+03  0.00000000000E+00 0. -1.
<mgrwt>
<rscale>  3 0.28058432E+03</rscale>
<asrwt>0</asrwt>
<pdfrwt beam="1">  1       21 0.18339974E-01 0.28058432E+03</pdfrwt>
<pdfrwt beam="2">  1       21 0.15418273E+00 0.28058432E+03</pdfrwt>
<totfact> 0.71002180E+03</totfact>
</mgrwt>
</event>
<event>
 4    0  0.1005289E-001  0.2853884E+03  0.7546771E-02  0.1092782E+00
         21   -1    0    0  502  501  0.00000000000E+00  0.00000000000E+00  0.15975274656E+04  0.15975274656E+04  0.00000000000E+00 0. -1.
         21   -1    0    0  503  502 -0.00000000000E+00 -0.00000000000E+00 -0.12873951115E+03  0.12873951115E+03  0.00000000000E+00 0. -1.
         25    1    1    2    0    0 -0.21591454932E+03  0.13857281612E+03  0.56579043755E+02  0.29094278848E+03  0.12500000000E+03 0.  0.
         21    1    1    2  503  501  0.21591454932E+03 -0.13857281612E+03  0.14122089107E+04  0.14353241883E+04  0.00000000000E+00 0. -1.
<mgrwt>
<rscale>  3 0.28538836E+03</rscale>
<asrwt>0</asrwt>
<pdfrwt beam="1">  1       21 0.24577344E+00 0.28538836E+03</pdfrwt>
<pdfrwt beam="2">  1       21 0.19806080E-01 0.28538836E+03</pdfrwt>
<totfact> 0.15138362E+03</totfact>
</mgrwt>
</event>
<event>
 4    0  0.1005289E-001  0.2439302E+03  0.7546771E-02  0.1117202E+00
         21   -1    0    0  502  501  0.00000000000E+00  0.00000000000E+00  0.16761967547E+03  0.16761967547E+03  0.00000000000E+00 0.  1.
         21   -1    0    0  503  502 -0.00000000000E+00 -0.00000000000E+00 -0.35734173089E+03  0.35734173089E+03  0.00000000000E+00 0. -1.
         25    1    1    2    0    0 -0.18733700762E+03  0.93711193940E+02 -0.19970953938E+03  0.31525520204E+03  0.12500000000E+03 0.  0.
         21    1    1    2  503  501  0.18733700762E+03 -0.93711193940E+02  0.99874839617E+01  0.20970620431E+03  0.00000000000E+00 0.  1.
<mgrwt>
<rscale>  3 0.24393020E+03</rscale>
<asrwt>0</asrwt>
<pdfrwt beam="1">  1       21 0.25787643E-01 0.24393020E+03</pdfrwt>
<pdfrwt beam="2">  1       21 0.54975650E-01 0.24393020E+03</pdfrwt>
<totfact> 0.43511831E+04</totfact>
</mgrwt>
</event>
<event>
 4    0  0.1005289E-001  0.3736132E+03  0.7546771E-02  0.1053320E+00
         21   -1    0    0  502  501  0.00000000000E+00  0.00000000000E+00  0.20815731307E+03  0.20815731307E+03  0.00000000000E+00 0. -1.
         21   -1    0    0  503  502 -0.00000000000E+00 -0.00000000000E+00 -0.84670437179E+03  0.84670437179E+03  0.00000000000E+00 0.  1.
         25    1    1    2    0    0  0.19186106745E+03  0.29521378456E+03 -0.59155126972E+03  0.69965688199E+03  0.12500000000E+03 0.  0.
         21    1    1    2  503  501 -0.19186106745E+03 -0.29521378456E+03 -0.46995788995E+02  0.35520480287E+03  0.00000000000E+00 0. -1.
<mgrwt>
<rscale>  3 0.37361323E+03</rscale>
<asrwt>0</asrwt>
<pdfrwt beam="1">  1       21 0.32024203E-01 0.37361323E+03</pdfrwt>
<pdfrwt beam="2">  1       21 0.13026221E+00 0.37361323E+03</pdfrwt>
<totfact> 0.36113584E+03</totfact>
</mgrwt>
</event>
<event>
 4    0  0.1236461E-001  0.2634057E+03  0.7546771E-02  0.1105114E+00
         21   -1    0    0  502  501  0.00000000000E+00  0.00000000000E+00  0.84700355756E+03  0.84700355756E+03  0.00000000000E+00 0. -1.
         21   -1    0    0  503  502 -0.00000000000E+00 -0.00000000000E+00 -0.72489304544E+02  0.72489304544E+02  0.00000000000E+00 0. -1.
         25    1    1    2    0    0  0.30294405081E+02  0.22986909186E+03  0.42819372222E+03  0.50272498855E+03  0.12500000000E+03 0.  0.
         21    1    1    2  503  501 -0.30294405081E+02 -0.22986909186E+03  0.34632053080E+03  0.41676787355E+03  0.00000000000E+00 0. -1.
<mgrwt>
<rscale>  3 0.26340568E+03</rscale>
<asrwt>0</asrwt>
<pdfrwt beam="1">  1       21 0.13030823E+00 0.26340568E+03</pdfrwt>
<pdfrwt beam="2">  1       21 0.11152201E-01 0.26340568E+03</pdfrwt>
<totfact> 0.27658764E+04</totfact>
</mgrwt>
</event>
<event>
 4    0  0.1005289E-001  0.3990570E+03  0.7546771E-02  0.1044107E+00
         21   -1    0    0  502  501  0.00000000000E+00  0.00000000000E+00  0.14436467689E+04  0.14436467689E+04  0.00000000000E+00 0.  1.
         21   -1    0    0  503  502 -0.00000000000E+00 -0.00000000000E+00 -0.25066163830E+03  0.25066163830E+03  0.00000000000E+00 0.  1.
         25    1    1    2    0    0 -0.37869012432E+03 -0.14672738213E+02 -0.43151525628E+02  0.40138330019E+03  0.12500000000E+03 0.  0.
         21    1    1    2  503  501  0.37869012432E+03  0.14672738213E+02  0.12361366562E+04  0.12929251070E+04  0.00000000000E+00 0.  1.
<mgrwt>
<rscale>  3 0.39905701E+03</rscale>
<asrwt>0</asrwt>
<pdfrwt beam="1">  1       21 0.22209950E+00 0.39905701E+03</pdfrwt>
<pdfrwt beam="2">  1       21 0.38563330E-01 0.39905701E+03</pdfrwt>
<totfact> 0.53279178E+02</totfact>
</mgrwt>
</event>
<event>
 4    0  0.1453584E-001  0.2531617E+03  0.7546771E-02  0.1111323E+00
         21   -1    0    0  503  501  0.00000000000E+00  0.00000000000E+00  0.84357630872E+03  0.84357630872E+03  0.00000000000E+00 0. -1.
         21   -1    0    0  501  502 -0.00000000000E+00 -0.00000000000E+00 -0.69883423250E+02  0.69883423250E+02  0.00000000000E+00 0. -1.
         25    1    1    2    0    0  0.86765439148E+02  0.20233047372E+03  0.31061398679E+03  0.40071425083E+03  0.12500000000E+03 0.  0.
         21    1    1    2  503  502 -0.86765439148E+02 -0.20233047372E+03  0.46307889867E+03  0.51274548114E+03  0.00000000000E+00 0. -1.
<mgrwt>
<rscale>  3 0.25316173E+03</rscale>
<asrwt>0</asrwt>
<pdfrwt beam="1">  1       21 0.12978096E+00 0.25316173E+03</pdfrwt>
<pdfrwt beam="2">  1       21 0.10751296E-01 0.25316173E+03</pdfrwt>
<totfact> 0.29982575E+04</totfact>
</mgrwt>
</event>
<event>
 4    0  0.1005289E-001  0.3278176E+03  0.7546771E-02  0.1072107E+00
         21   -1    0    0  503  501  0.00000000000E+00  0.00000000000E+00  0.25725015338E+03  0.25725015338E+03  0.00000000000E+00 0.  1.
         21   -1    0    0  501  502 -0.00000000000E+00 -0.00000000000E+00 -0.39895252389E+03  0.39895252389E+03  0.00000000000E+00 0. -1.
         25    1    1    2    0    0 -0.25782155182E+02 -0.30195143398E+03 -0.13082224709E+03  0.35295728969E+03  0.12500000000E+03 0.  0.
         21    1    1    2  503  502  0.25782155182E+02  0.30195143398E+03 -0.10880123419E+02  0.30324538759E+03  0.00000000000E+00 0.  1.
<mgrwt>
<rscale>  3 0.32781761E+03</rscale>
<asrwt>0</asrwt>
<pdfrwt beam="1">  1       21 0.39576947E-01 0.32781761E+03</pdfrwt>
<pdfrwt beam="2">  1       21 0.61377311E-01 0.32781761E+03</pdfrwt>
<totfact> 0.14191548E+04</totfact>
</mgrwt>
</event>
<event>
 4    0  0.1476650E-001  0.2681308E+03  0.7546771E-02  0.1102354E+00
         21   -1    0    0  503  501  0.00000000000E+00  0.00000000000E+00  0.10437507183E+04  0.10437507183E+04  0.00000000000E+00 0.  1.
         21   -1    0    0  501  502 -0.00000000000E+00 -0.00000000000E+00 -0.76740967263E+02  0.76740967263E+02  0.00000000000E+00 0.  1.
         25    1    1    2    0    0  0.22108451600E+03 -0.85969609885E+02  0.25507205009E+03  0.37007551632E+03  0.12500000000E+03 0.  0.
         21    1    1    2  503  502 -0.22108451600E+03  0.85969609885E+02  0.71193770097E+03  0.75041616927E+03  0.00000000000E+00 0.  1.
<mgrwt>
<rscale>  3 0.26813082E+03</rscale>
<asrwt>0</asrwt>
<pdfrwt beam="1">  1       21 0.16057702E+00 0.26813082E+03</pdfrwt>
<pdfrwt beam="2">  1       21 0.11806303E-01 0.26813082E+03</pdfrwt>
<totfact> 0.14354610E+04</totfact>
</mgrwt>
</event>
<event>
 4    0  0.1325283E-001  0.2405617E+03  0.7546771E-02  0.1119419E+00
         21   -1    0    0  503  501  0.00000000000E+00  0.00000000000E+00  0.44022446879E+03  0.44022446879E+03  0.00000000000E+00 0.  1.
         21   -1    0    0  501  502 -0.00000000000E+00 -0.00000000000E+00 -0.22287497775E+03  0.22287497775E+03  0.00000000000E+00 0.  1.
         25    1    1    2    0    0 -0.58585237758E+02 -0.19700935848E+03 -0.11941326498E+03  0.26856925599E+03  0.12500000000E+03 0.  0.
         21    1    1    2  503  502  0.58585237758E+02  0.19700935848E+03  0.33676275602E+03  0.39453019054E+03  0.00000000000E+00 0.  1.
<mgrwt>
<rscale>  3 0.24056167E+03</rscale>
<asrwt>0</asrwt>
<pdfrwt beam="1">  1       21 0.67726841E-01 0.24056167E+03</pdfrwt>
<pdfrwt beam="2">  1       21 0.34288458E-01 0.24056167E+03</pdfrwt>
<totfact> 0.15878585E+04</totfact>
</mgrwt>
</event>
<event>
 4    0  0.1005289E-001  0.3113990E+03  0.7546771E-02  0.1079677E+00
         21   -1    0    0  503  501  0.00000000000E+00  0.00000000000E+00  0.74392336010E+02  0.74392336010E+02  0.00000000000E+00 0.  1.
         21   -1    0    0  501  502 -0.00000000000E+00 -0.00000000000E+00 -0.14086864393E+04  0.14086864393E+04  0.00000000000E+00 0.  1.
         25    1    1    2    0    0  0.28457123337E+03 -0.19067310070E+02 -0.40422562805E+03  0.51026239088E+03  0.12500000000E+03 0.  0.
         21    1    1    2  503  502 -0.28457123337E+03  0.19067310070E+02 -0.93006847520E+03  0.97281638439E+03  0.00000000000E+00 0.  1.
<mgrwt>
<rscale>  3 0.31139902E+03</rscale>
<asrwt>0</asrwt>
<pdfrwt beam="1">  1       21 0.11444976E-01 0.31139902E+03</pdfrwt>
<pdfrwt beam="2">  1       21 0.21672097E+00 0.31139902E+03</pdfrwt>
<totfact> 0.61658161E+03</totfact>
</mgrwt>
</event>
<event>
 4    0  0.1266665E-001  0.3069447E+03  0.7546771E-02  0.1081820E+00
         21   -1    0    0  503  501  0.00000000000E+00  0.00000000000E+00  0.20751816298E+03  0.20751816298E+03  0.00000000000E+00 0. -1.
         21   -1    0    0  501  502 -0.00000000000E+00 -0.00000000000E+00 -0.66337477147E+03  0.66337477147E+03  0.00000000000E+00 0. -1.
         25    1    1    2    0    0  0.15594292003E+03  0.23296323442E+03 -0.50039767710E+03  0.58703739075E+03  0.12500000000E+03 0.  0.
         21    1    1    2  503  502 -0.15594292003E+03 -0.23296323442E+03  0.44541068609E+02  0.28385554370E+03  0.00000000000E+00 0. -1.
<mgrwt>
<rscale>  3 0.30694472E+03</rscale>
<asrwt>0</asrwt>
<pdfrwt beam="1">  1       21 0.31925871E-01 0.30694472E+03</pdfrwt>
<pdfrwt beam="2">  1       21 0.10205766E+00 0.30694472E+03</pdfrwt>
<totfact> 0.68858546E+03</totfact>
</mgrwt>
</event>
<event>
 4    0  0.1005289E-001  0.2830453E+03  0.7546771E-02  0.1094037E+00
         21   -1    0    0  502  501  0.00000000000E+00  0.00000000000E+00  0.15894939886E+03  0.15894939886E+03  0.00000000000E+00 0. -1.
         21   -1    0    0  503  502 -0.00000000000E+00 -0.00000000000E+00 -0.56830812408E+03  0.56830812408E+03  0.00000000000E+00 0.  1.
         25    1    1    2    0    0  0.24426691232E+03 -0.69449918882E+02 -0.37674571448E+03  0.47122388423E+03  0.12500000000E+03 0.  0.
         21    1    1    2  503  501 -0.24426691232E+03  0.69449918882E+02 -0.32613010744E+02  0.25603363872E+03  0.00000000000E+00 0. -1.
<mgrwt>
<rscale>  3 0.28304525E+03</rscale>
<asrwt>0</asrwt>
<pdfrwt beam="1">  1       21 0.24453753E-01 0.28304525E+03</pdfrwt>
<pdfrwt beam="2">  1       21 0.87432020E-01 0.28304525E+03</pdfrwt>
<totfact> 0.16903769E+04</totfact>
</mgrwt>
</event>
<event>
 4    0  0.1383288E-001  0.2371719E+03  0.7546771E-02  0.1121691E+00
         21   -1    0    0  503  501  0.00000000000E+00  0.00000000000E+00  0.82145965255E+02  0.82145965255E+02  0.00000000000E+00 0. -1.
         21   -1    0    0  501  502 -0.00000000000E+00 -0.00000000000E+00 -0.70994901580E+03  0.70994901580E+03  0.00000000000E+00 0. -1.
         25    1    1    2    0    0  0.13882413072E+03 -0.14612793810E+03 -0.50009452319E+03  0.55348445840E+03  0.12500000000E+03 0.  0.
         21    1    1    2  503  502 -0.13882413072E+03  0.14612793810E+03 -0.12770852736E+03  0.23861052266E+03  0.00000000000E+00 0. -1.
<mgrwt>
<rscale>  3 0.23717191E+03</rscale>
<asrwt>0</asrwt>
<pdfrwt beam="1">  1       21 0.12637841E-01 0.23717191E+03</pdfrwt>
<pdfrwt beam="2">  1       21 0.10922292E+00 0.23717191E+03</pdfrwt>
<totfact> 0.34706952E+04</totfact>
</mgrwt>
</event>
<event>
 4    0  0.1468237E-001  0.2763832E+03  0.7546771E-02  0.1097681E+00
         21   -1    0    0  502  501  0.00000000000E+00  0.00000000000E+00  0.51619886496E+03  0.51619886496E+03  0.00000000000E+00 0.  1.
         21   -1    0    0  503  502 -0.00000000000E+00 -0.00000000000E+00 -0.17799680203E+03  0.17799680203E+03  0.00000000000E+00 0.  1.
         25    1    1    2    0    0  0.82598632372E+02  0.23225016847E+03  0.85435367866E+00  0.27638452334E+03  0.12500000000E+03 0.  0.
         21    1    1    2  503  501 -0.82598632372E+02 -0.23225016847E+03  0.33734770925E+03  0.41781114365E+03  0.00000000000E+00 0.  1.
<mgrwt>
<rscale>  3 0.27638320E+03</rscale>
<asrwt>0</asrwt>
<pdfrwt beam="1">  1       21 0.79415209E-01 0.27638320E+03</pdfrwt>
<pdfrwt beam="2">  1       21 0.27384124E-01 0.27638320E+03</pdfrwt>
<totfact> 0.16998749E+04</totfact>
</mgrwt>
</event>
<event>
 4    0  0.1175837E-001  0.2374655E+03  0.7546771E-02  0.1121493E+00
         21   -1    0    0  502  501  0.00000000000E+00  0.00000000000E+00  0.12675086295E+04  0.12675086295E+04  0.00000000000E+00 0. -1.
         21   -1    0    0  503  502 -0.00000000000E+00 -0.00000000000E+00 -0.38240444915E+02  0.38240444915E+02  0.00000000000E+00 0. -1.
         25    1    1    2    0    0 -0.59742686479E+02  0.19286182566E+03  0.70688820860E+03  0.74570826189E+03  0.12500000000E+03 0.  0.
         21    1    1    2  503  501  0.59742686479E+02 -0.19286182566E+03  0.52237997594E+03  0.56004081248E+03  0.00000000000E+00 0. -1.
<mgrwt>
<rscale>  3 0.23746552E+03</rscale>
<asrwt>0</asrwt>
<pdfrwt beam="1">  1       21 0.19500130E+00 0.23746552E+03</pdfrwt>
<pdfrwt beam="2">  1       21 0.58831464E-02 0.23746552E+03</pdfrwt>
<totfact> 0.28634740E+04</totfact>
</mgrwt>
</event>
<event>
 4    0  0.1157739E-001  0.3648254E+03  0.7546771E-02  0.1056689E+00
         21   -1    0    0  503  501  0.00000000000E+00  0.00000000000E+00  0.11215253013E+04  0.11215253013E+04  0.00000000000E+00 0.  1.
         21   -1    0    0  501  502 -0.00000000000E+00 -0.00000000000E+00 -0.18284905568E+03  0.18284905568E+03  0.00000000000E+00 0.  1.
         25    1    1    2    0    0  0.49698048990E+02  0.33912049523E+03  0.71288310161E+02  0.37172520701E+03  0.12500000000E+03 0.  0.
         21    1    1    2  503  502 -0.49698048990E+02 -0.33912049523E+03  0.86738793543E+03  0.93264914995E+03  0.00000000000E+00 0.  1.
<mgrwt>
<rscale>  3 0.36482545E+03</rscale>
<asrwt>0</asrwt>
<pdfrwt beam="1">  1       21 0.17254235E+00 0.36482545E+03</pdfrwt>
<pdfrwt beam="2">  1       21 0.28130625E-01 0.36482545E+03</pdfrwt>
<totfact> 0.21918380E+03</totfact>
</mgrwt>
</event>
<event>
 4    0  0.1005289E-001  0.2568040E+03  0.7546771E-02  0.1109079E+00
         21   -1    0    0  502  501  0.00000000000E+00  0.00000000000E+00  0.24327815180E+04  0.24327815180E+04  0.00000000000E+00 0.  1.
         21   -1    0    0  503  502 -0.00000000000E+00 -0.00000000000E+00 -0.28823757233E+02  0.28823757233E+02  0.00000000000E+00 0. -1.
         25    1    1    2    0    0  0.17556469727E+03  0.13964364648E+03  0.75547621396E+03  0.79793021048E+03  0.12500000000E+03 0.  0.
         21    1    1    2  503  501 -0.17556469727E+03 -0.13964364648E+03  0.16484815469E+04  0.16636750648E+04  0.00000000000E+00 0.  1.
<mgrwt>
<rscale>  3 0.25680403E+03</rscale>
<asrwt>0</asrwt>
<pdfrwt beam="1">  1       21 0.37427392E+00 0.25680403E+03</pdfrwt>
<pdfrwt beam="2">  1       21 0.44344261E-02 0.25680403E+03</pdfrwt>
<totfact> 0.38305491E+03</totfact>
</mgrwt>
</event>
<event>
 4    0  0.1037004E-001  0.2782732E+03  0.7546771E-02  0.1096636E+00
         21   -1    0    0  502  501  0.00000000000E+00  0.00000000000E+00  0.14089016295E+03  0.14089016295E+03  0.00000000000E+00 0.  1.
         21   -1    0    0  503  502 -0.00000000000E+00 -0.00000000000E+00 -0.13610733959E+04  0.13610733959E+04  0.00000000000E+00 0.  1.
         25    1    1    2    0    0 -0.20247738507E+03  0.14427016319E+03 -0.12220561057E+04  0.12533383809E+04  0.12500000000E+03 0.  0.
         21    1    1    2  503  501  0.20247738507E+03 -0.14427016319E+03  0.18728728065E+01  0.24862517794E+03  0.00000000000E+00 0.  1.
<mgrwt>
<rscale>  3 0.27827320E+03</rscale>
<asrwt>0</asrwt>
<pdfrwt beam="1">  1       21 0.21675409E-01 0.27827320E+03</pdfrwt>
<pdfrwt beam="2">  1       21 0.20939591E+00 0.27827320E+03</pdfrwt>
<totfact> 0.21551001E+03</totfact>
</mgrwt>
</event>
<event>
 4    0  0.1603397E-001  0.3064038E+03  0.7546771E-02  0.1082083E+00
         21   -1    0    0  503  501  0.00000000000E+00  0.00000000000E+00  0.11766433413E+03  0.11766433413E+03  0.00000000000E+00 0.  1.
         21   -1    0    0  501  502 -0.00000000000E+00 -0.00000000000E+00 -0.80882104575E+03  0.80882104575E+03  0.00000000000E+00 0.  1.
         25    1    1    2    0    0 -0.26619240291E+03  0.86022749297E+02 -0.50425342129E+03  0.59004645719E+03  0.12500000000E+03 0.  0.
         21    1    1    2  503  502  0.26619240291E+03 -0.86022749297E+02 -0.18690329033E+03  0.33643892269E+03  0.00000000000E+00 0.  1.
<mgrwt>
<rscale>  3 0.30640383E+03</rscale>
<asrwt>0</asrwt>
<pdfrwt beam="1">  1       21 0.18102205E-01 0.30640383E+03</pdfrwt>
<pdfrwt beam="2">  1       21 0.12443401E+00 0.30640383E+03</pdfrwt>
<totfact> 0.12571369E+04</totfact>
</mgrwt>
</event>
<event>
 4    0  0.1351214E-001  0.2962770E+03  0.7546771E-02  0.1087117E+00
         21   -1    0    0  502  501  0.00000000000E+00  0.00000000000E+00  0.12063148169E+04  0.12063148169E+04  0.00000000000E+00 0. -1.
         21   -1    0    0  503  502 -0.00000000000E+00 -0.00000000000E+00 -0.66138220169E+02  0.66138220169E+02  0.00000000000E+00 0. -1.
         25    1    1    2    0    0 -0.94081764014E+02 -0.25160224668E+03  0.59195684264E+03  0.66196145840E+03  0.12500000000E+03 0.  0.
         21    1    1    2  503  501  0.94081764014E+02  0.25160224668E+03  0.54821975407E+03  0.61049157865E+03  0.00000000000E+00 0. -1.
<mgrwt>
<rscale>  3 0.29627701E+03</rscale>
<asrwt>0</asrwt>
<pdfrwt beam="1">  1       21 0.18558688E+00 0.29627701E+03</pdfrwt>
<pdfrwt beam="2">  1       21 0.10175112E-01 0.29627701E+03</pdfrwt>
<totfact> 0.12277225E+04</totfact>
</mgrwt>
</event>
<event>
 4    0  0.1461839E-001  0.2792398E+03  0.7546771E-02  0.1096105E+00
         21   -1    0    0  503  501  0.00000000000E+00  0.00000000000E+00  0.32100856254E+03  0.32100856254E+03  0.00000000000E+00 0. -1.
         21   -1    0    0  501  502 -0.00000000000E+00 -0.00000000000E+00 -0.34071289620E+03  0.34071289620E+03  0.00000000000E+00 0. -1.
         25    1    1    2    0    0 -0.12431780901E+03 -0.21655238373E+03 -0.20865765947E+03  0.34858696388E+03  0.12500000000E+03 0.  0.
         21    1    1    2  503  502  0.12431780901E+03  0.21655238373E+03  0.18895332581E+03  0.31313449485E+03  0.00000000000E+00 0. -1.
<mgrwt>
<rscale>  3 0.27923978E+03</rscale>
<asrwt>0</asrwt>
<pdfrwt beam="1">  1       21 0.49385933E-01 0.27923978E+03</pdfrwt>
<pdfrwt beam="2">  1       21 0.52417369E-01 0.27923978E+03</pdfrwt>
<totfact> 0.12858350E+04</totfact>
</mgrwt>
</event>
<event>
 4    0  0.1239481E-001  0.2975533E+03  0.7546771E-02  0.1086470E+00
         21   -1    0    0  502  501  0.00000000000E+00  0.00000000000E+00  0.79455079230E+03  0.79455079230E+03  0.00000000000E+00 0. -1.
         21   -1    0    0  503  502 -0.00000000000E+00 -0.00000000000E+00 -0.10721132266E+03  0.10721132266E+03  0.00000000000E+00 0. -1.
         25    1    1    2    0    0  0.25463874324E+03 -0.89844789321E+02  0.46464206149E+03  0.55175195607E+03  0.12500000000E+03 0.  0.
         21    1    1    2  503  501 -0.25463874324E+03  0.89844789321E+02  0.22269740816E+03  0.35001015889E+03  0.00000000000E+00 0. -1.
<mgrwt>
<rscale>  3 0.29755332E+03</rscale>
<asrwt>0</asrwt>
<pdfrwt beam="1">  1       21 0.12223858E+00 0.29755332E+03</pdfrwt>
<pdfrwt beam="2">  1       21 0.16494050E-01 0.29755332E+03</pdfrwt>
<totfact> 0.15699504E+04</totfact>
</mgrwt>
</event>
<event>
 4    0  0.1005289E-001  0.4723780E+03  0.7546771E-02  0.1021251E+00
         21   -1    0    0  503  501  0.00000000000E+00  0.00000000000E+00  0.18797027487E+04  0.18797027487E+04  0.00000000000E+00 0.  1.
         21   -1    0    0  501  502 -0.00000000000E+00 -0.00000000000E+00 -0.34398242292E+03  0.34398242292E+03  0.00000000000E+00 0.  1.
         25    1    1    2    0    0  0.38985874320E+03 -0.23563983295E+03 -0.13555176287E+03  0.49144201178E+03  0.12500000000E+03 0.  0.
         21    1    1    2  503  502 -0.38985874320E+03  0.23563983295E+03  0.16712720887E+04  0.17322431599E+04  0.00000000000E+00 0.  1.
<mgrwt>
<rscale>  3 0.47237800E+03</rscale>
<asrwt>0</asrwt>
<pdfrwt beam="1">  1       21 0.28918503E+00 0.47237800E+03</pdfrwt>
<pdfrwt beam="2">  1       21 0.52920374E-01 0.47237800E+03</pdfrwt>
<totfact> 0.10200801E+02</totfact>
</mgrwt>
</event>
<event>
 4    0  0.1681198E-001  0.2615918E+03  0.7546771E-02  0.1106191E+00
         21   -1    0    0  503  501  0.00000000000E+00  0.00000000000E+00  0.16675310010E+03  0.16675310010E+03  0.00000000000E+00 0.  1.
         21   -1    0    0  501  502 -0.00000000000E+00 -0.00000000000E+00 -0.38263313155E+03  0.38263313155E+03  0.00000000000E+00 0.  1.
         25    1    1    2    0    0  0.22483424516E+03  0.47484891869E+02 -0.17820650718E+03  0.31652458349E+03  0.12500000000E+03 0.  0.
         21    1    1    2  503  502 -0.22483424516E+03 -0.47484891869E+02 -0.37673524273E+02  0.23286164816E+03  0.00000000000E+00 0.  1.
<mgrwt>
<rscale>  3 0.26159177E+03</rscale>
<asrwt>0</asrwt>
<pdfrwt beam="1">  1       21 0.25654323E-01 0.26159177E+03</pdfrwt>
<pdfrwt beam="2">  1       21 0.58866635E-01 0.26159177E+03</pdfrwt>
<totfact> 0.37685617E+04</totfact>
</mgrwt>
</event>
<event>
 4    0  0.1254183E-001  0.3295395E+03  0.7546771E-02  0.1071341E+00
         21   -1    0    0  503  501  0.00000000000E+00  0.00000000000E+00  0.22781840259E+03  0.22781840259E+03  0.00000000000E+00 0. -1.
         21   -1    0    0  501  502 -0.00000000000E+00 -0.00000000000E+00 -0.70040049267E+03  0.70040049267E+03  0.00000000000E+00 0. -1.
         25    1    1    2    0    0 -0.15520303636E+03 -0.26245626466E+03 -0.52399300522E+03  0.61900318487E+03  0.12500000000E+03 0.  0.
         21    1    1    2  503  502  0.15520303636E+03  0.26245626466E+03  0.51410915142E+02  0.30921571039E+03  0.00000000000E+00 0. -1.
<mgrwt>
<rscale>  3 0.32953949E+03</rscale>
<asrwt>0</asrwt>
<pdfrwt beam="1">  1       21 0.35048986E-01 0.32953949E+03</pdfrwt>
<pdfrwt beam="2">  1       21 0.10775392E+00 0.32953949E+03</pdfrwt>
<totfact> 0.49526895E+03</totfact>
</mgrwt>
</event>
<event>
 4    0  0.1408889E-001  0.2359692E+03  0.7546771E-02  0.1122507E+00
         21   -1    0    0  502  501  0.00000000000E+00  0.00000000000E+00  0.15445036418E+03  0.15445036418E+03  0.00000000000E+00 0.  1.
         21   -1    0    0  503  502 -0.00000000000E+00 -0.00000000000E+00 -0.33697607389E+03  0.33697607389E+03  0.00000000000E+00 0.  1.
         25    1    1    2    0    0  0.19981527491E+03  0.11416737340E+02 -0.17012389092E+03  0.29090139951E+03  0.12500000000E+03 0.  0.
         21    1    1    2  503  501 -0.19981527491E+03 -0.11416737340E+02 -0.12401818798E+02  0.20052503856E+03  0.00000000000E+00 0.  1.
<mgrwt>
<rscale>  3 0.23596925E+03</rscale>
<asrwt>0</asrwt>
<pdfrwt beam="1">  1       21 0.23761595E-01 0.23596925E+03</pdfrwt>
<pdfrwt beam="2">  1       21 0.51842472E-01 0.23596925E+03</pdfrwt>
<totfact> 0.57825328E+04</totfact>
</mgrwt>
</event>
<event>
 4    0  0.1144059E-001  0.2976257E+03  0.7546771E-02  0.1086434E+00
         21   -1    0    0  503  501  0.00000000000E+00  0.00000000000E+00  0.26911647744E+03  0.26911647744E+03  0.00000000000E+00 0. -1.
         21   -1    0    0  501  502 -0.00000000000E+00 -0.00000000000E+00 -0.98601338086E+03  0.98601338086E+03  0.00000000000E+00 0. -1.
         25    1    1    2    0    0 -0.23685780448E+03  0.12982452967E+03 -0.88721914019E+03  0.93580918501E+03  0.12500000000E+03 0.  0.
         21    1    1    2  503  502  0.23685780448E+03 -0.12982452967E+03  0.17032223677E+03  0.31932067328E+03  0.00000000000E+00 0. -1.
<mgrwt>
<rscale>  3 0.29762565E+03</rscale>
<asrwt>0</asrwt>
<pdfrwt beam="1">  1       21 0.41402534E-01 0.29762565E+03</pdfrwt>
<pdfrwt beam="2">  1       21 0.15169437E+00 0.29762565E+03</pdfrwt>
<totfact> 0.14979869E+03</totfact>
</mgrwt>
</event>
<event>
 4    0  0.1373544E-001  0.2886858E+03  0.7546771E-02  0.1091037E+00
         21   -1    0    0  503  501  0.00000000000E+00  0.00000000000E+00  0.72864030370E+03  0.72864030370E+03  0.00000000000E+00 0.  1.
         21   -1    0    0  501  502 -0.00000000000E+00 -0.00000000000E+00 -0.12133244178E+03  0.12133244178E+03  0.00000000000E+00 0.  1.
         25    1    1    2    0    0  0.69111326032E+02  0.25087466491E+03  0.15376906668E+03  0.32708469659E+03  0.12500000000E+03 0.  0.
         21    1    1    2  503  502 -0.69111326032E+02 -0.25087466491E+03  0.45353879524E+03  0.52288804889E+03  0.00000000000E+00 0.  1.
<mgrwt>
<rscale>  3 0.28868577E+03</rscale>
<asrwt>0</asrwt>
<pdfrwt beam="1">  1       21 0.11209850E+00 0.28868577E+03</pdfrwt>
<pdfrwt beam="2">  1       21 0.18666530E-01 0.28868577E+03</pdfrwt>
<totfact> 0.15526400E+04</totfact>
</mgrwt>
</event>
<event>
 4    0  0.1401478E-001  0.3423827E+03  0.7546771E-02  0.1065786E+00
         21   -1    0    0  503  501  0.00000000000E+00  0.00000000000E+00  0.44492992018E+03  0.44492992018E+03  0.00000000000E+00 0. -1.
         21   -1    0    0  501  502 -0.00000000000E+00 -0.00000000000E+00 -0.26718052732E+03  0.26718052732E+03  0.00000000000E+00 0. -1.
         25    1    1    2    0    0  0.25400156736E+03 -0.19257228252E+03 -0.93429230897E+01  0.34251010267E+03  0.12500000000E+03 0.  0.
         21    1    1    2  503  502 -0.25400156736E+03  0.19257228252E+03  0.18709231595E+03  0.36960034484E+03  0.00000000000E+00 0. -1.
<mgrwt>
<rscale>  3 0.34238265E+03</rscale>
<asrwt>0</asrwt>
<pdfrwt beam="1">  1       21 0.68450757E-01 0.34238265E+03</pdfrwt>
<pdfrwt beam="2">  1       21 0.41104696E-01 0.34238265E+03</pdfrwt>
<totfact> 0.10264526E+04</totfact>
</mgrwt>
</event>
<event>
 4    0  0.1005289E-001  0.5305696E+03  0.7546771E-02  0.1006094E+00
         21   -1    0    0  503  501  0.00000000000E+00  0.00000000000E+00  0.15710981042E+03  0.15710981042E+03  0.00000000000E+00 0.  1.
         21   -1    0    0  501  502 -0.00000000000E+00 -0.00000000000E+00 -0.18201018481E+04  0.18201018481E+04  0.00000000000E+00 0.  1.
         25    1    1    2    0    0 -0.50341404220E+03 -0.11159473625E+03 -0.63767344310E+03  0.82953692086E+03  0.12500000000E+03 0.  0.
         21    1    1    2  503  502  0.50341404220E+03  0.11159473625E+03 -0.10253185946E+04  0.11476747376E+04  0.00000000000E+00 0.  1.
<mgrwt>
<rscale>  3 0.53056958E+03</rscale>
<asrwt>0</asrwt>
<pdfrwt beam="1">  1       21 0.24170739E-01 0.53056958E+03</pdfrwt>
<pdfrwt beam="2">  1       21 0.28001568E+00 0.53056958E+03</pdfrwt>
<totfact> 0.55547434E+02</totfact>
</mgrwt>
</event>
<event>
 4    0  0.1185228E-001  0.4174764E+03  0.7546771E-02  0.1037891E+00
         21   -1    0    0  502  501  0.00000000000E+00  0.00000000000E+00  0.12750609020E+04  0.12750609020E+04  0.00000000000E+00 0.  1.
         21   -1    0    0  503  502 -0.00000000000E+00 -0.00000000000E+00 -0.13201675424E+03  0.13201675424E+03  0.00000000000E+00 0.  1.
         25    1    1    2    0    0 -0.39727610188E+03 -0.28866189183E+02  0.66042952816E+03  0.78131537785E+03  0.12500000000E+03 0.  0.
         21    1    1    2  503  501  0.39727610188E+03  0.28866189183E+02  0.48261461958E+03  0.62576227837E+03  0.00000000000E+00 0.  1.
<mgrwt>
<rscale>  3 0.41747642E+03</rscale>
<asrwt>0</asrwt>
<pdfrwt beam="1">  1       21 0.19616321E+00 0.41747642E+03</pdfrwt>
<pdfrwt beam="2">  1       21 0.20310271E-01 0.41747642E+03</pdfrwt>
<totfact> 0.27518990E+03</totfact>
</mgrwt>
</event>
<event>
 4    0  0.1005289E-001  0.3740568E+03  0.7546771E-02  0.1053153E+00
         21   -1    0    0  502  501  0.00000000000E+00  0.00000000000E+00  0.19842181720E+03  0.19842181720E+03  0.00000000000E+00 0.  1.
         21   -1    0    0  503  502 -0.00000000000E+00 -0.00000000000E+00 -0.76153406637E+03  0.76153406637E+03  0.00000000000E+00 0. -1.
         25    1    1    2    0    0 -0.21322456669E+02 -0.35190739286E+03 -0.45948164354E+03  0.59248784043E+03  0.12500000000E+03 0.  0.
         21    1    1    2  503  501  0.21322456669E+02  0.35190739286E+03 -0.10363060562E+03  0.36746804314E+03  0.00000000000E+00 0.  1.
<mgrwt>
<rscale>  3 0.37405676E+03</rscale>
<asrwt>0</asrwt>
<pdfrwt beam="1">  1       21 0.30526434E-01 0.37405676E+03</pdfrwt>
<pdfrwt beam="2">  1       21 0.11715908E+00 0.37405676E+03</pdfrwt>
<totfact> 0.52032440E+03</totfact>
</mgrwt>
</event>
<event>
 4    0  0.1843863E-001  0.2643826E+03  0.7546771E-02  0.1104538E+00
         21   -1    0    0  503  501  0.00000000000E+00  0.00000000000E+00  0.44757057614E+03  0.44757057614E+03  0.00000000000E+00 0. -1.
         21   -1    0    0  501  502 -0.00000000000E+00 -0.00000000000E+00 -0.72978296669E+03  0.72978296669E+03  0.00000000000E+00 0.  1.
         25    1    1    2    0    0  0.22441565126E+03 -0.62536358831E+02 -0.67262346071E+03  0.72271744175E+03  0.12500000000E+03 0.  0.
         21    1    1    2  503  502 -0.22441565126E+03  0.62536358831E+02  0.39041107015E+03  0.45463610108E+03  0.00000000000E+00 0. -1.
<mgrwt>
<rscale>  3 0.26438264E+03</rscale>
<asrwt>0</asrwt>
<pdfrwt beam="1">  1       21 0.68857012E-01 0.26438264E+03</pdfrwt>
<pdfrwt beam="2">  1       21 0.11227430E+00 0.26438264E+03</pdfrwt>
<totfact> 0.11225236E+03</totfact>
</mgrwt>
</event>
<event>
 4    0  0.1610177E-001  0.2768973E+03  0.7546771E-02  0.1097396E+00
         21   -1    0    0  503  501  0.00000000000E+00  0.00000000000E+00  0.26086540203E+03  0.26086540203E+03  0.00000000000E+00 0.  1.
         21   -1    0    0  501  502 -0.00000000000E+00 -0.00000000000E+00 -0.31155750396E+03  0.31155750396E+03  0.00000000000E+00 0.  1.
         25    1    1    2    0    0  0.24313019641E+03  0.43986805007E+02 -0.13926873144E+03  0.30994823919E+03  0.12500000000E+03 0.  0.
         21    1    1    2  503  502 -0.24313019641E+03 -0.43986805007E+02  0.88576629507E+02  0.26247466681E+03  0.00000000000E+00 0.  1.
<mgrwt>
<rscale>  3 0.27689733E+03</rscale>
<asrwt>0</asrwt>
<pdfrwt beam="1">  1       21 0.40133139E-01 0.27689733E+03</pdfrwt>
<pdfrwt beam="2">  1       21 0.47931923E-01 0.27689733E+03</pdfrwt>
<totfact> 0.23870268E+04</totfact>
</mgrwt>
</event>
<event>
 4    0  0.1348703E-001  0.3771928E+03  0.7546771E-02  0.1051976E+00
         21   -1    0    0  503  501  0.00000000000E+00  0.00000000000E+00  0.38260119491E+03  0.38260119491E+03  0.00000000000E+00 0.  1.
         21   -1    0    0  501  502 -0.00000000000E+00 -0.00000000000E+00 -0.40613817640E+03  0.40613817640E+03  0.00000000000E+00 0.  1.
         25    1    1    2    0    0  0.33873703543E+03 -0.10911740393E+03 -0.15712984151E+03  0.40861249872E+03  0.12500000000E+03 0.  0.
         21    1    1    2  503  502 -0.33873703543E+03  0.10911740393E+03  0.13359286003E+03  0.38012687259E+03  0.00000000000E+00 0.  1.
<mgrwt>
<rscale>  3 0.37719277E+03</rscale>
<asrwt>0</asrwt>
<pdfrwt beam="1">  1       21 0.58861722E-01 0.37719277E+03</pdfrwt>
<pdfrwt beam="2">  1       21 0.62482796E-01 0.37719277E+03</pdfrwt>
<totfact> 0.58034237E+03</totfact>
</mgrwt>
</event>
<event>
 4    0  0.1604398E-001  0.2391529E+03  0.7546771E-02  0.1120358E+00
         21   -1    0    0  503  501  0.00000000000E+00  0.00000000000E+00  0.11211911532E+03  0.11211911532E+03  0.00000000000E+00 0.  1.
         21   -1    0    0  501  502 -0.00000000000E+00 -0.00000000000E+00 -0.17886877134E+04  0.17886877134E+04  0.00000000000E+00 0. -1.
         25    1    1    2    0    0 -0.11647616951E+03 -0.16733914967E+03 -0.16799565802E+04  0.16968936915E+04  0.12500000000E+03 0.  0.
         21    1    1    2  503  502  0.11647616951E+03  0.16733914967E+03  0.33879821425E+01  0.20391313714E+03  0.00000000000E+00 0.  1.
<mgrwt>
<rscale>  3 0.23915286E+03</rscale>
<asrwt>0</asrwt>
<pdfrwt beam="1">  1       21 0.17249096E-01 0.23915286E+03</pdfrwt>
<pdfrwt beam="2">  1       21 0.27518271E+00 0.23915286E+03</pdfrwt>
<totfact> 0.13667272E+03</totfact>
</mgrwt>
</event>
<event>
 4    0  0.1399313E-001  0.2472075E+03  0.7546771E-02  0.1115082E+00
         21   -1    0    0  503  501  0.00000000000E+00  0.00000000000E+00  0.12594189201E+03  0.12594189201E+03  0.00000000000E+00 0. -1.
         21   -1    0    0  501  502 -0.00000000000E+00 -0.00000000000E+00 -0.45240606836E+03  0.45240606836E+03  0.00000000000E+00 0. -1.
         25    1    1    2    0    0 -0.25984413002E+01  0.21325988636E+03 -0.25052034286E+03  0.35195450447E+03  0.12500000000E+03 0.  0.
         21    1    1    2  503  502  0.25984413002E+01 -0.21325988636E+03 -0.75943833491E+02  0.22639345590E+03  0.00000000000E+00 0. -1.
<mgrwt>
<rscale>  3 0.24720747E+03</rscale>
<asrwt>0</asrwt>
<pdfrwt beam="1">  1       21 0.19375675E-01 0.24720747E+03</pdfrwt>
<pdfrwt beam="2">  1       21 0.69600935E-01 0.24720747E+03</pdfrwt>
<totfact> 0.44801271E+04</totfact>
</mgrwt>
</event>
<event>
 4    0  0.1583059E-001  0.2818740E+03  0.7546771E-02  0.1094670E+00
         21   -1    0    0  503  501  0.00000000000E+00  0.00000000000E+00  0.10386064795E+04  0.10386064795E+04  0.00000000000E+00 0.  1.
         21   -1    0    0  501  502 -0.00000000000E+00 -0.00000000000E+00 -0.19650857952E+03  0.19650857952E+03  0.00000000000E+00 0. -1.
         25    1    1    2    0    0  0.25264185143E+03 -0.24607926617E+00 -0.68534679302E+02  0.29008613878E+03  0.12500000000E+03 0.  0.
         21    1    1    2  503  502 -0.25264185143E+03  0.24607926617E+00  0.91063257932E+03  0.94502892028E+03  0.00000000000E+00 0.  1.
<mgrwt>
<rscale>  3 0.28187402E+03</rscale>
<asrwt>0</asrwt>
<pdfrwt beam="1">  1       21 0.15978561E+00 0.28187402E+03</pdfrwt>
<pdfrwt beam="2">  1       21 0.30232090E-01 0.28187402E+03</pdfrwt>
<totfact> 0.24711015E+03</totfact>
</mgrwt>
</event>
<event>
 4    0  0.1469714E-001  0.2547850E+03  0.7546771E-02  0.1110318E+00
         21   -1    0    0  503  501  0.00000000000E+00  0.00000000000E+00  0.18245711123E+03  0.18245711123E+03  0.00000000000E+00 0.  1.
         21   -1    0    0  501  502 -0.00000000000E+00 -0.00000000000E+00 -0.41887836719E+03  0.41887836719E+03  0.00000000000E+00 0.  1.
         25    1    1    2    0    0  0.17852581263E+03 -0.13198082179E+03 -0.27621893078E+03  0.37578225186E+03  0.12500000000E+03 0.  0.
         21    1    1    2  503  502 -0.17852581263E+03  0.13198082179E+03  0.39797674817E+02  0.22555322657E+03  0.00000000000E+00 0.  1.
<mgrwt>
<rscale>  3 0.25478501E+03</rscale>
<asrwt>0</asrwt>
<pdfrwt beam="1">  1       21 0.28070325E-01 0.25478501E+03</pdfrwt>
<pdfrwt beam="2">  1       21 0.64442826E-01 0.25478501E+03</pdfrwt>
<totfact> 0.26079773E+04</totfact>
</mgrwt>
</event>
<event>
 4    0  0.1912692E-001  0.2441191E+03  0.7546771E-02  0.1117079E+00
         21   -1    0    0  502  501  0.00000000000E+00  0.00000000000E+00  0.12613525454E+04  0.12613525454E+04  0.00000000000E+00 0.  1.
         21   -1    0    0  503  502 -0.00000000000E+00 -0.00000000000E+00 -0.19260263570E+03  0.19260263570E+03  0.00000000000E+00 0. -1.
         25    1    1    2    0    0 -0.18538610997E+03 -0.97985222417E+02 -0.10200273707E+03  0.26457262132E+03  0.12500000000E+03 0.  0.
         21    1    1    2  503  501  0.18538610997E+03  0.97985222417E+02  0.11707526467E+04  0.11893825597E+04  0.00000000000E+00 0.  1.
<mgrwt>
<rscale>  3 0.24411906E+03</rscale>
<asrwt>0</asrwt>
<pdfrwt beam="1">  1       21 0.19405423E+00 0.24411906E+03</pdfrwt>
<pdfrwt beam="2">  1       21 0.29631176E-01 0.24411906E+03</pdfrwt>
<totfact> 0.15243729E+03</totfact>
</mgrwt>
</event>
<event>
 4    0  0.1040167E-001  0.2882388E+03  0.7546771E-02  0.1091272E+00
         21   -1    0    0  503  501  0.00000000000E+00  0.00000000000E+00  0.62699682202E+03  0.62699682202E+03  0.00000000000E+00 0.  1.
         21   -1    0    0  501  502 -0.00000000000E+00 -0.00000000000E+00 -0.17160200333E+03  0.17160200333E+03  0.00000000000E+00 0. -1.
         25    1    1    2    0    0  0.78021577402E+02  0.24772817727E+03  0.16621310476E+02  0.28871765501E+03  0.12500000000E+03 0.  0.
         21    1    1    2  503  502 -0.78021577402E+02 -0.24772817727E+03  0.43877350822E+03  0.50988117034E+03  0.00000000000E+00 0.  1.
<mgrwt>
<rscale>  3 0.28823882E+03</rscale>
<asrwt>0</asrwt>
<pdfrwt beam="1">  1       21 0.96461048E-01 0.28823882E+03</pdfrwt>
<pdfrwt beam="2">  1       21 0.26400309E-01 0.28823882E+03</pdfrwt>
<totfact> 0.11545982E+04</totfact>
</mgrwt>
</event>
<event>
 4    0  0.1531422E-001  0.2585041E+03  0.7546771E-02  0.1108045E+00
         21   -1    0    0  503  501  0.00000000000E+00  0.00000000000E+00  0.43948273121E+03  0.43948273121E+03  0.00000000000E+00 0. -1.
         21   -1    0    0  501  502 -0.00000000000E+00 -0.00000000000E+00 -0.16022726806E+03  0.16022726806E+03  0.00000000000E+00 0. -1.
         25    1    1    2    0    0 -0.66397540639E+02  0.21631165279E+03  0.25555274223E+02  0.25976419418E+03  0.12500000000E+03 0.  0.
         21    1    1    2  503  502  0.66397540639E+02 -0.21631165279E+03  0.25370018893E+03  0.33994580509E+03  0.00000000000E+00 0. -1.
<mgrwt>
<rscale>  3 0.25850409E+03</rscale>
<asrwt>0</asrwt>
<pdfrwt beam="1">  1       21 0.67612727E-01 0.25850409E+03</pdfrwt>
<pdfrwt beam="2">  1       21 0.24650349E-01 0.25850409E+03</pdfrwt>
<totfact> 0.30116838E+04</totfact>
</mgrwt>
</event>
<event>
 4    0  0.1461281E-001  0.2452267E+03  0.7546771E-02  0.1116359E+00
         21   -1    0    0  502  501  0.00000000000E+00  0.00000000000E+00  0.13741428892E+03  0.13741428892E+03  0.00000000000E+00 0.  1.
         21   -1    0    0  503  502 -0.00000000000E+00 -0.00000000000E+00 -0.47736556294E+03  0.47736556294E+03  0.00000000000E+00 0.  1.
         25    1    1    2    0    0  0.14521839408E+03 -0.15304489450E+03 -0.31957662542E+03  0.40282172388E+03  0.12500000000E+03 0.  0.
         21    1    1    2  503  501 -0.14521839408E+03  0.15304489450E+03 -0.20374648609E+02  0.21195812799E+03  0.00000000000E+00 0.  1.
<mgrwt>
<rscale>  3 0.24522667E+03</rscale>
<asrwt>0</asrwt>
<pdfrwt beam="1">  1       21 0.21140660E-01 0.24522667E+03</pdfrwt>
<pdfrwt beam="2">  1       21 0.73440856E-01 0.24522667E+03</pdfrwt>
<totfact> 0.33767148E+04</totfact>
</mgrwt>
</event>
<event>
 4    0  0.1334634E-001  0.2605383E+03  0.7546771E-02  0.1106820E+00
         21   -1    0    0  503  501  0.00000000000E+00  0.00000000000E+00  0.17391531496E+03  0.17391531496E+03  0.00000000000E+00 0. -1.
         21   -1    0    0  501  502 -0.00000000000E+00 -0.00000000000E+00 -0.34494918666E+03  0.34494918666E+03  0.00000000000E+00 0. -1.
         25    1    1    2    0    0 -0.14154348318E+03 -0.17950109811E+03 -0.76930241941E+02  0.27165872704E+03  0.12500000000E+03 0.  0.
         21    1    1    2  503  502  0.14154348318E+03  0.17950109811E+03 -0.94103629758E+02  0.24720577458E+03  0.00000000000E+00 0. -1.
<mgrwt>
<rscale>  3 0.26053829E+03</rscale>
<asrwt>0</asrwt>
<pdfrwt beam="1">  1       21 0.26756203E-01 0.26053829E+03</pdfrwt>
<pdfrwt beam="2">  1       21 0.53069105E-01 0.26053829E+03</pdfrwt>
<totfact> 0.43383263E+04</totfact>
</mgrwt>
</event>
<event>
 4    0  0.1005289E-001  0.2412411E+03  0.7546771E-02  0.1118969E+00
         21   -1    0    0  503  501  0.00000000000E+00  0.00000000000E+00  0.35259380607E+03  0.35259380607E+03  0.00000000000E+00 0. -1.
         21   -1    0    0  501  502 -0.00000000000E+00 -0.00000000000E+00 -0.18641142906E+03  0.18641142906E+03  0.00000000000E+00 0.  1.
         25    1    1    2    0    0  0.16359848602E+02 -0.20568086290E+03 -0.43161031810E+02  0.24507169702E+03  0.12500000000E+03 0.  0.
         21    1    1    2  503  502 -0.16359848602E+02  0.20568086290E+03  0.20934340882E+03  0.29393353811E+03  0.00000000000E+00 0. -1.
<mgrwt>
<rscale>  3 0.24124109E+03</rscale>
<asrwt>0</asrwt>
<pdfrwt beam="1">  1       21 0.54245201E-01 0.24124109E+03</pdfrwt>
<pdfrwt beam="2">  1       21 0.28678681E-01 0.24124109E+03</pdfrwt>
<totfact> 0.36478382E+04</totfact>
</mgrwt>
</event>
<event>
 4    0  0.1005289E-001  0.2873082E+03  0.7546771E-02  0.1091763E+00
         21   -1    0    0  502  501  0.00000000000E+00  0.00000000000E+00  0.66862969159E+02  0.66862969159E+02  0.00000000000E+00 0. -1.
         21   -1    0    0  503  502 -0.00000000000E+00 -0.00000000000E+00 -0.14349849074E+04  0.14349849074E+04  0.00000000000E+00 0. -1.
         25    1    1    2    0    0 -0.25826224399E+03 -0.14886949109E+02 -0.35749669445E+03  0.45863917677E+03  0.12500000000E+03 0.  0.
         21    1    1    2  503  501  0.25826224399E+03  0.14886949109E+02 -0.10106252437E+04  0.10432086997E+04  0.00000000000E+00 0. -1.
<mgrwt>
<rscale>  3 0.28730821E+03</rscale>
<asrwt>0</asrwt>
<pdfrwt beam="1">  1       21 0.10286611E-01 0.28730821E+03</pdfrwt>
<pdfrwt beam="2">  1       21 0.22076689E+00 0.28730821E+03</pdfrwt>
<totfact> 0.71437635E+03</totfact>
</mgrwt>
</event>
<event>
 4    0  0.1586491E-001  0.2626998E+03  0.7546771E-02  0.1105532E+00
         21   -1    0    0  503  501  0.00000000000E+00  0.00000000000E+00  0.44593755675E+03  0.44593755675E+03  0.00000000000E+00 0.  1.
         21   -1    0    0  501  502 -0.00000000000E+00 -0.00000000000E+00 -0.16512846291E+03  0.16512846291E+03  0.00000000000E+00 0.  1.
         25    1    1    2    0    0  0.18685353788E+03  0.13591151267E+03  0.21239607431E+02  0.26355702385E+03  0.12500000000E+03 0.  0.
         21    1    1    2  503  502 -0.18685353788E+03 -0.13591151267E+03  0.25956948640E+03  0.34750899581E+03  0.00000000000E+00 0.  1.
<mgrwt>
<rscale>  3 0.26269980E+03</rscale>
<asrwt>0</asrwt>
<pdfrwt beam="1">  1       21 0.68605777E-01 0.26269980E+03</pdfrwt>
<pdfrwt beam="2">  1       21 0.25404379E-01 0.26269980E+03</pdfrwt>
<totfact> 0.27469902E+04</totfact>
</mgrwt>
</event>
<event>
 4    0  0.1421591E-001  0.2438004E+03  0.7546771E-02  0.1117287E+00
         21   -1    0    0  503  501  0.00000000000E+00  0.00000000000E+00  0.11640543104E+03  0.11640543104E+03  0.00000000000E+00 0. -1.
         21   -1    0    0  501  502 -0.00000000000E+00 -0.00000000000E+00 -0.12974356237E+04  0.12974356237E+04  0.00000000000E+00 0.  1.
         25    1    1    2    0    0  0.36220094822E+02 -0.20615948037E+03 -0.11795878452E+04  0.12045190373E+04  0.12500000000E+03 0.  0.
         21    1    1    2  503  502 -0.36220094822E+02  0.20615948037E+03 -0.14423474192E+01  0.20932201743E+03  0.00000000000E+00 0. -1.
<mgrwt>
<rscale>  3 0.24380038E+03</rscale>
<asrwt>0</asrwt>
<pdfrwt beam="1">  1       21 0.17908528E-01 0.24380038E+03</pdfrwt>
<pdfrwt beam="2">  1       21 0.19960548E+00 0.24380038E+03</pdfrwt>
<totfact> 0.36603937E+03</totfact>
</mgrwt>
</event>
<event>
 4    0  0.1005289E-001  0.4330852E+03  0.7546771E-02  0.1032890E+00
         21   -1    0    0  503  501  0.00000000000E+00  0.00000000000E+00  0.22409711422E+04  0.22409711422E+04  0.00000000000E+00 0.  1.
         21   -1    0    0  501  502 -0.00000000000E+00 -0.00000000000E+00 -0.11144004796E+03  0.11144004796E+03  0.00000000000E+00 0.  1.
         25    1    1    2    0    0 -0.40947626872E+03 -0.65321763099E+02  0.45850010459E+03  0.63070206381E+03  0.12500000000E+03 0.  0.
         21    1    1    2  503  502  0.40947626872E+03  0.65321763099E+02  0.16710309897E+04  0.17217091264E+04  0.00000000000E+00 0.  1.
<mgrwt>
<rscale>  3 0.43308515E+03</rscale>
<asrwt>0</asrwt>
<pdfrwt beam="1">  1       21 0.34476476E+00 0.43308515E+03</pdfrwt>
<pdfrwt beam="2">  1       21 0.17144624E-01 0.43308515E+03</pdfrwt>
<totfact> 0.45719163E+02</totfact>
</mgrwt>
</event>
<event>
 4    0  0.1005289E-001  0.4102729E+03  0.7546771E-02  0.1040279E+00
         21   -1    0    0  503  501  0.00000000000E+00  0.00000000000E+00  0.66344519430E+03  0.66344519430E+03  0.00000000000E+00 0. -1.
         21   -1    0    0  501  502 -0.00000000000E+00 -0.00000000000E+00 -0.93066579033E+03  0.93066579033E+03  0.00000000000E+00 0. -1.
         25    1    1    2    0    0  0.33537704605E+03  0.20055199554E+03 -0.82014558436E+03  0.91704015477E+03  0.12500000000E+03 0.  0.
         21    1    1    2  503  502 -0.33537704605E+03 -0.20055199554E+03  0.55292498833E+03  0.67707082986E+03  0.00000000000E+00 0. -1.
<mgrwt>
<rscale>  3 0.41027292E+03</rscale>
<asrwt>0</asrwt>
<pdfrwt beam="1">  1       21 0.10206849E+00 0.41027292E+03</pdfrwt>
<pdfrwt beam="2">  1       21 0.14317935E+00 0.41027292E+03</pdfrwt>
<totfact> 0.22060112E+02</totfact>
</mgrwt>
</event>
<event>
 4    0  0.1005289E-001  0.2421528E+03  0.7546771E-02  0.1118367E+00
         21   -1    0    0  503  501  0.00000000000E+00  0.00000000000E+00  0.10019018576E+03  0.10019018576E+03  0.00000000000E+00 0.  1.
         21   -1    0    0  501  502 -0.00000000000E+00 -0.00000000000E+00 -0.58987446006E+03  0.58987446006E+03  0.00000000000E+00 0. -1.
         25    1    1    2    0    0  0.60890917720E+02 -0.19825554985E+03 -0.39212495274E+03  0.46086868571E+03  0.12500000000E+03 0.  0.
         21    1    1    2  503  502 -0.60890917720E+02  0.19825554985E+03 -0.97559321567E+02  0.22919596011E+03  0.00000000000E+00 0.  1.
<mgrwt>
<rscale>  3 0.24215278E+03</rscale>
<asrwt>0</asrwt>
<pdfrwt beam="1">  1       21 0.15413875E-01 0.24215278E+03</pdfrwt>
<pdfrwt beam="2">  1       21 0.90749917E-01 0.24215278E+03</pdfrwt>
<totfact> 0.37530758E+04</totfact>
</mgrwt>
</event>
<event>
 4    0  0.1263192E-001  0.3153258E+03  0.7546771E-02  0.1077821E+00
         21   -1    0    0  502  501  0.00000000000E+00  0.00000000000E+00  0.19769637757E+03  0.19769637757E+03  0.00000000000E+00 0. -1.
         21   -1    0    0  503  502 -0.00000000000E+00 -0.00000000000E+00 -0.47561290245E+03  0.47561290245E+03  0.00000000000E+00 0. -1.
         25    1    1    2    0    0  0.27585855207E+03  0.87791815932E+02 -0.89058471424E+02  0.32766103679E+03  0.12500000000E+03 0.  0.
         21    1    1    2  503  501 -0.27585855207E+03 -0.87791815932E+02 -0.18885805346E+03  0.34564824323E+03  0.00000000000E+00 0. -1.
<mgrwt>
<rscale>  3 0.31532577E+03</rscale>
<asrwt>0</asrwt>
<pdfrwt beam="1">  1       21 0.30414827E-01 0.31532577E+03</pdfrwt>
<pdfrwt beam="2">  1       21 0.73171215E-01 0.31532577E+03</pdfrwt>
<totfact> 0.16386268E+04</totfact>
</mgrwt>
</event>
<event>
 4    0  0.1342665E-001  0.2686069E+03  0.7546771E-02  0.1102080E+00
         21   -1    0    0  502  501  0.00000000000E+00  0.00000000000E+00  0.22831855193E+03  0.22831855193E+03  0.00000000000E+00 0. -1.
         21   -1    0    0  503  502 -0.00000000000E+00 -0.00000000000E+00 -0.29335092087E+03  0.29335092087E+03  0.00000000000E+00 0. -1.
         25    1    1    2    0    0  0.15656888143E+03  0.17891571325E+03  0.19563389933E+02  0.26931834937E+03  0.12500000000E+03 0.  0.
         21    1    1    2  503  501 -0.15656888143E+03 -0.17891571325E+03 -0.84595758871E+02  0.25235112344E+03  0.00000000000E+00 0. -1.
<mgrwt>
<rscale>  3 0.26860686E+03</rscale>
<asrwt>0</asrwt>
<pdfrwt beam="1">  1       21 0.35125931E-01 0.26860686E+03</pdfrwt>
<pdfrwt beam="2">  1       21 0.45130911E-01 0.26860686E+03</pdfrwt>
<totfact> 0.35532564E+04</totfact>
</mgrwt>
</event>
<event>
 4    0  0.1005289E-001  0.2370304E+03  0.7546771E-02  0.1121787E+00
         21   -1    0    0  502  501  0.00000000000E+00  0.00000000000E+00  0.18075037885E+04  0.18075037885E+04  0.00000000000E+00 0.  1.
         21   -1    0    0  503  502 -0.00000000000E+00 -0.00000000000E+00 -0.29720187626E+02  0.29720187626E+02  0.00000000000E+00 0.  1.
         25    1    1    2    0    0 -0.11318488566E+03 -0.16657615489E+03  0.65607699323E+03  0.69758186241E+03  0.12500000000E+03 0.  0.
         21    1    1    2  503  501  0.11318488566E+03  0.16657615489E+03  0.11217066076E+04  0.11396421137E+04  0.00000000000E+00 0.  1.
<mgrwt>
<rscale>  3 0.23703045E+03</rscale>
<asrwt>0</asrwt>
<pdfrwt beam="1">  1       21 0.27807742E+00 0.23703045E+03</pdfrwt>
<pdfrwt beam="2">  1       21 0.45723380E-02 0.23703045E+03</pdfrwt>
<totfact> 0.13721629E+04</totfact>
</mgrwt>
</event>
<event>
 4    0  0.1147913E-001  0.3299359E+03  0.7546771E-02  0.1071165E+00
         21   -1    0    0  503  501  0.00000000000E+00  0.00000000000E+00  0.69116324249E+03  0.69116324249E+03  0.00000000000E+00 0.  1.
         21   -1    0    0  501  502 -0.00000000000E+00 -0.00000000000E+00 -0.35182249410E+03  0.35182249410E+03  0.00000000000E+00 0.  1.
         25    1    1    2    0    0 -0.29645517205E+03  0.73123551672E+02 -0.22637366424E+03  0.40012842777E+03  0.12500000000E+03 0.  0.
         21    1    1    2  503  502  0.29645517205E+03 -0.73123551672E+02  0.56571441264E+03  0.64285730882E+03  0.00000000000E+00 0.  1.
<mgrwt>
<rscale>  3 0.32993594E+03</rscale>
<asrwt>0</asrwt>
<pdfrwt beam="1">  1       21 0.10633281E+00 0.32993594E+03</pdfrwt>
<pdfrwt beam="2">  1       21 0.54126538E-01 0.32993594E+03</pdfrwt>
<totfact> 0.20790481E+03</totfact>
</mgrwt>
</event>
<event>
 4    0  0.1986713E-001  0.2607874E+03  0.7546771E-02  0.1106671E+00
         21   -1    0    0  502  501  0.00000000000E+00  0.00000000000E+00  0.53311299335E+03  0.53311299335E+03  0.00000000000E+00 0.  1.
         21   -1    0    0  503  502 -0.00000000000E+00 -0.00000000000E+00 -0.58017565551E+03  0.58017565551E+03  0.00000000000E+00 0. -1.
         25    1    1    2    0    0 -0.61211332317E+02  0.22054074076E+03 -0.52342536549E+03  0.58479411657E+03  0.12500000000E+03 0.  0.
         21    1    1    2  503  501  0.61211332317E+02 -0.22054074076E+03  0.47636270333E+03  0.52849453229E+03  0.00000000000E+00 0.  1.
<mgrwt>
<rscale>  3 0.26078736E+03</rscale>
<asrwt>0</asrwt>
<pdfrwt beam="1">  1       21 0.82017384E-01 0.26078736E+03</pdfrwt>
<pdfrwt beam="2">  1       21 0.89257793E-01 0.26078736E+03</pdfrwt>
<totfact> 0.13144443E+03</totfact>
</mgrwt>
</event>
<event>
 4    0  0.1131483E-001  0.2491272E+03  0.7546771E-02  0.1113858E+00
         21   -1    0    0  502  501  0.00000000000E+00  0.00000000000E+00  0.33898094947E+03  0.33898094947E+03  0.00000000000E+00 0. -1.
         21   -1    0    0  503  502 -0.00000000000E+00 -0.00000000000E+00 -0.48838569786E+03  0.48838569786E+03  0.00000000000E+00 0. -1.
         25    1    1    2    0    0  0.32713862018E+02 -0.21300034353E+03 -0.41580053090E+03  0.48472097604E+03  0.12500000000E+03 0.  0.
         21    1    1    2  503  501 -0.32713862018E+02  0.21300034353E+03  0.26639578252E+03  0.34264567129E+03  0.00000000000E+00 0. -1.
<mgrwt>
<rscale>  3 0.24912716E+03</rscale>
<asrwt>0</asrwt>
<pdfrwt beam="1">  1       21 0.52150916E-01 0.24912716E+03</pdfrwt>
<pdfrwt beam="2">  1       21 0.75136261E-01 0.24912716E+03</pdfrwt>
<totfact> 0.53114658E+03</totfact>
</mgrwt>
</event>
<event>
 4    0  0.1030120E-001  0.2391554E+03  0.7546771E-02  0.1120357E+00
         21   -1    0    0  503  501  0.00000000000E+00  0.00000000000E+00  0.24414063667E+04  0.24414063667E+04  0.00000000000E+00 0. -1.
         21   -1    0    0  501  502 -0.00000000000E+00 -0.00000000000E+00 -0.20174758805E+02  0.20174758805E+02  0.00000000000E+00 0. -1.
         25    1    1    2    0    0 -0.20363836637E+03  0.10085201065E+02  0.13813975265E+04  0.14019466544E+04  0.12500000000E+03 0.  0.
         21    1    1    2  503  502  0.20363836637E+03 -0.10085201065E+02  0.10398340814E+04  0.10596344711E+04  0.00000000000E+00 0. -1.
<mgrwt>
<rscale>  3 0.23915538E+03</rscale>
<asrwt>0</asrwt>
<pdfrwt beam="1">  1       21 0.37560075E+00 0.23915538E+03</pdfrwt>
<pdfrwt beam="2">  1       21 0.31038110E-02 0.23915538E+03</pdfrwt>
<totfact> 0.69683471E+03</totfact>
</mgrwt>
</event>
<event>
 4    0  0.1211690E-001  0.2392509E+03  0.7546771E-02  0.1120293E+00
         21   -1    0    0  503  501  0.00000000000E+00  0.00000000000E+00  0.94503507211E+03  0.94503507211E+03  0.00000000000E+00 0.  1.
         21   -1    0    0  501  502 -0.00000000000E+00 -0.00000000000E+00 -0.58661518634E+02  0.58661518634E+02  0.00000000000E+00 0.  1.
         25    1    1    2    0    0 -0.14714569829E+03 -0.14129452577E+03  0.30545337415E+03  0.38799840634E+03  0.12500000000E+03 0.  0.
         21    1    1    2  503  502  0.14714569829E+03  0.14129452577E+03  0.58092017932E+03  0.61569818441E+03  0.00000000000E+00 0.  1.
<mgrwt>
<rscale>  3 0.23925091E+03</rscale>
<asrwt>0</asrwt>
<pdfrwt beam="1">  1       21 0.14539000E+00 0.23925091E+03</pdfrwt>
<pdfrwt beam="2">  1       21 0.90248497E-02 0.23925091E+03</pdfrwt>
<totfact> 0.30699600E+04</totfact>
</mgrwt>
</event>
<event>
 4    0  0.1489050E-001  0.2866817E+03  0.7546771E-02  0.1092095E+00
         21   -1    0    0  503  501  0.00000000000E+00  0.00000000000E+00  0.48907601404E+03  0.48907601404E+03  0.00000000000E+00 0.  1.
         21   -1    0    0  501  502 -0.00000000000E+00 -0.00000000000E+00 -0.15538579465E+03  0.15538579465E+03  0.00000000000E+00 0.  1.
         25    1    1    2    0    0  0.11396421719E+03  0.23145957235E+03  0.12552209799E+03  0.31295714326E+03  0.12500000000E+03 0.  0.
         21    1    1    2  503  502 -0.11396421719E+03 -0.23145957235E+03  0.20816812141E+03  0.33150466544E+03  0.00000000000E+00 0.  1.
<mgrwt>
<rscale>  3 0.28668166E+03</rscale>
<asrwt>0</asrwt>
<pdfrwt beam="1">  1       21 0.75242463E-01 0.28668166E+03</pdfrwt>
<pdfrwt beam="2">  1       21 0.23905507E-01 0.28668166E+03</pdfrwt>
<totfact> 0.24865842E+04</totfact>
</mgrwt>
</event>
<event>
 4    0  0.1005289E-001  0.2699898E+03  0.7546771E-02  0.1101285E+00
         21   -1    0    0  503  501  0.00000000000E+00  0.00000000000E+00  0.74004471005E+03  0.74004471005E+03  0.00000000000E+00 0. -1.
         21   -1    0    0  501  502 -0.00000000000E+00 -0.00000000000E+00 -0.10381939790E+03  0.10381939790E+03  0.00000000000E+00 0.  1.
         25    1    1    2    0    0  0.41912964756E+02 -0.23561150775E+03  0.16790086873E+03  0.31793895785E+03  0.12500000000E+03 0.  0.
         21    1    1    2  503  502 -0.41912964756E+02  0.23561150775E+03  0.46832444342E+03  0.52592515010E+03  0.00000000000E+00 0. -1.
<mgrwt>
<rscale>  3 0.26998978E+03</rscale>
<asrwt>0</asrwt>
<pdfrwt beam="1">  1       21 0.11385303E+00 0.26998978E+03</pdfrwt>
<pdfrwt beam="2">  1       21 0.15972216E-01 0.26998978E+03</pdfrwt>
<totfact> 0.20138546E+04</totfact>
</mgrwt>
</event>
<event>
 4    0  0.1005289E-001  0.2956442E+03  0.7546771E-02  0.1087439E+00
         21   -1    0    0  503  501  0.00000000000E+00  0.00000000000E+00  0.11054672364E+04  0.11054672364E+04  0.00000000000E+00 0.  1.
         21   -1    0    0  501  502 -0.00000000000E+00 -0.00000000000E+00 -0.77423552042E+02  0.77423552042E+02  0.00000000000E+00 0. -1.
         25    1    1    2    0    0  0.17620175015E+03 -0.20182528278E+03  0.37862494143E+03  0.48037729734E+03  0.12500000000E+03 0.  0.
         21    1    1    2  503  502 -0.17620175015E+03  0.20182528278E+03  0.64941874297E+03  0.70251349115E+03  0.00000000000E+00 0.  1.
<mgrwt>
<rscale>  3 0.29564421E+03</rscale>
<asrwt>0</asrwt>
<pdfrwt beam="1">  1       21 0.17007187E+00 0.29564421E+03</pdfrwt>
<pdfrwt beam="2">  1       21 0.11911316E-01 0.29564421E+03</pdfrwt>
<totfact> 0.11877299E+04</totfact>
</mgrwt>
</event>
<event>
 4    0  0.1584164E-001  0.2670434E+03  0.7546771E-02  0.1102984E+00
         21   -1    0    0  502  501  0.00000000000E+00  0.00000000000E+00  0.14230128334E+03  0.14230128334E+03  0.00000000000E+00 0.  1.
         21   -1    0    0  503  502 -0.00000000000E+00 -0.00000000000E+00 -0.45180075465E+03  0.45180075465E+03  0.00000000000E+00 0.  1.
         25    1    1    2    0    0  0.10870723006E+03  0.20945146852E+03 -0.20174122771E+03  0.33468149409E+03  0.12500000000E+03 0.  0.
         21    1    1    2  503  501 -0.10870723006E+03 -0.20945146852E+03 -0.10775824360E+03  0.25942054389E+03  0.00000000000E+00 0.  1.
<mgrwt>
<rscale>  3 0.26704340E+03</rscale>
<asrwt>0</asrwt>
<pdfrwt beam="1">  1       21 0.21892505E-01 0.26704340E+03</pdfrwt>
<pdfrwt beam="2">  1       21 0.69507809E-01 0.26704340E+03</pdfrwt>
<totfact> 0.35402981E+04</totfact>
</mgrwt>
</event>
<event>
 4    0  0.1005289E-001  0.4853993E+03  0.7546771E-02  0.1017662E+00
         21   -1    0    0  503  501  0.00000000000E+00  0.00000000000E+00  0.18394308314E+03  0.18394308314E+03  0.00000000000E+00 0.  1.
         21   -1    0    0  501  502 -0.00000000000E+00 -0.00000000000E+00 -0.17108210845E+04  0.17108210845E+04  0.00000000000E+00 0. -1.
         25    1    1    2    0    0  0.35017413798E+02 -0.46771916307E+03 -0.12708779172E+04  0.13604201981E+04  0.12500000000E+03 0.  0.
         21    1    1    2  503  502 -0.35017413798E+02  0.46771916307E+03 -0.25600008414E+03  0.53434396960E+03  0.00000000000E+00 0.  1.
<mgrwt>
<rscale>  3 0.48539925E+03</rscale>
<asrwt>0</asrwt>
<pdfrwt beam="1">  1       21 0.28298937E-01 0.48539925E+03</pdfrwt>
<pdfrwt beam="2">  1       21 0.26320323E+00 0.48539925E+03</pdfrwt>
<totfact> 0.52716630E+02</totfact>
</mgrwt>
</event>
<event>
 4    0  0.1315961E-001  0.2720780E+03  0.7546771E-02  0.1100096E+00
         21   -1    0    0  502  501  0.00000000000E+00  0.00000000000E+00  0.98716702105E+03  0.98716702105E+03  0.00000000000E+00 0.  1.
         21   -1    0    0  503  502 -0.00000000000E+00 -0.00000000000E+00 -0.13792054648E+03  0.13792054648E+03  0.00000000000E+00 0. -1.
         25    1    1    2    0    0 -0.16991417463E+03  0.17184471285E+03  0.33302981877E+02  0.27410859285E+03  0.12500000000E+03 0.  0.
         21    1    1    2  503  501  0.16991417463E+03 -0.17184471285E+03  0.81594349269E+03  0.85097897468E+03  0.00000000000E+00 0.  1.
<mgrwt>
<rscale>  3 0.27207799E+03</rscale>
<asrwt>0</asrwt>
<pdfrwt beam="1">  1       21 0.15187185E+00 0.27207799E+03</pdfrwt>
<pdfrwt beam="2">  1       21 0.21218546E-01 0.27207799E+03</pdfrwt>
<totfact> 0.56486051E+03</totfact>
</mgrwt>
</event>
<event>
 4    0  0.1543109E-001  0.3392202E+03  0.7546771E-02  0.1067129E+00
         21   -1    0    0  503  501  0.00000000000E+00  0.00000000000E+00  0.80407020848E+03  0.80407020848E+03  0.00000000000E+00 0. -1.
         21   -1    0    0  501  502 -0.00000000000E+00 -0.00000000000E+00 -0.13975816997E+03  0.13975816997E+03  0.00000000000E+00 0. -1.
         25    1    1    2    0    0  0.31531231200E+03 -0.48496334416E+01  0.24166840310E+03  0.41650208895E+03  0.12500000000E+03 0.  0.
         21    1    1    2  503  502 -0.31531231200E+03  0.48496334416E+01  0.42264363541E+03  0.52732628950E+03  0.00000000000E+00 0. -1.
<mgrwt>
<rscale>  3 0.33922024E+03</rscale>
<asrwt>0</asrwt>
<pdfrwt beam="1">  1       21 0.12370311E+00 0.33922024E+03</pdfrwt>
<pdfrwt beam="2">  1       21 0.21501257E-01 0.33922024E+03</pdfrwt>
<totfact> 0.90899838E+03</totfact>
</mgrwt>
</event>
<event>
 4    0  0.1005289E-001  0.2515229E+03  0.7546771E-02  0.1112346E+00
         21   -1    0    0  502  501  0.00000000000E+00  0.00000000000E+00  0.27289887835E+04  0.27289887835E+04  0.00000000000E+00 0.  1.
         21   -1    0    0  503  502 -0.00000000000E+00 -0.00000000000E+00 -0.38255364655E+02  0.38255364655E+02  0.00000000000E+00 0.  1.
         25    1    1    2    0    0  0.15463449760E+03 -0.15403550277E+03  0.44689039116E+03  0.51281067234E+03  0.12500000000E+03 0.  0.
         21    1    1    2  503  501 -0.15463449760E+03  0.15403550277E+03  0.22438430277E+04  0.22544334758E+04  0.00000000000E+00 0.  1.
<mgrwt>
<rscale>  3 0.25152289E+03</rscale>
<asrwt>0</asrwt>
<pdfrwt beam="1">  1       21 0.41984428E+00 0.25152289E+03</pdfrwt>
<pdfrwt beam="2">  1       21 0.58854428E-02 0.25152289E+03</pdfrwt>
<totfact> 0.12302686E+03</totfact>
</mgrwt>
</event>
<event>
 4    0  0.1005289E-001  0.3441643E+03  0.7546771E-02  0.1065036E+00
         21   -1    0    0  503  501  0.00000000000E+00  0.00000000000E+00  0.43932783744E+02  0.43932783744E+02  0.00000000000E+00 0.  1.
         21   -1    0    0  501  502 -0.00000000000E+00 -0.00000000000E+00 -0.25364834362E+04  0.25364834362E+04  0.00000000000E+00 0.  1.
         25    1    1    2    0    0  0.30648223962E+03  0.94301001639E+02 -0.11717688670E+04  0.12212662772E+04  0.12500000000E+03 0.  0.
         21    1    1    2  503  502 -0.30648223962E+03 -0.94301001639E+02 -0.13207817855E+04  0.13591499428E+04  0.00000000000E+00 0.  1.
<mgrwt>
<rscale>  3 0.34416427E+03</rscale>
<asrwt>0</asrwt>
<pdfrwt beam="1">  1       21 0.67588859E-02 0.34416427E+03</pdfrwt>
<pdfrwt beam="2">  1       21 0.39022845E+00 0.34416427E+03</pdfrwt>
<totfact> 0.13663345E+03</totfact>
</mgrwt>
</event>
<event>
 4    0  0.1005289E-001  0.2952186E+03  0.7546771E-02  0.1087656E+00
         21   -1    0    0  502  501  0.00000000000E+00  0.00000000000E+00  0.23496957599E+03  0.23496957599E+03  0.00000000000E+00 0.  1.
         21   -1    0    0  503  502 -0.00000000000E+00 -0.00000000000E+00 -0.37634493716E+03  0.37634493716E+03  0.00000000000E+00 0. -1.
         25    1    1    2    0    0  0.22991193649E+03  0.13663641518E+03 -0.17272396448E+03  0.34203446669E+03  0.12500000000E+03 0.  0.
         21    1    1    2  503  501 -0.22991193649E+03 -0.13663641518E+03  0.31348603307E+02  0.26928004647E+03  0.00000000000E+00 0.  1.
<mgrwt>
<rscale>  3 0.29521858E+03</rscale>
<asrwt>0</asrwt>
<pdfrwt beam="1">  1       21 0.36149166E-01 0.29521858E+03</pdfrwt>
<pdfrwt beam="2">  1       21 0.57899221E-01 0.29521858E+03</pdfrwt>
<totfact> 0.19606792E+04</totfact>
</mgrwt>
</event>
<event>
 4    0  0.1005289E-001  0.2391762E+03  0.7546771E-02  0.1120343E+00
         21   -1    0    0  502  501  0.00000000000E+00  0.00000000000E+00  0.20470430467E+03  0.20470430467E+03  0.00000000000E+00 0. -1.
         21   -1    0    0  503  502 -0.00000000000E+00 -0.00000000000E+00 -0.25944666391E+03  0.25944666391E+03  0.00000000000E+00 0.  1.
         25    1    1    2    0    0 -0.11538162193E+03  0.16812887634E+03 -0.93109569126E+02  0.25666053378E+03  0.12500000000E+03 0.  0.
         21    1    1    2  503  501  0.11538162193E+03 -0.16812887634E+03  0.38367209884E+02  0.20749043480E+03  0.00000000000E+00 0. -1.
<mgrwt>
<rscale>  3 0.23917616E+03</rscale>
<asrwt>0</asrwt>
<pdfrwt beam="1">  1       21 0.31492970E-01 0.23917616E+03</pdfrwt>
<pdfrwt beam="2">  1       21 0.39914871E-01 0.23917616E+03</pdfrwt>
<totfact> 0.57443294E+04</totfact>
</mgrwt>
</event>
<event>
 4    0  0.1386555E-001  0.2361448E+03  0.7546771E-02  0.1122388E+00
         21   -1    0    0  502  501  0.00000000000E+00  0.00000000000E+00  0.67368497732E+02  0.67368497732E+02  0.00000000000E+00 0.  1.
         21   -1    0    0  503  502 -0.00000000000E+00 -0.00000000000E+00 -0.85241318781E+03  0.85241318781E+03  0.00000000000E+00 0.  1.
         25    1    1    2    0    0  0.75328328669E+01 -0.20020642908E+03 -0.60861966022E+03  0.65282635411E+03  0.12500000000E+03 0.  0.
         21    1    1    2  503  501 -0.75328328669E+01  0.20020642908E+03 -0.17642502986E+03  0.26695533143E+03  0.00000000000E+00 0.  1.
<mgrwt>
<rscale>  3 0.23614478E+03</rscale>
<asrwt>0</asrwt>
<pdfrwt beam="1">  1       21 0.10364384E-01 0.23614478E+03</pdfrwt>
<pdfrwt beam="2">  1       21 0.13114050E+00 0.23614478E+03</pdfrwt>
<totfact> 0.31429721E+04</totfact>
</mgrwt>
</event>
<event>
 4    0  0.1095807E-001  0.2480810E+03  0.7546771E-02  0.1114524E+00
         21   -1    0    0  502  501  0.00000000000E+00  0.00000000000E+00  0.93694646528E+03  0.93694646528E+03  0.00000000000E+00 0. -1.
         21   -1    0    0  503  502 -0.00000000000E+00 -0.00000000000E+00 -0.27960667987E+03  0.27960667987E+03  0.00000000000E+00 0. -1.
         25    1    1    2    0    0 -0.21050730019E+03  0.40073299391E+02 -0.20882698497E+03  0.32427288263E+03  0.12500000000E+03 0.  0.
         21    1    1    2  503  501  0.21050730019E+03 -0.40073299391E+02  0.86616677039E+03  0.89228026252E+03  0.00000000000E+00 0. -1.
<mgrwt>
<rscale>  3 0.24808102E+03</rscale>
<asrwt>0</asrwt>
<pdfrwt beam="1">  1       21 0.14414561E+00 0.24808102E+03</pdfrwt>
<pdfrwt beam="2">  1       21 0.43016413E-01 0.24808102E+03</pdfrwt>
<totfact> 0.16423254E+03</totfact>
</mgrwt>
</event>
<event>
 4    0  0.1005289E-001  0.4149288E+03  0.7546771E-02  0.1038730E+00
         21   -1    0    0  502  501  0.00000000000E+00  0.00000000000E+00  0.10884115597E+04  0.10884115597E+04  0.00000000000E+00 0. -1.
         21   -1    0    0  503  502 -0.00000000000E+00 -0.00000000000E+00 -0.24098486585E+03  0.24098486585E+03  0.00000000000E+00 0.  1.
         25    1    1    2    0    0 -0.27302110426E+03 -0.28635713154E+03  0.23733733989E+02  0.41560705033E+03  0.12500000000E+03 0.  0.
         21    1    1    2  503  501  0.27302110426E+03  0.28635713154E+03  0.82369295989E+03  0.91378937525E+03  0.00000000000E+00 0. -1.
<mgrwt>
<rscale>  3 0.41492883E+03</rscale>
<asrwt>0</asrwt>
<pdfrwt beam="1">  1       21 0.16744793E+00 0.41492883E+03</pdfrwt>
<pdfrwt beam="2">  1       21 0.37074595E-01 0.41492883E+03</pdfrwt>
<totfact> 0.13410363E+03</totfact>
</mgrwt>
</event>
<event>
 4    0  0.1161070E-001  0.2569453E+03  0.7546771E-02  0.1108993E+00
         21   -1    0    0  502  501  0.00000000000E+00  0.00000000000E+00  0.10865187710E+03  0.10865187710E+03  0.00000000000E+00 0. -1.
         21   -1    0    0  503  502 -0.00000000000E+00 -0.00000000000E+00 -0.89650374535E+03  0.89650374535E+03  0.00000000000E+00 0. -1.
         25    1    1    2    0    0  0.20475388082E+03 -0.92041921666E+02 -0.72917791525E+03  0.77312437495E+03  0.12500000000E+03 0.  0.
         21    1    1    2  503  501 -0.20475388082E+03  0.92041921666E+02 -0.58673953001E+02  0.23203124750E+03  0.00000000000E+00 0. -1.
<mgrwt>
<rscale>  3 0.25694526E+03</rscale>
<asrwt>0</asrwt>
<pdfrwt beam="1">  1       21 0.16715674E-01 0.25694526E+03</pdfrwt>
<pdfrwt beam="2">  1       21 0.13792365E+00 0.25694526E+03</pdfrwt>
<totfact> 0.11481031E+04</totfact>
</mgrwt>
</event>
<event>
 4    0  0.1218875E-001  0.2605935E+03  0.7546771E-02  0.1106787E+00
         21   -1    0    0  503  501  0.00000000000E+00  0.00000000000E+00  0.85338843050E+02  0.85338843050E+02  0.00000000000E+00 0.  1.
         21   -1    0    0  501  502 -0.00000000000E+00 -0.00000000000E+00 -0.16530661176E+04  0.16530661176E+04  0.00000000000E+00 0. -1.
         25    1    1    2    0    0 -0.20325397844E+03 -0.10474621420E+03 -0.14645392776E+04  0.14875430228E+04  0.12500000000E+03 0.  0.
         21    1    1    2  503  502  0.20325397844E+03  0.10474621420E+03 -0.10318799698E+03  0.25086193785E+03  0.00000000000E+00 0.  1.
<mgrwt>
<rscale>  3 0.26059346E+03</rscale>
<asrwt>0</asrwt>
<pdfrwt beam="1">  1       21 0.13129052E-01 0.26059346E+03</pdfrwt>
<pdfrwt beam="2">  1       21 0.25431788E+00 0.26059346E+03</pdfrwt>
<totfact> 0.29339119E+03</totfact>
</mgrwt>
</event>
<event>
 4    0  0.1005289E-001  0.2428802E+03  0.7546771E-02  0.1117889E+00
         21   -1    0    0  502  501  0.00000000000E+00  0.00000000000E+00  0.94243598667E+02  0.94243598667E+02  0.00000000000E+00 0.  1.
         21   -1    0    0  503  502 -0.00000000000E+00 -0.00000000000E+00 -0.57793479877E+03  0.57793479877E+03  0.00000000000E+00 0. -1.
         25    1    1    2    0    0  0.14530515096E+03  0.14917166606E+03 -0.34521716965E+03  0.42209675084E+03  0.12500000000E+03 0.  0.
         21    1    1    2  503  501 -0.14530515096E+03 -0.14917166606E+03 -0.13847403045E+03  0.25008164659E+03  0.00000000000E+00 0.  1.
<mgrwt>
<rscale>  3 0.24288016E+03</rscale>
<asrwt>0</asrwt>
<pdfrwt beam="1">  1       21 0.14499016E-01 0.24288016E+03</pdfrwt>
<pdfrwt beam="2">  1       21 0.88913044E-01 0.24288016E+03</pdfrwt>
<totfact> 0.44011261E+04</totfact>
</mgrwt>
</event>
<event>
 4    0  0.1071073E-001  0.3812171E+03  0.7546771E-02  0.1050485E+00
         21   -1    0    0  503  501  0.00000000000E+00  0.00000000000E+00  0.30050330887E+03  0.30050330887E+03  0.00000000000E+00 0.  1.
         21   -1    0    0  501  502 -0.00000000000E+00 -0.00000000000E+00 -0.10770100764E+04  0.10770100764E+04  0.00000000000E+00 0.  1.
         25    1    1    2    0    0 -0.19602324406E+03 -0.30211981838E+03 -0.91533054128E+03  0.99154248354E+03  0.12500000000E+03 0.  0.
         21    1    1    2  503  502  0.19602324406E+03  0.30211981838E+03  0.13882377370E+03  0.38597090177E+03  0.00000000000E+00 0.  1.
<mgrwt>
<rscale>  3 0.38121713E+03</rscale>
<asrwt>0</asrwt>
<pdfrwt beam="1">  1       21 0.46231277E-01 0.38121713E+03</pdfrwt>
<pdfrwt beam="2">  1       21 0.16569386E+00 0.38121713E+03</pdfrwt>
<totfact> 0.89063933E+02</totfact>
</mgrwt>
</event>
<event>
 4    0  0.1057102E-001  0.2431257E+03  0.7546771E-02  0.1117728E+00
         21   -1    0    0  503  501  0.00000000000E+00  0.00000000000E+00  0.10374851153E+03  0.10374851153E+03  0.00000000000E+00 0. -1.
         21   -1    0    0  501  502 -0.00000000000E+00 -0.00000000000E+00 -0.11755077349E+04  0.11755077349E+04  0.00000000000E+00 0. -1.
         25    1    1    2    0    0  0.92900238026E+02  0.18669395211E+03 -0.10403405005E+04  0.10683718655E+04  0.12500000000E+03 0.  0.
         21    1    1    2  503  502 -0.92900238026E+02 -0.18669395211E+03 -0.31418722885E+02  0.21088438095E+03  0.00000000000E+00 0. -1.
<mgrwt>
<rscale>  3 0.24312566E+03</rscale>
<asrwt>0</asrwt>
<pdfrwt beam="1">  1       21 0.15961309E-01 0.24312566E+03</pdfrwt>
<pdfrwt beam="2">  1       21 0.18084734E+00 0.24312566E+03</pdfrwt>
<totfact> 0.60427171E+03</totfact>
</mgrwt>
</event>
<event>
 4    0  0.1005289E-001  0.3594587E+03  0.7546771E-02  0.1058798E+00
         21   -1    0    0  503  501  0.00000000000E+00  0.00000000000E+00  0.10315174222E+04  0.10315174222E+04  0.00000000000E+00 0. -1.
         21   -1    0    0  501  502 -0.00000000000E+00 -0.00000000000E+00 -0.30780680681E+03  0.30780680681E+03  0.00000000000E+00 0. -1.
         25    1    1    2    0    0 -0.32984308737E+03 -0.69203164330E+02 -0.16005112823E+03  0.39348050000E+03  0.12500000000E+03 0.  0.
         21    1    1    2  503  502  0.32984308737E+03  0.69203164330E+02  0.88376174361E+03  0.94584372901E+03  0.00000000000E+00 0. -1.
<mgrwt>
<rscale>  3 0.35945868E+03</rscale>
<asrwt>0</asrwt>
<pdfrwt beam="1">  1       21 0.15869499E+00 0.35945868E+03</pdfrwt>
<pdfrwt beam="2">  1       21 0.47354894E-01 0.35945868E+03</pdfrwt>
<totfact> 0.96619699E+02</totfact>
</mgrwt>
</event>
<event>
 4    0  0.1386231E-001  0.3195662E+03  0.7546771E-02  0.1075849E+00
         21   -1    0    0  503  501  0.00000000000E+00  0.00000000000E+00  0.96848367871E+02  0.96848367871E+02  0.00000000000E+00 0. -1.
         21   -1    0    0  501  502 -0.00000000000E+00 -0.00000000000E+00 -0.11227026656E+04  0.11227026656E+04  0.00000000000E+00 0. -1.
         25    1    1    2    0    0 -0.26696156956E+03 -0.12340611937E+03 -0.75450849716E+03  0.81939344774E+03  0.12500000000E+03 0.  0.
         21    1    1    2  503  502  0.26696156956E+03  0.12340611937E+03 -0.27134580055E+03  0.40015758571E+03  0.00000000000E+00 0. -1.
<mgrwt>
<rscale>  3 0.31956619E+03</rscale>
<asrwt>0</asrwt>
<pdfrwt beam="1">  1       21 0.14899748E-01 0.31956619E+03</pdfrwt>
<pdfrwt beam="2">  1       21 0.17272350E+00 0.31956619E+03</pdfrwt>
<totfact> 0.74700526E+03</totfact>
</mgrwt>
</event>
<event>
 4    0  0.1011938E-001  0.2481266E+03  0.7546771E-02  0.1114495E+00
         21   -1    0    0  502  501  0.00000000000E+00  0.00000000000E+00  0.10866988996E+03  0.10866988996E+03  0.00000000000E+00 0. -1.
         21   -1    0    0  503  502 -0.00000000000E+00 -0.00000000000E+00 -0.72532263229E+03  0.72532263229E+03  0.00000000000E+00 0.  1.
         25    1    1    2    0    0  0.19957451178E+03 -0.78178116431E+02 -0.55967005806E+03  0.61220697279E+03  0.12500000000E+03 0.  0.
         21    1    1    2  503  501 -0.19957451178E+03  0.78178116431E+02 -0.56982684266E+02  0.22178554945E+03  0.00000000000E+00 0. -1.
<mgrwt>
<rscale>  3 0.24812659E+03</rscale>
<asrwt>0</asrwt>
<pdfrwt beam="1">  1       21 0.16718444E-01 0.24812659E+03</pdfrwt>
<pdfrwt beam="2">  1       21 0.11158810E+00 0.24812659E+03</pdfrwt>
<totfact> 0.19654269E+04</totfact>
</mgrwt>
</event>
<event>
 4    0  0.1317415E-001  0.2477572E+03  0.7546771E-02  0.1114730E+00
         21   -1    0    0  503  501  0.00000000000E+00  0.00000000000E+00  0.34962078109E+03  0.34962078109E+03  0.00000000000E+00 0.  1.
         21   -1    0    0  501  502 -0.00000000000E+00 -0.00000000000E+00 -0.16317323775E+03  0.16317323775E+03  0.00000000000E+00 0.  1.
         25    1    1    2    0    0  0.87359947846E+02 -0.19526107183E+03  0.16530018031E+03  0.29783854061E+03  0.12500000000E+03 0.  0.
         21    1    1    2  503  502 -0.87359947846E+02  0.19526107183E+03  0.21147363027E+02  0.21495547823E+03  0.00000000000E+00 0.  1.
<mgrwt>
<rscale>  3 0.24775723E+03</rscale>
<asrwt>0</asrwt>
<pdfrwt beam="1">  1       21 0.53787812E-01 0.24775723E+03</pdfrwt>
<pdfrwt beam="2">  1       21 0.25103575E-01 0.24775723E+03</pdfrwt>
<totfact> 0.47923041E+04</totfact>
</mgrwt>
</event>
<event>
 4    0  0.1148935E-001  0.3259276E+03  0.7546771E-02  0.1072953E+00
         21   -1    0    0  503  501  0.00000000000E+00  0.00000000000E+00  0.59650098753E+03  0.59650098753E+03  0.00000000000E+00 0. -1.
         21   -1    0    0  501  502 -0.00000000000E+00 -0.00000000000E+00 -0.60365850256E+03  0.60365850256E+03  0.00000000000E+00 0. -1.
         25    1    1    2    0    0 -0.14254594822E+03  0.26511217723E+03 -0.51520165317E+03  0.60964051481E+03  0.12500000000E+03 0.  0.
         21    1    1    2  503  502  0.14254594822E+03 -0.26511217723E+03  0.50804413815E+03  0.59051897528E+03  0.00000000000E+00 0. -1.
<mgrwt>
<rscale>  3 0.32592762E+03</rscale>
<asrwt>0</asrwt>
<pdfrwt beam="1">  1       21 0.91769383E-01 0.32592762E+03</pdfrwt>
<pdfrwt beam="2">  1       21 0.92870539E-01 0.32592762E+03</pdfrwt>
<totfact> 0.88377341E+02</totfact>
</mgrwt>
</event>
<event>
 4    0  0.1005289E-001  0.2490540E+03  0.7546771E-02  0.1113904E+00
         21   -1    0    0  502  501  0.00000000000E+00  0.00000000000E+00  0.38166536451E+02  0.38166536451E+02  0.00000000000E+00 0. -1.
         21   -1    0    0  503  502 -0.00000000000E+00 -0.00000000000E+00 -0.23649104181E+04  0.23649104181E+04  0.00000000000E+00 0. -1.
         25    1    1    2    0    0  0.18456854512E+02 -0.21462111079E+03 -0.19747956040E+04  0.19904385332E+04  0.12500000000E+03 0.  0.
         21    1    1    2  503  501 -0.18456854512E+02  0.21462111079E+03 -0.35194827764E+03  0.41263842139E+03  0.00000000000E+00 0. -1.
<mgrwt>
<rscale>  3 0.24905396E+03</rscale>
<asrwt>0</asrwt>
<pdfrwt beam="1">  1       21 0.58717744E-02 0.24905396E+03</pdfrwt>
<pdfrwt beam="2">  1       21 0.36383240E+00 0.24905396E+03</pdfrwt>
<totfact> 0.27672543E+03</totfact>
</mgrwt>
</event>
<event>
 4    0  0.1208650E-001  0.2741522E+03  0.7546771E-02  0.1098926E+00
         21   -1    0    0  503  501  0.00000000000E+00  0.00000000000E+00  0.26253485532E+03  0.26253485532E+03  0.00000000000E+00 0.  1.
         21   -1    0    0  501  502 -0.00000000000E+00 -0.00000000000E+00 -0.53947718415E+03  0.53947718415E+03  0.00000000000E+00 0.  1.
         25    1    1    2    0    0  0.15042850574E+03 -0.19210861127E+03 -0.43291660400E+03  0.51242193540E+03  0.12500000000E+03 0.  0.
         21    1    1    2  503  502 -0.15042850574E+03  0.19210861127E+03  0.15597427517E+03  0.28959010407E+03  0.00000000000E+00 0.  1.
<mgrwt>
<rscale>  3 0.27415225E+03</rscale>
<asrwt>0</asrwt>
<pdfrwt beam="1">  1       21 0.40389978E-01 0.27415225E+03</pdfrwt>
<pdfrwt beam="2">  1       21 0.82996490E-01 0.27415225E+03</pdfrwt>
<totfact> 0.70975050E+03</totfact>
</mgrwt>
</event>
<event>
 4    0  0.1402395E-001  0.3174331E+03  0.7546771E-02  0.1076837E+00
         21   -1    0    0  503  501  0.00000000000E+00  0.00000000000E+00  0.12028401248E+03  0.12028401248E+03  0.00000000000E+00 0.  1.
         21   -1    0    0  501  502 -0.00000000000E+00 -0.00000000000E+00 -0.86991029921E+03  0.86991029921E+03  0.00000000000E+00 0.  1.
         25    1    1    2    0    0 -0.28798704946E+03 -0.46928057121E+02 -0.55528365662E+03  0.63961216570E+03  0.12500000000E+03 0.  0.
         21    1    1    2  503  502  0.28798704946E+03  0.46928057121E+02 -0.19434263011E+03  0.35058214598E+03  0.00000000000E+00 0.  1.
<mgrwt>
<rscale>  3 0.31743312E+03</rscale>
<asrwt>0</asrwt>
<pdfrwt beam="1">  1       21 0.18505233E-01 0.31743312E+03</pdfrwt>
<pdfrwt beam="2">  1       21 0.13383235E+00 0.31743312E+03</pdfrwt>
<totfact> 0.99618088E+03</totfact>
</mgrwt>
</event>
<event>
 4    0  0.1515826E-001  0.2384772E+03  0.7546771E-02  0.1120811E+00
         21   -1    0    0  503  501  0.00000000000E+00  0.00000000000E+00  0.10363978931E+03  0.10363978931E+03  0.00000000000E+00 0. -1.
         21   -1    0    0  501  502 -0.00000000000E+00 -0.00000000000E+00 -0.51180340606E+03  0.51180340606E+03  0.00000000000E+00 0. -1.
         25    1    1    2    0    0  0.52082111274E+02 -0.19630030188E+03 -0.30644011724E+03  0.38830001325E+03  0.12500000000E+03 0.  0.
         21    1    1    2  503  502 -0.52082111274E+02  0.19630030188E+03 -0.10172349950E+03  0.22714318212E+03  0.00000000000E+00 0. -1.
<mgrwt>
<rscale>  3 0.23847716E+03</rscale>
<asrwt>0</asrwt>
<pdfrwt beam="1">  1       21 0.15944583E-01 0.23847716E+03</pdfrwt>
<pdfrwt beam="2">  1       21 0.78738986E-01 0.23847716E+03</pdfrwt>
<totfact> 0.48961080E+04</totfact>
</mgrwt>
</event>
<event>
 4    0  0.1005289E-001  0.2699530E+03  0.7546771E-02  0.1101307E+00
         21   -1    0    0  503  501  0.00000000000E+00  0.00000000000E+00  0.44455221125E+03  0.44455221125E+03  0.00000000000E+00 0.  1.
         21   -1    0    0  501  502 -0.00000000000E+00 -0.00000000000E+00 -0.15909869924E+03  0.15909869924E+03  0.00000000000E+00 0. -1.
         25    1    1    2    0    0  0.22130516306E+03 -0.90959572352E+02  0.63573697351E+02  0.27733776158E+03  0.12500000000E+03 0.  0.
         21    1    1    2  503  502 -0.22130516306E+03  0.90959572352E+02  0.22187981466E+03  0.32631314891E+03  0.00000000000E+00 0.  1.
<mgrwt>
<rscale>  3 0.26995299E+03</rscale>
<asrwt>0</asrwt>
<pdfrwt beam="1">  1       21 0.68392647E-01 0.26995299E+03</pdfrwt>
<pdfrwt beam="2">  1       21 0.24476723E-01 0.26995299E+03</pdfrwt>
<totfact> 0.29620072E+04</totfact>
</mgrwt>
</event>
<event>
 4    0  0.1005289E-001  0.3753786E+03  0.7546771E-02  0.1052655E+00
         21   -1    0    0  503  501  0.00000000000E+00  0.00000000000E+00  0.10374713282E+04  0.10374713282E+04  0.00000000000E+00 0. -1.
         21   -1    0    0  501  502 -0.00000000000E+00 -0.00000000000E+00 -0.16997634348E+03  0.16997634348E+03  0.00000000000E+00 0.  1.
         25    1    1    2    0    0 -0.69896324751E+02 -0.34698500142E+03  0.14407523398E+03  0.40207805271E+03  0.12500000000E+03 0.  0.
         21    1    1    2  503  502  0.69896324751E+02  0.34698500142E+03  0.72341975077E+03  0.80536961901E+03  0.00000000000E+00 0. -1.
<mgrwt>
<rscale>  3 0.37537859E+03</rscale>
<asrwt>0</asrwt>
<pdfrwt beam="1">  1       21 0.15961097E+00 0.37537859E+03</pdfrwt>
<pdfrwt beam="2">  1       21 0.26150207E-01 0.37537859E+03</pdfrwt>
<totfact> 0.31288626E+03</totfact>
</mgrwt>
</event>
<event>
 4    0  0.1005289E-001  0.6275694E+03  0.7546771E-02  0.9849803E-01
         21   -1    0    0  502  501  0.00000000000E+00  0.00000000000E+00  0.61758915851E+03  0.61758915851E+03  0.00000000000E+00 0. -1.
         21   -1    0    0  503  502 -0.00000000000E+00 -0.00000000000E+00 -0.86287990982E+03  0.86287990982E+03  0.00000000000E+00 0. -1.
         25    1    1    2    0    0  0.44577862689E+03 -0.42367417842E+03 -0.51219528913E+03  0.81005395368E+03  0.12500000000E+03 0.  0.
         21    1    1    2  503  501 -0.44577862689E+03  0.42367417842E+03  0.26690453782E+03  0.67041511466E+03  0.00000000000E+00 0. -1.
<mgrwt>
<rscale>  3 0.62756943E+03</rscale>
<asrwt>0</asrwt>
<pdfrwt beam="1">  1       21 0.95013716E-01 0.62756943E+03</pdfrwt>
<pdfrwt beam="2">  1       21 0.13275076E+00 0.62756943E+03</pdfrwt>
<totfact> 0.29212038E+02</totfact>
</mgrwt>
</event>
<event>
 4    0  0.1503370E-001  0.2398570E+03  0.7546771E-02  0.1119888E+00
         21   -1    0    0  502  501  0.00000000000E+00  0.00000000000E+00  0.16258098247E+03  0.16258098247E+03  0.00000000000E+00 0.  1.
         21   -1    0    0  503  502 -0.00000000000E+00 -0.00000000000E+00 -0.39330101697E+03  0.39330101697E+03  0.00000000000E+00 0.  1.
         25    1    1    2    0    0 -0.10826738774E+03 -0.17373706243E+03 -0.25459296681E+03  0.34978418040E+03  0.12500000000E+03 0.  0.
         21    1    1    2  503  501  0.10826738774E+03  0.17373706243E+03  0.23872932312E+02  0.20609781903E+03  0.00000000000E+00 0.  1.
<mgrwt>
<rscale>  3 0.23985703E+03</rscale>
<asrwt>0</asrwt>
<pdfrwt beam="1">  1       21 0.25012459E-01 0.23985703E+03</pdfrwt>
<pdfrwt beam="2">  1       21 0.60507847E-01 0.23985703E+03</pdfrwt>
<totfact> 0.37629213E+04</totfact>
</mgrwt>
</event>
<event>
 4    0  0.1428538E-001  0.2833062E+03  0.7546771E-02  0.1093897E+00
         21   -1    0    0  503  501  0.00000000000E+00  0.00000000000E+00  0.11934418377E+04  0.11934418377E+04  0.00000000000E+00 0.  1.
         21   -1    0    0  501  502 -0.00000000000E+00 -0.00000000000E+00 -0.64333958644E+02  0.64333958644E+02  0.00000000000E+00 0.  1.
         25    1    1    2    0    0  0.16989089875E+03 -0.18914147290E+03  0.44055884432E+03  0.52378861152E+03  0.12500000000E+03 0.  0.
         21    1    1    2  503  502 -0.16989089875E+03  0.18914147290E+03  0.68854903470E+03  0.73398718479E+03  0.00000000000E+00 0.  1.
<mgrwt>
<rscale>  3 0.28330622E+03</rscale>
<asrwt>0</asrwt>
<pdfrwt beam="1">  1       21 0.18360642E+00 0.28330622E+03</pdfrwt>
<pdfrwt beam="2">  1       21 0.98975330E-02 0.28330622E+03</pdfrwt>
<totfact> 0.13396496E+04</totfact>
</mgrwt>
</event>
<event>
 4    0  0.1005289E-001  0.3034573E+03  0.7546771E-02  0.1083525E+00
         21   -1    0    0  502  501  0.00000000000E+00  0.00000000000E+00  0.47188019045E+03  0.47188019045E+03  0.00000000000E+00 0. -1.
         21   -1    0    0  503  502 -0.00000000000E+00 -0.00000000000E+00 -0.21189069199E+03  0.21189069199E+03  0.00000000000E+00 0.  1.
         25    1    1    2    0    0  0.20492253542E+03  0.18565583381E+03 -0.11149392316E+01  0.30345935023E+03  0.12500000000E+03 0.  0.
         21    1    1    2  503  501 -0.20492253542E+03 -0.18565583381E+03  0.26110443769E+03  0.38031153221E+03  0.00000000000E+00 0. -1.
<mgrwt>
<rscale>  3 0.30345730E+03</rscale>
<asrwt>0</asrwt>
<pdfrwt beam="1">  1       21 0.72596952E-01 0.30345730E+03</pdfrwt>
<pdfrwt beam="2">  1       21 0.32598568E-01 0.30345730E+03</pdfrwt>
<totfact> 0.14607986E+04</totfact>
</mgrwt>
</event>
<event>
 4    0  0.1507594E-001  0.2998574E+03  0.7546771E-02  0.1085312E+00
         21   -1    0    0  503  501  0.00000000000E+00  0.00000000000E+00  0.35985331954E+03  0.35985331954E+03  0.00000000000E+00 0.  1.
         21   -1    0    0  501  502 -0.00000000000E+00 -0.00000000000E+00 -0.30938023062E+03  0.30938023062E+03  0.00000000000E+00 0.  1.
         25    1    1    2    0    0  0.27205989615E+03 -0.16519326562E+02 -0.14573426539E+03  0.33339608779E+03  0.12500000000E+03 0.  0.
         21    1    1    2  503  502 -0.27205989615E+03  0.16519326562E+02  0.19620735431E+03  0.33583746237E+03  0.00000000000E+00 0.  1.
<mgrwt>
<rscale>  3 0.29985742E+03</rscale>
<asrwt>0</asrwt>
<pdfrwt beam="1">  1       21 0.55362049E-01 0.29985742E+03</pdfrwt>
<pdfrwt beam="2">  1       21 0.47596958E-01 0.29985742E+03</pdfrwt>
<totfact> 0.12251921E+04</totfact>
</mgrwt>
</event>
<event>
 4    0  0.1005289E-001  0.2365016E+03  0.7546771E-02  0.1122146E+00
         21   -1    0    0  502  501  0.00000000000E+00  0.00000000000E+00  0.77054502224E+02  0.77054502224E+02  0.00000000000E+00 0.  1.
         21   -1    0    0  503  502 -0.00000000000E+00 -0.00000000000E+00 -0.87121926562E+03  0.87121926562E+03  0.00000000000E+00 0. -1.
         25    1    1    2    0    0 -0.11826064292E+03 -0.16224185437E+03 -0.67400610723E+03  0.71429491917E+03  0.12500000000E+03 0.  0.
         21    1    1    2  503  501  0.11826064292E+03  0.16224185437E+03 -0.12015865616E+03  0.23397884867E+03  0.00000000000E+00 0.  1.
<mgrwt>
<rscale>  3 0.23650158E+03</rscale>
<asrwt>0</asrwt>
<pdfrwt beam="1">  1       21 0.11854540E-01 0.23650158E+03</pdfrwt>
<pdfrwt beam="2">  1       21 0.13403372E+00 0.23650158E+03</pdfrwt>
<totfact> 0.23377209E+04</totfact>
</mgrwt>
</event>
<event>
 4    0  0.1005289E-001  0.2699499E+03  0.7546771E-02  0.1101308E+00
         21   -1    0    0  502  501  0.00000000000E+00  0.00000000000E+00  0.30424639388E+03  0.30424639388E+03  0.00000000000E+00 0.  1.
         21   -1    0    0  503  502 -0.00000000000E+00 -0.00000000000E+00 -0.25346683328E+03  0.25346683328E+03  0.00000000000E+00 0. -1.
         25    1    1    2    0    0  0.23008068413E+03 -0.65656942536E+02 -0.84482640025E+02  0.28286087001E+03  0.12500000000E+03 0.  0.
         21    1    1    2  503  501 -0.23008068413E+03  0.65656942536E+02  0.13526220062E+03  0.27485235715E+03  0.00000000000E+00 0.  1.
<mgrwt>
<rscale>  3 0.26994991E+03</rscale>
<asrwt>0</asrwt>
<pdfrwt beam="1">  1       21 0.46807138E-01 0.26994991E+03</pdfrwt>
<pdfrwt beam="2">  1       21 0.38994897E-01 0.26994991E+03</pdfrwt>
<totfact> 0.26672200E+04</totfact>
</mgrwt>
</event>
<event>
 4    0  0.1129745E-001  0.2797897E+03  0.7546771E-02  0.1095804E+00
         21   -1    0    0  503  501  0.00000000000E+00  0.00000000000E+00  0.52215830351E+03  0.52215830351E+03  0.00000000000E+00 0.  1.
         21   -1    0    0  501  502 -0.00000000000E+00 -0.00000000000E+00 -0.34104444107E+03  0.34104444107E+03  0.00000000000E+00 0.  1.
         25    1    1    2    0    0 -0.14356566819E+02  0.24990231654E+03 -0.24309703211E+03  0.37064598452E+03  0.12500000000E+03 0.  0.
         21    1    1    2  503  502  0.14356566819E+02 -0.24990231654E+03  0.42421089455E+03  0.49255676006E+03  0.00000000000E+00 0.  1.
<mgrwt>
<rscale>  3 0.27978970E+03</rscale>
<asrwt>0</asrwt>
<pdfrwt beam="1">  1       21 0.80332047E-01 0.27978970E+03</pdfrwt>
<pdfrwt beam="2">  1       21 0.52468375E-01 0.27978970E+03</pdfrwt>
<totfact> 0.44257776E+03</totfact>
</mgrwt>
</event>
<event>
 4    0  0.1219458E-001  0.3296507E+03  0.7546771E-02  0.1071292E+00
         21   -1    0    0  502  501  0.00000000000E+00  0.00000000000E+00  0.40434811018E+03  0.40434811018E+03  0.00000000000E+00 0.  1.
         21   -1    0    0  503  502 -0.00000000000E+00 -0.00000000000E+00 -0.42369180291E+03  0.42369180291E+03  0.00000000000E+00 0.  1.
         25    1    1    2    0    0 -0.22356289256E+03  0.20751919056E+03 -0.27557919692E+03  0.42966670240E+03  0.12500000000E+03 0.  0.
         21    1    1    2  503  501  0.22356289256E+03 -0.20751919056E+03  0.25623550419E+03  0.39837321068E+03  0.00000000000E+00 0.  1.
<mgrwt>
<rscale>  3 0.32965070E+03</rscale>
<asrwt>0</asrwt>
<pdfrwt beam="1">  1       21 0.62207402E-01 0.32965070E+03</pdfrwt>
<pdfrwt beam="2">  1       21 0.65183354E-01 0.32965070E+03</pdfrwt>
<totfact> 0.47808320E+03</totfact>
</mgrwt>
</event>
<event>
 4    0  0.1005289E-001  0.2966807E+03  0.7546771E-02  0.1086912E+00
         21   -1    0    0  503  501  0.00000000000E+00  0.00000000000E+00  0.25483016385E+04  0.25483016385E+04  0.00000000000E+00 0. -1.
         21   -1    0    0  501  502 -0.00000000000E+00 -0.00000000000E+00 -0.50642132520E+02  0.50642132520E+02  0.00000000000E+00 0. -1.
         25    1    1    2    0    0  0.46980943213E+02  0.26492871002E+03  0.48620978808E+03  0.56957825489E+03  0.12500000000E+03 0.  0.
         21    1    1    2  503  502 -0.46980943213E+02 -0.26492871002E+03  0.20114497179E+04  0.20293655162E+04  0.00000000000E+00 0. -1.
<mgrwt>
<rscale>  3 0.29668069E+03</rscale>
<asrwt>0</asrwt>
<pdfrwt beam="1">  1       21 0.39204631E+00 0.29668069E+03</pdfrwt>
<pdfrwt beam="2">  1       21 0.77910993E-02 0.29668069E+03</pdfrwt>
<totfact> 0.10818480E+03</totfact>
</mgrwt>
</event>
<event>
 4    0  0.1005289E-001  0.2519040E+03  0.7546771E-02  0.1112107E+00
         21   -1    0    0  503  501  0.00000000000E+00  0.00000000000E+00  0.10047790489E+03  0.10047790489E+03  0.00000000000E+00 0. -1.
         21   -1    0    0  501  502 -0.00000000000E+00 -0.00000000000E+00 -0.83078137860E+03  0.83078137860E+03  0.00000000000E+00 0.  1.
         25    1    1    2    0    0  0.21287508038E+03 -0.50147859984E+02 -0.65198586372E+03  0.69895720484E+03  0.12500000000E+03 0.  0.
         21    1    1    2  503  502 -0.21287508038E+03  0.50147859984E+02 -0.78317609988E+02  0.23230207864E+03  0.00000000000E+00 0. -1.
<mgrwt>
<rscale>  3 0.25190397E+03</rscale>
<asrwt>0</asrwt>
<pdfrwt beam="1">  1       21 0.15458139E-01 0.25190397E+03</pdfrwt>
<pdfrwt beam="2">  1       21 0.12781252E+00 0.25190397E+03</pdfrwt>
<totfact> 0.16161393E+04</totfact>
</mgrwt>
</event>
<event>
 4    0  0.1109161E-001  0.2643564E+03  0.7546771E-02  0.1104554E+00
         21   -1    0    0  502  501  0.00000000000E+00  0.00000000000E+00  0.54999652734E+03  0.54999652734E+03  0.00000000000E+00 0. -1.
         21   -1    0    0  503  502 -0.00000000000E+00 -0.00000000000E+00 -0.45067064307E+03  0.45067064307E+03  0.00000000000E+00 0. -1.
         25    1    1    2    0    0  0.17449978830E+03 -0.15430207379E+03 -0.38280538340E+03  0.46521421695E+03  0.12500000000E+03 0.  0.
         21    1    1    2  503  501 -0.17449978830E+03  0.15430207379E+03  0.48213126767E+03  0.53545295345E+03  0.00000000000E+00 0. -1.
<mgrwt>
<rscale>  3 0.26435640E+03</rscale>
<asrwt>0</asrwt>
<pdfrwt beam="1">  1       21 0.84614851E-01 0.26435640E+03</pdfrwt>
<pdfrwt beam="2">  1       21 0.69333945E-01 0.26435640E+03</pdfrwt>
<totfact> 0.21670856E+03</totfact>
</mgrwt>
</event>
<event>
 4    0  0.1409921E-001  0.2642628E+03  0.7546771E-02  0.1104609E+00
         21   -1    0    0  502  501  0.00000000000E+00  0.00000000000E+00  0.89646591693E+03  0.89646591693E+03  0.00000000000E+00 0.  1.
         21   -1    0    0  503  502 -0.00000000000E+00 -0.00000000000E+00 -0.69039416009E+02  0.69039416009E+02  0.00000000000E+00 0.  1.
         25    1    1    2    0    0 -0.44426414904E+02  0.22855221664E+03  0.46069733369E+03  0.53110908046E+03  0.12500000000E+03 0.  0.
         21    1    1    2  503  501  0.44426414904E+02 -0.22855221664E+03  0.36672916723E+03  0.43439625248E+03  0.00000000000E+00 0.  1.
<mgrwt>
<rscale>  3 0.26426279E+03</rscale>
<asrwt>0</asrwt>
<pdfrwt beam="1">  1       21 0.13791783E+00 0.26426279E+03</pdfrwt>
<pdfrwt beam="2">  1       21 0.10621449E-01 0.26426279E+03</pdfrwt>
<totfact> 0.26072403E+04</totfact>
</mgrwt>
</event>
<event>
 4    0  0.1005289E-001  0.2711320E+03  0.7546771E-02  0.1100633E+00
         21   -1    0    0  503  501  0.00000000000E+00  0.00000000000E+00  0.13261438570E+03  0.13261438570E+03  0.00000000000E+00 0. -1.
         21   -1    0    0  501  502 -0.00000000000E+00 -0.00000000000E+00 -0.60164298925E+03  0.60164298925E+03  0.00000000000E+00 0.  1.
         25    1    1    2    0    0 -0.92669145417E+02  0.22203599855E+03 -0.40129988479E+03  0.48430791104E+03  0.12500000000E+03 0.  0.
         21    1    1    2  503  502  0.92669145417E+02 -0.22203599855E+03 -0.67728718754E+02  0.24994946391E+03  0.00000000000E+00 0. -1.
<mgrwt>
<rscale>  3 0.27113199E+03</rscale>
<asrwt>0</asrwt>
<pdfrwt beam="1">  1       21 0.20402213E-01 0.27113199E+03</pdfrwt>
<pdfrwt beam="2">  1       21 0.92560462E-01 0.27113199E+03</pdfrwt>
<totfact> 0.20999289E+04</totfact>
</mgrwt>
</event>
<event>
 4    0  0.1524857E-001  0.2799978E+03  0.7546771E-02  0.1095690E+00
         21   -1    0    0  503  501  0.00000000000E+00  0.00000000000E+00  0.84413568524E+03  0.84413568524E+03  0.00000000000E+00 0. -1.
         21   -1    0    0  501  502 -0.00000000000E+00 -0.00000000000E+00 -0.24007020064E+03  0.24007020064E+03  0.00000000000E+00 0.  1.
         25    1    1    2    0    0 -0.19719644488E+03  0.15455518574E+03 -0.12989430786E+03  0.30866045184E+03  0.12500000000E+03 0.  0.
         21    1    1    2  503  502  0.19719644488E+03 -0.15455518574E+03  0.73395979246E+03  0.77554543404E+03  0.00000000000E+00 0. -1.
<mgrwt>
<rscale>  3 0.27999776E+03</rscale>
<asrwt>0</asrwt>
<pdfrwt beam="1">  1       21 0.12986703E+00 0.27999776E+03</pdfrwt>
<pdfrwt beam="2">  1       21 0.36933877E-01 0.27999776E+03</pdfrwt>
<totfact> 0.28702750E+03</totfact>
</mgrwt>
</event>
<event>
 4    0  0.1526820E-001  0.2633428E+03  0.7546771E-02  0.1105151E+00
         21   -1    0    0  503  501  0.00000000000E+00  0.00000000000E+00  0.77740767497E+02  0.77740767497E+02  0.00000000000E+00 0. -1.
         21   -1    0    0  501  502 -0.00000000000E+00 -0.00000000000E+00 -0.90194644865E+03  0.90194644865E+03  0.00000000000E+00 0. -1.
         25    1    1    2    0    0 -0.21470208056E+03 -0.87335208794E+02 -0.60858192383E+03  0.66311490717E+03  0.12500000000E+03 0.  0.
         21    1    1    2  503  502  0.21470208056E+03  0.87335208794E+02 -0.21562375732E+03  0.31657230898E+03  0.00000000000E+00 0. -1.
<mgrwt>
<rscale>  3 0.26334278E+03</rscale>
<asrwt>0</asrwt>
<pdfrwt beam="1">  1       21 0.11960119E-01 0.26334278E+03</pdfrwt>
<pdfrwt beam="2">  1       21 0.13876099E+00 0.26334278E+03</pdfrwt>
<totfact> 0.20749195E+04</totfact>
</mgrwt>
</event>
<event>
 4    0  0.1015918E-001  0.2539464E+03  0.7546771E-02  0.1110836E+00
         21   -1    0    0  502  501  0.00000000000E+00  0.00000000000E+00  0.12339781906E+04  0.12339781906E+04  0.00000000000E+00 0.  1.
         21   -1    0    0  503  502 -0.00000000000E+00 -0.00000000000E+00 -0.18330271146E+03  0.18330271146E+03  0.00000000000E+00 0.  1.
         25    1    1    2    0    0 -0.19871386199E+03 -0.96832829658E+02 -0.79180237240E+02  0.26600433421E+03  0.12500000000E+03 0.  0.
         21    1    1    2  503  501  0.19871386199E+03  0.96832829658E+02  0.11298557163E+04  0.11512765678E+04  0.00000000000E+00 0.  1.
<mgrwt>
<rscale>  3 0.25394644E+03</rscale>
<asrwt>0</asrwt>
<pdfrwt beam="1">  1       21 0.18984279E+00 0.25394644E+03</pdfrwt>
<pdfrwt beam="2">  1       21 0.28200418E-01 0.25394644E+03</pdfrwt>
<totfact> 0.17763338E+03</totfact>
</mgrwt>
</event>
<event>
 4    0  0.1543693E-001  0.2492915E+03  0.7546771E-02  0.1113753E+00
         21   -1    0    0  502  501  0.00000000000E+00  0.00000000000E+00  0.15524284891E+03  0.15524284891E+03  0.00000000000E+00 0.  1.
         21   -1    0    0  503  502 -0.00000000000E+00 -0.00000000000E+00 -0.35689462940E+03  0.35689462940E+03  0.00000000000E+00 0.  1.
         25    1    1    2    0    0 -0.17713030145E+03 -0.12306954185E+03 -0.14786102942E+03  0.28984330222E+03  0.12500000000E+03 0.  0.
         21    1    1    2  503  501  0.17713030145E+03  0.12306954185E+03 -0.53790751064E+02  0.22229417609E+03  0.00000000000E+00 0.  1.
<mgrwt>
<rscale>  3 0.24929151E+03</rscale>
<asrwt>0</asrwt>
<pdfrwt beam="1">  1       21 0.23883515E-01 0.24929151E+03</pdfrwt>
<pdfrwt beam="2">  1       21 0.54906866E-01 0.24929151E+03</pdfrwt>
<totfact> 0.50436391E+04</totfact>
</mgrwt>
</event>
<event>
 4    0  0.1005289E-001  0.4884488E+03  0.7546771E-02  0.1016839E+00
         21   -1    0    0  502  501  0.00000000000E+00  0.00000000000E+00  0.30554041508E+03  0.30554041508E+03  0.00000000000E+00 0. -1.
         21   -1    0    0  503  502 -0.00000000000E+00 -0.00000000000E+00 -0.79008529337E+03  0.79008529337E+03  0.00000000000E+00 0.  1.
         25    1    1    2    0    0 -0.22504326247E+03  0.41510571555E+03 -0.36150653080E+03  0.60767523964E+03  0.12500000000E+03 0.  0.
         21    1    1    2  503  501  0.22504326247E+03 -0.41510571555E+03 -0.12303834749E+03  0.48795046881E+03  0.00000000000E+00 0. -1.
<mgrwt>
<rscale>  3 0.48844879E+03</rscale>
<asrwt>0</asrwt>
<pdfrwt beam="1">  1       21 0.47006218E-01 0.48844879E+03</pdfrwt>
<pdfrwt beam="2">  1       21 0.12155158E+00 0.48844879E+03</pdfrwt>
<totfact> 0.18773666E+03</totfact>
</mgrwt>
</event>
<event>
 4    0  0.1502090E-001  0.2450493E+03  0.7546771E-02  0.1116474E+00
         21   -1    0    0  502  501  0.00000000000E+00  0.00000000000E+00  0.11855676694E+03  0.11855676694E+03  0.00000000000E+00 0.  1.
         21   -1    0    0  503  502 -0.00000000000E+00 -0.00000000000E+00 -0.48690239340E+03  0.48690239340E+03  0.00000000000E+00 0.  1.
         25    1    1    2    0    0  0.14112216480E+03 -0.15655254863E+03 -0.29220685527E+03  0.38135811536E+03  0.12500000000E+03 0.  0.
         21    1    1    2  503  501 -0.14112216480E+03  0.15655254863E+03 -0.76138771189E+02  0.22410104498E+03  0.00000000000E+00 0.  1.
<mgrwt>
<rscale>  3 0.24504931E+03</rscale>
<asrwt>0</asrwt>
<pdfrwt beam="1">  1       21 0.18239503E-01 0.24504931E+03</pdfrwt>
<pdfrwt beam="2">  1       21 0.74908060E-01 0.24504931E+03</pdfrwt>
<totfact> 0.42606176E+04</totfact>
</mgrwt>
</event>
<event>
 4    0  0.1096428E-001  0.4407757E+03  0.7546771E-02  0.1030509E+00
         21   -1    0    0  502  501  0.00000000000E+00  0.00000000000E+00  0.22537952792E+03  0.22537952792E+03  0.00000000000E+00 0. -1.
         21   -1    0    0  503  502 -0.00000000000E+00 -0.00000000000E+00 -0.11493977834E+04  0.11493977834E+04  0.00000000000E+00 0. -1.
         25    1    1    2    0    0  0.15686078910E+03 -0.39249579915E+03 -0.83297003615E+03  0.94240243029E+03  0.12500000000E+03 0.  0.
         21    1    1    2  503  501 -0.15686078910E+03  0.39249579915E+03 -0.91048219333E+02  0.43237488103E+03  0.00000000000E+00 0. -1.
<mgrwt>
<rscale>  3 0.44077575E+03</rscale>
<asrwt>0</asrwt>
<pdfrwt beam="1">  1       21 0.34673774E-01 0.44077575E+03</pdfrwt>
<pdfrwt beam="2">  1       21 0.17683043E+00 0.44077575E+03</pdfrwt>
<totfact> 0.12992134E+03</totfact>
</mgrwt>
</event>
<event>
 4    0  0.1373197E-001  0.2383342E+03  0.7546771E-02  0.1120908E+00
         21   -1    0    0  503  501  0.00000000000E+00  0.00000000000E+00  0.53041791400E+02  0.53041791400E+02  0.00000000000E+00 0. -1.
         21   -1    0    0  501  502 -0.00000000000E+00 -0.00000000000E+00 -0.11824568396E+04  0.11824568396E+04  0.00000000000E+00 0. -1.
         25    1    1    2    0    0 -0.74276794267E+02  0.18884158154E+03 -0.89144852382E+03  0.92275872020E+03  0.12500000000E+03 0.  0.
         21    1    1    2  503  502  0.74276794267E+02 -0.18884158154E+03 -0.23796652440E+03  0.31273991082E+03  0.00000000000E+00 0. -1.
<mgrwt>
<rscale>  3 0.23833419E+03</rscale>
<asrwt>0</asrwt>
<pdfrwt beam="1">  1       21 0.81602752E-02 0.23833419E+03</pdfrwt>
<pdfrwt beam="2">  1       21 0.18191645E+00 0.23833419E+03</pdfrwt>
<totfact> 0.19850043E+04</totfact>
</mgrwt>
</event>
<event>
 4    0  0.1242665E-001  0.2810925E+03  0.7546771E-02  0.1095094E+00
         21   -1    0    0  502  501  0.00000000000E+00  0.00000000000E+00  0.12506266660E+04  0.12506266660E+04  0.00000000000E+00 0.  1.
         21   -1    0    0  503  502 -0.00000000000E+00 -0.00000000000E+00 -0.94857480928E+02  0.94857480928E+02  0.00000000000E+00 0.  1.
         25    1    1    2    0    0  0.12386482985E+02 -0.25146487143E+03  0.17095456951E+03  0.32899615706E+03  0.12500000000E+03 0.  0.
         21    1    1    2  503  501 -0.12386482985E+02  0.25146487143E+03  0.98481461560E+03  0.10164879899E+04  0.00000000000E+00 0.  1.
<mgrwt>
<rscale>  3 0.28109252E+03</rscale>
<asrwt>0</asrwt>
<pdfrwt beam="1">  1       21 0.19240409E+00 0.28109252E+03</pdfrwt>
<pdfrwt beam="2">  1       21 0.14593460E-01 0.28109252E+03</pdfrwt>
<totfact> 0.58037653E+03</totfact>
</mgrwt>
</event>
<event>
 4    0  0.1677691E-001  0.2853860E+03  0.7546771E-02  0.1092783E+00
         21   -1    0    0  502  501  0.00000000000E+00  0.00000000000E+00  0.49683667654E+03  0.49683667654E+03  0.00000000000E+00 0.  1.
         21   -1    0    0  503  502 -0.00000000000E+00 -0.00000000000E+00 -0.15951327400E+03  0.15951327400E+03  0.00000000000E+00 0.  1.
         25    1    1    2    0    0  0.22548110361E+03  0.12238651901E+03  0.88104081432E+02  0.29867627506E+03  0.12500000000E+03 0.  0.
         21    1    1    2  503  501 -0.22548110361E+03 -0.12238651901E+03  0.24921932111E+03  0.35767367548E+03  0.00000000000E+00 0.  1.
<mgrwt>
<rscale>  3 0.28538603E+03</rscale>
<asrwt>0</asrwt>
<pdfrwt beam="1">  1       21 0.76436411E-01 0.28538603E+03</pdfrwt>
<pdfrwt beam="2">  1       21 0.24540504E-01 0.28538603E+03</pdfrwt>
<totfact> 0.22830039E+04</totfact>
</mgrwt>
</event>
<event>
 4    0  0.1658429E-001  0.2642387E+03  0.7546771E-02  0.1104623E+00
         21   -1    0    0  503  501  0.00000000000E+00  0.00000000000E+00  0.24916107491E+03  0.24916107491E+03  0.00000000000E+00 0.  1.
         21   -1    0    0  501  502 -0.00000000000E+00 -0.00000000000E+00 -0.25586766715E+03  0.25586766715E+03  0.00000000000E+00 0.  1.
         25    1    1    2    0    0  0.73578751902E+02  0.22086931960E+03 -0.48082558036E+02  0.26857777544E+03  0.12500000000E+03 0.  0.
         21    1    1    2  503  502 -0.73578751902E+02 -0.22086931960E+03  0.41375965790E+02  0.23645096662E+03  0.00000000000E+00 0.  1.
<mgrwt>
<rscale>  3 0.26423870E+03</rscale>
<asrwt>0</asrwt>
<pdfrwt beam="1">  1       21 0.38332473E-01 0.26423870E+03</pdfrwt>
<pdfrwt beam="2">  1       21 0.39364256E-01 0.26423870E+03</pdfrwt>
<totfact> 0.39520513E+04</totfact>
</mgrwt>
</event>
<event>
 4    0  0.1295854E-001  0.2951922E+03  0.7546771E-02  0.1087669E+00
         21   -1    0    0  502  501  0.00000000000E+00  0.00000000000E+00  0.22860573290E+03  0.22860573290E+03  0.00000000000E+00 0.  1.
         21   -1    0    0  503  502 -0.00000000000E+00 -0.00000000000E+00 -0.18325842135E+04  0.18325842135E+04  0.00000000000E+00 0. -1.
         25    1    1    2    0    0  0.19418634419E+03 -0.18386165435E+03 -0.17374246992E+04  0.17623231911E+04  0.12500000000E+03 0.  0.
         21    1    1    2  503  501 -0.19418634419E+03  0.18386165435E+03  0.13344621861E+03  0.29886675538E+03  0.00000000000E+00 0.  1.
<mgrwt>
<rscale>  3 0.29519222E+03</rscale>
<asrwt>0</asrwt>
<pdfrwt beam="1">  1       21 0.35170113E-01 0.29519222E+03</pdfrwt>
<pdfrwt beam="2">  1       21 0.28193603E+00 0.29519222E+03</pdfrwt>
<totfact> 0.30003136E+02</totfact>
</mgrwt>
</event>
<event>
 4    0  0.1005289E-001  0.3263619E+03  0.7546771E-02  0.1072758E+00
         21   -1    0    0  503  501  0.00000000000E+00  0.00000000000E+00  0.68880230015E+02  0.68880230015E+02  0.00000000000E+00 0. -1.
         21   -1    0    0  501  502 -0.00000000000E+00 -0.00000000000E+00 -0.27989838379E+04  0.27989838379E+04  0.00000000000E+00 0. -1.
         25    1    1    2    0    0 -0.30081633059E+03  0.19915157984E+02 -0.23948925140E+04  0.24170275612E+04  0.12500000000E+03 0.  0.
         21    1    1    2  503  502  0.30081633059E+03 -0.19915157984E+02 -0.33521109388E+03  0.45083650665E+03  0.00000000000E+00 0. -1.
<mgrwt>
<rscale>  3 0.32636188E+03</rscale>
<asrwt>0</asrwt>
<pdfrwt beam="1">  1       21 0.10596957E-01 0.32636188E+03</pdfrwt>
<pdfrwt beam="2">  1       21 0.43061295E+00 0.32636188E+03</pdfrwt>
<totfact> 0.34459765E+02</totfact>
</mgrwt>
</event>
<event>
 4    0  0.1005289E-001  0.2594833E+03  0.7546771E-02  0.1107454E+00
         21   -1    0    0  502  501  0.00000000000E+00  0.00000000000E+00  0.15352369064E+04  0.15352369064E+04  0.00000000000E+00 0.  1.
         21   -1    0    0  503  502 -0.00000000000E+00 -0.00000000000E+00 -0.12154497456E+03  0.12154497456E+03  0.00000000000E+00 0.  1.
         25    1    1    2    0    0 -0.76428141333E+01 -0.22726233782E+03  0.37794966017E+02  0.26222136118E+03  0.12500000000E+03 0.  0.
         21    1    1    2  503  501  0.76428141333E+01  0.22726233782E+03  0.13758969658E+04  0.13945605198E+04  0.00000000000E+00 0.  1.
<mgrwt>
<rscale>  3 0.25948330E+03</rscale>
<asrwt>0</asrwt>
<pdfrwt beam="1">  1       21 0.23619028E+00 0.25948330E+03</pdfrwt>
<pdfrwt beam="2">  1       21 0.18699228E-01 0.25948330E+03</pdfrwt>
<totfact> 0.19683182E+03</totfact>
</mgrwt>
</event>
<event>
 4    0  0.1231678E-001  0.2648712E+03  0.7546771E-02  0.1104251E+00
         21   -1    0    0  503  501  0.00000000000E+00  0.00000000000E+00  0.27847255898E+03  0.27847255898E+03  0.00000000000E+00 0.  1.
         21   -1    0    0  501  502 -0.00000000000E+00 -0.00000000000E+00 -0.56430354628E+03  0.56430354628E+03  0.00000000000E+00 0.  1.
         25    1    1    2    0    0  0.23268464820E+03 -0.19738279074E+02 -0.47392816082E+03  0.54292232113E+03  0.12500000000E+03 0.  0.
         21    1    1    2  503  502 -0.23268464820E+03  0.19738279074E+02  0.18809717352E+03  0.29985378412E+03  0.00000000000E+00 0.  1.
<mgrwt>
<rscale>  3 0.26487119E+03</rscale>
<asrwt>0</asrwt>
<pdfrwt beam="1">  1       21 0.42841932E-01 0.26487119E+03</pdfrwt>
<pdfrwt beam="2">  1       21 0.86815930E-01 0.26487119E+03</pdfrwt>
<totfact> 0.56991929E+03</totfact>
</mgrwt>
</event>
<event>
 4    0  0.1010234E-001  0.2869988E+03  0.7546771E-02  0.1091927E+00
         21   -1    0    0  503  501  0.00000000000E+00  0.00000000000E+00  0.20155999533E+04  0.20155999533E+04  0.00000000000E+00 0.  1.
         21   -1    0    0  501  502 -0.00000000000E+00 -0.00000000000E+00 -0.49083601837E+02  0.49083601837E+02  0.00000000000E+00 0.  1.
         25    1    1    2    0    0  0.11232370274E+03  0.23265142968E+03  0.50802106702E+03  0.58348410986E+03  0.12500000000E+03 0.  0.
         21    1    1    2  503  502 -0.11232370274E+03 -0.23265142968E+03  0.14584952844E+04  0.14811994452E+04  0.00000000000E+00 0.  1.
<mgrwt>
<rscale>  3 0.28699878E+03</rscale>
<asrwt>0</asrwt>
<pdfrwt beam="1">  1       21 0.31009224E+00 0.28699878E+03</pdfrwt>
<pdfrwt beam="2">  1       21 0.75513249E-02 0.28699878E+03</pdfrwt>
<totfact> 0.36063580E+03</totfact>
</mgrwt>
</event>
<event>
 4    0  0.1375002E-001  0.2538632E+03  0.7546771E-02  0.1110887E+00
         21   -1    0    0  502  501  0.00000000000E+00  0.00000000000E+00  0.11968862619E+03  0.11968862619E+03  0.00000000000E+00 0. -1.
         21   -1    0    0  503  502 -0.00000000000E+00 -0.00000000000E+00 -0.66742389200E+03  0.66742389200E+03  0.00000000000E+00 0. -1.
         25    1    1    2    0    0  0.30318177843E+02 -0.21886604356E+03 -0.50044559010E+03  0.56115267582E+03  0.12500000000E+03 0.  0.
         21    1    1    2  503  501 -0.30318177843E+02  0.21886604356E+03 -0.47289675713E+02  0.22595984237E+03  0.00000000000E+00 0. -1.
<mgrwt>
<rscale>  3 0.25386322E+03</rscale>
<asrwt>0</asrwt>
<pdfrwt beam="1">  1       21 0.18413635E-01 0.25386322E+03</pdfrwt>
<pdfrwt beam="2">  1       21 0.10268060E+00 0.25386322E+03</pdfrwt>
<totfact> 0.20049131E+04</totfact>
</mgrwt>
</event>
<event>
 4    0  0.1453534E-001  0.2685552E+03  0.7546771E-02  0.1102109E+00
         21   -1    0    0  502  501  0.00000000000E+00  0.00000000000E+00  0.16181003769E+03  0.16181003769E+03  0.00000000000E+00 0.  1.
         21   -1    0    0  503  502 -0.00000000000E+00 -0.00000000000E+00 -0.84480963677E+03  0.84480963677E+03  0.00000000000E+00 0. -1.
         25    1    1    2    0    0 -0.22781621362E+03  0.67798912605E+02 -0.71780135024E+03  0.76639460994E+03  0.12500000000E+03 0.  0.
         21    1    1    2  503  501  0.22781621362E+03 -0.67798912605E+02  0.34801751164E+02  0.24022506452E+03  0.00000000000E+00 0.  1.
<mgrwt>
<rscale>  3 0.26855525E+03</rscale>
<asrwt>0</asrwt>
<pdfrwt beam="1">  1       21 0.24893852E-01 0.26855525E+03</pdfrwt>
<pdfrwt beam="2">  1       21 0.12997071E+00 0.26855525E+03</pdfrwt>
<totfact> 0.62703022E+03</totfact>
</mgrwt>
</event>
<event>
 4    0  0.1466545E-001  0.2802567E+03  0.7546771E-02  0.1095549E+00
         21   -1    0    0  503  501  0.00000000000E+00  0.00000000000E+00  0.53726029652E+03  0.53726029652E+03  0.00000000000E+00 0.  1.
         21   -1    0    0  501  502 -0.00000000000E+00 -0.00000000000E+00 -0.13184662470E+03  0.13184662470E+03  0.00000000000E+00 0.  1.
         25    1    1    2    0    0  0.10107927068E+03  0.22956869310E+03  0.19139681730E+03  0.33937670144E+03  0.12500000000E+03 0.  0.
         21    1    1    2  503  502 -0.10107927068E+03 -0.22956869310E+03  0.21401685453E+03  0.32973021977E+03  0.00000000000E+00 0.  1.
<mgrwt>
<rscale>  3 0.28025667E+03</rscale>
<asrwt>0</asrwt>
<pdfrwt beam="1">  1       21 0.82655429E-01 0.28025667E+03</pdfrwt>
<pdfrwt beam="2">  1       21 0.20284096E-01 0.28025667E+03</pdfrwt>
<totfact> 0.27510772E+04</totfact>
</mgrwt>
</event>
<event>
 4    0  0.1005289E-001  0.2367884E+03  0.7546771E-02  0.1121951E+00
         21   -1    0    0  503  501  0.00000000000E+00  0.00000000000E+00  0.26772059627E+03  0.26772059627E+03  0.00000000000E+00 0.  1.
         21   -1    0    0  501  502 -0.00000000000E+00 -0.00000000000E+00 -0.19462723405E+03  0.19462723405E+03  0.00000000000E+00 0. -1.
         25    1    1    2    0    0 -0.17832491992E+03  0.92973033995E+02 -0.25893877403E+02  0.23820003149E+03  0.12500000000E+03 0.  0.
         21    1    1    2  503  502  0.17832491992E+03 -0.92973033995E+02  0.98987239623E+02  0.22414779884E+03  0.00000000000E+00 0.  1.
<mgrwt>
<rscale>  3 0.23678843E+03</rscale>
<asrwt>0</asrwt>
<pdfrwt beam="1">  1       21 0.41187784E-01 0.23678843E+03</pdfrwt>
<pdfrwt beam="2">  1       21 0.29942651E-01 0.23678843E+03</pdfrwt>
<totfact> 0.59562043E+04</totfact>
</mgrwt>
</event>
<event>
 4    0  0.1005289E-001  0.2415383E+03  0.7546771E-02  0.1118772E+00
         21   -1    0    0  503  501  0.00000000000E+00  0.00000000000E+00  0.68796120859E+02  0.68796120859E+02  0.00000000000E+00 0.  1.
         21   -1    0    0  501  502 -0.00000000000E+00 -0.00000000000E+00 -0.12676660690E+04  0.12676660690E+04  0.00000000000E+00 0. -1.
         25    1    1    2    0    0  0.16561480836E+03 -0.12364253445E+03 -0.10606981124E+04  0.10878516566E+04  0.12500000000E+03 0.  0.
         21    1    1    2  503  502 -0.16561480836E+03  0.12364253445E+03 -0.13817183577E+03  0.24861053331E+03  0.00000000000E+00 0.  1.
<mgrwt>
<rscale>  3 0.24153828E+03</rscale>
<asrwt>0</asrwt>
<pdfrwt beam="1">  1       21 0.10584019E-01 0.24153828E+03</pdfrwt>
<pdfrwt beam="2">  1       21 0.19502553E+00 0.24153828E+03</pdfrwt>
<totfact> 0.10223532E+04</totfact>
</mgrwt>
</event>
<event>
 4    0  0.1514223E-001  0.2539147E+03  0.7546771E-02  0.1110856E+00
         21   -1    0    0  502  501  0.00000000000E+00  0.00000000000E+00  0.38613494000E+03  0.38613494000E+03  0.00000000000E+00 0. -1.
         21   -1    0    0  503  502 -0.00000000000E+00 -0.00000000000E+00 -0.18290132452E+03  0.18290132452E+03  0.00000000000E+00 0. -1.
         25    1    1    2    0    0  0.39273432904E+02 -0.21749776535E+03 -0.20253086900E+02  0.25472115733E+03  0.12500000000E+03 0.  0.
         21    1    1    2  503  501 -0.39273432904E+02  0.21749776535E+03  0.22348670238E+03  0.31431510719E+03  0.00000000000E+00 0. -1.
<mgrwt>
<rscale>  3 0.25391471E+03</rscale>
<asrwt>0</asrwt>
<pdfrwt beam="1">  1       21 0.59405375E-01 0.25391471E+03</pdfrwt>
<pdfrwt beam="2">  1       21 0.28138665E-01 0.25391471E+03</pdfrwt>
<totfact> 0.30992097E+04</totfact>
</mgrwt>
</event>
<event>
 4    0  0.1005289E-001  0.3658624E+03  0.7546771E-02  0.1056286E+00
         21   -1    0    0  502  501  0.00000000000E+00  0.00000000000E+00  0.26414469968E+03  0.26414469968E+03  0.00000000000E+00 0.  1.
         21   -1    0    0  503  502 -0.00000000000E+00 -0.00000000000E+00 -0.48308814007E+03  0.48308814007E+03  0.00000000000E+00 0. -1.
         25    1    1    2    0    0  0.12793261493E+03 -0.31916063794E+03 -0.15571746901E+03  0.39762192712E+03  0.12500000000E+03 0.  0.
         21    1    1    2  503  501 -0.12793261493E+03  0.31916063794E+03 -0.63225971377E+02  0.34961091263E+03  0.00000000000E+00 0.  1.
<mgrwt>
<rscale>  3 0.36586236E+03</rscale>
<asrwt>0</asrwt>
<pdfrwt beam="1">  1       21 0.40637646E-01 0.36586236E+03</pdfrwt>
<pdfrwt beam="2">  1       21 0.74321252E-01 0.36586236E+03</pdfrwt>
<totfact> 0.86567542E+03</totfact>
</mgrwt>
</event>
<event>
 4    0  0.1368809E-001  0.2591591E+03  0.7546771E-02  0.1107650E+00
         21   -1    0    0  503  501  0.00000000000E+00  0.00000000000E+00  0.87523009916E+02  0.87523009916E+02  0.00000000000E+00 0. -1.
         21   -1    0    0  501  502 -0.00000000000E+00 -0.00000000000E+00 -0.71392950643E+03  0.71392950643E+03  0.00000000000E+00 0. -1.
         25    1    1    2    0    0  0.10623861950E+03 -0.20062846166E+03 -0.23960297751E+03  0.35294902002E+03  0.12500000000E+03 0.  0.
         21    1    1    2  503  502 -0.10623861950E+03  0.20062846166E+03 -0.38680351900E+03  0.44850349632E+03  0.00000000000E+00 0. -1.
<mgrwt>
<rscale>  3 0.25915907E+03</rscale>
<asrwt>0</asrwt>
<pdfrwt beam="1">  1       21 0.13465079E-01 0.25915907E+03</pdfrwt>
<pdfrwt beam="2">  1       21 0.10983530E+00 0.25915907E+03</pdfrwt>
<totfact> 0.30214074E+04</totfact>
</mgrwt>
</event>
<event>
 4    0  0.1005289E-001  0.5263589E+03  0.7546771E-02  0.1007119E+00
         21   -1    0    0  502  501  0.00000000000E+00  0.00000000000E+00  0.10928835533E+04  0.10928835533E+04  0.00000000000E+00 0. -1.
         21   -1    0    0  503  502 -0.00000000000E+00 -0.00000000000E+00 -0.65164677838E+03  0.65164677838E+03  0.00000000000E+00 0. -1.
         25    1    1    2    0    0  0.38491444829E+03  0.33655542111E+03 -0.46608673996E+03  0.70305798705E+03  0.12500000000E+03 0.  0.
         21    1    1    2  503  501 -0.38491444829E+03 -0.33655542111E+03  0.90732351483E+03  0.10414723446E+04  0.00000000000E+00 0. -1.
<mgrwt>
<rscale>  3 0.52635889E+03</rscale>
<asrwt>0</asrwt>
<pdfrwt beam="1">  1       21 0.16813593E+00 0.52635889E+03</pdfrwt>
<pdfrwt beam="2">  1       21 0.10025335E+00 0.52635889E+03</pdfrwt>
<totfact> 0.13962930E+02</totfact>
</mgrwt>
</event>
<event>
 4    0  0.1244593E-001  0.2387250E+03  0.7546771E-02  0.1120645E+00
         21   -1    0    0  503  501  0.00000000000E+00  0.00000000000E+00  0.86573765575E+03  0.86573765575E+03  0.00000000000E+00 0. -1.
         21   -1    0    0  501  502 -0.00000000000E+00 -0.00000000000E+00 -0.87929664632E+02  0.87929664632E+02  0.00000000000E+00 0. -1.
         25    1    1    2    0    0  0.14194377545E+03  0.14565907648E+03  0.12410628783E+03  0.26905756378E+03  0.12500000000E+03 0.  0.
         21    1    1    2  503  502 -0.14194377545E+03 -0.14565907648E+03  0.65370170328E+03  0.68460975659E+03  0.00000000000E+00 0. -1.
<mgrwt>
<rscale>  3 0.23872495E+03</rscale>
<asrwt>0</asrwt>
<pdfrwt beam="1">  1       21 0.13319040E+00 0.23872495E+03</pdfrwt>
<pdfrwt beam="2">  1       21 0.13527641E-01 0.23872495E+03</pdfrwt>
<totfact> 0.18696970E+04</totfact>
</mgrwt>
</event>
<event>
 4    0  0.1374609E-001  0.2870503E+03  0.7546771E-02  0.1091899E+00
         21   -1    0    0  503  501  0.00000000000E+00  0.00000000000E+00  0.86839161093E+03  0.86839161093E+03  0.00000000000E+00 0.  1.
         21   -1    0    0  501  502 -0.00000000000E+00 -0.00000000000E+00 -0.92530463276E+02  0.92530463276E+02  0.00000000000E+00 0.  1.
         25    1    1    2    0    0  0.12952054930E+03  0.22360070317E+03  0.27596755496E+03  0.39819083181E+03  0.12500000000E+03 0.  0.
         21    1    1    2  503  502 -0.12952054930E+03 -0.22360070317E+03  0.49989359270E+03  0.56273124240E+03  0.00000000000E+00 0.  1.
<mgrwt>
<rscale>  3 0.28705025E+03</rscale>
<asrwt>0</asrwt>
<pdfrwt beam="1">  1       21 0.13359870E+00 0.28705025E+03</pdfrwt>
<pdfrwt beam="2">  1       21 0.14235456E-01 0.28705025E+03</pdfrwt>
<totfact> 0.16493871E+04</totfact>
</mgrwt>
</event>
<event>
 4    0  0.1469038E-001  0.2637197E+03  0.7546771E-02  0.1104929E+00
         21   -1    0    0  502  501  0.00000000000E+00  0.00000000000E+00  0.28828746180E+03  0.28828746180E+03  0.00000000000E+00 0. -1.
         21   -1    0    0  503  502 -0.00000000000E+00 -0.00000000000E+00 -0.21386560832E+03  0.21386560832E+03  0.00000000000E+00 0. -1.
         25    1    1    2    0    0  0.13408672308E+03 -0.18958854273E+03  0.52623751580E+02  0.26891880573E+03  0.12500000000E+03 0.  0.
         21    1    1    2  503  501 -0.13408672308E+03  0.18958854273E+03  0.21798101892E+02  0.23323426440E+03  0.00000000000E+00 0. -1.
<mgrwt>
<rscale>  3 0.26371967E+03</rscale>
<asrwt>0</asrwt>
<pdfrwt beam="1">  1       21 0.44351917E-01 0.26371967E+03</pdfrwt>
<pdfrwt beam="2">  1       21 0.32902401E-01 0.26371967E+03</pdfrwt>
<totfact> 0.42044303E+04</totfact>
</mgrwt>
</event>
<event>
 4    0  0.1667131E-001  0.2781317E+03  0.7546771E-02  0.1096714E+00
         21   -1    0    0  503  501  0.00000000000E+00  0.00000000000E+00  0.10350344008E+04  0.10350344008E+04  0.00000000000E+00 0.  1.
         21   -1    0    0  501  502 -0.00000000000E+00 -0.00000000000E+00 -0.21174329509E+03  0.21174329509E+03  0.00000000000E+00 0. -1.
         25    1    1    2    0    0 -0.78393003866E+02 -0.23576849837E+03 -0.96208212126E+02  0.29430132171E+03  0.12500000000E+03 0.  0.
         21    1    1    2  503  502  0.78393003866E+02  0.23576849837E+03  0.91949931786E+03  0.95247637421E+03  0.00000000000E+00 0.  1.
<mgrwt>
<rscale>  3 0.27813171E+03</rscale>
<asrwt>0</asrwt>
<pdfrwt beam="1">  1       21 0.15923606E+00 0.27813171E+03</pdfrwt>
<pdfrwt beam="2">  1       21 0.32575892E-01 0.27813171E+03</pdfrwt>
<totfact> 0.21575840E+03</totfact>
</mgrwt>
</event>
<event>
 4    0  0.1421543E-001  0.2400376E+03  0.7546771E-02  0.1119768E+00
         21   -1    0    0  503  501  0.00000000000E+00  0.00000000000E+00  0.87698307909E+02  0.87698307909E+02  0.00000000000E+00 0. -1.
         21   -1    0    0  501  502 -0.00000000000E+00 -0.00000000000E+00 -0.56482434710E+03  0.56482434710E+03  0.00000000000E+00 0. -1.
         25    1    1    2    0    0  0.20162773856E+03 -0.36596423038E+02 -0.26624973619E+03  0.35847868159E+03  0.12500000000E+03 0.  0.
         21    1    1    2  503  502 -0.20162773856E+03  0.36596423038E+02 -0.21087630300E+03  0.29404397341E+03  0.00000000000E+00 0. -1.
<mgrwt>
<rscale>  3 0.24003759E+03</rscale>
<asrwt>0</asrwt>
<pdfrwt beam="1">  1       21 0.13492048E-01 0.24003759E+03</pdfrwt>
<pdfrwt beam="2">  1       21 0.86896049E-01 0.24003759E+03</pdfrwt>
<totfact> 0.52977562E+04</totfact>
</mgrwt>
</event>
<event>
 4    0  0.1005289E-001  0.2367868E+03  0.7546771E-02  0.1121952E+00
         21   -1    0    0  503  501  0.00000000000E+00  0.00000000000E+00  0.81403260322E+03  0.81403260322E+03  0.00000000000E+00 0. -1.
         21   -1    0    0  501  502 -0.00000000000E+00 -0.00000000000E+00 -0.58982135731E+02  0.58982135731E+02  0.00000000000E+00 0. -1.
         25    1    1    2    0    0 -0.19598241671E+03 -0.45098312477E+02  0.39090520461E+03  0.45702827531E+03  0.12500000000E+03 0.  0.
         21    1    1    2  503  502  0.19598241671E+03  0.45098312477E+02  0.36414526288E+03  0.41598646364E+03  0.00000000000E+00 0. -1.
<mgrwt>
<rscale>  3 0.23678675E+03</rscale>
<asrwt>0</asrwt>
<pdfrwt beam="1">  1       21 0.12523578E+00 0.23678675E+03</pdfrwt>
<pdfrwt beam="2">  1       21 0.90741753E-02 0.23678675E+03</pdfrwt>
<totfact> 0.44685349E+04</totfact>
</mgrwt>
</event>
<event>
 4    0  0.1046552E-001  0.4304434E+03  0.7546771E-02  0.1033720E+00
         21   -1    0    0  502  501  0.00000000000E+00  0.00000000000E+00  0.16521543589E+04  0.16521543589E+04  0.00000000000E+00 0.  1.
         21   -1    0    0  503  502 -0.00000000000E+00 -0.00000000000E+00 -0.11216845851E+03  0.11216845851E+03  0.00000000000E+00 0.  1.
         25    1    1    2    0    0  0.13019084958E+03 -0.39077726517E+03  0.60370599589E+03  0.74144619344E+03  0.12500000000E+03 0.  0.
         21    1    1    2  503  501 -0.13019084958E+03  0.39077726517E+03  0.93627990451E+03  0.10228766240E+04  0.00000000000E+00 0.  1.
<mgrwt>
<rscale>  3 0.43044341E+03</rscale>
<asrwt>0</asrwt>
<pdfrwt beam="1">  1       21 0.25417758E+00 0.43044341E+03</pdfrwt>
<pdfrwt beam="2">  1       21 0.17256687E-01 0.43044341E+03</pdfrwt>
<totfact> 0.15928480E+03</totfact>
</mgrwt>
</event>
<event>
 4    0  0.1444552E-001  0.3405766E+03  0.7546771E-02  0.1066551E+00
         21   -1    0    0  503  501  0.00000000000E+00  0.00000000000E+00  0.24386008957E+03  0.24386008957E+03  0.00000000000E+00 0.  1.
         21   -1    0    0  501  502 -0.00000000000E+00 -0.00000000000E+00 -0.44846910523E+03  0.44846910523E+03  0.00000000000E+00 0.  1.
         25    1    1    2    0    0  0.25674814307E+03  0.18560117173E+03 -0.14403722091E+03  0.36978253734E+03  0.12500000000E+03 0.  0.
         21    1    1    2  503  502 -0.25674814307E+03 -0.18560117173E+03 -0.60571794751E+02  0.32254665746E+03  0.00000000000E+00 0.  1.
<mgrwt>
<rscale>  3 0.34057658E+03</rscale>
<asrwt>0</asrwt>
<pdfrwt beam="1">  1       21 0.37516937E-01 0.34057658E+03</pdfrwt>
<pdfrwt beam="2">  1       21 0.68995247E-01 0.34057658E+03</pdfrwt>
<totfact> 0.12161214E+04</totfact>
</mgrwt>
</event>
<event>
 4    0  0.1397707E-001  0.3590331E+03  0.7546771E-02  0.1058967E+00
         21   -1    0    0  503  501  0.00000000000E+00  0.00000000000E+00  0.42314942836E+03  0.42314942836E+03  0.00000000000E+00 0. -1.
         21   -1    0    0  501  502 -0.00000000000E+00 -0.00000000000E+00 -0.34395459664E+03  0.34395459664E+03  0.00000000000E+00 0. -1.
         25    1    1    2    0    0 -0.17992359548E+03 -0.28444206382E+03 -0.11688758259E+03  0.37758111029E+03  0.12500000000E+03 0.  0.
         21    1    1    2  503  502  0.17992359548E+03  0.28444206382E+03  0.19608241432E+03  0.38952291471E+03  0.00000000000E+00 0. -1.
<mgrwt>
<rscale>  3 0.35903313E+03</rscale>
<asrwt>0</asrwt>
<pdfrwt beam="1">  1       21 0.65099913E-01 0.35903313E+03</pdfrwt>
<pdfrwt beam="2">  1       21 0.52916091E-01 0.35903313E+03</pdfrwt>
<totfact> 0.67163513E+03</totfact>
</mgrwt>
</event>
<event>
 4    0  0.1277687E-001  0.2434599E+03  0.7546771E-02  0.1117509E+00
         21   -1    0    0  502  501  0.00000000000E+00  0.00000000000E+00  0.19553112592E+03  0.19553112592E+03  0.00000000000E+00 0. -1.
         21   -1    0    0  503  502 -0.00000000000E+00 -0.00000000000E+00 -0.42200649013E+03  0.42200649013E+03  0.00000000000E+00 0. -1.
         25    1    1    2    0    0  0.19111506529E+03  0.84396526907E+02 -0.30858448626E+03  0.39306122563E+03  0.12500000000E+03 0.  0.
         21    1    1    2  503  501 -0.19111506529E+03 -0.84396526907E+02  0.82109122044E+02  0.22447639042E+03  0.00000000000E+00 0. -1.
<mgrwt>
<rscale>  3 0.24345994E+03</rscale>
<asrwt>0</asrwt>
<pdfrwt beam="1">  1       21 0.30081712E-01 0.24345994E+03</pdfrwt>
<pdfrwt beam="2">  1       21 0.64924075E-01 0.24345994E+03</pdfrwt>
<totfact> 0.22531734E+04</totfact>
</mgrwt>
</event>
<event>
 4    0  0.1322105E-001  0.2687118E+03  0.7546771E-02  0.1102019E+00
         21   -1    0    0  503  501  0.00000000000E+00  0.00000000000E+00  0.16153935786E+03  0.16153935786E+03  0.00000000000E+00 0.  1.
         21   -1    0    0  501  502 -0.00000000000E+00 -0.00000000000E+00 -0.83920684010E+03  0.83920684010E+03  0.00000000000E+00 0. -1.
         25    1    1    2    0    0  0.23468106016E+03  0.38805037804E+02 -0.71143795420E+03  0.76049325680E+03  0.12500000000E+03 0.  0.
         21    1    1    2  503  502 -0.23468106016E+03 -0.38805037804E+02  0.33770471959E+02  0.24025294115E+03  0.00000000000E+00 0.  1.
<mgrwt>
<rscale>  3 0.26871180E+03</rscale>
<asrwt>0</asrwt>
<pdfrwt beam="1">  1       21 0.24852209E-01 0.26871180E+03</pdfrwt>
<pdfrwt beam="2">  1       21 0.12910875E+00 0.26871180E+03</pdfrwt>
<totfact> 0.63975916E+03</totfact>
</mgrwt>
</event>
<event>
 4    0  0.1239210E-001  0.2498664E+03  0.7546771E-02  0.1113389E+00
         21   -1    0    0  502  501  0.00000000000E+00  0.00000000000E+00  0.71177992094E+02  0.71177992094E+02  0.00000000000E+00 0.  1.
         21   -1    0    0  503  502 -0.00000000000E+00 -0.00000000000E+00 -0.99702807879E+03  0.99702807879E+03  0.00000000000E+00 0.  1.
         25    1    1    2    0    0  0.18825490171E+03 -0.10662232129E+03 -0.74641721443E+03  0.78712888742E+03  0.12500000000E+03 0.  0.
         21    1    1    2  503  501 -0.18825490171E+03  0.10662232129E+03 -0.17943287227E+03  0.28107718347E+03  0.00000000000E+00 0.  1.
<mgrwt>
<rscale>  3 0.24986642E+03</rscale>
<asrwt>0</asrwt>
<pdfrwt beam="1">  1       21 0.10950461E-01 0.24986642E+03</pdfrwt>
<pdfrwt beam="2">  1       21 0.15338893E+00 0.24986642E+03</pdfrwt>
<totfact> 0.18786145E+04</totfact>
</mgrwt>
</event>
<event>
 4    0  0.1005289E-001  0.2672572E+03  0.7546771E-02  0.1102860E+00
         21   -1    0    0  503  501  0.00000000000E+00  0.00000000000E+00  0.25111451516E+03  0.25111451516E+03  0.00000000000E+00 0. -1.
         21   -1    0    0  501  502 -0.00000000000E+00 -0.00000000000E+00 -0.26486133742E+03  0.26486133742E+03  0.00000000000E+00 0.  1.
         25    1    1    2    0    0 -0.21096372134E+03  0.10628123283E+03 -0.63208069199E+02  0.27463002783E+03  0.12500000000E+03 0.  0.
         21    1    1    2  503  502  0.21096372134E+03 -0.10628123283E+03  0.49461246938E+02  0.24134582474E+03  0.00000000000E+00 0. -1.
<mgrwt>
<rscale>  3 0.26725716E+03</rscale>
<asrwt>0</asrwt>
<pdfrwt beam="1">  1       21 0.38633002E-01 0.26725716E+03</pdfrwt>
<pdfrwt beam="2">  1       21 0.40747898E-01 0.26725716E+03</pdfrwt>
<totfact> 0.36214404E+04</totfact>
</mgrwt>
</event>
<event>
 4    0  0.1249698E-001  0.2432406E+03  0.7546771E-02  0.1117653E+00
         21   -1    0    0  503  501  0.00000000000E+00  0.00000000000E+00  0.46031179622E+02  0.46031179622E+02  0.00000000000E+00 0. -1.
         21   -1    0    0  501  502 -0.00000000000E+00 -0.00000000000E+00 -0.11165241297E+04  0.11165241297E+04  0.00000000000E+00 0. -1.
         25    1    1    2    0    0 -0.17766002045E+03  0.10944369878E+03 -0.62308841282E+03  0.66888352967E+03  0.12500000000E+03 0.  0.
         21    1    1    2  503  502  0.17766002045E+03 -0.10944369878E+03 -0.44740453727E+03  0.49367177966E+03  0.00000000000E+00 0. -1.
<mgrwt>
<rscale>  3 0.24324063E+03</rscale>
<asrwt>0</asrwt>
<pdfrwt beam="1">  1       21 0.70817193E-02 0.24324063E+03</pdfrwt>
<pdfrwt beam="2">  1       21 0.17177296E+00 0.24324063E+03</pdfrwt>
<totfact> 0.29810681E+04</totfact>
</mgrwt>
</event>
<event>
 4    0  0.1324873E-001  0.2667172E+03  0.7546771E-02  0.1103173E+00
         21   -1    0    0  502  501  0.00000000000E+00  0.00000000000E+00  0.13155109849E+04  0.13155109849E+04  0.00000000000E+00 0. -1.
         21   -1    0    0  503  502 -0.00000000000E+00 -0.00000000000E+00 -0.55601206775E+02  0.55601206775E+02  0.00000000000E+00 0. -1.
         25    1    1    2    0    0 -0.22841625144E+03  0.57784738016E+02  0.40976915133E+03  0.48892618793E+03  0.12500000000E+03 0.  0.
         21    1    1    2  503  501  0.22841625144E+03 -0.57784738016E+02  0.85014062684E+03  0.88218600379E+03  0.00000000000E+00 0. -1.
<mgrwt>
<rscale>  3 0.26671719E+03</rscale>
<asrwt>0</asrwt>
<pdfrwt beam="1">  1       21 0.20238628E+00 0.26671719E+03</pdfrwt>
<pdfrwt beam="2">  1       21 0.85540328E-02 0.26671719E+03</pdfrwt>
<totfact> 0.13134647E+04</totfact>
</mgrwt>
</event>
<event>
 4    0  0.1109235E-001  0.3311776E+03  0.7546771E-02  0.1070617E+00
         21   -1    0    0  503  501  0.00000000000E+00  0.00000000000E+00  0.29281147694E+03  0.29281147694E+03  0.00000000000E+00 0.  1.
         21   -1    0    0  501  502 -0.00000000000E+00 -0.00000000000E+00 -0.43327109721E+03  0.43327109721E+03  0.00000000000E+00 0.  1.
         25    1    1    2    0    0 -0.25810197913E+03  0.16564108700E+03  0.89155176092E+02  0.34296828827E+03  0.12500000000E+03 0.  0.
         21    1    1    2  503  502  0.25810197913E+03 -0.16564108700E+03 -0.22961479636E+03  0.38311428587E+03  0.00000000000E+00 0.  1.
<mgrwt>
<rscale>  3 0.33117760E+03</rscale>
<asrwt>0</asrwt>
<pdfrwt beam="1">  1       21 0.45047919E-01 0.33117760E+03</pdfrwt>
<pdfrwt beam="2">  1       21 0.66657092E-01 0.33117760E+03</pdfrwt>
<totfact> 0.90499566E+03</totfact>
</mgrwt>
</event>
<event>
 4    0  0.1448241E-001  0.2790864E+03  0.7546771E-02  0.1096189E+00
         21   -1    0    0  503  501  0.00000000000E+00  0.00000000000E+00  0.59500829838E+03  0.59500829838E+03  0.00000000000E+00 0. -1.
         21   -1    0    0  501  502 -0.00000000000E+00 -0.00000000000E+00 -0.18823300924E+03  0.18823300924E+03  0.00000000000E+00 0. -1.
         25    1    1    2    0    0 -0.22023569482E+03  0.11730485807E+03 -0.29506772147E+02  0.28064183687E+03  0.12500000000E+03 0.  0.
         21    1    1    2  503  502  0.22023569482E+03 -0.11730485807E+03  0.43628206128E+03  0.50259947075E+03  0.00000000000E+00 0. -1.
<mgrwt>
<rscale>  3 0.27908635E+03</rscale>
<asrwt>0</asrwt>
<pdfrwt beam="1">  1       21 0.91539737E-01 0.27908635E+03</pdfrwt>
<pdfrwt beam="2">  1       21 0.28958925E-01 0.27908635E+03</pdfrwt>
<totfact> 0.10958710E+04</totfact>
</mgrwt>
</event>
<event>
 4    0  0.1383086E-001  0.4248968E+03  0.7546771E-02  0.1035484E+00
         21   -1    0    0  502  501  0.00000000000E+00  0.00000000000E+00  0.21258923389E+03  0.21258923389E+03  0.00000000000E+00 0.  1.
         21   -1    0    0  503  502 -0.00000000000E+00 -0.00000000000E+00 -0.81684478349E+03  0.81684478349E+03  0.00000000000E+00 0.  1.
         25    1    1    2    0    0  0.35359105324E+03  0.19971390514E+03 -0.34828520298E+03  0.54939954446E+03  0.12500000000E+03 0.  0.
         21    1    1    2  503  501 -0.35359105324E+03 -0.19971390514E+03 -0.25597034662E+03  0.48003447292E+03  0.00000000000E+00 0.  1.
<mgrwt>
<rscale>  3 0.42489678E+03</rscale>
<asrwt>0</asrwt>
<pdfrwt beam="1">  1       21 0.32706036E-01 0.42489678E+03</pdfrwt>
<pdfrwt beam="2">  1       21 0.12566843E+00 0.42489678E+03</pdfrwt>
<totfact> 0.37190795E+03</totfact>
</mgrwt>
</event>
<event>
 4    0  0.1202181E-001  0.3291221E+03  0.7546771E-02  0.1071526E+00
         21   -1    0    0  503  501  0.00000000000E+00  0.00000000000E+00  0.25780458893E+03  0.25780458893E+03  0.00000000000E+00 0. -1.
         21   -1    0    0  501  502 -0.00000000000E+00 -0.00000000000E+00 -0.43533236042E+03  0.43533236042E+03  0.00000000000E+00 0. -1.
         25    1    1    2    0    0  0.24372299153E+02  0.30348364891E+03  0.20797732987E+02  0.32977853147E+03  0.12500000000E+03 0.  0.
         21    1    1    2  503  502 -0.24372299153E+02 -0.30348364891E+03 -0.19832550447E+03  0.36335841788E+03  0.00000000000E+00 0. -1.
<mgrwt>
<rscale>  3 0.32912207E+03</rscale>
<asrwt>0</asrwt>
<pdfrwt beam="1">  1       21 0.39662245E-01 0.32912207E+03</pdfrwt>
<pdfrwt beam="2">  1       21 0.66974209E-01 0.32912207E+03</pdfrwt>
<totfact> 0.11654328E+04</totfact>
</mgrwt>
</event>
<event>
 4    0  0.1456040E-001  0.2906997E+03  0.7546771E-02  0.1089984E+00
         21   -1    0    0  502  501  0.00000000000E+00  0.00000000000E+00  0.18987415375E+03  0.18987415375E+03  0.00000000000E+00 0. -1.
         21   -1    0    0  503  502 -0.00000000000E+00 -0.00000000000E+00 -0.48490694061E+03  0.48490694061E+03  0.00000000000E+00 0. -1.
         25    1    1    2    0    0 -0.25632654983E+03 -0.56374037332E+02 -0.29239975816E+03  0.41231535359E+03  0.12500000000E+03 0.  0.
         21    1    1    2  503  501  0.25632654983E+03  0.56374037332E+02 -0.26330286941E+01  0.26246574076E+03  0.00000000000E+00 0. -1.
<mgrwt>
<rscale>  3 0.29069973E+03</rscale>
<asrwt>0</asrwt>
<pdfrwt beam="1">  1       21 0.29211409E-01 0.29069973E+03</pdfrwt>
<pdfrwt beam="2">  1       21 0.74601067E-01 0.29069973E+03</pdfrwt>
<totfact> 0.17156890E+04</totfact>
</mgrwt>
</event>
<event>
 4    0  0.1208997E-001  0.2401747E+03  0.7546771E-02  0.1119676E+00
         21   -1    0    0  503  501  0.00000000000E+00  0.00000000000E+00  0.96623623047E+02  0.96623623047E+02  0.00000000000E+00 0.  1.
         21   -1    0    0  501  502 -0.00000000000E+00 -0.00000000000E+00 -0.90332490359E+03  0.90332490359E+03  0.00000000000E+00 0.  1.
         25    1    1    2    0    0  0.20174014045E+03  0.36875533446E+02 -0.74949510785E+03  0.78703672464E+03  0.12500000000E+03 0.  0.
         21    1    1    2  503  502 -0.20174014045E+03 -0.36875533446E+02 -0.57206172689E+02  0.21291180200E+03  0.00000000000E+00 0.  1.
<mgrwt>
<rscale>  3 0.24017471E+03</rscale>
<asrwt>0</asrwt>
<pdfrwt beam="1">  1       21 0.14865173E-01 0.24017471E+03</pdfrwt>
<pdfrwt beam="2">  1       21 0.13897306E+00 0.24017471E+03</pdfrwt>
<totfact> 0.14101772E+04</totfact>
</mgrwt>
</event>
<event>
 4    0  0.1276361E-001  0.2462051E+03  0.7546771E-02  0.1115727E+00
         21   -1    0    0  502  501  0.00000000000E+00  0.00000000000E+00  0.46074824879E+03  0.46074824879E+03  0.00000000000E+00 0. -1.
         21   -1    0    0  503  502 -0.00000000000E+00 -0.00000000000E+00 -0.11757314548E+03  0.11757314548E+03  0.00000000000E+00 0. -1.
         25    1    1    2    0    0  0.10488450722E+03 -0.18436693628E+03  0.23440880620E+03  0.33994766578E+03  0.12500000000E+03 0.  0.
         21    1    1    2  503  501 -0.10488450722E+03  0.18436693628E+03  0.10876629711E+03  0.23837372849E+03  0.00000000000E+00 0. -1.
<mgrwt>
<rscale>  3 0.24620505E+03</rscale>
<asrwt>0</asrwt>
<pdfrwt beam="1">  1       21 0.70884345E-01 0.24620505E+03</pdfrwt>
<pdfrwt beam="2">  1       21 0.18088177E-01 0.24620505E+03</pdfrwt>
<totfact> 0.48932071E+04</totfact>
</mgrwt>
</event>
<event>
 4    0  0.1005289E-001  0.3823064E+03  0.7546771E-02  0.1050085E+00
         21   -1    0    0  503  501  0.00000000000E+00  0.00000000000E+00  0.69558049035E+03  0.69558049035E+03  0.00000000000E+00 0.  1.
         21   -1    0    0  501  502 -0.00000000000E+00 -0.00000000000E+00 -0.90737115254E+03  0.90737115254E+03  0.00000000000E+00 0.  1.
         25    1    1    2    0    0  0.10510480131E+03 -0.34566767061E+03 -0.81477697201E+03  0.90001092876E+03  0.12500000000E+03 0.  0.
         21    1    1    2  503  502 -0.10510480131E+03  0.34566767061E+03  0.60298630982E+03  0.70294071414E+03  0.00000000000E+00 0.  1.
<mgrwt>
<rscale>  3 0.38230637E+03</rscale>
<asrwt>0</asrwt>
<pdfrwt beam="1">  1       21 0.10701238E+00 0.38230637E+03</pdfrwt>
<pdfrwt beam="2">  1       21 0.13959556E+00 0.38230637E+03</pdfrwt>
<totfact> 0.21365548E+02</totfact>
</mgrwt>
</event>
<event>
 4    0  0.1005289E-001  0.3210019E+03  0.7546771E-02  0.1075189E+00
         21   -1    0    0  503  501  0.00000000000E+00  0.00000000000E+00  0.13719386796E+04  0.13719386796E+04  0.00000000000E+00 0. -1.
         21   -1    0    0  501  502 -0.00000000000E+00 -0.00000000000E+00 -0.90474870460E+02  0.90474870460E+02  0.00000000000E+00 0. -1.
         25    1    1    2    0    0  0.51102721399E+02 -0.29121420047E+03  0.10144464086E+04  0.10640224221E+04  0.12500000000E+03 0.  0.
         21    1    1    2  503  502 -0.51102721399E+02  0.29121420047E+03  0.26701740054E+03  0.39839112801E+03  0.00000000000E+00 0. -1.
<mgrwt>
<rscale>  3 0.32100187E+03</rscale>
<asrwt>0</asrwt>
<pdfrwt beam="1">  1       21 0.21106747E+00 0.32100187E+03</pdfrwt>
<pdfrwt beam="2">  1       21 0.13919212E-01 0.32100187E+03</pdfrwt>
<totfact> 0.46688770E+03</totfact>
</mgrwt>
</event>
<event>
 4    0  0.1221298E-001  0.2365661E+03  0.7546771E-02  0.1122102E+00
         21   -1    0    0  503  501  0.00000000000E+00  0.00000000000E+00  0.13200868686E+04  0.13200868686E+04  0.00000000000E+00 0. -1.
         21   -1    0    0  501  502 -0.00000000000E+00 -0.00000000000E+00 -0.43859968469E+02  0.43859968469E+02  0.00000000000E+00 0. -1.
         25    1    1    2    0    0  0.88049592328E+02  0.18051535586E+03  0.39758111046E+03  0.46263837261E+03  0.12500000000E+03 0.  0.
         21    1    1    2  503  502 -0.88049592328E+02 -0.18051535586E+03  0.87864578970E+03  0.90130846450E+03  0.00000000000E+00 0. -1.
<mgrwt>
<rscale>  3 0.23656611E+03</rscale>
<asrwt>0</asrwt>
<pdfrwt beam="1">  1       21 0.20309026E+00 0.23656611E+03</pdfrwt>
<pdfrwt beam="2">  1       21 0.67476884E-02 0.23656611E+03</pdfrwt>
<totfact> 0.20037769E+04</totfact>
</mgrwt>
</event>
<event>
 4    0  0.1567896E-001  0.2644845E+03  0.7546771E-02  0.1104478E+00
         21   -1    0    0  503  501  0.00000000000E+00  0.00000000000E+00  0.33908085593E+03  0.33908085593E+03  0.00000000000E+00 0.  1.
         21   -1    0    0  501  502 -0.00000000000E+00 -0.00000000000E+00 -0.23201813284E+03  0.23201813284E+03  0.00000000000E+00 0.  1.
         25    1    1    2    0    0  0.71638863278E+02 -0.22179924916E+03 -0.75479260941E+02  0.27504391011E+03  0.12500000000E+03 0.  0.
         21    1    1    2  503  502 -0.71638863278E+02  0.22179924916E+03  0.18254198403E+03  0.29605507865E+03  0.00000000000E+00 0.  1.
<mgrwt>
<rscale>  3 0.26448447E+03</rscale>
<asrwt>0</asrwt>
<pdfrwt beam="1">  1       21 0.52166286E-01 0.26448447E+03</pdfrwt>
<pdfrwt beam="2">  1       21 0.35695097E-01 0.26448447E+03</pdfrwt>
<totfact> 0.25451742E+04</totfact>
</mgrwt>
</event>
<event>
 4    0  0.1005289E-001  0.2658217E+03  0.7546771E-02  0.1103695E+00
         21   -1    0    0  503  501  0.00000000000E+00  0.00000000000E+00  0.16519750422E+03  0.16519750422E+03  0.00000000000E+00 0. -1.
         21   -1    0    0  501  502 -0.00000000000E+00 -0.00000000000E+00 -0.15965911495E+04  0.15965911495E+04  0.00000000000E+00 0. -1.
         25    1    1    2    0    0 -0.18838754752E+03  0.13980818799E+03 -0.14952183570E+04  0.15186636009E+04  0.12500000000E+03 0.  0.
         21    1    1    2  503  502  0.18838754752E+03 -0.13980818799E+03  0.63824711743E+02  0.24312505284E+03  0.00000000000E+00 0. -1.
<mgrwt>
<rscale>  3 0.26582174E+03</rscale>
<asrwt>0</asrwt>
<pdfrwt beam="1">  1       21 0.25415000E-01 0.26582174E+03</pdfrwt>
<pdfrwt beam="2">  1       21 0.24562941E+00 0.26582174E+03</pdfrwt>
<totfact> 0.95907853E+02</totfact>
</mgrwt>
</event>
<event>
 4    0  0.1353308E-001  0.2594009E+03  0.7546771E-02  0.1107504E+00
         21   -1    0    0  502  501  0.00000000000E+00  0.00000000000E+00  0.11139367079E+03  0.11139367079E+03  0.00000000000E+00 0.  1.
         21   -1    0    0  503  502 -0.00000000000E+00 -0.00000000000E+00 -0.53270704378E+03  0.53270704378E+03  0.00000000000E+00 0.  1.
         25    1    1    2    0    0  0.19326623418E+02  0.22647364762E+03 -0.20998106030E+03  0.33373773704E+03  0.12500000000E+03 0.  0.
         21    1    1    2  503  501 -0.19326623418E+02 -0.22647364762E+03 -0.21133231269E+03  0.31036297753E+03  0.00000000000E+00 0.  1.
<mgrwt>
<rscale>  3 0.25940091E+03</rscale>
<asrwt>0</asrwt>
<pdfrwt beam="1">  1       21 0.17137488E-01 0.25940091E+03</pdfrwt>
<pdfrwt beam="2">  1       21 0.81954928E-01 0.25940091E+03</pdfrwt>
<totfact> 0.38779893E+04</totfact>
</mgrwt>
</event>
<event>
 4    0  0.1467445E-001  0.2919198E+03  0.7546771E-02  0.1089351E+00
         21   -1    0    0  503  501  0.00000000000E+00  0.00000000000E+00  0.99989559806E+02  0.99989559806E+02  0.00000000000E+00 0. -1.
         21   -1    0    0  501  502 -0.00000000000E+00 -0.00000000000E+00 -0.77531046249E+03  0.77531046249E+03  0.00000000000E+00 0. -1.
         25    1    1    2    0    0 -0.52063604104E+02  0.25861463559E+03 -0.32677110493E+03  0.43817405632E+03  0.12500000000E+03 0.  0.
         21    1    1    2  503  502  0.52063604104E+02 -0.25861463559E+03 -0.34854979776E+03  0.43712596598E+03  0.00000000000E+00 0. -1.
<mgrwt>
<rscale>  3 0.29191976E+03</rscale>
<asrwt>0</asrwt>
<pdfrwt beam="1">  1       21 0.15383009E-01 0.29191976E+03</pdfrwt>
<pdfrwt beam="2">  1       21 0.11927854E+00 0.29191976E+03</pdfrwt>
<totfact> 0.19042881E+04</totfact>
</mgrwt>
</event>
<event>
 4    0  0.1384616E-001  0.2373909E+03  0.7546771E-02  0.1121543E+00
         21   -1    0    0  503  501  0.00000000000E+00  0.00000000000E+00  0.22859257447E+03  0.22859257447E+03  0.00000000000E+00 0.  1.
         21   -1    0    0  501  502 -0.00000000000E+00 -0.00000000000E+00 -0.21874368756E+03  0.21874368756E+03  0.00000000000E+00 0.  1.
         25    1    1    2    0    0  0.14368441120E+03  0.14171888128E+03 -0.36729464503E+02  0.24021553841E+03  0.12500000000E+03 0.  0.
         21    1    1    2  503  502 -0.14368441120E+03 -0.14171888128E+03  0.46578351408E+02  0.20712072362E+03  0.00000000000E+00 0.  1.
<mgrwt>
<rscale>  3 0.23739093E+03</rscale>
<asrwt>0</asrwt>
<pdfrwt beam="1">  1       21 0.35168088E-01 0.23739093E+03</pdfrwt>
<pdfrwt beam="2">  1       21 0.33652875E-01 0.23739093E+03</pdfrwt>
<totfact> 0.65046864E+04</totfact>
</mgrwt>
</event>
<event>
 4    0  0.1053376E-001  0.2847690E+03  0.7546771E-02  0.1093112E+00
         21   -1    0    0  502  501  0.00000000000E+00  0.00000000000E+00  0.27484282977E+03  0.27484282977E+03  0.00000000000E+00 0.  1.
         21   -1    0    0  503  502 -0.00000000000E+00 -0.00000000000E+00 -0.65977600938E+03  0.65977600938E+03  0.00000000000E+00 0.  1.
         25    1    1    2    0    0 -0.25392844748E+03  0.31443895745E+02 -0.55748464276E+03  0.62600519322E+03  0.12500000000E+03 0.  0.
         21    1    1    2  503  501  0.25392844748E+03 -0.31443895745E+02  0.17255146315E+03  0.30861364593E+03  0.00000000000E+00 0.  1.
<mgrwt>
<rscale>  3 0.28476899E+03</rscale>
<asrwt>0</asrwt>
<pdfrwt beam="1">  1       21 0.42283513E-01 0.28476899E+03</pdfrwt>
<pdfrwt beam="2">  1       21 0.10150400E+00 0.28476899E+03</pdfrwt>
<totfact> 0.40026647E+03</totfact>
</mgrwt>
</event>
<event>
 4    0  0.1491426E-001  0.3250939E+03  0.7546771E-02  0.1073329E+00
         21   -1    0    0  502  501  0.00000000000E+00  0.00000000000E+00  0.51613080721E+03  0.51613080721E+03  0.00000000000E+00 0. -1.
         21   -1    0    0  503  502 -0.00000000000E+00 -0.00000000000E+00 -0.19716802983E+03  0.19716802983E+03  0.00000000000E+00 0. -1.
         25    1    1    2    0    0 -0.10548427716E+03  0.28095215570E+03  0.23667238992E+03  0.40211921947E+03  0.12500000000E+03 0.  0.
         21    1    1    2  503  501  0.10548427716E+03 -0.28095215570E+03  0.82290387458E+02  0.31117961756E+03  0.00000000000E+00 0. -1.
<mgrwt>
<rscale>  3 0.32509390E+03</rscale>
<asrwt>0</asrwt>
<pdfrwt beam="1">  1       21 0.79404739E-01 0.32509390E+03</pdfrwt>
<pdfrwt beam="2">  1       21 0.30333543E-01 0.32509390E+03</pdfrwt>
<totfact> 0.13630426E+04</totfact>
</mgrwt>
</event>
<event>
 4    0  0.1005289E-001  0.2668274E+03  0.7546771E-02  0.1103109E+00
         21   -1    0    0  503  501  0.00000000000E+00  0.00000000000E+00  0.37115642001E+03  0.37115642001E+03  0.00000000000E+00 0. -1.
         21   -1    0    0  501  502 -0.00000000000E+00 -0.00000000000E+00 -0.22028676715E+03  0.22028676715E+03  0.00000000000E+00 0.  1.
         25    1    1    2    0    0 -0.15964438540E+03 -0.17345185825E+03 -0.61869134000E+02  0.27390631001E+03  0.12500000000E+03 0.  0.
         21    1    1    2  503  502  0.15964438540E+03  0.17345185825E+03  0.21273878685E+03  0.31753687715E+03  0.00000000000E+00 0. -1.
<mgrwt>
<rscale>  3 0.26682743E+03</rscale>
<asrwt>0</asrwt>
<pdfrwt beam="1">  1       21 0.57100988E-01 0.26682743E+03</pdfrwt>
<pdfrwt beam="2">  1       21 0.33890272E-01 0.26682743E+03</pdfrwt>
<totfact> 0.23264756E+04</totfact>
</mgrwt>
</event>
<event>
 4    0  0.1526638E-001  0.3213741E+03  0.7546771E-02  0.1075019E+00
         21   -1    0    0  503  501  0.00000000000E+00  0.00000000000E+00  0.45388447699E+03  0.45388447699E+03  0.00000000000E+00 0.  1.
         21   -1    0    0  501  502 -0.00000000000E+00 -0.00000000000E+00 -0.26561079657E+03  0.26561079657E+03  0.00000000000E+00 0.  1.
         25    1    1    2    0    0 -0.27104930343E+03  0.11911577704E+03 -0.67335983438E+02  0.32835259691E+03  0.12500000000E+03 0.  0.
         21    1    1    2  503  502  0.27104930343E+03 -0.11911577704E+03  0.25560966386E+03  0.39114267664E+03  0.00000000000E+00 0.  1.
<mgrwt>
<rscale>  3 0.32137407E+03</rscale>
<asrwt>0</asrwt>
<pdfrwt beam="1">  1       21 0.69828381E-01 0.32137407E+03</pdfrwt>
<pdfrwt beam="2">  1       21 0.40863199E-01 0.32137407E+03</pdfrwt>
<totfact> 0.10023353E+04</totfact>
</mgrwt>
</event>
<event>
 4    0  0.1005289E-001  0.2457853E+03  0.7546771E-02  0.1115998E+00
         21   -1    0    0  503  501  0.00000000000E+00  0.00000000000E+00  0.19889523380E+04  0.19889523380E+04  0.00000000000E+00 0. -1.
         21   -1    0    0  501  502 -0.00000000000E+00 -0.00000000000E+00 -0.31203693243E+02  0.31203693243E+02  0.00000000000E+00 0. -1.
         25    1    1    2    0    0 -0.21150614702E+03  0.71106454272E+01  0.64094262060E+03  0.68645309702E+03  0.12500000000E+03 0.  0.
         21    1    1    2  503  502  0.21150614702E+03 -0.71106454272E+01  0.13168060242E+04  0.13337029342E+04  0.00000000000E+00 0. -1.
<mgrwt>
<rscale>  3 0.24578530E+03</rscale>
<asrwt>0</asrwt>
<pdfrwt beam="1">  1       21 0.30599257E+00 0.24578530E+03</pdfrwt>
<pdfrwt beam="2">  1       21 0.48005698E-02 0.24578530E+03</pdfrwt>
<totfact> 0.86204558E+03</totfact>
</mgrwt>
</event>
<event>
 4    0  0.1122023E-001  0.2569714E+03  0.7546771E-02  0.1108977E+00
         21   -1    0    0  503  501  0.00000000000E+00  0.00000000000E+00  0.36211144704E+03  0.36211144704E+03  0.00000000000E+00 0.  1.
         21   -1    0    0  501  502 -0.00000000000E+00 -0.00000000000E+00 -0.67240783843E+03  0.67240783843E+03  0.00000000000E+00 0.  1.
         25    1    1    2    0    0 -0.18511084428E+03  0.12705615383E+03 -0.60891191050E+03  0.66091452219E+03  0.12500000000E+03 0.  0.
         21    1    1    2  503  502  0.18511084428E+03 -0.12705615383E+03  0.29861551910E+03  0.37360476328E+03  0.00000000000E+00 0.  1.
<mgrwt>
<rscale>  3 0.25697138E+03</rscale>
<asrwt>0</asrwt>
<pdfrwt beam="1">  1       21 0.55709454E-01 0.25697138E+03</pdfrwt>
<pdfrwt beam="2">  1       21 0.10344736E+00 0.25697138E+03</pdfrwt>
<totfact> 0.21839363E+03</totfact>
</mgrwt>
</event>
<event>
 4    0  0.1005289E-001  0.2746015E+03  0.7546771E-02  0.1098675E+00
         21   -1    0    0  503  501  0.00000000000E+00  0.00000000000E+00  0.26400688398E+04  0.26400688398E+04  0.00000000000E+00 0.  1.
         21   -1    0    0  501  502 -0.00000000000E+00 -0.00000000000E+00 -0.35799950769E+02  0.35799950769E+02  0.00000000000E+00 0. -1.
         25    1    1    2    0    0 -0.20478023850E+03 -0.13358904078E+03  0.63976045183E+03  0.69620357197E+03  0.12500000000E+03 0.  0.
         21    1    1    2  503  502  0.20478023850E+03  0.13358904078E+03  0.19645084372E+04  0.19796652186E+04  0.00000000000E+00 0.  1.
<mgrwt>
<rscale>  3 0.27460149E+03</rscale>
<asrwt>0</asrwt>
<pdfrwt beam="1">  1       21 0.40616428E+00 0.27460149E+03</pdfrwt>
<pdfrwt beam="2">  1       21 0.55076868E-02 0.27460149E+03</pdfrwt>
<totfact> 0.16439041E+03</totfact>
</mgrwt>
</event>
<event>
 4    0  0.1005289E-001  0.3495123E+03  0.7546771E-02  0.1062815E+00
         21   -1    0    0  502  501  0.00000000000E+00  0.00000000000E+00  0.26565780610E+03  0.26565780610E+03  0.00000000000E+00 0. -1.
         21   -1    0    0  503  502 -0.00000000000E+00 -0.00000000000E+00 -0.44953565757E+03  0.44953565757E+03  0.00000000000E+00 0.  1.
         25    1    1    2    0    0  0.32014804106E+03  0.63553762471E+02 -0.16959487491E+03  0.38848586913E+03  0.12500000000E+03 0.  0.
         21    1    1    2  503  501 -0.32014804106E+03 -0.63553762471E+02 -0.14282976558E+02  0.32670759455E+03  0.00000000000E+00 0. -1.
<mgrwt>
<rscale>  3 0.34951230E+03</rscale>
<asrwt>0</asrwt>
<pdfrwt beam="1">  1       21 0.40870432E-01 0.34951230E+03</pdfrwt>
<pdfrwt beam="2">  1       21 0.69159332E-01 0.34951230E+03</pdfrwt>
<totfact> 0.10122132E+04</totfact>
</mgrwt>
</event>
<event>
 4    0  0.1172801E-001  0.2392841E+03  0.7546771E-02  0.1120271E+00
         21   -1    0    0  503  501  0.00000000000E+00  0.00000000000E+00  0.82397540117E+02  0.82397540117E+02  0.00000000000E+00 0.  1.
         21   -1    0    0  501  502 -0.00000000000E+00 -0.00000000000E+00 -0.13211522188E+04  0.13211522188E+04  0.00000000000E+00 0.  1.
         25    1    1    2    0    0 -0.67260040600E+02  0.19263428001E+03 -0.11606717304E+04  0.11850804803E+04  0.12500000000E+03 0.  0.
         21    1    1    2  503  502  0.67260040600E+02 -0.19263428001E+03 -0.78082948219E+02  0.21846927861E+03  0.00000000000E+00 0.  1.
<mgrwt>
<rscale>  3 0.23928410E+03</rscale>
<asrwt>0</asrwt>
<pdfrwt beam="1">  1       21 0.12676546E-01 0.23928410E+03</pdfrwt>
<pdfrwt beam="2">  1       21 0.20325417E+00 0.23928410E+03</pdfrwt>
<totfact> 0.65498936E+03</totfact>
</mgrwt>
</event>
<event>
 4    0  0.1005289E-001  0.3261995E+03  0.7546771E-02  0.1072831E+00
         21   -1    0    0  503  501  0.00000000000E+00  0.00000000000E+00  0.23277030506E+03  0.23277030506E+03  0.00000000000E+00 0.  1.
         21   -1    0    0  501  502 -0.00000000000E+00 -0.00000000000E+00 -0.50368899874E+03  0.50368899874E+03  0.00000000000E+00 0. -1.
         25    1    1    2    0    0  0.20196204887E+02  0.30062140061E+03 -0.28734818160E+03  0.43471265299E+03  0.12500000000E+03 0.  0.
         21    1    1    2  503  502 -0.20196204887E+02 -0.30062140061E+03  0.16429487919E+02  0.30174665080E+03  0.00000000000E+00 0.  1.
<mgrwt>
<rscale>  3 0.32619950E+03</rscale>
<asrwt>0</asrwt>
<pdfrwt beam="1">  1       21 0.35810816E-01 0.32619950E+03</pdfrwt>
<pdfrwt beam="2">  1       21 0.77490615E-01 0.32619950E+03</pdfrwt>
<totfact> 0.10343749E+04</totfact>
</mgrwt>
</event>
<event>
 4    0  0.1270353E-001  0.4068805E+03  0.7546771E-02  0.1041423E+00
         21   -1    0    0  503  501  0.00000000000E+00  0.00000000000E+00  0.15534358958E+04  0.15534358958E+04  0.00000000000E+00 0.  1.
         21   -1    0    0  501  502 -0.00000000000E+00 -0.00000000000E+00 -0.26503510502E+03  0.26503510502E+03  0.00000000000E+00 0. -1.
         25    1    1    2    0    0 -0.38572542306E+03  0.33803245625E+02 -0.63864583890E+02  0.41186216928E+03  0.12500000000E+03 0.  0.
         21    1    1    2  503  502  0.38572542306E+03 -0.33803245625E+02  0.13522653746E+04  0.14066088315E+04  0.00000000000E+00 0.  1.
<mgrwt>
<rscale>  3 0.40688052E+03</rscale>
<asrwt>0</asrwt>
<pdfrwt beam="1">  1       21 0.23899013E+00 0.40688052E+03</pdfrwt>
<pdfrwt beam="2">  1       21 0.40774633E-01 0.40688052E+03</pdfrwt>
<totfact> 0.37077464E+02</totfact>
</mgrwt>
</event>
<event>
 4    0  0.1184687E-001  0.3141589E+03  0.7546771E-02  0.1078369E+00
         21   -1    0    0  502  501  0.00000000000E+00  0.00000000000E+00  0.32429981621E+03  0.32429981621E+03  0.00000000000E+00 0.  1.
         21   -1    0    0  503  502 -0.00000000000E+00 -0.00000000000E+00 -0.66674689320E+03  0.66674689320E+03  0.00000000000E+00 0.  1.
         25    1    1    2    0    0  0.25382842381E+03 -0.13653551204E+03 -0.55169934231E+03  0.63487634944E+03  0.12500000000E+03 0.  0.
         21    1    1    2  503  501 -0.25382842381E+03  0.13653551204E+03  0.20925226531E+03  0.35617035997E+03  0.00000000000E+00 0.  1.
<mgrwt>
<rscale>  3 0.31415890E+03</rscale>
<asrwt>0</asrwt>
<pdfrwt beam="1">  1       21 0.49892280E-01 0.31415890E+03</pdfrwt>
<pdfrwt beam="2">  1       21 0.10257644E+00 0.31415890E+03</pdfrwt>
<totfact> 0.27208732E+03</totfact>
</mgrwt>
</event>
<event>
 4    0  0.1807101E-001  0.2932101E+03  0.7546771E-02  0.1088685E+00
         21   -1    0    0  502  501  0.00000000000E+00  0.00000000000E+00  0.70488518866E+03  0.70488518866E+03  0.00000000000E+00 0.  1.
         21   -1    0    0  503  502 -0.00000000000E+00 -0.00000000000E+00 -0.30479570310E+03  0.30479570310E+03  0.00000000000E+00 0. -1.
         25    1    1    2    0    0  0.79492045705E+02 -0.25303786005E+03 -0.19909624185E+03  0.35441706712E+03  0.12500000000E+03 0.  0.
         21    1    1    2  503  501 -0.79492045705E+02  0.25303786005E+03  0.59918572741E+03  0.65526382464E+03  0.00000000000E+00 0.  1.
<mgrwt>
<rscale>  3 0.29321007E+03</rscale>
<asrwt>0</asrwt>
<pdfrwt beam="1">  1       21 0.10844387E+00 0.29321007E+03</pdfrwt>
<pdfrwt beam="2">  1       21 0.46891647E-01 0.29321007E+03</pdfrwt>
<totfact> 0.27380496E+03</totfact>
</mgrwt>
</event>
<event>
 4    0  0.1005289E-001  0.3031621E+03  0.7546771E-02  0.1083671E+00
         21   -1    0    0  503  501  0.00000000000E+00  0.00000000000E+00  0.21011521735E+04  0.21011521735E+04  0.00000000000E+00 0.  1.
         21   -1    0    0  501  502 -0.00000000000E+00 -0.00000000000E+00 -0.20155417725E+03  0.20155417725E+03  0.00000000000E+00 0.  1.
         25    1    1    2    0    0  0.88993386230E+02 -0.26146206923E+03 -0.72214773005E+02  0.31164436442E+03  0.12500000000E+03 0.  0.
         21    1    1    2  503  502 -0.88993386230E+02  0.26146206923E+03  0.19718127693E+04  0.19910619864E+04  0.00000000000E+00 0.  1.
<mgrwt>
<rscale>  3 0.30316206E+03</rscale>
<asrwt>0</asrwt>
<pdfrwt beam="1">  1       21 0.32325416E+00 0.30316206E+03</pdfrwt>
<pdfrwt beam="2">  1       21 0.31008336E-01 0.30316206E+03</pdfrwt>
<totfact> 0.21823234E+02</totfact>
</mgrwt>
</event>
<event>
 4    0  0.1112344E-001  0.2489980E+03  0.7546771E-02  0.1113940E+00
         21   -1    0    0  502  501  0.00000000000E+00  0.00000000000E+00  0.10373649319E+04  0.10373649319E+04  0.00000000000E+00 0. -1.
         21   -1    0    0  503  502 -0.00000000000E+00 -0.00000000000E+00 -0.11077547979E+03  0.11077547979E+03  0.00000000000E+00 0. -1.
         25    1    1    2    0    0  0.12427145489E+02 -0.21498973360E+03  0.61267910195E+02  0.25642499161E+03  0.12500000000E+03 0.  0.
         21    1    1    2  503  501 -0.12427145489E+02  0.21498973360E+03  0.86532154194E+03  0.89171542010E+03  0.00000000000E+00 0. -1.
<mgrwt>
<rscale>  3 0.24899803E+03</rscale>
<asrwt>0</asrwt>
<pdfrwt beam="1">  1       21 0.15959460E+00 0.24899803E+03</pdfrwt>
<pdfrwt beam="2">  1       21 0.17042382E-01 0.24899803E+03</pdfrwt>
<totfact> 0.75541583E+03</totfact>
</mgrwt>
</event>
<event>
 4    0  0.1357079E-001  0.3956518E+03  0.7546771E-02  0.1045296E+00
         21   -1    0    0  502  501  0.00000000000E+00  0.00000000000E+00  0.40838956280E+03  0.40838956280E+03  0.00000000000E+00 0. -1.
         21   -1    0    0  503  502 -0.00000000000E+00 -0.00000000000E+00 -0.40277758402E+03  0.40277758402E+03  0.00000000000E+00 0. -1.
         25    1    1    2    0    0 -0.88324847854E+02 -0.36484803273E+03 -0.12304726534E+03  0.41434405419E+03  0.12500000000E+03 0.  0.
         21    1    1    2  503  501  0.88324847854E+02  0.36484803273E+03  0.12865924412E+03  0.39682309262E+03  0.00000000000E+00 0. -1.
<mgrwt>
<rscale>  3 0.39565182E+03</rscale>
<asrwt>0</asrwt>
<pdfrwt beam="1">  1       21 0.62829164E-01 0.39565182E+03</pdfrwt>
<pdfrwt beam="2">  1       21 0.61965782E-01 0.39565182E+03</pdfrwt>
<totfact> 0.50877841E+03</totfact>
</mgrwt>
</event>
<event>
 4    0  0.1165266E-001  0.2442656E+03  0.7546771E-02  0.1116983E+00
         21   -1    0    0  502  501  0.00000000000E+00  0.00000000000E+00  0.25314770462E+03  0.25314770462E+03  0.00000000000E+00 0.  1.
         21   -1    0    0  503  502 -0.00000000000E+00 -0.00000000000E+00 -0.78264945868E+03  0.78264945868E+03  0.00000000000E+00 0.  1.
         25    1    1    2    0    0  0.10070876497E+03  0.18411526009E+03 -0.71508348635E+03  0.75565208714E+03  0.12500000000E+03 0.  0.
         21    1    1    2  503  501 -0.10070876497E+03 -0.18411526009E+03  0.18558173229E+03  0.28014507617E+03  0.00000000000E+00 0.  1.
<mgrwt>
<rscale>  3 0.24426560E+03</rscale>
<asrwt>0</asrwt>
<pdfrwt beam="1">  1       21 0.38945801E-01 0.24426560E+03</pdfrwt>
<pdfrwt beam="2">  1       21 0.12040761E+00 0.24426560E+03</pdfrwt>
<totfact> 0.31964604E+03</totfact>
</mgrwt>
</event>
<event>
 4    0  0.1005289E-001  0.2521618E+03  0.7546771E-02  0.1111946E+00
         21   -1    0    0  503  501  0.00000000000E+00  0.00000000000E+00  0.12460722059E+04  0.12460722059E+04  0.00000000000E+00 0. -1.
         21   -1    0    0  501  502 -0.00000000000E+00 -0.00000000000E+00 -0.49166543356E+02  0.49166543356E+02  0.00000000000E+00 0.  1.
         25    1    1    2    0    0  0.34687153584E+02  0.21623456194E+03  0.43836213514E+03  0.50571429278E+03  0.12500000000E+03 0.  0.
         21    1    1    2  503  502 -0.34687153584E+02 -0.21623456194E+03  0.75854352736E+03  0.78952445643E+03  0.00000000000E+00 0. -1.
<mgrwt>
<rscale>  3 0.25216182E+03</rscale>
<asrwt>0</asrwt>
<pdfrwt beam="1">  1       21 0.19170339E+00 0.25216182E+03</pdfrwt>
<pdfrwt beam="2">  1       21 0.75640845E-02 0.25216182E+03</pdfrwt>
<totfact> 0.19317571E+04</totfact>
</mgrwt>
</event>
<event>
 4    0  0.1005289E-001  0.2702968E+03  0.7546771E-02  0.1101110E+00
         21   -1    0    0  502  501  0.00000000000E+00  0.00000000000E+00  0.20109245363E+03  0.20109245363E+03  0.00000000000E+00 0. -1.
         21   -1    0    0  503  502 -0.00000000000E+00 -0.00000000000E+00 -0.37913065444E+03  0.37913065444E+03  0.00000000000E+00 0.  1.
         25    1    1    2    0    0 -0.17776181913E+03  0.16073617216E+03 -0.20473729864E+03  0.33908368117E+03  0.12500000000E+03 0.  0.
         21    1    1    2  503  501  0.17776181913E+03 -0.16073617216E+03  0.26699097832E+02  0.24113942690E+03  0.00000000000E+00 0. -1.
<mgrwt>
<rscale>  3 0.27029684E+03</rscale>
<asrwt>0</asrwt>
<pdfrwt beam="1">  1       21 0.30937301E-01 0.27029684E+03</pdfrwt>
<pdfrwt beam="2">  1       21 0.58327793E-01 0.27029684E+03</pdfrwt>
<totfact> 0.26586783E+04</totfact>
</mgrwt>
</event>
<event>
 4    0  0.1355579E-001  0.3192762E+03  0.7546771E-02  0.1075983E+00
         21   -1    0    0  502  501  0.00000000000E+00  0.00000000000E+00  0.27790162372E+03  0.27790162372E+03  0.00000000000E+00 0.  1.
         21   -1    0    0  503  502 -0.00000000000E+00 -0.00000000000E+00 -0.52488250567E+03  0.52488250567E+03  0.00000000000E+00 0.  1.
         25    1    1    2    0    0 -0.29365181324E+03  0.89945959193E+01 -0.36610029982E+03  0.48576405765E+03  0.12500000000E+03 0.  0.
         21    1    1    2  503  501  0.29365181324E+03 -0.89945959193E+01  0.11911941787E+03  0.31702007174E+03  0.00000000000E+00 0.  1.
<mgrwt>
<rscale>  3 0.31927620E+03</rscale>
<asrwt>0</asrwt>
<pdfrwt beam="1">  1       21 0.42754096E-01 0.31927620E+03</pdfrwt>
<pdfrwt beam="2">  1       21 0.80751154E-01 0.31927620E+03</pdfrwt>
<totfact> 0.65786972E+03</totfact>
</mgrwt>
</event>
<event>
 4    0  0.1317476E-001  0.3417201E+03  0.7546771E-02  0.1066066E+00
         21   -1    0    0  503  501  0.00000000000E+00  0.00000000000E+00  0.14257419760E+03  0.14257419760E+03  0.00000000000E+00 0. -1.
         21   -1    0    0  501  502 -0.00000000000E+00 -0.00000000000E+00 -0.95381979459E+03  0.95381979459E+03  0.00000000000E+00 0. -1.
         25    1    1    2    0    0  0.29533038331E+03 -0.11801513526E+03 -0.66218352014E+03  0.74515744766E+03  0.12500000000E+03 0.  0.
         21    1    1    2  503  502 -0.29533038331E+03  0.11801513526E+03 -0.14906207685E+03  0.35123654453E+03  0.00000000000E+00 0. -1.
<mgrwt>
<rscale>  3 0.34172007E+03</rscale>
<asrwt>0</asrwt>
<pdfrwt beam="1">  1       21 0.21934491E-01 0.34172007E+03</pdfrwt>
<pdfrwt beam="2">  1       21 0.14674151E+00 0.34172007E+03</pdfrwt>
<totfact> 0.56037938E+03</totfact>
</mgrwt>
</event>
<event>
 4    0  0.1395988E-001  0.3026341E+03  0.7546771E-02  0.1083931E+00
         21   -1    0    0  503  501  0.00000000000E+00  0.00000000000E+00  0.38069338850E+03  0.38069338850E+03  0.00000000000E+00 0. -1.
         21   -1    0    0  501  502 -0.00000000000E+00 -0.00000000000E+00 -0.22255744784E+03  0.22255744784E+03  0.00000000000E+00 0. -1.
         25    1    1    2    0    0 -0.14170319877E+03 -0.23639506786E+03  0.11756729318E+03  0.32466828160E+03  0.12500000000E+03 0.  0.
         21    1    1    2  503  502  0.14170319877E+03  0.23639506786E+03  0.40568647472E+02  0.27858255474E+03  0.00000000000E+00 0. -1.
<mgrwt>
<rscale>  3 0.30263414E+03</rscale>
<asrwt>0</asrwt>
<pdfrwt beam="1">  1       21 0.58568214E-01 0.30263414E+03</pdfrwt>
<pdfrwt beam="2">  1       21 0.34239607E-01 0.30263414E+03</pdfrwt>
<totfact> 0.21264388E+04</totfact>
</mgrwt>
</event>
<event>
 4    0  0.1505632E-001  0.2753022E+03  0.7546771E-02  0.1098283E+00
         21   -1    0    0  502  501  0.00000000000E+00  0.00000000000E+00  0.23546972726E+03  0.23546972726E+03  0.00000000000E+00 0. -1.
         21   -1    0    0  503  502 -0.00000000000E+00 -0.00000000000E+00 -0.29222065726E+03  0.29222065726E+03  0.00000000000E+00 0. -1.
         25    1    1    2    0    0  0.96387416024E+02  0.22555653087E+03 -0.62611499770E+02  0.28233222007E+03  0.12500000000E+03 0.  0.
         21    1    1    2  503  501 -0.96387416024E+02 -0.22555653087E+03  0.58605697748E+01  0.24535816445E+03  0.00000000000E+00 0. -1.
<mgrwt>
<rscale>  3 0.27530217E+03</rscale>
<asrwt>0</asrwt>
<pdfrwt beam="1">  1       21 0.36226112E-01 0.27530217E+03</pdfrwt>
<pdfrwt beam="2">  1       21 0.44957024E-01 0.27530217E+03</pdfrwt>
<totfact> 0.33580287E+04</totfact>
</mgrwt>
</event>
<event>
 4    0  0.1556368E-001  0.2492161E+03  0.7546771E-02  0.1113801E+00
         21   -1    0    0  503  501  0.00000000000E+00  0.00000000000E+00  0.38844957045E+03  0.38844957045E+03  0.00000000000E+00 0. -1.
         21   -1    0    0  501  502 -0.00000000000E+00 -0.00000000000E+00 -0.15368981397E+03  0.15368981397E+03  0.00000000000E+00 0. -1.
         25    1    1    2    0    0  0.18000811510E+03  0.11866224906E+03  0.41594758754E+02  0.25266336262E+03  0.12500000000E+03 0.  0.
         21    1    1    2  503  502 -0.18000811510E+03 -0.11866224906E+03  0.19316499772E+03  0.28947602180E+03  0.00000000000E+00 0. -1.
<mgrwt>
<rscale>  3 0.24921607E+03</rscale>
<asrwt>0</asrwt>
<pdfrwt beam="1">  1       21 0.59761472E-01 0.24921607E+03</pdfrwt>
<pdfrwt beam="2">  1       21 0.23644587E-01 0.24921607E+03</pdfrwt>
<totfact> 0.42875407E+04</totfact>
</mgrwt>
</event>
<event>
 4    0  0.1402534E-001  0.4591318E+03  0.7546771E-02  0.1025033E+00
         21   -1    0    0  503  501  0.00000000000E+00  0.00000000000E+00  0.17853433364E+03  0.17853433364E+03  0.00000000000E+00 0. -1.
         21   -1    0    0  501  502 -0.00000000000E+00 -0.00000000000E+00 -0.12439340626E+04  0.12439340626E+04  0.00000000000E+00 0. -1.
         25    1    1    2    0    0 -0.18926307162E+03  0.39919483976E+03 -0.75099791250E+03  0.88022718371E+03  0.12500000000E+03 0.  0.
         21    1    1    2  503  502  0.18926307162E+03 -0.39919483976E+03 -0.31440181649E+03  0.54224121254E+03  0.00000000000E+00 0. -1.
<mgrwt>
<rscale>  3 0.45913182E+03</rscale>
<asrwt>0</asrwt>
<pdfrwt beam="1">  1       21 0.27466821E-01 0.45913182E+03</pdfrwt>
<pdfrwt beam="2">  1       21 0.19137447E+00 0.45913182E+03</pdfrwt>
<totfact> 0.16245935E+03</totfact>
</mgrwt>
</event>
<event>
 4    0  0.1091869E-001  0.2583087E+03  0.7546771E-02  0.1108164E+00
         21   -1    0    0  502  501  0.00000000000E+00  0.00000000000E+00  0.85434524593E+03  0.85434524593E+03  0.00000000000E+00 0.  1.
         21   -1    0    0  503  502 -0.00000000000E+00 -0.00000000000E+00 -0.45729692054E+03  0.45729692054E+03  0.00000000000E+00 0.  1.
         25    1    1    2    0    0  0.22561139723E+03 -0.14067030378E+02 -0.40388368643E+03  0.47942196035E+03  0.12500000000E+03 0.  0.
         21    1    1    2  503  501 -0.22561139723E+03  0.14067030378E+02  0.80093201183E+03  0.83222020612E+03  0.00000000000E+00 0.  1.
<mgrwt>
<rscale>  3 0.25830870E+03</rscale>
<asrwt>0</asrwt>
<pdfrwt beam="1">  1       21 0.13143773E+00 0.25830870E+03</pdfrwt>
<pdfrwt beam="2">  1       21 0.70353372E-01 0.25830870E+03</pdfrwt>
<totfact> 0.72449134E+02</totfact>
</mgrwt>
</event>
<event>
 4    0  0.1411961E-001  0.3082007E+03  0.7546771E-02  0.1081212E+00
         21   -1    0    0  502  501  0.00000000000E+00  0.00000000000E+00  0.18474785569E+03  0.18474785569E+03  0.00000000000E+00 0. -1.
         21   -1    0    0  503  502 -0.00000000000E+00 -0.00000000000E+00 -0.15241356183E+04  0.15241356183E+04  0.00000000000E+00 0.  1.
         25    1    1    2    0    0 -0.24611700573E+03 -0.13707337221E+03 -0.13890455660E+04  0.14228265088E+04  0.12500000000E+03 0.  0.
         21    1    1    2  503  501  0.24611700573E+03  0.13707337221E+03  0.49657803369E+02  0.28605696516E+03  0.00000000000E+00 0. -1.
<mgrwt>
<rscale>  3 0.30820073E+03</rscale>
<asrwt>0</asrwt>
<pdfrwt beam="1">  1       21 0.28422745E-01 0.30820073E+03</pdfrwt>
<pdfrwt beam="2">  1       21 0.23448242E+00 0.30820073E+03</pdfrwt>
<totfact> 0.87142310E+02</totfact>
</mgrwt>
</event>
<event>
 4    0  0.1005289E-001  0.3818908E+03  0.7546771E-02  0.1050237E+00
         21   -1    0    0  502  501  0.00000000000E+00  0.00000000000E+00  0.84130283475E+02  0.84130283475E+02  0.00000000000E+00 0. -1.
         21   -1    0    0  503  502 -0.00000000000E+00 -0.00000000000E+00 -0.21837912753E+04  0.21837912753E+04  0.00000000000E+00 0. -1.
         25    1    1    2    0    0  0.21777277886E+02 -0.36019629500E+03 -0.16381879016E+04  0.16821118339E+04  0.12500000000E+03 0.  0.
         21    1    1    2  503  501 -0.21777277886E+02  0.36019629500E+03 -0.46147309021E+03  0.58580972487E+03  0.00000000000E+00 0. -1.
<mgrwt>
<rscale>  3 0.38189085E+03</rscale>
<asrwt>0</asrwt>
<pdfrwt beam="1">  1       21 0.12943121E-01 0.38189085E+03</pdfrwt>
<pdfrwt beam="2">  1       21 0.33596787E+00 0.38189085E+03</pdfrwt>
<totfact> 0.89971990E+02</totfact>
</mgrwt>
</event>
<event>
 4    0  0.1267444E-001  0.4115276E+03  0.7546771E-02  0.1039860E+00
         21   -1    0    0  502  501  0.00000000000E+00  0.00000000000E+00  0.10692577742E+04  0.10692577742E+04  0.00000000000E+00 0.  1.
         21   -1    0    0  503  502 -0.00000000000E+00 -0.00000000000E+00 -0.15606349667E+03  0.15606349667E+03  0.00000000000E+00 0.  1.
         25    1    1    2    0    0 -0.13642864331E+03  0.36758284897E+03  0.57771179837E+03  0.70929954712E+03  0.12500000000E+03 0.  0.
         21    1    1    2  503  501  0.13642864331E+03 -0.36758284897E+03  0.33548247919E+03  0.51602172379E+03  0.00000000000E+00 0.  1.
<mgrwt>
<rscale>  3 0.41152755E+03</rscale>
<asrwt>0</asrwt>
<pdfrwt beam="1">  1       21 0.16450119E+00 0.41152755E+03</pdfrwt>
<pdfrwt beam="2">  1       21 0.24009769E-01 0.41152755E+03</pdfrwt>
<totfact> 0.33410995E+03</totfact>
</mgrwt>
</event>
<event>
 4    0  0.1123572E-001  0.3304763E+03  0.7546771E-02  0.1070926E+00
         21   -1    0    0  503  501  0.00000000000E+00  0.00000000000E+00  0.12555341700E+03  0.12555341700E+03  0.00000000000E+00 0.  1.
         21   -1    0    0  501  502 -0.00000000000E+00 -0.00000000000E+00 -0.12563642419E+04  0.12563642419E+04  0.00000000000E+00 0.  1.
         25    1    1    2    0    0  0.21940442227E+02  0.30513641885E+03 -0.99269807667E+03  0.10462619598E+04  0.12500000000E+03 0.  0.
         21    1    1    2  503  502 -0.21940442227E+02 -0.30513641885E+03 -0.13811274824E+03  0.33565569910E+03  0.00000000000E+00 0.  1.
<mgrwt>
<rscale>  3 0.33047635E+03</rscale>
<asrwt>0</asrwt>
<pdfrwt beam="1">  1       21 0.19315911E-01 0.33047635E+03</pdfrwt>
<pdfrwt beam="2">  1       21 0.19328680E+00 0.33047635E+03</pdfrwt>
<totfact> 0.33039979E+03</totfact>
</mgrwt>
</event>
<event>
 4    0  0.1005289E-001  0.2376629E+03  0.7546771E-02  0.1121360E+00
         21   -1    0    0  502  501  0.00000000000E+00  0.00000000000E+00  0.28616657050E+03  0.28616657050E+03  0.00000000000E+00 0. -1.
         21   -1    0    0  503  502 -0.00000000000E+00 -0.00000000000E+00 -0.23219933050E+03  0.23219933050E+03  0.00000000000E+00 0.  1.
         25    1    1    2    0    0 -0.15482954078E+03 -0.12994801324E+03 -0.10635028136E+03  0.26037291562E+03  0.12500000000E+03 0.  0.
         21    1    1    2  503  501  0.15482954078E+03  0.12994801324E+03  0.16031752136E+03  0.25799298537E+03  0.00000000000E+00 0. -1.
<mgrwt>
<rscale>  3 0.23766294E+03</rscale>
<asrwt>0</asrwt>
<pdfrwt beam="1">  1       21 0.44025626E-01 0.23766294E+03</pdfrwt>
<pdfrwt beam="2">  1       21 0.35722974E-01 0.23766294E+03</pdfrwt>
<totfact> 0.36630647E+04</totfact>
</mgrwt>
</event>
<event>
 4    0  0.1027717E-001  0.2938633E+03  0.7546771E-02  0.1088349E+00
         21   -1    0    0  503  501  0.00000000000E+00  0.00000000000E+00  0.12497972062E+04  0.12497972062E+04  0.00000000000E+00 0. -1.
         21   -1    0    0  501  502 -0.00000000000E+00 -0.00000000000E+00 -0.95875737786E+02  0.95875737786E+02  0.00000000000E+00 0.  1.
         25    1    1    2    0    0 -0.10577854890E+03  0.24401133611E+03  0.20023427570E+03  0.35559724229E+03  0.12500000000E+03 0.  0.
         21    1    1    2  503  502  0.10577854890E+03 -0.24401133611E+03  0.95368719267E+03  0.99007570166E+03  0.00000000000E+00 0. -1.
<mgrwt>
<rscale>  3 0.29386329E+03</rscale>
<asrwt>0</asrwt>
<pdfrwt beam="1">  1       21 0.19227648E+00 0.29386329E+03</pdfrwt>
<pdfrwt beam="2">  1       21 0.14750114E-01 0.29386329E+03</pdfrwt>
<totfact> 0.56590412E+03</totfact>
</mgrwt>
</event>
<event>
 4    0  0.1434030E-001  0.2996550E+03  0.7546771E-02  0.1085413E+00
         21   -1    0    0  503  501  0.00000000000E+00  0.00000000000E+00  0.59924217138E+03  0.59924217138E+03  0.00000000000E+00 0. -1.
         21   -1    0    0  501  502 -0.00000000000E+00 -0.00000000000E+00 -0.14738910927E+03  0.14738910927E+03  0.00000000000E+00 0. -1.
         25    1    1    2    0    0  0.94168685377E+02 -0.25553941956E+03  0.13453625019E+03  0.32847091024E+03  0.12500000000E+03 0.  0.
         21    1    1    2  503  502 -0.94168685377E+02  0.25553941956E+03  0.31731681192E+03  0.41816037041E+03  0.00000000000E+00 0. -1.
<mgrwt>
<rscale>  3 0.29965503E+03</rscale>
<asrwt>0</asrwt>
<pdfrwt beam="1">  1       21 0.92191102E-01 0.29965503E+03</pdfrwt>
<pdfrwt beam="2">  1       21 0.22675248E-01 0.29965503E+03</pdfrwt>
<totfact> 0.17133453E+04</totfact>
</mgrwt>
</event>
<event>
 4    0  0.1005289E-001  0.3314532E+03  0.7546771E-02  0.1070496E+00
         21   -1    0    0  503  501  0.00000000000E+00  0.00000000000E+00  0.12017530082E+04  0.12017530082E+04  0.00000000000E+00 0. -1.
         21   -1    0    0  501  502 -0.00000000000E+00 -0.00000000000E+00 -0.26949611823E+03  0.26949611823E+03  0.00000000000E+00 0. -1.
         25    1    1    2    0    0  0.74985389604E+02 -0.29768000972E+03 -0.13711012800E+03  0.35869260383E+03  0.12500000000E+03 0.  0.
         21    1    1    2  503  502 -0.74985389604E+02  0.29768000972E+03  0.10693670180E+04  0.11125565226E+04  0.00000000000E+00 0. -1.
<mgrwt>
<rscale>  3 0.33145316E+03</rscale>
<asrwt>0</asrwt>
<pdfrwt beam="1">  1       21 0.18488508E+00 0.33145316E+03</pdfrwt>
<pdfrwt beam="2">  1       21 0.41460942E-01 0.33145316E+03</pdfrwt>
<totfact> 0.84008990E+02</totfact>
</mgrwt>
</event>
<event>
 4    0  0.1005289E-001  0.3798331E+03  0.7546771E-02  0.1050995E+00
         21   -1    0    0  502  501  0.00000000000E+00  0.00000000000E+00  0.97353899238E+03  0.97353899238E+03  0.00000000000E+00 0. -1.
         21   -1    0    0  503  502 -0.00000000000E+00 -0.00000000000E+00 -0.17395022640E+03  0.17395022640E+03  0.00000000000E+00 0. -1.
         25    1    1    2    0    0 -0.21161282067E+03  0.28960009670E+03  0.66219847887E+03  0.76340030606E+03  0.12500000000E+03 0.  0.
         21    1    1    2  503  501  0.21161282067E+03 -0.28960009670E+03  0.13739028711E+03  0.38408891272E+03  0.00000000000E+00 0. -1.
<mgrwt>
<rscale>  3 0.37983312E+03</rscale>
<asrwt>0</asrwt>
<pdfrwt beam="1">  1       21 0.14977523E+00 0.37983312E+03</pdfrwt>
<pdfrwt beam="2">  1       21 0.26761574E-01 0.37983312E+03</pdfrwt>
<totfact> 0.35510222E+03</totfact>
</mgrwt>
</event>
<event>
 4    0  0.1005289E-001  0.3494133E+03  0.7546771E-02  0.1062856E+00
         21   -1    0    0  503  501  0.00000000000E+00  0.00000000000E+00  0.14288397195E+04  0.14288397195E+04  0.00000000000E+00 0. -1.
         21   -1    0    0  501  502 -0.00000000000E+00 -0.00000000000E+00 -0.98674115404E+02  0.98674115404E+02  0.00000000000E+00 0.  1.
         25    1    1    2    0    0 -0.27912611545E+03 -0.16897707358E+03  0.35039326729E+03  0.49483843978E+03  0.12500000000E+03 0.  0.
         21    1    1    2  503  502  0.27912611545E+03  0.16897707358E+03  0.97977233684E+03  0.10326753952E+04  0.00000000000E+00 0. -1.
<mgrwt>
<rscale>  3 0.34941328E+03</rscale>
<asrwt>0</asrwt>
<pdfrwt beam="1">  1       21 0.21982148E+00 0.34941328E+03</pdfrwt>
<pdfrwt beam="2">  1       21 0.15180634E-01 0.34941328E+03</pdfrwt>
<totfact> 0.34452624E+03</totfact>
</mgrwt>
</event>
<event>
 4    0  0.1432009E-001  0.3803022E+03  0.7546771E-02  0.1050822E+00
         21   -1    0    0  502  501  0.00000000000E+00  0.00000000000E+00  0.16996584180E+03  0.16996584180E+03  0.00000000000E+00 0. -1.
         21   -1    0    0  503  502 -0.00000000000E+00 -0.00000000000E+00 -0.86210813049E+03  0.86210813049E+03  0.00000000000E+00 0. -1.
         25    1    1    2    0    0  0.27748461231E+03 -0.22805048944E+03 -0.48885884292E+03  0.61936475852E+03  0.12500000000E+03 0.  0.
         21    1    1    2  503  501 -0.27748461231E+03  0.22805048944E+03 -0.20328344578E+03  0.41270921377E+03  0.00000000000E+00 0. -1.
<mgrwt>
<rscale>  3 0.38030216E+03</rscale>
<asrwt>0</asrwt>
<pdfrwt beam="1">  1       21 0.26148591E-01 0.38030216E+03</pdfrwt>
<pdfrwt beam="2">  1       21 0.13263202E+00 0.38030216E+03</pdfrwt>
<totfact> 0.51251221E+03</totfact>
</mgrwt>
</event>
<event>
 4    0  0.1549868E-001  0.2750431E+03  0.7546771E-02  0.1098427E+00
         21   -1    0    0  502  501  0.00000000000E+00  0.00000000000E+00  0.32253632529E+03  0.32253632529E+03  0.00000000000E+00 0.  1.
         21   -1    0    0  503  502 -0.00000000000E+00 -0.00000000000E+00 -0.21133479328E+03  0.21133479328E+03  0.00000000000E+00 0.  1.
         25    1    1    2    0    0  0.24230163019E+03  0.36244302870E+02  0.34792210934E+02  0.27723496790E+03  0.12500000000E+03 0.  0.
         21    1    1    2  503  501 -0.24230163019E+03 -0.36244302870E+02  0.76409321077E+02  0.25663615067E+03  0.00000000000E+00 0.  1.
<mgrwt>
<rscale>  3 0.27504314E+03</rscale>
<asrwt>0</asrwt>
<pdfrwt beam="1">  1       21 0.49620973E-01 0.27504314E+03</pdfrwt>
<pdfrwt beam="2">  1       21 0.32513045E-01 0.27504314E+03</pdfrwt>
<totfact> 0.33923199E+04</totfact>
</mgrwt>
</event>
<event>
 4    0  0.1503438E-001  0.3313492E+03  0.7546771E-02  0.1070541E+00
         21   -1    0    0  502  501  0.00000000000E+00  0.00000000000E+00  0.14927334049E+03  0.14927334049E+03  0.00000000000E+00 0. -1.
         21   -1    0    0  503  502 -0.00000000000E+00 -0.00000000000E+00 -0.78110446430E+03  0.78110446430E+03  0.00000000000E+00 0. -1.
         25    1    1    2    0    0 -0.26055807969E+03 -0.16210106463E+03 -0.49194957981E+03  0.59313291691E+03  0.12500000000E+03 0.  0.
         21    1    1    2  503  501  0.26055807969E+03  0.16210106463E+03 -0.13988154400E+03  0.33724488788E+03  0.00000000000E+00 0. -1.
<mgrwt>
<rscale>  3 0.33134916E+03</rscale>
<asrwt>0</asrwt>
<pdfrwt beam="1">  1       21 0.22965129E-01 0.33134916E+03</pdfrwt>
<pdfrwt beam="2">  1       21 0.12016992E+00 0.33134916E+03</pdfrwt>
<totfact> 0.86553241E+03</totfact>
</mgrwt>
</event>
<event>
 4    0  0.1251244E-001  0.2460358E+03  0.7546771E-02  0.1115836E+00
         21   -1    0    0  502  501  0.00000000000E+00  0.00000000000E+00  0.81941450164E+02  0.81941450164E+02  0.00000000000E+00 0. -1.
         21   -1    0    0  503  502 -0.00000000000E+00 -0.00000000000E+00 -0.99795115170E+03  0.99795115170E+03  0.00000000000E+00 0. -1.
         25    1    1    2    0    0 -0.20993301639E+03  0.28926715153E+02 -0.80275180108E+03  0.83960948086E+03  0.12500000000E+03 0.  0.
         21    1    1    2  503  501  0.20993301639E+03 -0.28926715153E+02 -0.11325790046E+03  0.24028312100E+03  0.00000000000E+00 0. -1.
<mgrwt>
<rscale>  3 0.24603582E+03</rscale>
<asrwt>0</asrwt>
<pdfrwt beam="1">  1       21 0.12606377E-01 0.24603582E+03</pdfrwt>
<pdfrwt beam="2">  1       21 0.15353095E+00 0.24603582E+03</pdfrwt>
<totfact> 0.14581877E+04</totfact>
</mgrwt>
</event>
<event>
 4    0  0.1380957E-001  0.5005327E+03  0.7546771E-02  0.1013640E+00
         21   -1    0    0  503  501  0.00000000000E+00  0.00000000000E+00  0.59144869073E+03  0.59144869073E+03  0.00000000000E+00 0. -1.
         21   -1    0    0  501  502 -0.00000000000E+00 -0.00000000000E+00 -0.50570184824E+03  0.50570184824E+03  0.00000000000E+00 0. -1.
         25    1    1    2    0    0 -0.47990910790E+02 -0.48229122953E+03 -0.19483966987E+03  0.53711772876E+03  0.12500000000E+03 0.  0.
         21    1    1    2  503  502  0.47990910790E+02  0.48229122953E+03  0.28058651235E+03  0.56003281021E+03  0.00000000000E+00 0. -1.
<mgrwt>
<rscale>  3 0.50053267E+03</rscale>
<asrwt>0</asrwt>
<pdfrwt beam="1">  1       21 0.90992107E-01 0.50053267E+03</pdfrwt>
<pdfrwt beam="2">  1       21 0.77800284E-01 0.50053267E+03</pdfrwt>
<totfact> 0.12583355E+03</totfact>
</mgrwt>
</event>
<event>
 4    0  0.1651950E-001  0.2733176E+03  0.7546771E-02  0.1099396E+00
         21   -1    0    0  503  501  0.00000000000E+00  0.00000000000E+00  0.27030782957E+03  0.27030782957E+03  0.00000000000E+00 0.  1.
         21   -1    0    0  501  502 -0.00000000000E+00 -0.00000000000E+00 -0.61210628438E+03  0.61210628438E+03  0.00000000000E+00 0. -1.
         25    1    1    2    0    0  0.62363548972E+02 -0.23492192002E+03 -0.51563133048E+03  0.58359077247E+03  0.12500000000E+03 0.  0.
         21    1    1    2  503  502 -0.62363548972E+02  0.23492192002E+03  0.17383287566E+03  0.29882334147E+03  0.00000000000E+00 0.  1.
<mgrwt>
<rscale>  3 0.27331762E+03</rscale>
<asrwt>0</asrwt>
<pdfrwt beam="1">  1       21 0.41585821E-01 0.27331762E+03</pdfrwt>
<pdfrwt beam="2">  1       21 0.94170196E-01 0.27331762E+03</pdfrwt>
<totfact> 0.49846612E+03</totfact>
</mgrwt>
</event>
<event>
 4    0  0.1405505E-001  0.2634211E+03  0.7546771E-02  0.1105105E+00
         21   -1    0    0  502  501  0.00000000000E+00  0.00000000000E+00  0.81746193695E+03  0.81746193695E+03  0.00000000000E+00 0. -1.
         21   -1    0    0  503  502 -0.00000000000E+00 -0.00000000000E+00 -0.75035471619E+02  0.75035471619E+02  0.00000000000E+00 0. -1.
         25    1    1    2    0    0 -0.45003665998E+02 -0.22746500596E+03  0.40033219591E+03  0.47922492211E+03  0.12500000000E+03 0.  0.
         21    1    1    2  503  501  0.45003665998E+02  0.22746500596E+03  0.34209426943E+03  0.41327248646E+03  0.00000000000E+00 0. -1.
<mgrwt>
<rscale>  3 0.26342107E+03</rscale>
<asrwt>0</asrwt>
<pdfrwt beam="1">  1       21 0.12576337E+00 0.26342107E+03</pdfrwt>
<pdfrwt beam="2">  1       21 0.11543919E-01 0.26342107E+03</pdfrwt>
<totfact> 0.28452110E+04</totfact>
</mgrwt>
</event>
<event>
 4    0  0.1238078E-001  0.2439291E+03  0.7546771E-02  0.1117203E+00
         21   -1    0    0  502  501  0.00000000000E+00  0.00000000000E+00  0.94287367929E+03  0.94287367929E+03  0.00000000000E+00 0.  1.
         21   -1    0    0  503  502 -0.00000000000E+00 -0.00000000000E+00 -0.10361238997E+03  0.10361238997E+03  0.00000000000E+00 0.  1.
         25    1    1    2    0    0 -0.11498975255E+03  0.17508220045E+03  0.76737276076E+02  0.25571474272E+03  0.12500000000E+03 0.  0.
         21    1    1    2  503  501  0.11498975255E+03 -0.17508220045E+03  0.76252401324E+03  0.79077132654E+03  0.00000000000E+00 0.  1.
<mgrwt>
<rscale>  3 0.24392913E+03</rscale>
<asrwt>0</asrwt>
<pdfrwt beam="1">  1       21 0.14505748E+00 0.24392913E+03</pdfrwt>
<pdfrwt beam="2">  1       21 0.15940368E-01 0.24392913E+03</pdfrwt>
<totfact> 0.11066082E+04</totfact>
</mgrwt>
</event>
<event>
 4    0  0.1286319E-001  0.2395753E+03  0.7546771E-02  0.1120076E+00
         21   -1    0    0  503  501  0.00000000000E+00  0.00000000000E+00  0.12933359537E+03  0.12933359537E+03  0.00000000000E+00 0. -1.
         21   -1    0    0  501  502 -0.00000000000E+00 -0.00000000000E+00 -0.40807245099E+03  0.40807245099E+03  0.00000000000E+00 0. -1.
         25    1    1    2    0    0  0.16867368552E+02  0.20368317333E+03 -0.80659189432E+02  0.25278893975E+03  0.12500000000E+03 0.  0.
         21    1    1    2  503  502 -0.16867368552E+02 -0.20368317333E+03 -0.19807966618E+03  0.28461710661E+03  0.00000000000E+00 0. -1.
<mgrwt>
<rscale>  3 0.23957534E+03</rscale>
<asrwt>0</asrwt>
<pdfrwt beam="1">  1       21 0.19897476E-01 0.23957534E+03</pdfrwt>
<pdfrwt beam="2">  1       21 0.62780377E-01 0.23957534E+03</pdfrwt>
<totfact> 0.53626068E+04</totfact>
</mgrwt>
</event>
<event>
 4    0  0.1005289E-001  0.2456985E+03  0.7546771E-02  0.1116054E+00
         21   -1    0    0  502  501  0.00000000000E+00  0.00000000000E+00  0.14061644015E+04  0.14061644015E+04  0.00000000000E+00 0.  1.
         21   -1    0    0  503  502 -0.00000000000E+00 -0.00000000000E+00 -0.10897166426E+04  0.10897166426E+04  0.00000000000E+00 0.  1.
         25    1    1    2    0    0  0.20776609601E+03  0.39698946077E+02 -0.10677298843E+04  0.10956344568E+04  0.12500000000E+03 0.  0.
         21    1    1    2  503  501 -0.20776609601E+03 -0.39698946077E+02  0.13841776433E+04  0.14002465873E+04  0.00000000000E+00 0.  1.
<mgrwt>
<rscale>  3 0.24569851E+03</rscale>
<asrwt>0</asrwt>
<pdfrwt beam="1">  1       21 0.21633299E+00 0.24569851E+03</pdfrwt>
<pdfrwt beam="2">  1       21 0.16764871E+00 0.24569851E+03</pdfrwt>
<totfact> 0.21643481E+01</totfact>
</mgrwt>
</event>
<event>
 4    0  0.1455229E-001  0.2963582E+03  0.7546771E-02  0.1087075E+00
         21   -1    0    0  503  501  0.00000000000E+00  0.00000000000E+00  0.70040123009E+03  0.70040123009E+03  0.00000000000E+00 0. -1.
         21   -1    0    0  501  502 -0.00000000000E+00 -0.00000000000E+00 -0.17247090789E+03  0.17247090789E+03  0.00000000000E+00 0. -1.
         25    1    1    2    0    0 -0.23252417292E+03  0.13466873252E+03  0.18519906811E+02  0.29693626498E+03  0.12500000000E+03 0.  0.
         21    1    1    2  503  502  0.23252417292E+03 -0.13466873252E+03  0.50941041538E+03  0.57593587300E+03  0.00000000000E+00 0. -1.
<mgrwt>
<rscale>  3 0.29635816E+03</rscale>
<asrwt>0</asrwt>
<pdfrwt beam="1">  1       21 0.10775403E+00 0.29635816E+03</pdfrwt>
<pdfrwt beam="2">  1       21 0.26533986E-01 0.29635816E+03</pdfrwt>
<totfact> 0.87192115E+03</totfact>
</mgrwt>
</event>
<event>
 4    0  0.1521541E-001  0.2896837E+03  0.7546771E-02  0.1090514E+00
         21   -1    0    0  502  501  0.00000000000E+00  0.00000000000E+00  0.79566605729E+03  0.79566605729E+03  0.00000000000E+00 0.  1.
         21   -1    0    0  503  502 -0.00000000000E+00 -0.00000000000E+00 -0.13046872760E+03  0.13046872760E+03  0.00000000000E+00 0.  1.
         25    1    1    2    0    0 -0.27854241536E+02  0.25983798941E+03  0.10525460191E+03  0.30821286595E+03  0.12500000000E+03 0.  0.
         21    1    1    2  503  501  0.27854241536E+02 -0.25983798941E+03  0.55994272778E+03  0.61792191894E+03  0.00000000000E+00 0.  1.
<mgrwt>
<rscale>  3 0.28968369E+03</rscale>
<asrwt>0</asrwt>
<pdfrwt beam="1">  1       21 0.12241016E+00 0.28968369E+03</pdfrwt>
<pdfrwt beam="2">  1       21 0.20072112E-01 0.28968369E+03</pdfrwt>
<totfact> 0.10877787E+04</totfact>
</mgrwt>
</event>
<event>
 4    0  0.1140341E-001  0.3120357E+03  0.7546771E-02  0.1079374E+00
         21   -1    0    0  503  501  0.00000000000E+00  0.00000000000E+00  0.95240091016E+02  0.95240091016E+02  0.00000000000E+00 0. -1.
         21   -1    0    0  501  502 -0.00000000000E+00 -0.00000000000E+00 -0.14339292711E+04  0.14339292711E+04  0.00000000000E+00 0. -1.
         25    1    1    2    0    0 -0.22907573677E+03  0.17107183230E+03 -0.11376280007E+04  0.11796455963E+04  0.12500000000E+03 0.  0.
         21    1    1    2  503  502  0.22907573677E+03 -0.17107183230E+03 -0.20106117936E+03  0.34952376576E+03  0.00000000000E+00 0. -1.
<mgrwt>
<rscale>  3 0.31203568E+03</rscale>
<asrwt>0</asrwt>
<pdfrwt beam="1">  1       21 0.14652321E-01 0.31203568E+03</pdfrwt>
<pdfrwt beam="2">  1       21 0.22060451E+00 0.31203568E+03</pdfrwt>
<totfact> 0.37164422E+03</totfact>
</mgrwt>
</event>
<event>
 4    0  0.1423104E-001  0.4294948E+03  0.7546771E-02  0.1034020E+00
         21   -1    0    0  502  501  0.00000000000E+00  0.00000000000E+00  0.27842395016E+03  0.27842395016E+03  0.00000000000E+00 0.  1.
         21   -1    0    0  503  502 -0.00000000000E+00 -0.00000000000E+00 -0.65769058013E+03  0.65769058013E+03  0.00000000000E+00 0.  1.
         25    1    1    2    0    0  0.38743004399E+03  0.13688940446E+03 -0.28218043305E+03  0.51389837987E+03  0.12500000000E+03 0.  0.
         21    1    1    2  503  501 -0.38743004399E+03 -0.13688940446E+03 -0.97086196917E+02  0.42221615041E+03  0.00000000000E+00 0.  1.
<mgrwt>
<rscale>  3 0.42949476E+03</rscale>
<asrwt>0</asrwt>
<pdfrwt beam="1">  1       21 0.42834453E-01 0.42949476E+03</pdfrwt>
<pdfrwt beam="2">  1       21 0.10118317E+00 0.42949476E+03</pdfrwt>
<totfact> 0.36788400E+03</totfact>
</mgrwt>
</event>
<event>
 4    0  0.1379102E-001  0.3287283E+03  0.7546771E-02  0.1071701E+00
         21   -1    0    0  502  501  0.00000000000E+00  0.00000000000E+00  0.46666416297E+03  0.46666416297E+03  0.00000000000E+00 0. -1.
         21   -1    0    0  503  502 -0.00000000000E+00 -0.00000000000E+00 -0.22176395133E+03  0.22176395133E+03  0.00000000000E+00 0. -1.
         25    1    1    2    0    0  0.25288450156E+03 -0.16878008044E+03  0.18934291809E+03  0.37935870534E+03  0.12500000000E+03 0.  0.
         21    1    1    2  503  501 -0.25288450156E+03  0.16878008044E+03  0.55557293546E+02  0.30906940895E+03  0.00000000000E+00 0. -1.
<mgrwt>
<rscale>  3 0.32872829E+03</rscale>
<asrwt>0</asrwt>
<pdfrwt beam="1">  1       21 0.71794487E-01 0.32872829E+03</pdfrwt>
<pdfrwt beam="2">  1       21 0.34117531E-01 0.32872829E+03</pdfrwt>
<totfact> 0.13536023E+04</totfact>
</mgrwt>
</event>
<event>
 4    0  0.1647294E-001  0.2609061E+03  0.7546771E-02  0.1106600E+00
         21   -1    0    0  502  501  0.00000000000E+00  0.00000000000E+00  0.91359668634E+02  0.91359668634E+02  0.00000000000E+00 0. -1.
         21   -1    0    0  503  502 -0.00000000000E+00 -0.00000000000E+00 -0.69055433043E+03  0.69055433043E+03  0.00000000000E+00 0. -1.
         25    1    1    2    0    0 -0.18749085396E+03  0.13150725862E+03 -0.40440685180E+03  0.48126591524E+03  0.12500000000E+03 0.  0.
         21    1    1    2  503  501  0.18749085396E+03 -0.13150725862E+03 -0.19478781000E+03  0.30064808383E+03  0.00000000000E+00 0. -1.
<mgrwt>
<rscale>  3 0.26090607E+03</rscale>
<asrwt>0</asrwt>
<pdfrwt beam="1">  1       21 0.14055333E-01 0.26090607E+03</pdfrwt>
<pdfrwt beam="2">  1       21 0.10623913E+00 0.26090607E+03</pdfrwt>
<totfact> 0.30279207E+04</totfact>
</mgrwt>
</event>
<event>
 4    0  0.1005289E-001  0.2749939E+03  0.7546771E-02  0.1098455E+00
         21   -1    0    0  503  501  0.00000000000E+00  0.00000000000E+00  0.48357849647E+02  0.48357849647E+02  0.00000000000E+00 0.  1.
         21   -1    0    0  501  502 -0.00000000000E+00 -0.00000000000E+00 -0.15556934974E+04  0.15556934974E+04  0.00000000000E+00 0.  1.
         25    1    1    2    0    0  0.21341410662E+03  0.12021250291E+03 -0.53748684474E+03  0.60374972881E+03  0.12500000000E+03 0.  0.
         21    1    1    2  503  502 -0.21341410662E+03 -0.12021250291E+03 -0.96984880304E+03  0.10003016183E+04  0.00000000000E+00 0.  1.
<mgrwt>
<rscale>  3 0.27499387E+03</rscale>
<asrwt>0</asrwt>
<pdfrwt beam="1">  1       21 0.74396715E-02 0.27499387E+03</pdfrwt>
<pdfrwt beam="2">  1       21 0.23933739E+00 0.27499387E+03</pdfrwt>
<totfact> 0.98074073E+03</totfact>
</mgrwt>
</event>
<event>
 4    0  0.1045952E-001  0.2393622E+03  0.7546771E-02  0.1120218E+00
         21   -1    0    0  503  501  0.00000000000E+00  0.00000000000E+00  0.12294872894E+04  0.12294872894E+04  0.00000000000E+00 0.  1.
         21   -1    0    0  501  502 -0.00000000000E+00 -0.00000000000E+00 -0.15062370643E+03  0.15062370643E+03  0.00000000000E+00 0.  1.
         25    1    1    2    0    0  0.12263185728E+03  0.16318919514E+03 -0.40084560896E+02  0.24269540138E+03  0.12500000000E+03 0.  0.
         21    1    1    2  503  502 -0.12263185728E+03 -0.16318919514E+03  0.11189481439E+04  0.11374155944E+04  0.00000000000E+00 0.  1.
<mgrwt>
<rscale>  3 0.23936225E+03</rscale>
<asrwt>0</asrwt>
<pdfrwt beam="1">  1       21 0.18915188E+00 0.23936225E+03</pdfrwt>
<pdfrwt beam="2">  1       21 0.23172879E-01 0.23936225E+03</pdfrwt>
<totfact> 0.26506404E+03</totfact>
</mgrwt>
</event>
<event>
 4    0  0.1445527E-001  0.2626371E+03  0.7546771E-02  0.1105569E+00
         21   -1    0    0  502  501  0.00000000000E+00  0.00000000000E+00  0.44700379188E+03  0.44700379188E+03  0.00000000000E+00 0.  1.
         21   -1    0    0  503  502 -0.00000000000E+00 -0.00000000000E+00 -0.19626494175E+03  0.19626494175E+03  0.00000000000E+00 0.  1.
         25    1    1    2    0    0  0.73204896089E+02 -0.21907595440E+03 -0.46614982916E+02  0.26674179883E+03  0.12500000000E+03 0.  0.
         21    1    1    2  503  501 -0.73204896089E+02  0.21907595440E+03  0.29735383304E+03  0.37652693480E+03  0.00000000000E+00 0.  1.
<mgrwt>
<rscale>  3 0.26263707E+03</rscale>
<asrwt>0</asrwt>
<pdfrwt beam="1">  1       21 0.68769814E-01 0.26263707E+03</pdfrwt>
<pdfrwt beam="2">  1       21 0.30194607E-01 0.26263707E+03</pdfrwt>
<totfact> 0.19526526E+04</totfact>
</mgrwt>
</event>
<event>
 4    0  0.1212337E-001  0.2469224E+03  0.7546771E-02  0.1115265E+00
         21   -1    0    0  502  501  0.00000000000E+00  0.00000000000E+00  0.87787160025E+03  0.87787160025E+03  0.00000000000E+00 0.  1.
         21   -1    0    0  503  502 -0.00000000000E+00 -0.00000000000E+00 -0.99230198732E+02  0.99230198732E+02  0.00000000000E+00 0.  1.
         25    1    1    2    0    0  0.20186922727E+03  0.67782732482E+02  0.10098385527E+03  0.26677410437E+03  0.12500000000E+03 0.  0.
         21    1    1    2  503  501 -0.20186922727E+03 -0.67782732482E+02  0.67765754625E+03  0.71032769461E+03  0.00000000000E+00 0.  1.
<mgrwt>
<rscale>  3 0.24692242E+03</rscale>
<asrwt>0</asrwt>
<pdfrwt beam="1">  1       21 0.13505716E+00 0.24692242E+03</pdfrwt>
<pdfrwt beam="2">  1       21 0.15266185E-01 0.24692242E+03</pdfrwt>
<totfact> 0.14405155E+04</totfact>
</mgrwt>
</event>
<event>
 4    0  0.1005289E-001  0.3557816E+03  0.7546771E-02  0.1060267E+00
         21   -1    0    0  503  501  0.00000000000E+00  0.00000000000E+00  0.55884654852E+03  0.55884654852E+03  0.00000000000E+00 0.  1.
         21   -1    0    0  501  502 -0.00000000000E+00 -0.00000000000E+00 -0.25026511972E+03  0.25026511972E+03  0.00000000000E+00 0. -1.
         25    1    1    2    0    0 -0.23321825836E+03  0.23783348160E+03  0.10897220834E+01  0.35578323245E+03  0.12500000000E+03 0.  0.
         21    1    1    2  503  502  0.23321825836E+03 -0.23783348160E+03  0.30749170671E+03  0.45332843579E+03  0.00000000000E+00 0.  1.
<mgrwt>
<rscale>  3 0.35578156E+03</rscale>
<asrwt>0</asrwt>
<pdfrwt beam="1">  1       21 0.85976392E-01 0.35578156E+03</pdfrwt>
<pdfrwt beam="2">  1       21 0.38502326E-01 0.35578156E+03</pdfrwt>
<totfact> 0.69448313E+03</totfact>
</mgrwt>
</event>
<event>
 4    0  0.1185199E-001  0.2444234E+03  0.7546771E-02  0.1116881E+00
         21   -1    0    0  502  501  0.00000000000E+00  0.00000000000E+00  0.95345986821E+03  0.95345986821E+03  0.00000000000E+00 0. -1.
         21   -1    0    0  503  502 -0.00000000000E+00 -0.00000000000E+00 -0.16059813349E+03  0.16059813349E+03  0.00000000000E+00 0. -1.
         25    1    1    2    0    0  0.20850727425E+03  0.25347527360E+02 -0.46506503195E+02  0.24880843112E+03  0.12500000000E+03 0.  0.
         21    1    1    2  503  501 -0.20850727425E+03 -0.25347527360E+02  0.83936823792E+03  0.86524957058E+03  0.00000000000E+00 0. -1.
<mgrwt>
<rscale>  3 0.24442336E+03</rscale>
<asrwt>0</asrwt>
<pdfrwt beam="1">  1       21 0.14668613E+00 0.24442336E+03</pdfrwt>
<pdfrwt beam="2">  1       21 0.24707406E-01 0.24442336E+03</pdfrwt>
<totfact> 0.47181038E+03</totfact>
</mgrwt>
</event>
<event>
 4    0  0.1021785E-001  0.2798271E+03  0.7546771E-02  0.1095783E+00
         21   -1    0    0  503  501  0.00000000000E+00  0.00000000000E+00  0.40456276972E+03  0.40456276972E+03  0.00000000000E+00 0.  1.
         21   -1    0    0  501  502 -0.00000000000E+00 -0.00000000000E+00 -0.22849964302E+03  0.22849964302E+03  0.00000000000E+00 0. -1.
         25    1    1    2    0    0  0.24263664350E+03  0.61690085900E+02 -0.63073895648E+02  0.28684756192E+03  0.12500000000E+03 0.  0.
         21    1    1    2  503  502 -0.24263664350E+03 -0.61690085900E+02  0.23913702235E+03  0.34621485082E+03  0.00000000000E+00 0.  1.
<mgrwt>
<rscale>  3 0.27982710E+03</rscale>
<asrwt>0</asrwt>
<pdfrwt beam="1">  1       21 0.62240426E-01 0.27982710E+03</pdfrwt>
<pdfrwt beam="2">  1       21 0.35153791E-01 0.27982710E+03</pdfrwt>
<totfact> 0.17842432E+04</totfact>
</mgrwt>
</event>
<event>
 4    0  0.1659477E-001  0.2630552E+03  0.7546771E-02  0.1105321E+00
         21   -1    0    0  502  501  0.00000000000E+00  0.00000000000E+00  0.11750107022E+03  0.11750107022E+03  0.00000000000E+00 0. -1.
         21   -1    0    0  503  502 -0.00000000000E+00 -0.00000000000E+00 -0.58806967067E+03  0.58806967067E+03  0.00000000000E+00 0. -1.
         25    1    1    2    0    0  0.84647556591E+00 -0.23145696190E+03 -0.36812822446E+03  0.45245599938E+03  0.12500000000E+03 0.  0.
         21    1    1    2  503  501 -0.84647556591E+00  0.23145696190E+03 -0.10244037599E+03  0.25311474150E+03  0.00000000000E+00 0. -1.
<mgrwt>
<rscale>  3 0.26305521E+03</rscale>
<asrwt>0</asrwt>
<pdfrwt beam="1">  1       21 0.18077088E-01 0.26305521E+03</pdfrwt>
<pdfrwt beam="2">  1       21 0.90472256E-01 0.26305521E+03</pdfrwt>
<totfact> 0.27894527E+04</totfact>
</mgrwt>
</event>
<event>
 4    0  0.1798772E-001  0.3264052E+03  0.7546771E-02  0.1072739E+00
         21   -1    0    0  502  501  0.00000000000E+00  0.00000000000E+00  0.70081155893E+03  0.70081155893E+03  0.00000000000E+00 0. -1.
         21   -1    0    0  503  502 -0.00000000000E+00 -0.00000000000E+00 -0.58520968695E+03  0.58520968695E+03  0.00000000000E+00 0.  1.
         25    1    1    2    0    0 -0.12055986811E+03  0.27637049593E+03 -0.50197707615E+03  0.59876649689E+03  0.12500000000E+03 0.  0.
         21    1    1    2  503  501  0.12055986811E+03 -0.27637049593E+03  0.61757894813E+03  0.68725474898E+03  0.00000000000E+00 0. -1.
<mgrwt>
<rscale>  3 0.32640517E+03</rscale>
<asrwt>0</asrwt>
<pdfrwt beam="1">  1       21 0.10781716E+00 0.32640517E+03</pdfrwt>
<pdfrwt beam="2">  1       21 0.90032259E-01 0.32640517E+03</pdfrwt>
<totfact> 0.64507969E+02</totfact>
</mgrwt>
</event>
<event>
 4    0  0.1452546E-001  0.2458565E+03  0.7546771E-02  0.1115952E+00
         21   -1    0    0  503  501  0.00000000000E+00  0.00000000000E+00  0.22029409947E+03  0.22029409947E+03  0.00000000000E+00 0. -1.
         21   -1    0    0  501  502 -0.00000000000E+00 -0.00000000000E+00 -0.25062846212E+03  0.25062846212E+03  0.00000000000E+00 0. -1.
         25    1    1    2    0    0 -0.15630137873E+03 -0.14279452508E+03 -0.69787797209E+02  0.25556943093E+03  0.12500000000E+03 0.  0.
         21    1    1    2  503  502  0.15630137873E+03  0.14279452508E+03  0.39453434567E+02  0.21535313066E+03  0.00000000000E+00 0. -1.
<mgrwt>
<rscale>  3 0.24585646E+03</rscale>
<asrwt>0</asrwt>
<pdfrwt beam="1">  1       21 0.33891400E-01 0.24585646E+03</pdfrwt>
<pdfrwt beam="2">  1       21 0.38558225E-01 0.24585646E+03</pdfrwt>
<totfact> 0.53139794E+04</totfact>
</mgrwt>
</event>
<event>
 4    0  0.1005289E-001  0.2852922E+03  0.7546771E-02  0.1092833E+00
         21   -1    0    0  502  501  0.00000000000E+00  0.00000000000E+00  0.58114121725E+03  0.58114121725E+03  0.00000000000E+00 0.  1.
         21   -1    0    0  503  502 -0.00000000000E+00 -0.00000000000E+00 -0.17783340839E+03  0.17783340839E+03  0.00000000000E+00 0.  1.
         25    1    1    2    0    0 -0.25599470198E+03  0.15275144325E+02  0.41344654115E+03  0.50232425769E+03  0.12500000000E+03 0.  0.
         21    1    1    2  503  501  0.25599470198E+03 -0.15275144325E+02 -0.10138732295E+02  0.25665036795E+03  0.00000000000E+00 0.  1.
<mgrwt>
<rscale>  3 0.28529216E+03</rscale>
<asrwt>0</asrwt>
<pdfrwt beam="1">  1       21 0.89406340E-01 0.28529216E+03</pdfrwt>
<pdfrwt beam="2">  1       21 0.27358986E-01 0.28529216E+03</pdfrwt>
<totfact> 0.12902191E+04</totfact>
</mgrwt>
</event>
<event>
 4    0  0.1005289E-001  0.2869751E+03  0.7546771E-02  0.1091939E+00
         21   -1    0    0  503  501  0.00000000000E+00  0.00000000000E+00  0.33114081373E+03  0.33114081373E+03  0.00000000000E+00 0.  1.
         21   -1    0    0  501  502 -0.00000000000E+00 -0.00000000000E+00 -0.27197563344E+03  0.27197563344E+03  0.00000000000E+00 0. -1.
         25    1    1    2    0    0 -0.20106524387E+02  0.25753721916E+03 -0.94999018153E+02  0.30229043158E+03  0.12500000000E+03 0.  0.
         21    1    1    2  503  502  0.20106524387E+02 -0.25753721916E+03  0.15416419844E+03  0.30082601559E+03  0.00000000000E+00 0.  1.
<mgrwt>
<rscale>  3 0.28697507E+03</rscale>
<asrwt>0</asrwt>
<pdfrwt beam="1">  1       21 0.50944740E-01 0.28697507E+03</pdfrwt>
<pdfrwt beam="2">  1       21 0.41842405E-01 0.28697507E+03</pdfrwt>
<totfact> 0.19201802E+04</totfact>
</mgrwt>
</event>
<event>
 4    0  0.1368243E-001  0.2364728E+03  0.7546771E-02  0.1122165E+00
         21   -1    0    0  503  501  0.00000000000E+00  0.00000000000E+00  0.82456455710E+02  0.82456455710E+02  0.00000000000E+00 0. -1.
         21   -1    0    0  501  502 -0.00000000000E+00 -0.00000000000E+00 -0.82313423141E+03  0.82313423141E+03  0.00000000000E+00 0. -1.
         25    1    1    2    0    0 -0.60404502762E+01 -0.20064370633E+03 -0.63738832893E+03  0.67984061792E+03  0.12500000000E+03 0.  0.
         21    1    1    2  503  502  0.60404502762E+01  0.20064370633E+03 -0.10328944678E+03  0.22575006920E+03  0.00000000000E+00 0. -1.
<mgrwt>
<rscale>  3 0.23647280E+03</rscale>
<asrwt>0</asrwt>
<pdfrwt beam="1">  1       21 0.12685609E-01 0.23647280E+03</pdfrwt>
<pdfrwt beam="2">  1       21 0.12663603E+00 0.23647280E+03</pdfrwt>
<totfact> 0.23906207E+04</totfact>
</mgrwt>
</event>
<event>
 4    0  0.1005289E-001  0.3329354E+03  0.7546771E-02  0.1069845E+00
         21   -1    0    0  502  501  0.00000000000E+00  0.00000000000E+00  0.13534984055E+03  0.13534984055E+03  0.00000000000E+00 0.  1.
         21   -1    0    0  503  502 -0.00000000000E+00 -0.00000000000E+00 -0.76372147825E+03  0.76372147825E+03  0.00000000000E+00 0. -1.
         25    1    1    2    0    0  0.30742238178E+03 -0.26691654762E+02 -0.29530695994E+03  0.44503052237E+03  0.12500000000E+03 0.  0.
         21    1    1    2  503  501 -0.30742238178E+03  0.26691654762E+02 -0.33306467775E+03  0.45404079642E+03  0.00000000000E+00 0.  1.
<mgrwt>
<rscale>  3 0.33293538E+03</rscale>
<asrwt>0</asrwt>
<pdfrwt beam="1">  1       21 0.20823053E-01 0.33293538E+03</pdfrwt>
<pdfrwt beam="2">  1       21 0.11749561E+00 0.33293538E+03</pdfrwt>
<totfact> 0.11031860E+04</totfact>
</mgrwt>
</event>
<event>
 4    0  0.1148449E-001  0.2744981E+03  0.7546771E-02  0.1098732E+00
         21   -1    0    0  502  501  0.00000000000E+00  0.00000000000E+00  0.11994971193E+03  0.11994971193E+03  0.00000000000E+00 0.  1.
         21   -1    0    0  503  502 -0.00000000000E+00 -0.00000000000E+00 -0.10711038806E+04  0.10711038806E+04  0.00000000000E+00 0.  1.
         25    1    1    2    0    0  0.19885423687E+03  0.14206063674E+03 -0.90058696138E+03  0.94149142696E+03  0.12500000000E+03 0.  0.
         21    1    1    2  503  501 -0.19885423687E+03 -0.14206063674E+03 -0.50567207284E+02  0.24956216557E+03  0.00000000000E+00 0.  1.
<mgrwt>
<rscale>  3 0.27449815E+03</rscale>
<asrwt>0</asrwt>
<pdfrwt beam="1">  1       21 0.18453803E-01 0.27449815E+03</pdfrwt>
<pdfrwt beam="2">  1       21 0.16478520E+00 0.27449815E+03</pdfrwt>
<totfact> 0.58734231E+03</totfact>
</mgrwt>
</event>
<event>
 4    0  0.1371025E-001  0.3661372E+03  0.7546771E-02  0.1056180E+00
         21   -1    0    0  502  501  0.00000000000E+00  0.00000000000E+00  0.77120184499E+03  0.77120184499E+03  0.00000000000E+00 0. -1.
         21   -1    0    0  503  502 -0.00000000000E+00 -0.00000000000E+00 -0.17667471776E+03  0.17667471776E+03  0.00000000000E+00 0. -1.
         25    1    1    2    0    0  0.19471919734E+03  0.28375317141E+03  0.17662255972E+03  0.40651193919E+03  0.12500000000E+03 0.  0.
         21    1    1    2  503  501 -0.19471919734E+03 -0.28375317141E+03  0.41790456751E+03  0.54136462356E+03  0.00000000000E+00 0. -1.
<mgrwt>
<rscale>  3 0.36613717E+03</rscale>
<asrwt>0</asrwt>
<pdfrwt beam="1">  1       21 0.11864644E+00 0.36613717E+03</pdfrwt>
<pdfrwt beam="2">  1       21 0.27180726E-01 0.36613717E+03</pdfrwt>
<totfact> 0.63571830E+03</totfact>
</mgrwt>
</event>
<event>
 4    0  0.1369399E-001  0.3200597E+03  0.7546771E-02  0.1075622E+00
         21   -1    0    0  503  501  0.00000000000E+00  0.00000000000E+00  0.73316188112E+03  0.73316188112E+03  0.00000000000E+00 0.  1.
         21   -1    0    0  501  502 -0.00000000000E+00 -0.00000000000E+00 -0.15775155855E+03  0.15775155855E+03  0.00000000000E+00 0.  1.
         25    1    1    2    0    0  0.10030857812E+03 -0.27704042148E+03  0.10686995679E+03  0.33743057603E+03  0.12500000000E+03 0.  0.
         21    1    1    2  503  502 -0.10030857812E+03  0.27704042148E+03  0.46854036577E+03  0.55348286363E+03  0.00000000000E+00 0.  1.
<mgrwt>
<rscale>  3 0.32005969E+03</rscale>
<asrwt>0</asrwt>
<pdfrwt beam="1">  1       21 0.11279413E+00 0.32005969E+03</pdfrwt>
<pdfrwt beam="2">  1       21 0.24269471E-01 0.32005969E+03</pdfrwt>
<totfact> 0.91589761E+03</totfact>
</mgrwt>
</event>
<event>
 4    0  0.1516721E-001  0.2627385E+03  0.7546771E-02  0.1105509E+00
         21   -1    0    0  503  501  0.00000000000E+00  0.00000000000E+00  0.64481530765E+02  0.64481530765E+02  0.00000000000E+00 0.  1.
         21   -1    0    0  501  502 -0.00000000000E+00 -0.00000000000E+00 -0.95701947442E+03  0.95701947442E+03  0.00000000000E+00 0.  1.
         25    1    1    2    0    0 -0.13424296578E+03  0.18810994004E+03 -0.53038463136E+03  0.59189473776E+03  0.12500000000E+03 0.  0.
         21    1    1    2  503  502  0.13424296578E+03 -0.18810994004E+03 -0.36215331230E+03  0.42960626743E+03  0.00000000000E+00 0.  1.
<mgrwt>
<rscale>  3 0.26273851E+03</rscale>
<asrwt>0</asrwt>
<pdfrwt beam="1">  1       21 0.99202349E-02 0.26273851E+03</pdfrwt>
<pdfrwt beam="2">  1       21 0.14723377E+00 0.26273851E+03</pdfrwt>
<totfact> 0.24820007E+04</totfact>
</mgrwt>
</event>
<event>
 4    0  0.1248405E-001  0.3430202E+03  0.7546771E-02  0.1065517E+00
         21   -1    0    0  502  501  0.00000000000E+00  0.00000000000E+00  0.11261739698E+04  0.11261739698E+04  0.00000000000E+00 0. -1.
         21   -1    0    0  503  502 -0.00000000000E+00 -0.00000000000E+00 -0.10696777905E+03  0.10696777905E+03  0.00000000000E+00 0. -1.
         25    1    1    2    0    0  0.15502907600E+03 -0.27929173639E+03  0.34202169850E+03  0.48439831818E+03  0.12500000000E+03 0.  0.
         21    1    1    2  503  501 -0.15502907600E+03  0.27929173639E+03  0.67718449229E+03  0.74874343070E+03  0.00000000000E+00 0. -1.
<mgrwt>
<rscale>  3 0.34302024E+03</rscale>
<asrwt>0</asrwt>
<pdfrwt beam="1">  1       21 0.17325753E+00 0.34302024E+03</pdfrwt>
<pdfrwt beam="2">  1       21 0.16456582E-01 0.34302024E+03</pdfrwt>
<totfact> 0.60903648E+03</totfact>
</mgrwt>
</event>
<event>
 4    0  0.1005289E-001  0.2404290E+03  0.7546771E-02  0.1119507E+00
         21   -1    0    0  502  501  0.00000000000E+00  0.00000000000E+00  0.37339577974E+03  0.37339577974E+03  0.00000000000E+00 0.  1.
         21   -1    0    0  503  502 -0.00000000000E+00 -0.00000000000E+00 -0.14411860562E+03  0.14411860562E+03  0.00000000000E+00 0. -1.
         25    1    1    2    0    0  0.19484136032E+03 -0.64945811996E+02  0.51508826701E+02  0.24588467503E+03  0.12500000000E+03 0.  0.
         21    1    1    2  503  501 -0.19484136032E+03  0.64945811996E+02  0.17776834743E+03  0.27162971033E+03  0.00000000000E+00 0.  1.
<mgrwt>
<rscale>  3 0.24042902E+03</rscale>
<asrwt>0</asrwt>
<pdfrwt beam="1">  1       21 0.57445504E-01 0.24042902E+03</pdfrwt>
<pdfrwt beam="2">  1       21 0.22172093E-01 0.24042902E+03</pdfrwt>
<totfact> 0.52947665E+04</totfact>
</mgrwt>
</event>
<event>
 4    0  0.1373361E-001  0.3126266E+03  0.7546771E-02  0.1079094E+00
         21   -1    0    0  502  501  0.00000000000E+00  0.00000000000E+00  0.22236225917E+03  0.22236225917E+03  0.00000000000E+00 0.  1.
         21   -1    0    0  503  502 -0.00000000000E+00 -0.00000000000E+00 -0.42914793346E+03  0.42914793346E+03  0.00000000000E+00 0.  1.
         25    1    1    2    0    0 -0.27435596133E+03 -0.82699353869E+02 -0.28266768290E+02  0.31390187454E+03  0.12500000000E+03 0.  0.
         21    1    1    2  503  501  0.27435596133E+03  0.82699353869E+02 -0.17851890600E+03  0.33760831810E+03  0.00000000000E+00 0.  1.
<mgrwt>
<rscale>  3 0.31262658E+03</rscale>
<asrwt>0</asrwt>
<pdfrwt beam="1">  1       21 0.34209578E-01 0.31262658E+03</pdfrwt>
<pdfrwt beam="2">  1       21 0.66022759E-01 0.31262658E+03</pdfrwt>
<totfact> 0.16329653E+04</totfact>
</mgrwt>
</event>
<event>
 4    0  0.1511644E-001  0.3026719E+03  0.7546771E-02  0.1083913E+00
         21   -1    0    0  503  501  0.00000000000E+00  0.00000000000E+00  0.53023899265E+03  0.53023899265E+03  0.00000000000E+00 0. -1.
         21   -1    0    0  501  502 -0.00000000000E+00 -0.00000000000E+00 -0.28388260480E+03  0.28388260480E+03  0.00000000000E+00 0. -1.
         25    1    1    2    0    0  0.20900858746E+03  0.17972397725E+03 -0.14485490604E+03  0.33554916396E+03  0.12500000000E+03 0.  0.
         21    1    1    2  503  502 -0.20900858746E+03 -0.17972397725E+03  0.39121129389E+03  0.47857243349E+03  0.00000000000E+00 0. -1.
<mgrwt>
<rscale>  3 0.30267193E+03</rscale>
<asrwt>0</asrwt>
<pdfrwt beam="1">  1       21 0.81575230E-01 0.30267193E+03</pdfrwt>
<pdfrwt beam="2">  1       21 0.43674247E-01 0.30267193E+03</pdfrwt>
<totfact> 0.61989461E+03</totfact>
</mgrwt>
</event>
<event>
 4    0  0.1342467E-001  0.2688958E+03  0.7546771E-02  0.1101913E+00
         21   -1    0    0  503  501  0.00000000000E+00  0.00000000000E+00  0.71839932783E+03  0.71839932783E+03  0.00000000000E+00 0.  1.
         21   -1    0    0  501  502 -0.00000000000E+00 -0.00000000000E+00 -0.14068206293E+03  0.14068206293E+03  0.00000000000E+00 0.  1.
         25    1    1    2    0    0 -0.12897262912E+02 -0.23772595417E+03  0.41094939655E+02  0.27201794562E+03  0.12500000000E+03 0.  0.
         21    1    1    2  503  502  0.12897262912E+02  0.23772595417E+03  0.53662232524E+03  0.58706344514E+03  0.00000000000E+00 0.  1.
<mgrwt>
<rscale>  3 0.26889583E+03</rscale>
<asrwt>0</asrwt>
<pdfrwt beam="1">  1       21 0.11052297E+00 0.26889583E+03</pdfrwt>
<pdfrwt beam="2">  1       21 0.21643395E-01 0.26889583E+03</pdfrwt>
<totfact> 0.12278801E+04</totfact>
</mgrwt>
</event>
<event>
 4    0  0.1384878E-001  0.2873762E+03  0.7546771E-02  0.1091727E+00
         21   -1    0    0  503  501  0.00000000000E+00  0.00000000000E+00  0.12212821372E+03  0.12212821372E+03  0.00000000000E+00 0.  1.
         21   -1    0    0  501  502 -0.00000000000E+00 -0.00000000000E+00 -0.84388829901E+03  0.84388829901E+03  0.00000000000E+00 0.  1.
         25    1    1    2    0    0  0.24230083984E+03  0.90831688500E+02 -0.62827751480E+03  0.69088184824E+03  0.12500000000E+03 0.  0.
         21    1    1    2  503  502 -0.24230083984E+03 -0.90831688500E+02 -0.93482570489E+02  0.27513466450E+03  0.00000000000E+00 0.  1.
<mgrwt>
<rscale>  3 0.28737622E+03</rscale>
<asrwt>0</asrwt>
<pdfrwt beam="1">  1       21 0.18788957E-01 0.28737622E+03</pdfrwt>
<pdfrwt beam="2">  1       21 0.12982896E+00 0.28737622E+03</pdfrwt>
<totfact> 0.10617935E+04</totfact>
</mgrwt>
</event>
<event>
 4    0  0.1393870E-001  0.2558028E+03  0.7546771E-02  0.1109692E+00
         21   -1    0    0  502  501  0.00000000000E+00  0.00000000000E+00  0.34357115335E+03  0.34357115335E+03  0.00000000000E+00 0.  1.
         21   -1    0    0  503  502 -0.00000000000E+00 -0.00000000000E+00 -0.23655981240E+03  0.23655981240E+03  0.00000000000E+00 0.  1.
         25    1    1    2    0    0 -0.17434051506E+03  0.13933941048E+03 -0.10102155923E+03  0.27502807481E+03  0.12500000000E+03 0.  0.
         21    1    1    2  503  501  0.17434051506E+03 -0.13933941048E+03  0.20803290017E+03  0.30510289094E+03  0.00000000000E+00 0.  1.
<mgrwt>
<rscale>  3 0.25580283E+03</rscale>
<asrwt>0</asrwt>
<pdfrwt beam="1">  1       21 0.52857100E-01 0.25580283E+03</pdfrwt>
<pdfrwt beam="2">  1       21 0.36393817E-01 0.25580283E+03</pdfrwt>
<totfact> 0.23900298E+04</totfact>
</mgrwt>
</event>
<event>
 4    0  0.1044112E-001  0.3496622E+03  0.7546771E-02  0.1062754E+00
         21   -1    0    0  502  501  0.00000000000E+00  0.00000000000E+00  0.21352747461E+04  0.21352747461E+04  0.00000000000E+00 0.  1.
         21   -1    0    0  503  502 -0.00000000000E+00 -0.00000000000E+00 -0.54844747178E+02  0.54844747178E+02  0.00000000000E+00 0.  1.
         25    1    1    2    0    0  0.85513595107E+02  0.31516040565E+03  0.90595767314E+03  0.97109369361E+03  0.12500000000E+03 0.  0.
         21    1    1    2  503  501 -0.85513595107E+02 -0.31516040565E+03  0.11744723258E+04  0.12190257997E+04  0.00000000000E+00 0.  1.
<mgrwt>
<rscale>  3 0.34966220E+03</rscale>
<asrwt>0</asrwt>
<pdfrwt beam="1">  1       21 0.32850374E+00 0.34966220E+03</pdfrwt>
<pdfrwt beam="2">  1       21 0.84376551E-02 0.34966220E+03</pdfrwt>
<totfact> 0.22006660E+03</totfact>
</mgrwt>
</event>
<event>
 4    0  0.1375275E-001  0.2594004E+03  0.7546771E-02  0.1107504E+00
         21   -1    0    0  502  501  0.00000000000E+00  0.00000000000E+00  0.28885700192E+03  0.28885700192E+03  0.00000000000E+00 0.  1.
         21   -1    0    0  503  502 -0.00000000000E+00 -0.00000000000E+00 -0.30128673210E+03  0.30128673210E+03  0.00000000000E+00 0.  1.
         25    1    1    2    0    0  0.11331183378E+03  0.19703803647E+03 -0.17304818954E+03  0.31182404557E+03  0.12500000000E+03 0.  0.
         21    1    1    2  503  501 -0.11331183378E+03 -0.19703803647E+03  0.16061845936E+03  0.27831968845E+03  0.00000000000E+00 0.  1.
<mgrwt>
<rscale>  3 0.25940038E+03</rscale>
<asrwt>0</asrwt>
<pdfrwt beam="1">  1       21 0.44439539E-01 0.25940038E+03</pdfrwt>
<pdfrwt beam="2">  1       21 0.46351805E-01 0.25940038E+03</pdfrwt>
<totfact> 0.20926182E+04</totfact>
</mgrwt>
</event>
<event>
 4    0  0.1395976E-001  0.2988776E+03  0.7546771E-02  0.1085803E+00
         21   -1    0    0  503  501  0.00000000000E+00  0.00000000000E+00  0.60907917821E+03  0.60907917821E+03  0.00000000000E+00 0.  1.
         21   -1    0    0  501  502 -0.00000000000E+00 -0.00000000000E+00 -0.19130361897E+03  0.19130361897E+03  0.00000000000E+00 0.  1.
         25    1    1    2    0    0 -0.13836951875E+03 -0.23357380956E+03 -0.38635302702E+01  0.29890261808E+03  0.12500000000E+03 0.  0.
         21    1    1    2  503  502  0.13836951875E+03  0.23357380956E+03  0.42163908951E+03  0.50148017910E+03  0.00000000000E+00 0.  1.
<mgrwt>
<rscale>  3 0.29887765E+03</rscale>
<asrwt>0</asrwt>
<pdfrwt beam="1">  1       21 0.93704488E-01 0.29887765E+03</pdfrwt>
<pdfrwt beam="2">  1       21 0.29431326E-01 0.29887765E+03</pdfrwt>
<totfact> 0.99541284E+03</totfact>
</mgrwt>
</event>
<event>
 4    0  0.1005289E-001  0.2746548E+03  0.7546771E-02  0.1098645E+00
         21   -1    0    0  503  501  0.00000000000E+00  0.00000000000E+00  0.24078424121E+04  0.24078424121E+04  0.00000000000E+00 0.  1.
         21   -1    0    0  501  502 -0.00000000000E+00 -0.00000000000E+00 -0.30915425530E+02  0.30915425530E+02  0.00000000000E+00 0.  1.
         25    1    1    2    0    0 -0.24433420685E+03 -0.10538772334E+02  0.87632365772E+03  0.91835637061E+03  0.12500000000E+03 0.  0.
         21    1    1    2  503  502  0.24433420685E+03  0.10538772334E+02  0.15006033288E+04  0.15204014670E+04  0.00000000000E+00 0.  1.
<mgrwt>
<rscale>  3 0.27465482E+03</rscale>
<asrwt>0</asrwt>
<pdfrwt beam="1">  1       21 0.37043714E+00 0.27465482E+03</pdfrwt>
<pdfrwt beam="2">  1       21 0.47562212E-02 0.27465482E+03</pdfrwt>
<totfact> 0.35270079E+03</totfact>
</mgrwt>
</event>
<event>
 4    0  0.1434111E-001  0.2829282E+03  0.7546771E-02  0.1094100E+00
         21   -1    0    0  503  501  0.00000000000E+00  0.00000000000E+00  0.12611255194E+03  0.12611255194E+03  0.00000000000E+00 0.  1.
         21   -1    0    0  501  502 -0.00000000000E+00 -0.00000000000E+00 -0.76133297251E+03  0.76133297251E+03  0.00000000000E+00 0.  1.
         25    1    1    2    0    0 -0.23371522939E+03 -0.98997856493E+02 -0.55208475293E+03  0.62035953966E+03  0.12500000000E+03 0.  0.
         21    1    1    2  503  502  0.23371522939E+03  0.98997856493E+02 -0.83135667633E+02  0.26708598479E+03  0.00000000000E+00 0.  1.
<mgrwt>
<rscale>  3 0.28292823E+03</rscale>
<asrwt>0</asrwt>
<pdfrwt beam="1">  1       21 0.19401931E-01 0.28292823E+03</pdfrwt>
<pdfrwt beam="2">  1       21 0.11712815E+00 0.28292823E+03</pdfrwt>
<totfact> 0.12993380E+04</totfact>
</mgrwt>
</event>
<event>
 4    0  0.1550740E-001  0.2718412E+03  0.7546771E-02  0.1100230E+00
         21   -1    0    0  503  501  0.00000000000E+00  0.00000000000E+00  0.16494006532E+03  0.16494006532E+03  0.00000000000E+00 0.  1.
         21   -1    0    0  501  502 -0.00000000000E+00 -0.00000000000E+00 -0.42260327690E+03  0.42260327690E+03  0.00000000000E+00 0.  1.
         25    1    1    2    0    0  0.17457256994E+03  0.16672444944E+03 -0.20498524333E+03  0.34046523199E+03  0.12500000000E+03 0.  0.
         21    1    1    2  503  502 -0.17457256994E+03 -0.16672444944E+03 -0.52677968254E+02  0.24707811023E+03  0.00000000000E+00 0.  1.
<mgrwt>
<rscale>  3 0.27184117E+03</rscale>
<asrwt>0</asrwt>
<pdfrwt beam="1">  1       21 0.25375395E-01 0.27184117E+03</pdfrwt>
<pdfrwt beam="2">  1       21 0.65015888E-01 0.27184117E+03</pdfrwt>
<totfact> 0.30875751E+04</totfact>
</mgrwt>
</event>
<event>
 4    0  0.1489017E-001  0.2519573E+03  0.7546771E-02  0.1112074E+00
         21   -1    0    0  502  501  0.00000000000E+00  0.00000000000E+00  0.88681549877E+02  0.88681549877E+02  0.00000000000E+00 0. -1.
         21   -1    0    0  503  502 -0.00000000000E+00 -0.00000000000E+00 -0.69509469907E+03  0.69509469907E+03  0.00000000000E+00 0. -1.
         25    1    1    2    0    0 -0.10017120025E+03  0.19448190507E+03 -0.44690253367E+03  0.51303445826E+03  0.12500000000E+03 0.  0.
         21    1    1    2  503  501  0.10017120025E+03 -0.19448190507E+03 -0.15951061552E+03  0.27074179068E+03  0.00000000000E+00 0. -1.
<mgrwt>
<rscale>  3 0.25195730E+03</rscale>
<asrwt>0</asrwt>
<pdfrwt beam="1">  1       21 0.13643315E-01 0.25195730E+03</pdfrwt>
<pdfrwt beam="2">  1       21 0.10693765E+00 0.25195730E+03</pdfrwt>
<totfact> 0.31587688E+04</totfact>
</mgrwt>
</event>
<event>
 4    0  0.1350856E-001  0.2394959E+03  0.7546771E-02  0.1120129E+00
         21   -1    0    0  502  501  0.00000000000E+00  0.00000000000E+00  0.49855207936E+03  0.49855207936E+03  0.00000000000E+00 0.  1.
         21   -1    0    0  503  502 -0.00000000000E+00 -0.00000000000E+00 -0.17338839326E+03  0.17338839326E+03  0.00000000000E+00 0.  1.
         25    1    1    2    0    0  0.12932418488E+03 -0.15814094899E+03 -0.50094977348E+02  0.24467899643E+03  0.12500000000E+03 0.  0.
         21    1    1    2  503  501 -0.12932418488E+03  0.15814094899E+03  0.37525866345E+03  0.42726147618E+03  0.00000000000E+00 0.  1.
<mgrwt>
<rscale>  3 0.23949594E+03</rscale>
<asrwt>0</asrwt>
<pdfrwt beam="1">  1       21 0.76700319E-01 0.23949594E+03</pdfrwt>
<pdfrwt beam="2">  1       21 0.26675138E-01 0.23949594E+03</pdfrwt>
<totfact> 0.19698830E+04</totfact>
</mgrwt>
</event>
<event>
 4    0  0.1453637E-001  0.2602238E+03  0.7546771E-02  0.1107009E+00
         21   -1    0    0  503  501  0.00000000000E+00  0.00000000000E+00  0.73121037244E+03  0.73121037244E+03  0.00000000000E+00 0. -1.
         21   -1    0    0  501  502 -0.00000000000E+00 -0.00000000000E+00 -0.82573755843E+02  0.82573755843E+02  0.00000000000E+00 0. -1.
         25    1    1    2    0    0  0.10043177865E+03 -0.20495091302E+03  0.30063411340E+03  0.39761449804E+03  0.12500000000E+03 0.  0.
         21    1    1    2  503  502 -0.10043177865E+03  0.20495091302E+03  0.34800250319E+03  0.41616963024E+03  0.00000000000E+00 0. -1.
<mgrwt>
<rscale>  3 0.26022379E+03</rscale>
<asrwt>0</asrwt>
<pdfrwt beam="1">  1       21 0.11249390E+00 0.26022379E+03</pdfrwt>
<pdfrwt beam="2">  1       21 0.12703655E-01 0.26022379E+03</pdfrwt>
<totfact> 0.31654534E+04</totfact>
</mgrwt>
</event>
<event>
 4    0  0.1005289E-001  0.2427927E+03  0.7546771E-02  0.1117946E+00
         21   -1    0    0  502  501  0.00000000000E+00  0.00000000000E+00  0.10045123431E+04  0.10045123431E+04  0.00000000000E+00 0. -1.
         21   -1    0    0  503  502 -0.00000000000E+00 -0.00000000000E+00 -0.65631601695E+02  0.65631601695E+02  0.00000000000E+00 0.  1.
         25    1    1    2    0    0  0.57125310602E+02  0.20014993091E+03  0.24183060650E+03  0.34268110277E+03  0.12500000000E+03 0.  0.
         21    1    1    2  503  501 -0.57125310602E+02 -0.20014993091E+03  0.69705013487E+03  0.72746284199E+03  0.00000000000E+00 0. -1.
<mgrwt>
<rscale>  3 0.24279270E+03</rscale>
<asrwt>0</asrwt>
<pdfrwt beam="1">  1       21 0.15454035E+00 0.24279270E+03</pdfrwt>
<pdfrwt beam="2">  1       21 0.10097170E-01 0.24279270E+03</pdfrwt>
<totfact> 0.21361469E+04</totfact>
</mgrwt>
</event>
<event>
 4    0  0.1066273E-001  0.3021648E+03  0.7546771E-02  0.1084163E+00
         21   -1    0    0  503  501  0.00000000000E+00  0.00000000000E+00  0.60307837712E+02  0.60307837712E+02  0.00000000000E+00 0.  1.
         21   -1    0    0  501  502 -0.00000000000E+00 -0.00000000000E+00 -0.17908015294E+04  0.17908015294E+04  0.00000000000E+00 0.  1.
         25    1    1    2    0    0  0.24921287624E+03  0.11649669637E+03 -0.13387195392E+04  0.13723970062E+04  0.12500000000E+03 0.  0.
         21    1    1    2  503  502 -0.24921287624E+03 -0.11649669637E+03 -0.39177415252E+03  0.47871236096E+03  0.00000000000E+00 0.  1.
<mgrwt>
<rscale>  3 0.30216475E+03</rscale>
<asrwt>0</asrwt>
<pdfrwt beam="1">  1       21 0.92781306E-02 0.30216475E+03</pdfrwt>
<pdfrwt beam="2">  1       21 0.27550788E+00 0.30216475E+03</pdfrwt>
<totfact> 0.39667380E+03</totfact>
</mgrwt>
</event>
<event>
 4    0  0.1007982E-001  0.3368856E+03  0.7546771E-02  0.1068130E+00
         21   -1    0    0  502  501  0.00000000000E+00  0.00000000000E+00  0.84449942025E+02  0.84449942025E+02  0.00000000000E+00 0.  1.
         21   -1    0    0  503  502 -0.00000000000E+00 -0.00000000000E+00 -0.15055562079E+04  0.15055562079E+04  0.00000000000E+00 0.  1.
         25    1    1    2    0    0  0.25545303973E+03 -0.18058419340E+03 -0.10599458671E+04  0.11121947436E+04  0.12500000000E+03 0.  0.
         21    1    1    2  503  501 -0.25545303973E+03  0.18058419340E+03 -0.36116039876E+03  0.47781140636E+03  0.00000000000E+00 0.  1.
<mgrwt>
<rscale>  3 0.33688560E+03</rscale>
<asrwt>0</asrwt>
<pdfrwt beam="1">  1       21 0.12992299E-01 0.33688560E+03</pdfrwt>
<pdfrwt beam="2">  1       21 0.23162403E+00 0.33688560E+03</pdfrwt>
<totfact> 0.38948787E+03</totfact>
</mgrwt>
</event>
<event>
 4    0  0.1005289E-001  0.3055132E+03  0.7546771E-02  0.1082517E+00
         21   -1    0    0  502  501  0.00000000000E+00  0.00000000000E+00  0.17326165749E+04  0.17326165749E+04  0.00000000000E+00 0.  1.
         21   -1    0    0  503  502 -0.00000000000E+00 -0.00000000000E+00 -0.60517995485E+02  0.60517995485E+02  0.00000000000E+00 0.  1.
         25    1    1    2    0    0  0.59694902662E+02 -0.27230470240E+03  0.12535792725E+04  0.12902710276E+04  0.12500000000E+03 0.  0.
         21    1    1    2  503  501 -0.59694902662E+02  0.27230470240E+03  0.41851930693E+03  0.50286354275E+03  0.00000000000E+00 0.  1.
<mgrwt>
<rscale>  3 0.30551323E+03</rscale>
<asrwt>0</asrwt>
<pdfrwt beam="1">  1       21 0.26655636E+00 0.30551323E+03</pdfrwt>
<pdfrwt beam="2">  1       21 0.93104622E-02 0.30551323E+03</pdfrwt>
<totfact> 0.44450975E+03</totfact>
</mgrwt>
</event>
<event>
 4    0  0.1219026E-001  0.2399636E+03  0.7546771E-02  0.1119817E+00
         21   -1    0    0  502  501  0.00000000000E+00  0.00000000000E+00  0.13288994891E+04  0.13288994891E+04  0.00000000000E+00 0. -1.
         21   -1    0    0  503  502 -0.00000000000E+00 -0.00000000000E+00 -0.51040306049E+02  0.51040306049E+02  0.00000000000E+00 0. -1.
         25    1    1    2    0    0  0.20411896760E+03 -0.17116369349E+02  0.31751116925E+03  0.39798978082E+03  0.12500000000E+03 0.  0.
         21    1    1    2  503  501 -0.20411896760E+03  0.17116369349E+02  0.96034801381E+03  0.98195001434E+03  0.00000000000E+00 0. -1.
<mgrwt>
<rscale>  3 0.23996359E+03</rscale>
<asrwt>0</asrwt>
<pdfrwt beam="1">  1       21 0.20444605E+00 0.23996359E+03</pdfrwt>
<pdfrwt beam="2">  1       21 0.78523558E-02 0.23996359E+03</pdfrwt>
<totfact> 0.15054416E+04</totfact>
</mgrwt>
</event>
<event>
 4    0  0.1005289E-001  0.2767962E+03  0.7546771E-02  0.1097452E+00
         21   -1    0    0  502  501  0.00000000000E+00  0.00000000000E+00  0.74387258120E+03  0.74387258120E+03  0.00000000000E+00 0. -1.
         21   -1    0    0  503  502 -0.00000000000E+00 -0.00000000000E+00 -0.12231030102E+03  0.12231030102E+03  0.00000000000E+00 0. -1.
         25    1    1    2    0    0  0.43509207214E+02 -0.24310096585E+03  0.53876474406E+03  0.60570915476E+03  0.12500000000E+03 0.  0.
         21    1    1    2  503  501 -0.43509207214E+02  0.24310096585E+03  0.82797536109E+02  0.26047372746E+03  0.00000000000E+00 0. -1.
<mgrwt>
<rscale>  3 0.27679619E+03</rscale>
<asrwt>0</asrwt>
<pdfrwt beam="1">  1       21 0.11444193E+00 0.27679619E+03</pdfrwt>
<pdfrwt beam="2">  1       21 0.18816970E-01 0.27679619E+03</pdfrwt>
<totfact> 0.14616406E+04</totfact>
</mgrwt>
</event>
<event>
 4    0  0.1005289E-001  0.3158519E+03  0.7546771E-02  0.1077574E+00
         21   -1    0    0  502  501  0.00000000000E+00  0.00000000000E+00  0.76448983289E+02  0.76448983289E+02  0.00000000000E+00 0.  1.
         21   -1    0    0  503  502 -0.00000000000E+00 -0.00000000000E+00 -0.12147024688E+04  0.12147024688E+04  0.00000000000E+00 0. -1.
         25    1    1    2    0    0 -0.23312546181E+03 -0.17259766489E+03 -0.66259565858E+03  0.73402686711E+03  0.12500000000E+03 0.  0.
         21    1    1    2  503  501  0.23312546181E+03  0.17259766489E+03 -0.47565782698E+03  0.55712458502E+03  0.00000000000E+00 0.  1.
<mgrwt>
<rscale>  3 0.31585192E+03</rscale>
<asrwt>0</asrwt>
<pdfrwt beam="1">  1       21 0.11761382E-01 0.31585192E+03</pdfrwt>
<pdfrwt beam="2">  1       21 0.18687730E+00 0.31585192E+03</pdfrwt>
<totfact> 0.91820193E+03</totfact>
</mgrwt>
</event>
<event>
 4    0  0.1081142E-001  0.2650280E+03  0.7546771E-02  0.1104159E+00
         21   -1    0    0  502  501  0.00000000000E+00  0.00000000000E+00  0.84773190993E+03  0.84773190993E+03  0.00000000000E+00 0.  1.
         21   -1    0    0  503  502 -0.00000000000E+00 -0.00000000000E+00 -0.79264021290E+02  0.79264021290E+02  0.00000000000E+00 0.  1.
         25    1    1    2    0    0  0.94440573859E+02 -0.21376576534E+03  0.53293439709E+03  0.59519651883E+03  0.12500000000E+03 0.  0.
         21    1    1    2  503  501 -0.94440573859E+02  0.21376576534E+03  0.23553349155E+03  0.33179941239E+03  0.00000000000E+00 0.  1.
<mgrwt>
<rscale>  3 0.26502797E+03</rscale>
<asrwt>0</asrwt>
<pdfrwt beam="1">  1       21 0.13042029E+00 0.26502797E+03</pdfrwt>
<pdfrwt beam="2">  1       21 0.12194465E-01 0.26502797E+03</pdfrwt>
<totfact> 0.23483933E+04</totfact>
</mgrwt>
</event>
<event>
 4    0  0.1467324E-001  0.2704893E+03  0.7546771E-02  0.1101000E+00
         21   -1    0    0  502  501  0.00000000000E+00  0.00000000000E+00  0.89092702741E+02  0.89092702741E+02  0.00000000000E+00 0. -1.
         21   -1    0    0  503  502 -0.00000000000E+00 -0.00000000000E+00 -0.81063679682E+03  0.81063679682E+03  0.00000000000E+00 0. -1.
         25    1    1    2    0    0  0.18700047356E+02 -0.23914378947E+03 -0.52114900347E+03  0.58716328873E+03  0.12500000000E+03 0.  0.
         21    1    1    2  503  501 -0.18700047356E+02  0.23914378947E+03 -0.20039509061E+03  0.31256621083E+03  0.00000000000E+00 0. -1.
<mgrwt>
<rscale>  3 0.27048927E+03</rscale>
<asrwt>0</asrwt>
<pdfrwt beam="1">  1       21 0.13706569E-01 0.27048927E+03</pdfrwt>
<pdfrwt beam="2">  1       21 0.12471336E+00 0.27048927E+03</pdfrwt>
<totfact> 0.21231725E+04</totfact>
</mgrwt>
</event>
<event>
 4    0  0.1292528E-001  0.4091393E+03  0.7546771E-02  0.1040660E+00
         21   -1    0    0  503  501  0.00000000000E+00  0.00000000000E+00  0.12541194702E+04  0.12541194702E+04  0.00000000000E+00 0. -1.
         21   -1    0    0  501  502 -0.00000000000E+00 -0.00000000000E+00 -0.13338701649E+03  0.13338701649E+03  0.00000000000E+00 0. -1.
         25    1    1    2    0    0  0.38004319976E+03 -0.85657226959E+02  0.72317924916E+03  0.83089302598E+03  0.12500000000E+03 0.  0.
         21    1    1    2  503  502 -0.38004319976E+03  0.85657226959E+02  0.39755320459E+03  0.55661346075E+03  0.00000000000E+00 0. -1.
<mgrwt>
<rscale>  3 0.40913933E+03</rscale>
<asrwt>0</asrwt>
<pdfrwt beam="1">  1       21 0.19294145E+00 0.40913933E+03</pdfrwt>
<pdfrwt beam="2">  1       21 0.20521080E-01 0.40913933E+03</pdfrwt>
<totfact> 0.28472089E+03</totfact>
</mgrwt>
</event>
<event>
 4    0  0.1368108E-001  0.2373246E+03  0.7546771E-02  0.1121588E+00
         21   -1    0    0  502  501  0.00000000000E+00  0.00000000000E+00  0.11455778100E+03  0.11455778100E+03  0.00000000000E+00 0.  1.
         21   -1    0    0  503  502 -0.00000000000E+00 -0.00000000000E+00 -0.74631485774E+03  0.74631485774E+03  0.00000000000E+00 0.  1.
         25    1    1    2    0    0 -0.51135827354E+02  0.19514890480E+03 -0.61410126309E+03  0.65836413117E+03  0.12500000000E+03 0.  0.
         21    1    1    2  503  501  0.51135827354E+02 -0.19514890480E+03 -0.17655813648E+02  0.20250850757E+03  0.00000000000E+00 0.  1.
<mgrwt>
<rscale>  3 0.23732460E+03</rscale>
<asrwt>0</asrwt>
<pdfrwt beam="1">  1       21 0.17624274E-01 0.23732460E+03</pdfrwt>
<pdfrwt beam="2">  1       21 0.11481767E+00 0.23732460E+03</pdfrwt>
<totfact> 0.16717221E+04</totfact>
</mgrwt>
</event>
<event>
 4    0  0.1444203E-001  0.2900569E+03  0.7546771E-02  0.1090319E+00
         21   -1    0    0  502  501  0.00000000000E+00  0.00000000000E+00  0.98841367852E+02  0.98841367852E+02  0.00000000000E+00 0.  1.
         21   -1    0    0  503  502 -0.00000000000E+00 -0.00000000000E+00 -0.87148294899E+03  0.87148294899E+03  0.00000000000E+00 0.  1.
         25    1    1    2    0    0  0.25225103818E+03 -0.69838662598E+02 -0.56910583010E+03  0.63876010435E+03  0.12500000000E+03 0.  0.
         21    1    1    2  503  501 -0.25225103818E+03  0.69838662598E+02 -0.20353575104E+03  0.33156421249E+03  0.00000000000E+00 0.  1.
<mgrwt>
<rscale>  3 0.29005693E+03</rscale>
<asrwt>0</asrwt>
<pdfrwt beam="1">  1       21 0.15206365E-01 0.29005693E+03</pdfrwt>
<pdfrwt beam="2">  1       21 0.13407430E+00 0.29005693E+03</pdfrwt>
<totfact> 0.14459787E+04</totfact>
</mgrwt>
</event>
<event>
 4    0  0.1005289E-001  0.2583434E+03  0.7546771E-02  0.1108143E+00
         21   -1    0    0  503  501  0.00000000000E+00  0.00000000000E+00  0.17385624814E+03  0.17385624814E+03  0.00000000000E+00 0.  1.
         21   -1    0    0  501  502 -0.00000000000E+00 -0.00000000000E+00 -0.36840138514E+03  0.36840138514E+03  0.00000000000E+00 0. -1.
         25    1    1    2    0    0 -0.19714276272E+03 -0.11068442710E+03 -0.18162632904E+03  0.31579967494E+03  0.12500000000E+03 0.  0.
         21    1    1    2  503  502  0.19714276272E+03  0.11068442710E+03 -0.12918807958E+02  0.22645795834E+03  0.00000000000E+00 0.  1.
<mgrwt>
<rscale>  3 0.25834340E+03</rscale>
<asrwt>0</asrwt>
<pdfrwt beam="1">  1       21 0.26747115E-01 0.25834340E+03</pdfrwt>
<pdfrwt beam="2">  1       21 0.56677136E-01 0.25834340E+03</pdfrwt>
<totfact> 0.37768602E+04</totfact>
</mgrwt>
</event>
<event>
 4    0  0.1195886E-001  0.2376991E+03  0.7546771E-02  0.1121335E+00
         21   -1    0    0  503  501  0.00000000000E+00  0.00000000000E+00  0.14938784710E+03  0.14938784710E+03  0.00000000000E+00 0.  1.
         21   -1    0    0  501  502 -0.00000000000E+00 -0.00000000000E+00 -0.90197919302E+03  0.90197919302E+03  0.00000000000E+00 0.  1.
         25    1    1    2    0    0  0.15845736193E+03 -0.12556723634E+03 -0.80758784908E+03  0.84184262209E+03  0.12500000000E+03 0.  0.
         21    1    1    2  503  502 -0.15845736193E+03  0.12556723634E+03  0.54996503157E+02  0.20952441803E+03  0.00000000000E+00 0.  1.
<mgrwt>
<rscale>  3 0.23769911E+03</rscale>
<asrwt>0</asrwt>
<pdfrwt beam="1">  1       21 0.22982745E-01 0.23769911E+03</pdfrwt>
<pdfrwt beam="2">  1       21 0.13876603E+00 0.23769911E+03</pdfrwt>
<totfact> 0.62933427E+03</totfact>
</mgrwt>
</event>
<event>
 4    0  0.1287819E-001  0.2562750E+03  0.7546771E-02  0.1109402E+00
         21   -1    0    0  502  501  0.00000000000E+00  0.00000000000E+00  0.11467012061E+04  0.11467012061E+04  0.00000000000E+00 0.  1.
         21   -1    0    0  503  502 -0.00000000000E+00 -0.00000000000E+00 -0.59405309598E+02  0.59405309598E+02  0.00000000000E+00 0.  1.
         25    1    1    2    0    0 -0.20110562292E+03  0.98022386282E+02  0.33828843991E+03  0.42440066961E+03  0.12500000000E+03 0.  0.
         21    1    1    2  503  501  0.20110562292E+03 -0.98022386282E+02  0.74900745655E+03  0.78170584605E+03  0.00000000000E+00 0.  1.
<mgrwt>
<rscale>  3 0.25627497E+03</rscale>
<asrwt>0</asrwt>
<pdfrwt beam="1">  1       21 0.17641555E+00 0.25627497E+03</pdfrwt>
<pdfrwt beam="2">  1       21 0.91392793E-02 0.25627497E+03</pdfrwt>
<totfact> 0.17563638E+04</totfact>
</mgrwt>
</event>
<event>
 4    0  0.1015266E-001  0.3188969E+03  0.7546771E-02  0.1076158E+00
         21   -1    0    0  503  501  0.00000000000E+00  0.00000000000E+00  0.19190712401E+04  0.19190712401E+04  0.00000000000E+00 0.  1.
         21   -1    0    0  501  502 -0.00000000000E+00 -0.00000000000E+00 -0.81224967412E+02  0.81224967412E+02  0.00000000000E+00 0. -1.
         25    1    1    2    0    0  0.19463919328E+03  0.21951264685E+03  0.31071684427E+03  0.44524170402E+03  0.12500000000E+03 0.  0.
         21    1    1    2  503  502 -0.19463919328E+03 -0.21951264685E+03  0.15271294285E+04  0.15550545035E+04  0.00000000000E+00 0.  1.
<mgrwt>
<rscale>  3 0.31889688E+03</rscale>
<asrwt>0</asrwt>
<pdfrwt beam="1">  1       21 0.29524170E+00 0.31889688E+03</pdfrwt>
<pdfrwt beam="2">  1       21 0.12496150E-01 0.31889688E+03</pdfrwt>
<totfact> 0.17553362E+03</totfact>
</mgrwt>
</event>
<event>
 4    0  0.1257689E-001  0.2642355E+03  0.7546771E-02  0.1104625E+00
         21   -1    0    0  502  501  0.00000000000E+00  0.00000000000E+00  0.10340768662E+04  0.10340768662E+04  0.00000000000E+00 0.  1.
         21   -1    0    0  503  502 -0.00000000000E+00 -0.00000000000E+00 -0.77998081631E+02  0.77998081631E+02  0.00000000000E+00 0.  1.
         25    1    1    2    0    0  0.18194547644E+03 -0.14522823231E+03  0.23247439151E+03  0.35194422650E+03  0.12500000000E+03 0.  0.
         21    1    1    2  503  501 -0.18194547644E+03  0.14522823231E+03  0.72360439303E+03  0.76013072131E+03  0.00000000000E+00 0.  1.
<mgrwt>
<rscale>  3 0.26423549E+03</rscale>
<asrwt>0</asrwt>
<pdfrwt beam="1">  1       21 0.15908874E+00 0.26423549E+03</pdfrwt>
<pdfrwt beam="2">  1       21 0.11999706E-01 0.26423549E+03</pdfrwt>
<totfact> 0.14330216E+04</totfact>
</mgrwt>
</event>
<event>
 4    0  0.1005289E-001  0.2517364E+03  0.7546771E-02  0.1112212E+00
         21   -1    0    0  502  501  0.00000000000E+00  0.00000000000E+00  0.59982226097E+02  0.59982226097E+02  0.00000000000E+00 0.  1.
         21   -1    0    0  503  502 -0.00000000000E+00 -0.00000000000E+00 -0.34906020373E+04  0.34906020373E+04  0.00000000000E+00 0. -1.
         25    1    1    2    0    0 -0.77024893206E+02 -0.20448324054E+03 -0.32692995428E+04  0.32789770860E+04  0.12500000000E+03 0.  0.
         21    1    1    2  503  501  0.77024893206E+02  0.20448324054E+03 -0.16132026845E+03  0.27160717746E+03  0.00000000000E+00 0.  1.
<mgrwt>
<rscale>  3 0.25173643E+03</rscale>
<asrwt>0</asrwt>
<pdfrwt beam="1">  1       21 0.92280325E-02 0.25173643E+03</pdfrwt>
<pdfrwt beam="2">  1       21 0.53701583E+00 0.25173643E+03</pdfrwt>
<totfact> 0.87158653E+01</totfact>
</mgrwt>
</event>
<event>
 4    0  0.1195297E-001  0.2759052E+03  0.7546771E-02  0.1097947E+00
         21   -1    0    0  503  501  0.00000000000E+00  0.00000000000E+00  0.58258383037E+03  0.58258383037E+03  0.00000000000E+00 0.  1.
         21   -1    0    0  501  502 -0.00000000000E+00 -0.00000000000E+00 -0.17779010976E+03  0.17779010976E+03  0.00000000000E+00 0. -1.
         25    1    1    2    0    0 -0.47856785418E+02 -0.24126417456E+03 -0.12275693809E+02  0.27617814268E+03  0.12500000000E+03 0.  0.
         21    1    1    2  503  502  0.47856785418E+02  0.24126417456E+03  0.41706941442E+03  0.48419579746E+03  0.00000000000E+00 0.  1.
<mgrwt>
<rscale>  3 0.27590519E+03</rscale>
<asrwt>0</asrwt>
<pdfrwt beam="1">  1       21 0.89628281E-01 0.27590519E+03</pdfrwt>
<pdfrwt beam="2">  1       21 0.27352325E-01 0.27590519E+03</pdfrwt>
<totfact> 0.12890735E+04</totfact>
</mgrwt>
</event>
<event>
 4    0  0.1069704E-001  0.2625003E+03  0.7546771E-02  0.1105650E+00
         21   -1    0    0  503  501  0.00000000000E+00  0.00000000000E+00  0.34257130355E+03  0.34257130355E+03  0.00000000000E+00 0. -1.
         21   -1    0    0  501  502 -0.00000000000E+00 -0.00000000000E+00 -0.70486135532E+03  0.70486135532E+03  0.00000000000E+00 0. -1.
         25    1    1    2    0    0 -0.22515823699E+03  0.50844474423E+02 -0.63679438785E+03  0.68877680322E+03  0.12500000000E+03 0.  0.
         21    1    1    2  503  502  0.22515823699E+03 -0.50844474423E+02  0.27450433608E+03  0.35865585564E+03  0.00000000000E+00 0. -1.
<mgrwt>
<rscale>  3 0.26250027E+03</rscale>
<asrwt>0</asrwt>
<pdfrwt beam="1">  1       21 0.52703278E-01 0.26250027E+03</pdfrwt>
<pdfrwt beam="2">  1       21 0.10844021E+00 0.26250027E+03</pdfrwt>
<totfact> 0.21835141E+03</totfact>
</mgrwt>
</event>
<event>
 4    0  0.1024364E-001  0.3670311E+03  0.7546771E-02  0.1055834E+00
         21   -1    0    0  503  501  0.00000000000E+00  0.00000000000E+00  0.13575279302E+03  0.13575279302E+03  0.00000000000E+00 0.  1.
         21   -1    0    0  501  502 -0.00000000000E+00 -0.00000000000E+00 -0.14714170818E+04  0.14714170818E+04  0.00000000000E+00 0.  1.
         25    1    1    2    0    0 -0.34317413119E+03  0.36309481799E+02 -0.11664385089E+04  0.12228207792E+04  0.12500000000E+03 0.  0.
         21    1    1    2  503  502  0.34317413119E+03 -0.36309481799E+02 -0.16922577986E+03  0.38434909569E+03  0.00000000000E+00 0.  1.
<mgrwt>
<rscale>  3 0.36703115E+03</rscale>
<asrwt>0</asrwt>
<pdfrwt beam="1">  1       21 0.20885046E-01 0.36703115E+03</pdfrwt>
<pdfrwt beam="2">  1       21 0.22637185E+00 0.36703115E+03</pdfrwt>
<totfact> 0.17065438E+03</totfact>
</mgrwt>
</event>
<event>
 4    0  0.1390028E-001  0.2385380E+03  0.7546771E-02  0.1120771E+00
         21   -1    0    0  502  501  0.00000000000E+00  0.00000000000E+00  0.30045411937E+03  0.30045411937E+03  0.00000000000E+00 0.  1.
         21   -1    0    0  503  502 -0.00000000000E+00 -0.00000000000E+00 -0.39815622493E+03  0.39815622493E+03  0.00000000000E+00 0.  1.
         25    1    1    2    0    0 -0.20446469614E+02 -0.20213193419E+03 -0.31891795510E+03  0.39825750341E+03  0.12500000000E+03 0.  0.
         21    1    1    2  503  501  0.20446469614E+02  0.20213193419E+03  0.22121584954E+03  0.30035284089E+03  0.00000000000E+00 0.  1.
<mgrwt>
<rscale>  3 0.23853800E+03</rscale>
<asrwt>0</asrwt>
<pdfrwt beam="1">  1       21 0.46223710E-01 0.23853800E+03</pdfrwt>
<pdfrwt beam="2">  1       21 0.61254804E-01 0.23853800E+03</pdfrwt>
<totfact> 0.10796280E+04</totfact>
</mgrwt>
</event>
<event>
 4    0  0.1021997E-001  0.2401740E+03  0.7546771E-02  0.1119677E+00
         21   -1    0    0  502  501  0.00000000000E+00  0.00000000000E+00  0.13020508692E+04  0.13020508692E+04  0.00000000000E+00 0. -1.
         21   -1    0    0  503  502 -0.00000000000E+00 -0.00000000000E+00 -0.88607867652E+02  0.88607867652E+02  0.00000000000E+00 0. -1.
         25    1    1    2    0    0 -0.14667540555E+03 -0.14333490752E+03  0.10281628239E+03  0.26125611616E+03  0.12500000000E+03 0.  0.
         21    1    1    2  503  501  0.14667540555E+03  0.14333490752E+03  0.11106267191E+04  0.11294026206E+04  0.00000000000E+00 0. -1.
<mgrwt>
<rscale>  3 0.24017404E+03</rscale>
<asrwt>0</asrwt>
<pdfrwt beam="1">  1       21 0.20031550E+00 0.24017404E+03</pdfrwt>
<pdfrwt beam="2">  1       21 0.13631981E-01 0.24017404E+03</pdfrwt>
<totfact> 0.59947579E+03</totfact>
</mgrwt>
</event>
<event>
 4    0  0.1160287E-001  0.2498690E+03  0.7546771E-02  0.1113388E+00
         21   -1    0    0  503  501  0.00000000000E+00  0.00000000000E+00  0.12518526619E+03  0.12518526619E+03  0.00000000000E+00 0. -1.
         21   -1    0    0  501  502 -0.00000000000E+00 -0.00000000000E+00 -0.96367836974E+03  0.96367836974E+03  0.00000000000E+00 0. -1.
         25    1    1    2    0    0 -0.84603904451E+02  0.19912733660E+03 -0.83594890755E+03  0.87249360620E+03  0.12500000000E+03 0.  0.
         21    1    1    2  503  502  0.84603904451E+02 -0.19912733660E+03 -0.25441960031E+01  0.21637002973E+03  0.00000000000E+00 0. -1.
<mgrwt>
<rscale>  3 0.24986900E+03</rscale>
<asrwt>0</asrwt>
<pdfrwt beam="1">  1       21 0.19259272E-01 0.24986900E+03</pdfrwt>
<pdfrwt beam="2">  1       21 0.14825821E+00 0.24986900E+03</pdfrwt>
<totfact> 0.73276073E+03</totfact>
</mgrwt>
</event>
<event>
 4    0  0.1005289E-001  0.2444800E+03  0.7546771E-02  0.1116844E+00
         21   -1    0    0  502  501  0.00000000000E+00  0.00000000000E+00  0.44612917319E+02  0.44612917319E+02  0.00000000000E+00 0. -1.
         21   -1    0    0  503  502 -0.00000000000E+00 -0.00000000000E+00 -0.15166977550E+04  0.15166977550E+04  0.00000000000E+00 0.  1.
         25    1    1    2    0    0  0.39182491901E+02 -0.20642234709E+03 -0.11573365143E+04  0.11828771113E+04  0.12500000000E+03 0.  0.
         21    1    1    2  503  501 -0.39182491901E+02  0.20642234709E+03 -0.31474832334E+03  0.37843356101E+03  0.00000000000E+00 0. -1.
<mgrwt>
<rscale>  3 0.24447996E+03</rscale>
<asrwt>0</asrwt>
<pdfrwt beam="1">  1       21 0.68635251E-02 0.24447996E+03</pdfrwt>
<pdfrwt beam="2">  1       21 0.23333814E+00 0.24447996E+03</pdfrwt>
<totfact> 0.12533053E+04</totfact>
</mgrwt>
</event>
<event>
 4    0  0.1005289E-001  0.2876673E+03  0.7546771E-02  0.1091573E+00
         21   -1    0    0  503  501  0.00000000000E+00  0.00000000000E+00  0.99639880852E+03  0.99639880852E+03  0.00000000000E+00 0.  1.
         21   -1    0    0  501  502 -0.00000000000E+00 -0.00000000000E+00 -0.23871828361E+03  0.23871828361E+03  0.00000000000E+00 0.  1.
         25    1    1    2    0    0  0.18162389579E+03  0.18477079364E+03 -0.12613668555E+03  0.31410658883E+03  0.12500000000E+03 0.  0.
         21    1    1    2  503  502 -0.18162389579E+03 -0.18477079364E+03  0.88381721046E+03  0.92101050331E+03  0.00000000000E+00 0.  1.
<mgrwt>
<rscale>  3 0.28766732E+03</rscale>
<asrwt>0</asrwt>
<pdfrwt beam="1">  1       21 0.15329212E+00 0.28766732E+03</pdfrwt>
<pdfrwt beam="2">  1       21 0.36725890E-01 0.28766732E+03</pdfrwt>
<totfact> 0.18702619E+03</totfact>
</mgrwt>
</event>
<event>
 4    0  0.1391589E-001  0.2779437E+03  0.7546771E-02  0.1096817E+00
         21   -1    0    0  502  501  0.00000000000E+00  0.00000000000E+00  0.11337650696E+03  0.11337650696E+03  0.00000000000E+00 0.  1.
         21   -1    0    0  503  502 -0.00000000000E+00 -0.00000000000E+00 -0.61298128389E+03  0.61298128389E+03  0.00000000000E+00 0.  1.
         25    1    1    2    0    0  0.21635226417E+03 -0.12173493402E+03 -0.28677309549E+03  0.39936387501E+03  0.12500000000E+03 0.  0.
         21    1    1    2  503  501 -0.21635226417E+03  0.12173493402E+03 -0.21283168144E+03  0.32699391584E+03  0.00000000000E+00 0.  1.
<mgrwt>
<rscale>  3 0.27794369E+03</rscale>
<asrwt>0</asrwt>
<pdfrwt beam="1">  1       21 0.17442540E-01 0.27794369E+03</pdfrwt>
<pdfrwt beam="2">  1       21 0.94304812E-01 0.27794369E+03</pdfrwt>
<totfact> 0.26870710E+04</totfact>
</mgrwt>
</event>
<event>
 4    0  0.1895155E-001  0.3068458E+03  0.7546771E-02  0.1081868E+00
         21   -1    0    0  502  501  0.00000000000E+00  0.00000000000E+00  0.52866047624E+03  0.52866047624E+03  0.00000000000E+00 0.  1.
         21   -1    0    0  503  502 -0.00000000000E+00 -0.00000000000E+00 -0.47522697066E+03  0.47522697066E+03  0.00000000000E+00 0. -1.
         25    1    1    2    0    0 -0.11104683607E+03  0.25728961598E+03 -0.37958796756E+03  0.48809975560E+03  0.12500000000E+03 0.  0.
         21    1    1    2  503  501  0.11104683607E+03 -0.25728961598E+03  0.43302147315E+03  0.51578769130E+03  0.00000000000E+00 0.  1.
<mgrwt>
<rscale>  3 0.30684580E+03</rscale>
<asrwt>0</asrwt>
<pdfrwt beam="1">  1       21 0.81332381E-01 0.30684580E+03</pdfrwt>
<pdfrwt beam="2">  1       21 0.73111842E-01 0.30684580E+03</pdfrwt>
<totfact> 0.20542388E+03</totfact>
</mgrwt>
</event>
<event>
 4    0  0.1117741E-001  0.4732154E+03  0.7546771E-02  0.1021017E+00
         21   -1    0    0  502  501  0.00000000000E+00  0.00000000000E+00  0.12552946278E+04  0.12552946278E+04  0.00000000000E+00 0.  1.
         21   -1    0    0  503  502 -0.00000000000E+00 -0.00000000000E+00 -0.25983982422E+03  0.25983982422E+03  0.00000000000E+00 0.  1.
         25    1    1    2    0    0 -0.10085226456E+03  0.44512538389E+03  0.63545801675E+02  0.47746293632E+03  0.12500000000E+03 0.  0.
         21    1    1    2  503  501  0.10085226456E+03 -0.44512538389E+03  0.93190900191E+03  0.10376715157E+04  0.00000000000E+00 0.  1.
<mgrwt>
<rscale>  3 0.47321537E+03</rscale>
<asrwt>0</asrwt>
<pdfrwt beam="1">  1       21 0.19312225E+00 0.47321537E+03</pdfrwt>
<pdfrwt beam="2">  1       21 0.39975358E-01 0.47321537E+03</pdfrwt>
<totfact> 0.73811141E+02</totfact>
</mgrwt>
</event>
<event>
 4    0  0.1133226E-001  0.3306233E+03  0.7546771E-02  0.1070861E+00
         21   -1    0    0  503  501  0.00000000000E+00  0.00000000000E+00  0.31751524385E+03  0.31751524385E+03  0.00000000000E+00 0. -1.
         21   -1    0    0  501  502 -0.00000000000E+00 -0.00000000000E+00 -0.48259718887E+03  0.48259718887E+03  0.00000000000E+00 0.  1.
         25    1    1    2    0    0  0.17388217713E+03 -0.25189635461E+03 -0.31731836321E+03  0.45826054665E+03  0.12500000000E+03 0.  0.
         21    1    1    2  503  502 -0.17388217713E+03  0.25189635461E+03  0.15223641819E+03  0.34185188607E+03  0.00000000000E+00 0. -1.
<mgrwt>
<rscale>  3 0.33062333E+03</rscale>
<asrwt>0</asrwt>
<pdfrwt beam="1">  1       21 0.48848499E-01 0.33062333E+03</pdfrwt>
<pdfrwt beam="2">  1       21 0.74245721E-01 0.33062333E+03</pdfrwt>
<totfact> 0.60026882E+03</totfact>
</mgrwt>
</event>
<event>
 4    0  0.1582690E-001  0.2619770E+03  0.7546771E-02  0.1105961E+00
         21   -1    0    0  502  501  0.00000000000E+00  0.00000000000E+00  0.28549465280E+03  0.28549465280E+03  0.00000000000E+00 0.  1.
         21   -1    0    0  503  502 -0.00000000000E+00 -0.00000000000E+00 -0.25601916729E+03  0.25601916729E+03  0.00000000000E+00 0.  1.
         25    1    1    2    0    0 -0.13662376286E+03  0.18531299083E+03 -0.96360720140E+02  0.27913678642E+03  0.12500000000E+03 0.  0.
         21    1    1    2  503  501  0.13662376286E+03 -0.18531299083E+03  0.12583620566E+03  0.26237703367E+03  0.00000000000E+00 0.  1.
<mgrwt>
<rscale>  3 0.26197702E+03</rscale>
<asrwt>0</asrwt>
<pdfrwt beam="1">  1       21 0.43922254E-01 0.26197702E+03</pdfrwt>
<pdfrwt beam="2">  1       21 0.39387564E-01 0.26197702E+03</pdfrwt>
<totfact> 0.29918083E+04</totfact>
</mgrwt>
</event>
<event>
 4    0  0.1459199E-001  0.2922037E+03  0.7546771E-02  0.1089204E+00
         21   -1    0    0  503  501  0.00000000000E+00  0.00000000000E+00  0.91660698860E+03  0.91660698860E+03  0.00000000000E+00 0.  1.
         21   -1    0    0  501  502 -0.00000000000E+00 -0.00000000000E+00 -0.93884672797E+02  0.93884672797E+02  0.00000000000E+00 0.  1.
         25    1    1    2    0    0  0.26411149275E+03  0.17703695024E+01  0.26973635649E+03  0.39766910469E+03  0.12500000000E+03 0.  0.
         21    1    1    2  503  502 -0.26411149275E+03 -0.17703695024E+01  0.55298595932E+03  0.61282255671E+03  0.00000000000E+00 0.  1.
<mgrwt>
<rscale>  3 0.29220372E+03</rscale>
<asrwt>0</asrwt>
<pdfrwt beam="1">  1       21 0.14101645E+00 0.29220372E+03</pdfrwt>
<pdfrwt beam="2">  1       21 0.14443796E-01 0.29220372E+03</pdfrwt>
<totfact> 0.13920776E+04</totfact>
</mgrwt>
</event>
<event>
 4    0  0.1242811E-001  0.2597230E+03  0.7546771E-02  0.1107310E+00
         21   -1    0    0  503  501  0.00000000000E+00  0.00000000000E+00  0.11884627014E+03  0.11884627014E+03  0.00000000000E+00 0.  1.
         21   -1    0    0  501  502 -0.00000000000E+00 -0.00000000000E+00 -0.85596073017E+03  0.85596073017E+03  0.00000000000E+00 0.  1.
         25    1    1    2    0    0 -0.11866928928E+03  0.19429011029E+03 -0.69676109427E+03  0.74359402208E+03  0.12500000000E+03 0.  0.
         21    1    1    2  503  502  0.11866928928E+03 -0.19429011029E+03 -0.40353365761E+02  0.23121297823E+03  0.00000000000E+00 0.  1.
<mgrwt>
<rscale>  3 0.25972302E+03</rscale>
<asrwt>0</asrwt>
<pdfrwt beam="1">  1       21 0.18284042E-01 0.25972302E+03</pdfrwt>
<pdfrwt beam="2">  1       21 0.13168627E+00 0.25972302E+03</pdfrwt>
<totfact> 0.10931977E+04</totfact>
</mgrwt>
</event>
<event>
 4    0  0.1321514E-001  0.2723573E+03  0.7546771E-02  0.1099938E+00
         21   -1    0    0  503  501  0.00000000000E+00  0.00000000000E+00  0.36767213112E+03  0.36767213112E+03  0.00000000000E+00 0. -1.
         21   -1    0    0  501  502 -0.00000000000E+00 -0.00000000000E+00 -0.40004002337E+03  0.40004002337E+03  0.00000000000E+00 0. -1.
         25    1    1    2    0    0  0.14647257665E+02  0.24153454189E+03 -0.30115770431E+03  0.40604733708E+03  0.12500000000E+03 0.  0.
         21    1    1    2  503  502 -0.14647257665E+02 -0.24153454189E+03  0.26878981206E+03  0.36166481741E+03  0.00000000000E+00 0. -1.
<mgrwt>
<rscale>  3 0.27235726E+03</rscale>
<asrwt>0</asrwt>
<pdfrwt beam="1">  1       21 0.56564943E-01 0.27235726E+03</pdfrwt>
<pdfrwt beam="2">  1       21 0.61544619E-01 0.27235726E+03</pdfrwt>
<totfact> 0.68546181E+03</totfact>
</mgrwt>
</event>
<event>
 4    0  0.1142994E-001  0.3843951E+03  0.7546771E-02  0.1049321E+00
         21   -1    0    0  503  501  0.00000000000E+00  0.00000000000E+00  0.17991994835E+03  0.17991994835E+03  0.00000000000E+00 0. -1.
         21   -1    0    0  501  502 -0.00000000000E+00 -0.00000000000E+00 -0.99985927832E+03  0.99985927832E+03  0.00000000000E+00 0. -1.
         25    1    1    2    0    0  0.27540504201E+03 -0.23724813719E+03 -0.69714224937E+03  0.79609480065E+03  0.12500000000E+03 0.  0.
         21    1    1    2  503  502 -0.27540504201E+03  0.23724813719E+03 -0.12279708059E+03  0.38368442602E+03  0.00000000000E+00 0. -1.
<mgrwt>
<rscale>  3 0.38439513E+03</rscale>
<asrwt>0</asrwt>
<pdfrwt beam="1">  1       21 0.27679992E-01 0.38439513E+03</pdfrwt>
<pdfrwt beam="2">  1       21 0.15382450E+00 0.38439513E+03</pdfrwt>
<totfact> 0.30859571E+03</totfact>
</mgrwt>
</event>
<event>
 4    0  0.1231614E-001  0.2427556E+03  0.7546771E-02  0.1117971E+00
         21   -1    0    0  502  501  0.00000000000E+00  0.00000000000E+00  0.30744502612E+03  0.30744502612E+03  0.00000000000E+00 0.  1.
         21   -1    0    0  503  502 -0.00000000000E+00 -0.00000000000E+00 -0.34080754916E+03  0.34080754916E+03  0.00000000000E+00 0.  1.
         25    1    1    2    0    0  0.64961716270E+02  0.19769991943E+03 -0.24957524806E+03  0.34816387976E+03  0.12500000000E+03 0.  0.
         21    1    1    2  503  501 -0.64961716270E+02 -0.19769991943E+03  0.21621272502E+03  0.30008869553E+03  0.00000000000E+00 0.  1.
<mgrwt>
<rscale>  3 0.24275560E+03</rscale>
<asrwt>0</asrwt>
<pdfrwt beam="1">  1       21 0.47299235E-01 0.24275560E+03</pdfrwt>
<pdfrwt beam="2">  1       21 0.52431930E-01 0.24275560E+03</pdfrwt>
<totfact> 0.14321564E+04</totfact>
</mgrwt>
</event>
<event>
 4    0  0.1005289E-001  0.3138674E+03  0.7546771E-02  0.1078507E+00
         21   -1    0    0  503  501  0.00000000000E+00  0.00000000000E+00  0.40524084710E+03  0.40524084710E+03  0.00000000000E+00 0.  1.
         21   -1    0    0  501  502 -0.00000000000E+00 -0.00000000000E+00 -0.19811657056E+04  0.19811657056E+04  0.00000000000E+00 0.  1.
         25    1    1    2    0    0 -0.27166233667E+03  0.95327318806E+02 -0.19155953286E+04  0.19411383737E+04  0.12500000000E+03 0.  0.
         21    1    1    2  503  502  0.27166233667E+03 -0.95327318806E+02  0.33967047016E+03  0.44526817894E+03  0.00000000000E+00 0.  1.
<mgrwt>
<rscale>  3 0.31386737E+03</rscale>
<asrwt>0</asrwt>
<pdfrwt beam="1">  1       21 0.62344745E-01 0.31386737E+03</pdfrwt>
<pdfrwt beam="2">  1       21 0.30479473E+00 0.31386737E+03</pdfrwt>
<totfact> 0.65245290E+01</totfact>
</mgrwt>
</event>
<event>
 4    0  0.1400357E-001  0.2381988E+03  0.7546771E-02  0.1120999E+00
         21   -1    0    0  503  501  0.00000000000E+00  0.00000000000E+00  0.63693124537E+02  0.63693124537E+02  0.00000000000E+00 0.  1.
         21   -1    0    0  501  502 -0.00000000000E+00 -0.00000000000E+00 -0.89878819717E+03  0.89878819717E+03  0.00000000000E+00 0.  1.
         25    1    1    2    0    0 -0.33186604254E+02  0.20003083238E+03 -0.63242273050E+03  0.67579375157E+03  0.12500000000E+03 0.  0.
         21    1    1    2  503  502  0.33186604254E+02 -0.20003083238E+03 -0.20267234213E+03  0.28668757014E+03  0.00000000000E+00 0.  1.
<mgrwt>
<rscale>  3 0.23819883E+03</rscale>
<asrwt>0</asrwt>
<pdfrwt beam="1">  1       21 0.97989427E-02 0.23819883E+03</pdfrwt>
<pdfrwt beam="2">  1       21 0.13827510E+00 0.23819883E+03</pdfrwt>
<totfact> 0.30278637E+04</totfact>
</mgrwt>
</event>
<event>
 4    0  0.1207586E-001  0.2435112E+03  0.7546771E-02  0.1117476E+00
         21   -1    0    0  503  501  0.00000000000E+00  0.00000000000E+00  0.85234305698E+03  0.85234305698E+03  0.00000000000E+00 0. -1.
         21   -1    0    0  501  502 -0.00000000000E+00 -0.00000000000E+00 -0.12382865182E+03  0.12382865182E+03  0.00000000000E+00 0.  1.
         25    1    1    2    0    0 -0.13267289931E+03  0.16146388555E+03  0.27959619144E+02  0.24511104596E+03  0.12500000000E+03 0.  0.
         21    1    1    2  503  502  0.13267289931E+03 -0.16146388555E+03  0.70055478601E+03  0.73106066284E+03  0.00000000000E+00 0. -1.
<mgrwt>
<rscale>  3 0.24351116E+03</rscale>
<asrwt>0</asrwt>
<pdfrwt beam="1">  1       21 0.13112970E+00 0.24351116E+03</pdfrwt>
<pdfrwt beam="2">  1       21 0.19050562E-01 0.24351116E+03</pdfrwt>
<totfact> 0.10330686E+04</totfact>
</mgrwt>
</event>
<event>
 4    0  0.1690157E-001  0.2558931E+03  0.7546771E-02  0.1109636E+00
         21   -1    0    0  503  501  0.00000000000E+00  0.00000000000E+00  0.22351803386E+03  0.22351803386E+03  0.00000000000E+00 0. -1.
         21   -1    0    0  501  502 -0.00000000000E+00 -0.00000000000E+00 -0.26237130703E+03  0.26237130703E+03  0.00000000000E+00 0. -1.
         25    1    1    2    0    0 -0.21235060026E+03 -0.69018074419E+02 -0.55992306536E+02  0.26194734283E+03  0.12500000000E+03 0.  0.
         21    1    1    2  503  502  0.21235060026E+03  0.69018074419E+02  0.17139033362E+02  0.22394199805E+03  0.00000000000E+00 0. -1.
<mgrwt>
<rscale>  3 0.25589309E+03</rscale>
<asrwt>0</asrwt>
<pdfrwt beam="1">  1       21 0.34387390E-01 0.25589309E+03</pdfrwt>
<pdfrwt beam="2">  1       21 0.40364816E-01 0.25589309E+03</pdfrwt>
<totfact> 0.46859408E+04</totfact>
</mgrwt>
</event>
<event>
 4    0  0.1005289E-001  0.2959864E+03  0.7546771E-02  0.1087264E+00
         21   -1    0    0  502  501  0.00000000000E+00  0.00000000000E+00  0.63090156861E+03  0.63090156861E+03  0.00000000000E+00 0. -1.
         21   -1    0    0  503  502 -0.00000000000E+00 -0.00000000000E+00 -0.11412829663E+04  0.11412829663E+04  0.00000000000E+00 0. -1.
         25    1    1    2    0    0  0.21255967001E+03  0.16371113231E+03 -0.10921409401E+04  0.11315386786E+04  0.12500000000E+03 0.  0.
         21    1    1    2  503  501 -0.21255967001E+03 -0.16371113231E+03  0.58175954235E+03  0.64064585636E+03  0.00000000000E+00 0. -1.
<mgrwt>
<rscale>  3 0.29598640E+03</rscale>
<asrwt>0</asrwt>
<pdfrwt beam="1">  1       21 0.97061781E-01 0.29598640E+03</pdfrwt>
<pdfrwt beam="2">  1       21 0.17558199E+00 0.29598640E+03</pdfrwt>
<totfact> 0.15380276E+02</totfact>
</mgrwt>
</event>
<event>
 4    0  0.1454768E-001  0.3482119E+03  0.7546771E-02  0.1063351E+00
         21   -1    0    0  503  501  0.00000000000E+00  0.00000000000E+00  0.18527256411E+03  0.18527256411E+03  0.00000000000E+00 0.  1.
         21   -1    0    0  501  502 -0.00000000000E+00 -0.00000000000E+00 -0.65317077586E+03  0.65317077586E+03  0.00000000000E+00 0.  1.
         25    1    1    2    0    0 -0.23406139914E+03 -0.22548124533E+03 -0.34725986276E+03  0.49177326365E+03  0.12500000000E+03 0.  0.
         21    1    1    2  503  502  0.23406139914E+03  0.22548124533E+03 -0.12063834899E+03  0.34667007631E+03  0.00000000000E+00 0.  1.
<mgrwt>
<rscale>  3 0.34821190E+03</rscale>
<asrwt>0</asrwt>
<pdfrwt beam="1">  1       21 0.28503472E-01 0.34821190E+03</pdfrwt>
<pdfrwt beam="2">  1       21 0.10048781E+00 0.34821190E+03</pdfrwt>
<totfact> 0.87820565E+03</totfact>
</mgrwt>
</event>
<event>
 4    0  0.1266072E-001  0.2536200E+03  0.7546771E-02  0.1111038E+00
         21   -1    0    0  503  501  0.00000000000E+00  0.00000000000E+00  0.12147663755E+04  0.12147663755E+04  0.00000000000E+00 0.  1.
         21   -1    0    0  501  502 -0.00000000000E+00 -0.00000000000E+00 -0.59646475391E+02  0.59646475391E+02  0.00000000000E+00 0.  1.
         25    1    1    2    0    0 -0.21412708846E+03 -0.53363987716E+02  0.30780212116E+03  0.39882987725E+03  0.12500000000E+03 0.  0.
         21    1    1    2  503  502  0.21412708846E+03  0.53363987716E+02  0.84731777893E+03  0.87558297362E+03  0.00000000000E+00 0.  1.
<mgrwt>
<rscale>  3 0.25362004E+03</rscale>
<asrwt>0</asrwt>
<pdfrwt beam="1">  1       21 0.18688712E+00 0.25362004E+03</pdfrwt>
<pdfrwt beam="2">  1       21 0.91763817E-02 0.25362004E+03</pdfrwt>
<totfact> 0.14805305E+04</totfact>
</mgrwt>
</event>
<event>
 4    0  0.1005289E-001  0.2953499E+03  0.7546771E-02  0.1087589E+00
         21   -1    0    0  502  501  0.00000000000E+00  0.00000000000E+00  0.29007170502E+03  0.29007170502E+03  0.00000000000E+00 0. -1.
         21   -1    0    0  503  502 -0.00000000000E+00 -0.00000000000E+00 -0.14215996601E+04  0.14215996601E+04  0.00000000000E+00 0. -1.
         25    1    1    2    0    0 -0.14846782290E+03 -0.22262940840E+03 -0.13401839970E+04  0.13723427756E+04  0.12500000000E+03 0.  0.
         21    1    1    2  503  501  0.14846782290E+03  0.22262940840E+03  0.20865604184E+03  0.33932858960E+03  0.00000000000E+00 0. -1.
<mgrwt>
<rscale>  3 0.29534987E+03</rscale>
<asrwt>0</asrwt>
<pdfrwt beam="1">  1       21 0.44626415E-01 0.29534987E+03</pdfrwt>
<pdfrwt beam="2">  1       21 0.21870764E+00 0.29534987E+03</pdfrwt>
<totfact> 0.44486686E+02</totfact>
</mgrwt>
</event>
<event>
 4    0  0.1297131E-001  0.2984330E+03  0.7546771E-02  0.1086027E+00
         21   -1    0    0  502  501  0.00000000000E+00  0.00000000000E+00  0.13277300408E+03  0.13277300408E+03  0.00000000000E+00 0.  1.
         21   -1    0    0  503  502 -0.00000000000E+00 -0.00000000000E+00 -0.64689571931E+03  0.64689571931E+03  0.00000000000E+00 0.  1.
         25    1    1    2    0    0  0.18251738420E+03 -0.20031134849E+03 -0.17642065737E+03  0.34667921804E+03  0.12500000000E+03 0.  0.
         21    1    1    2  503  501 -0.18251738420E+03  0.20031134849E+03 -0.33770205785E+03  0.43298950536E+03  0.00000000000E+00 0.  1.
<mgrwt>
<rscale>  3 0.29843296E+03</rscale>
<asrwt>0</asrwt>
<pdfrwt beam="1">  1       21 0.20426615E-01 0.29843296E+03</pdfrwt>
<pdfrwt beam="2">  1       21 0.99522421E-01 0.29843296E+03</pdfrwt>
<totfact> 0.17430915E+04</totfact>
</mgrwt>
</event>
<event>
 4    0  0.1005289E-001  0.3122972E+03  0.7546771E-02  0.1079250E+00
         21   -1    0    0  502  501  0.00000000000E+00  0.00000000000E+00  0.12249224415E+04  0.12249224415E+04  0.00000000000E+00 0.  1.
         21   -1    0    0  503  502 -0.00000000000E+00 -0.00000000000E+00 -0.88760138591E+02  0.88760138591E+02  0.00000000000E+00 0. -1.
         25    1    1    2    0    0 -0.23156189726E+03  0.16817735727E+03  0.31284355874E+03  0.44204143245E+03  0.12500000000E+03 0.  0.
         21    1    1    2  503  501  0.23156189726E+03 -0.16817735727E+03  0.82331874417E+03  0.87164114764E+03  0.00000000000E+00 0.  1.
<mgrwt>
<rscale>  3 0.31229719E+03</rscale>
<asrwt>0</asrwt>
<pdfrwt beam="1">  1       21 0.18844959E+00 0.31229719E+03</pdfrwt>
<pdfrwt beam="2">  1       21 0.13655407E-01 0.31229719E+03</pdfrwt>
<totfact> 0.68437461E+03</totfact>
</mgrwt>
</event>
<event>
 4    0  0.1466737E-001  0.4386366E+03  0.7546771E-02  0.1031166E+00
         21   -1    0    0  502  501  0.00000000000E+00  0.00000000000E+00  0.28627168562E+03  0.28627168562E+03  0.00000000000E+00 0.  1.
         21   -1    0    0  503  502 -0.00000000000E+00 -0.00000000000E+00 -0.74417142992E+03  0.74417142992E+03  0.00000000000E+00 0.  1.
         25    1    1    2    0    0  0.27909819524E+03 -0.31445393489E+03 -0.42165264185E+03  0.60843490213E+03  0.12500000000E+03 0.  0.
         21    1    1    2  503  501 -0.27909819524E+03  0.31445393489E+03 -0.36247102456E+02  0.42200821342E+03  0.00000000000E+00 0.  1.
<mgrwt>
<rscale>  3 0.43863661E+03</rscale>
<asrwt>0</asrwt>
<pdfrwt beam="1">  1       21 0.44041798E-01 0.43863661E+03</pdfrwt>
<pdfrwt beam="2">  1       21 0.11448791E+00 0.43863661E+03</pdfrwt>
<totfact> 0.25504381E+03</totfact>
</mgrwt>
</event>
<event>
 4    0  0.1342773E-001  0.3083402E+03  0.7546771E-02  0.1081144E+00
         21   -1    0    0  502  501  0.00000000000E+00  0.00000000000E+00  0.67366977193E+02  0.67366977193E+02  0.00000000000E+00 0.  1.
         21   -1    0    0  503  502 -0.00000000000E+00 -0.00000000000E+00 -0.13166882968E+04  0.13166882968E+04  0.00000000000E+00 0.  1.
         25    1    1    2    0    0  0.14811702373E+03 -0.23981251323E+03 -0.74546494393E+03  0.80671660256E+03  0.12500000000E+03 0.  0.
         21    1    1    2  503  501 -0.14811702373E+03  0.23981251323E+03 -0.50385637567E+03  0.57733867143E+03  0.00000000000E+00 0.  1.
<mgrwt>
<rscale>  3 0.30834022E+03</rscale>
<asrwt>0</asrwt>
<pdfrwt beam="1">  1       21 0.10364151E-01 0.30834022E+03</pdfrwt>
<pdfrwt beam="2">  1       21 0.20256741E+00 0.30834022E+03</pdfrwt>
<totfact> 0.90981422E+03</totfact>
</mgrwt>
</event>
<event>
 4    0  0.1043168E-001  0.2941068E+03  0.7546771E-02  0.1088224E+00
         21   -1    0    0  502  501  0.00000000000E+00  0.00000000000E+00  0.19546326859E+04  0.19546326859E+04  0.00000000000E+00 0. -1.
         21   -1    0    0  503  502 -0.00000000000E+00 -0.00000000000E+00 -0.51115035631E+02  0.51115035631E+02  0.00000000000E+00 0. -1.
         25    1    1    2    0    0  0.11065517165E+03 -0.24213473204E+03  0.52507642144E+03  0.60183390052E+03  0.12500000000E+03 0.  0.
         21    1    1    2  503  501 -0.11065517165E+03  0.24213473204E+03  0.13784412288E+04  0.14039138210E+04  0.00000000000E+00 0. -1.
<mgrwt>
<rscale>  3 0.29410678E+03</rscale>
<asrwt>0</asrwt>
<pdfrwt beam="1">  1       21 0.30071266E+00 0.29410678E+03</pdfrwt>
<pdfrwt beam="2">  1       21 0.78638531E-02 0.29410678E+03</pdfrwt>
<totfact> 0.37938194E+03</totfact>
</mgrwt>
</event>
<event>
 4    0  0.1456687E-001  0.2427582E+03  0.7546771E-02  0.1117969E+00
         21   -1    0    0  503  501  0.00000000000E+00  0.00000000000E+00  0.33090981571E+03  0.33090981571E+03  0.00000000000E+00 0. -1.
         21   -1    0    0  501  502 -0.00000000000E+00 -0.00000000000E+00 -0.20867349025E+03  0.20867349025E+03  0.00000000000E+00 0. -1.
         25    1    1    2    0    0 -0.85158994494E+02 -0.18988019824E+03 -0.73757680821E+02  0.25371586373E+03  0.12500000000E+03 0.  0.
         21    1    1    2  503  502  0.85158994494E+02  0.18988019824E+03  0.19599400628E+03  0.28586744223E+03  0.00000000000E+00 0. -1.
<mgrwt>
<rscale>  3 0.24275820E+03</rscale>
<asrwt>0</asrwt>
<pdfrwt beam="1">  1       21 0.50909203E-01 0.24275820E+03</pdfrwt>
<pdfrwt beam="2">  1       21 0.32103614E-01 0.24275820E+03</pdfrwt>
<totfact> 0.33407258E+04</totfact>
</mgrwt>
</event>
<event>
 4    0  0.1369952E-001  0.2478702E+03  0.7546771E-02  0.1114658E+00
         21   -1    0    0  502  501  0.00000000000E+00  0.00000000000E+00  0.23026303896E+03  0.23026303896E+03  0.00000000000E+00 0. -1.
         21   -1    0    0  503  502 -0.00000000000E+00 -0.00000000000E+00 -0.24906180266E+03  0.24906180266E+03  0.00000000000E+00 0. -1.
         25    1    1    2    0    0  0.19448455813E+03  0.89388931404E+02 -0.73244135985E+02  0.25846533204E+03  0.12500000000E+03 0.  0.
         21    1    1    2  503  501 -0.19448455813E+03 -0.89388931404E+02  0.54445372288E+02  0.22085950958E+03  0.00000000000E+00 0. -1.
<mgrwt>
<rscale>  3 0.24787018E+03</rscale>
<asrwt>0</asrwt>
<pdfrwt beam="1">  1       21 0.35425083E-01 0.24787018E+03</pdfrwt>
<pdfrwt beam="2">  1       21 0.38317200E-01 0.24787018E+03</pdfrwt>
<totfact> 0.49231506E+04</totfact>
</mgrwt>
</event>
<event>
 4    0  0.1404153E-001  0.2515221E+03  0.7546771E-02  0.1112347E+00
         21   -1    0    0  503  501  0.00000000000E+00  0.00000000000E+00  0.35239673205E+03  0.35239673205E+03  0.00000000000E+00 0. -1.
         21   -1    0    0  501  502 -0.00000000000E+00 -0.00000000000E+00 -0.21753185911E+03  0.21753185911E+03  0.00000000000E+00 0. -1.
         25    1    1    2    0    0  0.20830459081E+03 -0.65173487581E+02 -0.79714974111E+02  0.26385197201E+03  0.12500000000E+03 0.  0.
         21    1    1    2  503  502 -0.20830459081E+03  0.65173487581E+02  0.21457984705E+03  0.30607661916E+03  0.00000000000E+00 0. -1.
<mgrwt>
<rscale>  3 0.25152214E+03</rscale>
<asrwt>0</asrwt>
<pdfrwt beam="1">  1       21 0.54214882E-01 0.25152214E+03</pdfrwt>
<pdfrwt beam="2">  1       21 0.33466440E-01 0.25152214E+03</pdfrwt>
<totfact> 0.26829816E+04</totfact>
</mgrwt>
</event>
<event>
 4    0  0.1005289E-001  0.3071463E+03  0.7546771E-02  0.1081722E+00
         21   -1    0    0  503  501  0.00000000000E+00  0.00000000000E+00  0.55698096855E+02  0.55698096855E+02  0.00000000000E+00 0. -1.
         21   -1    0    0  501  502 -0.00000000000E+00 -0.00000000000E+00 -0.16188270659E+04  0.16188270659E+04  0.00000000000E+00 0. -1.
         25    1    1    2    0    0  0.23652543969E+03  0.15089580664E+03 -0.64334930812E+03  0.71290753982E+03  0.12500000000E+03 0.  0.
         21    1    1    2  503  502 -0.23652543969E+03 -0.15089580664E+03 -0.91977966098E+03  0.96161762298E+03  0.00000000000E+00 0. -1.
<mgrwt>
<rscale>  3 0.30714626E+03</rscale>
<asrwt>0</asrwt>
<pdfrwt beam="1">  1       21 0.85689401E-02 0.30714626E+03</pdfrwt>
<pdfrwt beam="2">  1       21 0.24905026E+00 0.30714626E+03</pdfrwt>
<totfact> 0.65478823E+03</totfact>
</mgrwt>
</event>
<event>
 4    0  0.1005289E-001  0.2428365E+03  0.7546771E-02  0.1117918E+00
         21   -1    0    0  503  501  0.00000000000E+00  0.00000000000E+00  0.15167744940E+03  0.15167744940E+03  0.00000000000E+00 0.  1.
         21   -1    0    0  501  502 -0.00000000000E+00 -0.00000000000E+00 -0.35524367259E+03  0.35524367259E+03  0.00000000000E+00 0. -1.
         25    1    1    2    0    0  0.89660078006E+02 -0.18789799331E+03 -0.16905352788E+03  0.29588626323E+03  0.12500000000E+03 0.  0.
         21    1    1    2  503  502 -0.89660078006E+02  0.18789799331E+03 -0.34512695317E+02  0.21103485877E+03  0.00000000000E+00 0.  1.
<mgrwt>
<rscale>  3 0.24283654E+03</rscale>
<asrwt>0</asrwt>
<pdfrwt beam="1">  1       21 0.23334992E-01 0.24283654E+03</pdfrwt>
<pdfrwt beam="2">  1       21 0.54652872E-01 0.24283654E+03</pdfrwt>
<totfact> 0.53383248E+04</totfact>
</mgrwt>
</event>
