<event>
 5    0  0.2349231E+000  0.6962201E+03  0.7546771E-02  0.9723718E-01
         21   -1    0    0  503  501  0.00000000000E+00  0.00000000000E+00  0.22690547341E+03  0.22690547341E+03  0.00000000000E+00 0.  1.
         21   -1    0    0  504  502 -0.00000000000E+00 -0.00000000000E+00 -0.22331501267E+04  0.22331501267E+04  0.00000000000E+00 0. -1.
         25    1    1    2    0    0  0.18807354688E+03 -0.21670334716E+03 -0.17199871193E+04  0.17482313034E+04  0.12500000000E+03 0.  0.
         21    1    1    2  503  502 -0.20195478441E+03  0.19813546366E+03 -0.45810129090E+03  0.53842380114E+03  0.00000000000E+00 0.  1.
         21    1    1    2  504  501  0.13881237528E+02  0.18567883498E+02  0.17184375693E+03  0.17340049553E+03  0.00000000000E+00 0.  1.
<mgrwt>
<rscale>  4 0.69622011E+03</rscale>
<asrwt>0</asrwt>
<pdfrwt beam="1">  1       21 0.34908535E-01 0.69622011E+03</pdfrwt>
<pdfrwt beam="2">  1       21 0.34356155E+00 0.69622011E+03</pdfrwt>
<totfact> 0.10153970E+02</totfact>
</mgrwt>
</event>
<event>
 5    0  0.2349231E+000  0.5310970E+03  0.7546771E-02  0.1005966E+00
         21   -1    0    0  502  501  0.00000000000E+00  0.00000000000E+00  0.33896443604E+03  0.33896443604E+03  0.00000000000E+00 0.  1.
         21   -1    0    0  503  502 -0.00000000000E+00 -0.00000000000E+00 -0.29538821009E+03  0.29538821009E+03  0.00000000000E+00 0.  1.
         25    1    1    2    0    0  0.48028273944E+02 -0.23585901158E+03  0.38521517152E+02  0.27394359954E+03  0.12500000000E+03 0.  0.
         21    1    1    2  503  504 -0.24672659093E+02  0.24160319689E+03 -0.92540823471E+02  0.25989353371E+03  0.00000000000E+00 0.  1.
         21    1    1    2  504  501 -0.23355614851E+02 -0.57441853068E+01  0.97595532275E+02  0.10051551288E+03  0.00000000000E+00 0.  1.
<mgrwt>
<rscale>  4 0.53109698E+03</rscale>
<asrwt>0</asrwt>
<pdfrwt beam="1">  1       21 0.52148375E-01 0.53109698E+03</pdfrwt>
<pdfrwt beam="2">  1       21 0.45444340E-01 0.53109698E+03</pdfrwt>
<totfact> 0.14276634E+04</totfact>
</mgrwt>
</event>
<event>
 5    0  0.2349231E+000  0.5460206E+03  0.7546771E-02  0.1002419E+00
         21   -1    0    0  504  501  0.00000000000E+00  0.00000000000E+00  0.50574210142E+03  0.50574210142E+03  0.00000000000E+00 0. -1.
         21   -1    0    0  503  502 -0.00000000000E+00 -0.00000000000E+00 -0.10628100025E+04  0.10628100025E+04  0.00000000000E+00 0.  1.
         25    1    1    2    0    0  0.14762473219E+03  0.20092948917E+03 -0.32294369765E+03  0.42671226022E+03  0.12500000000E+03 0.  0.
         21    1    1    2  503  501  0.44201171415E+01 -0.22728926684E+03 -0.65512619315E+03  0.69344810707E+03  0.00000000000E+00 0.  1.
         21    1    1    2  504  502 -0.15204484933E+03  0.26359777675E+02  0.42100198974E+03  0.44839173660E+03  0.00000000000E+00 0. -1.
<mgrwt>
<rscale>  4 0.54602064E+03</rscale>
<asrwt>0</asrwt>
<pdfrwt beam="1">  1       21 0.77806477E-01 0.54602064E+03</pdfrwt>
<pdfrwt beam="2">  1       21 0.16350923E+00 0.54602064E+03</pdfrwt>
<totfact> 0.27330711E+02</totfact>
</mgrwt>
</event>
