<event>
 5    0  0.3433624E+000  0.3108224E+03  0.7546771E-02  0.1079952E+00
         21   -1    0    0  502  501  0.00000000000E+00  0.00000000000E+00  0.59960188502E+03  0.59960188502E+03  0.00000000000E+00 0.  1.
         21   -1    0    0  503  502 -0.00000000000E+00 -0.00000000000E+00 -0.21916398431E+03  0.21916398431E+03  0.00000000000E+00 0.  1.
         25    1    1    2    0    0 -0.18607752421E+03  0.21531536649E+03  0.42532276455E+03  0.52679218493E+03  0.12500000000E+03 0.  0.
         21    1    1    2  503  504  0.16672631462E+03 -0.19539836931E+03 -0.25536992335E+02  0.25812850423E+03  0.00000000000E+00 0.  1.
         21    1    1    2  504  501  0.19351209587E+02 -0.19916997180E+02 -0.19347871499E+02  0.33845180169E+02  0.00000000000E+00 0.  1.
<mgrwt>
<rscale>  4 0.31082238E+03</rscale>
<asrwt>0</asrwt>
<pdfrwt beam="1">  1       21 0.92246443E-01 0.31082238E+03</pdfrwt>
<pdfrwt beam="2">  1       21 0.33717536E-01 0.31082238E+03</pdfrwt>
<totfact> 0.78468851E+03</totfact>
</mgrwt>
</event>
<event>
 5    0  0.2159162E+000  0.2575539E+03  0.7546771E-02  0.1108622E+00
         21   -1    0    0  502  501  0.00000000000E+00  0.00000000000E+00  0.67472066323E+03  0.67472066323E+03  0.00000000000E+00 0.  1.
         21   -1    0    0  503  502 -0.00000000000E+00 -0.00000000000E+00 -0.49491956501E+03  0.49491956501E+03  0.00000000000E+00 0. -1.
         25    1    1    2    0    0  0.22516256889E+03 -0.64895795425E+02  0.53254544398E+03  0.59509603981E+03  0.12500000000E+03 0.  0.
         21    1    1    2  503  504 -0.19912654651E+03  0.22966992322E+02  0.17328920956E+02  0.20119432339E+03  0.00000000000E+00 0. -1.
         21    1    1    2  504  501 -0.26036022384E+02  0.41928803102E+02 -0.37007326672E+03  0.37334986504E+03  0.00000000000E+00 0. -1.
<mgrwt>
<rscale>  4 0.25755386E+03</rscale>
<asrwt>0</asrwt>
<pdfrwt beam="1">  1       21 0.10380318E+00 0.25755386E+03</pdfrwt>
<pdfrwt beam="2">  1       21 0.76141472E-01 0.25755386E+03</pdfrwt>
<totfact> 0.10906959E+03</totfact>
</mgrwt>
</event>
<event>
 5    0  0.2159162E+000  0.2784797E+03  0.7546771E-02  0.1096522E+00
         21   -1    0    0  502  501  0.00000000000E+00  0.00000000000E+00  0.59795867661E+03  0.59795867661E+03  0.00000000000E+00 0.  1.
         21   -1    0    0  503  502 -0.00000000000E+00 -0.00000000000E+00 -0.40023885554E+03  0.40023885554E+03  0.00000000000E+00 0.  1.
         25    1    1    2    0    0 -0.11799907436E+03  0.21909399640E+03  0.51935628009E+03  0.58930629258E+03  0.12500000000E+03 0.  0.
         21    1    1    2  503  504  0.11607687395E+02 -0.19591422844E+02 -0.53550654548E+02  0.58191364120E+02  0.00000000000E+00 0.  1.
         21    1    1    2  504  501  0.10639138696E+03 -0.19950257356E+03 -0.26808580448E+03  0.35069987545E+03  0.00000000000E+00 0.  1.
<mgrwt>
<rscale>  4 0.27847973E+03</rscale>
<asrwt>0</asrwt>
<pdfrwt beam="1">  1       21 0.91993642E-01 0.27847973E+03</pdfrwt>
<pdfrwt beam="2">  1       21 0.61575209E-01 0.27847973E+03</pdfrwt>
<totfact> 0.22943975E+03</totfact>
</mgrwt>
</event>
<event>
 5    0  0.2159162E+000  0.2361898E+03  0.7546771E-02  0.1122357E+00
         21   -1    0    0  502  501  0.00000000000E+00  0.00000000000E+00  0.23251562286E+02  0.23251562286E+02  0.00000000000E+00 0.  1.
         21   -1    0    0  503  502 -0.00000000000E+00 -0.00000000000E+00 -0.21784973531E+04  0.21784973531E+04  0.00000000000E+00 0.  1.
         25    1    1    2    0    0  0.19623982432E+02  0.19943801786E+03 -0.13013659371E+04  0.13226257694E+04  0.12500000000E+03 0.  0.
         21    1    1    2  503  504 -0.40632654833E+02 -0.12233250796E+03 -0.55101283784E+03  0.56588992093E+03  0.00000000000E+00 0.  1.
         21    1    1    2  504  501  0.21008672401E+02 -0.77105509892E+02 -0.30286701584E+03  0.31323322502E+03  0.00000000000E+00 0.  1.
<mgrwt>
<rscale>  4 0.23618980E+03</rscale>
<asrwt>0</asrwt>
<pdfrwt beam="1">  1       21 0.35771623E-02 0.23618980E+03</pdfrwt>
<pdfrwt beam="2">  1       21 0.33515354E+00 0.23618980E+03</pdfrwt>
<totfact> 0.96368832E+03</totfact>
</mgrwt>
</event>
<event>
 5    0  0.2159162E+000  0.3080362E+03  0.7546771E-02  0.1081291E+00
         21   -1    0    0  502  501  0.00000000000E+00  0.00000000000E+00  0.11078308441E+04  0.11078308441E+04  0.00000000000E+00 0. -1.
         21   -1    0    0  503  502 -0.00000000000E+00 -0.00000000000E+00 -0.12807113453E+03  0.12807113453E+03  0.00000000000E+00 0. -1.
         25    1    1    2    0    0 -0.18104697889E+03  0.25314632806E+03  0.21578957041E+03  0.39881224990E+03  0.12500000000E+03 0.  0.
         21    1    1    2  503  504  0.15470209190E+03 -0.18296366311E+03  0.40662732997E+03  0.47196845735E+03  0.00000000000E+00 0. -1.
         21    1    1    2  504  501  0.26344886990E+02 -0.70182664957E+02  0.35734280923E+03  0.36512127141E+03  0.00000000000E+00 0. -1.
<mgrwt>
<rscale>  4 0.30803624E+03</rscale>
<asrwt>0</asrwt>
<pdfrwt beam="1">  1       21 0.17043551E+00 0.30803624E+03</pdfrwt>
<pdfrwt beam="2">  1       21 0.19703252E-01 0.30803624E+03</pdfrwt>
<totfact> 0.46377277E+03</totfact>
</mgrwt>
</event>
<event>
 5    0  0.2159162E+000  0.2805098E+03  0.7546771E-02  0.1095411E+00
         21   -1    0    0  502  501  0.00000000000E+00  0.00000000000E+00  0.25045782304E+03  0.25045782304E+03  0.00000000000E+00 0. -1.
         21   -1    0    0  503  502 -0.00000000000E+00 -0.00000000000E+00 -0.12009258937E+04  0.12009258937E+04  0.00000000000E+00 0.  1.
         25    1    1    2    0    0  0.13245572488E+03  0.21334537181E+03  0.15216840684E+03  0.31912535274E+03  0.12500000000E+03 0.  0.
         21    1    1    2  503  504 -0.27359054848E+02 -0.12698253248E+02 -0.15721997372E+03  0.16008711270E+03  0.00000000000E+00 0.  1.
         21    1    1    2  504  501 -0.10509667003E+03 -0.20064711856E+03 -0.94541650381E+03  0.97217125134E+03  0.00000000000E+00 0.  1.
<mgrwt>
<rscale>  4 0.28050983E+03</rscale>
<asrwt>0</asrwt>
<pdfrwt beam="1">  1       21 0.38531974E-01 0.28050983E+03</pdfrwt>
<pdfrwt beam="2">  1       21 0.18475783E+00 0.28050983E+03</pdfrwt>
<totfact> 0.10127357E+03</totfact>
</mgrwt>
</event>
<event>
 5    0  0.2668053E+000  0.3366691E+03  0.7546771E-02  0.1068224E+00
         21   -1    0    0  502  501  0.00000000000E+00  0.00000000000E+00  0.93653861207E+02  0.93653861207E+02  0.00000000000E+00 0.  1.
         21   -1    0    0  503  502 -0.00000000000E+00 -0.00000000000E+00 -0.12008628859E+04  0.12008628859E+04  0.00000000000E+00 0.  1.
         25    1    1    2    0    0  0.30667644617E+03 -0.60585894458E+02 -0.43666834491E+03  0.55138492606E+03  0.12500000000E+03 0.  0.
         21    1    1    2  503  504 -0.26429893066E+03  0.33580735270E+02 -0.60030897201E+03  0.65677427813E+03  0.00000000000E+00 0.  1.
         21    1    1    2  504  501 -0.42377515511E+02  0.27005159189E+02 -0.70231707825E+02  0.86357542970E+02  0.00000000000E+00 0.  1.
<mgrwt>
<rscale>  4 0.33666912E+03</rscale>
<asrwt>0</asrwt>
<pdfrwt beam="1">  1       21 0.14408287E-01 0.33666912E+03</pdfrwt>
<pdfrwt beam="2">  1       21 0.18474813E+00 0.33666912E+03</pdfrwt>
<totfact> 0.64904619E+03</totfact>
</mgrwt>
</event>
<event>
 5    0  0.2159162E+000  0.7201236E+03  0.7546771E-02  0.9683424E-01
         21   -1    0    0  502  501  0.00000000000E+00  0.00000000000E+00  0.50453801107E+03  0.50453801107E+03  0.00000000000E+00 0.  1.
         21   -1    0    0  503  502 -0.00000000000E+00 -0.00000000000E+00 -0.30145866506E+04  0.30145866506E+04  0.00000000000E+00 0. -1.
         25    1    1    2    0    0 -0.78463089528E+02 -0.70596153032E+03  0.15926701456E+03  0.73859943179E+03  0.12500000000E+03 0.  0.
         21    1    1    2  503  504  0.68295845274E+01  0.70257022980E+03 -0.24948237794E+04  0.25918713821E+04  0.00000000000E+00 0. -1.
         21    1    1    2  504  501  0.71633505001E+02  0.33913005198E+01 -0.17449187469E+03  0.18865384780E+03  0.00000000000E+00 0. -1.
<mgrwt>
<rscale>  4 0.72012356E+03</rscale>
<asrwt>0</asrwt>
<pdfrwt beam="1">  1       21 0.77621234E-01 0.72012356E+03</pdfrwt>
<pdfrwt beam="2">  1       21 0.46378255E+00 0.72012356E+03</pdfrwt>
<totfact> 0.29041233E+00</totfact>
</mgrwt>
</event>
<event>
 5    0  0.2159162E+000  0.3604849E+03  0.7546771E-02  0.1058392E+00
         21   -1    0    0  502  501  0.00000000000E+00  0.00000000000E+00  0.29029116236E+03  0.29029116236E+03  0.00000000000E+00 0. -1.
         21   -1    0    0  503  502 -0.00000000000E+00 -0.00000000000E+00 -0.63271308473E+03  0.63271308473E+03  0.00000000000E+00 0. -1.
         25    1    1    2    0    0  0.20947303634E+03  0.26541553404E+03  0.90207640801E+02  0.37160029214E+03  0.12500000000E+03 0.  0.
         21    1    1    2  503  504 -0.18791344421E+02 -0.26314223906E+02 -0.69468039500E+02  0.76624810061E+02  0.00000000000E+00 0. -1.
         21    1    1    2  504  501 -0.19068169192E+03 -0.23910131013E+03 -0.36316152368E+03  0.47477914488E+03  0.00000000000E+00 0. -1.
<mgrwt>
<rscale>  4 0.36048489E+03</rscale>
<asrwt>0</asrwt>
<pdfrwt beam="1">  1       21 0.44660179E-01 0.36048489E+03</pdfrwt>
<pdfrwt beam="2">  1       21 0.97340475E-01 0.36048489E+03</pdfrwt>
<totfact> 0.38074594E+03</totfact>
</mgrwt>
</event>
<event>
 5    0  0.2159162E+000  0.2519200E+03  0.7546771E-02  0.1112097E+00
         21   -1    0    0  502  501  0.00000000000E+00  0.00000000000E+00  0.13692727370E+04  0.13692727370E+04  0.00000000000E+00 0.  1.
         21   -1    0    0  503  502 -0.00000000000E+00 -0.00000000000E+00 -0.25519940555E+03  0.25519940555E+03  0.00000000000E+00 0.  1.
         25    1    1    2    0    0  0.69403335719E+02 -0.21455841283E+03  0.12049752796E+04  0.12322510134E+04  0.12500000000E+03 0.  0.
         21    1    1    2  503  504 -0.11131013019E+03  0.15842106192E+03  0.78485455238E+02  0.20891899058E+03  0.00000000000E+00 0.  1.
         21    1    1    2  504  501  0.41906794475E+02  0.56137350911E+02 -0.16938740339E+03  0.18330213860E+03  0.00000000000E+00 0.  1.
<mgrwt>
<rscale>  4 0.25192003E+03</rscale>
<asrwt>0</asrwt>
<pdfrwt beam="1">  1       21 0.21065734E+00 0.25192003E+03</pdfrwt>
<pdfrwt beam="2">  1       21 0.39261448E-01 0.25192003E+03</pdfrwt>
<totfact> 0.67528449E+02</totfact>
</mgrwt>
</event>
<event>
 5    0  0.2159162E+000  0.5728779E+03  0.7546771E-02  0.9963330E-01
         21   -1    0    0  502  501  0.00000000000E+00  0.00000000000E+00  0.17807245440E+03  0.17807245440E+03  0.00000000000E+00 0.  1.
         21   -1    0    0  503  502 -0.00000000000E+00 -0.00000000000E+00 -0.18345867386E+04  0.18345867386E+04  0.00000000000E+00 0.  1.
         25    1    1    2    0    0 -0.15732441706E+03 -0.53648215503E+03 -0.96359483749E+03  0.11210281378E+04  0.12500000000E+03 0.  0.
         21    1    1    2  503  504  0.14719114973E+03  0.51251265716E+03 -0.67416458886E+03  0.85955357667E+03  0.00000000000E+00 0.  1.
         21    1    1    2  504  501  0.10133267328E+02  0.23969497873E+02 -0.18754857818E+02  0.32077478498E+02  0.00000000000E+00 0.  1.
<mgrwt>
<rscale>  4 0.57287789E+03</rscale>
<asrwt>0</asrwt>
<pdfrwt beam="1">  1       21 0.27395763E-01 0.57287789E+03</pdfrwt>
<pdfrwt beam="2">  1       21 0.28224411E+00 0.57287789E+03</pdfrwt>
<totfact> 0.41334087E+02</totfact>
</mgrwt>
</event>
