<event>
 4    0  0.1491516E-001  0.3333655E+03  0.7546771E-02  0.1069657E+00
          2   -1    0    0  502    0 -0.00000000000E+00  0.00000000000E+00  0.12651655171E+04  0.12651655171E+04  0.00000000000E+00 0. -1.
         21   -1    0    0  501  502  0.00000000000E+00 -0.00000000000E+00 -0.10544592065E+03  0.10544592065E+03  0.00000000000E+00 0. -1.
         25    1    1    2    0    0  0.77137440079E+02  0.29926135347E+03  0.27077250803E+03  0.42947676706E+03  0.12500000000E+03 0.  0.
          2    1    1    2  501    0 -0.77137440079E+02 -0.29926135347E+03  0.88894708842E+03  0.94113467068E+03  0.00000000000E+00 0. -1.
<mgrwt>
<rscale>  3 0.33336548E+03</rscale>
<asrwt>0</asrwt>
<pdfrwt beam="1">  1       21 0.16222450E-01 0.33336548E+03</pdfrwt>
<pdfrwt beam="2">  1        2 0.19464084E+00 0.33336548E+03</pdfrwt>
<totfact> 0.76638011E+03</totfact>
</mgrwt>
</event>
<event>
 4    0  0.1002184E-001  0.2646712E+03  0.7546771E-02  0.1104369E+00
          1   -1    0    0  502    0 -0.00000000000E+00  0.00000000000E+00  0.61067338117E+02  0.61067338117E+02  0.00000000000E+00 0.  1.
         21   -1    0    0  501  502  0.00000000000E+00 -0.00000000000E+00 -0.10810683990E+04  0.10810683990E+04  0.00000000000E+00 0. -1.
         25    1    1    2    0    0  0.13896980055E+03 -0.18738533059E+03 -0.68093351929E+03  0.73056233497E+03  0.12500000000E+03 0.  0.
          1    1    1    2  501    0 -0.13896980055E+03  0.18738533059E+03 -0.33906754156E+03  0.41157340211E+03  0.00000000000E+00 0.  1.
<mgrwt>
<rscale>  3 0.26467124E+03</rscale>
<asrwt>0</asrwt>
<pdfrwt beam="1">  1       21 0.16631821E+00 0.26467124E+03</pdfrwt>
<pdfrwt beam="2">  1        1 0.93949755E-02 0.26467124E+03</pdfrwt>
<totfact> 0.16282990E+03</totfact>
</mgrwt>
</event>
<event>
 4    0  0.1469072E-001  0.2739838E+03  0.7546771E-02  0.1099021E+00
         21   -1    0    0  501  502  0.00000000000E+00  0.00000000000E+00  0.84893600475E+02  0.84893600475E+02  0.00000000000E+00 0.  1.
          1   -1    0    0  502    0 -0.00000000000E+00 -0.00000000000E+00 -0.14139915113E+04  0.14139915113E+04  0.00000000000E+00 0.  1.
         25    1    1    2    0    0  0.50639524710E+02  0.23849060591E+03 -0.18860720183E+03  0.33262562612E+03  0.12500000000E+03 0.  0.
          1    1    1    2  501    0 -0.50639524710E+02 -0.23849060591E+03 -0.11404907090E+04  0.11662594856E+04  0.00000000000E+00 0.  1.
<mgrwt>
<rscale>  3 0.27398381E+03</rscale>
<asrwt>0</asrwt>
<pdfrwt beam="1">  1       21 0.13060553E-01 0.27398381E+03</pdfrwt>
<pdfrwt beam="2">  1        1 0.21753717E+00 0.27398381E+03</pdfrwt>
<totfact> 0.45303702E+03</totfact>
</mgrwt>
</event>
<event>
 4    0  0.1238350E-001  0.2659506E+03  0.7546771E-02  0.1103620E+00
         21   -1    0    0  501  502  0.00000000000E+00  0.00000000000E+00  0.12431630049E+04  0.12431630049E+04  0.00000000000E+00 0. -1.
          1   -1    0    0  502    0 -0.00000000000E+00 -0.00000000000E+00 -0.36258323736E+03  0.36258323736E+03  0.00000000000E+00 0.  1.
         25    1    1    2    0    0  0.11214381793E+03 -0.20622436423E+03  0.11888722071E+04  0.12182556583E+04  0.12500000000E+03 0.  0.
          1    1    1    2  501    0 -0.11214381793E+03  0.20622436423E+03 -0.30829243958E+03  0.38749058389E+03  0.00000000000E+00 0.  1.
<mgrwt>
<rscale>  3 0.26595061E+03</rscale>
<asrwt>0</asrwt>
<pdfrwt beam="1">  1       21 0.19125584E+00 0.26595061E+03</pdfrwt>
<pdfrwt beam="2">  1        1 0.55782037E-01 0.26595061E+03</pdfrwt>
<totfact> 0.10906480E+02</totfact>
</mgrwt>
</event>
<event>
 4    0  0.1590827E-001  0.2424442E+03  0.7546771E-02  0.1118175E+00
          2   -1    0    0  502    0 -0.00000000000E+00  0.00000000000E+00  0.17268609196E+04  0.17268609196E+04  0.00000000000E+00 0.  1.
         21   -1    0    0  501  502  0.00000000000E+00 -0.00000000000E+00 -0.29450624827E+02  0.29450624827E+02  0.00000000000E+00 0.  1.
         25    1    1    2    0    0 -0.18927224308E+03 -0.85616590413E+02  0.86014952965E+03  0.89366458804E+03  0.12500000000E+03 0.  0.
          2    1    1    2  501    0  0.18927224308E+03  0.85616590413E+02  0.83726076513E+03  0.86264695640E+03  0.00000000000E+00 0.  1.
<mgrwt>
<rscale>  3 0.24244418E+03</rscale>
<asrwt>0</asrwt>
<pdfrwt beam="1">  1       21 0.45308667E-02 0.24244418E+03</pdfrwt>
<pdfrwt beam="2">  1        2 0.26567083E+00 0.24244418E+03</pdfrwt>
<totfact> 0.41966743E+04</totfact>
</mgrwt>
</event>
<event>
 4    0  0.1239959E-001  0.4199466E+03  0.7546771E-02  0.1037084E+00
         21   -1    0    0  501  502  0.00000000000E+00  0.00000000000E+00  0.27011119143E+03  0.27011119143E+03  0.00000000000E+00 0.  1.
          1   -1    0    0  502    0 -0.00000000000E+00 -0.00000000000E+00 -0.62366775363E+03  0.62366775363E+03  0.00000000000E+00 0.  1.
         25    1    1    2    0    0  0.35755905285E+03 -0.18133311945E+03 -0.17788729511E+03  0.45606914635E+03  0.12500000000E+03 0.  0.
          1    1    1    2  501    0 -0.35755905285E+03  0.18133311945E+03 -0.17566926708E+03  0.43770979871E+03  0.00000000000E+00 0.  1.
<mgrwt>
<rscale>  3 0.41994664E+03</rscale>
<asrwt>0</asrwt>
<pdfrwt beam="1">  1       21 0.41555568E-01 0.41994664E+03</pdfrwt>
<pdfrwt beam="2">  1        1 0.95948885E-01 0.41994664E+03</pdfrwt>
<totfact> 0.19246311E+03</totfact>
</mgrwt>
</event>
<event>
 4    0  0.1002184E-001  0.2374322E+03  0.7546771E-02  0.1121515E+00
          2   -1    0    0  502    0 -0.00000000000E+00  0.00000000000E+00  0.69535482523E+03  0.69535482523E+03  0.00000000000E+00 0.  1.
         21   -1    0    0  501  502  0.00000000000E+00 -0.00000000000E+00 -0.98525365379E+02  0.98525365379E+02  0.00000000000E+00 0. -1.
         25    1    1    2    0    0 -0.19901413332E+03 -0.33800000177E+02  0.10004517348E+03  0.25764918399E+03  0.12500000000E+03 0.  0.
          2    1    1    2  501    0  0.19901413332E+03  0.33800000177E+02  0.49678428638E+03  0.53623100662E+03  0.00000000000E+00 0.  1.
<mgrwt>
<rscale>  3 0.23743223E+03</rscale>
<asrwt>0</asrwt>
<pdfrwt beam="1">  1       21 0.15157749E-01 0.23743223E+03</pdfrwt>
<pdfrwt beam="2">  1        2 0.10697766E+00 0.23743223E+03</pdfrwt>
<totfact> 0.20358956E+04</totfact>
</mgrwt>
</event>
<event>
 4    0  0.1496107E-001  0.3463525E+03  0.7546771E-02  0.1064122E+00
         21   -1    0    0  501  502  0.00000000000E+00  0.00000000000E+00  0.27331595090E+03  0.27331595090E+03  0.00000000000E+00 0.  1.
          2   -1    0    0  502    0 -0.00000000000E+00 -0.00000000000E+00 -0.97076682459E+03  0.97076682459E+03  0.00000000000E+00 0. -1.
         25    1    1    2    0    0  0.17184915228E+03  0.27350124849E+03  0.11886674011E+03  0.36618214862E+03  0.12500000000E+03 0.  0.
          2    1    1    2  501    0 -0.17184915228E+03 -0.27350124849E+03 -0.81631761380E+03  0.87790062688E+03  0.00000000000E+00 0. -1.
<mgrwt>
<rscale>  3 0.34635251E+03</rscale>
<asrwt>0</asrwt>
<pdfrwt beam="1">  1       21 0.42048608E-01 0.34635251E+03</pdfrwt>
<pdfrwt beam="2">  1        2 0.14934874E+00 0.34635251E+03</pdfrwt>
<totfact> 0.17840593E+03</totfact>
</mgrwt>
</event>
<event>
 4    0  0.1305493E-001  0.3551271E+03  0.7546771E-02  0.1060530E+00
         21   -1    0    0  501  502  0.00000000000E+00  0.00000000000E+00  0.56615117206E+03  0.56615117206E+03  0.00000000000E+00 0.  1.
          1   -1    0    0  502    0 -0.00000000000E+00 -0.00000000000E+00 -0.22574641972E+03  0.22574641972E+03  0.00000000000E+00 0.  1.
         25    1    1    2    0    0  0.33237771225E+03  0.39127535209E+01  0.28405270816E+03  0.45475399311E+03  0.12500000000E+03 0.  0.
          1    1    1    2  501    0 -0.33237771225E+03 -0.39127535209E+01  0.56352044188E+02  0.33714359867E+03  0.00000000000E+00 0.  1.
<mgrwt>
<rscale>  3 0.35512709E+03</rscale>
<asrwt>0</asrwt>
<pdfrwt beam="1">  1       21 0.87100180E-01 0.35512709E+03</pdfrwt>
<pdfrwt beam="2">  1        1 0.34730219E-01 0.35512709E+03</pdfrwt>
<totfact> 0.14660428E+03</totfact>
</mgrwt>
</event>
<event>
 4    0  0.1349224E-001  0.2678298E+03  0.7546771E-02  0.1102528E+00
         21   -1    0    0  501  502  0.00000000000E+00  0.00000000000E+00  0.10287090124E+03  0.10287090124E+03  0.00000000000E+00 0.  1.
          2   -1    0    0  502    0 -0.00000000000E+00 -0.00000000000E+00 -0.13051229969E+04  0.13051229969E+04  0.00000000000E+00 0.  1.
         25    1    1    2    0    0 -0.89769868140E+02  0.21920115379E+03 -0.10864274533E+03  0.28902598700E+03  0.12500000000E+03 0.  0.
          2    1    1    2  501    0  0.89769868140E+02 -0.21920115379E+03 -0.10936093503E+04  0.11189679111E+04  0.00000000000E+00 0.  1.
<mgrwt>
<rscale>  3 0.26782975E+03</rscale>
<asrwt>0</asrwt>
<pdfrwt beam="1">  1       21 0.15826291E-01 0.26782975E+03</pdfrwt>
<pdfrwt beam="2">  1        2 0.20078817E+00 0.26782975E+03</pdfrwt>
<totfact> 0.77478271E+03</totfact>
</mgrwt>
</event>
<event>
 4    0  0.1508067E-001  0.2561119E+03  0.7546771E-02  0.1109502E+00
          1   -1    0    0  502    0 -0.00000000000E+00  0.00000000000E+00  0.10416348335E+04  0.10416348335E+04  0.00000000000E+00 0.  1.
         21   -1    0    0  501  502  0.00000000000E+00 -0.00000000000E+00 -0.57652255553E+02  0.57652255553E+02  0.00000000000E+00 0.  1.
         25    1    1    2    0    0 -0.22265191265E+03  0.19860243698E+02  0.41126846695E+03  0.48449463918E+03  0.12500000000E+03 0.  0.
          1    1    1    2  501    0  0.22265191265E+03 -0.19860243698E+02  0.57271411098E+03  0.61479244986E+03  0.00000000000E+00 0.  1.
<mgrwt>
<rscale>  3 0.25611190E+03</rscale>
<asrwt>0</asrwt>
<pdfrwt beam="1">  1       21 0.88695785E-02 0.25611190E+03</pdfrwt>
<pdfrwt beam="2">  1        1 0.16025150E+00 0.25611190E+03</pdfrwt>
<totfact> 0.16552294E+04</totfact>
</mgrwt>
</event>
<event>
 4    0  0.1520189E-001  0.2444951E+03  0.7546771E-02  0.1116834E+00
         21   -1    0    0  501  502  0.00000000000E+00  0.00000000000E+00  0.26333465265E+03  0.26333465265E+03  0.00000000000E+00 0. -1.
          2   -1    0    0  502    0 -0.00000000000E+00 -0.00000000000E+00 -0.11645905538E+04  0.11645905538E+04  0.00000000000E+00 0. -1.
         25    1    1    2    0    0 -0.20417176715E+03 -0.49666259259E+02  0.19436353489E+03  0.31233800842E+03  0.12500000000E+03 0.  0.
          2    1    1    2  501    0  0.20417176715E+03  0.49666259259E+02 -0.10956194360E+04  0.11155871980E+04  0.00000000000E+00 0. -1.
<mgrwt>
<rscale>  3 0.24449509E+03</rscale>
<asrwt>0</asrwt>
<pdfrwt beam="1">  1       21 0.40513023E-01 0.24449509E+03</pdfrwt>
<pdfrwt beam="2">  1        2 0.17916778E+00 0.24449509E+03</pdfrwt>
<totfact> 0.15287664E+03</totfact>
</mgrwt>
</event>
<event>
 4    0  0.1002184E-001  0.3378971E+03  0.7546771E-02  0.1067695E+00
         21   -1    0    0  501  502  0.00000000000E+00  0.00000000000E+00  0.12144391626E+04  0.12144391626E+04  0.00000000000E+00 0.  1.
          1   -1    0    0  502    0 -0.00000000000E+00 -0.00000000000E+00 -0.28378522175E+03  0.28378522175E+03  0.00000000000E+00 0.  1.
         25    1    1    2    0    0 -0.24533277745E+03 -0.19586041170E+03 -0.15233904446E+03  0.37065031637E+03  0.12500000000E+03 0.  0.
          1    1    1    2  501    0  0.24533277745E+03  0.19586041170E+03  0.10829929853E+04  0.11275740680E+04  0.00000000000E+00 0.  1.
<mgrwt>
<rscale>  3 0.33789713E+03</rscale>
<asrwt>0</asrwt>
<pdfrwt beam="1">  1       21 0.18683679E+00 0.33789713E+03</pdfrwt>
<pdfrwt beam="2">  1        1 0.43659266E-01 0.33789713E+03</pdfrwt>
<totfact> 0.15317895E+02</totfact>
</mgrwt>
</event>
<event>
 4    0  0.1775958E-001  0.3091539E+03  0.7546771E-02  0.1080752E+00
         -3   -1    0    0    0  501 -0.00000000000E+00  0.00000000000E+00  0.68866563121E+03  0.68866563121E+03  0.00000000000E+00 0.  1.
         21   -1    0    0  501  502  0.00000000000E+00 -0.00000000000E+00 -0.35004812626E+03  0.35004812626E+03  0.00000000000E+00 0.  1.
         25    1    1    2    0    0  0.26347155327E+03  0.10263466707E+03 -0.24219729726E+03  0.39272848772E+03  0.12500000000E+03 0.  0.
         -3    1    1    2    0  502 -0.26347155327E+03 -0.10263466707E+03  0.58081480221E+03  0.64598526975E+03  0.00000000000E+00 0.  1.
<mgrwt>
<rscale>  3 0.30915390E+03</rscale>
<asrwt>0</asrwt>
<pdfrwt beam="1">  1       21 0.53853558E-01 0.30915390E+03</pdfrwt>
<pdfrwt beam="2">  1       -3 0.10594856E+00 0.30915390E+03</pdfrwt>
<totfact> 0.12355250E+02</totfact>
</mgrwt>
</event>
<event>
 4    0  0.1142886E-001  0.2770229E+03  0.7546771E-02  0.1097326E+00
          4   -1    0    0  502    0 -0.00000000000E+00  0.00000000000E+00  0.19545414511E+03  0.19545414511E+03  0.00000000000E+00 0.  1.
         21   -1    0    0  501  502  0.00000000000E+00 -0.00000000000E+00 -0.68081161555E+03  0.68081161555E+03  0.00000000000E+00 0.  1.
         25    1    1    2    0    0 -0.29016507217E+02 -0.24550910068E+03 -0.55425299821E+03  0.61962735755E+03  0.12500000000E+03 0.  0.
          4    1    1    2  501    0  0.29016507217E+02  0.24550910068E+03  0.68895527770E+02  0.25663840311E+03  0.00000000000E+00 0.  1.
<mgrwt>
<rscale>  3 0.27702288E+03</rscale>
<asrwt>0</asrwt>
<pdfrwt beam="1">  1       21 0.10474025E+00 0.27702288E+03</pdfrwt>
<pdfrwt beam="2">  1        4 0.30069869E-01 0.27702288E+03</pdfrwt>
<totfact> 0.32261548E+02</totfact>
</mgrwt>
</event>
<event>
 4    0  0.1143220E-001  0.2441882E+03  0.7546771E-02  0.1117034E+00
         21   -1    0    0  501  502  0.00000000000E+00  0.00000000000E+00  0.12028468214E+03  0.12028468214E+03  0.00000000000E+00 0. -1.
          2   -1    0    0  502    0 -0.00000000000E+00 -0.00000000000E+00 -0.25098202466E+04  0.25098202466E+04  0.00000000000E+00 0. -1.
         25    1    1    2    0    0  0.18688633487E+03 -0.95269921298E+02 -0.13216878980E+02  0.24454559075E+03  0.12500000000E+03 0.  0.
          2    1    1    2  501    0 -0.18688633487E+03  0.95269921298E+02 -0.23763186855E+04  0.23855593380E+04  0.00000000000E+00 0. -1.
<mgrwt>
<rscale>  3 0.24418817E+03</rscale>
<asrwt>0</asrwt>
<pdfrwt beam="1">  1       21 0.18505337E-01 0.24418817E+03</pdfrwt>
<pdfrwt beam="2">  1        2 0.38612617E+00 0.24418817E+03</pdfrwt>
<totfact> 0.13364383E+03</totfact>
</mgrwt>
</event>
<event>
 4    0  0.1002184E-001  0.7257101E+03  0.7546771E-02  0.9674247E-01
          1   -1    0    0  502    0 -0.00000000000E+00  0.00000000000E+00  0.14286853073E+04  0.14286853073E+04  0.00000000000E+00 0.  1.
         21   -1    0    0  501  502  0.00000000000E+00 -0.00000000000E+00 -0.39725784514E+03  0.39725784514E+03  0.00000000000E+00 0.  1.
         25    1    1    2    0    0 -0.12074597933E+02 -0.71476177065E+03  0.25171722602E+03  0.76812547580E+03  0.12500000000E+03 0.  0.
          1    1    1    2  501    0  0.12074597933E+02  0.71476177065E+03  0.77971023618E+03  0.10578176767E+04  0.00000000000E+00 0.  1.
<mgrwt>
<rscale>  3 0.72571012E+03</rscale>
<asrwt>0</asrwt>
<pdfrwt beam="1">  1       21 0.61116592E-01 0.72571012E+03</pdfrwt>
<pdfrwt beam="2">  1        1 0.21979774E+00 0.72571012E+03</pdfrwt>
<totfact> 0.18400422E+02</totfact>
</mgrwt>
</event>
<event>
 4    0  0.1002184E-001  0.2499358E+03  0.7546771E-02  0.1113345E+00
         21   -1    0    0  501  502  0.00000000000E+00  0.00000000000E+00  0.31368092650E+03  0.31368092650E+03  0.00000000000E+00 0.  1.
          1   -1    0    0  502    0 -0.00000000000E+00 -0.00000000000E+00 -0.21398137107E+03  0.21398137107E+03  0.00000000000E+00 0. -1.
         25    1    1    2    0    0  0.21584801625E+03 -0.15892188936E+02  0.16748414600E+03  0.30086353543E+03  0.12500000000E+03 0.  0.
          1    1    1    2  501    0 -0.21584801625E+03  0.15892188936E+02 -0.67784590571E+02  0.22679876214E+03  0.00000000000E+00 0. -1.
<mgrwt>
<rscale>  3 0.24993585E+03</rscale>
<asrwt>0</asrwt>
<pdfrwt beam="1">  1       21 0.48258604E-01 0.24993585E+03</pdfrwt>
<pdfrwt beam="2">  1        1 0.32920211E-01 0.24993585E+03</pdfrwt>
<totfact> 0.59108317E+03</totfact>
</mgrwt>
</event>
<event>
 4    0  0.1123875E-001  0.2610624E+03  0.7546771E-02  0.1106507E+00
         21   -1    0    0  501  502  0.00000000000E+00  0.00000000000E+00  0.70225199392E+03  0.70225199392E+03  0.00000000000E+00 0.  1.
          3   -1    0    0  502    0 -0.00000000000E+00 -0.00000000000E+00 -0.95359573943E+02  0.95359573943E+02  0.00000000000E+00 0.  1.
         25    1    1    2    0    0 -0.15383712208E+03 -0.16989035348E+03  0.44872590672E+03  0.51914211128E+03  0.12500000000E+03 0.  0.
          3    1    1    2  501    0  0.15383712208E+03  0.16989035348E+03  0.15816651325E+03  0.27846945658E+03  0.00000000000E+00 0.  1.
<mgrwt>
<rscale>  3 0.26106243E+03</rscale>
<asrwt>0</asrwt>
<pdfrwt beam="1">  1       21 0.10803877E+00 0.26106243E+03</pdfrwt>
<pdfrwt beam="2">  1        3 0.14670704E-01 0.26106243E+03</pdfrwt>
<totfact> 0.12829411E+03</totfact>
</mgrwt>
</event>
<event>
 4    0  0.1361152E-001  0.2769904E+03  0.7546771E-02  0.1097344E+00
          2   -1    0    0  502    0 -0.00000000000E+00  0.00000000000E+00  0.47399039759E+03  0.47399039759E+03  0.00000000000E+00 0. -1.
         21   -1    0    0  501  502  0.00000000000E+00 -0.00000000000E+00 -0.25164429449E+03  0.25164429449E+03  0.00000000000E+00 0. -1.
         25    1    1    2    0    0  0.22225199268E+03 -0.10817919669E+03 -0.12124936186E+03  0.30236582908E+03  0.12500000000E+03 0.  0.
          2    1    1    2  501    0 -0.22225199268E+03  0.10817919669E+03  0.34359546496E+03  0.42326886300E+03  0.00000000000E+00 0. -1.
<mgrwt>
<rscale>  3 0.27699041E+03</rscale>
<asrwt>0</asrwt>
<pdfrwt beam="1">  1       21 0.38714507E-01 0.27699041E+03</pdfrwt>
<pdfrwt beam="2">  1        2 0.72921600E-01 0.27699041E+03</pdfrwt>
<totfact> 0.51962472E+03</totfact>
</mgrwt>
</event>
<event>
 4    0  0.1111319E-001  0.2537716E+03  0.7546771E-02  0.1110944E+00
         21   -1    0    0  501  502  0.00000000000E+00  0.00000000000E+00  0.53763994398E+02  0.53763994398E+02  0.00000000000E+00 0.  1.
          2   -1    0    0  502    0 -0.00000000000E+00 -0.00000000000E+00 -0.17087766735E+04  0.17087766735E+04  0.00000000000E+00 0. -1.
         25    1    1    2    0    0 -0.89189065787E+02 -0.20204038334E+03 -0.31526660845E+03  0.40471352876E+03  0.12500000000E+03 0.  0.
          2    1    1    2  501    0  0.89189065787E+02  0.20204038334E+03 -0.13397460707E+04  0.13578271392E+04  0.00000000000E+00 0. -1.
<mgrwt>
<rscale>  3 0.25377156E+03</rscale>
<asrwt>0</asrwt>
<pdfrwt beam="1">  1       21 0.82713852E-02 0.25377156E+03</pdfrwt>
<pdfrwt beam="2">  1        2 0.26288867E+00 0.25377156E+03</pdfrwt>
<totfact> 0.15154933E+04</totfact>
</mgrwt>
</event>
<event>
 4    0  0.1153917E-001  0.2523235E+03  0.7546771E-02  0.1111845E+00
          1   -1    0    0  502    0 -0.00000000000E+00  0.00000000000E+00  0.32706142370E+04  0.32706142370E+04  0.00000000000E+00 0. -1.
         21   -1    0    0  501  502  0.00000000000E+00 -0.00000000000E+00 -0.22622424282E+02  0.22622424282E+02  0.00000000000E+00 0. -1.
         25    1    1    2    0    0  0.11621237671E+03  0.18584087426E+03  0.88991564269E+03  0.92499567467E+03  0.12500000000E+03 0.  0.
          1    1    1    2  501    0 -0.11621237671E+03 -0.18584087426E+03  0.23580761701E+04  0.23682409866E+04  0.00000000000E+00 0. -1.
<mgrwt>
<rscale>  3 0.25232350E+03</rscale>
<asrwt>0</asrwt>
<pdfrwt beam="1">  1       21 0.34803756E-02 0.25232350E+03</pdfrwt>
<pdfrwt beam="2">  1        1 0.50317104E+00 0.25232350E+03</pdfrwt>
<totfact> 0.25919867E+03</totfact>
</mgrwt>
</event>
<event>
 4    0  0.1611870E-001  0.4135361E+03  0.7546771E-02  0.1039191E+00
         21   -1    0    0  501  502  0.00000000000E+00  0.00000000000E+00  0.29221676236E+03  0.29221676236E+03  0.00000000000E+00 0. -1.
         -3   -1    0    0    0  501 -0.00000000000E+00 -0.00000000000E+00 -0.59104743976E+03  0.59104743976E+03  0.00000000000E+00 0. -1.
         25    1    1    2    0    0  0.14853238188E+03 -0.36513727975E+03 -0.48660318704E+02  0.41638915470E+03  0.12500000000E+03 0.  0.
         -3    1    1    2    0  502 -0.14853238188E+03  0.36513727975E+03 -0.25017035870E+03  0.46687504742E+03  0.00000000000E+00 0. -1.
<mgrwt>
<rscale>  3 0.41353609E+03</rscale>
<asrwt>0</asrwt>
<pdfrwt beam="1">  1       21 0.44956425E-01 0.41353609E+03</pdfrwt>
<pdfrwt beam="2">  1       -3 0.90930375E-01 0.41353609E+03</pdfrwt>
<totfact> 0.25268258E+02</totfact>
</mgrwt>
</event>
<event>
 4    0  0.1238239E-001  0.2427046E+03  0.7546771E-02  0.1118004E+00
          2   -1    0    0  502    0 -0.00000000000E+00  0.00000000000E+00  0.10692606953E+04  0.10692606953E+04  0.00000000000E+00 0.  1.
         21   -1    0    0  501  502  0.00000000000E+00 -0.00000000000E+00 -0.12131634366E+03  0.12131634366E+03  0.00000000000E+00 0. -1.
         25    1    1    2    0    0  0.20430023540E+03  0.39267673490E+02  0.24442478707E+02  0.24393230851E+03  0.12500000000E+03 0.  0.
          2    1    1    2  501    0 -0.20430023540E+03 -0.39267673490E+02  0.92350187290E+03  0.94664473041E+03  0.00000000000E+00 0.  1.
<mgrwt>
<rscale>  3 0.24270463E+03</rscale>
<asrwt>0</asrwt>
<pdfrwt beam="1">  1       21 0.18664054E-01 0.24270463E+03</pdfrwt>
<pdfrwt beam="2">  1        2 0.16450164E+00 0.24270463E+03</pdfrwt>
<totfact> 0.78422947E+03</totfact>
</mgrwt>
</event>
<event>
 4    0  0.1243604E-001  0.3586304E+03  0.7546771E-02  0.1059127E+00
         21   -1    0    0  501  502  0.00000000000E+00  0.00000000000E+00  0.44384108064E+03  0.44384108064E+03  0.00000000000E+00 0. -1.
          2   -1    0    0  502    0 -0.00000000000E+00 -0.00000000000E+00 -0.27318746775E+04  0.27318746775E+04  0.00000000000E+00 0.  1.
         25    1    1    2    0    0  0.16005696938E+03 -0.29558840553E+03  0.35899014665E+03  0.50743439410E+03  0.12500000000E+03 0.  0.
          2    1    1    2  501    0 -0.16005696938E+03  0.29558840553E+03 -0.26470237435E+04  0.26682813640E+04  0.00000000000E+00 0.  1.
<mgrwt>
<rscale>  3 0.35863037E+03</rscale>
<asrwt>0</asrwt>
<pdfrwt beam="1">  1       21 0.68283243E-01 0.35863037E+03</pdfrwt>
<pdfrwt beam="2">  1        2 0.42028841E+00 0.35863037E+03</pdfrwt>
<totfact> 0.67071079E+01</totfact>
</mgrwt>
</event>
<event>
 4    0  0.1378598E-001  0.2714933E+03  0.7546771E-02  0.1100428E+00
         21   -1    0    0  501  502  0.00000000000E+00  0.00000000000E+00  0.19449303307E+03  0.19449303307E+03  0.00000000000E+00 0. -1.
          1   -1    0    0  502    0 -0.00000000000E+00 -0.00000000000E+00 -0.50580995680E+03  0.50580995680E+03  0.00000000000E+00 0. -1.
         25    1    1    2    0    0 -0.24100469128E+03 -0.61187650945E+00  0.39837285817E+02  0.27440051923E+03  0.12500000000E+03 0.  0.
          1    1    1    2  501    0  0.24100469128E+03  0.61187650945E+00 -0.35115420954E+03  0.42590247063E+03  0.00000000000E+00 0. -1.
<mgrwt>
<rscale>  3 0.27149334E+03</rscale>
<asrwt>0</asrwt>
<pdfrwt beam="1">  1       21 0.29922005E-01 0.27149334E+03</pdfrwt>
<pdfrwt beam="2">  1        1 0.77816916E-01 0.27149334E+03</pdfrwt>
<totfact> 0.51501245E+03</totfact>
</mgrwt>
</event>
<event>
 4    0  0.1002184E-001  0.2619372E+03  0.7546771E-02  0.1105985E+00
         21   -1    0    0  501  502  0.00000000000E+00  0.00000000000E+00  0.11840218414E+04  0.11840218414E+04  0.00000000000E+00 0. -1.
          2   -1    0    0  502    0 -0.00000000000E+00 -0.00000000000E+00 -0.10096551046E+03  0.10096551046E+03  0.00000000000E+00 0. -1.
         25    1    1    2    0    0 -0.65185137677E+02  0.22076452169E+03  0.10101081376E+04  0.10435178608E+04  0.12500000000E+03 0.  0.
          2    1    1    2  501    0  0.65185137677E+02 -0.22076452169E+03  0.72948193410E+02  0.24146949111E+03  0.00000000000E+00 0. -1.
<mgrwt>
<rscale>  3 0.26193716E+03</rscale>
<asrwt>0</asrwt>
<pdfrwt beam="1">  1       21 0.18215720E+00 0.26193716E+03</pdfrwt>
<pdfrwt beam="2">  1        2 0.15533156E-01 0.26193716E+03</pdfrwt>
<totfact> 0.77078869E+02</totfact>
</mgrwt>
</event>
<event>
 4    0  0.1110639E-001  0.2661545E+03  0.7546771E-02  0.1103501E+00
         21   -1    0    0  501  502  0.00000000000E+00  0.00000000000E+00  0.12996826202E+04  0.12996826202E+04  0.00000000000E+00 0. -1.
          3   -1    0    0  502    0 -0.00000000000E+00 -0.00000000000E+00 -0.55319295634E+03  0.55319295634E+03  0.00000000000E+00 0. -1.
         25    1    1    2    0    0  0.16123519600E+03 -0.17092812253E+03  0.12601876514E+04  0.12879872391E+04  0.12500000000E+03 0.  0.
          3    1    1    2  501    0 -0.16123519600E+03  0.17092812253E+03 -0.51369798744E+03  0.56488833747E+03  0.00000000000E+00 0. -1.
<mgrwt>
<rscale>  3 0.26615449E+03</rscale>
<asrwt>0</asrwt>
<pdfrwt beam="1">  1       21 0.19995117E+00 0.26615449E+03</pdfrwt>
<pdfrwt beam="2">  1        3 0.85106609E-01 0.26615449E+03</pdfrwt>
<totfact> 0.82055387E+00</totfact>
</mgrwt>
</event>
<event>
 4    0  0.1619895E-001  0.3762232E+03  0.7546771E-02  0.1052339E+00
         21   -1    0    0  501  502  0.00000000000E+00  0.00000000000E+00  0.32756436860E+03  0.32756436860E+03  0.00000000000E+00 0.  1.
         -1   -1    0    0    0  501 -0.00000000000E+00 -0.00000000000E+00 -0.66045916452E+03  0.66045916452E+03  0.00000000000E+00 0.  1.
         25    1    1    2    0    0  0.24014302387E+03  0.26124739711E+03  0.13594905223E+03  0.40003252269E+03  0.12500000000E+03 0.  0.
         -1    1    1    2    0  502 -0.24014302387E+03 -0.26124739711E+03 -0.46884384815E+03  0.58799101044E+03  0.00000000000E+00 0.  1.
<mgrwt>
<rscale>  3 0.37622317E+03</rscale>
<asrwt>0</asrwt>
<pdfrwt beam="1">  1       21 0.50394518E-01 0.37622317E+03</pdfrwt>
<pdfrwt beam="2">  1       -1 0.10160910E+00 0.37622317E+03</pdfrwt>
<totfact> 0.31864566E+02</totfact>
</mgrwt>
</event>
<event>
 4    0  0.1033291E-001  0.3122251E+03  0.7546771E-02  0.1079284E+00
         21   -1    0    0  501  502  0.00000000000E+00  0.00000000000E+00  0.46912366113E+03  0.46912366113E+03  0.00000000000E+00 0.  1.
          1   -1    0    0  502    0 -0.00000000000E+00 -0.00000000000E+00 -0.28549335532E+04  0.28549335532E+04  0.00000000000E+00 0.  1.
         25    1    1    2    0    0 -0.26882913937E+03 -0.97930721718E+02  0.40904852889E+03  0.51459229630E+03  0.12500000000E+03 0.  0.
          1    1    1    2  501    0  0.26882913937E+03  0.97930721718E+02 -0.27948584209E+04  0.28094649180E+04  0.00000000000E+00 0.  1.
<mgrwt>
<rscale>  3 0.31222513E+03</rscale>
<asrwt>0</asrwt>
<pdfrwt beam="1">  1       21 0.72172870E-01 0.31222513E+03</pdfrwt>
<pdfrwt beam="2">  1        1 0.43922055E+00 0.31222513E+03</pdfrwt>
<totfact> 0.16386310E+01</totfact>
</mgrwt>
</event>
<event>
 4    0  0.1002184E-001  0.3141592E+03  0.7546771E-02  0.1078369E+00
          1   -1    0    0  502    0 -0.00000000000E+00  0.00000000000E+00  0.12884915164E+04  0.12884915164E+04  0.00000000000E+00 0. -1.
         21   -1    0    0  501  502  0.00000000000E+00 -0.00000000000E+00 -0.82508758648E+02  0.82508758648E+02  0.00000000000E+00 0.  1.
         25    1    1    2    0    0  0.24661255830E+03 -0.14917523970E+03  0.36279372831E+03  0.47991175788E+03  0.12500000000E+03 0.  0.
          1    1    1    2  501    0 -0.24661255830E+03  0.14917523970E+03  0.84318902943E+03  0.89108851716E+03  0.00000000000E+00 0. -1.
<mgrwt>
<rscale>  3 0.31415920E+03</rscale>
<asrwt>0</asrwt>
<pdfrwt beam="1">  1       21 0.12693656E-01 0.31415920E+03</pdfrwt>
<pdfrwt beam="2">  1        1 0.19822945E+00 0.31415920E+03</pdfrwt>
<totfact> 0.57425940E+03</totfact>
</mgrwt>
</event>
<event>
 4    0  0.1232930E-001  0.2582168E+03  0.7546771E-02  0.1108219E+00
         21   -1    0    0  501  502  0.00000000000E+00  0.00000000000E+00  0.64111173291E+03  0.64111173291E+03  0.00000000000E+00 0.  1.
          2   -1    0    0  502    0 -0.00000000000E+00 -0.00000000000E+00 -0.23046644605E+03  0.23046644605E+03  0.00000000000E+00 0. -1.
         25    1    1    2    0    0  0.19105947347E+03  0.12061177322E+03  0.54896161768E+03  0.60665870135E+03  0.12500000000E+03 0.  0.
          2    1    1    2  501    0 -0.19105947347E+03 -0.12061177322E+03 -0.13831633082E+03  0.26491947760E+03  0.00000000000E+00 0. -1.
<mgrwt>
<rscale>  3 0.25821681E+03</rscale>
<asrwt>0</asrwt>
<pdfrwt beam="1">  1       21 0.98632573E-01 0.25821681E+03</pdfrwt>
<pdfrwt beam="2">  1        2 0.35456377E-01 0.25821681E+03</pdfrwt>
<totfact> 0.14857680E+03</totfact>
</mgrwt>
</event>
<event>
 4    0  0.1002184E-001  0.6570933E+03  0.7546771E-02  0.9793559E-01
          1   -1    0    0  502    0 -0.00000000000E+00  0.00000000000E+00  0.99423467052E+03  0.99423467052E+03  0.00000000000E+00 0.  1.
         21   -1    0    0  501  502  0.00000000000E+00 -0.00000000000E+00 -0.76672177075E+03  0.76672177075E+03  0.00000000000E+00 0. -1.
         25    1    1    2    0    0 -0.43304077266E+03  0.47814462626E+03 -0.47226628531E+03  0.80920148211E+03  0.12500000000E+03 0.  0.
          1    1    1    2  501    0  0.43304077266E+03 -0.47814462626E+03  0.69977918508E+03  0.95175495916E+03  0.00000000000E+00 0.  1.
<mgrwt>
<rscale>  3 0.65709329E+03</rscale>
<asrwt>0</asrwt>
<pdfrwt beam="1">  1       21 0.11795720E+00 0.65709329E+03</pdfrwt>
<pdfrwt beam="2">  1        1 0.15295918E+00 0.65709329E+03</pdfrwt>
<totfact> 0.81083614E+01</totfact>
</mgrwt>
</event>
<event>
 4    0  0.1002184E-001  0.2611840E+03  0.7546771E-02  0.1106434E+00
         -2   -1    0    0    0  501 -0.00000000000E+00  0.00000000000E+00  0.60870071655E+03  0.60870071655E+03  0.00000000000E+00 0.  1.
         21   -1    0    0  501  502  0.00000000000E+00 -0.00000000000E+00 -0.20280602387E+03  0.20280602387E+03  0.00000000000E+00 0. -1.
         25    1    1    2    0    0 -0.17881983469E+03  0.14358106837E+03 -0.80876452962E+02  0.27341919669E+03  0.12500000000E+03 0.  0.
         -2    1    1    2    0  502  0.17881983469E+03 -0.14358106837E+03  0.48677114564E+03  0.53808754372E+03  0.00000000000E+00 0.  1.
<mgrwt>
<rscale>  3 0.26118395E+03</rscale>
<asrwt>0</asrwt>
<pdfrwt beam="1">  1       21 0.31200927E-01 0.26118395E+03</pdfrwt>
<pdfrwt beam="2">  1       -2 0.93646264E-01 0.26118395E+03</pdfrwt>
<totfact> 0.79157871E+02</totfact>
</mgrwt>
</event>
<event>
 4    0  0.1040739E-001  0.6128201E+03  0.7546771E-02  0.9879160E-01
          2   -1    0    0  502    0 -0.00000000000E+00  0.00000000000E+00  0.12026698264E+04  0.12026698264E+04  0.00000000000E+00 0. -1.
         21   -1    0    0  501  502  0.00000000000E+00 -0.00000000000E+00 -0.10750135145E+04  0.10750135145E+04  0.00000000000E+00 0. -1.
         25    1    1    2    0    0  0.51330967137E+02  0.59773618501E+03 -0.89934678621E+03  0.10882890503E+04  0.12500000000E+03 0.  0.
          2    1    1    2  501    0 -0.51330967137E+02 -0.59773618501E+03  0.10270030981E+04  0.11893942906E+04  0.00000000000E+00 0. -1.
<mgrwt>
<rscale>  3 0.61282005E+03</rscale>
<asrwt>0</asrwt>
<pdfrwt beam="1">  1       21 0.16538669E+00 0.61282005E+03</pdfrwt>
<pdfrwt beam="2">  1        2 0.18502613E+00 0.61282005E+03</pdfrwt>
<totfact> 0.46345292E+01</totfact>
</mgrwt>
</event>
<event>
 4    0  0.1323223E-001  0.2416552E+03  0.7546771E-02  0.1118695E+00
         21   -1    0    0  501  502  0.00000000000E+00  0.00000000000E+00  0.14612375240E+03  0.14612375240E+03  0.00000000000E+00 0. -1.
          4   -1    0    0  502    0 -0.00000000000E+00 -0.00000000000E+00 -0.16969345376E+04  0.16969345376E+04  0.00000000000E+00 0. -1.
         25    1    1    2    0    0  0.16109926039E+03  0.12968906438E+03  0.34684231160E+02  0.24413156496E+03  0.12500000000E+03 0.  0.
          4    1    1    2  501    0 -0.16109926039E+03 -0.12968906438E+03 -0.15854950163E+04  0.15989267250E+04  0.00000000000E+00 0. -1.
<mgrwt>
<rscale>  3 0.24165518E+03</rscale>
<asrwt>0</asrwt>
<pdfrwt beam="1">  1       21 0.22480579E-01 0.24165518E+03</pdfrwt>
<pdfrwt beam="2">  1        4 0.26106683E+00 0.24165518E+03</pdfrwt>
<totfact> 0.47789583E+01</totfact>
</mgrwt>
</event>
<event>
 4    0  0.1591025E-001  0.3295527E+03  0.7546771E-02  0.1071335E+00
         -2   -1    0    0    0  501 -0.00000000000E+00  0.00000000000E+00  0.21196669086E+03  0.21196669086E+03  0.00000000000E+00 0.  1.
         21   -1    0    0  501  502  0.00000000000E+00 -0.00000000000E+00 -0.48234833921E+03  0.48234833921E+03  0.00000000000E+00 0.  1.
         25    1    1    2    0    0 -0.27455727298E+03 -0.13265843341E+03 -0.96947119065E+02  0.34351666626E+03  0.12500000000E+03 0.  0.
         -2    1    1    2    0  502  0.27455727298E+03  0.13265843341E+03 -0.17343452929E+03  0.35079836381E+03  0.00000000000E+00 0.  1.
<mgrwt>
<rscale>  3 0.32955266E+03</rscale>
<asrwt>0</asrwt>
<pdfrwt beam="1">  1       21 0.74207436E-01 0.32955266E+03</pdfrwt>
<pdfrwt beam="2">  1       -2 0.32610261E-01 0.32955266E+03</pdfrwt>
<totfact> 0.11016315E+03</totfact>
</mgrwt>
</event>
<event>
 4    0  0.1002184E-001  0.2397519E+03  0.7546771E-02  0.1119958E+00
          2   -1    0    0  502    0 -0.00000000000E+00  0.00000000000E+00  0.27472063006E+04  0.27472063006E+04  0.00000000000E+00 0. -1.
         21   -1    0    0  501  502  0.00000000000E+00 -0.00000000000E+00 -0.19278251622E+02  0.19278251622E+02  0.00000000000E+00 0.  1.
         25    1    1    2    0    0  0.20458616786E+03  0.69699067665E+00  0.11048835553E+04  0.11305965932E+04  0.12500000000E+03 0.  0.
          2    1    1    2  501    0 -0.20458616786E+03 -0.69699067665E+00  0.16230444936E+04  0.16358879589E+04  0.00000000000E+00 0. -1.
<mgrwt>
<rscale>  3 0.23975193E+03</rscale>
<asrwt>0</asrwt>
<pdfrwt beam="1">  1       21 0.29658870E-02 0.23975193E+03</pdfrwt>
<pdfrwt beam="2">  1        2 0.42264681E+00 0.23975193E+03</pdfrwt>
<totfact> 0.24289345E+04</totfact>
</mgrwt>
</event>
<event>
 4    0  0.1115128E-001  0.3542397E+03  0.7546771E-02  0.1060888E+00
         21   -1    0    0  501  502  0.00000000000E+00  0.00000000000E+00  0.19841396112E+03  0.19841396112E+03  0.00000000000E+00 0.  1.
          2   -1    0    0  502    0 -0.00000000000E+00 -0.00000000000E+00 -0.95917156225E+03  0.95917156225E+03  0.00000000000E+00 0. -1.
         25    1    1    2    0    0 -0.31362730668E+03 -0.10723175206E+03 -0.30406541092E+02  0.35554225331E+03  0.12500000000E+03 0.  0.
          2    1    1    2  501    0  0.31362730668E+03  0.10723175206E+03 -0.73035106004E+03  0.80204327006E+03  0.00000000000E+00 0. -1.
<mgrwt>
<rscale>  3 0.35423966E+03</rscale>
<asrwt>0</asrwt>
<pdfrwt beam="1">  1       21 0.30525224E-01 0.35423966E+03</pdfrwt>
<pdfrwt beam="2">  1        2 0.14756486E+00 0.35423966E+03</pdfrwt>
<totfact> 0.34575217E+03</totfact>
</mgrwt>
</event>
<event>
 4    0  0.1344773E-001  0.2507747E+03  0.7546771E-02  0.1112816E+00
         -4   -1    0    0    0  501 -0.00000000000E+00  0.00000000000E+00  0.65209901790E+02  0.65209901790E+02  0.00000000000E+00 0. -1.
         21   -1    0    0  501  502  0.00000000000E+00 -0.00000000000E+00 -0.84067042180E+03  0.84067042180E+03  0.00000000000E+00 0. -1.
         25    1    1    2    0    0 -0.96099008813E+02 -0.19500747907E+03 -0.42462431447E+03  0.49314677817E+03  0.12500000000E+03 0.  0.
         -4    1    1    2    0  502  0.96099008813E+02  0.19500747907E+03 -0.35083620554E+03  0.41273354541E+03  0.00000000000E+00 0. -1.
<mgrwt>
<rscale>  3 0.25077467E+03</rscale>
<asrwt>0</asrwt>
<pdfrwt beam="1">  1       21 0.12933391E+00 0.25077467E+03</pdfrwt>
<pdfrwt beam="2">  1       -4 0.10032293E-01 0.25077467E+03</pdfrwt>
<totfact> 0.13843568E+03</totfact>
</mgrwt>
</event>
<event>
 4    0  0.1002184E-001  0.2442693E+03  0.7546771E-02  0.1116981E+00
          1   -1    0    0  502    0 -0.00000000000E+00  0.00000000000E+00  0.73196794849E+03  0.73196794849E+03  0.00000000000E+00 0.  1.
         21   -1    0    0  501  502  0.00000000000E+00 -0.00000000000E+00 -0.94177139869E+02  0.94177139869E+02  0.00000000000E+00 0. -1.
         25    1    1    2    0    0 -0.52148369463E+02  0.20328074754E+03  0.13002663577E+03  0.27672087158E+03  0.12500000000E+03 0.  0.
          1    1    1    2  501    0  0.52148369463E+02 -0.20328074754E+03  0.50776417285E+03  0.54942421678E+03  0.00000000000E+00 0.  1.
<mgrwt>
<rscale>  3 0.24426935E+03</rscale>
<asrwt>0</asrwt>
<pdfrwt beam="1">  1       21 0.14488791E-01 0.24426935E+03</pdfrwt>
<pdfrwt beam="2">  1        1 0.11261045E+00 0.24426935E+03</pdfrwt>
<totfact> 0.12149610E+04</totfact>
</mgrwt>
</event>
<event>
 4    0  0.1181338E-001  0.3025657E+03  0.7546771E-02  0.1083965E+00
         -1   -1    0    0    0  501 -0.00000000000E+00  0.00000000000E+00  0.11324014297E+04  0.11324014297E+04  0.00000000000E+00 0.  1.
         21   -1    0    0  501  502  0.00000000000E+00 -0.00000000000E+00 -0.15742417969E+03  0.15742417969E+03  0.00000000000E+00 0. -1.
         25    1    1    2    0    0  0.12458297511E+03 -0.24576429693E+03  0.28324886689E+02  0.30388864167E+03  0.12500000000E+03 0.  0.
         -1    1    1    2    0  502 -0.12458297511E+03  0.24576429693E+03  0.94665236330E+03  0.98593696770E+03  0.00000000000E+00 0.  1.
<mgrwt>
<rscale>  3 0.30256571E+03</rscale>
<asrwt>0</asrwt>
<pdfrwt beam="1">  1       21 0.24219105E-01 0.30256571E+03</pdfrwt>
<pdfrwt beam="2">  1       -1 0.17421560E+00 0.30256571E+03</pdfrwt>
<totfact> 0.36663776E+02</totfact>
</mgrwt>
</event>
<event>
 4    0  0.1440096E-001  0.2948418E+03  0.7546771E-02  0.1087848E+00
         21   -1    0    0  501  502  0.00000000000E+00  0.00000000000E+00  0.49958575123E+03  0.49958575123E+03  0.00000000000E+00 0. -1.
         -2   -1    0    0    0  501 -0.00000000000E+00 -0.00000000000E+00 -0.17710526675E+03  0.17710526675E+03  0.00000000000E+00 0. -1.
         25    1    1    2    0    0  0.25681602693E+03 -0.73158958451E+02  0.27941517443E+03  0.40620751420E+03  0.12500000000E+03 0.  0.
         -2    1    1    2    0  502 -0.25681602693E+03  0.73158958451E+02  0.43065310049E+02  0.27048350379E+03  0.00000000000E+00 0. -1.
<mgrwt>
<rscale>  3 0.29484183E+03</rscale>
<asrwt>0</asrwt>
<pdfrwt beam="1">  1       21 0.76859346E-01 0.29484183E+03</pdfrwt>
<pdfrwt beam="2">  1       -2 0.27246964E-01 0.29484183E+03</pdfrwt>
<totfact> 0.14244722E+03</totfact>
</mgrwt>
</event>
<event>
 4    0  0.1335604E-001  0.2703381E+03  0.7546771E-02  0.1101086E+00
         21   -1    0    0  501  502  0.00000000000E+00  0.00000000000E+00  0.27274034038E+03  0.27274034038E+03  0.00000000000E+00 0. -1.
          2   -1    0    0  502    0 -0.00000000000E+00 -0.00000000000E+00 -0.37246350153E+03  0.37246350153E+03  0.00000000000E+00 0. -1.
         25    1    1    2    0    0 -0.18197513958E+03 -0.15602165786E+03  0.14150398508E+03  0.30513290046E+03  0.12500000000E+03 0.  0.
          2    1    1    2  501    0  0.18197513958E+03  0.15602165786E+03 -0.24122714622E+03  0.34007094145E+03  0.00000000000E+00 0. -1.
<mgrwt>
<rscale>  3 0.27033814E+03</rscale>
<asrwt>0</asrwt>
<pdfrwt beam="1">  1       21 0.41960053E-01 0.27033814E+03</pdfrwt>
<pdfrwt beam="2">  1        2 0.57302077E-01 0.27033814E+03</pdfrwt>
<totfact> 0.57576648E+03</totfact>
</mgrwt>
</event>
<event>
 4    0  0.1444840E-001  0.2795222E+03  0.7546771E-02  0.1095950E+00
          2   -1    0    0  502    0 -0.00000000000E+00  0.00000000000E+00  0.22919724013E+04  0.22919724013E+04  0.00000000000E+00 0.  1.
         21   -1    0    0  501  502  0.00000000000E+00 -0.00000000000E+00 -0.13049440959E+03  0.13049440959E+03  0.00000000000E+00 0. -1.
         25    1    1    2    0    0 -0.21493028476E+03  0.12772086111E+03  0.35418214565E+02  0.28175715713E+03  0.12500000000E+03 0.  0.
          2    1    1    2  501    0  0.21493028476E+03 -0.12772086111E+03  0.21260597771E+04  0.21407096537E+04  0.00000000000E+00 0.  1.
<mgrwt>
<rscale>  3 0.27952217E+03</rscale>
<asrwt>0</asrwt>
<pdfrwt beam="1">  1       21 0.20076065E-01 0.27952217E+03</pdfrwt>
<pdfrwt beam="2">  1        2 0.35261111E+00 0.27952217E+03</pdfrwt>
<totfact> 0.14774238E+03</totfact>
</mgrwt>
</event>
<event>
 4    0  0.1194028E-001  0.2622096E+03  0.7546771E-02  0.1105823E+00
          2   -1    0    0  502    0 -0.00000000000E+00  0.00000000000E+00  0.35538597187E+03  0.35538597187E+03  0.00000000000E+00 0.  1.
         21   -1    0    0  501  502  0.00000000000E+00 -0.00000000000E+00 -0.11587821490E+04  0.11587821490E+04  0.00000000000E+00 0. -1.
         25    1    1    2    0    0  0.53389024078E+02  0.22422869186E+03 -0.11043701630E+04  0.11350715180E+04  0.12500000000E+03 0.  0.
          2    1    1    2  501    0 -0.53389024078E+02 -0.22422869186E+03  0.30097398584E+03  0.37909660286E+03  0.00000000000E+00 0.  1.
<mgrwt>
<rscale>  3 0.26220964E+03</rscale>
<asrwt>0</asrwt>
<pdfrwt beam="1">  1       21 0.17827418E+00 0.26220964E+03</pdfrwt>
<pdfrwt beam="2">  1        2 0.54674764E-01 0.26220964E+03</pdfrwt>
<totfact> 0.20112929E+02</totfact>
</mgrwt>
</event>
<event>
 4    0  0.1724968E-001  0.3173933E+03  0.7546771E-02  0.1076855E+00
         -4   -1    0    0    0  501 -0.00000000000E+00  0.00000000000E+00  0.45233079155E+03  0.45233079155E+03  0.00000000000E+00 0.  1.
         21   -1    0    0  501  502  0.00000000000E+00 -0.00000000000E+00 -0.33251122087E+03  0.33251122087E+03  0.00000000000E+00 0.  1.
         25    1    1    2    0    0  0.20190630338E+03 -0.21058813731E+03 -0.18133987706E+03  0.36554434742E+03  0.12500000000E+03 0.  0.
         -4    1    1    2    0  502 -0.20190630338E+03  0.21058813731E+03  0.30115944774E+03  0.41929766501E+03  0.00000000000E+00 0.  1.
<mgrwt>
<rscale>  3 0.31739332E+03</rscale>
<asrwt>0</asrwt>
<pdfrwt beam="1">  1       21 0.51155572E-01 0.31739332E+03</pdfrwt>
<pdfrwt beam="2">  1       -4 0.69589353E-01 0.31739332E+03</pdfrwt>
<totfact> 0.29062024E+02</totfact>
</mgrwt>
</event>
<event>
 4    0  0.1421563E-001  0.3658028E+03  0.7546771E-02  0.1056310E+00
         21   -1    0    0  501  502  0.00000000000E+00  0.00000000000E+00  0.91616676166E+03  0.91616676166E+03  0.00000000000E+00 0. -1.
          2   -1    0    0  502    0 -0.00000000000E+00 -0.00000000000E+00 -0.91317622725E+03  0.91317622725E+03  0.00000000000E+00 0. -1.
         25    1    1    2    0    0  0.32880822406E+03  0.10035873654E+03  0.84449846488E+03  0.92032026023E+03  0.12500000000E+03 0.  0.
          2    1    1    2  501    0 -0.32880822406E+03 -0.10035873654E+03 -0.84150793047E+03  0.90902272868E+03  0.00000000000E+00 0. -1.
<mgrwt>
<rscale>  3 0.36580285E+03</rscale>
<asrwt>0</asrwt>
<pdfrwt beam="1">  1       21 0.14094873E+00 0.36580285E+03</pdfrwt>
<pdfrwt beam="2">  1        2 0.14048865E+00 0.36580285E+03</pdfrwt>
<totfact> 0.11886978E+02</totfact>
</mgrwt>
</event>
<event>
 4    0  0.1548790E-001  0.2460281E+03  0.7546771E-02  0.1115841E+00
          2   -1    0    0  502    0 -0.00000000000E+00  0.00000000000E+00  0.15986692937E+04  0.15986692937E+04  0.00000000000E+00 0.  1.
         21   -1    0    0  501  502  0.00000000000E+00 -0.00000000000E+00 -0.30396990236E+03  0.30396990236E+03  0.00000000000E+00 0. -1.
         25    1    1    2    0    0  0.20713519019E+03  0.44719421045E+02 -0.24571654443E+03  0.34771602471E+03  0.12500000000E+03 0.  0.
          2    1    1    2  501    0 -0.20713519019E+03 -0.44719421045E+02  0.15404159357E+04  0.15549231713E+04  0.00000000000E+00 0.  1.
<mgrwt>
<rscale>  3 0.24602807E+03</rscale>
<asrwt>0</asrwt>
<pdfrwt beam="1">  1       21 0.46764601E-01 0.24602807E+03</pdfrwt>
<pdfrwt beam="2">  1        2 0.24594912E+00 0.24602807E+03</pdfrwt>
<totfact> 0.65867411E+02</totfact>
</mgrwt>
</event>
<event>
 4    0  0.1002184E-001  0.4753812E+03  0.7546771E-02  0.1020412E+00
         -4   -1    0    0    0  501 -0.00000000000E+00  0.00000000000E+00  0.93547098304E+03  0.93547098304E+03  0.00000000000E+00 0.  1.
         21   -1    0    0  501  502  0.00000000000E+00 -0.00000000000E+00 -0.36917993677E+03  0.36917993677E+03  0.00000000000E+00 0. -1.
         25    1    1    2    0    0 -0.40770387467E+03 -0.21009479465E+03 -0.10958239067E+03  0.48784789894E+03  0.12500000000E+03 0.  0.
         -4    1    1    2    0  502  0.40770387467E+03  0.21009479465E+03  0.67587343694E+03  0.81680302088E+03  0.00000000000E+00 0.  1.
<mgrwt>
<rscale>  3 0.47538119E+03</rscale>
<asrwt>0</asrwt>
<pdfrwt beam="1">  1       21 0.56796914E-01 0.47538119E+03</pdfrwt>
<pdfrwt beam="2">  1       -4 0.14391861E+00 0.47538119E+03</pdfrwt>
<totfact> 0.40382104E+01</totfact>
</mgrwt>
</event>
<event>
 4    0  0.1511086E-001  0.2455138E+03  0.7546771E-02  0.1116173E+00
         21   -1    0    0  501  502  0.00000000000E+00  0.00000000000E+00  0.82777685791E+02  0.82777685791E+02  0.00000000000E+00 0.  1.
          2   -1    0    0  502    0 -0.00000000000E+00 -0.00000000000E+00 -0.69540564343E+03  0.69540564343E+03  0.00000000000E+00 0.  1.
         25    1    1    2    0    0 -0.20780287187E+03 -0.38340730978E+02 -0.20831977713E+03  0.32198474304E+03  0.12500000000E+03 0.  0.
          2    1    1    2  501    0  0.20780287187E+03  0.38340730978E+02 -0.40430818050E+03  0.45619858618E+03  0.00000000000E+00 0.  1.
<mgrwt>
<rscale>  3 0.24551384E+03</rscale>
<asrwt>0</asrwt>
<pdfrwt beam="1">  1       21 0.12735028E-01 0.24551384E+03</pdfrwt>
<pdfrwt beam="2">  1        2 0.10698549E+00 0.24551384E+03</pdfrwt>
<totfact> 0.27912592E+04</totfact>
</mgrwt>
</event>
<event>
 4    0  0.1706159E-001  0.2411725E+03  0.7546771E-02  0.1119014E+00
         21   -1    0    0  501  502  0.00000000000E+00  0.00000000000E+00  0.73323425488E+03  0.73323425488E+03  0.00000000000E+00 0. -1.
          2   -1    0    0  502    0 -0.00000000000E+00 -0.00000000000E+00 -0.12109237434E+04  0.12109237434E+04  0.00000000000E+00 0.  1.
         25    1    1    2    0    0  0.20608677427E+03  0.82095322629E+01  0.70422793747E+03  0.74437970342E+03  0.12500000000E+03 0.  0.
          2    1    1    2  501    0 -0.20608677427E+03 -0.82095322629E+01 -0.11819174260E+04  0.11997782949E+04  0.00000000000E+00 0.  1.
<mgrwt>
<rscale>  3 0.24117246E+03</rscale>
<asrwt>0</asrwt>
<pdfrwt beam="1">  1       21 0.11280527E+00 0.24117246E+03</pdfrwt>
<pdfrwt beam="2">  1        2 0.18629596E+00 0.24117246E+03</pdfrwt>
<totfact> 0.14876221E+02</totfact>
</mgrwt>
</event>
<event>
 4    0  0.1616029E-001  0.2504258E+03  0.7546771E-02  0.1113036E+00
         21   -1    0    0  501  502  0.00000000000E+00  0.00000000000E+00  0.33390187613E+02  0.33390187613E+02  0.00000000000E+00 0.  1.
          2   -1    0    0  502    0 -0.00000000000E+00 -0.00000000000E+00 -0.17771021414E+04  0.17771021414E+04  0.00000000000E+00 0.  1.
         25    1    1    2    0    0  0.18556750566E+03  0.11248459337E+03 -0.67463329072E+03  0.71961320156E+03  0.12500000000E+03 0.  0.
          2    1    1    2  501    0 -0.18556750566E+03 -0.11248459337E+03 -0.10690786631E+04  0.10908791275E+04  0.00000000000E+00 0.  1.
<mgrwt>
<rscale>  3 0.25042580E+03</rscale>
<asrwt>0</asrwt>
<pdfrwt beam="1">  1       21 0.51369528E-02 0.25042580E+03</pdfrwt>
<pdfrwt beam="2">  1        2 0.27340029E+00 0.25042580E+03</pdfrwt>
<totfact> 0.31845942E+04</totfact>
</mgrwt>
</event>
<event>
 4    0  0.1002184E-001  0.4238052E+03  0.7546771E-02  0.1035835E+00
         21   -1    0    0  501  502  0.00000000000E+00  0.00000000000E+00  0.85457479429E+02  0.85457479429E+02  0.00000000000E+00 0. -1.
          2   -1    0    0  502    0 -0.00000000000E+00 -0.00000000000E+00 -0.34890485740E+04  0.34890485740E+04  0.00000000000E+00 0.  1.
         25    1    1    2    0    0  0.38473696071E+03  0.12634608515E+03 -0.56033413711E+03  0.70255619518E+03  0.12500000000E+03 0.  0.
          2    1    1    2  501    0 -0.38473696071E+03 -0.12634608515E+03 -0.28432569574E+04  0.28719498582E+04  0.00000000000E+00 0.  1.
<mgrwt>
<rscale>  3 0.42380522E+03</rscale>
<asrwt>0</asrwt>
<pdfrwt beam="1">  1       21 0.13147309E-01 0.42380522E+03</pdfrwt>
<pdfrwt beam="2">  1        2 0.53677650E+00 0.42380522E+03</pdfrwt>
<totfact> 0.59693381E+02</totfact>
</mgrwt>
</event>
<event>
 4    0  0.1002184E-001  0.2359834E+03  0.7546771E-02  0.1122498E+00
          4   -1    0    0  502    0 -0.00000000000E+00  0.00000000000E+00  0.99831196055E+02  0.99831196055E+02  0.00000000000E+00 0. -1.
         21   -1    0    0  501  502  0.00000000000E+00 -0.00000000000E+00 -0.83044944851E+03  0.83044944851E+03  0.00000000000E+00 0.  1.
         25    1    1    2    0    0 -0.38900850152E+02 -0.19634131048E+03 -0.68566381892E+03  0.72513657949E+03  0.12500000000E+03 0.  0.
          4    1    1    2  501    0  0.38900850152E+02  0.19634131048E+03 -0.44954433543E+02  0.20514406508E+03  0.00000000000E+00 0. -1.
<mgrwt>
<rscale>  3 0.23598345E+03</rscale>
<asrwt>0</asrwt>
<pdfrwt beam="1">  1       21 0.12776146E+00 0.23598345E+03</pdfrwt>
<pdfrwt beam="2">  1        4 0.15358645E-01 0.23598345E+03</pdfrwt>
<totfact> 0.68271789E+02</totfact>
</mgrwt>
</event>
<event>
 4    0  0.1013024E-001  0.2554600E+03  0.7546771E-02  0.1109902E+00
         21   -1    0    0  501  502  0.00000000000E+00  0.00000000000E+00  0.83921296594E+03  0.83921296594E+03  0.00000000000E+00 0.  1.
          4   -1    0    0  502    0 -0.00000000000E+00 -0.00000000000E+00 -0.20114519862E+03  0.20114519862E+03  0.00000000000E+00 0.  1.
         25    1    1    2    0    0  0.20805413083E+03  0.79676196590E+02  0.74908094178E+03  0.79144303332E+03  0.12500000000E+03 0.  0.
          4    1    1    2  501    0 -0.20805413083E+03 -0.79676196590E+02 -0.11101317445E+03  0.24891513124E+03  0.00000000000E+00 0.  1.
<mgrwt>
<rscale>  3 0.25546001E+03</rscale>
<asrwt>0</asrwt>
<pdfrwt beam="1">  1       21 0.12910968E+00 0.25546001E+03</pdfrwt>
<pdfrwt beam="2">  1        4 0.30945416E-01 0.25546001E+03</pdfrwt>
<totfact> 0.18247312E+02</totfact>
</mgrwt>
</event>
<event>
 4    0  0.1514766E-001  0.3694389E+03  0.7546771E-02  0.1054908E+00
          1   -1    0    0  502    0 -0.00000000000E+00  0.00000000000E+00  0.12954121709E+04  0.12954121709E+04  0.00000000000E+00 0. -1.
         21   -1    0    0  501  502  0.00000000000E+00 -0.00000000000E+00 -0.31501047306E+03  0.31501047306E+03  0.00000000000E+00 0. -1.
         25    1    1    2    0    0  0.25465935319E+03  0.23666158504E+03 -0.17142598554E+03  0.40727381517E+03  0.12500000000E+03 0.  0.
          1    1    1    2  501    0 -0.25465935319E+03 -0.23666158504E+03  0.11518276833E+04  0.12031488287E+04  0.00000000000E+00 0. -1.
<mgrwt>
<rscale>  3 0.36943889E+03</rscale>
<asrwt>0</asrwt>
<pdfrwt beam="1">  1       21 0.48463150E-01 0.36943889E+03</pdfrwt>
<pdfrwt beam="2">  1        1 0.19929418E+00 0.36943889E+03</pdfrwt>
<totfact> 0.41342026E+02</totfact>
</mgrwt>
</event>
<event>
 4    0  0.1158547E-001  0.3456029E+03  0.7546771E-02  0.1064434E+00
         21   -1    0    0  501  502  0.00000000000E+00  0.00000000000E+00  0.13749985194E+04  0.13749985194E+04  0.00000000000E+00 0.  1.
          2   -1    0    0  502    0 -0.00000000000E+00 -0.00000000000E+00 -0.25131366826E+03  0.25131366826E+03  0.00000000000E+00 0. -1.
         25    1    1    2    0    0  0.17769045475E+03  0.26877953015E+03  0.12373012807E+04  0.12846617426E+04  0.12500000000E+03 0.  0.
          2    1    1    2  501    0 -0.17769045475E+03 -0.26877953015E+03 -0.11361642961E+03  0.34165044507E+03  0.00000000000E+00 0. -1.
<mgrwt>
<rscale>  3 0.34560286E+03</rscale>
<asrwt>0</asrwt>
<pdfrwt beam="1">  1       21 0.21153823E+00 0.34560286E+03</pdfrwt>
<pdfrwt beam="2">  1        2 0.38663642E-01 0.34560286E+03</pdfrwt>
<totfact> 0.16826613E+02</totfact>
</mgrwt>
</event>
<event>
 4    0  0.1105931E-001  0.3190039E+03  0.7546771E-02  0.1076109E+00
         21   -1    0    0  501  502  0.00000000000E+00  0.00000000000E+00  0.95740697754E+03  0.95740697754E+03  0.00000000000E+00 0. -1.
         -1   -1    0    0    0  501 -0.00000000000E+00 -0.00000000000E+00 -0.98019092405E+02  0.98019092405E+02  0.00000000000E+00 0. -1.
         25    1    1    2    0    0  0.28574584575E+03  0.66991183297E+02  0.43471729385E+03  0.53920555688E+03  0.12500000000E+03 0.  0.
         -1    1    1    2    0  502 -0.28574584575E+03 -0.66991183297E+02  0.42467059129E+03  0.51622051306E+03  0.00000000000E+00 0. -1.
<mgrwt>
<rscale>  3 0.31900393E+03</rscale>
<asrwt>0</asrwt>
<pdfrwt beam="1">  1       21 0.14729337E+00 0.31900393E+03</pdfrwt>
<pdfrwt beam="2">  1       -1 0.15079861E-01 0.31900393E+03</pdfrwt>
<totfact> 0.85554139E+02</totfact>
</mgrwt>
</event>
<event>
 4    0  0.1002184E-001  0.4146710E+03  0.7546771E-02  0.1038815E+00
         21   -1    0    0  501  502  0.00000000000E+00  0.00000000000E+00  0.50165414703E+02  0.50165414703E+02  0.00000000000E+00 0.  1.
          2   -1    0    0  502    0 -0.00000000000E+00 -0.00000000000E+00 -0.34674639053E+04  0.34674639053E+04  0.00000000000E+00 0.  1.
         25    1    1    2    0    0  0.21184490025E+03 -0.33383942402E+03 -0.13275322055E+04  0.13907889054E+04  0.12500000000E+03 0.  0.
          2    1    1    2  501    0 -0.21184490025E+03  0.33383942402E+03 -0.20897662852E+04  0.21268404147E+04  0.00000000000E+00 0.  1.
<mgrwt>
<rscale>  3 0.41467098E+03</rscale>
<asrwt>0</asrwt>
<pdfrwt beam="1">  1       21 0.77177544E-02 0.41467098E+03</pdfrwt>
<pdfrwt beam="2">  1        2 0.53345610E+00 0.41467098E+03</pdfrwt>
<totfact> 0.16133572E+03</totfact>
</mgrwt>
</event>
<event>
 4    0  0.1374841E-001  0.2967419E+03  0.7546771E-02  0.1086881E+00
         21   -1    0    0  501  502  0.00000000000E+00  0.00000000000E+00  0.26190268943E+03  0.26190268943E+03  0.00000000000E+00 0.  1.
          2   -1    0    0  502    0 -0.00000000000E+00 -0.00000000000E+00 -0.34372209856E+03  0.34372209856E+03  0.00000000000E+00 0.  1.
         25    1    1    2    0    0 -0.16205730497E+03  0.21486777809E+03  0.57977712248E+02  0.30235268690E+03  0.12500000000E+03 0.  0.
          2    1    1    2  501    0  0.16205730497E+03 -0.21486777809E+03 -0.13979712138E+03  0.30327210109E+03  0.00000000000E+00 0.  1.
<mgrwt>
<rscale>  3 0.29674186E+03</rscale>
<asrwt>0</asrwt>
<pdfrwt beam="1">  1       21 0.40292722E-01 0.29674186E+03</pdfrwt>
<pdfrwt beam="2">  1        2 0.52880322E-01 0.29674186E+03</pdfrwt>
<totfact> 0.67903476E+03</totfact>
</mgrwt>
</event>
<event>
 4    0  0.1709440E-001  0.2591024E+03  0.7546771E-02  0.1107684E+00
          2   -1    0    0  502    0 -0.00000000000E+00  0.00000000000E+00  0.19174855296E+04  0.19174855296E+04  0.00000000000E+00 0. -1.
         21   -1    0    0  501  502  0.00000000000E+00 -0.00000000000E+00 -0.40808849224E+03  0.40808849224E+03  0.00000000000E+00 0.  1.
         25    1    1    2    0    0 -0.15824168233E+03  0.16269176549E+03 -0.35939214157E+03  0.44305389290E+03  0.12500000000E+03 0.  0.
          2    1    1    2  501    0  0.15824168233E+03 -0.16269176549E+03  0.18687891789E+04  0.18825201289E+04  0.00000000000E+00 0. -1.
<mgrwt>
<rscale>  3 0.25910237E+03</rscale>
<asrwt>0</asrwt>
<pdfrwt beam="1">  1       21 0.62782846E-01 0.25910237E+03</pdfrwt>
<pdfrwt beam="2">  1        2 0.29499777E+00 0.25910237E+03</pdfrwt>
<totfact> 0.23749250E+02</totfact>
</mgrwt>
</event>
<event>
 4    0  0.1002184E-001  0.3929320E+03  0.7546771E-02  0.1046255E+00
          3   -1    0    0  502    0 -0.00000000000E+00  0.00000000000E+00  0.26199351736E+03  0.26199351736E+03  0.00000000000E+00 0. -1.
         21   -1    0    0  501  502  0.00000000000E+00 -0.00000000000E+00 -0.56461112738E+03  0.56461112738E+03  0.00000000000E+00 0.  1.
         25    1    1    2    0    0  0.22598125442E+03  0.29614703788E+03 -0.19614656589E+03  0.43916861307E+03  0.12500000000E+03 0.  0.
          3    1    1    2  501    0 -0.22598125442E+03 -0.29614703788E+03 -0.10647104413E+03  0.38743603167E+03  0.00000000000E+00 0. -1.
<mgrwt>
<rscale>  3 0.39293205E+03</rscale>
<asrwt>0</asrwt>
<pdfrwt beam="1">  1       21 0.86863250E-01 0.39293205E+03</pdfrwt>
<pdfrwt beam="2">  1        3 0.40306695E-01 0.39293205E+03</pdfrwt>
<totfact> 0.33062397E+02</totfact>
</mgrwt>
</event>
<event>
 4    0  0.1050429E-001  0.2609465E+03  0.7546771E-02  0.1106576E+00
         21   -1    0    0  501  502  0.00000000000E+00  0.00000000000E+00  0.96792144903E+03  0.96792144903E+03  0.00000000000E+00 0. -1.
          1   -1    0    0  502    0 -0.00000000000E+00 -0.00000000000E+00 -0.13827669339E+03  0.13827669339E+03  0.00000000000E+00 0. -1.
         25    1    1    2    0    0 -0.22619713528E+03 -0.36096332518E+02  0.83729083890E+03  0.87701142418E+03  0.12500000000E+03 0.  0.
          1    1    1    2  501    0  0.22619713528E+03  0.36096332518E+02 -0.76460832594E+01  0.22918671825E+03  0.00000000000E+00 0. -1.
<mgrwt>
<rscale>  3 0.26094653E+03</rscale>
<asrwt>0</asrwt>
<pdfrwt beam="1">  1       21 0.14891099E+00 0.26094653E+03</pdfrwt>
<pdfrwt beam="2">  1        1 0.21273338E-01 0.26094653E+03</pdfrwt>
<totfact> 0.74690683E+02</totfact>
</mgrwt>
</event>
<event>
 4    0  0.1486062E-001  0.2486399E+03  0.7546771E-02  0.1114167E+00
         21   -1    0    0  501  502  0.00000000000E+00  0.00000000000E+00  0.93112207981E+02  0.93112207981E+02  0.00000000000E+00 0.  1.
          2   -1    0    0  502    0 -0.00000000000E+00 -0.00000000000E+00 -0.60455211964E+03  0.60455211964E+03  0.00000000000E+00 0.  1.
         25    1    1    2    0    0 -0.21480659584E+03 -0.74095570216E+01 -0.19917711050E+03  0.31858012571E+03  0.12500000000E+03 0.  0.
          2    1    1    2  501    0  0.21480659584E+03  0.74095570216E+01 -0.31226280116E+03  0.37908420191E+03  0.00000000000E+00 0.  1.
<mgrwt>
<rscale>  3 0.24863985E+03</rscale>
<asrwt>0</asrwt>
<pdfrwt beam="1">  1       21 0.14324956E-01 0.24863985E+03</pdfrwt>
<pdfrwt beam="2">  1        2 0.93008015E-01 0.24863985E+03</pdfrwt>
<totfact> 0.26613364E+04</totfact>
</mgrwt>
</event>
<event>
 4    0  0.1395248E-001  0.3610649E+03  0.7546771E-02  0.1058163E+00
         21   -1    0    0  501  502  0.00000000000E+00  0.00000000000E+00  0.36181672925E+03  0.36181672925E+03  0.00000000000E+00 0. -1.
          2   -1    0    0  502    0 -0.00000000000E+00 -0.00000000000E+00 -0.51845255602E+03  0.51845255602E+03  0.00000000000E+00 0. -1.
         25    1    1    2    0    0 -0.32513970306E+03 -0.95010840206E+02  0.17935753254E+03  0.40315879098E+03  0.12500000000E+03 0.  0.
          2    1    1    2  501    0  0.32513970306E+03  0.95010840206E+02 -0.33599335931E+03  0.47711049429E+03  0.00000000000E+00 0. -1.
<mgrwt>
<rscale>  3 0.36106493E+03</rscale>
<asrwt>0</asrwt>
<pdfrwt beam="1">  1       21 0.55664113E-01 0.36106493E+03</pdfrwt>
<pdfrwt beam="2">  1        2 0.79761931E-01 0.36106493E+03</pdfrwt>
<totfact> 0.21555155E+03</totfact>
</mgrwt>
</event>
<event>
 4    0  0.1246690E-001  0.3054385E+03  0.7546771E-02  0.1082553E+00
          2   -1    0    0  502    0 -0.00000000000E+00  0.00000000000E+00  0.19897321753E+03  0.19897321753E+03  0.00000000000E+00 0. -1.
         21   -1    0    0  501  502  0.00000000000E+00 -0.00000000000E+00 -0.54854367366E+03  0.54854367366E+03  0.00000000000E+00 0. -1.
         25    1    1    2    0    0  0.19496851046E+02 -0.27800638378E+03 -0.35559208261E+03  0.46876263273E+03  0.12500000000E+03 0.  0.
          2    1    1    2  501    0 -0.19496851046E+02  0.27800638378E+03  0.60216264771E+01  0.27875425846E+03  0.00000000000E+00 0. -1.
<mgrwt>
<rscale>  3 0.30543850E+03</rscale>
<asrwt>0</asrwt>
<pdfrwt beam="1">  1       21 0.84391334E-01 0.30543850E+03</pdfrwt>
<pdfrwt beam="2">  1        2 0.30611264E-01 0.30543850E+03</pdfrwt>
<totfact> 0.24810848E+03</totfact>
</mgrwt>
</event>
<event>
 4    0  0.1002184E-001  0.6087765E+03  0.7546771E-02  0.9887363E-01
         21   -1    0    0  501  502  0.00000000000E+00  0.00000000000E+00  0.15148927222E+03  0.15148927222E+03  0.00000000000E+00 0.  1.
          2   -1    0    0  502    0 -0.00000000000E+00 -0.00000000000E+00 -0.33362941588E+04  0.33362941588E+04  0.00000000000E+00 0.  1.
         25    1    1    2    0    0 -0.54230998744E+03  0.24674621846E+03 -0.67824875146E+03  0.91138915270E+03  0.12500000000E+03 0.  0.
          2    1    1    2  501    0  0.54230998744E+03 -0.24674621846E+03 -0.25065561351E+04  0.25763942783E+04  0.00000000000E+00 0.  1.
<mgrwt>
<rscale>  3 0.60877649E+03</rscale>
<asrwt>0</asrwt>
<pdfrwt beam="1">  1       21 0.23306044E-01 0.60877649E+03</pdfrwt>
<pdfrwt beam="2">  1        2 0.51327597E+00 0.60877649E+03</pdfrwt>
<totfact> 0.24036104E+02</totfact>
</mgrwt>
</event>
<event>
 4    0  0.1374199E-001  0.2686586E+03  0.7546771E-02  0.1102050E+00
          3   -1    0    0  502    0 -0.00000000000E+00  0.00000000000E+00  0.97731661144E+03  0.97731661144E+03  0.00000000000E+00 0. -1.
         21   -1    0    0  501  502  0.00000000000E+00 -0.00000000000E+00 -0.16601645069E+03  0.16601645069E+03  0.00000000000E+00 0.  1.
         25    1    1    2    0    0  0.41452953656E+01  0.23777141369E+03 -0.28823799755E+02  0.27020037023E+03  0.12500000000E+03 0.  0.
          3    1    1    2  501    0 -0.41452953656E+01 -0.23777141369E+03  0.84012396050E+03  0.87313269189E+03  0.00000000000E+00 0. -1.
<mgrwt>
<rscale>  3 0.26865857E+03</rscale>
<asrwt>0</asrwt>
<pdfrwt beam="1">  1       21 0.25540993E-01 0.26865857E+03</pdfrwt>
<pdfrwt beam="2">  1        3 0.15035640E+00 0.26865857E+03</pdfrwt>
<totfact> 0.24163831E+02</totfact>
</mgrwt>
</event>
<event>
 4    0  0.1002184E-001  0.3272475E+03  0.7546771E-02  0.1072361E+00
         21   -1    0    0  501  502  0.00000000000E+00  0.00000000000E+00  0.10452628302E+03  0.10452628302E+03  0.00000000000E+00 0. -1.
          1   -1    0    0  502    0 -0.00000000000E+00 -0.00000000000E+00 -0.95024336915E+03  0.95024336915E+03  0.00000000000E+00 0.  1.
         25    1    1    2    0    0 -0.25241554595E+03 -0.16659024567E+03 -0.46319024954E+03  0.56712972507E+03  0.12500000000E+03 0.  0.
          1    1    1    2  501    0  0.25241554595E+03  0.16659024567E+03 -0.38252683659E+03  0.48763992710E+03  0.00000000000E+00 0.  1.
<mgrwt>
<rscale>  3 0.32724749E+03</rscale>
<asrwt>0</asrwt>
<pdfrwt beam="1">  1       21 0.16080967E-01 0.32724749E+03</pdfrwt>
<pdfrwt beam="2">  1        1 0.14619128E+00 0.32724749E+03</pdfrwt>
<totfact> 0.65251223E+03</totfact>
</mgrwt>
</event>
<event>
 4    0  0.1002184E-001  0.2760545E+03  0.7546771E-02  0.1097864E+00
         -4   -1    0    0    0  501 -0.00000000000E+00  0.00000000000E+00  0.67371799331E+03  0.67371799331E+03  0.00000000000E+00 0.  1.
         21   -1    0    0  501  502  0.00000000000E+00 -0.00000000000E+00 -0.12439584592E+03  0.12439584592E+03  0.00000000000E+00 0. -1.
         25    1    1    2    0    0 -0.19824960120E+03  0.14587049558E+03  0.11531493066E+03  0.29917158804E+03  0.12500000000E+03 0.  0.
         -4    1    1    2    0  502  0.19824960120E+03 -0.14587049558E+03  0.43400721672E+03  0.49894225119E+03  0.00000000000E+00 0.  1.
<mgrwt>
<rscale>  3 0.27605453E+03</rscale>
<asrwt>0</asrwt>
<pdfrwt beam="1">  1       21 0.19137823E-01 0.27605453E+03</pdfrwt>
<pdfrwt beam="2">  1       -4 0.10364892E+00 0.27605453E+03</pdfrwt>
<totfact> 0.82804695E+02</totfact>
</mgrwt>
</event>
<event>
 4    0  0.1719709E-001  0.2594291E+03  0.7546771E-02  0.1107487E+00
         -2   -1    0    0    0  501 -0.00000000000E+00  0.00000000000E+00  0.43804804934E+03  0.43804804934E+03  0.00000000000E+00 0.  1.
         21   -1    0    0  501  502  0.00000000000E+00 -0.00000000000E+00 -0.17633146800E+03  0.17633146800E+03  0.00000000000E+00 0.  1.
         25    1    1    2    0    0  0.21033241824E+03 -0.86248175044E+02 -0.10602376016E+02  0.25964568981E+03  0.12500000000E+03 0.  0.
         -2    1    1    2    0  502 -0.21033241824E+03  0.86248175044E+02  0.27231895736E+03  0.35473382753E+03  0.00000000000E+00 0.  1.
<mgrwt>
<rscale>  3 0.25942913E+03</rscale>
<asrwt>0</asrwt>
<pdfrwt beam="1">  1       21 0.27127918E-01 0.25942913E+03</pdfrwt>
<pdfrwt beam="2">  1       -2 0.67392007E-01 0.25942913E+03</pdfrwt>
<totfact> 0.21534371E+03</totfact>
</mgrwt>
</event>
<event>
 4    0  0.1565894E-001  0.2829707E+03  0.7546771E-02  0.1094077E+00
         21   -1    0    0  501  502  0.00000000000E+00  0.00000000000E+00  0.14689438951E+03  0.14689438951E+03  0.00000000000E+00 0. -1.
          2   -1    0    0  502    0 -0.00000000000E+00 -0.00000000000E+00 -0.10952403590E+04  0.10952403590E+04  0.00000000000E+00 0. -1.
         25    1    1    2    0    0  0.79153220646E+02 -0.24120981885E+03 -0.24483825689E+02  0.28402793307E+03  0.12500000000E+03 0.  0.
          2    1    1    2  501    0 -0.79153220646E+02  0.24120981885E+03 -0.92386214375E+03  0.95810681539E+03  0.00000000000E+00 0. -1.
<mgrwt>
<rscale>  3 0.28297069E+03</rscale>
<asrwt>0</asrwt>
<pdfrwt beam="1">  1       21 0.22599136E-01 0.28297069E+03</pdfrwt>
<pdfrwt beam="2">  1        2 0.16849852E+00 0.28297069E+03</pdfrwt>
<totfact> 0.52154693E+03</totfact>
</mgrwt>
</event>
<event>
 4    0  0.1315136E-001  0.2731527E+03  0.7546771E-02  0.1099489E+00
         21   -1    0    0  501  502  0.00000000000E+00  0.00000000000E+00  0.35799714413E+03  0.35799714413E+03  0.00000000000E+00 0. -1.
          2   -1    0    0  502    0 -0.00000000000E+00 -0.00000000000E+00 -0.24398548092E+04  0.24398548092E+04  0.00000000000E+00 0.  1.
         25    1    1    2    0    0  0.63021129405E+02  0.23455429853E+03  0.29879968524E+03  0.40483778679E+03  0.12500000000E+03 0.  0.
          2    1    1    2  501    0 -0.63021129405E+02 -0.23455429853E+03 -0.23806573503E+04  0.23930141665E+04  0.00000000000E+00 0.  1.
<mgrwt>
<rscale>  3 0.27315267E+03</rscale>
<asrwt>0</asrwt>
<pdfrwt beam="1">  1       21 0.55076482E-01 0.27315267E+03</pdfrwt>
<pdfrwt beam="2">  1        2 0.37536229E+00 0.27315267E+03</pdfrwt>
<totfact> 0.16452093E+02</totfact>
</mgrwt>
</event>
<event>
 4    0  0.1476313E-001  0.3068776E+03  0.7546771E-02  0.1081852E+00
          1   -1    0    0  502    0 -0.00000000000E+00  0.00000000000E+00  0.21918484397E+04  0.21918484397E+04  0.00000000000E+00 0.  1.
         21   -1    0    0  501  502  0.00000000000E+00 -0.00000000000E+00 -0.25203841162E+03  0.25203841162E+03  0.00000000000E+00 0. -1.
         25    1    1    2    0    0  0.26235378522E+03  0.98586929485E+02 -0.14564349850E+03  0.33968503049E+03  0.12500000000E+03 0.  0.
          1    1    1    2  501    0 -0.26235378522E+03 -0.98586929485E+02  0.20854535265E+04  0.21042018208E+04  0.00000000000E+00 0.  1.
<mgrwt>
<rscale>  3 0.30687765E+03</rscale>
<asrwt>0</asrwt>
<pdfrwt beam="1">  1       21 0.38775142E-01 0.30687765E+03</pdfrwt>
<pdfrwt beam="2">  1        1 0.33720744E+00 0.30687765E+03</pdfrwt>
<totfact> 0.17206785E+02</totfact>
</mgrwt>
</event>
<event>
 4    0  0.1002184E-001  0.2401524E+03  0.7546771E-02  0.1119691E+00
         21   -1    0    0  501  502  0.00000000000E+00  0.00000000000E+00  0.19544868555E+02  0.19544868555E+02  0.00000000000E+00 0. -1.
          2   -1    0    0  502    0 -0.00000000000E+00 -0.00000000000E+00 -0.26853957880E+04  0.26853957880E+04  0.00000000000E+00 0.  1.
         25    1    1    2    0    0 -0.55159673108E+02 -0.19749827439E+03 -0.11133536278E+04  0.11389598143E+04  0.12500000000E+03 0.  0.
          2    1    1    2  501    0  0.55159673108E+02  0.19749827439E+03 -0.15524972916E+04  0.15659808423E+04  0.00000000000E+00 0.  1.
<mgrwt>
<rscale>  3 0.24015236E+03</rscale>
<asrwt>0</asrwt>
<pdfrwt beam="1">  1       21 0.30069051E-02 0.24015236E+03</pdfrwt>
<pdfrwt beam="2">  1        2 0.41313751E+00 0.24015236E+03</pdfrwt>
<totfact> 0.25715619E+04</totfact>
</mgrwt>
</event>
<event>
 4    0  0.1499760E-001  0.2480724E+03  0.7546771E-02  0.1114529E+00
          1   -1    0    0  502    0 -0.00000000000E+00  0.00000000000E+00  0.76652497501E+03  0.76652497501E+03  0.00000000000E+00 0. -1.
         21   -1    0    0  501  502  0.00000000000E+00 -0.00000000000E+00 -0.74101940315E+02  0.74101940315E+02  0.00000000000E+00 0. -1.
         25    1    1    2    0    0 -0.62176933826E+02  0.20505834747E+03  0.47197688884E+03  0.53319985049E+03  0.12500000000E+03 0.  0.
          1    1    1    2  501    0  0.62176933826E+02 -0.20505834747E+03  0.22044614586E+03  0.30742706483E+03  0.00000000000E+00 0. -1.
<mgrwt>
<rscale>  3 0.24807236E+03</rscale>
<asrwt>0</asrwt>
<pdfrwt beam="1">  1       21 0.11400299E-01 0.24807236E+03</pdfrwt>
<pdfrwt beam="2">  1        1 0.11792691E+00 0.24807236E+03</pdfrwt>
<totfact> 0.17481843E+04</totfact>
</mgrwt>
</event>
<event>
 4    0  0.1559421E-001  0.2359861E+03  0.7546771E-02  0.1122496E+00
         21   -1    0    0  501  502  0.00000000000E+00  0.00000000000E+00  0.39912215252E+02  0.39912215252E+02  0.00000000000E+00 0. -1.
          2   -1    0    0  502    0 -0.00000000000E+00 -0.00000000000E+00 -0.12327783663E+04  0.12327783663E+04  0.00000000000E+00 0. -1.
         25    1    1    2    0    0 -0.11044014245E+03 -0.16693533020E+03 -0.52774550722E+03  0.57810444552E+03  0.12500000000E+03 0.  0.
          2    1    1    2  501    0  0.11044014245E+03  0.16693533020E+03 -0.66512064387E+03  0.69458613608E+03  0.00000000000E+00 0. -1.
<mgrwt>
<rscale>  3 0.23598608E+03</rscale>
<asrwt>0</asrwt>
<pdfrwt beam="1">  1       21 0.61403418E-02 0.23598608E+03</pdfrwt>
<pdfrwt beam="2">  1        2 0.18965818E+00 0.23598608E+03</pdfrwt>
<totfact> 0.46084147E+04</totfact>
</mgrwt>
</event>
<event>
 4    0  0.1471242E-001  0.2866327E+03  0.7546771E-02  0.1092120E+00
          2   -1    0    0  502    0 -0.00000000000E+00  0.00000000000E+00  0.76632540901E+03  0.76632540901E+03  0.00000000000E+00 0.  1.
         21   -1    0    0  501  502  0.00000000000E+00 -0.00000000000E+00 -0.29873939609E+03  0.29873939609E+03  0.00000000000E+00 0.  1.
         25    1    1    2    0    0  0.24321894256E+03 -0.85894310349E+02 -0.19991279374E+03  0.34946160257E+03  0.12500000000E+03 0.  0.
          2    1    1    2  501    0 -0.24321894256E+03  0.85894310349E+02  0.66749880666E+03  0.71560320253E+03  0.00000000000E+00 0.  1.
<mgrwt>
<rscale>  3 0.28663267E+03</rscale>
<asrwt>0</asrwt>
<pdfrwt beam="1">  1       21 0.45959907E-01 0.28663267E+03</pdfrwt>
<pdfrwt beam="2">  1        2 0.11789622E+00 0.28663267E+03</pdfrwt>
<totfact> 0.20697606E+03</totfact>
</mgrwt>
</event>
<event>
 4    0  0.1244396E-001  0.3048878E+03  0.7546771E-02  0.1082822E+00
         21   -1    0    0  501  502  0.00000000000E+00  0.00000000000E+00  0.33478577318E+03  0.33478577318E+03  0.00000000000E+00 0.  1.
          2   -1    0    0  502    0 -0.00000000000E+00 -0.00000000000E+00 -0.25456907282E+03  0.25456907282E+03  0.00000000000E+00 0.  1.
         25    1    1    2    0    0  0.33146268742E+02 -0.27610299978E+03  0.25636262049E+02  0.30596365724E+03  0.12500000000E+03 0.  0.
          2    1    1    2  501    0 -0.33146268742E+02  0.27610299978E+03  0.54580438314E+02  0.28339118876E+03  0.00000000000E+00 0.  1.
<mgrwt>
<rscale>  3 0.30488775E+03</rscale>
<asrwt>0</asrwt>
<pdfrwt beam="1">  1       21 0.51505504E-01 0.30488775E+03</pdfrwt>
<pdfrwt beam="2">  1        2 0.39164472E-01 0.30488775E+03</pdfrwt>
<totfact> 0.56381138E+03</totfact>
</mgrwt>
</event>
<event>
 4    0  0.1420085E-001  0.3506278E+03  0.7546771E-02  0.1062358E+00
         21   -1    0    0  501  502  0.00000000000E+00  0.00000000000E+00  0.10013960014E+03  0.10013960014E+03  0.00000000000E+00 0.  1.
          2   -1    0    0  502    0 -0.00000000000E+00 -0.00000000000E+00 -0.16457191893E+04  0.16457191893E+04  0.00000000000E+00 0.  1.
         25    1    1    2    0    0 -0.16513330483E+03 -0.28292373845E+03 -0.31140823843E+03  0.46895089413E+03  0.12500000000E+03 0.  0.
          2    1    1    2  501    0  0.16513330483E+03  0.28292373845E+03 -0.12341713507E+04  0.12769078953E+04  0.00000000000E+00 0.  1.
<mgrwt>
<rscale>  3 0.35062779E+03</rscale>
<asrwt>0</asrwt>
<pdfrwt beam="1">  1       21 0.15406093E-01 0.35062779E+03</pdfrwt>
<pdfrwt beam="2">  1        2 0.25318756E+00 0.35062779E+03</pdfrwt>
<totfact> 0.52033582E+03</totfact>
</mgrwt>
</event>
<event>
 4    0  0.1288245E-001  0.3224865E+03  0.7546771E-02  0.1074511E+00
          1   -1    0    0  502    0 -0.00000000000E+00  0.00000000000E+00  0.30710868594E+03  0.30710868594E+03  0.00000000000E+00 0.  1.
         21   -1    0    0  501  502  0.00000000000E+00 -0.00000000000E+00 -0.48216247769E+03  0.48216247769E+03  0.00000000000E+00 0.  1.
         25    1    1    2    0    0 -0.20613713273E+03  0.21419621776E+03 -0.32368259962E+03  0.45691132892E+03  0.12500000000E+03 0.  0.
          1    1    1    2  501    0  0.20613713273E+03 -0.21419621776E+03  0.14862880787E+03  0.33235983470E+03  0.00000000000E+00 0.  1.
<mgrwt>
<rscale>  3 0.32248649E+03</rscale>
<asrwt>0</asrwt>
<pdfrwt beam="1">  1       21 0.74178843E-01 0.32248649E+03</pdfrwt>
<pdfrwt beam="2">  1        1 0.47247490E-01 0.32248649E+03</pdfrwt>
<totfact> 0.14465766E+03</totfact>
</mgrwt>
</event>
<event>
 4    0  0.1667759E-001  0.2512804E+03  0.7546771E-02  0.1112498E+00
          2   -1    0    0  502    0 -0.00000000000E+00  0.00000000000E+00  0.19914605744E+04  0.19914605744E+04  0.00000000000E+00 0.  1.
         21   -1    0    0  501  502  0.00000000000E+00 -0.00000000000E+00 -0.28165038281E+02  0.28165038281E+02  0.00000000000E+00 0.  1.
         25    1    1    2    0    0  0.21100822181E+03 -0.54702681202E+02  0.91302142410E+03  0.94696883469E+03  0.12500000000E+03 0.  0.
          2    1    1    2  501    0 -0.21100822181E+03  0.54702681202E+02  0.10502741120E+04  0.10726567780E+04  0.00000000000E+00 0.  1.
<mgrwt>
<rscale>  3 0.25128043E+03</rscale>
<asrwt>0</asrwt>
<pdfrwt beam="1">  1       21 0.43330844E-02 0.25128043E+03</pdfrwt>
<pdfrwt beam="2">  1        2 0.30637844E+00 0.25128043E+03</pdfrwt>
<totfact> 0.32832179E+04</totfact>
</mgrwt>
</event>
<event>
 4    0  0.1499620E-001  0.2675140E+03  0.7546771E-02  0.1102711E+00
         21   -1    0    0  501  502  0.00000000000E+00  0.00000000000E+00  0.37318759112E+02  0.37318759112E+02  0.00000000000E+00 0.  1.
          2   -1    0    0  502    0 -0.00000000000E+00 -0.00000000000E+00 -0.17509534708E+04  0.17509534708E+04  0.00000000000E+00 0.  1.
         25    1    1    2    0    0 -0.19870444988E+03 -0.12827817236E+03 -0.75858159251E+03  0.80436918166E+03  0.12500000000E+03 0.  0.
          2    1    1    2  501    0  0.19870444988E+03  0.12827817236E+03 -0.95505311915E+03  0.98390304823E+03  0.00000000000E+00 0.  1.
<mgrwt>
<rscale>  3 0.26751401E+03</rscale>
<asrwt>0</asrwt>
<pdfrwt beam="1">  1       21 0.57413470E-02 0.26751401E+03</pdfrwt>
<pdfrwt beam="2">  1        2 0.26937748E+00 0.26751401E+03</pdfrwt>
<totfact> 0.27061647E+04</totfact>
</mgrwt>
</event>
<event>
 4    0  0.1432512E-001  0.2798551E+03  0.7546771E-02  0.1095768E+00
          2   -1    0    0  502    0 -0.00000000000E+00  0.00000000000E+00  0.82980736329E+03  0.82980736329E+03  0.00000000000E+00 0.  1.
         21   -1    0    0  501  502  0.00000000000E+00 -0.00000000000E+00 -0.16642763483E+03  0.16642763483E+03  0.00000000000E+00 0.  1.
         25    1    1    2    0    0  0.19222709294E+03 -0.16044502737E+03 -0.77047775591E+01  0.27996111456E+03  0.12500000000E+03 0.  0.
          2    1    1    2  501    0 -0.19222709294E+03  0.16044502737E+03  0.67108450601E+03  0.71627388357E+03  0.00000000000E+00 0.  1.
<mgrwt>
<rscale>  3 0.27985507E+03</rscale>
<asrwt>0</asrwt>
<pdfrwt beam="1">  1       21 0.25604252E-01 0.27985507E+03</pdfrwt>
<pdfrwt beam="2">  1        2 0.12766267E+00 0.27985507E+03</pdfrwt>
<totfact> 0.60380627E+03</totfact>
</mgrwt>
</event>
<event>
 4    0  0.1427796E-001  0.3469730E+03  0.7546771E-02  0.1063864E+00
         21   -1    0    0  501  502  0.00000000000E+00  0.00000000000E+00  0.18701153021E+03  0.18701153021E+03  0.00000000000E+00 0.  1.
          1   -1    0    0  502    0 -0.00000000000E+00 -0.00000000000E+00 -0.93585296533E+03  0.93585296533E+03  0.00000000000E+00 0.  1.
         25    1    1    2    0    0  0.31608524203E+03 -0.69680700305E+02 -0.47206021255E+02  0.35016951419E+03  0.12500000000E+03 0.  0.
          1    1    1    2  501    0 -0.31608524203E+03  0.69680700305E+02 -0.70163541386E+03  0.77269498136E+03  0.00000000000E+00 0.  1.
<mgrwt>
<rscale>  3 0.34697303E+03</rscale>
<asrwt>0</asrwt>
<pdfrwt beam="1">  1       21 0.28771004E-01 0.34697303E+03</pdfrwt>
<pdfrwt beam="2">  1        1 0.14397738E+00 0.34697303E+03</pdfrwt>
<totfact> 0.21982264E+03</totfact>
</mgrwt>
</event>
<event>
 4    0  0.1002184E-001  0.2407001E+03  0.7546771E-02  0.1119327E+00
          2   -1    0    0  502    0 -0.00000000000E+00  0.00000000000E+00  0.10618241200E+03  0.10618241200E+03  0.00000000000E+00 0.  1.
         21   -1    0    0  501  502  0.00000000000E+00 -0.00000000000E+00 -0.58243631376E+03  0.58243631376E+03  0.00000000000E+00 0. -1.
         25    1    1    2    0    0  0.94631617892E+01  0.20547992750E+03 -0.40462626518E+03  0.47080671885E+03  0.12500000000E+03 0.  0.
          2    1    1    2  501    0 -0.94631617892E+01 -0.20547992750E+03 -0.71627636574E+02  0.21781200691E+03  0.00000000000E+00 0.  1.
<mgrwt>
<rscale>  3 0.24070013E+03</rscale>
<asrwt>0</asrwt>
<pdfrwt beam="1">  1       21 0.89605584E-01 0.24070013E+03</pdfrwt>
<pdfrwt beam="2">  1        2 0.16335756E-01 0.24070013E+03</pdfrwt>
<totfact> 0.44909506E+03</totfact>
</mgrwt>
</event>
<event>
 4    0  0.1407338E-001  0.3089347E+03  0.7546771E-02  0.1080858E+00
         21   -1    0    0  501  502  0.00000000000E+00  0.00000000000E+00  0.28541449633E+03  0.28541449633E+03  0.00000000000E+00 0. -1.
          1   -1    0    0  502    0 -0.00000000000E+00 -0.00000000000E+00 -0.65226872820E+03  0.65226872820E+03  0.00000000000E+00 0.  1.
         25    1    1    2    0    0  0.25138898822E+03 -0.12891568178E+03  0.15396337385E+03  0.34517444415E+03  0.12500000000E+03 0.  0.
          1    1    1    2  501    0 -0.25138898822E+03  0.12891568178E+03 -0.52081760572E+03  0.59250878039E+03  0.00000000000E+00 0.  1.
<mgrwt>
<rscale>  3 0.30893474E+03</rscale>
<asrwt>0</asrwt>
<pdfrwt beam="1">  1       21 0.43909923E-01 0.30893474E+03</pdfrwt>
<pdfrwt beam="2">  1        1 0.10034903E+00 0.30893474E+03</pdfrwt>
<totfact> 0.16559657E+03</totfact>
</mgrwt>
</event>
<event>
 4    0  0.1180937E-001  0.3435407E+03  0.7546771E-02  0.1065298E+00
         21   -1    0    0  501  502  0.00000000000E+00  0.00000000000E+00  0.42368217305E+03  0.42368217305E+03  0.00000000000E+00 0. -1.
          2   -1    0    0  502    0 -0.00000000000E+00 -0.00000000000E+00 -0.29943343728E+03  0.29943343728E+03  0.00000000000E+00 0. -1.
         25    1    1    2    0    0 -0.13504122120E+03  0.29010189955E+03  0.19551927716E+03  0.39528221726E+03  0.12500000000E+03 0.  0.
          2    1    1    2  501    0  0.13504122120E+03 -0.29010189955E+03 -0.71270541396E+02  0.32783339307E+03  0.00000000000E+00 0. -1.
<mgrwt>
<rscale>  3 0.34354075E+03</rscale>
<asrwt>0</asrwt>
<pdfrwt beam="1">  1       21 0.65181873E-01 0.34354075E+03</pdfrwt>
<pdfrwt beam="2">  1        2 0.46066682E-01 0.34354075E+03</pdfrwt>
<totfact> 0.28163504E+03</totfact>
</mgrwt>
</event>
<event>
 4    0  0.1002184E-001  0.3172266E+03  0.7546771E-02  0.1076933E+00
         -4   -1    0    0    0  501 -0.00000000000E+00  0.00000000000E+00  0.11049104070E+04  0.11049104070E+04  0.00000000000E+00 0.  1.
         21   -1    0    0  501  502  0.00000000000E+00 -0.00000000000E+00 -0.11551125564E+03  0.11551125564E+03  0.00000000000E+00 0. -1.
         25    1    1    2    0    0  0.14484316446E+03  0.25303792841E+03  0.19061554313E+03  0.37009055755E+03  0.12500000000E+03 0.  0.
         -4    1    1    2    0  502 -0.14484316446E+03 -0.25303792841E+03  0.79878360819E+03  0.85033110505E+03  0.00000000000E+00 0.  1.
<mgrwt>
<rscale>  3 0.31722663E+03</rscale>
<asrwt>0</asrwt>
<pdfrwt beam="1">  1       21 0.17770963E-01 0.31722663E+03</pdfrwt>
<pdfrwt beam="2">  1       -4 0.16998621E+00 0.31722663E+03</pdfrwt>
<totfact> 0.27185751E+02</totfact>
</mgrwt>
</event>
<event>
 4    0  0.1084548E-001  0.2382210E+03  0.7546771E-02  0.1120984E+00
          1   -1    0    0  502    0 -0.00000000000E+00  0.00000000000E+00  0.32679577910E+03  0.32679577910E+03  0.00000000000E+00 0.  1.
         21   -1    0    0  501  502  0.00000000000E+00 -0.00000000000E+00 -0.38298690935E+03  0.38298690935E+03  0.00000000000E+00 0.  1.
         25    1    1    2    0    0  0.19493698995E+03  0.55891295757E+02 -0.30614593238E+03  0.38791055529E+03  0.12500000000E+03 0.  0.
          1    1    1    2  501    0 -0.19493698995E+03 -0.55891295757E+02  0.24995480213E+03  0.32187213315E+03  0.00000000000E+00 0.  1.
<mgrwt>
<rscale>  3 0.23822105E+03</rscale>
<asrwt>0</asrwt>
<pdfrwt beam="1">  1       21 0.58921063E-01 0.23822105E+03</pdfrwt>
<pdfrwt beam="2">  1        1 0.50276273E-01 0.23822105E+03</pdfrwt>
<totfact> 0.22790863E+03</totfact>
</mgrwt>
</event>
<event>
 4    0  0.1002184E-001  0.2618715E+03  0.7546771E-02  0.1106024E+00
         21   -1    0    0  501  502  0.00000000000E+00  0.00000000000E+00  0.42669006661E+02  0.42669006661E+02  0.00000000000E+00 0.  1.
          2   -1    0    0  502    0 -0.00000000000E+00 -0.00000000000E+00 -0.43326063231E+04  0.43326063231E+04  0.00000000000E+00 0.  1.
         25    1    1    2    0    0  0.22362344142E+03 -0.54260876872E+02 -0.39728688152E+03  0.47582933131E+03  0.12500000000E+03 0.  0.
          2    1    1    2  501    0 -0.22362344142E+03  0.54260876872E+02 -0.38926504349E+04  0.38994459984E+04  0.00000000000E+00 0.  1.
<mgrwt>
<rscale>  3 0.26187151E+03</rscale>
<asrwt>0</asrwt>
<pdfrwt beam="1">  1       21 0.65644646E-02 0.26187151E+03</pdfrwt>
<pdfrwt beam="2">  1        2 0.66655461E+00 0.26187151E+03</pdfrwt>
<totfact> 0.51636006E+02</totfact>
</mgrwt>
</event>
<event>
 4    0  0.1002184E-001  0.2803755E+03  0.7546771E-02  0.1095484E+00
         21   -1    0    0  501  502  0.00000000000E+00  0.00000000000E+00  0.32077369359E+03  0.32077369359E+03  0.00000000000E+00 0. -1.
         -1   -1    0    0    0  501 -0.00000000000E+00 -0.00000000000E+00 -0.42161725969E+03  0.42161725969E+03  0.00000000000E+00 0.  1.
         25    1    1    2    0    0 -0.25088503834E+03 -0.64893065677E+01  0.20458285629E+03  0.34708004646E+03  0.12500000000E+03 0.  0.
         -1    1    1    2    0  502  0.25088503834E+03  0.64893065677E+01 -0.30542642239E+03  0.39531090682E+03  0.00000000000E+00 0.  1.
<mgrwt>
<rscale>  3 0.28037549E+03</rscale>
<asrwt>0</asrwt>
<pdfrwt beam="1">  1       21 0.49349799E-01 0.28037549E+03</pdfrwt>
<pdfrwt beam="2">  1       -1 0.64864194E-01 0.28037549E+03</pdfrwt>
<totfact> 0.88019383E+02</totfact>
</mgrwt>
</event>
<event>
 4    0  0.1002184E-001  0.4334965E+03  0.7546771E-02  0.1032761E+00
         21   -1    0    0  501  502  0.00000000000E+00  0.00000000000E+00  0.88792094818E+02  0.88792094818E+02  0.00000000000E+00 0. -1.
          2   -1    0    0  502    0 -0.00000000000E+00 -0.00000000000E+00 -0.24979159939E+04  0.24979159939E+04  0.00000000000E+00 0.  1.
         25    1    1    2    0    0  0.41397336569E+03  0.30335853849E+02 -0.66458984590E+03  0.79347266796E+03  0.12500000000E+03 0.  0.
          2    1    1    2  501    0 -0.41397336569E+03 -0.30335853849E+02 -0.17445340532E+04  0.17932354208E+04  0.00000000000E+00 0.  1.
<mgrwt>
<rscale>  3 0.43349650E+03</rscale>
<asrwt>0</asrwt>
<pdfrwt beam="1">  1       21 0.13660322E-01 0.43349650E+03</pdfrwt>
<pdfrwt beam="2">  1        2 0.38429477E+00 0.43349650E+03</pdfrwt>
<totfact> 0.22059113E+03</totfact>
</mgrwt>
</event>
<event>
 4    0  0.1245358E-001  0.2413229E+03  0.7546771E-02  0.1118915E+00
          1   -1    0    0  502    0 -0.00000000000E+00  0.00000000000E+00  0.22419527849E+03  0.22419527849E+03  0.00000000000E+00 0.  1.
         21   -1    0    0  501  502  0.00000000000E+00 -0.00000000000E+00 -0.23697260499E+03  0.23697260499E+03  0.00000000000E+00 0.  1.
         25    1    1    2    0    0  0.99600325833E+02  0.18080800685E+03 -0.61570217730E+02  0.24905351224E+03  0.12500000000E+03 0.  0.
          1    1    1    2  501    0 -0.99600325833E+02 -0.18080800685E+03  0.48792891235E+02  0.21211437123E+03  0.00000000000E+00 0.  1.
<mgrwt>
<rscale>  3 0.24132294E+03</rscale>
<asrwt>0</asrwt>
<pdfrwt beam="1">  1       21 0.36457324E-01 0.24132294E+03</pdfrwt>
<pdfrwt beam="2">  1        1 0.34491581E-01 0.24132294E+03</pdfrwt>
<totfact> 0.99090703E+03</totfact>
</mgrwt>
</event>
<event>
 4    0  0.1646065E-001  0.2573333E+03  0.7546771E-02  0.1108756E+00
         21   -1    0    0  501  502  0.00000000000E+00  0.00000000000E+00  0.48680439902E+02  0.48680439902E+02  0.00000000000E+00 0. -1.
          2   -1    0    0  502    0 -0.00000000000E+00 -0.00000000000E+00 -0.12167540244E+04  0.12167540244E+04  0.00000000000E+00 0. -1.
         25    1    1    2    0    0  0.49076400556E+02  0.21951521721E+03 -0.53704509367E+03  0.59551478261E+03  0.12500000000E+03 0.  0.
          2    1    1    2  501    0 -0.49076400556E+02 -0.21951521721E+03 -0.63102849086E+03  0.66991968172E+03  0.00000000000E+00 0. -1.
<mgrwt>
<rscale>  3 0.25733329E+03</rscale>
<asrwt>0</asrwt>
<pdfrwt beam="1">  1       21 0.74892980E-02 0.25733329E+03</pdfrwt>
<pdfrwt beam="2">  1        2 0.18719294E+00 0.25733329E+03</pdfrwt>
<totfact> 0.33236810E+04</totfact>
</mgrwt>
</event>
<event>
 4    0  0.1260796E-001  0.2717082E+03  0.7546771E-02  0.1100306E+00
          1   -1    0    0  502    0 -0.00000000000E+00  0.00000000000E+00  0.13451448870E+03  0.13451448870E+03  0.00000000000E+00 0. -1.
         21   -1    0    0  501  502  0.00000000000E+00 -0.00000000000E+00 -0.49390630482E+03  0.49390630482E+03  0.00000000000E+00 0. -1.
         25    1    1    2    0    0 -0.24106458164E+03 -0.93926951907E+01 -0.22144481468E+03  0.35051841776E+03  0.12500000000E+03 0.  0.
          1    1    1    2  501    0  0.24106458164E+03  0.93926951907E+01 -0.13794700145E+03  0.27790237576E+03  0.00000000000E+00 0. -1.
<mgrwt>
<rscale>  3 0.27170822E+03</rscale>
<asrwt>0</asrwt>
<pdfrwt beam="1">  1       21 0.75985587E-01 0.27170822E+03</pdfrwt>
<pdfrwt beam="2">  1        1 0.20694536E-01 0.27170822E+03</pdfrwt>
<totfact> 0.39732843E+03</totfact>
</mgrwt>
</event>
<event>
 4    0  0.1002184E-001  0.6383784E+03  0.7546771E-02  0.9828834E-01
         21   -1    0    0  501  502  0.00000000000E+00  0.00000000000E+00  0.43188400034E+03  0.43188400034E+03  0.00000000000E+00 0. -1.
          2   -1    0    0  502    0 -0.00000000000E+00 -0.00000000000E+00 -0.19127456571E+04  0.19127456571E+04  0.00000000000E+00 0.  1.
         25    1    1    2    0    0  0.17590490372E+03 -0.60079902924E+03  0.98305653515E+02  0.64590325142E+03  0.12500000000E+03 0.  0.
          2    1    1    2  501    0 -0.17590490372E+03  0.60079902924E+03 -0.15791673103E+04  0.16987264060E+04  0.00000000000E+00 0.  1.
<mgrwt>
<rscale>  3 0.63837842E+03</rscale>
<asrwt>0</asrwt>
<pdfrwt beam="1">  1       21 0.66443691E-01 0.63837842E+03</pdfrwt>
<pdfrwt beam="2">  1        2 0.29426857E+00 0.63837842E+03</pdfrwt>
<totfact> 0.18132888E+02</totfact>
</mgrwt>
</event>
<event>
 4    0  0.1489306E-001  0.3483274E+03  0.7546771E-02  0.1063304E+00
         21   -1    0    0  501  502  0.00000000000E+00  0.00000000000E+00  0.10228132985E+03  0.10228132985E+03  0.00000000000E+00 0.  1.
          2   -1    0    0  502    0 -0.00000000000E+00 -0.00000000000E+00 -0.11209920167E+04  0.11209920167E+04  0.00000000000E+00 0.  1.
         25    1    1    2    0    0  0.13193607136E+03  0.29715285669E+03 -0.46233199364E+03  0.57886338588E+03  0.12500000000E+03 0.  0.
          2    1    1    2  501    0 -0.13193607136E+03 -0.29715285669E+03 -0.55637869323E+03  0.64440996070E+03  0.00000000000E+00 0.  1.
<mgrwt>
<rscale>  3 0.34832736E+03</rscale>
<asrwt>0</asrwt>
<pdfrwt beam="1">  1       21 0.15735590E-01 0.34832736E+03</pdfrwt>
<pdfrwt beam="2">  1        2 0.17246030E+00 0.34832736E+03</pdfrwt>
<totfact> 0.97897182E+03</totfact>
</mgrwt>
</event>
<event>
 4    0  0.1054505E-001  0.2868749E+03  0.7546771E-02  0.1091992E+00
          2   -1    0    0  502    0 -0.00000000000E+00  0.00000000000E+00  0.11635759693E+04  0.11635759693E+04  0.00000000000E+00 0.  1.
         21   -1    0    0  501  502  0.00000000000E+00 -0.00000000000E+00 -0.91290658087E+02  0.91290658087E+02  0.00000000000E+00 0. -1.
         25    1    1    2    0    0 -0.22315000624E+03  0.12990868615E+03  0.21211580260E+03  0.35677766989E+03  0.12500000000E+03 0.  0.
          2    1    1    2  501    0  0.22315000624E+03 -0.12990868615E+03  0.86016950860E+03  0.89808895748E+03  0.00000000000E+00 0.  1.
<mgrwt>
<rscale>  3 0.28687487E+03</rscale>
<asrwt>0</asrwt>
<pdfrwt beam="1">  1       21 0.14044717E-01 0.28687487E+03</pdfrwt>
<pdfrwt beam="2">  1        2 0.17901168E+00 0.28687487E+03</pdfrwt>
<totfact> 0.11542357E+04</totfact>
</mgrwt>
</event>
<event>
 4    0  0.1605012E-001  0.2929193E+03  0.7546771E-02  0.1088835E+00
         21   -1    0    0  501  502  0.00000000000E+00  0.00000000000E+00  0.60660600092E+02  0.60660600092E+02  0.00000000000E+00 0.  1.
          1   -1    0    0  502    0 -0.00000000000E+00 -0.00000000000E+00 -0.17188477417E+04  0.17188477417E+04  0.00000000000E+00 0.  1.
         25    1    1    2    0    0  0.12721605418E+03 -0.23236349112E+03 -0.41224270480E+03  0.50571312432E+03  0.12500000000E+03 0.  0.
          1    1    1    2  501    0 -0.12721605418E+03  0.23236349112E+03 -0.12459444368E+04  0.12737952175E+04  0.00000000000E+00 0.  1.
<mgrwt>
<rscale>  3 0.29291930E+03</rscale>
<asrwt>0</asrwt>
<pdfrwt beam="1">  1       21 0.93324003E-02 0.29291930E+03</pdfrwt>
<pdfrwt beam="2">  1        1 0.26443810E+00 0.29291930E+03</pdfrwt>
<totfact> 0.51750782E+03</totfact>
</mgrwt>
</event>
<event>
 4    0  0.1451291E-001  0.2530999E+03  0.7546771E-02  0.1111361E+00
         21   -1    0    0  501  502  0.00000000000E+00  0.00000000000E+00  0.95469133815E+02  0.95469133815E+02  0.00000000000E+00 0.  1.
          3   -1    0    0  502    0 -0.00000000000E+00 -0.00000000000E+00 -0.58632399643E+03  0.58632399643E+03  0.00000000000E+00 0.  1.
         25    1    1    2    0    0  0.17622631105E+03 -0.13182883295E+03 -0.26085809084E+03  0.36346457525E+03  0.12500000000E+03 0.  0.
          3    1    1    2  501    0 -0.17622631105E+03  0.13182883295E+03 -0.22999677177E+03  0.31832855499E+03  0.00000000000E+00 0.  1.
<mgrwt>
<rscale>  3 0.25309989E+03</rscale>
<asrwt>0</asrwt>
<pdfrwt beam="1">  1       21 0.14687559E-01 0.25309989E+03</pdfrwt>
<pdfrwt beam="2">  1        3 0.90203691E-01 0.25309989E+03</pdfrwt>
<totfact> 0.23059212E+03</totfact>
</mgrwt>
</event>
<event>
 4    0  0.1002184E-001  0.2718046E+03  0.7546771E-02  0.1100251E+00
          2   -1    0    0  502    0 -0.00000000000E+00  0.00000000000E+00  0.46443476636E+04  0.46443476636E+04  0.00000000000E+00 0. -1.
         21   -1    0    0  501  502  0.00000000000E+00 -0.00000000000E+00 -0.19573263047E+02  0.19573263047E+02  0.00000000000E+00 0. -1.
         25    1    1    2    0    0 -0.13153718080E+03  0.20236285865E+03  0.11886476225E+04  0.12193280637E+04  0.12500000000E+03 0.  0.
          2    1    1    2  501    0  0.13153718080E+03 -0.20236285865E+03  0.34361267780E+04  0.34445928629E+04  0.00000000000E+00 0. -1.
<mgrwt>
<rscale>  3 0.27180463E+03</rscale>
<asrwt>0</asrwt>
<pdfrwt beam="1">  1       21 0.30112749E-02 0.27180463E+03</pdfrwt>
<pdfrwt beam="2">  1        2 0.71451415E+00 0.27180463E+03</pdfrwt>
<totfact> 0.99192924E+02</totfact>
</mgrwt>
</event>
<event>
 4    0  0.1496366E-001  0.2691299E+03  0.7546771E-02  0.1101779E+00
         -1   -1    0    0    0  501 -0.00000000000E+00  0.00000000000E+00  0.11053533698E+04  0.11053533698E+04  0.00000000000E+00 0.  1.
         21   -1    0    0  501  502  0.00000000000E+00 -0.00000000000E+00 -0.15764800680E+04  0.15764800680E+04  0.00000000000E+00 0.  1.
         25    1    1    2    0    0  0.23691359992E+03  0.26035168149E+02 -0.15519145670E+04  0.15750776828E+04  0.12500000000E+03 0.  0.
         -1    1    1    2    0  502 -0.23691359992E+03 -0.26035168149E+02  0.10807878688E+04  0.11067557550E+04  0.00000000000E+00 0.  1.
<mgrwt>
<rscale>  3 0.26912986E+03</rscale>
<asrwt>0</asrwt>
<pdfrwt beam="1">  1       21 0.24253539E+00 0.26912986E+03</pdfrwt>
<pdfrwt beam="2">  1       -1 0.17005437E+00 0.26912986E+03</pdfrwt>
<totfact> 0.17135010E+00</totfact>
</mgrwt>
</event>
<event>
 4    0  0.1385540E-001  0.3134653E+03  0.7546771E-02  0.1078697E+00
         21   -1    0    0  501  502  0.00000000000E+00  0.00000000000E+00  0.57553253995E+03  0.57553253995E+03  0.00000000000E+00 0.  1.
         -4   -1    0    0    0  501 -0.00000000000E+00 -0.00000000000E+00 -0.53907601856E+03  0.53907601856E+03  0.00000000000E+00 0. -1.
         25    1    1    2    0    0 -0.17457324864E+03  0.22838487362E+03  0.48759788880E+03  0.57966556807E+03  0.12500000000E+03 0.  0.
         -4    1    1    2    0  502  0.17457324864E+03 -0.22838487362E+03 -0.45114136741E+03  0.53494299045E+03  0.00000000000E+00 0. -1.
<mgrwt>
<rscale>  3 0.31346526E+03</rscale>
<asrwt>0</asrwt>
<pdfrwt beam="1">  1       21 0.88543468E-01 0.31346526E+03</pdfrwt>
<pdfrwt beam="2">  1       -4 0.82934772E-01 0.31346526E+03</pdfrwt>
<totfact> 0.58170278E+01</totfact>
</mgrwt>
</event>
<event>
 4    0  0.1002184E-001  0.2631908E+03  0.7546771E-02  0.1105241E+00
         21   -1    0    0  501  502  0.00000000000E+00  0.00000000000E+00  0.14100189866E+03  0.14100189866E+03  0.00000000000E+00 0. -1.
          2   -1    0    0  502    0 -0.00000000000E+00 -0.00000000000E+00 -0.51512162326E+03  0.51512162326E+03  0.00000000000E+00 0.  1.
         25    1    1    2    0    0 -0.18140003512E+03  0.14400835248E+03 -0.67228733911E+02  0.27164145668E+03  0.12500000000E+03 0.  0.
          2    1    1    2  501    0  0.18140003512E+03 -0.14400835248E+03 -0.30689099069E+03  0.38448206524E+03  0.00000000000E+00 0.  1.
<mgrwt>
<rscale>  3 0.26319076E+03</rscale>
<asrwt>0</asrwt>
<pdfrwt beam="1">  1       21 0.21692600E-01 0.26319076E+03</pdfrwt>
<pdfrwt beam="2">  1        2 0.79249480E-01 0.26319076E+03</pdfrwt>
<totfact> 0.14754512E+04</totfact>
</mgrwt>
</event>
<event>
 4    0  0.1002184E-001  0.2372362E+03  0.7546771E-02  0.1121648E+00
         -1   -1    0    0    0  501 -0.00000000000E+00  0.00000000000E+00  0.94974010665E+02  0.94974010665E+02  0.00000000000E+00 0. -1.
         21   -1    0    0  501  502  0.00000000000E+00 -0.00000000000E+00 -0.92956640935E+03  0.92956640935E+03  0.00000000000E+00 0.  1.
         25    1    1    2    0    0  0.17631343912E+03 -0.97824179078E+02 -0.78052772794E+03  0.81578461184E+03  0.12500000000E+03 0.  0.
         -1    1    1    2    0  502 -0.17631343912E+03  0.97824179078E+02 -0.54064670746E+02  0.20875580818E+03  0.00000000000E+00 0. -1.
<mgrwt>
<rscale>  3 0.23723617E+03</rscale>
<asrwt>0</asrwt>
<pdfrwt beam="1">  1       21 0.14301022E+00 0.23723617E+03</pdfrwt>
<pdfrwt beam="2">  1       -1 0.14611386E-01 0.23723617E+03</pdfrwt>
<totfact> 0.10014826E+03</totfact>
</mgrwt>
</event>
<event>
 4    0  0.1289487E-001  0.2649078E+03  0.7546771E-02  0.1104230E+00
          2   -1    0    0  502    0 -0.00000000000E+00  0.00000000000E+00  0.45927712720E+03  0.45927712720E+03  0.00000000000E+00 0.  1.
         21   -1    0    0  501  502  0.00000000000E+00 -0.00000000000E+00 -0.33060459693E+03  0.33060459693E+03  0.00000000000E+00 0.  1.
         25    1    1    2    0    0 -0.14177435161E+03  0.18561027529E+03 -0.23735302081E+03  0.35568609413E+03  0.12500000000E+03 0.  0.
          2    1    1    2  501    0  0.14177435161E+03 -0.18561027529E+03  0.36602555108E+03  0.43419563000E+03  0.00000000000E+00 0.  1.
<mgrwt>
<rscale>  3 0.26490780E+03</rscale>
<asrwt>0</asrwt>
<pdfrwt beam="1">  1       21 0.50862245E-01 0.26490780E+03</pdfrwt>
<pdfrwt beam="2">  1        2 0.70658020E-01 0.26490780E+03</pdfrwt>
<totfact> 0.30713621E+03</totfact>
</mgrwt>
</event>
<event>
 4    0  0.1126300E-001  0.2561745E+03  0.7546771E-02  0.1109464E+00
         21   -1    0    0  501  502  0.00000000000E+00  0.00000000000E+00  0.86599318311E+02  0.86599318311E+02  0.00000000000E+00 0.  1.
         -3   -1    0    0    0  501 -0.00000000000E+00 -0.00000000000E+00 -0.17084144964E+04  0.17084144964E+04  0.00000000000E+00 0. -1.
         25    1    1    2    0    0 -0.18333706421E+03  0.12801524796E+03 -0.13138228158E+03  0.28790048062E+03  0.12500000000E+03 0.  0.
         -3    1    1    2    0  502  0.18333706421E+03 -0.12801524796E+03 -0.14904328965E+04  0.15071133341E+04  0.00000000000E+00 0. -1.
<mgrwt>
<rscale>  3 0.25617452E+03</rscale>
<asrwt>0</asrwt>
<pdfrwt beam="1">  1       21 0.13322973E-01 0.25617452E+03</pdfrwt>
<pdfrwt beam="2">  1       -3 0.26283297E+00 0.25617452E+03</pdfrwt>
<totfact> 0.16595861E+02</totfact>
</mgrwt>
</event>
<event>
 4    0  0.1309075E-001  0.4014080E+03  0.7546771E-02  0.1043293E+00
          2   -1    0    0  502    0 -0.00000000000E+00  0.00000000000E+00  0.43597667804E+03  0.43597667804E+03  0.00000000000E+00 0.  1.
         21   -1    0    0  501  502  0.00000000000E+00 -0.00000000000E+00 -0.73495589203E+03  0.73495589203E+03  0.00000000000E+00 0.  1.
         25    1    1    2    0    0  0.31489161924E+03 -0.21528275072E+03 -0.57417509995E+03  0.70057507808E+03  0.12500000000E+03 0.  0.
          2    1    1    2  501    0 -0.31489161924E+03  0.21528275072E+03  0.27519588596E+03  0.47035749199E+03  0.00000000000E+00 0.  1.
<mgrwt>
<rscale>  3 0.40140802E+03</rscale>
<asrwt>0</asrwt>
<pdfrwt beam="1">  1       21 0.11307014E+00 0.40140802E+03</pdfrwt>
<pdfrwt beam="2">  1        2 0.67073334E-01 0.40140802E+03</pdfrwt>
<totfact> 0.50573200E+02</totfact>
</mgrwt>
</event>
<event>
 4    0  0.1492101E-001  0.2562477E+03  0.7546771E-02  0.1109419E+00
          1   -1    0    0  502    0 -0.00000000000E+00  0.00000000000E+00  0.67298253263E+03  0.67298253263E+03  0.00000000000E+00 0.  1.
         21   -1    0    0  501  502  0.00000000000E+00 -0.00000000000E+00 -0.90502650126E+02  0.90502650126E+02  0.00000000000E+00 0.  1.
         25    1    1    2    0    0  0.21714870438E+03  0.53705923165E+02  0.39886839754E+03  0.47408742290E+03  0.12500000000E+03 0.  0.
          1    1    1    2  501    0 -0.21714870438E+03 -0.53705923165E+02  0.18361148497E+03  0.28939775986E+03  0.00000000000E+00 0.  1.
<mgrwt>
<rscale>  3 0.25624770E+03</rscale>
<asrwt>0</asrwt>
<pdfrwt beam="1">  1       21 0.13923485E-01 0.25624770E+03</pdfrwt>
<pdfrwt beam="2">  1        1 0.10353577E+00 0.25624770E+03</pdfrwt>
<totfact> 0.14739496E+04</totfact>
</mgrwt>
</event>
<event>
 4    0  0.1475005E-001  0.3130095E+03  0.7546771E-02  0.1078912E+00
          2   -1    0    0  502    0 -0.00000000000E+00  0.00000000000E+00  0.21472079615E+04  0.21472079615E+04  0.00000000000E+00 0. -1.
         21   -1    0    0  501  502  0.00000000000E+00 -0.00000000000E+00 -0.14282234238E+03  0.14282234238E+03  0.00000000000E+00 0.  1.
         25    1    1    2    0    0  0.53880397546E+02  0.28186315853E+03  0.52766263220E+02  0.31742592192E+03  0.12500000000E+03 0.  0.
          2    1    1    2  501    0 -0.53880397546E+02 -0.28186315853E+03  0.19516193559E+04  0.19726043819E+04  0.00000000000E+00 0. -1.
<mgrwt>
<rscale>  3 0.31300948E+03</rscale>
<asrwt>0</asrwt>
<pdfrwt beam="1">  1       21 0.21972670E-01 0.31300948E+03</pdfrwt>
<pdfrwt beam="2">  1        2 0.33033966E+00 0.31300948E+03</pdfrwt>
<totfact> 0.14661504E+03</totfact>
</mgrwt>
</event>
<event>
 4    0  0.1002184E-001  0.2447537E+03  0.7546771E-02  0.1116666E+00
         -2   -1    0    0    0  501 -0.00000000000E+00  0.00000000000E+00  0.38896836675E+03  0.38896836675E+03  0.00000000000E+00 0.  1.
         21   -1    0    0  501  502  0.00000000000E+00 -0.00000000000E+00 -0.34386992342E+03  0.34386992342E+03  0.00000000000E+00 0. -1.
         25    1    1    2    0    0 -0.14347926602E+03  0.15392551417E+03 -0.26330159688E+03  0.35948865713E+03  0.12500000000E+03 0.  0.
         -2    1    1    2    0  502  0.14347926602E+03 -0.15392551417E+03  0.30840004021E+03  0.37334963304E+03  0.00000000000E+00 0.  1.
<mgrwt>
<rscale>  3 0.24475368E+03</rscale>
<asrwt>0</asrwt>
<pdfrwt beam="1">  1       21 0.52903065E-01 0.24475368E+03</pdfrwt>
<pdfrwt beam="2">  1       -2 0.59841287E-01 0.24475368E+03</pdfrwt>
<totfact> 0.71906874E+02</totfact>
</mgrwt>
</event>
<event>
 4    0  0.1234644E-001  0.2765584E+03  0.7546771E-02  0.1097584E+00
          3   -1    0    0  502    0 -0.00000000000E+00  0.00000000000E+00  0.20020739710E+03  0.20020739710E+03  0.00000000000E+00 0.  1.
         21   -1    0    0  501  502  0.00000000000E+00 -0.00000000000E+00 -0.34652213774E+03  0.34652213774E+03  0.00000000000E+00 0.  1.
         25    1    1    2    0    0 -0.12866188264E+03  0.21048905196E+03 -0.45724734394E+02  0.28031281165E+03  0.12500000000E+03 0.  0.
          3    1    1    2  501    0  0.12866188264E+03 -0.21048905196E+03 -0.10059000624E+03  0.26641672319E+03  0.00000000000E+00 0.  1.
<mgrwt>
<rscale>  3 0.27655835E+03</rscale>
<asrwt>0</asrwt>
<pdfrwt beam="1">  1       21 0.53311098E-01 0.27655835E+03</pdfrwt>
<pdfrwt beam="2">  1        3 0.30801138E-01 0.27655835E+03</pdfrwt>
<totfact> 0.16690949E+03</totfact>
</mgrwt>
</event>
<event>
 4    0  0.1002184E-001  0.5611501E+03  0.7546771E-02  0.9989456E-01
         21   -1    0    0  501  502  0.00000000000E+00  0.00000000000E+00  0.14869908595E+04  0.14869908595E+04  0.00000000000E+00 0.  1.
          2   -1    0    0  502    0 -0.00000000000E+00 -0.00000000000E+00 -0.30052343469E+03  0.30052343469E+03  0.00000000000E+00 0.  1.
         25    1    1    2    0    0 -0.31608496856E+03  0.44649158924E+03  0.10983741033E+04  0.12334160358E+04  0.12500000000E+03 0.  0.
          2    1    1    2  501    0  0.31608496856E+03 -0.44649158924E+03  0.88093321471E+02  0.55409825834E+03  0.00000000000E+00 0.  1.
<mgrwt>
<rscale>  3 0.56115011E+03</rscale>
<asrwt>0</asrwt>
<pdfrwt beam="1">  1       21 0.22876782E+00 0.56115011E+03</pdfrwt>
<pdfrwt beam="2">  1        2 0.46234376E-01 0.56115011E+03</pdfrwt>
<totfact> 0.98652756E+01</totfact>
</mgrwt>
</event>
<event>
 4    0  0.1818520E-001  0.2664961E+03  0.7546771E-02  0.1103302E+00
         21   -1    0    0  501  502  0.00000000000E+00  0.00000000000E+00  0.34250563931E+03  0.34250563931E+03  0.00000000000E+00 0.  1.
          1   -1    0    0  502    0 -0.00000000000E+00 -0.00000000000E+00 -0.92164866069E+03  0.92164866069E+03  0.00000000000E+00 0. -1.
         25    1    1    2    0    0  0.23000650227E+03  0.49921616117E+02  0.27216380854E+03  0.38091114124E+03  0.12500000000E+03 0.  0.
          1    1    1    2  501    0 -0.23000650227E+03 -0.49921616117E+02 -0.85130682992E+03  0.88324315876E+03  0.00000000000E+00 0. -1.
<mgrwt>
<rscale>  3 0.26649608E+03</rscale>
<asrwt>0</asrwt>
<pdfrwt beam="1">  1       21 0.52693176E-01 0.26649608E+03</pdfrwt>
<pdfrwt beam="2">  1        1 0.14179210E+00 0.26649608E+03</pdfrwt>
<totfact> 0.67595922E+02</totfact>
</mgrwt>
</event>
<event>
 4    0  0.1518338E-001  0.2781223E+03  0.7546771E-02  0.1096719E+00
         21   -1    0    0  501  502  0.00000000000E+00  0.00000000000E+00  0.51259928219E+03  0.51259928219E+03  0.00000000000E+00 0.  1.
          1   -1    0    0  502    0 -0.00000000000E+00 -0.00000000000E+00 -0.56699732636E+03  0.56699732636E+03  0.00000000000E+00 0.  1.
         25    1    1    2    0    0 -0.33101369738E+02 -0.24623422003E+03  0.44330520079E+03  0.52332732858E+03  0.12500000000E+03 0.  0.
          1    1    1    2  501    0  0.33101369738E+02  0.24623422003E+03 -0.49770324496E+03  0.55626927997E+03  0.00000000000E+00 0.  1.
<mgrwt>
<rscale>  3 0.27812226E+03</rscale>
<asrwt>0</asrwt>
<pdfrwt beam="1">  1       21 0.78861428E-01 0.27812226E+03</pdfrwt>
<pdfrwt beam="2">  1        1 0.87230358E-01 0.27812226E+03</pdfrwt>
<totfact> 0.57347272E+02</totfact>
</mgrwt>
</event>
<event>
 4    0  0.1769839E-001  0.2563960E+03  0.7546771E-02  0.1109328E+00
          1   -1    0    0  502    0 -0.00000000000E+00  0.00000000000E+00  0.16638111746E+04  0.16638111746E+04  0.00000000000E+00 0. -1.
         21   -1    0    0  501  502  0.00000000000E+00 -0.00000000000E+00 -0.46844781652E+03  0.46844781652E+03  0.00000000000E+00 0.  1.
         25    1    1    2    0    0  0.22247467087E+03  0.24878262776E+02 -0.42508357410E+03  0.49642215110E+03  0.12500000000E+03 0.  0.
          1    1    1    2  501    0 -0.22247467087E+03 -0.24878262776E+02  0.16204469322E+04  0.16358368400E+04  0.00000000000E+00 0. -1.
<mgrwt>
<rscale>  3 0.25639600E+03</rscale>
<asrwt>0</asrwt>
<pdfrwt beam="1">  1       21 0.72068896E-01 0.25639600E+03</pdfrwt>
<pdfrwt beam="2">  1        1 0.25597095E+00 0.25639600E+03</pdfrwt>
<totfact> 0.10492008E+02</totfact>
</mgrwt>
</event>
<event>
 4    0  0.1533745E-001  0.3154708E+03  0.7546771E-02  0.1077753E+00
          1   -1    0    0  502    0 -0.00000000000E+00  0.00000000000E+00  0.17684837706E+04  0.17684837706E+04  0.00000000000E+00 0.  1.
         21   -1    0    0  501  502  0.00000000000E+00 -0.00000000000E+00 -0.84296552582E+02  0.84296552582E+02  0.00000000000E+00 0.  1.
         25    1    1    2    0    0 -0.28664197717E+03 -0.41632039976E+02  0.28897140788E+03  0.42781575988E+03  0.12500000000E+03 0.  0.
          1    1    1    2  501    0  0.28664197717E+03  0.41632039976E+02  0.13952158102E+04  0.14249645633E+04  0.00000000000E+00 0.  1.
<mgrwt>
<rscale>  3 0.31547084E+03</rscale>
<asrwt>0</asrwt>
<pdfrwt beam="1">  1       21 0.12968702E-01 0.31547084E+03</pdfrwt>
<pdfrwt beam="2">  1        1 0.27207440E+00 0.31547084E+03</pdfrwt>
<totfact> 0.26400865E+03</totfact>
</mgrwt>
</event>
<event>
 4    0  0.1174690E-001  0.2373666E+03  0.7546771E-02  0.1121560E+00
          2   -1    0    0  502    0 -0.00000000000E+00  0.00000000000E+00  0.84269271932E+03  0.84269271932E+03  0.00000000000E+00 0. -1.
         21   -1    0    0  501  502  0.00000000000E+00 -0.00000000000E+00 -0.12432922896E+03  0.12432922896E+03  0.00000000000E+00 0.  1.
         25    1    1    2    0    0 -0.20163052298E+03 -0.79381455512E+01  0.17863659959E+02  0.23803779595E+03  0.12500000000E+03 0.  0.
          2    1    1    2  501    0  0.20163052298E+03  0.79381455512E+01  0.70049983041E+03  0.72898415233E+03  0.00000000000E+00 0. -1.
<mgrwt>
<rscale>  3 0.23736656E+03</rscale>
<asrwt>0</asrwt>
<pdfrwt beam="1">  1       21 0.19127574E-01 0.23736656E+03</pdfrwt>
<pdfrwt beam="2">  1        2 0.12964503E+00 0.23736656E+03</pdfrwt>
<totfact> 0.10408226E+04</totfact>
</mgrwt>
</event>
<event>
 4    0  0.1024054E-001  0.2903838E+03  0.7546771E-02  0.1090149E+00
         21   -1    0    0  501  502  0.00000000000E+00  0.00000000000E+00  0.35098771765E+03  0.35098771765E+03  0.00000000000E+00 0.  1.
          1   -1    0    0  502    0 -0.00000000000E+00 -0.00000000000E+00 -0.33858876715E+03  0.33858876715E+03  0.00000000000E+00 0. -1.
         25    1    1    2    0    0  0.21420489537E+03  0.15104307513E+03  0.21249153058E+03  0.35982690049E+03  0.12500000000E+03 0.  0.
          1    1    1    2  501    0 -0.21420489537E+03 -0.15104307513E+03 -0.20009258008E+03  0.32974958430E+03  0.00000000000E+00 0. -1.
<mgrwt>
<rscale>  3 0.29038379E+03</rscale>
<asrwt>0</asrwt>
<pdfrwt beam="1">  1       21 0.53998111E-01 0.29038379E+03</pdfrwt>
<pdfrwt beam="2">  1        1 0.52090579E-01 0.29038379E+03</pdfrwt>
<totfact> 0.25858535E+03</totfact>
</mgrwt>
</event>
<event>
 4    0  0.1415952E-001  0.3274143E+03  0.7546771E-02  0.1072287E+00
          1   -1    0    0  502    0 -0.00000000000E+00  0.00000000000E+00  0.69327690159E+03  0.69327690159E+03  0.00000000000E+00 0.  1.
         21   -1    0    0  501  502  0.00000000000E+00 -0.00000000000E+00 -0.12969417097E+04  0.12969417097E+04  0.00000000000E+00 0.  1.
         25    1    1    2    0    0  0.29848406662E+03 -0.49823501234E+02 -0.12416549779E+04  0.12840978170E+04  0.12500000000E+03 0.  0.
          1    1    1    2  501    0 -0.29848406662E+03  0.49823501234E+02  0.63799016986E+03  0.70612079430E+03  0.00000000000E+00 0.  1.
<mgrwt>
<rscale>  3 0.32741429E+03</rscale>
<asrwt>0</asrwt>
<pdfrwt beam="1">  1       21 0.19952949E+00 0.32741429E+03</pdfrwt>
<pdfrwt beam="2">  1        1 0.10665798E+00 0.32741429E+03</pdfrwt>
<totfact> 0.38498272E+01</totfact>
</mgrwt>
</event>
<event>
 4    0  0.1002184E-001  0.2581185E+03  0.7546771E-02  0.1108279E+00
         21   -1    0    0  501  502  0.00000000000E+00  0.00000000000E+00  0.17461851682E+02  0.17461851682E+02  0.00000000000E+00 0. -1.
          2   -1    0    0  502    0 -0.00000000000E+00 -0.00000000000E+00 -0.51559452749E+04  0.51559452749E+04  0.00000000000E+00 0. -1.
         25    1    1    2    0    0 -0.19454423474E+03 -0.11468518813E+03 -0.11533681290E+04  0.11818981313E+04  0.12500000000E+03 0.  0.
          2    1    1    2  501    0  0.19454423474E+03  0.11468518813E+03 -0.39851152942E+04  0.39915089954E+04  0.00000000000E+00 0. -1.
<mgrwt>
<rscale>  3 0.25811848E+03</rscale>
<asrwt>0</asrwt>
<pdfrwt beam="1">  1       21 0.26864334E-02 0.25811848E+03</pdfrwt>
<pdfrwt beam="2">  1        2 0.79322391E+00 0.25811848E+03</pdfrwt>
<totfact> 0.31636262E+02</totfact>
</mgrwt>
</event>
<event>
 4    0  0.1002184E-001  0.2999112E+03  0.7546771E-02  0.1085285E+00
         21   -1    0    0  501  502  0.00000000000E+00  0.00000000000E+00  0.62844041548E+02  0.62844041548E+02  0.00000000000E+00 0. -1.
          1   -1    0    0  502    0 -0.00000000000E+00 -0.00000000000E+00 -0.14697607098E+04  0.14697607098E+04  0.00000000000E+00 0.  1.
         25    1    1    2    0    0  0.20868622347E+03 -0.17541885347E+03 -0.47611415552E+03  0.56270010051E+03  0.12500000000E+03 0.  0.
          1    1    1    2  501    0 -0.20868622347E+03  0.17541885347E+03 -0.93080251271E+03  0.96990465082E+03  0.00000000000E+00 0.  1.
<mgrwt>
<rscale>  3 0.29991118E+03</rscale>
<asrwt>0</asrwt>
<pdfrwt beam="1">  1       21 0.96683153E-02 0.29991118E+03</pdfrwt>
<pdfrwt beam="2">  1        1 0.22611700E+00 0.29991118E+03</pdfrwt>
<totfact> 0.70836983E+03</totfact>
</mgrwt>
</event>
<event>
 4    0  0.1002184E-001  0.2622865E+03  0.7546771E-02  0.1105777E+00
         21   -1    0    0  501  502  0.00000000000E+00  0.00000000000E+00  0.54273721171E+02  0.54273721171E+02  0.00000000000E+00 0. -1.
         -3   -1    0    0    0  501 -0.00000000000E+00 -0.00000000000E+00 -0.45254067685E+04  0.45254067685E+04  0.00000000000E+00 0. -1.
         25    1    1    2    0    0  0.22152568013E+03  0.63996780918E+02 -0.28546313822E+03  0.38766405328E+03  0.12500000000E+03 0.  0.
         -3    1    1    2    0  502 -0.22152568013E+03 -0.63996780918E+02 -0.41856699091E+04  0.41920164364E+04  0.00000000000E+00 0. -1.
<mgrwt>
<rscale>  3 0.26228651E+03</rscale>
<asrwt>0</asrwt>
<pdfrwt beam="1">  1       21 0.83497982E-02 0.26228651E+03</pdfrwt>
<pdfrwt beam="2">  1       -3 0.69621685E+00 0.26228651E+03</pdfrwt>
<totfact> 0.19272225E+00</totfact>
</mgrwt>
</event>
<event>
 4    0  0.1652621E-001  0.2675058E+03  0.7546771E-02  0.1102716E+00
         -1   -1    0    0    0  501 -0.00000000000E+00  0.00000000000E+00  0.48153502753E+03  0.48153502753E+03  0.00000000000E+00 0.  1.
         21   -1    0    0  501  502  0.00000000000E+00 -0.00000000000E+00 -0.18281023577E+03  0.18281023577E+03  0.00000000000E+00 0.  1.
         25    1    1    2    0    0  0.14136279778E+03  0.18960723690E+03 -0.19092185644E+02  0.26818623461E+03  0.12500000000E+03 0.  0.
         -1    1    1    2    0  502 -0.14136279778E+03 -0.18960723690E+03  0.31781697741E+03  0.39615902869E+03  0.00000000000E+00 0.  1.
<mgrwt>
<rscale>  3 0.26750578E+03</rscale>
<asrwt>0</asrwt>
<pdfrwt beam="1">  1       21 0.28124652E-01 0.26750578E+03</pdfrwt>
<pdfrwt beam="2">  1       -1 0.74082311E-01 0.26750578E+03</pdfrwt>
<totfact> 0.21088627E+03</totfact>
</mgrwt>
</event>
<event>
 4    0  0.1002184E-001  0.5156980E+03  0.7546771E-02  0.1009761E+00
          1   -1    0    0  502    0 -0.00000000000E+00  0.00000000000E+00  0.10788333576E+04  0.10788333576E+04  0.00000000000E+00 0. -1.
         21   -1    0    0  501  502  0.00000000000E+00 -0.00000000000E+00 -0.28460658372E+03  0.28460658372E+03  0.00000000000E+00 0.  1.
         25    1    1    2    0    0 -0.48414966159E+03  0.12616869721E+03  0.12993878684E+03  0.53181624956E+03  0.12500000000E+03 0.  0.
          1    1    1    2  501    0  0.48414966159E+03 -0.12616869721E+03  0.66428798708E+03  0.83162369180E+03  0.00000000000E+00 0. -1.
<mgrwt>
<rscale>  3 0.51569801E+03</rscale>
<asrwt>0</asrwt>
<pdfrwt beam="1">  1       21 0.43785629E-01 0.51569801E+03</pdfrwt>
<pdfrwt beam="2">  1        1 0.16597436E+00 0.51569801E+03</pdfrwt>
<totfact> 0.70095580E+02</totfact>
</mgrwt>
</event>
<event>
 4    0  0.1148637E-001  0.2555942E+03  0.7546771E-02  0.1109820E+00
          2   -1    0    0  502    0 -0.00000000000E+00  0.00000000000E+00  0.25974080551E+03  0.25974080551E+03  0.00000000000E+00 0. -1.
         21   -1    0    0  501  502  0.00000000000E+00 -0.00000000000E+00 -0.66425916661E+03  0.66425916661E+03  0.00000000000E+00 0.  1.
         25    1    1    2    0    0 -0.69642459099E+02  0.21178602711E+03 -0.58419797665E+03  0.63766422928E+03  0.12500000000E+03 0.  0.
          2    1    1    2  501    0  0.69642459099E+02 -0.21178602711E+03  0.17967961555E+03  0.28633574284E+03  0.00000000000E+00 0. -1.
<mgrwt>
<rscale>  3 0.25559420E+03</rscale>
<asrwt>0</asrwt>
<pdfrwt beam="1">  1       21 0.10219372E+00 0.25559420E+03</pdfrwt>
<pdfrwt beam="2">  1        2 0.39960123E-01 0.25559420E+03</pdfrwt>
<totfact> 0.11994983E+03</totfact>
</mgrwt>
</event>
<event>
 4    0  0.1086901E-001  0.5085602E+03  0.7546771E-02  0.1011568E+00
         21   -1    0    0  501  502  0.00000000000E+00  0.00000000000E+00  0.11820393596E+04  0.11820393596E+04  0.00000000000E+00 0. -1.
          2   -1    0    0  502    0 -0.00000000000E+00 -0.00000000000E+00 -0.62612815581E+03  0.62612815581E+03  0.00000000000E+00 0.  1.
         25    1    1    2    0    0  0.49198032037E+03 -0.31045553637E+02  0.10145323160E+04  0.11348609087E+04  0.12500000000E+03 0.  0.
          2    1    1    2  501    0 -0.49198032037E+03  0.31045553637E+02 -0.45862111219E+03  0.67330660667E+03  0.00000000000E+00 0.  1.
<mgrwt>
<rscale>  3 0.50856019E+03</rscale>
<asrwt>0</asrwt>
<pdfrwt beam="1">  1       21 0.18185221E+00 0.50856019E+03</pdfrwt>
<pdfrwt beam="2">  1        2 0.96327408E-01 0.50856019E+03</pdfrwt>
<totfact> 0.89487196E+01</totfact>
</mgrwt>
</event>
<event>
 4    0  0.1002184E-001  0.2657262E+03  0.7546771E-02  0.1103751E+00
         21   -1    0    0  501  502  0.00000000000E+00  0.00000000000E+00  0.20613535193E+02  0.20613535193E+02  0.00000000000E+00 0. -1.
          2   -1    0    0  502    0 -0.00000000000E+00 -0.00000000000E+00 -0.31178188373E+04  0.31178188373E+04  0.00000000000E+00 0.  1.
         25    1    1    2    0    0  0.14646070821E+03  0.18312478792E+03 -0.13868544388E+04  0.14120820307E+04  0.12500000000E+03 0.  0.
          2    1    1    2  501    0 -0.14646070821E+03 -0.18312478792E+03 -0.17103508633E+04  0.17263503418E+04  0.00000000000E+00 0.  1.
<mgrwt>
<rscale>  3 0.26572623E+03</rscale>
<asrwt>0</asrwt>
<pdfrwt beam="1">  1       21 0.31713102E-02 0.26572623E+03</pdfrwt>
<pdfrwt beam="2">  1        2 0.47966488E+00 0.26572623E+03</pdfrwt>
<totfact> 0.13069043E+04</totfact>
</mgrwt>
</event>
<event>
 4    0  0.1356912E-001  0.2798021E+03  0.7546771E-02  0.1095797E+00
          2   -1    0    0  502    0 -0.00000000000E+00  0.00000000000E+00  0.27217269813E+03  0.27217269813E+03  0.00000000000E+00 0.  1.
         21   -1    0    0  501  502  0.00000000000E+00 -0.00000000000E+00 -0.27253819520E+03  0.27253819520E+03  0.00000000000E+00 0.  1.
         25    1    1    2    0    0  0.17891836069E+03  0.17507830847E+03 -0.62694135086E+02  0.28673986200E+03  0.12500000000E+03 0.  0.
          2    1    1    2  501    0 -0.17891836069E+03 -0.17507830847E+03  0.62328638008E+02  0.25797103133E+03  0.00000000000E+00 0.  1.
<mgrwt>
<rscale>  3 0.27980206E+03</rscale>
<asrwt>0</asrwt>
<pdfrwt beam="1">  1       21 0.41928953E-01 0.27980206E+03</pdfrwt>
<pdfrwt beam="2">  1        2 0.41872723E-01 0.27980206E+03</pdfrwt>
<totfact> 0.80882588E+03</totfact>
</mgrwt>
</event>
<event>
 4    0  0.1440238E-001  0.2456456E+03  0.7546771E-02  0.1116088E+00
          1   -1    0    0  502    0 -0.00000000000E+00  0.00000000000E+00  0.50243693053E+03  0.50243693053E+03  0.00000000000E+00 0. -1.
         21   -1    0    0  501  502  0.00000000000E+00 -0.00000000000E+00 -0.10814509751E+03  0.10814509751E+03  0.00000000000E+00 0. -1.
         25    1    1    2    0    0 -0.59723426018E+01  0.21137900905E+03  0.15147773626E+03  0.28859532035E+03  0.12500000000E+03 0.  0.
          1    1    1    2  501    0  0.59723426018E+01 -0.21137900905E+03  0.24281409677E+03  0.32198670770E+03  0.00000000000E+00 0. -1.
<mgrwt>
<rscale>  3 0.24564559E+03</rscale>
<asrwt>0</asrwt>
<pdfrwt beam="1">  1       21 0.16637708E-01 0.24564559E+03</pdfrwt>
<pdfrwt beam="2">  1        1 0.77297988E-01 0.24564559E+03</pdfrwt>
<totfact> 0.15950025E+04</totfact>
</mgrwt>
</event>
<event>
 4    0  0.1326710E-001  0.2421866E+03  0.7546771E-02  0.1118345E+00
         21   -1    0    0  501  502  0.00000000000E+00  0.00000000000E+00  0.16533923185E+03  0.16533923185E+03  0.00000000000E+00 0.  1.
          2   -1    0    0  502    0 -0.00000000000E+00 -0.00000000000E+00 -0.16543201970E+04  0.16543201970E+04  0.00000000000E+00 0.  1.
         25    1    1    2    0    0 -0.18753245018E+03  0.88661767459E+02  0.65908234324E+02  0.25099447052E+03  0.12500000000E+03 0.  0.
          2    1    1    2  501    0  0.18753245018E+03 -0.88661767459E+02 -0.15548891995E+04  0.15686649583E+04  0.00000000000E+00 0.  1.
<mgrwt>
<rscale>  3 0.24218656E+03</rscale>
<asrwt>0</asrwt>
<pdfrwt beam="1">  1       21 0.25436805E-01 0.24218656E+03</pdfrwt>
<pdfrwt beam="2">  1        2 0.25451079E+00 0.24218656E+03</pdfrwt>
<totfact> 0.20791222E+03</totfact>
</mgrwt>
</event>
<event>
 4    0  0.1412180E-001  0.2741695E+03  0.7546771E-02  0.1098917E+00
          2   -1    0    0  502    0 -0.00000000000E+00  0.00000000000E+00  0.66893727763E+03  0.66893727763E+03  0.00000000000E+00 0.  1.
         21   -1    0    0  501  502  0.00000000000E+00 -0.00000000000E+00 -0.67030436402E+03  0.67030436402E+03  0.00000000000E+00 0.  1.
         25    1    1    2    0    0 -0.62646909222E+02 -0.23583740888E+03 -0.61799783662E+03  0.67608449526E+03  0.12500000000E+03 0.  0.
          2    1    1    2  501    0  0.62646909222E+02  0.23583740888E+03  0.61663075023E+03  0.66315714638E+03  0.00000000000E+00 0.  1.
<mgrwt>
<rscale>  3 0.27416951E+03</rscale>
<asrwt>0</asrwt>
<pdfrwt beam="1">  1       21 0.10312375E+00 0.27416951E+03</pdfrwt>
<pdfrwt beam="2">  1        2 0.10291343E+00 0.27416951E+03</pdfrwt>
<totfact> 0.40619621E+02</totfact>
</mgrwt>
</event>
<event>
 4    0  0.1472464E-001  0.2741789E+03  0.7546771E-02  0.1098911E+00
         21   -1    0    0  501  502  0.00000000000E+00  0.00000000000E+00  0.98136005774E+02  0.98136005774E+02  0.00000000000E+00 0.  1.
          2   -1    0    0  502    0 -0.00000000000E+00 -0.00000000000E+00 -0.18350745013E+04  0.18350745013E+04  0.00000000000E+00 0.  1.
         25    1    1    2    0    0 -0.24243723868E+03 -0.27807335545E+02 -0.12227090690E+03  0.30020699073E+03  0.12500000000E+03 0.  0.
          2    1    1    2  501    0  0.24243723868E+03  0.27807335545E+02 -0.16146675886E+04  0.16330035163E+04  0.00000000000E+00 0.  1.
<mgrwt>
<rscale>  3 0.27417889E+03</rscale>
<asrwt>0</asrwt>
<pdfrwt beam="1">  1       21 0.15097848E-01 0.27417889E+03</pdfrwt>
<pdfrwt beam="2">  1        2 0.28231913E+00 0.27417889E+03</pdfrwt>
<totfact> 0.43901629E+03</totfact>
</mgrwt>
</event>
<event>
 4    0  0.1024383E-001  0.2417821E+03  0.7546771E-02  0.1118611E+00
         21   -1    0    0  501  502  0.00000000000E+00  0.00000000000E+00  0.50390757866E+03  0.50390757866E+03  0.00000000000E+00 0.  1.
          3   -1    0    0  502    0 -0.00000000000E+00 -0.00000000000E+00 -0.23611615973E+03  0.23611615973E+03  0.00000000000E+00 0. -1.
         25    1    1    2    0    0 -0.24204211910E+02  0.20554250961E+03  0.41896745520E+03  0.48372750144E+03  0.12500000000E+03 0.  0.
          3    1    1    2  501    0  0.24204211910E+02 -0.20554250961E+03 -0.15117603628E+03  0.25629623695E+03  0.00000000000E+00 0. -1.
<mgrwt>
<rscale>  3 0.24178207E+03</rscale>
<asrwt>0</asrwt>
<pdfrwt beam="1">  1       21 0.77524243E-01 0.24178207E+03</pdfrwt>
<pdfrwt beam="2">  1        3 0.36325563E-01 0.24178207E+03</pdfrwt>
<totfact> 0.53949031E+02</totfact>
</mgrwt>
</event>
<event>
 4    0  0.1002184E-001  0.2385822E+03  0.7546771E-02  0.1120741E+00
          2   -1    0    0  502    0 -0.00000000000E+00  0.00000000000E+00  0.56206650731E+03  0.56206650731E+03  0.00000000000E+00 0.  1.
         21   -1    0    0  501  502  0.00000000000E+00 -0.00000000000E+00 -0.87568164185E+02  0.87568164185E+02  0.00000000000E+00 0. -1.
         25    1    1    2    0    0 -0.23757581820E+02 -0.20182180929E+03  0.22606652086E+03  0.32867542843E+03  0.12500000000E+03 0.  0.
          2    1    1    2  501    0  0.23757581820E+02  0.20182180929E+03  0.24843182226E+03  0.32095924306E+03  0.00000000000E+00 0.  1.
<mgrwt>
<rscale>  3 0.23858220E+03</rscale>
<asrwt>0</asrwt>
<pdfrwt beam="1">  1       21 0.13472026E-01 0.23858220E+03</pdfrwt>
<pdfrwt beam="2">  1        2 0.86471768E-01 0.23858220E+03</pdfrwt>
<totfact> 0.32411429E+04</totfact>
</mgrwt>
</event>
<event>
 4    0  0.1002184E-001  0.2676263E+03  0.7546771E-02  0.1102646E+00
          2   -1    0    0  502    0 -0.00000000000E+00  0.00000000000E+00  0.33367927302E+04  0.33367927302E+04  0.00000000000E+00 0.  1.
         21   -1    0    0  501  502  0.00000000000E+00 -0.00000000000E+00 -0.50943501414E+03  0.50943501414E+03  0.00000000000E+00 0. -1.
         25    1    1    2    0    0 -0.10549217871E+03  0.21182600786E+03 -0.46975069963E+03  0.54063812035E+03  0.12500000000E+03 0.  0.
          2    1    1    2  501    0  0.10549217871E+03 -0.21182600786E+03  0.32971084157E+04  0.33055896240E+04  0.00000000000E+00 0.  1.
<mgrwt>
<rscale>  3 0.26762634E+03</rscale>
<asrwt>0</asrwt>
<pdfrwt beam="1">  1       21 0.78374620E-01 0.26762634E+03</pdfrwt>
<pdfrwt beam="2">  1        2 0.51335271E+00 0.26762634E+03</pdfrwt>
<totfact> 0.22763486E+01</totfact>
</mgrwt>
</event>
<event>
 4    0  0.1476106E-001  0.2805445E+03  0.7546771E-02  0.1095392E+00
         21   -1    0    0  501  502  0.00000000000E+00  0.00000000000E+00  0.96095722901E+02  0.96095722901E+02  0.00000000000E+00 0. -1.
          2   -1    0    0  502    0 -0.00000000000E+00 -0.00000000000E+00 -0.13536047809E+04  0.13536047809E+04  0.00000000000E+00 0. -1.
         25    1    1    2    0    0  0.12683576648E+03 -0.21677852321E+03 -0.15822014837E+03  0.32208516752E+03  0.12500000000E+03 0.  0.
          2    1    1    2  501    0 -0.12683576648E+03  0.21677852321E+03 -0.10992889096E+04  0.11276153363E+04  0.00000000000E+00 0. -1.
<mgrwt>
<rscale>  3 0.28054454E+03</rscale>
<asrwt>0</asrwt>
<pdfrwt beam="1">  1       21 0.14783959E-01 0.28054454E+03</pdfrwt>
<pdfrwt beam="2">  1        2 0.20824687E+00 0.28054454E+03</pdfrwt>
<totfact> 0.82276903E+03</totfact>
</mgrwt>
</event>
<event>
 4    0  0.1162951E-001  0.3057387E+03  0.7546771E-02  0.1082407E+00
         21   -1    0    0  501  502  0.00000000000E+00  0.00000000000E+00  0.35755899472E+03  0.35755899472E+03  0.00000000000E+00 0. -1.
          1   -1    0    0  502    0 -0.00000000000E+00 -0.00000000000E+00 -0.38359305873E+03  0.38359305873E+03  0.00000000000E+00 0. -1.
         25    1    1    2    0    0  0.27849374374E+03  0.17098557757E+02  0.21391935786E+03  0.37314557166E+03  0.12500000000E+03 0.  0.
          1    1    1    2  501    0 -0.27849374374E+03 -0.17098557757E+02 -0.23995342187E+03  0.36800648180E+03  0.00000000000E+00 0. -1.
<mgrwt>
<rscale>  3 0.30573866E+03</rscale>
<asrwt>0</asrwt>
<pdfrwt beam="1">  1       21 0.55009076E-01 0.30573866E+03</pdfrwt>
<pdfrwt beam="2">  1        1 0.59014316E-01 0.30573866E+03</pdfrwt>
<totfact> 0.21096071E+03</totfact>
</mgrwt>
</event>
<event>
 4    0  0.1002184E-001  0.3904775E+03  0.7546771E-02  0.1047128E+00
         -2   -1    0    0    0  501 -0.00000000000E+00  0.00000000000E+00  0.52621467325E+03  0.52621467325E+03  0.00000000000E+00 0.  1.
         21   -1    0    0  501  502  0.00000000000E+00 -0.00000000000E+00 -0.27512654090E+03  0.27512654090E+03  0.00000000000E+00 0. -1.
         25    1    1    2    0    0  0.36832046636E+03  0.34462817219E+02  0.11328174347E+03  0.40657767414E+03  0.12500000000E+03 0.  0.
         -2    1    1    2    0  502 -0.36832046636E+03 -0.34462817219E+02  0.13780638888E+03  0.39476354001E+03  0.00000000000E+00 0.  1.
<mgrwt>
<rscale>  3 0.39047747E+03</rscale>
<asrwt>0</asrwt>
<pdfrwt beam="1">  1       21 0.42327160E-01 0.39047747E+03</pdfrwt>
<pdfrwt beam="2">  1       -2 0.80956104E-01 0.39047747E+03</pdfrwt>
<totfact> 0.57677629E+02</totfact>
</mgrwt>
</event>
<event>
 4    0  0.1378103E-001  0.3062181E+03  0.7546771E-02  0.1082173E+00
         21   -1    0    0  501  502  0.00000000000E+00  0.00000000000E+00  0.13373774897E+03  0.13373774897E+03  0.00000000000E+00 0. -1.
          2   -1    0    0  502    0 -0.00000000000E+00 -0.00000000000E+00 -0.22804274267E+04  0.22804274267E+04  0.00000000000E+00 0. -1.
         25    1    1    2    0    0  0.41597135967E+02  0.27643120974E+03 -0.64045674671E+02  0.31284402485E+03  0.12500000000E+03 0.  0.
          2    1    1    2  501    0 -0.41597135967E+02 -0.27643120974E+03 -0.20826440031E+04  0.21013211509E+04  0.00000000000E+00 0. -1.
<mgrwt>
<rscale>  3 0.30621812E+03</rscale>
<asrwt>0</asrwt>
<pdfrwt beam="1">  1       21 0.20575038E-01 0.30621812E+03</pdfrwt>
<pdfrwt beam="2">  1        2 0.35083499E+00 0.30621812E+03</pdfrwt>
<totfact> 0.14135712E+03</totfact>
</mgrwt>
</event>
<event>
 4    0  0.1002184E-001  0.3150220E+03  0.7546771E-02  0.1077963E+00
          2   -1    0    0  502    0 -0.00000000000E+00  0.00000000000E+00  0.40541595188E+03  0.40541595188E+03  0.00000000000E+00 0. -1.
         21   -1    0    0  501  502  0.00000000000E+00 -0.00000000000E+00 -0.26016141278E+03  0.26016141278E+03  0.00000000000E+00 0.  1.
         25    1    1    2    0    0 -0.15576472004E+03  0.24362107570E+03 -0.46755120486E+02  0.31847278977E+03  0.12500000000E+03 0.  0.
          2    1    1    2  501    0  0.15576472004E+03 -0.24362107570E+03  0.19200965959E+03  0.34710457489E+03  0.00000000000E+00 0. -1.
<mgrwt>
<rscale>  3 0.31502203E+03</rscale>
<asrwt>0</asrwt>
<pdfrwt beam="1">  1       21 0.40024833E-01 0.31502203E+03</pdfrwt>
<pdfrwt beam="2">  1        2 0.62371685E-01 0.31502203E+03</pdfrwt>
<totfact> 0.57262277E+03</totfact>
</mgrwt>
</event>
<event>
 4    0  0.1002184E-001  0.3255677E+03  0.7546771E-02  0.1073115E+00
         21   -1    0    0  501  502  0.00000000000E+00  0.00000000000E+00  0.15087733243E+04  0.15087733243E+04  0.00000000000E+00 0. -1.
         -2   -1    0    0    0  501 -0.00000000000E+00 -0.00000000000E+00 -0.72681907011E+02  0.72681907011E+02  0.00000000000E+00 0.  1.
         25    1    1    2    0    0  0.18539053484E+03 -0.23664248574E+03  0.10009974235E+04  0.10526111145E+04  0.12500000000E+03 0.  0.
         -2    1    1    2    0  502 -0.18539053484E+03  0.23664248574E+03  0.43509399372E+03  0.52884411677E+03  0.00000000000E+00 0.  1.
<mgrwt>
<rscale>  3 0.32556768E+03</rscale>
<asrwt>0</asrwt>
<pdfrwt beam="1">  1       21 0.23211895E+00 0.32556768E+03</pdfrwt>
<pdfrwt beam="2">  1       -2 0.11181833E-01 0.32556768E+03</pdfrwt>
<totfact> 0.34266785E+02</totfact>
</mgrwt>
</event>
<event>
 4    0  0.1002184E-001  0.4822147E+03  0.7546771E-02  0.1018528E+00
         21   -1    0    0  501  502  0.00000000000E+00  0.00000000000E+00  0.11692268436E+03  0.11692268436E+03  0.00000000000E+00 0. -1.
          2   -1    0    0  502    0 -0.00000000000E+00 -0.00000000000E+00 -0.24311695828E+04  0.24311695828E+04  0.00000000000E+00 0.  1.
         25    1    1    2    0    0 -0.32346965937E+03  0.33507221205E+03 -0.58967399939E+03  0.76173908484E+03  0.12500000000E+03 0.  0.
          2    1    1    2  501    0  0.32346965937E+03 -0.33507221205E+03 -0.17245728991E+04  0.17863531823E+04  0.00000000000E+00 0.  1.
<mgrwt>
<rscale>  3 0.48221469E+03</rscale>
<asrwt>0</asrwt>
<pdfrwt beam="1">  1       21 0.17988106E-01 0.48221469E+03</pdfrwt>
<pdfrwt beam="2">  1        2 0.37402607E+00 0.48221469E+03</pdfrwt>
<totfact> 0.14193954E+03</totfact>
</mgrwt>
</event>
<event>
 4    0  0.1131763E-001  0.2665445E+03  0.7546771E-02  0.1103274E+00
          3   -1    0    0  502    0 -0.00000000000E+00  0.00000000000E+00  0.20594437048E+03  0.20594437048E+03  0.00000000000E+00 0. -1.
         21   -1    0    0  501  502  0.00000000000E+00 -0.00000000000E+00 -0.55994136438E+03  0.55994136438E+03  0.00000000000E+00 0. -1.
         25    1    1    2    0    0  0.15011462574E+03  0.18134649568E+03 -0.44067851282E+03  0.51501796475E+03  0.12500000000E+03 0.  0.
          3    1    1    2  501    0 -0.15011462574E+03 -0.18134649568E+03  0.86681518916E+02  0.25086777010E+03  0.00000000000E+00 0. -1.
<mgrwt>
<rscale>  3 0.26654447E+03</rscale>
<asrwt>0</asrwt>
<pdfrwt beam="1">  1       21 0.86144824E-01 0.26654447E+03</pdfrwt>
<pdfrwt beam="2">  1        3 0.31683750E-01 0.26654447E+03</pdfrwt>
<totfact> 0.54751679E+02</totfact>
</mgrwt>
</event>
<event>
 4    0  0.1190659E-001  0.2470779E+03  0.7546771E-02  0.1115166E+00
          1   -1    0    0  502    0 -0.00000000000E+00  0.00000000000E+00  0.16873223982E+03  0.16873223982E+03  0.00000000000E+00 0.  1.
         21   -1    0    0  501  502  0.00000000000E+00 -0.00000000000E+00 -0.34687154976E+03  0.34687154976E+03  0.00000000000E+00 0.  1.
         25    1    1    2    0    0  0.20892657041E+03 -0.42097180936E+02 -0.17443080773E+03  0.30244601362E+03  0.12500000000E+03 0.  0.
          1    1    1    2  501    0 -0.20892657041E+03  0.42097180936E+02 -0.37085022123E+01  0.21315777597E+03  0.00000000000E+00 0.  1.
<mgrwt>
<rscale>  3 0.24707789E+03</rscale>
<asrwt>0</asrwt>
<pdfrwt beam="1">  1       21 0.53364853E-01 0.24707789E+03</pdfrwt>
<pdfrwt beam="2">  1        1 0.25958807E-01 0.24707789E+03</pdfrwt>
<totfact> 0.64683307E+03</totfact>
</mgrwt>
</event>
<event>
 4    0  0.1344752E-001  0.3074746E+03  0.7546771E-02  0.1081563E+00
          2   -1    0    0  502    0 -0.00000000000E+00  0.00000000000E+00  0.17888152856E+04  0.17888152856E+04  0.00000000000E+00 0.  1.
         21   -1    0    0  501  502  0.00000000000E+00 -0.00000000000E+00 -0.10454691155E+03  0.10454691155E+03  0.00000000000E+00 0. -1.
         25    1    1    2    0    0  0.86834748286E+02 -0.26716165642E+03  0.16619574692E+03  0.34951630930E+03  0.12500000000E+03 0.  0.
          2    1    1    2  501    0 -0.86834748286E+02  0.26716165642E+03  0.15180726271E+04  0.15438458878E+04  0.00000000000E+00 0.  1.
<mgrwt>
<rscale>  3 0.30747459E+03</rscale>
<asrwt>0</asrwt>
<pdfrwt beam="1">  1       21 0.16084142E-01 0.30747459E+03</pdfrwt>
<pdfrwt beam="2">  1        2 0.27520233E+00 0.30747459E+03</pdfrwt>
<totfact> 0.40849673E+03</totfact>
</mgrwt>
</event>
<event>
 4    0  0.1002184E-001  0.2501097E+03  0.7546771E-02  0.1113235E+00
         21   -1    0    0  501  502  0.00000000000E+00  0.00000000000E+00  0.53293419972E+03  0.53293419972E+03  0.00000000000E+00 0.  1.
         -1   -1    0    0    0  501 -0.00000000000E+00 -0.00000000000E+00 -0.29400567712E+03  0.29400567712E+03  0.00000000000E+00 0. -1.
         25    1    1    2    0    0  0.21659128731E+03 -0.42534717819E+01  0.45611165029E+03  0.52018527016E+03  0.12500000000E+03 0.  0.
         -1    1    1    2    0  502 -0.21659128731E+03  0.42534717819E+01 -0.21718312769E+03  0.30675460667E+03  0.00000000000E+00 0. -1.
<mgrwt>
<rscale>  3 0.25010973E+03</rscale>
<asrwt>0</asrwt>
<pdfrwt beam="1">  1       21 0.81989877E-01 0.25010973E+03</pdfrwt>
<pdfrwt beam="2">  1       -1 0.45231643E-01 0.25010973E+03</pdfrwt>
<totfact> 0.57836911E+02</totfact>
</mgrwt>
</event>
<event>
 4    0  0.1193372E-001  0.4174831E+03  0.7546771E-02  0.1037889E+00
          2   -1    0    0  502    0 -0.00000000000E+00  0.00000000000E+00  0.13557354944E+04  0.13557354944E+04  0.00000000000E+00 0. -1.
         21   -1    0    0  501  502  0.00000000000E+00 -0.00000000000E+00 -0.18624800481E+03  0.18624800481E+03  0.00000000000E+00 0. -1.
         25    1    1    2    0    0 -0.35072519887E+03 -0.18883576358E+03  0.10439605473E+04  0.11243423567E+04  0.12500000000E+03 0.  0.
          2    1    1    2  501    0  0.35072519887E+03  0.18883576358E+03  0.12552694237E+03  0.41764114260E+03  0.00000000000E+00 0. -1.
<mgrwt>
<rscale>  3 0.41748307E+03</rscale>
<asrwt>0</asrwt>
<pdfrwt beam="1">  1       21 0.28653540E-01 0.41748307E+03</pdfrwt>
<pdfrwt beam="2">  1        2 0.20857469E+00 0.41748307E+03</pdfrwt>
<totfact> 0.22529448E+03</totfact>
</mgrwt>
</event>
<event>
 4    0  0.1002184E-001  0.2883149E+03  0.7546771E-02  0.1091232E+00
         21   -1    0    0  501  502  0.00000000000E+00  0.00000000000E+00  0.32092754147E+03  0.32092754147E+03  0.00000000000E+00 0. -1.
         -2   -1    0    0    0  501 -0.00000000000E+00 -0.00000000000E+00 -0.34883457271E+03  0.34883457271E+03  0.00000000000E+00 0.  1.
         25    1    1    2    0    0  0.34149556494E+02 -0.25755439911E+03  0.17749167154E+03  0.33856868457E+03  0.12500000000E+03 0.  0.
         -2    1    1    2    0  502 -0.34149556494E+02  0.25755439911E+03 -0.20539870278E+03  0.33119342961E+03  0.00000000000E+00 0.  1.
<mgrwt>
<rscale>  3 0.28831486E+03</rscale>
<asrwt>0</asrwt>
<pdfrwt beam="1">  1       21 0.49373468E-01 0.28831486E+03</pdfrwt>
<pdfrwt beam="2">  1       -2 0.53666858E-01 0.28831486E+03</pdfrwt>
<totfact> 0.10275140E+03</totfact>
</mgrwt>
</event>
<event>
 4    0  0.1002184E-001  0.2900893E+03  0.7546771E-02  0.1090303E+00
          2   -1    0    0  502    0 -0.00000000000E+00  0.00000000000E+00  0.16659666117E+03  0.16659666117E+03  0.00000000000E+00 0.  1.
         21   -1    0    0  501  502  0.00000000000E+00 -0.00000000000E+00 -0.47665120384E+03  0.47665120384E+03  0.00000000000E+00 0. -1.
         25    1    1    2    0    0 -0.10406323781E+03 -0.24020336416E+03 -0.22783314057E+03  0.36886278418E+03  0.12500000000E+03 0.  0.
          2    1    1    2  501    0  0.10406323781E+03  0.24020336416E+03 -0.82221402108E+02  0.27438508082E+03  0.00000000000E+00 0.  1.
<mgrwt>
<rscale>  3 0.29008932E+03</rscale>
<asrwt>0</asrwt>
<pdfrwt beam="1">  1       21 0.73330955E-01 0.29008932E+03</pdfrwt>
<pdfrwt beam="2">  1        2 0.25630255E-01 0.29008932E+03</pdfrwt>
<totfact> 0.41810358E+03</totfact>
</mgrwt>
</event>
<event>
 4    0  0.1002184E-001  0.3977476E+03  0.7546771E-02  0.1044562E+00
          1   -1    0    0  502    0 -0.00000000000E+00  0.00000000000E+00  0.19172780951E+03  0.19172780951E+03  0.00000000000E+00 0.  1.
         21   -1    0    0  501  502  0.00000000000E+00 -0.00000000000E+00 -0.99985684188E+03  0.99985684188E+03  0.00000000000E+00 0. -1.
         25    1    1    2    0    0  0.35439224996E+03  0.13032369458E+03 -0.68913730152E+03  0.79568420404E+03  0.12500000000E+03 0.  0.
          1    1    1    2  501    0 -0.35439224996E+03 -0.13032369458E+03 -0.11899173085E+03  0.39590044735E+03  0.00000000000E+00 0.  1.
<mgrwt>
<rscale>  3 0.39774757E+03</rscale>
<asrwt>0</asrwt>
<pdfrwt beam="1">  1       21 0.15382413E+00 0.39774757E+03</pdfrwt>
<pdfrwt beam="2">  1        1 0.29496585E-01 0.39774757E+03</pdfrwt>
<totfact> 0.42738073E+02</totfact>
</mgrwt>
</event>
<event>
 4    0  0.1260656E-001  0.5006939E+03  0.7546771E-02  0.1013598E+00
         21   -1    0    0  501  502  0.00000000000E+00  0.00000000000E+00  0.27265507800E+03  0.27265507800E+03  0.00000000000E+00 0.  1.
          2   -1    0    0  502    0 -0.00000000000E+00 -0.00000000000E+00 -0.97988569732E+03  0.97988569732E+03  0.00000000000E+00 0.  1.
         25    1    1    2    0    0  0.38900490560E+03  0.28938650423E+03 -0.16973326191E+03  0.52868113794E+03  0.12500000000E+03 0.  0.
          2    1    1    2  501    0 -0.38900490560E+03 -0.28938650423E+03 -0.53749735741E+03  0.72385963738E+03  0.00000000000E+00 0.  1.
<mgrwt>
<rscale>  3 0.50069388E+03</rscale>
<asrwt>0</asrwt>
<pdfrwt beam="1">  1       21 0.41946935E-01 0.50069388E+03</pdfrwt>
<pdfrwt beam="2">  1        2 0.15075164E+00 0.50069388E+03</pdfrwt>
<totfact> 0.17049559E+03</totfact>
</mgrwt>
</event>
<event>
 4    0  0.1319976E-001  0.2486709E+03  0.7546771E-02  0.1114148E+00
          2   -1    0    0  502    0 -0.00000000000E+00  0.00000000000E+00  0.62554852310E+03  0.62554852310E+03  0.00000000000E+00 0. -1.
         21   -1    0    0  501  502  0.00000000000E+00 -0.00000000000E+00 -0.26805752739E+03  0.26805752739E+03  0.00000000000E+00 0. -1.
         25    1    1    2    0    0  0.20950614853E+03 -0.48160002669E+02 -0.18508893770E+03  0.30999214020E+03  0.12500000000E+03 0.  0.
          2    1    1    2  501    0 -0.20950614853E+03  0.48160002669E+02  0.54257993342E+03  0.58361391028E+03  0.00000000000E+00 0. -1.
<mgrwt>
<rscale>  3 0.24867089E+03</rscale>
<asrwt>0</asrwt>
<pdfrwt beam="1">  1       21 0.41239620E-01 0.24867089E+03</pdfrwt>
<pdfrwt beam="2">  1        2 0.96238234E-01 0.24867089E+03</pdfrwt>
<totfact> 0.33532772E+03</totfact>
</mgrwt>
</event>
<event>
 4    0  0.1538722E-001  0.2803548E+03  0.7546771E-02  0.1095495E+00
          1   -1    0    0  502    0 -0.00000000000E+00  0.00000000000E+00  0.13533743460E+04  0.13533743460E+04  0.00000000000E+00 0.  1.
         21   -1    0    0  501  502  0.00000000000E+00 -0.00000000000E+00 -0.52347060574E+02  0.52347060574E+02  0.00000000000E+00 0.  1.
         25    1    1    2    0    0  0.40211385389E+02 -0.24770316288E+03  0.64265166353E+03  0.70114190650E+03  0.12500000000E+03 0.  0.
          1    1    1    2  501    0 -0.40211385389E+02  0.24770316288E+03  0.65837562187E+03  0.70457950004E+03  0.00000000000E+00 0.  1.
<mgrwt>
<rscale>  3 0.28035480E+03</rscale>
<asrwt>0</asrwt>
<pdfrwt beam="1">  1       21 0.80533949E-02 0.28035480E+03</pdfrwt>
<pdfrwt beam="2">  1        1 0.20821141E+00 0.28035480E+03</pdfrwt>
<totfact> 0.11776926E+04</totfact>
</mgrwt>
</event>
<event>
 4    0  0.1002184E-001  0.2569462E+03  0.7546771E-02  0.1108992E+00
          2   -1    0    0  502    0 -0.00000000000E+00  0.00000000000E+00  0.47320965966E+03  0.47320965966E+03  0.00000000000E+00 0.  1.
         21   -1    0    0  501  502  0.00000000000E+00 -0.00000000000E+00 -0.14492155633E+03  0.14492155633E+03  0.00000000000E+00 0. -1.
         25    1    1    2    0    0 -0.22286874550E+03 -0.26942321799E+02  0.52030592551E+02  0.26216130338E+03  0.12500000000E+03 0.  0.
          2    1    1    2  501    0  0.22286874550E+03  0.26942321799E+02  0.27625751078E+03  0.35596991262E+03  0.00000000000E+00 0.  1.
<mgrwt>
<rscale>  3 0.25694623E+03</rscale>
<asrwt>0</asrwt>
<pdfrwt beam="1">  1       21 0.22295624E-01 0.25694623E+03</pdfrwt>
<pdfrwt beam="2">  1        2 0.72801485E-01 0.25694623E+03</pdfrwt>
<totfact> 0.15420383E+04</totfact>
</mgrwt>
</event>
<event>
 4    0  0.1002184E-001  0.1090600E+04  0.7546771E-02  0.9214403E-01
          2   -1    0    0  502    0 -0.00000000000E+00  0.00000000000E+00  0.19678907786E+04  0.19678907786E+04  0.00000000000E+00 0.  1.
         21   -1    0    0  501  502  0.00000000000E+00 -0.00000000000E+00 -0.77396537594E+03  0.77396537594E+03  0.00000000000E+00 0. -1.
         25    1    1    2    0    0  0.67067424960E+03  0.85086920347E+03 -0.50656565656E+02  0.10917753607E+04  0.12500000000E+03 0.  0.
          2    1    1    2  501    0 -0.67067424960E+03 -0.85086920347E+03  0.12445819683E+04  0.16500807939E+04  0.00000000000E+00 0.  1.
<mgrwt>
<rscale>  3 0.10905995E+04</rscale>
<asrwt>0</asrwt>
<pdfrwt beam="1">  1       21 0.11907160E+00 0.10905995E+04</pdfrwt>
<pdfrwt beam="2">  1        2 0.30275242E+00 0.10905995E+04</pdfrwt>
<totfact> 0.37838842E+01</totfact>
</mgrwt>
</event>
<event>
 4    0  0.1156832E-001  0.5036477E+03  0.7546771E-02  0.1012831E+00
         21   -1    0    0  501  502  0.00000000000E+00  0.00000000000E+00  0.43159112905E+03  0.43159112905E+03  0.00000000000E+00 0. -1.
          4   -1    0    0  502    0 -0.00000000000E+00 -0.00000000000E+00 -0.57679566629E+03  0.57679566629E+03  0.00000000000E+00 0. -1.
         25    1    1    2    0    0 -0.30643439725E+03  0.37964979807E+03 -0.17001451762E+02  0.50393457746E+03  0.12500000000E+03 0.  0.
          4    1    1    2  501    0  0.30643439725E+03 -0.37964979807E+03 -0.12820308548E+03  0.50445221788E+03  0.00000000000E+00 0. -1.
<mgrwt>
<rscale>  3 0.50364770E+03</rscale>
<asrwt>0</asrwt>
<pdfrwt beam="1">  1       21 0.66398636E-01 0.50364770E+03</pdfrwt>
<pdfrwt beam="2">  1        4 0.88737794E-01 0.50364770E+03</pdfrwt>
<totfact> 0.93144060E+01</totfact>
</mgrwt>
</event>
<event>
 4    0  0.1523239E-001  0.2808525E+03  0.7546771E-02  0.1095224E+00
          2   -1    0    0  502    0 -0.00000000000E+00  0.00000000000E+00  0.14332219444E+04  0.14332219444E+04  0.00000000000E+00 0. -1.
         21   -1    0    0  501  502  0.00000000000E+00 -0.00000000000E+00 -0.49827705955E+02  0.49827705955E+02  0.00000000000E+00 0. -1.
         25    1    1    2    0    0  0.16843804383E+03  0.18676660156E+03  0.79532422250E+03  0.84345643454E+03  0.12500000000E+03 0.  0.
          2    1    1    2  501    0 -0.16843804383E+03 -0.18676660156E+03  0.58807001598E+03  0.63959321586E+03  0.00000000000E+00 0. -1.
<mgrwt>
<rscale>  3 0.28085252E+03</rscale>
<asrwt>0</asrwt>
<pdfrwt beam="1">  1       21 0.76658020E-02 0.28085252E+03</pdfrwt>
<pdfrwt beam="2">  1        2 0.22049565E+00 0.28085252E+03</pdfrwt>
<totfact> 0.24123835E+04</totfact>
</mgrwt>
</event>
<event>
 4    0  0.1251818E-001  0.4989304E+03  0.7546771E-02  0.1014058E+00
         21   -1    0    0  501  502  0.00000000000E+00  0.00000000000E+00  0.32872096610E+03  0.32872096610E+03  0.00000000000E+00 0. -1.
          2   -1    0    0  502    0 -0.00000000000E+00 -0.00000000000E+00 -0.16670150749E+04  0.16670150749E+04  0.00000000000E+00 0. -1.
         25    1    1    2    0    0  0.46137183956E+03 -0.14297750264E+03  0.72844877729E+02  0.50422010750E+03  0.12500000000E+03 0.  0.
          2    1    1    2  501    0 -0.46137183956E+03  0.14297750264E+03 -0.14111389865E+04  0.14915159335E+04  0.00000000000E+00 0. -1.
<mgrwt>
<rscale>  3 0.49893040E+03</rscale>
<asrwt>0</asrwt>
<pdfrwt beam="1">  1       21 0.50572456E-01 0.49893040E+03</pdfrwt>
<pdfrwt beam="2">  1        2 0.25646386E+00 0.49893040E+03</pdfrwt>
<totfact> 0.46470255E+02</totfact>
</mgrwt>
</event>
<event>
 4    0  0.1373076E-001  0.2763061E+03  0.7546771E-02  0.1097724E+00
          1   -1    0    0  502    0 -0.00000000000E+00  0.00000000000E+00  0.15866493355E+04  0.15866493355E+04  0.00000000000E+00 0. -1.
         21   -1    0    0  501  502  0.00000000000E+00 -0.00000000000E+00 -0.17235055620E+03  0.17235055620E+03  0.00000000000E+00 0. -1.
         25    1    1    2    0    0  0.12216091971E+03 -0.21400185369E+03 -0.44210952790E+02  0.27982082130E+03  0.12500000000E+03 0.  0.
          1    1    1    2  501    0 -0.12216091971E+03  0.21400185369E+03  0.14585097321E+04  0.14791790704E+04  0.00000000000E+00 0. -1.
<mgrwt>
<rscale>  3 0.27630614E+03</rscale>
<asrwt>0</asrwt>
<pdfrwt beam="1">  1       21 0.26515471E-01 0.27630614E+03</pdfrwt>
<pdfrwt beam="2">  1        1 0.24409989E+00 0.27630614E+03</pdfrwt>
<totfact> 0.92282994E+02</totfact>
</mgrwt>
</event>
<event>
 4    0  0.1002184E-001  0.2361580E+03  0.7546771E-02  0.1122379E+00
         21   -1    0    0  501  502  0.00000000000E+00  0.00000000000E+00  0.12857251663E+03  0.12857251663E+03  0.00000000000E+00 0.  1.
          1   -1    0    0  502    0 -0.00000000000E+00 -0.00000000000E+00 -0.19256945638E+04  0.19256945638E+04  0.00000000000E+00 0. -1.
         25    1    1    2    0    0 -0.12322123597E+03 -0.15799407380E+03  0.97119844421E+01  0.23635761674E+03  0.12500000000E+03 0.  0.
          1    1    1    2  501    0  0.12322123597E+03  0.15799407380E+03 -0.18068340316E+04  0.18179094637E+04  0.00000000000E+00 0. -1.
<mgrwt>
<rscale>  3 0.23615800E+03</rscale>
<asrwt>0</asrwt>
<pdfrwt beam="1">  1       21 0.19780389E-01 0.23615800E+03</pdfrwt>
<pdfrwt beam="2">  1        1 0.29626068E+00 0.23615800E+03</pdfrwt>
<totfact> 0.98956477E+02</totfact>
</mgrwt>
</event>
<event>
 4    0  0.1377563E-001  0.2573731E+03  0.7546771E-02  0.1108732E+00
         -4   -1    0    0    0  501 -0.00000000000E+00  0.00000000000E+00  0.89253337259E+02  0.89253337259E+02  0.00000000000E+00 0.  1.
         21   -1    0    0  501  502  0.00000000000E+00 -0.00000000000E+00 -0.69973441208E+03  0.69973441208E+03  0.00000000000E+00 0.  1.
         25    1    1    2    0    0  0.21824780657E+03  0.54624296732E+02 -0.42747806615E+03  0.49897737013E+03  0.12500000000E+03 0.  0.
         -4    1    1    2    0  502 -0.21824780657E+03 -0.54624296732E+02 -0.18300300867E+03  0.29001037921E+03  0.00000000000E+00 0.  1.
<mgrwt>
<rscale>  3 0.25737311E+03</rscale>
<asrwt>0</asrwt>
<pdfrwt beam="1">  1       21 0.10765145E+00 0.25737311E+03</pdfrwt>
<pdfrwt beam="2">  1       -4 0.13731282E-01 0.25737311E+03</pdfrwt>
<totfact> 0.12687717E+03</totfact>
</mgrwt>
</event>
<event>
 4    0  0.1002184E-001  0.2380551E+03  0.7546771E-02  0.1121095E+00
          2   -1    0    0  502    0 -0.00000000000E+00  0.00000000000E+00  0.78624215668E+03  0.78624215668E+03  0.00000000000E+00 0. -1.
         21   -1    0    0  501  502  0.00000000000E+00 -0.00000000000E+00 -0.67629356492E+03  0.67629356492E+03  0.00000000000E+00 0.  1.
         25    1    1    2    0    0  0.30940983462E+02 -0.20021958958E+03 -0.64150499667E+03  0.68425060414E+03  0.12500000000E+03 0.  0.
          2    1    1    2  501    0 -0.30940983462E+02  0.20021958958E+03  0.75145358843E+03  0.77828511747E+03  0.00000000000E+00 0. -1.
<mgrwt>
<rscale>  3 0.23805510E+03</rscale>
<asrwt>0</asrwt>
<pdfrwt beam="1">  1       21 0.10404516E+00 0.23805510E+03</pdfrwt>
<pdfrwt beam="2">  1        2 0.12096033E+00 0.23805510E+03</pdfrwt>
<totfact> 0.33223828E+02</totfact>
</mgrwt>
</event>
<event>
 4    0  0.1002184E-001  0.2653469E+03  0.7546771E-02  0.1103973E+00
         21   -1    0    0  501  502  0.00000000000E+00  0.00000000000E+00  0.13737243465E+03  0.13737243465E+03  0.00000000000E+00 0. -1.
          1   -1    0    0  502    0 -0.00000000000E+00 -0.00000000000E+00 -0.55058140983E+03  0.55058140983E+03  0.00000000000E+00 0.  1.
         25    1    1    2    0    0 -0.10120085119E+03 -0.21105061147E+03 -0.73357741459E+02  0.27530043792E+03  0.12500000000E+03 0.  0.
          1    1    1    2  501    0  0.10120085119E+03  0.21105061147E+03 -0.33985123372E+03  0.41265340656E+03  0.00000000000E+00 0.  1.
<mgrwt>
<rscale>  3 0.26534689E+03</rscale>
<asrwt>0</asrwt>
<pdfrwt beam="1">  1       21 0.21134221E-01 0.26534689E+03</pdfrwt>
<pdfrwt beam="2">  1        1 0.84704829E-01 0.26534689E+03</pdfrwt>
<totfact> 0.89859619E+03</totfact>
</mgrwt>
</event>
<event>
 4    0  0.1002184E-001  0.4776141E+03  0.7546771E-02  0.1019793E+00
          1   -1    0    0  502    0 -0.00000000000E+00  0.00000000000E+00  0.25900049614E+04  0.25900049614E+04  0.00000000000E+00 0.  1.
         21   -1    0    0  501  502  0.00000000000E+00 -0.00000000000E+00 -0.21359295180E+03  0.21359295180E+03  0.00000000000E+00 0. -1.
         25    1    1    2    0    0 -0.11552348477E+03  0.44625620152E+03  0.10912051800E+03  0.48992097361E+03  0.12500000000E+03 0.  0.
          1    1    1    2  501    0  0.11552348477E+03 -0.44625620152E+03  0.22672914916E+04  0.23136769396E+04  0.00000000000E+00 0.  1.
<mgrwt>
<rscale>  3 0.47761415E+03</rscale>
<asrwt>0</asrwt>
<pdfrwt beam="1">  1       21 0.32860456E-01 0.47761415E+03</pdfrwt>
<pdfrwt beam="2">  1        1 0.39846228E+00 0.47761415E+03</pdfrwt>
<totfact> 0.12099587E+02</totfact>
</mgrwt>
</event>
<event>
 4    0  0.1002184E-001  0.6821063E+03  0.7546771E-02  0.9748332E-01
          2   -1    0    0  502    0 -0.00000000000E+00  0.00000000000E+00  0.13968615299E+04  0.13968615299E+04  0.00000000000E+00 0. -1.
         21   -1    0    0  501  502  0.00000000000E+00 -0.00000000000E+00 -0.59716796928E+03  0.59716796928E+03  0.00000000000E+00 0. -1.
         25    1    1    2    0    0  0.65407695243E+03 -0.14774084453E+03 -0.26830049365E+03  0.73297624227E+03  0.12500000000E+03 0.  0.
          2    1    1    2  501    0 -0.65407695243E+03  0.14774084453E+03  0.10679940543E+04  0.12610532569E+04  0.00000000000E+00 0. -1.
<mgrwt>
<rscale>  3 0.68210631E+03</rscale>
<asrwt>0</asrwt>
<pdfrwt beam="1">  1       21 0.91871996E-01 0.68210631E+03</pdfrwt>
<pdfrwt beam="2">  1        2 0.21490177E+00 0.68210631E+03</pdfrwt>
<totfact> 0.16221082E+02</totfact>
</mgrwt>
</event>
<event>
 4    0  0.1383965E-001  0.2908760E+03  0.7546771E-02  0.1089893E+00
         21   -1    0    0  501  502  0.00000000000E+00  0.00000000000E+00  0.16830643865E+03  0.16830643865E+03  0.00000000000E+00 0. -1.
          1   -1    0    0  502    0 -0.00000000000E+00 -0.00000000000E+00 -0.47530294217E+03  0.47530294217E+03  0.00000000000E+00 0. -1.
         25    1    1    2    0    0 -0.25813843472E+03  0.48460021820E+02 -0.22724855306E+03  0.36912156543E+03  0.12500000000E+03 0.  0.
          1    1    1    2  501    0  0.25813843472E+03 -0.48460021820E+02 -0.79747950462E+02  0.27448781539E+03  0.00000000000E+00 0. -1.
<mgrwt>
<rscale>  3 0.29087596E+03</rscale>
<asrwt>0</asrwt>
<pdfrwt beam="1">  1       21 0.25893298E-01 0.29087596E+03</pdfrwt>
<pdfrwt beam="2">  1        1 0.73123529E-01 0.29087596E+03</pdfrwt>
<totfact> 0.73862638E+03</totfact>
</mgrwt>
</event>
<event>
 4    0  0.1228029E-001  0.2620898E+03  0.7546771E-02  0.1105894E+00
         21   -1    0    0  501  502  0.00000000000E+00  0.00000000000E+00  0.31330213948E+03  0.31330213948E+03  0.00000000000E+00 0. -1.
          3   -1    0    0  502    0 -0.00000000000E+00 -0.00000000000E+00 -0.21064551554E+03  0.21064551554E+03  0.00000000000E+00 0. -1.
         25    1    1    2    0    0 -0.21227209541E+03  0.89479713467E+02  0.12894420227E+03  0.29209188436E+03  0.12500000000E+03 0.  0.
          3    1    1    2  501    0  0.21227209541E+03 -0.89479713467E+02 -0.26287578323E+02  0.23185577065E+03  0.00000000000E+00 0. -1.
<mgrwt>
<rscale>  3 0.26208980E+03</rscale>
<asrwt>0</asrwt>
<pdfrwt beam="1">  1       21 0.48200330E-01 0.26208980E+03</pdfrwt>
<pdfrwt beam="2">  1        3 0.32407002E-01 0.26208980E+03</pdfrwt>
<totfact> 0.18768105E+03</totfact>
</mgrwt>
</event>
<event>
 4    0  0.1524319E-001  0.3533132E+03  0.7546771E-02  0.1061263E+00
         21   -1    0    0  501  502  0.00000000000E+00  0.00000000000E+00  0.15532941671E+03  0.15532941671E+03  0.00000000000E+00 0. -1.
          2   -1    0    0  502    0 -0.00000000000E+00 -0.00000000000E+00 -0.11448471623E+04  0.11448471623E+04  0.00000000000E+00 0. -1.
         25    1    1    2    0    0 -0.70848839291E+02  0.32277808726E+03 -0.12520296204E+03  0.37484134424E+03  0.12500000000E+03 0.  0.
          2    1    1    2  501    0  0.70848839291E+02 -0.32277808726E+03 -0.86431478359E+03  0.92533523480E+03  0.00000000000E+00 0. -1.
<mgrwt>
<rscale>  3 0.35331325E+03</rscale>
<asrwt>0</asrwt>
<pdfrwt beam="1">  1       21 0.23896834E-01 0.35331325E+03</pdfrwt>
<pdfrwt beam="2">  1        2 0.17613033E+00 0.35331325E+03</pdfrwt>
<totfact> 0.43014211E+03</totfact>
</mgrwt>
</event>
<event>
 4    0  0.1168191E-001  0.2664830E+03  0.7546771E-02  0.1103310E+00
          2   -1    0    0  502    0 -0.00000000000E+00  0.00000000000E+00  0.10477804292E+03  0.10477804292E+03  0.00000000000E+00 0.  1.
         21   -1    0    0  501  502  0.00000000000E+00 -0.00000000000E+00 -0.60087399180E+03  0.60087399180E+03  0.00000000000E+00 0.  1.
         25    1    1    2    0    0 -0.15279922769E+03 -0.17899880923E+03 -0.26385104865E+03  0.37500740468E+03  0.12500000000E+03 0.  0.
          2    1    1    2  501    0  0.15279922769E+03  0.17899880923E+03 -0.23224490023E+03  0.33064463004E+03  0.00000000000E+00 0.  1.
<mgrwt>
<rscale>  3 0.26648298E+03</rscale>
<asrwt>0</asrwt>
<pdfrwt beam="1">  1       21 0.92442155E-01 0.26648298E+03</pdfrwt>
<pdfrwt beam="2">  1        2 0.16119699E-01 0.26648298E+03</pdfrwt>
<totfact> 0.42134518E+03</totfact>
</mgrwt>
</event>
<event>
 4    0  0.1965858E-001  0.2938615E+03  0.7546771E-02  0.1088350E+00
         -2   -1    0    0    0  501 -0.00000000000E+00  0.00000000000E+00  0.95195751060E+03  0.95195751060E+03  0.00000000000E+00 0.  1.
         21   -1    0    0  501  502  0.00000000000E+00 -0.00000000000E+00 -0.10263506005E+03  0.10263506005E+03  0.00000000000E+00 0.  1.
         25    1    1    2    0    0  0.69713706320E+02  0.25665068587E+03  0.67610684502E+03  0.73720759715E+03  0.12500000000E+03 0.  0.
         -2    1    1    2    0  502 -0.69713706320E+02 -0.25665068587E+03  0.17321560553E+03  0.31738497350E+03  0.00000000000E+00 0.  1.
<mgrwt>
<rscale>  3 0.29386149E+03</rscale>
<asrwt>0</asrwt>
<pdfrwt beam="1">  1       21 0.15790010E-01 0.29386149E+03</pdfrwt>
<pdfrwt beam="2">  1       -2 0.14645500E+00 0.29386149E+03</pdfrwt>
<totfact> 0.97164245E+02</totfact>
</mgrwt>
</event>
<event>
 4    0  0.1456356E-001  0.4137498E+03  0.7546771E-02  0.1039120E+00
          1   -1    0    0  502    0 -0.00000000000E+00  0.00000000000E+00  0.13979469390E+04  0.13979469390E+04  0.00000000000E+00 0.  1.
         21   -1    0    0  501  502  0.00000000000E+00 -0.00000000000E+00 -0.25016401649E+03  0.25016401649E+03  0.00000000000E+00 0.  1.
         25    1    1    2    0    0 -0.11315744182E+03  0.37783496994E+03 -0.21290453245E+02  0.41429718144E+03  0.12500000000E+03 0.  0.
          1    1    1    2  501    0  0.11315744182E+03 -0.37783496994E+03  0.11690733758E+04  0.12338137741E+04  0.00000000000E+00 0.  1.
<mgrwt>
<rscale>  3 0.41374977E+03</rscale>
<asrwt>0</asrwt>
<pdfrwt beam="1">  1       21 0.38486773E-01 0.41374977E+03</pdfrwt>
<pdfrwt beam="2">  1        1 0.21506875E+00 0.41374977E+03</pdfrwt>
<totfact> 0.55876516E+02</totfact>
</mgrwt>
</event>
<event>
 4    0  0.1068012E-001  0.2745894E+03  0.7546771E-02  0.1098681E+00
         -3   -1    0    0    0  501 -0.00000000000E+00  0.00000000000E+00  0.45998526676E+02  0.45998526676E+02  0.00000000000E+00 0. -1.
         21   -1    0    0  501  502  0.00000000000E+00 -0.00000000000E+00 -0.15053942006E+04  0.15053942006E+04  0.00000000000E+00 0. -1.
         25    1    1    2    0    0 -0.21736597795E+03  0.11192128625E+03 -0.89865419104E+03  0.93966946197E+03  0.12500000000E+03 0.  0.
         -3    1    1    2    0  502  0.21736597795E+03 -0.11192128625E+03 -0.56074148284E+03  0.61172326526E+03  0.00000000000E+00 0. -1.
<mgrwt>
<rscale>  3 0.27458941E+03</rscale>
<asrwt>0</asrwt>
<pdfrwt beam="1">  1       21 0.23159909E+00 0.27458941E+03</pdfrwt>
<pdfrwt beam="2">  1       -3 0.70766969E-02 0.27458941E+03</pdfrwt>
<totfact> 0.53070014E+02</totfact>
</mgrwt>
</event>
<event>
 4    0  0.1303077E-001  0.2368339E+03  0.7546771E-02  0.1121920E+00
         21   -1    0    0  501  502  0.00000000000E+00  0.00000000000E+00  0.60021723344E+03  0.60021723344E+03  0.00000000000E+00 0. -1.
         -3   -1    0    0    0  501 -0.00000000000E+00 -0.00000000000E+00 -0.82937843408E+02  0.82937843408E+02  0.00000000000E+00 0. -1.
         25    1    1    2    0    0 -0.50109990626E+02  0.19481863320E+03  0.34405724206E+03  0.41769091062E+03  0.12500000000E+03 0.  0.
         -3    1    1    2    0  502  0.50109990626E+02 -0.19481863320E+03  0.17322214797E+03  0.26546416623E+03  0.00000000000E+00 0. -1.
<mgrwt>
<rscale>  3 0.23683393E+03</rscale>
<asrwt>0</asrwt>
<pdfrwt beam="1">  1       21 0.92341110E-01 0.23683393E+03</pdfrwt>
<pdfrwt beam="2">  1       -3 0.12759669E-01 0.23683393E+03</pdfrwt>
<totfact> 0.23791473E+03</totfact>
</mgrwt>
</event>
<event>
 4    0  0.1002184E-001  0.4345698E+03  0.7546771E-02  0.1032426E+00
         -1   -1    0    0    0  501 -0.00000000000E+00  0.00000000000E+00  0.25647120455E+03  0.25647120455E+03  0.00000000000E+00 0. -1.
         21   -1    0    0  501  502  0.00000000000E+00 -0.00000000000E+00 -0.15436733101E+04  0.15436733101E+04  0.00000000000E+00 0.  1.
         25    1    1    2    0    0  0.23251071785E+03  0.34520243360E+03 -0.13130931357E+04  0.13831357623E+04  0.12500000000E+03 0.  0.
         -1    1    1    2    0  502 -0.23251071785E+03 -0.34520243360E+03  0.25891030112E+02  0.41700875233E+03  0.00000000000E+00 0. -1.
<mgrwt>
<rscale>  3 0.43456985E+03</rscale>
<asrwt>0</asrwt>
<pdfrwt beam="1">  1       21 0.23748820E+00 0.43456985E+03</pdfrwt>
<pdfrwt beam="2">  1       -1 0.39457108E-01 0.43456985E+03</pdfrwt>
<totfact> 0.39083012E+01</totfact>
</mgrwt>
</event>
<event>
 4    0  0.1002184E-001  0.2774752E+03  0.7546771E-02  0.1097076E+00
         -2   -1    0    0    0  501 -0.00000000000E+00  0.00000000000E+00  0.36230952855E+02  0.36230952855E+02  0.00000000000E+00 0. -1.
         21   -1    0    0  501  502  0.00000000000E+00 -0.00000000000E+00 -0.20853049448E+04  0.20853049448E+04  0.00000000000E+00 0.  1.
         25    1    1    2    0    0  0.17518817572E+03  0.17514735822E+03 -0.13904248040E+04  0.14178411863E+04  0.12500000000E+03 0.  0.
         -2    1    1    2    0  502 -0.17518817572E+03 -0.17514735822E+03 -0.65864918795E+03  0.70369471136E+03  0.00000000000E+00 0. -1.
<mgrwt>
<rscale>  3 0.27747521E+03</rscale>
<asrwt>0</asrwt>
<pdfrwt beam="1">  1       21 0.32081607E+00 0.27747521E+03</pdfrwt>
<pdfrwt beam="2">  1       -2 0.55739941E-02 0.27747521E+03</pdfrwt>
<totfact> 0.31158554E+02</totfact>
</mgrwt>
</event>
<event>
 4    0  0.1542343E-001  0.2864661E+03  0.7546771E-02  0.1092209E+00
         21   -1    0    0  501  502  0.00000000000E+00  0.00000000000E+00  0.77891649967E+03  0.77891649967E+03  0.00000000000E+00 0. -1.
          1   -1    0    0  502    0 -0.00000000000E+00 -0.00000000000E+00 -0.10897281545E+04  0.10897281545E+04  0.00000000000E+00 0. -1.
         25    1    1    2    0    0 -0.10380902638E+03  0.23592690509E+03  0.73641119936E+03  0.79016724372E+03  0.12500000000E+03 0.  0.
          1    1    1    2  501    0  0.10380902638E+03 -0.23592690509E+03 -0.10472228542E+04  0.10784774104E+04  0.00000000000E+00 0. -1.
<mgrwt>
<rscale>  3 0.28646609E+03</rscale>
<asrwt>0</asrwt>
<pdfrwt beam="1">  1       21 0.11983331E+00 0.28646609E+03</pdfrwt>
<pdfrwt beam="2">  1        1 0.16765049E+00 0.28646609E+03</pdfrwt>
<totfact> 0.76188342E+01</totfact>
</mgrwt>
</event>
<event>
 4    0  0.1002184E-001  0.3093581E+03  0.7546771E-02  0.1080654E+00
         21   -1    0    0  501  502  0.00000000000E+00  0.00000000000E+00  0.70224829443E+03  0.70224829443E+03  0.00000000000E+00 0.  1.
          3   -1    0    0  502    0 -0.00000000000E+00 -0.00000000000E+00 -0.16268260121E+03  0.16268260121E+03  0.00000000000E+00 0. -1.
         25    1    1    2    0    0  0.28208662565E+03 -0.22462333611E+02  0.48724233779E+03  0.57715467298E+03  0.12500000000E+03 0.  0.
          3    1    1    2  501    0 -0.28208662565E+03  0.22462333611E+02  0.52323355434E+02  0.28777622266E+03  0.00000000000E+00 0. -1.
<mgrwt>
<rscale>  3 0.30935808E+03</rscale>
<asrwt>0</asrwt>
<pdfrwt beam="1">  1       21 0.10803820E+00 0.30935808E+03</pdfrwt>
<pdfrwt beam="2">  1        3 0.25028093E-01 0.30935808E+03</pdfrwt>
<totfact> 0.49171106E+02</totfact>
</mgrwt>
</event>
<event>
 4    0  0.1570553E-001  0.2939228E+03  0.7546771E-02  0.1088319E+00
          2   -1    0    0  502    0 -0.00000000000E+00  0.00000000000E+00  0.16234098483E+04  0.16234098483E+04  0.00000000000E+00 0.  1.
         21   -1    0    0  501  502  0.00000000000E+00 -0.00000000000E+00 -0.26497315633E+03  0.26497315633E+03  0.00000000000E+00 0.  1.
         25    1    1    2    0    0  0.10647845223E+03  0.24377845007E+03 -0.16826451234E+03  0.33867911010E+03  0.12500000000E+03 0.  0.
          2    1    1    2  501    0 -0.10647845223E+03 -0.24377845007E+03  0.15267012043E+04  0.15497038946E+04  0.00000000000E+00 0.  1.
<mgrwt>
<rscale>  3 0.29392277E+03</rscale>
<asrwt>0</asrwt>
<pdfrwt beam="1">  1       21 0.40765102E-01 0.29392277E+03</pdfrwt>
<pdfrwt beam="2">  1        2 0.24975536E+00 0.29392277E+03</pdfrwt>
<totfact> 0.82777674E+02</totfact>
</mgrwt>
</event>
<event>
 4    0  0.1697613E-001  0.2454396E+03  0.7546771E-02  0.1116221E+00
         21   -1    0    0  501  502  0.00000000000E+00  0.00000000000E+00  0.35757930702E+02  0.35757930702E+02  0.00000000000E+00 0. -1.
          2   -1    0    0  502    0 -0.00000000000E+00 -0.00000000000E+00 -0.17976047132E+04  0.17976047132E+04  0.00000000000E+00 0. -1.
         25    1    1    2    0    0 -0.72685436816E+02 -0.19832403563E+03 -0.13319792665E+04  0.13544036925E+04  0.12500000000E+03 0.  0.
          2    1    1    2  501    0  0.72685436816E+02  0.19832403563E+03 -0.42986751600E+03  0.47895895142E+03  0.00000000000E+00 0. -1.
<mgrwt>
<rscale>  3 0.24543960E+03</rscale>
<asrwt>0</asrwt>
<pdfrwt beam="1">  1       21 0.55012228E-02 0.24543960E+03</pdfrwt>
<pdfrwt beam="2">  1        2 0.27655444E+00 0.24543960E+03</pdfrwt>
<totfact> 0.27665131E+04</totfact>
</mgrwt>
</event>
<event>
 4    0  0.1002184E-001  0.2781080E+03  0.7546771E-02  0.1096727E+00
         21   -1    0    0  501  502  0.00000000000E+00  0.00000000000E+00  0.38240265387E+03  0.38240265387E+03  0.00000000000E+00 0. -1.
         -3   -1    0    0    0  501 -0.00000000000E+00 -0.00000000000E+00 -0.33268300854E+03  0.33268300854E+03  0.00000000000E+00 0.  1.
         25    1    1    2    0    0 -0.24529685667E+03  0.39350783023E+02  0.26663785976E+03  0.38527883445E+03  0.12500000000E+03 0.  0.
         -3    1    1    2    0  502  0.24529685667E+03 -0.39350783023E+02 -0.21691821443E+03  0.32980682796E+03  0.00000000000E+00 0.  1.
<mgrwt>
<rscale>  3 0.27810795E+03</rscale>
<asrwt>0</asrwt>
<pdfrwt beam="1">  1       21 0.58831177E-01 0.27810795E+03</pdfrwt>
<pdfrwt beam="2">  1       -3 0.51182001E-01 0.27810795E+03</pdfrwt>
<totfact> 0.50084505E+02</totfact>
</mgrwt>
</event>
<event>
 4    0  0.1262661E-001  0.4686127E+03  0.7546771E-02  0.1022312E+00
          1   -1    0    0  502    0 -0.00000000000E+00  0.00000000000E+00  0.85586674342E+03  0.85586674342E+03  0.00000000000E+00 0. -1.
         21   -1    0    0  501  502  0.00000000000E+00 -0.00000000000E+00 -0.24748604590E+03  0.24748604590E+03  0.00000000000E+00 0. -1.
         25    1    1    2    0    0 -0.16669450329E+03  0.41974495223E+03  0.29770992592E+03  0.55518382753E+03  0.12500000000E+03 0.  0.
          1    1    1    2  501    0  0.16669450329E+03 -0.41974495223E+03  0.31067077159E+03  0.54816896180E+03  0.00000000000E+00 0. -1.
<mgrwt>
<rscale>  3 0.46861272E+03</rscale>
<asrwt>0</asrwt>
<pdfrwt beam="1">  1       21 0.38074777E-01 0.46861272E+03</pdfrwt>
<pdfrwt beam="2">  1        1 0.13167181E+00 0.46861272E+03</pdfrwt>
<totfact> 0.14109957E+03</totfact>
</mgrwt>
</event>
<event>
 4    0  0.1002184E-001  0.2380074E+03  0.7546771E-02  0.1121127E+00
         21   -1    0    0  501  502  0.00000000000E+00  0.00000000000E+00  0.10844256610E+03  0.10844256610E+03  0.00000000000E+00 0. -1.
         -1   -1    0    0    0  501 -0.00000000000E+00 -0.00000000000E+00 -0.63584658809E+03  0.63584658809E+03  0.00000000000E+00 0.  1.
         25    1    1    2    0    0  0.20253614037E+03 -0.12857037463E+01 -0.76524693862E+02  0.25000713982E+03  0.12500000000E+03 0.  0.
         -1    1    1    2    0  502 -0.20253614037E+03  0.12857037463E+01 -0.45087932813E+03  0.49428201436E+03  0.00000000000E+00 0.  1.
<mgrwt>
<rscale>  3 0.23800744E+03</rscale>
<asrwt>0</asrwt>
<pdfrwt beam="1">  1       21 0.16683471E-01 0.23800744E+03</pdfrwt>
<pdfrwt beam="2">  1       -1 0.97822554E-01 0.23800744E+03</pdfrwt>
<totfact> 0.31714900E+03</totfact>
</mgrwt>
</event>
<event>
 4    0  0.1142624E-001  0.2414718E+03  0.7546771E-02  0.1118816E+00
         21   -1    0    0  501  502  0.00000000000E+00  0.00000000000E+00  0.25315420844E+03  0.25315420844E+03  0.00000000000E+00 0. -1.
          2   -1    0    0  502    0 -0.00000000000E+00 -0.00000000000E+00 -0.23617433126E+03  0.23617433126E+03  0.00000000000E+00 0. -1.
         25    1    1    2    0    0  0.25722463925E+02  0.20499261508E+03  0.10681543485E+03  0.26404195597E+03  0.12500000000E+03 0.  0.
          2    1    1    2  501    0 -0.25722463925E+02 -0.20499261508E+03 -0.89835557666E+02  0.22528658373E+03  0.00000000000E+00 0. -1.
<mgrwt>
<rscale>  3 0.24147177E+03</rscale>
<asrwt>0</asrwt>
<pdfrwt beam="1">  1       21 0.38946801E-01 0.24147177E+03</pdfrwt>
<pdfrwt beam="2">  1        2 0.36334512E-01 0.24147177E+03</pdfrwt>
<totfact> 0.11041849E+04</totfact>
</mgrwt>
</event>
<event>
 4    0  0.1123800E-001  0.3101990E+03  0.7546771E-02  0.1080251E+00
          1   -1    0    0  502    0 -0.00000000000E+00  0.00000000000E+00  0.30608931560E+04  0.30608931560E+04  0.00000000000E+00 0. -1.
         21   -1    0    0  501  502  0.00000000000E+00 -0.00000000000E+00 -0.45005276378E+02  0.45005276378E+02  0.00000000000E+00 0. -1.
         25    1    1    2    0    0  0.95853751248E+02  0.26722735302E+03  0.62021320894E+03  0.69346075907E+03  0.12500000000E+03 0.  0.
          1    1    1    2  501    0 -0.95853751248E+02 -0.26722735302E+03  0.23956746707E+04  0.24124376733E+04  0.00000000000E+00 0. -1.
<mgrwt>
<rscale>  3 0.31019897E+03</rscale>
<asrwt>0</asrwt>
<pdfrwt beam="1">  1       21 0.69238911E-02 0.31019897E+03</pdfrwt>
<pdfrwt beam="2">  1        1 0.47090647E+00 0.31019897E+03</pdfrwt>
<totfact> 0.11024965E+03</totfact>
</mgrwt>
</event>
<event>
 4    0  0.1002184E-001  0.2624130E+03  0.7546771E-02  0.1105702E+00
         21   -1    0    0  501  502  0.00000000000E+00  0.00000000000E+00  0.16033902328E+02  0.16033902328E+02  0.00000000000E+00 0. -1.
          2   -1    0    0  502    0 -0.00000000000E+00 -0.00000000000E+00 -0.44439090722E+04  0.44439090722E+04  0.00000000000E+00 0.  1.
         25    1    1    2    0    0 -0.19993142958E+03 -0.11516513274E+03 -0.14825720692E+04  0.15056163272E+04  0.12500000000E+03 0.  0.
          2    1    1    2  501    0  0.19993142958E+03  0.11516513274E+03 -0.29453031007E+04  0.29543266473E+04  0.00000000000E+00 0.  1.
<mgrwt>
<rscale>  3 0.26241300E+03</rscale>
<asrwt>0</asrwt>
<pdfrwt beam="1">  1       21 0.24667520E-02 0.26241300E+03</pdfrwt>
<pdfrwt beam="2">  1        2 0.68367892E+00 0.26241300E+03</pdfrwt>
<totfact> 0.21506753E+03</totfact>
</mgrwt>
</event>
<event>
 4    0  0.1896591E-001  0.2591060E+03  0.7546771E-02  0.1107682E+00
         -3   -1    0    0    0  501 -0.00000000000E+00  0.00000000000E+00  0.70988980224E+03  0.70988980224E+03  0.00000000000E+00 0.  1.
         21   -1    0    0  501  502  0.00000000000E+00 -0.00000000000E+00 -0.10277153209E+03  0.10277153209E+03  0.00000000000E+00 0.  1.
         25    1    1    2    0    0 -0.17157997829E+03 -0.14856383488E+03  0.14282166728E+03  0.29586133683E+03  0.12500000000E+03 0.  0.
         -3    1    1    2    0  502  0.17157997829E+03  0.14856383488E+03  0.46429660287E+03  0.51679999751E+03  0.00000000000E+00 0.  1.
<mgrwt>
<rscale>  3 0.25910597E+03</rscale>
<asrwt>0</asrwt>
<pdfrwt beam="1">  1       21 0.15811005E-01 0.25910597E+03</pdfrwt>
<pdfrwt beam="2">  1       -3 0.10921381E+00 0.25910597E+03</pdfrwt>
<totfact> 0.12951562E+03</totfact>
</mgrwt>
</event>
<event>
 4    0  0.1496330E-001  0.2692710E+03  0.7546771E-02  0.1101698E+00
         21   -1    0    0  501  502  0.00000000000E+00  0.00000000000E+00  0.84619269582E+02  0.84619269582E+02  0.00000000000E+00 0. -1.
          2   -1    0    0  502    0 -0.00000000000E+00 -0.00000000000E+00 -0.76177168744E+03  0.76177168744E+03  0.00000000000E+00 0. -1.
         25    1    1    2    0    0  0.23708582266E+03 -0.25926092585E+02 -0.36194644044E+03  0.45112312658E+03  0.12500000000E+03 0.  0.
          2    1    1    2  501    0 -0.23708582266E+03  0.25926092585E+02 -0.31520597742E+03  0.39526783045E+03  0.00000000000E+00 0. -1.
<mgrwt>
<rscale>  3 0.26927096E+03</rscale>
<asrwt>0</asrwt>
<pdfrwt beam="1">  1       21 0.13018349E-01 0.26927096E+03</pdfrwt>
<pdfrwt beam="2">  1        2 0.11719565E+00 0.26927096E+03</pdfrwt>
<totfact> 0.23892701E+04</totfact>
</mgrwt>
</event>
<event>
 4    0  0.1002184E-001  0.2476226E+03  0.7546771E-02  0.1114817E+00
         21   -1    0    0  501  502  0.00000000000E+00  0.00000000000E+00  0.52193954636E+03  0.52193954636E+03  0.00000000000E+00 0.  1.
          2   -1    0    0  502    0 -0.00000000000E+00 -0.00000000000E+00 -0.18295571789E+03  0.18295571789E+03  0.00000000000E+00 0. -1.
         25    1    1    2    0    0 -0.48208847926E+02  0.20824954837E+03  0.41057603519E+03  0.47946808870E+03  0.12500000000E+03 0.  0.
          2    1    1    2  501    0  0.48208847926E+02 -0.20824954837E+03 -0.71592206715E+02  0.22542717555E+03  0.00000000000E+00 0. -1.
<mgrwt>
<rscale>  3 0.24762263E+03</rscale>
<asrwt>0</asrwt>
<pdfrwt beam="1">  1       21 0.80298391E-01 0.24762263E+03</pdfrwt>
<pdfrwt beam="2">  1        2 0.28147034E-01 0.24762263E+03</pdfrwt>
<totfact> 0.31010163E+03</totfact>
</mgrwt>
</event>
<event>
 4    0  0.1096642E-001  0.2663787E+03  0.7546771E-02  0.1103370E+00
          2   -1    0    0  502    0 -0.00000000000E+00  0.00000000000E+00  0.10414933447E+04  0.10414933447E+04  0.00000000000E+00 0. -1.
         21   -1    0    0  501  502  0.00000000000E+00 -0.00000000000E+00 -0.87977942699E+02  0.87977942699E+02  0.00000000000E+00 0.  1.
         25    1    1    2    0    0  0.19434805001E+03 -0.13251951100E+03  0.18129755816E+03  0.32222102653E+03  0.12500000000E+03 0.  0.
          2    1    1    2  501    0 -0.19434805001E+03  0.13251951100E+03  0.77221784388E+03  0.80725026092E+03  0.00000000000E+00 0. -1.
<mgrwt>
<rscale>  3 0.26637865E+03</rscale>
<asrwt>0</asrwt>
<pdfrwt beam="1">  1       21 0.13535069E-01 0.26637865E+03</pdfrwt>
<pdfrwt beam="2">  1        2 0.16022974E+00 0.26637865E+03</pdfrwt>
<totfact> 0.14638440E+04</totfact>
</mgrwt>
</event>
<event>
 4    0  0.1799982E-001  0.4160295E+03  0.7546771E-02  0.1038366E+00
         -3   -1    0    0    0  501 -0.00000000000E+00  0.00000000000E+00  0.39859778921E+03  0.39859778921E+03  0.00000000000E+00 0.  1.
         21   -1    0    0  501  502  0.00000000000E+00 -0.00000000000E+00 -0.48633569929E+03  0.48633569929E+03  0.00000000000E+00 0.  1.
         25    1    1    2    0    0  0.39624145111E+03 -0.21172965078E+02 -0.21489265010E+03  0.46825146353E+03  0.12500000000E+03 0.  0.
         -3    1    1    2    0  502 -0.39624145111E+03  0.21172965078E+02  0.12715474001E+03  0.41668202497E+03  0.00000000000E+00 0.  1.
<mgrwt>
<rscale>  3 0.41602954E+03</rscale>
<asrwt>0</asrwt>
<pdfrwt beam="1">  1       21 0.74820877E-01 0.41602954E+03</pdfrwt>
<pdfrwt beam="2">  1       -3 0.61322737E-01 0.41602954E+03</pdfrwt>
<totfact> 0.19757508E+02</totfact>
</mgrwt>
</event>
<event>
 4    0  0.1002184E-001  0.7252591E+03  0.7546771E-02  0.9674985E-01
          1   -1    0    0  502    0 -0.00000000000E+00  0.00000000000E+00  0.34975790010E+04  0.34975790010E+04  0.00000000000E+00 0. -1.
         21   -1    0    0  501  502  0.00000000000E+00 -0.00000000000E+00 -0.11385828886E+04  0.11385828886E+04  0.00000000000E+00 0.  1.
         25    1    1    2    0    0  0.57832374827E+03 -0.41942508204E+03 -0.98135478913E+03  0.12202696339E+04  0.12500000000E+03 0.  0.
          1    1    1    2  501    0 -0.57832374827E+03  0.41942508204E+03  0.33403509015E+04  0.34158922557E+04  0.00000000000E+00 0. -1.
<mgrwt>
<rscale>  3 0.72525910E+03</rscale>
<asrwt>0</asrwt>
<pdfrwt beam="1">  1       21 0.17516660E+00 0.72525910E+03</pdfrwt>
<pdfrwt beam="2">  1        1 0.53808907E+00 0.72525910E+03</pdfrwt>
<totfact> 0.47615008E-01</totfact>
</mgrwt>
</event>
<event>
 4    0  0.1600788E-001  0.2581625E+03  0.7546771E-02  0.1108252E+00
         21   -1    0    0  501  502  0.00000000000E+00  0.00000000000E+00  0.90731833232E+02  0.90731833232E+02  0.00000000000E+00 0.  1.
          4   -1    0    0  502    0 -0.00000000000E+00 -0.00000000000E+00 -0.65701533044E+03  0.65701533044E+03  0.00000000000E+00 0.  1.
         25    1    1    2    0    0  0.19004163167E+03 -0.12209446354E+03 -0.35090656131E+03  0.43564124526E+03  0.12500000000E+03 0.  0.
          4    1    1    2  501    0 -0.19004163167E+03  0.12209446354E+03 -0.21537693589E+03  0.31210591841E+03  0.00000000000E+00 0.  1.
<mgrwt>
<rscale>  3 0.25816251E+03</rscale>
<asrwt>0</asrwt>
<pdfrwt beam="1">  1       21 0.13958743E-01 0.25816251E+03</pdfrwt>
<pdfrwt beam="2">  1        4 0.10107929E+00 0.25816251E+03</pdfrwt>
<totfact> 0.15740357E+03</totfact>
</mgrwt>
</event>
<event>
 4    0  0.1539871E-001  0.2463217E+03  0.7546771E-02  0.1115652E+00
          1   -1    0    0  502    0 -0.00000000000E+00  0.00000000000E+00  0.53438175056E+03  0.53438175056E+03  0.00000000000E+00 0.  1.
         21   -1    0    0  501  502  0.00000000000E+00 -0.00000000000E+00 -0.98577103285E+02  0.98577103285E+02  0.00000000000E+00 0.  1.
         25    1    1    2    0    0 -0.17702955371E+03 -0.11708932167E+03  0.21989107792E+03  0.33019154787E+03  0.12500000000E+03 0.  0.
          1    1    1    2  501    0  0.17702955371E+03  0.11708932167E+03  0.21591356935E+03  0.30276730598E+03  0.00000000000E+00 0.  1.
<mgrwt>
<rscale>  3 0.24632168E+03</rscale>
<asrwt>0</asrwt>
<pdfrwt beam="1">  1       21 0.15165709E-01 0.24632168E+03</pdfrwt>
<pdfrwt beam="2">  1        1 0.82212575E-01 0.24632168E+03</pdfrwt>
<totfact> 0.17411880E+04</totfact>
</mgrwt>
</event>
<event>
 4    0  0.1284375E-001  0.3740908E+03  0.7546771E-02  0.1053140E+00
         21   -1    0    0  501  502  0.00000000000E+00  0.00000000000E+00  0.54697982782E+02  0.54697982782E+02  0.00000000000E+00 0. -1.
          1   -1    0    0  502    0 -0.00000000000E+00 -0.00000000000E+00 -0.25480617556E+04  0.25480617556E+04  0.00000000000E+00 0. -1.
         25    1    1    2    0    0 -0.33947133997E+03  0.95279129174E+02 -0.98273120601E+03  0.10515248577E+04  0.12500000000E+03 0.  0.
          1    1    1    2  501    0  0.33947133997E+03 -0.95279129174E+02 -0.15106325668E+04  0.15512348807E+04  0.00000000000E+00 0. -1.
<mgrwt>
<rscale>  3 0.37409077E+03</rscale>
<asrwt>0</asrwt>
<pdfrwt beam="1">  1       21 0.84150731E-02 0.37409077E+03</pdfrwt>
<pdfrwt beam="2">  1        1 0.39200956E+00 0.37409077E+03</pdfrwt>
<totfact> 0.17244008E+03</totfact>
</mgrwt>
</event>
<event>
 4    0  0.1146200E-001  0.3504800E+03  0.7546771E-02  0.1062418E+00
         21   -1    0    0  501  502  0.00000000000E+00  0.00000000000E+00  0.15817503612E+04  0.15817503612E+04  0.00000000000E+00 0. -1.
          4   -1    0    0  502    0 -0.00000000000E+00 -0.00000000000E+00 -0.64446155039E+03  0.64446155039E+03  0.00000000000E+00 0. -1.
         25    1    1    2    0    0 -0.65254578452E+01 -0.32736625926E+03  0.15188758156E+04  0.15587879883E+04  0.12500000000E+03 0.  0.
          4    1    1    2  501    0  0.65254578452E+01  0.32736625926E+03 -0.58158700476E+03  0.66742392331E+03  0.00000000000E+00 0. -1.
<mgrwt>
<rscale>  3 0.35048003E+03</rscale>
<asrwt>0</asrwt>
<pdfrwt beam="1">  1       21 0.24334621E+00 0.35048003E+03</pdfrwt>
<pdfrwt beam="2">  1        4 0.99147931E-01 0.35048003E+03</pdfrwt>
<totfact> 0.23910811E+00</totfact>
</mgrwt>
</event>
<event>
 4    0  0.1559335E-001  0.2836811E+03  0.7546771E-02  0.1093695E+00
         21   -1    0    0  501  502  0.00000000000E+00  0.00000000000E+00  0.43056560142E+02  0.43056560142E+02  0.00000000000E+00 0.  1.
          1   -1    0    0  502    0 -0.00000000000E+00 -0.00000000000E+00 -0.16840499259E+04  0.16840499259E+04  0.00000000000E+00 0.  1.
         25    1    1    2    0    0  0.18946270306E+03 -0.17015824522E+03 -0.88899367060E+03  0.93315844884E+03  0.12500000000E+03 0.  0.
          1    1    1    2  501    0 -0.18946270306E+03  0.17015824522E+03 -0.75199969512E+03  0.79394803717E+03  0.00000000000E+00 0.  1.
<mgrwt>
<rscale>  3 0.28368106E+03</rscale>
<asrwt>0</asrwt>
<pdfrwt beam="1">  1       21 0.66240862E-02 0.28368106E+03</pdfrwt>
<pdfrwt beam="2">  1        1 0.25908460E+00 0.28368106E+03</pdfrwt>
<totfact> 0.99783489E+03</totfact>
</mgrwt>
</event>
<event>
 4    0  0.1333341E-001  0.2779091E+03  0.7546771E-02  0.1096836E+00
         21   -1    0    0  501  502  0.00000000000E+00  0.00000000000E+00  0.15301522225E+03  0.15301522225E+03  0.00000000000E+00 0.  1.
          2   -1    0    0  502    0 -0.00000000000E+00 -0.00000000000E+00 -0.88997105250E+03  0.88997105250E+03  0.00000000000E+00 0. -1.
         25    1    1    2    0    0  0.23985921842E+03  0.63843811005E+02 -0.13613011719E+02  0.27824232415E+03  0.12500000000E+03 0.  0.
          2    1    1    2  501    0 -0.23985921842E+03 -0.63843811005E+02 -0.72334281853E+03  0.76474395060E+03  0.00000000000E+00 0. -1.
<mgrwt>
<rscale>  3 0.27790912E+03</rscale>
<asrwt>0</asrwt>
<pdfrwt beam="1">  1       21 0.23540803E-01 0.27790912E+03</pdfrwt>
<pdfrwt beam="2">  1        2 0.13691863E+00 0.27790912E+03</pdfrwt>
<totfact> 0.64739233E+03</totfact>
</mgrwt>
</event>
<event>
 4    0  0.1002184E-001  0.2516341E+03  0.7546771E-02  0.1112276E+00
          2   -1    0    0  502    0 -0.00000000000E+00  0.00000000000E+00  0.32749141575E+03  0.32749141575E+03  0.00000000000E+00 0.  1.
         21   -1    0    0  501  502  0.00000000000E+00 -0.00000000000E+00 -0.18020428006E+03  0.18020428006E+03  0.00000000000E+00 0. -1.
         25    1    1    2    0    0 -0.18396223844E+03 -0.11769704395E+03  0.14386451592E+02  0.25204497479E+03  0.12500000000E+03 0.  0.
          2    1    1    2  501    0  0.18396223844E+03  0.11769704395E+03  0.13290068410E+03  0.25565072102E+03  0.00000000000E+00 0.  1.
<mgrwt>
<rscale>  3 0.25163406E+03</rscale>
<asrwt>0</asrwt>
<pdfrwt beam="1">  1       21 0.27723735E-01 0.25163406E+03</pdfrwt>
<pdfrwt beam="2">  1        2 0.50383295E-01 0.25163406E+03</pdfrwt>
<totfact> 0.15184072E+04</totfact>
</mgrwt>
</event>
<event>
 4    0  0.1024702E-001  0.3844187E+03  0.7546771E-02  0.1049313E+00
          2   -1    0    0  502    0 -0.00000000000E+00  0.00000000000E+00  0.22155230072E+03  0.22155230072E+03  0.00000000000E+00 0.  1.
         21   -1    0    0  501  502  0.00000000000E+00 -0.00000000000E+00 -0.98625353546E+03  0.98625353546E+03  0.00000000000E+00 0.  1.
         25    1    1    2    0    0  0.25284038171E+03  0.26119816592E+03 -0.75140996106E+03  0.84403475644E+03  0.12500000000E+03 0.  0.
          2    1    1    2  501    0 -0.25284038171E+03 -0.26119816592E+03 -0.13291273683E+02  0.36377107975E+03  0.00000000000E+00 0.  1.
<mgrwt>
<rscale>  3 0.38441870E+03</rscale>
<asrwt>0</asrwt>
<pdfrwt beam="1">  1       21 0.15173131E+00 0.38441870E+03</pdfrwt>
<pdfrwt beam="2">  1        2 0.34084970E-01 0.38441870E+03</pdfrwt>
<totfact> 0.49901920E+02</totfact>
</mgrwt>
</event>
<event>
 4    0  0.1901819E-001  0.2729071E+03  0.7546771E-02  0.1099627E+00
         21   -1    0    0  501  502  0.00000000000E+00  0.00000000000E+00  0.56000803924E+02  0.56000803924E+02  0.00000000000E+00 0. -1.
         -4   -1    0    0    0  501 -0.00000000000E+00 -0.00000000000E+00 -0.12026051332E+04  0.12026051332E+04  0.00000000000E+00 0. -1.
         25    1    1    2    0    0 -0.12516072075E+03 -0.20781736379E+03 -0.67961203669E+03  0.73235973614E+03  0.12500000000E+03 0.  0.
         -4    1    1    2    0  502  0.12516072075E+03  0.20781736379E+03 -0.46699229262E+03  0.52624620101E+03  0.00000000000E+00 0. -1.
<mgrwt>
<rscale>  3 0.27290706E+03</rscale>
<asrwt>0</asrwt>
<pdfrwt beam="1">  1       21 0.86155097E-02 0.27290706E+03</pdfrwt>
<pdfrwt beam="2">  1       -4 0.18501614E+00 0.27290706E+03</pdfrwt>
<totfact> 0.80105034E+02</totfact>
</mgrwt>
</event>
<event>
 4    0  0.1002184E-001  0.3742482E+03  0.7546771E-02  0.1053080E+00
          1   -1    0    0  502    0 -0.00000000000E+00  0.00000000000E+00  0.37862306089E+04  0.37862306089E+04  0.00000000000E+00 0.  1.
         21   -1    0    0  501  502  0.00000000000E+00 -0.00000000000E+00 -0.73776109285E+03  0.73776109285E+03  0.00000000000E+00 0. -1.
         25    1    1    2    0    0 -0.81357145844E+02 -0.34324591549E+03 -0.68143595582E+03  0.77744241302E+03  0.12500000000E+03 0.  0.
          1    1    1    2  501    0  0.81357145844E+02  0.34324591549E+03  0.37299054719E+04  0.37465492887E+04  0.00000000000E+00 0.  1.
<mgrwt>
<rscale>  3 0.37424824E+03</rscale>
<asrwt>0</asrwt>
<pdfrwt beam="1">  1       21 0.11350171E+00 0.37424824E+03</pdfrwt>
<pdfrwt beam="2">  1        1 0.58249701E+00 0.37424824E+03</pdfrwt>
<totfact> 0.10968516E+00</totfact>
</mgrwt>
</event>
<event>
 4    0  0.1518313E-001  0.3046736E+03  0.7546771E-02  0.1082927E+00
          2   -1    0    0  502    0 -0.00000000000E+00  0.00000000000E+00  0.74477756880E+03  0.74477756880E+03  0.00000000000E+00 0.  1.
         21   -1    0    0  501  502  0.00000000000E+00 -0.00000000000E+00 -0.12461180887E+03  0.12461180887E+03  0.00000000000E+00 0.  1.
         25    1    1    2    0    0  0.20924725674E+03  0.18280204750E+03  0.19583647354E+03  0.36218493535E+03  0.12500000000E+03 0.  0.
          2    1    1    2  501    0 -0.20924725674E+03 -0.18280204750E+03  0.42432928638E+03  0.50720444232E+03  0.00000000000E+00 0.  1.
<mgrwt>
<rscale>  3 0.30467360E+03</rscale>
<asrwt>0</asrwt>
<pdfrwt beam="1">  1       21 0.19171048E-01 0.30467360E+03</pdfrwt>
<pdfrwt beam="2">  1        2 0.11458116E+00 0.30467360E+03</pdfrwt>
<totfact> 0.11962112E+04</totfact>
</mgrwt>
</event>
<event>
 4    0  0.1337410E-001  0.3134065E+03  0.7546771E-02  0.1078724E+00
         21   -1    0    0  501  502  0.00000000000E+00  0.00000000000E+00  0.10393919315E+04  0.10393919315E+04  0.00000000000E+00 0. -1.
         -1   -1    0    0    0  501 -0.00000000000E+00 -0.00000000000E+00 -0.89268019413E+02  0.89268019413E+02  0.00000000000E+00 0. -1.
         25    1    1    2    0    0  0.28739809149E+03  0.98944259483E+00  0.58839229008E+03  0.66665517999E+03  0.12500000000E+03 0.  0.
         -1    1    1    2    0  502 -0.28739809149E+03 -0.98944259483E+00  0.36173162197E+03  0.46200477089E+03  0.00000000000E+00 0. -1.
<mgrwt>
<rscale>  3 0.31340651E+03</rscale>
<asrwt>0</asrwt>
<pdfrwt beam="1">  1       21 0.15990644E+00 0.31340651E+03</pdfrwt>
<pdfrwt beam="2">  1       -1 0.13733542E-01 0.31340651E+03</pdfrwt>
<totfact> 0.79656876E+02</totfact>
</mgrwt>
</event>
<event>
 4    0  0.1452702E-001  0.2992447E+03  0.7546771E-02  0.1085619E+00
         21   -1    0    0  501  502  0.00000000000E+00  0.00000000000E+00  0.58578562152E+02  0.58578562152E+02  0.00000000000E+00 0. -1.
          2   -1    0    0  502    0 -0.00000000000E+00 -0.00000000000E+00 -0.15770589932E+04  0.15770589932E+04  0.00000000000E+00 0. -1.
         25    1    1    2    0    0 -0.34282471028E+02  0.26971675072E+03 -0.51156229462E+03  0.59265790699E+03  0.12500000000E+03 0.  0.
          2    1    1    2  501    0  0.34282471028E+02 -0.26971675072E+03 -0.10069181364E+04  0.10429796483E+04  0.00000000000E+00 0. -1.
<mgrwt>
<rscale>  3 0.29924474E+03</rscale>
<asrwt>0</asrwt>
<pdfrwt beam="1">  1       21 0.90120878E-02 0.29924474E+03</pdfrwt>
<pdfrwt beam="2">  1        2 0.24262442E+00 0.29924474E+03</pdfrwt>
<totfact> 0.15124704E+04</totfact>
</mgrwt>
</event>
<event>
 4    0  0.1002184E-001  0.2574770E+03  0.7546771E-02  0.1108669E+00
         21   -1    0    0  501  502  0.00000000000E+00  0.00000000000E+00  0.12142655749E+04  0.12142655749E+04  0.00000000000E+00 0. -1.
          2   -1    0    0  502    0 -0.00000000000E+00 -0.00000000000E+00 -0.81287037853E+02  0.81287037853E+02  0.00000000000E+00 0. -1.
         25    1    1    2    0    0  0.23921690915E+02  0.22382391791E+03  0.10032162242E+04  0.10357302670E+04  0.12500000000E+03 0.  0.
          2    1    1    2  501    0 -0.23921690915E+02 -0.22382391791E+03  0.12976231293E+03  0.25982234581E+03  0.00000000000E+00 0. -1.
<mgrwt>
<rscale>  3 0.25747698E+03</rscale>
<asrwt>0</asrwt>
<pdfrwt beam="1">  1       21 0.18681008E+00 0.25747698E+03</pdfrwt>
<pdfrwt beam="2">  1        2 0.12505699E-01 0.25747698E+03</pdfrwt>
<totfact> 0.93199215E+02</totfact>
</mgrwt>
</event>
<event>
 4    0  0.1129680E-001  0.2726387E+03  0.7546771E-02  0.1099779E+00
          2   -1    0    0  502    0 -0.00000000000E+00  0.00000000000E+00  0.27322110864E+04  0.27322110864E+04  0.00000000000E+00 0. -1.
         21   -1    0    0  501  502  0.00000000000E+00 -0.00000000000E+00 -0.80420425109E+02  0.80420425109E+02  0.00000000000E+00 0. -1.
         25    1    1    2    0    0 -0.22604379437E+03  0.87241458559E+02  0.17489631793E+03  0.32391448114E+03  0.12500000000E+03 0.  0.
          2    1    1    2  501    0  0.22604379437E+03 -0.87241458559E+02  0.24768943434E+04  0.24887170304E+04  0.00000000000E+00 0. -1.
<mgrwt>
<rscale>  3 0.27263872E+03</rscale>
<asrwt>0</asrwt>
<pdfrwt beam="1">  1       21 0.12372375E-01 0.27263872E+03</pdfrwt>
<pdfrwt beam="2">  1        2 0.42034010E+00 0.27263872E+03</pdfrwt>
<totfact> 0.20726455E+03</totfact>
</mgrwt>
</event>
<event>
 4    0  0.1500749E-001  0.2449692E+03  0.7546771E-02  0.1116526E+00
         21   -1    0    0  501  502  0.00000000000E+00  0.00000000000E+00  0.42793467866E+03  0.42793467866E+03  0.00000000000E+00 0.  1.
          2   -1    0    0  502    0 -0.00000000000E+00 -0.00000000000E+00 -0.20369029330E+04  0.20369029330E+04  0.00000000000E+00 0. -1.
         25    1    1    2    0    0  0.93480196092E+02 -0.18880242496E+03  0.38687237352E+03  0.45790843640E+03  0.12500000000E+03 0.  0.
          2    1    1    2  501    0 -0.93480196092E+02  0.18880242496E+03 -0.19958406279E+04  0.20069291753E+04  0.00000000000E+00 0. -1.
<mgrwt>
<rscale>  3 0.24496919E+03</rscale>
<asrwt>0</asrwt>
<pdfrwt beam="1">  1       21 0.65836106E-01 0.24496919E+03</pdfrwt>
<pdfrwt beam="2">  1        2 0.31336967E+00 0.24496919E+03</pdfrwt>
<totfact> 0.18712303E+02</totfact>
</mgrwt>
</event>
<event>
 4    0  0.1534379E-001  0.2530880E+03  0.7546771E-02  0.1111369E+00
          1   -1    0    0  502    0 -0.00000000000E+00  0.00000000000E+00  0.11269379851E+04  0.11269379851E+04  0.00000000000E+00 0. -1.
         21   -1    0    0  501  502  0.00000000000E+00 -0.00000000000E+00 -0.15757770713E+03  0.15757770713E+03  0.00000000000E+00 0.  1.
         25    1    1    2    0    0  0.13251055228E+03  0.17569709864E+03 -0.35746270952E+02  0.25559990771E+03  0.12500000000E+03 0.  0.
          1    1    1    2  501    0 -0.13251055228E+03 -0.17569709864E+03  0.10051065489E+04  0.10289157845E+04  0.00000000000E+00 0. -1.
<mgrwt>
<rscale>  3 0.25308796E+03</rscale>
<asrwt>0</asrwt>
<pdfrwt beam="1">  1       21 0.24242725E-01 0.25308796E+03</pdfrwt>
<pdfrwt beam="2">  1        1 0.17337507E+00 0.25308796E+03</pdfrwt>
<totfact> 0.22756100E+03</totfact>
</mgrwt>
</event>
<event>
 4    0  0.1646968E-001  0.2407277E+03  0.7546771E-02  0.1119309E+00
          2   -1    0    0  502    0 -0.00000000000E+00  0.00000000000E+00  0.10727923446E+04  0.10727923446E+04  0.00000000000E+00 0.  1.
         21   -1    0    0  501  502  0.00000000000E+00 -0.00000000000E+00 -0.28700675229E+03  0.28700675229E+03  0.00000000000E+00 0.  1.
         25    1    1    2    0    0 -0.12117643398E+03 -0.16625617132E+03 -0.22426743895E+03  0.32900718355E+03  0.12500000000E+03 0.  0.
          2    1    1    2  501    0  0.12117643398E+03  0.16625617132E+03  0.10100530312E+04  0.10307919133E+04  0.00000000000E+00 0.  1.
<mgrwt>
<rscale>  3 0.24072774E+03</rscale>
<asrwt>0</asrwt>
<pdfrwt beam="1">  1       21 0.44154886E-01 0.24072774E+03</pdfrwt>
<pdfrwt beam="2">  1        2 0.16504497E+00 0.24072774E+03</pdfrwt>
<totfact> 0.14522703E+03</totfact>
</mgrwt>
</event>
<event>
 4    0  0.1002184E-001  0.3003716E+03  0.7546771E-02  0.1085055E+00
          1   -1    0    0  502    0 -0.00000000000E+00  0.00000000000E+00  0.13181875522E+04  0.13181875522E+04  0.00000000000E+00 0.  1.
         21   -1    0    0  501  502  0.00000000000E+00 -0.00000000000E+00 -0.78248116244E+02  0.78248116244E+02  0.00000000000E+00 0. -1.
         25    1    1    2    0    0 -0.18707758896E+03  0.19899766512E+03  0.32928054904E+03  0.44570031971E+03  0.12500000000E+03 0.  0.
          1    1    1    2  501    0  0.18707758896E+03 -0.19899766512E+03  0.91065888694E+03  0.95073534876E+03  0.00000000000E+00 0.  1.
<mgrwt>
<rscale>  3 0.30037159E+03</rscale>
<asrwt>0</asrwt>
<pdfrwt beam="1">  1       21 0.12038173E-01 0.30037159E+03</pdfrwt>
<pdfrwt beam="2">  1        1 0.20279807E+00 0.30037159E+03</pdfrwt>
<totfact> 0.60525597E+03</totfact>
</mgrwt>
</event>
<event>
 4    0  0.1510905E-001  0.2378326E+03  0.7546771E-02  0.1121245E+00
          1   -1    0    0  502    0 -0.00000000000E+00  0.00000000000E+00  0.11955946738E+04  0.11955946738E+04  0.00000000000E+00 0.  1.
         21   -1    0    0  501  502  0.00000000000E+00 -0.00000000000E+00 -0.42425542542E+02  0.42425542542E+02  0.00000000000E+00 0.  1.
         25    1    1    2    0    0 -0.79100609549E+02 -0.18623219696E+03  0.48995875182E+03  0.54463190881E+03  0.12500000000E+03 0.  0.
          1    1    1    2  501    0  0.79100609549E+02  0.18623219696E+03  0.66321037943E+03  0.69338830752E+03  0.00000000000E+00 0.  1.
<mgrwt>
<rscale>  3 0.23783258E+03</rscale>
<asrwt>0</asrwt>
<pdfrwt beam="1">  1       21 0.65270075E-02 0.23783258E+03</pdfrwt>
<pdfrwt beam="2">  1        1 0.18393762E+00 0.23783258E+03</pdfrwt>
<totfact> 0.22008161E+04</totfact>
</mgrwt>
</event>
<event>
 4    0  0.1002184E-001  0.2475439E+03  0.7546771E-02  0.1114867E+00
         21   -1    0    0  501  502  0.00000000000E+00  0.00000000000E+00  0.88351416035E+02  0.88351416035E+02  0.00000000000E+00 0.  1.
          2   -1    0    0  502    0 -0.00000000000E+00 -0.00000000000E+00 -0.81701222880E+03  0.81701222880E+03  0.00000000000E+00 0. -1.
         25    1    1    2    0    0  0.20191205758E+03 -0.69889156461E+02 -0.15222744956E+03  0.29060483407E+03  0.12500000000E+03 0.  0.
          2    1    1    2  501    0 -0.20191205758E+03  0.69889156461E+02 -0.57643336321E+03  0.61475881076E+03  0.00000000000E+00 0. -1.
<mgrwt>
<rscale>  3 0.24754388E+03</rscale>
<asrwt>0</asrwt>
<pdfrwt beam="1">  1       21 0.13592527E-01 0.24754388E+03</pdfrwt>
<pdfrwt beam="2">  1        2 0.12569418E+00 0.24754388E+03</pdfrwt>
<totfact> 0.20281146E+04</totfact>
</mgrwt>
</event>
<event>
 4    0  0.1405659E-001  0.3163135E+03  0.7546771E-02  0.1077359E+00
          1   -1    0    0  502    0 -0.00000000000E+00  0.00000000000E+00  0.15934785101E+04  0.15934785101E+04  0.00000000000E+00 0. -1.
         21   -1    0    0  501  502  0.00000000000E+00 -0.00000000000E+00 -0.58819067386E+02  0.58819067386E+02  0.00000000000E+00 0. -1.
         25    1    1    2    0    0 -0.26418093056E+03 -0.12098618127E+03  0.68976159585E+03  0.75883152230E+03  0.12500000000E+03 0.  0.
          1    1    1    2  501    0  0.26418093056E+03  0.12098618127E+03  0.84489784683E+03  0.89346605515E+03  0.00000000000E+00 0. -1.
<mgrwt>
<rscale>  3 0.31631348E+03</rscale>
<asrwt>0</asrwt>
<pdfrwt beam="1">  1       21 0.90490885E-02 0.31631348E+03</pdfrwt>
<pdfrwt beam="2">  1        1 0.24515051E+00 0.31631348E+03</pdfrwt>
<totfact> 0.65658176E+03</totfact>
</mgrwt>
</event>
<event>
 4    0  0.1002184E-001  0.2545049E+03  0.7546771E-02  0.1110490E+00
          1   -1    0    0  502    0 -0.00000000000E+00  0.00000000000E+00  0.87836400576E+02  0.87836400576E+02  0.00000000000E+00 0. -1.
         21   -1    0    0  501  502  0.00000000000E+00 -0.00000000000E+00 -0.68252990694E+03  0.68252990694E+03  0.00000000000E+00 0.  1.
         25    1    1    2    0    0 -0.22125568228E+03 -0.13917202433E+02 -0.40633835509E+03  0.47946180691E+03  0.12500000000E+03 0.  0.
          1    1    1    2  501    0  0.22125568228E+03  0.13917202433E+02 -0.18835515127E+03  0.29090450061E+03  0.00000000000E+00 0. -1.
<mgrwt>
<rscale>  3 0.25450494E+03</rscale>
<asrwt>0</asrwt>
<pdfrwt beam="1">  1       21 0.10500460E+00 0.25450494E+03</pdfrwt>
<pdfrwt beam="2">  1        1 0.13513293E-01 0.25450494E+03</pdfrwt>
<totfact> 0.32765116E+03</totfact>
</mgrwt>
</event>
<event>
 4    0  0.1002184E-001  0.2465023E+03  0.7546771E-02  0.1115535E+00
          4   -1    0    0  502    0 -0.00000000000E+00  0.00000000000E+00  0.79422639907E+02  0.79422639907E+02  0.00000000000E+00 0.  1.
         21   -1    0    0  501  502  0.00000000000E+00 -0.00000000000E+00 -0.16369842907E+04  0.16369842907E+04  0.00000000000E+00 0. -1.
         25    1    1    2    0    0 -0.21245433240E+03 -0.12464666119E+01 -0.14634030159E+04  0.14840187951E+04  0.12500000000E+03 0.  0.
          4    1    1    2  501    0  0.21245433240E+03  0.12464666119E+01 -0.94158634888E+02  0.23238813558E+03  0.00000000000E+00 0.  1.
<mgrwt>
<rscale>  3 0.24650233E+03</rscale>
<asrwt>0</asrwt>
<pdfrwt beam="1">  1       21 0.25184374E+00 0.24650233E+03</pdfrwt>
<pdfrwt beam="2">  1        4 0.12218868E-01 0.24650233E+03</pdfrwt>
<totfact> 0.14304098E+02</totfact>
</mgrwt>
</event>
<event>
 4    0  0.1034563E-001  0.2364164E+03  0.7546771E-02  0.1122203E+00
          4   -1    0    0  502    0 -0.00000000000E+00  0.00000000000E+00  0.73396697874E+03  0.73396697874E+03  0.00000000000E+00 0.  1.
         21   -1    0    0  501  502  0.00000000000E+00 -0.00000000000E+00 -0.10811609710E+03  0.10811609710E+03  0.00000000000E+00 0. -1.
         25    1    1    2    0    0  0.59284687717E+02 -0.19171087776E+03  0.63198652604E+02  0.24471780593E+03  0.12500000000E+03 0.  0.
          4    1    1    2  501    0 -0.59284687717E+02  0.19171087776E+03  0.56265222904E+03  0.59736526991E+03  0.00000000000E+00 0.  1.
<mgrwt>
<rscale>  3 0.23641644E+03</rscale>
<asrwt>0</asrwt>
<pdfrwt beam="1">  1       21 0.16633246E-01 0.23641644E+03</pdfrwt>
<pdfrwt beam="2">  1        4 0.11291799E+00 0.23641644E+03</pdfrwt>
<totfact> 0.87659785E+02</totfact>
</mgrwt>
</event>
<event>
 4    0  0.1302637E-001  0.2874977E+03  0.7546771E-02  0.1091663E+00
          1   -1    0    0  502    0 -0.00000000000E+00  0.00000000000E+00  0.24643543356E+03  0.24643543356E+03  0.00000000000E+00 0.  1.
         21   -1    0    0  501  502  0.00000000000E+00 -0.00000000000E+00 -0.33666416043E+03  0.33666416043E+03  0.00000000000E+00 0.  1.
         25    1    1    2    0    0 -0.61965471811E+02  0.25137658614E+03 -0.13949508591E+03  0.31955247887E+03  0.12500000000E+03 0.  0.
          1    1    1    2  501    0  0.61965471811E+02 -0.25137658614E+03  0.49266359047E+02  0.26354711512E+03  0.00000000000E+00 0.  1.
<mgrwt>
<rscale>  3 0.28749767E+03</rscale>
<asrwt>0</asrwt>
<pdfrwt beam="1">  1       21 0.51794486E-01 0.28749767E+03</pdfrwt>
<pdfrwt beam="2">  1        1 0.37913143E-01 0.28749767E+03</pdfrwt>
<totfact> 0.42270681E+03</totfact>
</mgrwt>
</event>
<event>
 4    0  0.1557359E-001  0.2995634E+03  0.7546771E-02  0.1085459E+00
         -4   -1    0    0    0  501 -0.00000000000E+00  0.00000000000E+00  0.27253800679E+04  0.27253800679E+04  0.00000000000E+00 0. -1.
         21   -1    0    0  501  502  0.00000000000E+00 -0.00000000000E+00 -0.44200905172E+02  0.44200905172E+02  0.00000000000E+00 0. -1.
         25    1    1    2    0    0  0.22735901595E+01  0.27222799082E+03  0.59952055697E+03  0.67019634916E+03  0.12500000000E+03 0.  0.
         -4    1    1    2    0  502 -0.22735901595E+01 -0.27222799082E+03  0.20816586057E+04  0.20993846239E+04  0.00000000000E+00 0. -1.
<mgrwt>
<rscale>  3 0.29956343E+03</rscale>
<asrwt>0</asrwt>
<pdfrwt beam="1">  1       21 0.68001414E-02 0.29956343E+03</pdfrwt>
<pdfrwt beam="2">  1       -4 0.41928911E+00 0.29956343E+03</pdfrwt>
<totfact> 0.41967800E+01</totfact>
</mgrwt>
</event>
<event>
 4    0  0.1433805E-001  0.2608413E+03  0.7546771E-02  0.1106639E+00
         21   -1    0    0  501  502  0.00000000000E+00  0.00000000000E+00  0.50881458061E+03  0.50881458061E+03  0.00000000000E+00 0. -1.
         -3   -1    0    0    0  501 -0.00000000000E+00 -0.00000000000E+00 -0.21516598048E+03  0.21516598048E+03  0.00000000000E+00 0. -1.
         25    1    1    2    0    0 -0.22091503171E+03 -0.60080951526E+02  0.39520744148E+03  0.47352623346E+03  0.12500000000E+03 0.  0.
         -3    1    1    2    0  502  0.22091503171E+03  0.60080951526E+02 -0.10155884136E+03  0.25045432763E+03  0.00000000000E+00 0. -1.
<mgrwt>
<rscale>  3 0.26084128E+03</rscale>
<asrwt>0</asrwt>
<pdfrwt beam="1">  1       21 0.78279166E-01 0.26084128E+03</pdfrwt>
<pdfrwt beam="2">  1       -3 0.33102459E-01 0.26084128E+03</pdfrwt>
<totfact> 0.62811768E+02</totfact>
</mgrwt>
</event>
<event>
 4    0  0.1266873E-001  0.2850206E+03  0.7546771E-02  0.1092978E+00
          2   -1    0    0  502    0 -0.00000000000E+00  0.00000000000E+00  0.36715418321E+03  0.36715418321E+03  0.00000000000E+00 0.  1.
         21   -1    0    0  501  502  0.00000000000E+00 -0.00000000000E+00 -0.22266089868E+03  0.22266089868E+03  0.00000000000E+00 0.  1.
         25    1    1    2    0    0 -0.23059346529E+03  0.11152751371E+03 -0.19468722433E+02  0.28568472781E+03  0.12500000000E+03 0.  0.
          2    1    1    2  501    0  0.23059346529E+03 -0.11152751371E+03  0.16396200696E+03  0.30413035409E+03  0.00000000000E+00 0.  1.
<mgrwt>
<rscale>  3 0.28502058E+03</rscale>
<asrwt>0</asrwt>
<pdfrwt beam="1">  1       21 0.34255523E-01 0.28502058E+03</pdfrwt>
<pdfrwt beam="2">  1        2 0.56485259E-01 0.28502058E+03</pdfrwt>
<totfact> 0.87907962E+03</totfact>
</mgrwt>
</event>
<event>
 4    0  0.1002184E-001  0.2701778E+03  0.7546771E-02  0.1101178E+00
         21   -1    0    0  501  502  0.00000000000E+00  0.00000000000E+00  0.35373373556E+03  0.35373373556E+03  0.00000000000E+00 0. -1.
          2   -1    0    0  502    0 -0.00000000000E+00 -0.00000000000E+00 -0.39580331302E+04  0.39580331302E+04  0.00000000000E+00 0. -1.
         25    1    1    2    0    0  0.21853732866E+03 -0.98043331897E+02  0.29793080290E+03  0.40219251891E+03  0.12500000000E+03 0.  0.
          2    1    1    2  501    0 -0.21853732866E+03  0.98043331897E+02 -0.39022301975E+04  0.39095743468E+04  0.00000000000E+00 0. -1.
<mgrwt>
<rscale>  3 0.27017783E+03</rscale>
<asrwt>0</asrwt>
<pdfrwt beam="1">  1       21 0.54420576E-01 0.27017783E+03</pdfrwt>
<pdfrwt beam="2">  1        2 0.60892816E+00 0.27017783E+03</pdfrwt>
<totfact> 0.18840324E+01</totfact>
</mgrwt>
</event>
<event>
 4    0  0.1681457E-001  0.2458412E+03  0.7546771E-02  0.1115962E+00
         21   -1    0    0  501  502  0.00000000000E+00  0.00000000000E+00  0.16841610845E+03  0.16841610845E+03  0.00000000000E+00 0. -1.
         -3   -1    0    0    0  501 -0.00000000000E+00 -0.00000000000E+00 -0.31283295080E+03  0.31283295080E+03  0.00000000000E+00 0. -1.
         25    1    1    2    0    0  0.20214186224E+03  0.62861332529E+02 -0.57940235874E+02  0.25257662308E+03  0.12500000000E+03 0.  0.
         -3    1    1    2    0  502 -0.20214186224E+03 -0.62861332529E+02 -0.86476606474E+02  0.22867243617E+03  0.00000000000E+00 0. -1.
<mgrwt>
<rscale>  3 0.24584117E+03</rscale>
<asrwt>0</asrwt>
<pdfrwt beam="1">  1       21 0.25910171E-01 0.24584117E+03</pdfrwt>
<pdfrwt beam="2">  1       -3 0.48128145E-01 0.24584117E+03</pdfrwt>
<totfact> 0.30131488E+03</totfact>
</mgrwt>
</event>
<event>
 4    0  0.1583113E-001  0.3255373E+03  0.7546771E-02  0.1073129E+00
         21   -1    0    0  501  502  0.00000000000E+00  0.00000000000E+00  0.12166385932E+03  0.12166385932E+03  0.00000000000E+00 0. -1.
          1   -1    0    0  502    0 -0.00000000000E+00 -0.00000000000E+00 -0.81435860028E+03  0.81435860028E+03  0.00000000000E+00 0. -1.
         25    1    1    2    0    0 -0.65945451653E+02 -0.29325877074E+03 -0.31136607555E+03  0.45047013465E+03  0.12500000000E+03 0.  0.
          1    1    1    2  501    0  0.65945451653E+02  0.29325877074E+03 -0.38132866541E+03  0.48555232495E+03  0.00000000000E+00 0. -1.
<mgrwt>
<rscale>  3 0.32553726E+03</rscale>
<asrwt>0</asrwt>
<pdfrwt beam="1">  1       21 0.18717518E-01 0.32553726E+03</pdfrwt>
<pdfrwt beam="2">  1        1 0.12528593E+00 0.32553726E+03</pdfrwt>
<totfact> 0.63204423E+03</totfact>
</mgrwt>
</event>
<event>
 4    0  0.1393002E-001  0.3699069E+03  0.7546771E-02  0.1054729E+00
         21   -1    0    0  501  502  0.00000000000E+00  0.00000000000E+00  0.18046797929E+03  0.18046797929E+03  0.00000000000E+00 0.  1.
          2   -1    0    0  502    0 -0.00000000000E+00 -0.00000000000E+00 -0.11514514070E+04  0.11514514070E+04  0.00000000000E+00 0.  1.
         25    1    1    2    0    0  0.46044262237E+02  0.34508845766E+03 -0.84376666170E+02  0.37940814368E+03  0.12500000000E+03 0.  0.
          2    1    1    2  501    0 -0.46044262237E+02 -0.34508845766E+03 -0.88660676155E+03  0.95251124262E+03  0.00000000000E+00 0.  1.
<mgrwt>
<rscale>  3 0.36990690E+03</rscale>
<asrwt>0</asrwt>
<pdfrwt beam="1">  1       21 0.27764305E-01 0.36990690E+03</pdfrwt>
<pdfrwt beam="2">  1        2 0.17714636E+00 0.36990690E+03</pdfrwt>
<totfact> 0.31723450E+03</totfact>
</mgrwt>
</event>
<event>
 4    0  0.1453530E-001  0.2591342E+03  0.7546771E-02  0.1107665E+00
         21   -1    0    0  501  502  0.00000000000E+00  0.00000000000E+00  0.13279667704E+03  0.13279667704E+03  0.00000000000E+00 0.  1.
          4   -1    0    0  502    0 -0.00000000000E+00 -0.00000000000E+00 -0.45466462254E+03  0.45466462254E+03  0.00000000000E+00 0.  1.
         25    1    1    2    0    0 -0.21879161373E+03  0.60462843295E+02 -0.21432423292E+03  0.33628173080E+03  0.12500000000E+03 0.  0.
          4    1    1    2  501    0  0.21879161373E+03 -0.60462843295E+02 -0.10754371257E+03  0.25117956877E+03  0.00000000000E+00 0.  1.
<mgrwt>
<rscale>  3 0.25913418E+03</rscale>
<asrwt>0</asrwt>
<pdfrwt beam="1">  1       21 0.20430258E-01 0.25913418E+03</pdfrwt>
<pdfrwt beam="2">  1        4 0.69948402E-01 0.25913418E+03</pdfrwt>
<totfact> 0.17892849E+03</totfact>
</mgrwt>
</event>
<event>
 4    0  0.1239500E-001  0.2597464E+03  0.7546771E-02  0.1107296E+00
          2   -1    0    0  502    0 -0.00000000000E+00  0.00000000000E+00  0.78107367648E+03  0.78107367648E+03  0.00000000000E+00 0.  1.
         21   -1    0    0  501  502  0.00000000000E+00 -0.00000000000E+00 -0.19079206670E+03  0.19079206670E+03  0.00000000000E+00 0. -1.
         25    1    1    2    0    0  0.22618729793E+03 -0.26125018524E+02 -0.73642132339E+02  0.26998402544E+03  0.12500000000E+03 0.  0.
          2    1    1    2  501    0 -0.22618729793E+03  0.26125018524E+02  0.66392374212E+03  0.70188171773E+03  0.00000000000E+00 0.  1.
<mgrwt>
<rscale>  3 0.25974643E+03</rscale>
<asrwt>0</asrwt>
<pdfrwt beam="1">  1       21 0.29352626E-01 0.25974643E+03</pdfrwt>
<pdfrwt beam="2">  1        2 0.12016518E+00 0.25974643E+03</pdfrwt>
<totfact> 0.50300864E+03</totfact>
</mgrwt>
</event>
<event>
 4    0  0.1002184E-001  0.2659387E+03  0.7546771E-02  0.1103627E+00
          1   -1    0    0  502    0 -0.00000000000E+00  0.00000000000E+00  0.16372027015E+04  0.16372027015E+04  0.00000000000E+00 0.  1.
         21   -1    0    0  501  502  0.00000000000E+00 -0.00000000000E+00 -0.41689579984E+02  0.41689579984E+02  0.00000000000E+00 0. -1.
         25    1    1    2    0    0  0.15679523699E+03  0.17468148537E+03  0.60367431951E+03  0.65965601014E+03  0.12500000000E+03 0.  0.
          1    1    1    2  501    0 -0.15679523699E+03 -0.17468148537E+03  0.99183880200E+03  0.10192362713E+04  0.00000000000E+00 0.  1.
<mgrwt>
<rscale>  3 0.26593865E+03</rscale>
<asrwt>0</asrwt>
<pdfrwt beam="1">  1       21 0.64137828E-02 0.26593865E+03</pdfrwt>
<pdfrwt beam="2">  1        1 0.25187729E+00 0.26593865E+03</pdfrwt>
<totfact> 0.11377875E+04</totfact>
</mgrwt>
</event>
<event>
 4    0  0.1324031E-001  0.2387512E+03  0.7546771E-02  0.1120628E+00
          2   -1    0    0  502    0 -0.00000000000E+00  0.00000000000E+00  0.14964895910E+04  0.14964895910E+04  0.00000000000E+00 0.  1.
         21   -1    0    0  501  502  0.00000000000E+00 -0.00000000000E+00 -0.84398912595E+02  0.84398912595E+02  0.00000000000E+00 0.  1.
         25    1    1    2    0    0  0.44815953312E+02  0.19841534253E+03  0.10976828615E+03  0.26277593966E+03  0.12500000000E+03 0.  0.
          2    1    1    2  501    0 -0.44815953312E+02 -0.19841534253E+03  0.13023223923E+04  0.13181125639E+04  0.00000000000E+00 0.  1.
<mgrwt>
<rscale>  3 0.23875116E+03</rscale>
<asrwt>0</asrwt>
<pdfrwt beam="1">  1       21 0.12984449E-01 0.23875116E+03</pdfrwt>
<pdfrwt beam="2">  1        2 0.23022915E+00 0.23875116E+03</pdfrwt>
<totfact> 0.88311374E+03</totfact>
</mgrwt>
</event>
<event>
 4    0  0.1002184E-001  0.2605173E+03  0.7546771E-02  0.1106833E+00
         21   -1    0    0  501  502  0.00000000000E+00  0.00000000000E+00  0.34982166053E+02  0.34982166053E+02  0.00000000000E+00 0. -1.
          2   -1    0    0  502    0 -0.00000000000E+00 -0.00000000000E+00 -0.17390278193E+04  0.17390278193E+04  0.00000000000E+00 0.  1.
         25    1    1    2    0    0 -0.22559976779E+03 -0.36728584750E+02 -0.79136907429E+03  0.83314719942E+03  0.12500000000E+03 0.  0.
          2    1    1    2  501    0  0.22559976779E+03  0.36728584750E+02 -0.91267657892E+03  0.94086278589E+03  0.00000000000E+00 0.  1.
<mgrwt>
<rscale>  3 0.26051726E+03</rscale>
<asrwt>0</asrwt>
<pdfrwt beam="1">  1       21 0.53818702E-02 0.26051726E+03</pdfrwt>
<pdfrwt beam="2">  1        2 0.26754282E+00 0.26051726E+03</pdfrwt>
<totfact> 0.30724596E+04</totfact>
</mgrwt>
</event>
<event>
 4    0  0.1002184E-001  0.3050037E+03  0.7546771E-02  0.1082766E+00
         21   -1    0    0  501  502  0.00000000000E+00  0.00000000000E+00  0.10937407112E+03  0.10937407112E+03  0.00000000000E+00 0. -1.
          1   -1    0    0  502    0 -0.00000000000E+00 -0.00000000000E+00 -0.78629183786E+03  0.78629183786E+03  0.00000000000E+00 0.  1.
         25    1    1    2    0    0  0.27820555909E+03  0.19838107993E+01 -0.30645280268E+03  0.43236626705E+03  0.12500000000E+03 0.  0.
          1    1    1    2  501    0 -0.27820555909E+03 -0.19838107993E+01 -0.37046496406E+03  0.46329964193E+03  0.00000000000E+00 0.  1.
<mgrwt>
<rscale>  3 0.30500372E+03</rscale>
<asrwt>0</asrwt>
<pdfrwt beam="1">  1       21 0.16826780E-01 0.30500372E+03</pdfrwt>
<pdfrwt beam="2">  1        1 0.12096798E+00 0.30500372E+03</pdfrwt>
<totfact> 0.81768541E+03</totfact>
</mgrwt>
</event>
<event>
 4    0  0.1309128E-001  0.3406624E+03  0.7546771E-02  0.1066514E+00
          2   -1    0    0  502    0 -0.00000000000E+00  0.00000000000E+00  0.11208471067E+04  0.11208471067E+04  0.00000000000E+00 0. -1.
         21   -1    0    0  501  502  0.00000000000E+00 -0.00000000000E+00 -0.16339011147E+03  0.16339011147E+03  0.00000000000E+00 0.  1.
         25    1    1    2    0    0 -0.29565761549E+03 -0.11407211597E+03  0.78071332366E+02  0.34949392867E+03  0.12500000000E+03 0.  0.
          2    1    1    2  501    0  0.29565761549E+03  0.11407211597E+03  0.87938566286E+03  0.93474328951E+03  0.00000000000E+00 0. -1.
<mgrwt>
<rscale>  3 0.34066240E+03</rscale>
<asrwt>0</asrwt>
<pdfrwt beam="1">  1       21 0.25136941E-01 0.34066240E+03</pdfrwt>
<pdfrwt beam="2">  1        2 0.17243801E+00 0.34066240E+03</pdfrwt>
<totfact> 0.40424937E+03</totfact>
</mgrwt>
</event>
<event>
 4    0  0.1404867E-001  0.3107982E+03  0.7546771E-02  0.1079964E+00
          2   -1    0    0  502    0 -0.00000000000E+00  0.00000000000E+00  0.11879340338E+04  0.11879340338E+04  0.00000000000E+00 0.  1.
         21   -1    0    0  501  502  0.00000000000E+00 -0.00000000000E+00 -0.14160138264E+03  0.14160138264E+03  0.00000000000E+00 0. -1.
         25    1    1    2    0    0  0.14161971673E+03 -0.24680840312E+03  0.78247830121E+02  0.32049688756E+03  0.12500000000E+03 0.  0.
          2    1    1    2  501    0 -0.14161971673E+03  0.24680840312E+03  0.96808482100E+03  0.10090385288E+04  0.00000000000E+00 0.  1.
<mgrwt>
<rscale>  3 0.31079822E+03</rscale>
<asrwt>0</asrwt>
<pdfrwt beam="1">  1       21 0.21784829E-01 0.31079822E+03</pdfrwt>
<pdfrwt beam="2">  1        2 0.18275908E+00 0.31079822E+03</pdfrwt>
<totfact> 0.49010256E+03</totfact>
</mgrwt>
</event>
<event>
 4    0  0.1277724E-001  0.3194902E+03  0.7546771E-02  0.1075884E+00
          1   -1    0    0  502    0 -0.00000000000E+00  0.00000000000E+00  0.17163803547E+04  0.17163803547E+04  0.00000000000E+00 0. -1.
         21   -1    0    0  501  502  0.00000000000E+00 -0.00000000000E+00 -0.98123302945E+02  0.98123302945E+02  0.00000000000E+00 0.  1.
         25    1    1    2    0    0  0.13380096839E+03 -0.26181344525E+03  0.22551389254E+03  0.39106328770E+03  0.12500000000E+03 0.  0.
          1    1    1    2  501    0 -0.13380096839E+03  0.26181344525E+03  0.13927431592E+04  0.14234403700E+04  0.00000000000E+00 0. -1.
<mgrwt>
<rscale>  3 0.31949019E+03</rscale>
<asrwt>0</asrwt>
<pdfrwt beam="1">  1       21 0.15095894E-01 0.31949019E+03</pdfrwt>
<pdfrwt beam="2">  1        1 0.26405849E+00 0.31949019E+03</pdfrwt>
<totfact> 0.21595771E+03</totfact>
</mgrwt>
</event>
<event>
 4    0  0.1436498E-001  0.2584831E+03  0.7546771E-02  0.1108058E+00
         21   -1    0    0  501  502  0.00000000000E+00  0.00000000000E+00  0.20044596664E+03  0.20044596664E+03  0.00000000000E+00 0.  1.
          1   -1    0    0  502    0 -0.00000000000E+00 -0.00000000000E+00 -0.18817838661E+04  0.18817838661E+04  0.00000000000E+00 0.  1.
         25    1    1    2    0    0 -0.13336913074E+03 -0.18275989066E+03  0.10691460656E+03  0.27972171128E+03  0.12500000000E+03 0.  0.
          1    1    1    2  501    0  0.13336913074E+03  0.18275989066E+03 -0.17882525060E+04  0.18025081214E+04  0.00000000000E+00 0.  1.
<mgrwt>
<rscale>  3 0.25848308E+03</rscale>
<asrwt>0</asrwt>
<pdfrwt beam="1">  1       21 0.30837841E-01 0.25848308E+03</pdfrwt>
<pdfrwt beam="2">  1        1 0.28950521E+00 0.25848308E+03</pdfrwt>
<totfact> 0.44499016E+02</totfact>
</mgrwt>
</event>
<event>
 4    0  0.1432600E-001  0.2607042E+03  0.7546771E-02  0.1106721E+00
         21   -1    0    0  501  502  0.00000000000E+00  0.00000000000E+00  0.15047596003E+03  0.15047596003E+03  0.00000000000E+00 0.  1.
          2   -1    0    0  502    0 -0.00000000000E+00 -0.00000000000E+00 -0.23790542582E+04  0.23790542582E+04  0.00000000000E+00 0. -1.
         25    1    1    2    0    0 -0.87187445857E+02 -0.21151834219E+03  0.27255215652E+02  0.26212498275E+03  0.12500000000E+03 0.  0.
          2    1    1    2  501    0  0.87187445857E+02  0.21151834219E+03 -0.22558335138E+04  0.22674052355E+04  0.00000000000E+00 0. -1.
<mgrwt>
<rscale>  3 0.26070416E+03</rscale>
<asrwt>0</asrwt>
<pdfrwt beam="1">  1       21 0.23150146E-01 0.26070416E+03</pdfrwt>
<pdfrwt beam="2">  1        2 0.36600837E+00 0.26070416E+03</pdfrwt>
<totfact> 0.10221777E+03</totfact>
</mgrwt>
</event>
<event>
 4    0  0.1164298E-001  0.3010428E+03  0.7546771E-02  0.1084721E+00
          2   -1    0    0  502    0 -0.00000000000E+00  0.00000000000E+00  0.26681916130E+03  0.26681916130E+03  0.00000000000E+00 0.  1.
         21   -1    0    0  501  502  0.00000000000E+00 -0.00000000000E+00 -0.69910820466E+03  0.69910820466E+03  0.00000000000E+00 0. -1.
         25    1    1    2    0    0 -0.26336314992E+03  0.75110563621E+02 -0.58094966264E+03  0.65431586869E+03  0.12500000000E+03 0.  0.
          2    1    1    2  501    0  0.26336314992E+03 -0.75110563621E+02  0.14866061928E+03  0.31161149727E+03  0.00000000000E+00 0.  1.
<mgrwt>
<rscale>  3 0.30104276E+03</rscale>
<asrwt>0</asrwt>
<pdfrwt beam="1">  1       21 0.10755511E+00 0.30104276E+03</pdfrwt>
<pdfrwt beam="2">  1        2 0.41049102E-01 0.30104276E+03</pdfrwt>
<totfact> 0.10120414E+03</totfact>
</mgrwt>
</event>
<event>
 4    0  0.1203760E-001  0.2503291E+03  0.7546771E-02  0.1113097E+00
         21   -1    0    0  501  502  0.00000000000E+00  0.00000000000E+00  0.11705373368E+03  0.11705373368E+03  0.00000000000E+00 0.  1.
          2   -1    0    0  502    0 -0.00000000000E+00 -0.00000000000E+00 -0.80545014982E+03  0.80545014982E+03  0.00000000000E+00 0. -1.
         25    1    1    2    0    0 -0.68432283636E+02 -0.20580743334E+03 -0.59561483072E+02  0.25731740580E+03  0.12500000000E+03 0.  0.
          2    1    1    2  501    0  0.68432283636E+02  0.20580743334E+03 -0.62883493307E+03  0.66518647770E+03  0.00000000000E+00 0. -1.
<mgrwt>
<rscale>  3 0.25032914E+03</rscale>
<asrwt>0</asrwt>
<pdfrwt beam="1">  1       21 0.18008267E-01 0.25032914E+03</pdfrwt>
<pdfrwt beam="2">  1        2 0.12391541E+00 0.25032914E+03</pdfrwt>
<totfact> 0.12308587E+04</totfact>
</mgrwt>
</event>
<event>
 4    0  0.1283417E-001  0.2543851E+03  0.7546771E-02  0.1110564E+00
          2   -1    0    0  502    0 -0.00000000000E+00  0.00000000000E+00  0.81500944283E+03  0.81500944283E+03  0.00000000000E+00 0. -1.
         21   -1    0    0  501  502  0.00000000000E+00 -0.00000000000E+00 -0.21558923561E+03  0.21558923561E+03  0.00000000000E+00 0.  1.
         25    1    1    2    0    0  0.22069462763E+03 -0.19510407556E+02 -0.11751007733E+03  0.28021490492E+03  0.12500000000E+03 0.  0.
          2    1    1    2  501    0 -0.22069462763E+03  0.19510407556E+02  0.71693028455E+03  0.75038377352E+03  0.00000000000E+00 0. -1.
<mgrwt>
<rscale>  3 0.25438509E+03</rscale>
<asrwt>0</asrwt>
<pdfrwt beam="1">  1       21 0.33167575E-01 0.25438509E+03</pdfrwt>
<pdfrwt beam="2">  1        2 0.12538607E+00 0.25438509E+03</pdfrwt>
<totfact> 0.37506684E+03</totfact>
</mgrwt>
</event>
<event>
 4    0  0.1002184E-001  0.4062895E+03  0.7546771E-02  0.1041623E+00
          1   -1    0    0  502    0 -0.00000000000E+00  0.00000000000E+00  0.12336306391E+04  0.12336306391E+04  0.00000000000E+00 0.  1.
         21   -1    0    0  501  502  0.00000000000E+00 -0.00000000000E+00 -0.16777923234E+03  0.16777923234E+03  0.00000000000E+00 0. -1.
         25    1    1    2    0    0  0.31205347483E+03  0.22818578982E+03  0.19930187341E+03  0.45253990164E+03  0.12500000000E+03 0.  0.
          1    1    1    2  501    0 -0.31205347483E+03 -0.22818578982E+03  0.86654953337E+03  0.94886996981E+03  0.00000000000E+00 0.  1.
<mgrwt>
<rscale>  3 0.40628946E+03</rscale>
<asrwt>0</asrwt>
<pdfrwt beam="1">  1       21 0.25812190E-01 0.40628946E+03</pdfrwt>
<pdfrwt beam="2">  1        1 0.18978932E+00 0.40628946E+03</pdfrwt>
<totfact> 0.16147278E+03</totfact>
</mgrwt>
</event>
<event>
 4    0  0.1430098E-001  0.2454819E+03  0.7546771E-02  0.1116194E+00
          1   -1    0    0  502    0 -0.00000000000E+00  0.00000000000E+00  0.95722642703E+03  0.95722642703E+03  0.00000000000E+00 0.  1.
         21   -1    0    0  501  502  0.00000000000E+00 -0.00000000000E+00 -0.16997891345E+03  0.16997891345E+03  0.00000000000E+00 0. -1.
         25    1    1    2    0    0  0.36945436580E+02  0.20801776295E+03 -0.61078762824E+02  0.25296634214E+03  0.12500000000E+03 0.  0.
          1    1    1    2  501    0 -0.36945436580E+02 -0.20801776295E+03  0.84832627640E+03  0.87423899834E+03  0.00000000000E+00 0.  1.
<mgrwt>
<rscale>  3 0.24548188E+03</rscale>
<asrwt>0</asrwt>
<pdfrwt beam="1">  1       21 0.26150602E-01 0.24548188E+03</pdfrwt>
<pdfrwt beam="2">  1        1 0.14726560E+00 0.24548188E+03</pdfrwt>
<totfact> 0.26310060E+03</totfact>
</mgrwt>
</event>
<event>
 4    0  0.1115210E-001  0.3745016E+03  0.7546771E-02  0.1052985E+00
         21   -1    0    0  501  502  0.00000000000E+00  0.00000000000E+00  0.64539841972E+02  0.64539841972E+02  0.00000000000E+00 0. -1.
          1   -1    0    0  502    0 -0.00000000000E+00 -0.00000000000E+00 -0.28267451582E+04  0.28267451582E+04  0.00000000000E+00 0. -1.
         25    1    1    2    0    0  0.34005040076E+03  0.94826910196E+02 -0.65323753851E+03  0.75297456775E+03  0.12500000000E+03 0.  0.
          1    1    1    2  501    0 -0.34005040076E+03 -0.94826910196E+02 -0.21089677777E+04  0.21383104324E+04  0.00000000000E+00 0. -1.
<mgrwt>
<rscale>  3 0.37450156E+03</rscale>
<asrwt>0</asrwt>
<pdfrwt beam="1">  1       21 0.99292065E-02 0.37450156E+03</pdfrwt>
<pdfrwt beam="2">  1        1 0.43488387E+00 0.37450156E+03</pdfrwt>
<totfact> 0.82882412E+02</totfact>
</mgrwt>
</event>
<event>
 4    0  0.1294499E-001  0.4940172E+03  0.7546771E-02  0.1015352E+00
         21   -1    0    0  501  502  0.00000000000E+00  0.00000000000E+00  0.42819464893E+03  0.42819464893E+03  0.00000000000E+00 0. -1.
         -1   -1    0    0    0  501 -0.00000000000E+00 -0.00000000000E+00 -0.55423604552E+03  0.55423604552E+03  0.00000000000E+00 0. -1.
         25    1    1    2    0    0  0.37030569032E+03  0.30216167613E+03 -0.98173680107E+02  0.50367753004E+03  0.12500000000E+03 0.  0.
         -1    1    1    2    0  502 -0.37030569032E+03 -0.30216167613E+03 -0.27867716482E+02  0.47875316440E+03  0.00000000000E+00 0. -1.
<mgrwt>
<rscale>  3 0.49401719E+03</rscale>
<asrwt>0</asrwt>
<pdfrwt beam="1">  1       21 0.65876100E-01 0.49401719E+03</pdfrwt>
<pdfrwt beam="2">  1       -1 0.85267084E-01 0.49401719E+03</pdfrwt>
<totfact> 0.25414459E+02</totfact>
</mgrwt>
</event>
<event>
 4    0  0.1334726E-001  0.2418885E+03  0.7546771E-02  0.1118541E+00
          2   -1    0    0  502    0 -0.00000000000E+00  0.00000000000E+00  0.63708606064E+03  0.63708606064E+03  0.00000000000E+00 0. -1.
         21   -1    0    0  501  502  0.00000000000E+00 -0.00000000000E+00 -0.95570245868E+02  0.95570245868E+02  0.00000000000E+00 0. -1.
         25    1    1    2    0    0 -0.10727107662E+02 -0.20680900599E+03  0.13644091212E+03  0.27771596695E+03  0.12500000000E+03 0.  0.
          2    1    1    2  501    0  0.10727107662E+02  0.20680900599E+03  0.40507490265E+03  0.45494033956E+03  0.00000000000E+00 0. -1.
<mgrwt>
<rscale>  3 0.24188848E+03</rscale>
<asrwt>0</asrwt>
<pdfrwt beam="1">  1       21 0.14703115E-01 0.24188848E+03</pdfrwt>
<pdfrwt beam="2">  1        2 0.98013237E-01 0.24188848E+03</pdfrwt>
<totfact> 0.23883933E+04</totfact>
</mgrwt>
</event>
<event>
 4    0  0.1002184E-001  0.2650531E+03  0.7546771E-02  0.1104145E+00
         21   -1    0    0  501  502  0.00000000000E+00  0.00000000000E+00  0.69823135409E+03  0.69823135409E+03  0.00000000000E+00 0.  1.
         -3   -1    0    0    0  501 -0.00000000000E+00 -0.00000000000E+00 -0.17671346059E+03  0.17671346059E+03  0.00000000000E+00 0. -1.
         25    1    1    2    0    0  0.21877028816E+02 -0.23270056572E+03  0.57678664378E+03  0.63477239237E+03  0.12500000000E+03 0.  0.
         -3    1    1    2    0  502 -0.21877028816E+02  0.23270056572E+03 -0.55268750278E+02  0.24017242230E+03  0.00000000000E+00 0. -1.
<mgrwt>
<rscale>  3 0.26505312E+03</rscale>
<asrwt>0</asrwt>
<pdfrwt beam="1">  1       21 0.10742021E+00 0.26505312E+03</pdfrwt>
<pdfrwt beam="2">  1       -3 0.27186687E-01 0.26505312E+03</pdfrwt>
<totfact> 0.43184345E+02</totfact>
</mgrwt>
</event>
<event>
 4    0  0.1628028E-001  0.2412131E+03  0.7546771E-02  0.1118987E+00
         21   -1    0    0  501  502  0.00000000000E+00  0.00000000000E+00  0.30492194032E+02  0.30492194032E+02  0.00000000000E+00 0.  1.
          2   -1    0    0  502    0 -0.00000000000E+00 -0.00000000000E+00 -0.16459512553E+04  0.16459512553E+04  0.00000000000E+00 0.  1.
         25    1    1    2    0    0 -0.21525412674E+02 -0.20517166910E+03 -0.82936454525E+03  0.86372988029E+03  0.12500000000E+03 0.  0.
          2    1    1    2  501    0  0.21525412674E+02  0.20517166910E+03 -0.78609451606E+03  0.81271356909E+03  0.00000000000E+00 0.  1.
<mgrwt>
<rscale>  3 0.24121309E+03</rscale>
<asrwt>0</asrwt>
<pdfrwt beam="1">  1       21 0.46911061E-02 0.24121309E+03</pdfrwt>
<pdfrwt beam="2">  1        2 0.25322331E+00 0.24121309E+03</pdfrwt>
<totfact> 0.43642297E+04</totfact>
</mgrwt>
</event>
<event>
 4    0  0.1416525E-001  0.2545624E+03  0.7546771E-02  0.1110455E+00
         21   -1    0    0  501  502  0.00000000000E+00  0.00000000000E+00  0.12398200783E+03  0.12398200783E+03  0.00000000000E+00 0.  1.
          2   -1    0    0  502    0 -0.00000000000E+00 -0.00000000000E+00 -0.14092645230E+04  0.14092645230E+04  0.00000000000E+00 0.  1.
         25    1    1    2    0    0 -0.12864983348E+03 -0.18062731282E+03 -0.27475991748E+02  0.25604088719E+03  0.12500000000E+03 0.  0.
          2    1    1    2  501    0  0.12864983348E+03  0.18062731282E+03 -0.12578065234E+04  0.12772056437E+04  0.00000000000E+00 0.  1.
<mgrwt>
<rscale>  3 0.25456238E+03</rscale>
<asrwt>0</asrwt>
<pdfrwt beam="1">  1       21 0.19074153E-01 0.25456238E+03</pdfrwt>
<pdfrwt beam="2">  1        2 0.21680995E+00 0.25456238E+03</pdfrwt>
<totfact> 0.48244148E+03</totfact>
</mgrwt>
</event>
<event>
 4    0  0.1578892E-001  0.2540976E+03  0.7546771E-02  0.1110742E+00
         21   -1    0    0  501  502  0.00000000000E+00  0.00000000000E+00  0.22696986776E+03  0.22696986776E+03  0.00000000000E+00 0.  1.
          2   -1    0    0  502    0 -0.00000000000E+00 -0.00000000000E+00 -0.12986519996E+04  0.12986519996E+04  0.00000000000E+00 0.  1.
         25    1    1    2    0    0 -0.19377305486E+03  0.10673621086E+03  0.14258334879E+03  0.29136854129E+03  0.12500000000E+03 0.  0.
          2    1    1    2  501    0  0.19377305486E+03 -0.10673621086E+03 -0.12142654806E+04  0.12342533261E+04  0.00000000000E+00 0.  1.
<mgrwt>
<rscale>  3 0.25409765E+03</rscale>
<asrwt>0</asrwt>
<pdfrwt beam="1">  1       21 0.34918441E-01 0.25409765E+03</pdfrwt>
<pdfrwt beam="2">  1        2 0.19979262E+00 0.25409765E+03</pdfrwt>
<totfact> 0.17261344E+03</totfact>
</mgrwt>
</event>
<event>
 4    0  0.1554527E-001  0.2579683E+03  0.7546771E-02  0.1108370E+00
          3   -1    0    0  502    0 -0.00000000000E+00  0.00000000000E+00  0.90134883346E+03  0.90134883346E+03  0.00000000000E+00 0. -1.
         21   -1    0    0  501  502  0.00000000000E+00 -0.00000000000E+00 -0.87637535690E+02  0.87637535690E+02  0.00000000000E+00 0. -1.
         25    1    1    2    0    0 -0.15688123659E+03  0.16220641516E+03  0.17537227676E+03  0.31193441453E+03  0.12500000000E+03 0.  0.
          3    1    1    2  501    0  0.15688123659E+03 -0.16220641516E+03  0.63833902101E+03  0.67705195462E+03  0.00000000000E+00 0. -1.
<mgrwt>
<rscale>  3 0.25796830E+03</rscale>
<asrwt>0</asrwt>
<pdfrwt beam="1">  1       21 0.13482698E-01 0.25796830E+03</pdfrwt>
<pdfrwt beam="2">  1        3 0.13866904E+00 0.25796830E+03</pdfrwt>
<totfact> 0.97870561E+02</totfact>
</mgrwt>
</event>
<event>
 4    0  0.1480637E-001  0.3133552E+03  0.7546771E-02  0.1078749E+00
         21   -1    0    0  501  502  0.00000000000E+00  0.00000000000E+00  0.35653979165E+03  0.35653979165E+03  0.00000000000E+00 0. -1.
          1   -1    0    0  502    0 -0.00000000000E+00 -0.00000000000E+00 -0.51829875316E+03  0.51829875316E+03  0.00000000000E+00 0. -1.
         25    1    1    2    0    0 -0.28688843289E+03  0.16171329451E+02  0.23020923052E+03  0.38882872147E+03  0.12500000000E+03 0.  0.
          1    1    1    2  501    0  0.28688843289E+03 -0.16171329451E+02 -0.39196819203E+03  0.48600982334E+03  0.00000000000E+00 0. -1.
<mgrwt>
<rscale>  3 0.31335521E+03</rscale>
<asrwt>0</asrwt>
<pdfrwt beam="1">  1       21 0.54852276E-01 0.31335521E+03</pdfrwt>
<pdfrwt beam="2">  1        1 0.79738270E-01 0.31335521E+03</pdfrwt>
<totfact> 0.14255487E+03</totfact>
</mgrwt>
</event>
<event>
 4    0  0.1507511E-001  0.3233053E+03  0.7546771E-02  0.1074138E+00
         21   -1    0    0  501  502  0.00000000000E+00  0.00000000000E+00  0.10640302336E+03  0.10640302336E+03  0.00000000000E+00 0. -1.
          2   -1    0    0  502    0 -0.00000000000E+00 -0.00000000000E+00 -0.11928793882E+04  0.11928793882E+04  0.00000000000E+00 0. -1.
         25    1    1    2    0    0 -0.29773380946E+03 -0.15997025498E+02 -0.24237801714E+03  0.40407106963E+03  0.12500000000E+03 0.  0.
          2    1    1    2  501    0  0.29773380946E+03  0.15997025498E+02 -0.84409834765E+03  0.89521134188E+03  0.00000000000E+00 0. -1.
<mgrwt>
<rscale>  3 0.32330531E+03</rscale>
<asrwt>0</asrwt>
<pdfrwt beam="1">  1       21 0.16369696E-01 0.32330531E+03</pdfrwt>
<pdfrwt beam="2">  1        2 0.18351991E+00 0.32330531E+03</pdfrwt>
<totfact> 0.83048543E+03</totfact>
</mgrwt>
</event>
<event>
 4    0  0.1002184E-001  0.3955984E+03  0.7546771E-02  0.1045315E+00
         21   -1    0    0  501  502  0.00000000000E+00  0.00000000000E+00  0.84623181772E+02  0.84623181772E+02  0.00000000000E+00 0.  1.
          2   -1    0    0  502    0 -0.00000000000E+00 -0.00000000000E+00 -0.18228918167E+04  0.18228918167E+04  0.00000000000E+00 0. -1.
         25    1    1    2    0    0  0.36803430754E+03 -0.73646818310E+02 -0.70825342910E+03  0.81124658717E+03  0.12500000000E+03 0.  0.
          2    1    1    2  501    0 -0.36803430754E+03  0.73646818310E+02 -0.10300152059E+04  0.10962684113E+04  0.00000000000E+00 0. -1.
<mgrwt>
<rscale>  3 0.39559841E+03</rscale>
<asrwt>0</asrwt>
<pdfrwt beam="1">  1       21 0.13018951E-01 0.39559841E+03</pdfrwt>
<pdfrwt beam="2">  1        2 0.28044489E+00 0.39559841E+03</pdfrwt>
<totfact> 0.56418326E+03</totfact>
</mgrwt>
</event>
<event>
 4    0  0.1163416E-001  0.4418125E+03  0.7546771E-02  0.1030192E+00
         21   -1    0    0  501  502  0.00000000000E+00  0.00000000000E+00  0.78952408817E+02  0.78952408817E+02  0.00000000000E+00 0. -1.
          2   -1    0    0  502    0 -0.00000000000E+00 -0.00000000000E+00 -0.23812778598E+04  0.23812778598E+04  0.00000000000E+00 0. -1.
         25    1    1    2    0    0  0.24053695510E+03  0.34887718491E+03 -0.12502991546E+04  0.13260642114E+04  0.12500000000E+03 0.  0.
          2    1    1    2  501    0 -0.24053695510E+03 -0.34887718491E+03 -0.10520262964E+04  0.11341660571E+04  0.00000000000E+00 0. -1.
<mgrwt>
<rscale>  3 0.44181254E+03</rscale>
<asrwt>0</asrwt>
<pdfrwt beam="1">  1       21 0.12146526E-01 0.44181254E+03</pdfrwt>
<pdfrwt beam="2">  1        2 0.36635039E+00 0.44181254E+03</pdfrwt>
<totfact> 0.31664865E+03</totfact>
</mgrwt>
</event>
<event>
 4    0  0.1624907E-001  0.3973955E+03  0.7546771E-02  0.1044685E+00
         -1   -1    0    0    0  501 -0.00000000000E+00  0.00000000000E+00  0.52865687665E+03  0.52865687665E+03  0.00000000000E+00 0. -1.
         21   -1    0    0  501  502  0.00000000000E+00 -0.00000000000E+00 -0.31410344069E+03  0.31410344069E+03  0.00000000000E+00 0. -1.
         25    1    1    2    0    0 -0.18022830285E+03 -0.33138492121E+03 -0.21140031065E+02  0.39795741992E+03  0.12500000000E+03 0.  0.
         -1    1    1    2    0  502  0.18022830285E+03  0.33138492121E+03  0.23569346703E+03  0.44480289742E+03  0.00000000000E+00 0. -1.
<mgrwt>
<rscale>  3 0.39739553E+03</rscale>
<asrwt>0</asrwt>
<pdfrwt beam="1">  1       21 0.48323606E-01 0.39739553E+03</pdfrwt>
<pdfrwt beam="2">  1       -1 0.81331827E-01 0.39739553E+03</pdfrwt>
<totfact> 0.56269080E+02</totfact>
</mgrwt>
</event>
<event>
 4    0  0.1002184E-001  0.2644348E+03  0.7546771E-02  0.1104508E+00
         21   -1    0    0  501  502  0.00000000000E+00  0.00000000000E+00  0.11212220536E+04  0.11212220536E+04  0.00000000000E+00 0.  1.
          4   -1    0    0  502    0 -0.00000000000E+00 -0.00000000000E+00 -0.11685603010E+03  0.11685603010E+03  0.00000000000E+00 0.  1.
         25    1    1    2    0    0  0.23277969309E+03 -0.10694889203E+02  0.96646810081E+03  0.10019911956E+04  0.12500000000E+03 0.  0.
          4    1    1    2  501    0 -0.23277969309E+03  0.10694889203E+02  0.37897922649E+02  0.23608688805E+03  0.00000000000E+00 0.  1.
<mgrwt>
<rscale>  3 0.26443481E+03</rscale>
<asrwt>0</asrwt>
<pdfrwt beam="1">  1       21 0.17249569E+00 0.26443481E+03</pdfrwt>
<pdfrwt beam="2">  1        4 0.17977852E-01 0.26443481E+03</pdfrwt>
<totfact> 0.23079675E+02</totfact>
</mgrwt>
</event>
<event>
 4    0  0.1002184E-001  0.4336278E+03  0.7546771E-02  0.1032720E+00
         21   -1    0    0  501  502  0.00000000000E+00  0.00000000000E+00  0.16387330630E+04  0.16387330630E+04  0.00000000000E+00 0. -1.
          2   -1    0    0  502    0 -0.00000000000E+00 -0.00000000000E+00 -0.67540074092E+03  0.67540074092E+03  0.00000000000E+00 0. -1.
         25    1    1    2    0    0  0.13439100836E+03  0.39287034036E+03  0.15420553960E+04  0.16018638805E+04  0.12500000000E+03 0.  0.
          2    1    1    2  501    0 -0.13439100836E+03 -0.39287034036E+03 -0.57872307391E+03  0.71226992338E+03  0.00000000000E+00 0. -1.
<mgrwt>
<rscale>  3 0.43362778E+03</rscale>
<asrwt>0</asrwt>
<pdfrwt beam="1">  1       21 0.25211278E+00 0.43362778E+03</pdfrwt>
<pdfrwt beam="2">  1        2 0.10390781E+00 0.43362778E+03</pdfrwt>
<totfact> 0.29493734E+01</totfact>
</mgrwt>
</event>
<event>
 4    0  0.1033959E-001  0.3009598E+03  0.7546771E-02  0.1084762E+00
          1   -1    0    0  502    0 -0.00000000000E+00  0.00000000000E+00  0.14253853576E+03  0.14253853576E+03  0.00000000000E+00 0.  1.
         21   -1    0    0  501  502  0.00000000000E+00 -0.00000000000E+00 -0.74986421683E+03  0.74986421683E+03  0.00000000000E+00 0.  1.
         25    1    1    2    0    0  0.25367597128E+03 -0.10295764611E+03 -0.52735217677E+03  0.60718785697E+03  0.12500000000E+03 0.  0.
          1    1    1    2  501    0 -0.25367597128E+03  0.10295764611E+03 -0.79973504290E+02  0.28521489563E+03  0.00000000000E+00 0.  1.
<mgrwt>
<rscale>  3 0.30095976E+03</rscale>
<asrwt>0</asrwt>
<pdfrwt beam="1">  1       21 0.11536373E+00 0.30095976E+03</pdfrwt>
<pdfrwt beam="2">  1        1 0.21929005E-01 0.30095976E+03</pdfrwt>
<totfact> 0.13625262E+03</totfact>
</mgrwt>
</event>
<event>
 4    0  0.1425725E-001  0.3278154E+03  0.7546771E-02  0.1072108E+00
          1   -1    0    0  502    0 -0.00000000000E+00  0.00000000000E+00  0.16626748061E+04  0.16626748061E+04  0.00000000000E+00 0. -1.
         21   -1    0    0  501  502  0.00000000000E+00 -0.00000000000E+00 -0.77148994922E+02  0.77148994922E+02  0.00000000000E+00 0. -1.
         25    1    1    2    0    0  0.32420205745E+02 -0.30130859882E+03  0.40512329558E+03  0.52114088890E+03  0.12500000000E+03 0.  0.
          1    1    1    2  501    0 -0.32420205745E+02  0.30130859882E+03  0.11804025156E+04  0.12186829121E+04  0.00000000000E+00 0. -1.
<mgrwt>
<rscale>  3 0.32781541E+03</rscale>
<asrwt>0</asrwt>
<pdfrwt beam="1">  1       21 0.11869077E-01 0.32781541E+03</pdfrwt>
<pdfrwt beam="2">  1        1 0.25579610E+00 0.32781541E+03</pdfrwt>
<totfact> 0.36242682E+03</totfact>
</mgrwt>
</event>
<event>
 4    0  0.1164315E-001  0.2720385E+03  0.7546771E-02  0.1100119E+00
          1   -1    0    0  502    0 -0.00000000000E+00  0.00000000000E+00  0.65136167481E+03  0.65136167481E+03  0.00000000000E+00 0.  1.
         21   -1    0    0  501  502  0.00000000000E+00 -0.00000000000E+00 -0.17375471660E+03  0.17375471660E+03  0.00000000000E+00 0. -1.
         25    1    1    2    0    0 -0.23919991940E+03  0.34107735159E+02 -0.19153312777E+02  0.27271191472E+03  0.12500000000E+03 0.  0.
          1    1    1    2  501    0  0.23919991940E+03 -0.34107735159E+02  0.49676027098E+03  0.55240447669E+03  0.00000000000E+00 0.  1.
<mgrwt>
<rscale>  3 0.27203849E+03</rscale>
<asrwt>0</asrwt>
<pdfrwt beam="1">  1       21 0.26731495E-01 0.27203849E+03</pdfrwt>
<pdfrwt beam="2">  1        1 0.10020949E+00 0.27203849E+03</pdfrwt>
<totfact> 0.45263778E+03</totfact>
</mgrwt>
</event>
<event>
 4    0  0.1036739E-001  0.4834369E+03  0.7546771E-02  0.1018195E+00
         21   -1    0    0  501  502  0.00000000000E+00  0.00000000000E+00  0.45438190531E+03  0.45438190531E+03  0.00000000000E+00 0. -1.
          1   -1    0    0  502    0 -0.00000000000E+00 -0.00000000000E+00 -0.62689829269E+03  0.62689829269E+03  0.00000000000E+00 0. -1.
         25    1    1    2    0    0  0.33580393843E+03  0.32453341193E+03 -0.33350481000E+03  0.58731310118E+03  0.12500000000E+03 0.  0.
          1    1    1    2  501    0 -0.33580393843E+03 -0.32453341193E+03  0.16098842262E+03  0.49396709682E+03  0.00000000000E+00 0. -1.
<mgrwt>
<rscale>  3 0.48343688E+03</rscale>
<asrwt>0</asrwt>
<pdfrwt beam="1">  1       21 0.69904908E-01 0.48343688E+03</pdfrwt>
<pdfrwt beam="2">  1        1 0.96445891E-01 0.48343688E+03</pdfrwt>
<totfact> 0.61382316E+02</totfact>
</mgrwt>
</event>
<event>
 4    0  0.1006968E-001  0.3647974E+03  0.7546771E-02  0.1056700E+00
         21   -1    0    0  501  502  0.00000000000E+00  0.00000000000E+00  0.11761354956E+03  0.11761354956E+03  0.00000000000E+00 0.  1.
          1   -1    0    0  502    0 -0.00000000000E+00 -0.00000000000E+00 -0.31977756009E+04  0.31977756009E+04  0.00000000000E+00 0.  1.
         25    1    1    2    0    0 -0.52971212399E+02 -0.33859448398E+03 -0.20218828970E+03  0.41708186057E+03  0.12500000000E+03 0.  0.
          1    1    1    2  501    0  0.52971212399E+02  0.33859448398E+03 -0.28779737617E+04  0.28983072899E+04  0.00000000000E+00 0.  1.
<mgrwt>
<rscale>  3 0.36479744E+03</rscale>
<asrwt>0</asrwt>
<pdfrwt beam="1">  1       21 0.18094395E-01 0.36479744E+03</pdfrwt>
<pdfrwt beam="2">  1        1 0.49196541E+00 0.36479744E+03</pdfrwt>
<totfact> 0.15150060E+02</totfact>
</mgrwt>
</event>
<event>
 4    0  0.1429338E-001  0.2957649E+03  0.7546771E-02  0.1087377E+00
          2   -1    0    0  502    0 -0.00000000000E+00  0.00000000000E+00  0.59525363049E+03  0.59525363049E+03  0.00000000000E+00 0. -1.
         21   -1    0    0  501  502  0.00000000000E+00 -0.00000000000E+00 -0.23899783171E+03  0.23899783171E+03  0.00000000000E+00 0. -1.
         25    1    1    2    0    0  0.23975769800E+03  0.11986709708E+03 -0.93916032027E+02  0.31031773360E+03  0.12500000000E+03 0.  0.
          2    1    1    2  501    0 -0.23975769800E+03 -0.11986709708E+03  0.45017183080E+03  0.52393372860E+03  0.00000000000E+00 0. -1.
<mgrwt>
<rscale>  3 0.29576490E+03</rscale>
<asrwt>0</asrwt>
<pdfrwt beam="1">  1       21 0.36768897E-01 0.29576490E+03</pdfrwt>
<pdfrwt beam="2">  1        2 0.91577481E-01 0.29576490E+03</pdfrwt>
<totfact> 0.44275220E+03</totfact>
</mgrwt>
</event>
<event>
 4    0  0.1002184E-001  0.2423016E+03  0.7546771E-02  0.1118269E+00
          1   -1    0    0  502    0 -0.00000000000E+00  0.00000000000E+00  0.31263148124E+04  0.31263148124E+04  0.00000000000E+00 0.  1.
         21   -1    0    0  501  502  0.00000000000E+00 -0.00000000000E+00 -0.25611283361E+02  0.25611283361E+02  0.00000000000E+00 0. -1.
         25    1    1    2    0    0 -0.18215086390E+03 -0.99529638446E+02  0.67164055539E+03  0.71401058941E+03  0.12500000000E+03 0.  0.
          1    1    1    2  501    0  0.18215086390E+03  0.99529638446E+02  0.24290629737E+04  0.24379155064E+04  0.00000000000E+00 0.  1.
<mgrwt>
<rscale>  3 0.24230164E+03</rscale>
<asrwt>0</asrwt>
<pdfrwt beam="1">  1       21 0.39401999E-02 0.24230164E+03</pdfrwt>
<pdfrwt beam="2">  1        1 0.48097121E+00 0.24230164E+03</pdfrwt>
<totfact> 0.26839033E+03</totfact>
</mgrwt>
</event>
<event>
 4    0  0.1379923E-001  0.4157402E+03  0.7546771E-02  0.1038462E+00
          4   -1    0    0  502    0 -0.00000000000E+00  0.00000000000E+00  0.94455395175E+03  0.94455395175E+03  0.00000000000E+00 0. -1.
         21   -1    0    0  501  502  0.00000000000E+00 -0.00000000000E+00 -0.20531034369E+03  0.20531034369E+03  0.00000000000E+00 0. -1.
         25    1    1    2    0    0  0.14507588399E+03  0.36900937355E+03  0.15482225962E+03  0.44363257540E+03  0.12500000000E+03 0.  0.
          4    1    1    2  501    0 -0.14507588399E+03 -0.36900937355E+03  0.58442134844E+03  0.70623172005E+03  0.00000000000E+00 0. -1.
<mgrwt>
<rscale>  3 0.41574022E+03</rscale>
<asrwt>0</asrwt>
<pdfrwt beam="1">  1       21 0.31586207E-01 0.41574022E+03</pdfrwt>
<pdfrwt beam="2">  1        4 0.14531599E+00 0.41574022E+03</pdfrwt>
<totfact> 0.13453552E+02</totfact>
</mgrwt>
</event>
<event>
 4    0  0.1002184E-001  0.2899589E+03  0.7546771E-02  0.1090371E+00
          1   -1    0    0  502    0 -0.00000000000E+00  0.00000000000E+00  0.15780136163E+04  0.15780136163E+04  0.00000000000E+00 0.  1.
         21   -1    0    0  501  502  0.00000000000E+00 -0.00000000000E+00 -0.48300746235E+02  0.48300746235E+02  0.00000000000E+00 0. -1.
         25    1    1    2    0    0  0.22140350600E+03  0.13939745533E+03  0.76729494670E+03  0.82025465452E+03  0.12500000000E+03 0.  0.
          1    1    1    2  501    0 -0.22140350600E+03 -0.13939745533E+03  0.76241792334E+03  0.80605970799E+03  0.00000000000E+00 0.  1.
<mgrwt>
<rscale>  3 0.28995890E+03</rscale>
<asrwt>0</asrwt>
<pdfrwt beam="1">  1       21 0.74308853E-02 0.28995890E+03</pdfrwt>
<pdfrwt beam="2">  1        1 0.24277129E+00 0.28995890E+03</pdfrwt>
<totfact> 0.95739463E+03</totfact>
</mgrwt>
</event>
<event>
 4    0  0.1002184E-001  0.2973239E+03  0.7546771E-02  0.1086586E+00
          2   -1    0    0  502    0 -0.00000000000E+00  0.00000000000E+00  0.19010304655E+04  0.19010304655E+04  0.00000000000E+00 0.  1.
         21   -1    0    0  501  502  0.00000000000E+00 -0.00000000000E+00 -0.49553126091E+02  0.49553126091E+02  0.00000000000E+00 0. -1.
         25    1    1    2    0    0  0.22889803174E+03  0.14276621981E+03  0.59117657543E+03  0.66173351569E+03  0.12500000000E+03 0.  0.
          2    1    1    2  501    0 -0.22889803174E+03 -0.14276621981E+03  0.12603007640E+04  0.12888500759E+04  0.00000000000E+00 0.  1.
<mgrwt>
<rscale>  3 0.29732390E+03</rscale>
<asrwt>0</asrwt>
<pdfrwt beam="1">  1       21 0.76235593E-02 0.29732390E+03</pdfrwt>
<pdfrwt beam="2">  1        2 0.29246617E+00 0.29732390E+03</pdfrwt>
<totfact> 0.13691269E+04</totfact>
</mgrwt>
</event>
<event>
 4    0  0.1633811E-001  0.3035597E+03  0.7546771E-02  0.1083475E+00
          2   -1    0    0  502    0 -0.00000000000E+00  0.00000000000E+00  0.13188936592E+04  0.13188936592E+04  0.00000000000E+00 0. -1.
         21   -1    0    0  501  502  0.00000000000E+00 -0.00000000000E+00 -0.97831015444E+02  0.97831015444E+02  0.00000000000E+00 0. -1.
         25    1    1    2    0    0 -0.27389511887E+03  0.38793753253E+02  0.21156469819E+03  0.37001096329E+03  0.12500000000E+03 0.  0.
          2    1    1    2  501    0  0.27389511887E+03 -0.38793753253E+02  0.10094979455E+04  0.10467137113E+04  0.00000000000E+00 0. -1.
<mgrwt>
<rscale>  3 0.30355970E+03</rscale>
<asrwt>0</asrwt>
<pdfrwt beam="1">  1       21 0.15050926E-01 0.30355970E+03</pdfrwt>
<pdfrwt beam="2">  1        2 0.20290670E+00 0.30355970E+03</pdfrwt>
<totfact> 0.82715947E+03</totfact>
</mgrwt>
</event>
<event>
 4    0  0.1362446E-001  0.4115340E+03  0.7546771E-02  0.1039857E+00
          2   -1    0    0  502    0 -0.00000000000E+00  0.00000000000E+00  0.11183094236E+04  0.11183094236E+04  0.00000000000E+00 0.  1.
         21   -1    0    0  501  502  0.00000000000E+00 -0.00000000000E+00 -0.22554382552E+03  0.22554382552E+03  0.00000000000E+00 0.  1.
         25    1    1    2    0    0 -0.34918102399E+03 -0.17834757088E+03  0.50276424871E+02  0.41459373180E+03  0.12500000000E+03 0.  0.
          2    1    1    2  501    0  0.34918102399E+03  0.17834757088E+03  0.84248917326E+03  0.92925951737E+03  0.00000000000E+00 0.  1.
<mgrwt>
<rscale>  3 0.41153401E+03</rscale>
<asrwt>0</asrwt>
<pdfrwt beam="1">  1       21 0.34699051E-01 0.41153401E+03</pdfrwt>
<pdfrwt beam="2">  1        2 0.17204760E+00 0.41153401E+03</pdfrwt>
<totfact> 0.21081117E+03</totfact>
</mgrwt>
</event>
<event>
 4    0  0.1067025E-001  0.3261328E+03  0.7546771E-02  0.1072861E+00
         21   -1    0    0  501  502  0.00000000000E+00  0.00000000000E+00  0.11958275466E+03  0.11958275466E+03  0.00000000000E+00 0.  1.
          2   -1    0    0  502    0 -0.00000000000E+00 -0.00000000000E+00 -0.11662218956E+04  0.11662218956E+04  0.00000000000E+00 0. -1.
         25    1    1    2    0    0  0.22694850562E+03  0.19807066491E+03 -0.18930780793E+03  0.37709423045E+03  0.12500000000E+03 0.  0.
          2    1    1    2  501    0 -0.22694850562E+03 -0.19807066491E+03 -0.85733133301E+03  0.90871041980E+03  0.00000000000E+00 0. -1.
<mgrwt>
<rscale>  3 0.32613281E+03</rscale>
<asrwt>0</asrwt>
<pdfrwt beam="1">  1       21 0.18397347E-01 0.32613281E+03</pdfrwt>
<pdfrwt beam="2">  1        2 0.17941875E+00 0.32613281E+03</pdfrwt>
<totfact> 0.69161452E+03</totfact>
</mgrwt>
</event>
<event>
 4    0  0.1617497E-001  0.2645615E+03  0.7546771E-02  0.1104433E+00
         21   -1    0    0  501  502  0.00000000000E+00  0.00000000000E+00  0.34252426830E+02  0.34252426830E+02  0.00000000000E+00 0.  1.
          2   -1    0    0  502    0 -0.00000000000E+00 -0.00000000000E+00 -0.18191217138E+04  0.18191217138E+04  0.00000000000E+00 0.  1.
         25    1    1    2    0    0  0.69880419776E+02 -0.22245112096E+03 -0.87659289792E+03  0.91564615599E+03  0.12500000000E+03 0.  0.
          2    1    1    2  501    0 -0.69880419776E+02  0.22245112096E+03 -0.90827638905E+03  0.93772798465E+03  0.00000000000E+00 0.  1.
<mgrwt>
<rscale>  3 0.26456148E+03</rscale>
<asrwt>0</asrwt>
<pdfrwt beam="1">  1       21 0.52696038E-02 0.26456148E+03</pdfrwt>
<pdfrwt beam="2">  1        2 0.27986490E+00 0.26456148E+03</pdfrwt>
<totfact> 0.28887247E+04</totfact>
</mgrwt>
</event>
<event>
 4    0  0.1114527E-001  0.3117479E+03  0.7546771E-02  0.1079511E+00
          2   -1    0    0  502    0 -0.00000000000E+00  0.00000000000E+00  0.27162251415E+04  0.27162251415E+04  0.00000000000E+00 0.  1.
         21   -1    0    0  501  502  0.00000000000E+00 -0.00000000000E+00 -0.60930456777E+02  0.60930456777E+02  0.00000000000E+00 0. -1.
         25    1    1    2    0    0 -0.70059443710E+02  0.27686354594E+03  0.41665735345E+03  0.52037495991E+03  0.12500000000E+03 0.  0.
          2    1    1    2  501    0  0.70059443710E+02 -0.27686354594E+03  0.22386373313E+04  0.22567806384E+04  0.00000000000E+00 0.  1.
<mgrwt>
<rscale>  3 0.31174789E+03</rscale>
<asrwt>0</asrwt>
<pdfrwt beam="1">  1       21 0.93739186E-02 0.31174789E+03</pdfrwt>
<pdfrwt beam="2">  1        2 0.41788070E+00 0.31174789E+03</pdfrwt>
<totfact> 0.34214148E+03</totfact>
</mgrwt>
</event>
<event>
 4    0  0.1002184E-001  0.2457214E+03  0.7546771E-02  0.1116039E+00
          1   -1    0    0  502    0 -0.00000000000E+00  0.00000000000E+00  0.22759401348E+03  0.22759401348E+03  0.00000000000E+00 0.  1.
         21   -1    0    0  501  502  0.00000000000E+00 -0.00000000000E+00 -0.27013098761E+03  0.27013098761E+03  0.00000000000E+00 0. -1.
         25    1    1    2    0    0  0.20242242285E+03 -0.61474976601E+02 -0.11868898801E+03  0.27288474837E+03  0.12500000000E+03 0.  0.
          1    1    1    2  501    0 -0.20242242285E+03  0.61474976601E+02  0.76152013880E+02  0.22484025271E+03  0.00000000000E+00 0.  1.
<mgrwt>
<rscale>  3 0.24572141E+03</rscale>
<asrwt>0</asrwt>
<pdfrwt beam="1">  1       21 0.41558613E-01 0.24572141E+03</pdfrwt>
<pdfrwt beam="2">  1        1 0.35014464E-01 0.24572141E+03</pdfrwt>
<totfact> 0.74527633E+03</totfact>
</mgrwt>
</event>
<event>
 4    0  0.1397202E-001  0.2939834E+03  0.7546771E-02  0.1088288E+00
          1   -1    0    0  502    0 -0.00000000000E+00  0.00000000000E+00  0.60665692676E+03  0.60665692676E+03  0.00000000000E+00 0.  1.
         21   -1    0    0  501  502  0.00000000000E+00 -0.00000000000E+00 -0.13578614420E+03  0.13578614420E+03  0.00000000000E+00 0.  1.
         25    1    1    2    0    0 -0.18410096586E+02  0.26544731924E+03  0.16534017228E+03  0.33728857602E+03  0.12500000000E+03 0.  0.
          1    1    1    2  501    0  0.18410096586E+02 -0.26544731924E+03  0.30553061028E+03  0.40515449493E+03  0.00000000000E+00 0.  1.
<mgrwt>
<rscale>  3 0.29398335E+03</rscale>
<asrwt>0</asrwt>
<pdfrwt beam="1">  1       21 0.20890176E-01 0.29398335E+03</pdfrwt>
<pdfrwt beam="2">  1        1 0.93331834E-01 0.29398335E+03</pdfrwt>
<totfact> 0.79881786E+03</totfact>
</mgrwt>
</event>
<event>
 4    0  0.1280462E-001  0.2498709E+03  0.7546771E-02  0.1113386E+00
          2   -1    0    0  502    0 -0.00000000000E+00  0.00000000000E+00  0.33023891385E+03  0.33023891385E+03  0.00000000000E+00 0.  1.
         21   -1    0    0  501  502  0.00000000000E+00 -0.00000000000E+00 -0.18874428181E+03  0.18874428181E+03  0.00000000000E+00 0.  1.
         25    1    1    2    0    0  0.11363293999E+02 -0.21605867213E+03 -0.17507306109E+02  0.25048349251E+03  0.12500000000E+03 0.  0.
          2    1    1    2  501    0 -0.11363293999E+02  0.21605867213E+03  0.15900193815E+03  0.26849970315E+03  0.00000000000E+00 0.  1.
<mgrwt>
<rscale>  3 0.24987092E+03</rscale>
<asrwt>0</asrwt>
<pdfrwt beam="1">  1       21 0.29037582E-01 0.24987092E+03</pdfrwt>
<pdfrwt beam="2">  1        2 0.50805987E-01 0.24987092E+03</pdfrwt>
<totfact> 0.13752777E+04</totfact>
</mgrwt>
</event>
<event>
 4    0  0.1002184E-001  0.4140415E+03  0.7546771E-02  0.1039023E+00
         21   -1    0    0  501  502  0.00000000000E+00  0.00000000000E+00  0.72108434210E+02  0.72108434210E+02  0.00000000000E+00 0.  1.
          1   -1    0    0  502    0 -0.00000000000E+00 -0.00000000000E+00 -0.36545389590E+04  0.36545389590E+04  0.00000000000E+00 0. -1.
         25    1    1    2    0    0  0.96383491356E+02 -0.38277359783E+03 -0.67014496111E+03  0.78773388495E+03  0.12500000000E+03 0.  0.
          1    1    1    2  501    0 -0.96383491356E+02  0.38277359783E+03 -0.29122855637E+04  0.29389135083E+04  0.00000000000E+00 0. -1.
<mgrwt>
<rscale>  3 0.41404155E+03</rscale>
<asrwt>0</asrwt>
<pdfrwt beam="1">  1       21 0.11093604E-01 0.41404155E+03</pdfrwt>
<pdfrwt beam="2">  1        1 0.56223684E+00 0.41404155E+03</pdfrwt>
<totfact> 0.16515523E+02</totfact>
</mgrwt>
</event>
<event>
 4    0  0.1002184E-001  0.2596207E+03  0.7546771E-02  0.1107371E+00
          1   -1    0    0  502    0 -0.00000000000E+00  0.00000000000E+00  0.20046206901E+03  0.20046206901E+03  0.00000000000E+00 0. -1.
         21   -1    0    0  501  502  0.00000000000E+00 -0.00000000000E+00 -0.12618066113E+04  0.12618066113E+04  0.00000000000E+00 0. -1.
         25    1    1    2    0    0  0.13988592052E+03 -0.17947103654E+03 -0.11782031680E+04  0.12064682461E+04  0.12500000000E+03 0.  0.
          1    1    1    2  501    0 -0.13988592052E+03  0.17947103654E+03  0.11685862575E+03  0.25580043419E+03  0.00000000000E+00 0. -1.
<mgrwt>
<rscale>  3 0.25962073E+03</rscale>
<asrwt>0</asrwt>
<pdfrwt beam="1">  1       21 0.19412409E+00 0.25962073E+03</pdfrwt>
<pdfrwt beam="2">  1        1 0.30840319E-01 0.25962073E+03</pdfrwt>
<totfact> 0.22168974E+02</totfact>
</mgrwt>
</event>
<event>
 4    0  0.1070210E-001  0.2697067E+03  0.7546771E-02  0.1101448E+00
          2   -1    0    0  502    0 -0.00000000000E+00  0.00000000000E+00  0.28549565377E+04  0.28549565377E+04  0.00000000000E+00 0.  1.
         21   -1    0    0  501  502  0.00000000000E+00 -0.00000000000E+00 -0.58002722338E+03  0.58002722338E+03  0.00000000000E+00 0. -1.
         25    1    1    2    0    0 -0.17977462708E+03 -0.15747314519E+03 -0.54334115539E+03  0.60659815293E+03  0.12500000000E+03 0.  0.
          2    1    1    2  501    0  0.17977462708E+03  0.15747314519E+03  0.28182704697E+04  0.28283856081E+04  0.00000000000E+00 0.  1.
<mgrwt>
<rscale>  3 0.26970671E+03</rscale>
<asrwt>0</asrwt>
<pdfrwt beam="1">  1       21 0.89234959E-01 0.26970671E+03</pdfrwt>
<pdfrwt beam="2">  1        2 0.43922407E+00 0.26970671E+03</pdfrwt>
<totfact> 0.32972064E+01</totfact>
</mgrwt>
</event>
<event>
 4    0  0.1718205E-001  0.2403921E+03  0.7546771E-02  0.1119532E+00
         -1   -1    0    0    0  501 -0.00000000000E+00  0.00000000000E+00  0.74132647976E+03  0.74132647976E+03  0.00000000000E+00 0.  1.
         21   -1    0    0  501  502  0.00000000000E+00 -0.00000000000E+00 -0.30911763976E+03  0.30911763976E+03  0.00000000000E+00 0.  1.
         25    1    1    2    0    0 -0.19760954675E+03  0.55801563345E+02 -0.24473059224E+03  0.34304724196E+03  0.12500000000E+03 0.  0.
         -1    1    1    2    0  502  0.19760954675E+03 -0.55801563345E+02  0.67693943225E+03  0.70739687755E+03  0.00000000000E+00 0.  1.
<mgrwt>
<rscale>  3 0.24039207E+03</rscale>
<asrwt>0</asrwt>
<pdfrwt beam="1">  1       21 0.47556560E-01 0.24039207E+03</pdfrwt>
<pdfrwt beam="2">  1       -1 0.11405023E+00 0.24039207E+03</pdfrwt>
<totfact> 0.28969207E+02</totfact>
</mgrwt>
</event>
<event>
 4    0  0.1002184E-001  0.4365555E+03  0.7546771E-02  0.1031809E+00
         21   -1    0    0  501  502  0.00000000000E+00  0.00000000000E+00  0.76377330833E+02  0.76377330833E+02  0.00000000000E+00 0.  1.
          2   -1    0    0  502    0 -0.00000000000E+00 -0.00000000000E+00 -0.27135955302E+04  0.27135955302E+04  0.00000000000E+00 0.  1.
         25    1    1    2    0    0  0.41052025281E+03 -0.80180201484E+02 -0.86322836092E+03  0.96733858900E+03  0.12500000000E+03 0.  0.
          2    1    1    2  501    0 -0.41052025281E+03  0.80180201484E+02 -0.17739898384E+04  0.18226342720E+04  0.00000000000E+00 0.  1.
<mgrwt>
<rscale>  3 0.43655554E+03</rscale>
<asrwt>0</asrwt>
<pdfrwt beam="1">  1       21 0.11750358E-01 0.43655554E+03</pdfrwt>
<pdfrwt beam="2">  1        2 0.41747624E+00 0.43655554E+03</pdfrwt>
<totfact> 0.21927195E+03</totfact>
</mgrwt>
</event>
<event>
 4    0  0.1002184E-001  0.2560168E+03  0.7546771E-02  0.1109560E+00
         21   -1    0    0  501  502  0.00000000000E+00  0.00000000000E+00  0.22123666412E+04  0.22123666412E+04  0.00000000000E+00 0.  1.
          2   -1    0    0  502    0 -0.00000000000E+00 -0.00000000000E+00 -0.14150473911E+03  0.14150473911E+03  0.00000000000E+00 0.  1.
         25    1    1    2    0    0 -0.12318870326E+03  0.18639776544E+03  0.21113416975E+04  0.21268070780E+04  0.12500000000E+03 0.  0.
          2    1    1    2  501    0  0.12318870326E+03 -0.18639776544E+03 -0.40479795337E+02  0.22706430235E+03  0.00000000000E+00 0.  1.
<mgrwt>
<rscale>  3 0.25601676E+03</rscale>
<asrwt>0</asrwt>
<pdfrwt beam="1">  1       21 0.34036407E+00 0.25601676E+03</pdfrwt>
<pdfrwt beam="2">  1        2 0.21769961E-01 0.25601676E+03</pdfrwt>
<totfact> 0.57219928E+01</totfact>
</mgrwt>
</event>
<event>
 4    0  0.1041393E-001  0.3430825E+03  0.7546771E-02  0.1065491E+00
         21   -1    0    0  501  502  0.00000000000E+00  0.00000000000E+00  0.48112884319E+02  0.48112884319E+02  0.00000000000E+00 0.  1.
          2   -1    0    0  502    0 -0.00000000000E+00 -0.00000000000E+00 -0.36961280599E+04  0.36961280599E+04  0.00000000000E+00 0.  1.
         25    1    1    2    0    0  0.22718963937E+02  0.31869176271E+03 -0.70620065903E+03  0.78512735385E+03  0.12500000000E+03 0.  0.
          2    1    1    2  501    0 -0.22718963937E+02 -0.31869176271E+03 -0.29418145165E+04  0.29591135903E+04  0.00000000000E+00 0.  1.
<mgrwt>
<rscale>  3 0.34308248E+03</rscale>
<asrwt>0</asrwt>
<pdfrwt beam="1">  1       21 0.74019811E-02 0.34308248E+03</pdfrwt>
<pdfrwt beam="2">  1        2 0.56863517E+00 0.34308248E+03</pdfrwt>
<totfact> 0.12468315E+03</totfact>
</mgrwt>
</event>
<event>
 4    0  0.1571763E-001  0.3641064E+03  0.7546771E-02  0.1056970E+00
         21   -1    0    0  501  502  0.00000000000E+00  0.00000000000E+00  0.28711370052E+03  0.28711370052E+03  0.00000000000E+00 0.  1.
          2   -1    0    0  502    0 -0.00000000000E+00 -0.00000000000E+00 -0.14464195124E+04  0.14464195124E+04  0.00000000000E+00 0. -1.
         25    1    1    2    0    0  0.17609250833E+03 -0.29315502808E+03  0.13991143842E+03  0.39006237012E+03  0.12500000000E+03 0.  0.
          2    1    1    2  501    0 -0.17609250833E+03  0.29315502808E+03 -0.12992172503E+04  0.13434708428E+04  0.00000000000E+00 0. -1.
<mgrwt>
<rscale>  3 0.36410636E+03</rscale>
<asrwt>0</asrwt>
<pdfrwt beam="1">  1       21 0.44171339E-01 0.36410636E+03</pdfrwt>
<pdfrwt beam="2">  1        2 0.22252607E+00 0.36410636E+03</pdfrwt>
<totfact> 0.84956513E+02</totfact>
</mgrwt>
</event>
<event>
 4    0  0.1002184E-001  0.2878658E+03  0.7546771E-02  0.1091469E+00
         21   -1    0    0  501  502  0.00000000000E+00  0.00000000000E+00  0.69254659367E+02  0.69254659367E+02  0.00000000000E+00 0. -1.
          1   -1    0    0  502    0 -0.00000000000E+00 -0.00000000000E+00 -0.37382679039E+04  0.37382679039E+04  0.00000000000E+00 0. -1.
         25    1    1    2    0    0 -0.22806830140E+03 -0.12339595680E+03 -0.25768396194E+03  0.38635182994E+03  0.12500000000E+03 0.  0.
          1    1    1    2  501    0  0.22806830140E+03  0.12339595680E+03 -0.34113292826E+04  0.34211707333E+04  0.00000000000E+00 0. -1.
<mgrwt>
<rscale>  3 0.28786579E+03</rscale>
<asrwt>0</asrwt>
<pdfrwt beam="1">  1       21 0.10654561E-01 0.28786579E+03</pdfrwt>
<pdfrwt beam="2">  1        1 0.57511825E+00 0.28786579E+03</pdfrwt>
<totfact> 0.16255926E+02</totfact>
</mgrwt>
</event>
<event>
 4    0  0.1700039E-001  0.2786930E+03  0.7546771E-02  0.1096405E+00
         21   -1    0    0  501  502  0.00000000000E+00  0.00000000000E+00  0.43303162731E+03  0.43303162731E+03  0.00000000000E+00 0.  1.
          2   -1    0    0  502    0 -0.00000000000E+00 -0.00000000000E+00 -0.13216309631E+04  0.13216309631E+04  0.00000000000E+00 0. -1.
         25    1    1    2    0    0  0.30147759788E+02  0.24725680028E+03  0.37473430822E+03  0.46700708182E+03  0.12500000000E+03 0.  0.
          2    1    1    2  501    0 -0.30147759788E+02 -0.24725680028E+03 -0.12633336440E+04  0.12876555086E+04  0.00000000000E+00 0. -1.
<mgrwt>
<rscale>  3 0.27869304E+03</rscale>
<asrwt>0</asrwt>
<pdfrwt beam="1">  1       21 0.66620251E-01 0.27869304E+03</pdfrwt>
<pdfrwt beam="2">  1        2 0.20332784E+00 0.27869304E+03</pdfrwt>
<totfact> 0.42817994E+02</totfact>
</mgrwt>
</event>
<event>
 4    0  0.1102017E-001  0.4017113E+03  0.7546771E-02  0.1043189E+00
         21   -1    0    0  501  502  0.00000000000E+00  0.00000000000E+00  0.11283962984E+04  0.11283962984E+04  0.00000000000E+00 0.  1.
          1   -1    0    0  502    0 -0.00000000000E+00 -0.00000000000E+00 -0.42271432155E+03  0.42271432155E+03  0.00000000000E+00 0.  1.
         25    1    1    2    0    0 -0.48629746442E+01  0.38173725369E+03  0.99439089554E+03  0.10724668911E+04  0.12500000000E+03 0.  0.
          1    1    1    2  501    0  0.48629746442E+01 -0.38173725369E+03 -0.28870891873E+03  0.47864372881E+03  0.00000000000E+00 0.  1.
<mgrwt>
<rscale>  3 0.40171131E+03</rscale>
<asrwt>0</asrwt>
<pdfrwt beam="1">  1       21 0.17359943E+00 0.40171131E+03</pdfrwt>
<pdfrwt beam="2">  1        1 0.65032973E-01 0.40171131E+03</pdfrwt>
<totfact> 0.11036766E+02</totfact>
</mgrwt>
</event>
<event>
 4    0  0.1257010E-001  0.2396129E+03  0.7546771E-02  0.1120051E+00
         21   -1    0    0  501  502  0.00000000000E+00  0.00000000000E+00  0.90646813119E+03  0.90646813119E+03  0.00000000000E+00 0. -1.
         -3   -1    0    0    0  501 -0.00000000000E+00 -0.00000000000E+00 -0.57190956588E+02  0.57190956588E+02  0.00000000000E+00 0. -1.
         25    1    1    2    0    0 -0.98602758454E+02  0.17907215750E+03  0.56316687230E+03  0.61202227706E+03  0.12500000000E+03 0.  0.
         -3    1    1    2    0  502  0.98602758454E+02 -0.17907215750E+03  0.28611030231E+03  0.35163681072E+03  0.00000000000E+00 0. -1.
<mgrwt>
<rscale>  3 0.23961290E+03</rscale>
<asrwt>0</asrwt>
<pdfrwt beam="1">  1       21 0.13945663E+00 0.23961290E+03</pdfrwt>
<pdfrwt beam="2">  1       -3 0.87986094E-02 0.23961290E+03</pdfrwt>
<totfact> 0.16107057E+03</totfact>
</mgrwt>
</event>
<event>
 4    0  0.1197219E-001  0.4482032E+03  0.7546771E-02  0.1028259E+00
          1   -1    0    0  502    0 -0.00000000000E+00  0.00000000000E+00  0.41575199965E+03  0.41575199965E+03  0.00000000000E+00 0. -1.
         21   -1    0    0  501  502  0.00000000000E+00 -0.00000000000E+00 -0.52417908482E+03  0.52417908482E+03  0.00000000000E+00 0. -1.
         25    1    1    2    0    0 -0.42667864981E+03  0.56625123215E+02 -0.21412269161E+03  0.49672386881E+03  0.12500000000E+03 0.  0.
          1    1    1    2  501    0  0.42667864981E+03 -0.56625123215E+02  0.10569560644E+03  0.44320721565E+03  0.00000000000E+00 0. -1.
<mgrwt>
<rscale>  3 0.44820316E+03</rscale>
<asrwt>0</asrwt>
<pdfrwt beam="1">  1       21 0.80642936E-01 0.44820316E+03</pdfrwt>
<pdfrwt beam="2">  1        1 0.63961846E-01 0.44820316E+03</pdfrwt>
<totfact> 0.78303874E+02</totfact>
</mgrwt>
</event>
<event>
 4    0  0.1511681E-001  0.2459484E+03  0.7546771E-02  0.1115892E+00
         21   -1    0    0  501  502  0.00000000000E+00  0.00000000000E+00  0.70117064889E+02  0.70117064889E+02  0.00000000000E+00 0. -1.
          1   -1    0    0  502    0 -0.00000000000E+00 -0.00000000000E+00 -0.74928588680E+03  0.74928588680E+03  0.00000000000E+00 0. -1.
         25    1    1    2    0    0  0.19524842088E+02  0.21091329557E+03 -0.38672634011E+03  0.45830982953E+03  0.12500000000E+03 0.  0.
          1    1    1    2  501    0 -0.19524842088E+02 -0.21091329557E+03 -0.29244248180E+03  0.36109312216E+03  0.00000000000E+00 0. -1.
<mgrwt>
<rscale>  3 0.24594845E+03</rscale>
<asrwt>0</asrwt>
<pdfrwt beam="1">  1       21 0.10787240E-01 0.24594845E+03</pdfrwt>
<pdfrwt beam="2">  1        1 0.11527476E+00 0.24594845E+03</pdfrwt>
<totfact> 0.19978217E+04</totfact>
</mgrwt>
</event>
<event>
 4    0  0.1002184E-001  0.3127498E+03  0.7546771E-02  0.1079035E+00
         21   -1    0    0  501  502  0.00000000000E+00  0.00000000000E+00  0.26310319848E+03  0.26310319848E+03  0.00000000000E+00 0.  1.
          1   -1    0    0  502    0 -0.00000000000E+00 -0.00000000000E+00 -0.44821571711E+03  0.44821571711E+03  0.00000000000E+00 0. -1.
         25    1    1    2    0    0 -0.23442617033E+03 -0.16502056058E+03  0.77855811851E+02  0.32229480633E+03  0.12500000000E+03 0.  0.
          1    1    1    2  501    0  0.23442617033E+03  0.16502056058E+03 -0.26296833048E+03  0.38902410926E+03  0.00000000000E+00 0. -1.
<mgrwt>
<rscale>  3 0.31274976E+03</rscale>
<asrwt>0</asrwt>
<pdfrwt beam="1">  1       21 0.40477415E-01 0.31274976E+03</pdfrwt>
<pdfrwt beam="2">  1        1 0.68956264E-01 0.31274976E+03</pdfrwt>
<totfact> 0.32675832E+03</totfact>
</mgrwt>
</event>
<event>
 4    0  0.1317870E-001  0.2599024E+03  0.7546771E-02  0.1107202E+00
          2   -1    0    0  502    0 -0.00000000000E+00  0.00000000000E+00  0.41404121752E+03  0.41404121752E+03  0.00000000000E+00 0.  1.
         21   -1    0    0  501  502  0.00000000000E+00 -0.00000000000E+00 -0.17252346482E+03  0.17252346482E+03  0.00000000000E+00 0.  1.
         25    1    1    2    0    0  0.18600450288E+03 -0.13163040964E+03  0.76134932244E+01  0.26001385562E+03  0.12500000000E+03 0.  0.
          2    1    1    2  501    0 -0.18600450288E+03  0.13163040964E+03  0.23390425947E+03  0.32655082672E+03  0.00000000000E+00 0.  1.
<mgrwt>
<rscale>  3 0.25990237E+03</rscale>
<asrwt>0</asrwt>
<pdfrwt beam="1">  1       21 0.26542072E-01 0.25990237E+03</pdfrwt>
<pdfrwt beam="2">  1        2 0.63698648E-01 0.25990237E+03</pdfrwt>
<totfact> 0.12787485E+04</totfact>
</mgrwt>
</event>
<event>
 4    0  0.1505006E-001  0.2462031E+03  0.7546771E-02  0.1115728E+00
         21   -1    0    0  501  502  0.00000000000E+00  0.00000000000E+00  0.60014995152E+03  0.60014995152E+03  0.00000000000E+00 0. -1.
         -1   -1    0    0    0  501 -0.00000000000E+00 -0.00000000000E+00 -0.25336285124E+03  0.25336285124E+03  0.00000000000E+00 0. -1.
         25    1    1    2    0    0  0.11416986274E+03  0.17876295966E+03  0.52280761620E+03  0.57787866967E+03  0.12500000000E+03 0.  0.
         -1    1    1    2    0  502 -0.11416986274E+03 -0.17876295966E+03 -0.17602051591E+03  0.27563413309E+03  0.00000000000E+00 0. -1.
<mgrwt>
<rscale>  3 0.24620307E+03</rscale>
<asrwt>0</asrwt>
<pdfrwt beam="1">  1       21 0.92330762E-01 0.24620307E+03</pdfrwt>
<pdfrwt beam="2">  1       -1 0.38978900E-01 0.24620307E+03</pdfrwt>
<totfact> 0.57455495E+02</totfact>
</mgrwt>
</event>
<event>
 4    0  0.1126889E-001  0.4644607E+03  0.7546771E-02  0.1023495E+00
         21   -1    0    0  501  502  0.00000000000E+00  0.00000000000E+00  0.15233108710E+04  0.15233108710E+04  0.00000000000E+00 0.  1.
          2   -1    0    0  502    0 -0.00000000000E+00 -0.00000000000E+00 -0.16141734075E+04  0.16141734075E+04  0.00000000000E+00 0. -1.
         25    1    1    2    0    0  0.27415947692E+03  0.35346193940E+03  0.14554536956E+04  0.15277660886E+04  0.12500000000E+03 0.  0.
          2    1    1    2  501    0 -0.27415947692E+03 -0.35346193940E+03 -0.15463162321E+04  0.16097181899E+04  0.00000000000E+00 0. -1.
<mgrwt>
<rscale>  3 0.46446072E+03</rscale>
<asrwt>0</asrwt>
<pdfrwt beam="1">  1       21 0.23435552E+00 0.46446072E+03</pdfrwt>
<pdfrwt beam="2">  1        2 0.24833437E+00 0.46446072E+03</pdfrwt>
<totfact> 0.99077024E+00</totfact>
</mgrwt>
</event>
<event>
 4    0  0.1322059E-001  0.2398091E+03  0.7546771E-02  0.1119920E+00
         21   -1    0    0  501  502  0.00000000000E+00  0.00000000000E+00  0.14296715464E+03  0.14296715464E+03  0.00000000000E+00 0. -1.
          2   -1    0    0  502    0 -0.00000000000E+00 -0.00000000000E+00 -0.10901845766E+04  0.10901845766E+04  0.00000000000E+00 0. -1.
         25    1    1    2    0    0  0.23008374140E+02  0.20335684575E+03  0.23627912409E+02  0.24097026837E+03  0.12500000000E+03 0.  0.
          2    1    1    2  501    0 -0.23008374140E+02 -0.20335684575E+03 -0.97084533437E+03  0.99218146287E+03  0.00000000000E+00 0. -1.
<mgrwt>
<rscale>  3 0.23980907E+03</rscale>
<asrwt>0</asrwt>
<pdfrwt beam="1">  1       21 0.21994947E-01 0.23980907E+03</pdfrwt>
<pdfrwt beam="2">  1        2 0.16772070E+00 0.23980907E+03</pdfrwt>
<totfact> 0.56023594E+03</totfact>
</mgrwt>
</event>
<event>
 4    0  0.1002184E-001  0.2688230E+03  0.7546771E-02  0.1101955E+00
         21   -1    0    0  501  502  0.00000000000E+00  0.00000000000E+00  0.75725055111E+03  0.75725055111E+03  0.00000000000E+00 0. -1.
         -4   -1    0    0    0  501 -0.00000000000E+00 -0.00000000000E+00 -0.15373702331E+03  0.15373702331E+03  0.00000000000E+00 0.  1.
         25    1    1    2    0    0  0.21603345929E+03 -0.99851749390E+02  0.61658169792E+03  0.67263572430E+03  0.12500000000E+03 0.  0.
         -4    1    1    2    0  502 -0.21603345929E+03  0.99851749390E+02 -0.13068170114E+02  0.23835185013E+03  0.00000000000E+00 0.  1.
<mgrwt>
<rscale>  3 0.26882304E+03</rscale>
<asrwt>0</asrwt>
<pdfrwt beam="1">  1       21 0.11650008E+00 0.26882304E+03</pdfrwt>
<pdfrwt beam="2">  1       -4 0.23651850E-01 0.26882304E+03</pdfrwt>
<totfact> 0.39162749E+02</totfact>
</mgrwt>
</event>
<event>
 4    0  0.1002184E-001  0.2600082E+03  0.7546771E-02  0.1107138E+00
         21   -1    0    0  501  502  0.00000000000E+00  0.00000000000E+00  0.42076676340E+03  0.42076676340E+03  0.00000000000E+00 0. -1.
          1   -1    0    0  502    0 -0.00000000000E+00 -0.00000000000E+00 -0.26473834694E+03  0.26473834694E+03  0.00000000000E+00 0.  1.
         25    1    1    2    0    0 -0.22714279928E+03 -0.19631984586E+02  0.31434180536E+03  0.40793999152E+03  0.12500000000E+03 0.  0.
          1    1    1    2  501    0  0.22714279928E+03  0.19631984586E+02 -0.15831338889E+03  0.27756511882E+03  0.00000000000E+00 0.  1.
<mgrwt>
<rscale>  3 0.26000820E+03</rscale>
<asrwt>0</asrwt>
<pdfrwt beam="1">  1       21 0.64733348E-01 0.26000820E+03</pdfrwt>
<pdfrwt beam="2">  1        1 0.40728977E-01 0.26000820E+03</pdfrwt>
<totfact> 0.24061889E+03</totfact>
</mgrwt>
</event>
<event>
 4    0  0.1517623E-001  0.2459602E+03  0.7546771E-02  0.1115885E+00
          2   -1    0    0  502    0 -0.00000000000E+00  0.00000000000E+00  0.13759185532E+04  0.13759185532E+04  0.00000000000E+00 0. -1.
         21   -1    0    0  501  502  0.00000000000E+00 -0.00000000000E+00 -0.41962652367E+02  0.41962652367E+02  0.00000000000E+00 0. -1.
         25    1    1    2    0    0 -0.15935851895E+03 -0.13955746075E+03  0.49695457002E+03  0.55449099819E+03  0.12500000000E+03 0.  0.
          2    1    1    2  501    0  0.15935851895E+03  0.13955746075E+03  0.83700133083E+03  0.86339020740E+03  0.00000000000E+00 0. -1.
<mgrwt>
<rscale>  3 0.24596020E+03</rscale>
<asrwt>0</asrwt>
<pdfrwt beam="1">  1       21 0.64557937E-02 0.24596020E+03</pdfrwt>
<pdfrwt beam="2">  1        2 0.21167974E+00 0.24596020E+03</pdfrwt>
<totfact> 0.35173945E+04</totfact>
</mgrwt>
</event>
<event>
 4    0  0.1002184E-001  0.4655939E+03  0.7546771E-02  0.1023171E+00
         21   -1    0    0  501  502  0.00000000000E+00  0.00000000000E+00  0.15058470674E+03  0.15058470674E+03  0.00000000000E+00 0.  1.
          2   -1    0    0  502    0 -0.00000000000E+00 -0.00000000000E+00 -0.19198364437E+04  0.19198364437E+04  0.00000000000E+00 0. -1.
         25    1    1    2    0    0 -0.14577714148E+03 -0.42414817230E+03 -0.35138055228E+03  0.58330604280E+03  0.12500000000E+03 0.  0.
          2    1    1    2  501    0  0.14577714148E+03  0.42414817230E+03 -0.14178711847E+04  0.14871151076E+04  0.00000000000E+00 0. -1.
<mgrwt>
<rscale>  3 0.46559386E+03</rscale>
<asrwt>0</asrwt>
<pdfrwt beam="1">  1       21 0.23166879E-01 0.46559386E+03</pdfrwt>
<pdfrwt beam="2">  1        2 0.29535943E+00 0.46559386E+03</pdfrwt>
<totfact> 0.16671503E+03</totfact>
</mgrwt>
</event>
<event>
 4    0  0.1330680E-001  0.2738173E+03  0.7546771E-02  0.1099115E+00
         21   -1    0    0  501  502  0.00000000000E+00  0.00000000000E+00  0.43456557783E+03  0.43456557783E+03  0.00000000000E+00 0.  1.
          2   -1    0    0  502    0 -0.00000000000E+00 -0.00000000000E+00 -0.44502151328E+03  0.44502151328E+03  0.00000000000E+00 0.  1.
         25    1    1    2    0    0 -0.72258334823E+02  0.23265783152E+03  0.35008780294E+03  0.44445180086E+03  0.12500000000E+03 0.  0.
          2    1    1    2  501    0  0.72258334823E+02 -0.23265783152E+03 -0.36054373840E+03  0.43513529025E+03  0.00000000000E+00 0.  1.
<mgrwt>
<rscale>  3 0.27381734E+03</rscale>
<asrwt>0</asrwt>
<pdfrwt beam="1">  1       21 0.66856242E-01 0.27381734E+03</pdfrwt>
<pdfrwt beam="2">  1        2 0.68464849E-01 0.27381734E+03</pdfrwt>
<totfact> 0.17593281E+03</totfact>
</mgrwt>
</event>
<event>
 4    0  0.1115733E-001  0.2413143E+03  0.7546771E-02  0.1118920E+00
         21   -1    0    0  501  502  0.00000000000E+00  0.00000000000E+00  0.54649058282E+03  0.54649058282E+03  0.00000000000E+00 0.  1.
          2   -1    0    0  502    0 -0.00000000000E+00 -0.00000000000E+00 -0.17570851735E+03  0.17570851735E+03  0.00000000000E+00 0.  1.
         25    1    1    2    0    0 -0.74595510210E+02 -0.19246589061E+03  0.44221483551E+03  0.50377233939E+03  0.12500000000E+03 0.  0.
          2    1    1    2  501    0  0.74595510210E+02  0.19246589061E+03 -0.71432770034E+02  0.21842676078E+03  0.00000000000E+00 0.  1.
<mgrwt>
<rscale>  3 0.24131434E+03</rscale>
<asrwt>0</asrwt>
<pdfrwt beam="1">  1       21 0.84075474E-01 0.24131434E+03</pdfrwt>
<pdfrwt beam="2">  1        2 0.27032080E-01 0.24131434E+03</pdfrwt>
<totfact> 0.29252388E+03</totfact>
</mgrwt>
</event>
<event>
 4    0  0.1147279E-001  0.2407433E+03  0.7546771E-02  0.1119299E+00
          2   -1    0    0  502    0 -0.00000000000E+00  0.00000000000E+00  0.27378972983E+04  0.27378972983E+04  0.00000000000E+00 0. -1.
         21   -1    0    0  501  502  0.00000000000E+00 -0.00000000000E+00 -0.21789315765E+03  0.21789315765E+03  0.00000000000E+00 0.  1.
         25    1    1    2    0    0  0.65861024702E+02 -0.19492223767E+03 -0.14620026651E+03  0.28165914017E+03  0.12500000000E+03 0.  0.
          2    1    1    2  501    0 -0.65861024702E+02  0.19492223767E+03  0.26662044072E+04  0.26741313158E+04  0.00000000000E+00 0. -1.
<mgrwt>
<rscale>  3 0.24074333E+03</rscale>
<asrwt>0</asrwt>
<pdfrwt beam="1">  1       21 0.33522026E-01 0.24074333E+03</pdfrwt>
<pdfrwt beam="2">  1        2 0.42121494E+00 0.24074333E+03</pdfrwt>
<totfact> 0.31957323E+02</totfact>
</mgrwt>
</event>
<event>
 4    0  0.1016970E-001  0.3346185E+03  0.7546771E-02  0.1069111E+00
         21   -1    0    0  501  502  0.00000000000E+00  0.00000000000E+00  0.11971154471E+03  0.11971154471E+03  0.00000000000E+00 0. -1.
          2   -1    0    0  502    0 -0.00000000000E+00 -0.00000000000E+00 -0.11867886848E+04  0.11867886848E+04  0.00000000000E+00 0.  1.
         25    1    1    2    0    0 -0.99942239255E+02 -0.29386412106E+03 -0.21026321553E+03  0.39519639756E+03  0.12500000000E+03 0.  0.
          2    1    1    2  501    0  0.99942239255E+02  0.29386412106E+03 -0.85681392457E+03  0.91130383197E+03  0.00000000000E+00 0.  1.
<mgrwt>
<rscale>  3 0.33461855E+03</rscale>
<asrwt>0</asrwt>
<pdfrwt beam="1">  1       21 0.18417161E-01 0.33461855E+03</pdfrwt>
<pdfrwt beam="2">  1        2 0.18258287E+00 0.33461855E+03</pdfrwt>
<totfact> 0.67024710E+03</totfact>
</mgrwt>
</event>
<event>
 4    0  0.1162912E-001  0.2367156E+03  0.7546771E-02  0.1122000E+00
          1   -1    0    0  502    0 -0.00000000000E+00  0.00000000000E+00  0.52747805138E+03  0.52747805138E+03  0.00000000000E+00 0. -1.
         21   -1    0    0  501  502  0.00000000000E+00 -0.00000000000E+00 -0.42466159213E+03  0.42466159213E+03  0.00000000000E+00 0. -1.
         25    1    1    2    0    0  0.64174429144E+02 -0.19050175257E+03 -0.36950174163E+03  0.43882321287E+03  0.12500000000E+03 0.  0.
          1    1    1    2  501    0 -0.64174429144E+02  0.19050175257E+03  0.47231820087E+03  0.51331643064E+03  0.00000000000E+00 0. -1.
<mgrwt>
<rscale>  3 0.23671560E+03</rscale>
<asrwt>0</asrwt>
<pdfrwt beam="1">  1       21 0.65332552E-01 0.23671560E+03</pdfrwt>
<pdfrwt beam="2">  1        1 0.81150470E-01 0.23671560E+03</pdfrwt>
<totfact> 0.98045504E+02</totfact>
</mgrwt>
</event>
<event>
 4    0  0.1760377E-001  0.3020843E+03  0.7546771E-02  0.1084203E+00
          2   -1    0    0  502    0 -0.00000000000E+00  0.00000000000E+00  0.11769607417E+04  0.11769607417E+04  0.00000000000E+00 0. -1.
         21   -1    0    0  501  502  0.00000000000E+00 -0.00000000000E+00 -0.12395750660E+03  0.12395750660E+03  0.00000000000E+00 0. -1.
         25    1    1    2    0    0  0.22666050303E+03  0.15573996058E+03  0.11467209880E+03  0.32311702090E+03  0.12500000000E+03 0.  0.
          2    1    1    2  501    0 -0.22666050303E+03 -0.15573996058E+03  0.93833113626E+03  0.97780122736E+03  0.00000000000E+00 0. -1.
<mgrwt>
<rscale>  3 0.30208429E+03</rscale>
<asrwt>0</asrwt>
<pdfrwt beam="1">  1       21 0.19070386E-01 0.30208429E+03</pdfrwt>
<pdfrwt beam="2">  1        2 0.18107088E+00 0.30208429E+03</pdfrwt>
<totfact> 0.64108826E+03</totfact>
</mgrwt>
</event>
<event>
 4    0  0.1445182E-001  0.2767930E+03  0.7546771E-02  0.1097454E+00
         21   -1    0    0  501  502  0.00000000000E+00  0.00000000000E+00  0.11214423894E+03  0.11214423894E+03  0.00000000000E+00 0. -1.
          1   -1    0    0  502    0 -0.00000000000E+00 -0.00000000000E+00 -0.62648109335E+03  0.62648109335E+03  0.00000000000E+00 0. -1.
         25    1    1    2    0    0 -0.24610246048E+03 -0.20565584240E+02 -0.32843275698E+03  0.42951419088E+03  0.12500000000E+03 0.  0.
          1    1    1    2  501    0  0.24610246048E+03  0.20565584240E+02 -0.18590409743E+03  0.30911114142E+03  0.00000000000E+00 0. -1.
<mgrwt>
<rscale>  3 0.27679300E+03</rscale>
<asrwt>0</asrwt>
<pdfrwt beam="1">  1       21 0.17252960E-01 0.27679300E+03</pdfrwt>
<pdfrwt beam="2">  1        1 0.96381708E-01 0.27679300E+03</pdfrwt>
<totfact> 0.10965038E+04</totfact>
</mgrwt>
</event>
<event>
 4    0  0.1002184E-001  0.3684846E+03  0.7546771E-02  0.1055274E+00
         21   -1    0    0  501  502  0.00000000000E+00  0.00000000000E+00  0.13690705047E+03  0.13690705047E+03  0.00000000000E+00 0.  1.
         -1   -1    0    0    0  501 -0.00000000000E+00 -0.00000000000E+00 -0.12054100211E+04  0.12054100211E+04  0.00000000000E+00 0. -1.
         25    1    1    2    0    0  0.34648714498E+03  0.10127585944E+02 -0.22844610273E+03  0.43355337790E+03  0.12500000000E+03 0.  0.
         -1    1    1    2    0  502 -0.34648714498E+03 -0.10127585944E+02 -0.84005686790E+03  0.90876369367E+03  0.00000000000E+00 0. -1.
<mgrwt>
<rscale>  3 0.36848461E+03</rscale>
<asrwt>0</asrwt>
<pdfrwt beam="1">  1       21 0.21062623E-01 0.36848461E+03</pdfrwt>
<pdfrwt beam="2">  1       -1 0.18544770E+00 0.36848461E+03</pdfrwt>
<totfact> 0.39157470E+02</totfact>
</mgrwt>
</event>
<event>
 4    0  0.1342319E-001  0.2435172E+03  0.7546771E-02  0.1117472E+00
         -1   -1    0    0    0  501 -0.00000000000E+00  0.00000000000E+00  0.11567964992E+04  0.11567964992E+04  0.00000000000E+00 0. -1.
         21   -1    0    0  501  502  0.00000000000E+00 -0.00000000000E+00 -0.27285985169E+03  0.27285985169E+03  0.00000000000E+00 0.  1.
         25    1    1    2    0    0  0.16848551887E+03  0.12364573825E+03 -0.20655443138E+03  0.31932017127E+03  0.12500000000E+03 0.  0.
         -1    1    1    2    0  502 -0.16848551887E+03 -0.12364573825E+03  0.10904910789E+04  0.11103361796E+04  0.00000000000E+00 0. -1.
<mgrwt>
<rscale>  3 0.24351722E+03</rscale>
<asrwt>0</asrwt>
<pdfrwt beam="1">  1       21 0.41978439E-01 0.24351722E+03</pdfrwt>
<pdfrwt beam="2">  1       -1 0.17796869E+00 0.24351722E+03</pdfrwt>
<totfact> 0.11900404E+02</totfact>
</mgrwt>
</event>
<event>
 4    0  0.1523224E-001  0.2746417E+03  0.7546771E-02  0.1098652E+00
          2   -1    0    0  502    0 -0.00000000000E+00  0.00000000000E+00  0.19333370370E+04  0.19333370370E+04  0.00000000000E+00 0.  1.
         21   -1    0    0  501  502  0.00000000000E+00 -0.00000000000E+00 -0.21083343952E+03  0.21083343952E+03  0.00000000000E+00 0. -1.
         25    1    1    2    0    0  0.14587761184E+03  0.19627223966E+03 -0.10968452193E+03  0.29573427946E+03  0.12500000000E+03 0.  0.
          2    1    1    2  501    0 -0.14587761184E+03 -0.19627223966E+03  0.18321881195E+04  0.18484361971E+04  0.00000000000E+00 0.  1.
<mgrwt>
<rscale>  3 0.27464171E+03</rscale>
<asrwt>0</asrwt>
<pdfrwt beam="1">  1       21 0.32435915E-01 0.27464171E+03</pdfrwt>
<pdfrwt beam="2">  1        2 0.29743645E+00 0.27464171E+03</pdfrwt>
<totfact> 0.90841919E+02</totfact>
</mgrwt>
</event>
<event>
 4    0  0.1233722E-001  0.2789527E+03  0.7546771E-02  0.1096262E+00
         21   -1    0    0  501  502  0.00000000000E+00  0.00000000000E+00  0.35583069944E+03  0.35583069944E+03  0.00000000000E+00 0. -1.
         -2   -1    0    0    0  501 -0.00000000000E+00 -0.00000000000E+00 -0.70285368262E+03  0.70285368262E+03  0.00000000000E+00 0.  1.
         25    1    1    2    0    0 -0.23930798255E+03  0.70152124043E+02  0.27304745242E+03  0.39034541408E+03  0.12500000000E+03 0.  0.
         -2    1    1    2    0  502  0.23930798255E+03 -0.70152124043E+02 -0.62007043560E+03  0.66833896799E+03  0.00000000000E+00 0.  1.
<mgrwt>
<rscale>  3 0.27895274E+03</rscale>
<asrwt>0</asrwt>
<pdfrwt beam="1">  1       21 0.54743185E-01 0.27895274E+03</pdfrwt>
<pdfrwt beam="2">  1       -2 0.10813133E+00 0.27895274E+03</pdfrwt>
<totfact> 0.17788799E+02</totfact>
</mgrwt>
</event>
<event>
 4    0  0.1721977E-001  0.2461298E+03  0.7546771E-02  0.1115775E+00
         -1   -1    0    0    0  501 -0.00000000000E+00  0.00000000000E+00  0.54974074993E+03  0.54974074993E+03  0.00000000000E+00 0.  1.
         21   -1    0    0  501  502  0.00000000000E+00 -0.00000000000E+00 -0.96628600605E+02  0.96628600605E+02  0.00000000000E+00 0.  1.
         25    1    1    2    0    0  0.14400108026E+03 -0.15562308529E+03  0.20772623803E+03  0.32207149169E+03  0.12500000000E+03 0.  0.
         -1    1    1    2    0  502 -0.14400108026E+03  0.15562308529E+03  0.24538591129E+03  0.32429785885E+03  0.00000000000E+00 0.  1.
<mgrwt>
<rscale>  3 0.24612975E+03</rscale>
<asrwt>0</asrwt>
<pdfrwt beam="1">  1       21 0.14865939E-01 0.24612975E+03</pdfrwt>
<pdfrwt beam="2">  1       -1 0.84575498E-01 0.24612975E+03</pdfrwt>
<totfact> 0.53578398E+03</totfact>
</mgrwt>
</event>
<event>
 4    0  0.1343089E-001  0.3017250E+03  0.7546771E-02  0.1084381E+00
          2   -1    0    0  502    0 -0.00000000000E+00  0.00000000000E+00  0.53981229213E+03  0.53981229213E+03  0.00000000000E+00 0. -1.
         21   -1    0    0  501  502  0.00000000000E+00 -0.00000000000E+00 -0.15729840919E+03  0.15729840919E+03  0.00000000000E+00 0. -1.
         25    1    1    2    0    0  0.13290958075E+03 -0.24030811934E+03  0.14838663830E+03  0.33623881885E+03  0.12500000000E+03 0.  0.
          2    1    1    2  501    0 -0.13290958075E+03  0.24030811934E+03  0.23412724465E+03  0.36087188247E+03  0.00000000000E+00 0. -1.
<mgrwt>
<rscale>  3 0.30172496E+03</rscale>
<asrwt>0</asrwt>
<pdfrwt beam="1">  1       21 0.24199755E-01 0.30172496E+03</pdfrwt>
<pdfrwt beam="2">  1        2 0.83048044E-01 0.30172496E+03</pdfrwt>
<totfact> 0.11281194E+04</totfact>
</mgrwt>
</event>
<event>
 4    0  0.1002184E-001  0.2486012E+03  0.7546771E-02  0.1114192E+00
          3   -1    0    0  502    0 -0.00000000000E+00  0.00000000000E+00  0.35754373266E+03  0.35754373266E+03  0.00000000000E+00 0.  1.
         21   -1    0    0  501  502  0.00000000000E+00 -0.00000000000E+00 -0.15485117512E+03  0.15485117512E+03  0.00000000000E+00 0. -1.
         25    1    1    2    0    0  0.83616987304E+02 -0.19795395002E+03  0.64247399084E+02  0.25676895292E+03  0.12500000000E+03 0.  0.
          3    1    1    2  501    0 -0.83616987304E+02  0.19795395002E+03  0.13844515846E+03  0.25562595485E+03  0.00000000000E+00 0.  1.
<mgrwt>
<rscale>  3 0.24860122E+03</rscale>
<asrwt>0</asrwt>
<pdfrwt beam="1">  1       21 0.23823258E-01 0.24860122E+03</pdfrwt>
<pdfrwt beam="2">  1        3 0.55006728E-01 0.24860122E+03</pdfrwt>
<totfact> 0.27006040E+03</totfact>
</mgrwt>
</event>
<event>
 4    0  0.1311850E-001  0.2399671E+03  0.7546771E-02  0.1119815E+00
         21   -1    0    0  501  502  0.00000000000E+00  0.00000000000E+00  0.36595176707E+03  0.36595176707E+03  0.00000000000E+00 0. -1.
          1   -1    0    0  502    0 -0.00000000000E+00 -0.00000000000E+00 -0.15187738123E+03  0.15187738123E+03  0.00000000000E+00 0. -1.
         25    1    1    2    0    0  0.12931077379E+03 -0.15886455363E+03  0.28906865397E+02  0.24170194348E+03  0.12500000000E+03 0.  0.
          1    1    1    2  501    0 -0.12931077379E+03  0.15886455363E+03  0.18516752044E+03  0.27612720482E+03  0.00000000000E+00 0. -1.
<mgrwt>
<rscale>  3 0.23996713E+03</rscale>
<asrwt>0</asrwt>
<pdfrwt beam="1">  1       21 0.56300272E-01 0.23996713E+03</pdfrwt>
<pdfrwt beam="2">  1        1 0.23365751E-01 0.23996713E+03</pdfrwt>
<totfact> 0.66121472E+03</totfact>
</mgrwt>
</event>
<event>
 4    0  0.1282407E-001  0.3310443E+03  0.7546771E-02  0.1070676E+00
          1   -1    0    0  502    0 -0.00000000000E+00  0.00000000000E+00  0.26024928511E+04  0.26024928511E+04  0.00000000000E+00 0. -1.
         21   -1    0    0  501  502  0.00000000000E+00 -0.00000000000E+00 -0.11045760800E+03  0.11045760800E+03  0.00000000000E+00 0. -1.
         25    1    1    2    0    0  0.25046780763E+03 -0.17672357493E+03  0.17258293193E+03  0.37332989833E+03  0.12500000000E+03 0.  0.
          1    1    1    2  501    0 -0.25046780763E+03  0.17672357493E+03  0.23194523112E+04  0.23396205608E+04  0.00000000000E+00 0. -1.
<mgrwt>
<rscale>  3 0.33104432E+03</rscale>
<asrwt>0</asrwt>
<pdfrwt beam="1">  1       21 0.16993480E-01 0.33104432E+03</pdfrwt>
<pdfrwt beam="2">  1        1 0.40038347E+00 0.33104432E+03</pdfrwt>
<totfact> 0.45001828E+02</totfact>
</mgrwt>
</event>
<event>
 4    0  0.1544539E-001  0.2487120E+03  0.7546771E-02  0.1114121E+00
         21   -1    0    0  501  502  0.00000000000E+00  0.00000000000E+00  0.28423025454E+03  0.28423025454E+03  0.00000000000E+00 0. -1.
          2   -1    0    0  502    0 -0.00000000000E+00 -0.00000000000E+00 -0.17570397571E+04  0.17570397571E+04  0.00000000000E+00 0.  1.
         25    1    1    2    0    0 -0.21495837253E+03 -0.50574848396E+01  0.22169613373E+03  0.33317691364E+03  0.12500000000E+03 0.  0.
          2    1    1    2  501    0  0.21495837253E+03  0.50574848396E+01 -0.16945056362E+04  0.17080930980E+04  0.00000000000E+00 0.  1.
<mgrwt>
<rscale>  3 0.24871204E+03</rscale>
<asrwt>0</asrwt>
<pdfrwt beam="1">  1       21 0.43727731E-01 0.24871204E+03</pdfrwt>
<pdfrwt beam="2">  1        2 0.27031381E+00 0.24871204E+03</pdfrwt>
<totfact> 0.62366695E+02</totfact>
</mgrwt>
</event>
<event>
 4    0  0.1022854E-001  0.2867000E+03  0.7546771E-02  0.1092085E+00
          1   -1    0    0  502    0 -0.00000000000E+00  0.00000000000E+00  0.73515369464E+02  0.73515369464E+02  0.00000000000E+00 0. -1.
         21   -1    0    0  501  502  0.00000000000E+00 -0.00000000000E+00 -0.10458235617E+04  0.10458235617E+04  0.00000000000E+00 0. -1.
         25    1    1    2    0    0  0.13868554876E+03 -0.21757339809E+03 -0.61569987218E+03  0.67917832533E+03  0.12500000000E+03 0.  0.
          1    1    1    2  501    0 -0.13868554876E+03  0.21757339809E+03 -0.35660832003E+03  0.44016060581E+03  0.00000000000E+00 0. -1.
<mgrwt>
<rscale>  3 0.28669996E+03</rscale>
<asrwt>0</asrwt>
<pdfrwt beam="1">  1       21 0.16089593E+00 0.28669996E+03</pdfrwt>
<pdfrwt beam="2">  1        1 0.11310057E-01 0.28669996E+03</pdfrwt>
<totfact> 0.13779196E+03</totfact>
</mgrwt>
</event>
<event>
 4    0  0.1495724E-001  0.4013366E+03  0.7546771E-02  0.1043318E+00
         21   -1    0    0  501  502  0.00000000000E+00  0.00000000000E+00  0.15511658514E+03  0.15511658514E+03  0.00000000000E+00 0.  1.
          2   -1    0    0  502    0 -0.00000000000E+00 -0.00000000000E+00 -0.11664663083E+04  0.11664663083E+04  0.00000000000E+00 0.  1.
         25    1    1    2    0    0 -0.34872451704E+03  0.15439328839E+03 -0.25774642512E+03  0.47697410406E+03  0.12500000000E+03 0.  0.
          2    1    1    2  501    0  0.34872451704E+03 -0.15439328839E+03 -0.75360329804E+03  0.84460878938E+03  0.00000000000E+00 0.  1.
<mgrwt>
<rscale>  3 0.40133661E+03</rscale>
<asrwt>0</asrwt>
<pdfrwt beam="1">  1       21 0.23864089E-01 0.40133661E+03</pdfrwt>
<pdfrwt beam="2">  1        2 0.17945636E+00 0.40133661E+03</pdfrwt>
<totfact> 0.41432956E+03</totfact>
</mgrwt>
</event>
<event>
 4    0  0.1049547E-001  0.2846122E+03  0.7546771E-02  0.1093196E+00
         21   -1    0    0  501  502  0.00000000000E+00  0.00000000000E+00  0.29063095873E+02  0.29063095873E+02  0.00000000000E+00 0. -1.
          1   -1    0    0  502    0 -0.00000000000E+00 -0.00000000000E+00 -0.34067286295E+04  0.34067286295E+04  0.00000000000E+00 0. -1.
         25    1    1    2    0    0 -0.20760130868E+03 -0.14926759540E+03 -0.87560022102E+03  0.92069531629E+03  0.12500000000E+03 0.  0.
          1    1    1    2  501    0  0.20760130868E+03  0.14926759540E+03 -0.25020653126E+04  0.25150964091E+04  0.00000000000E+00 0. -1.
<mgrwt>
<rscale>  3 0.28461222E+03</rscale>
<asrwt>0</asrwt>
<pdfrwt beam="1">  1       21 0.44712488E-02 0.28461222E+03</pdfrwt>
<pdfrwt beam="2">  1        1 0.52411172E+00 0.28461222E+03</pdfrwt>
<totfact> 0.13284758E+03</totfact>
</mgrwt>
</event>
<event>
 4    0  0.1002184E-001  0.2886412E+03  0.7546771E-02  0.1091061E+00
          1   -1    0    0  502    0 -0.00000000000E+00  0.00000000000E+00  0.20531056635E+04  0.20531056635E+04  0.00000000000E+00 0.  1.
         21   -1    0    0  501  502  0.00000000000E+00 -0.00000000000E+00 -0.55157391671E+02  0.55157391671E+02  0.00000000000E+00 0. -1.
         25    1    1    2    0    0  0.91064605388E+02 -0.24371293118E+03  0.42378703845E+03  0.51274673001E+03  0.12500000000E+03 0.  0.
          1    1    1    2  501    0 -0.91064605388E+02  0.24371293118E+03  0.15741612334E+04  0.15955163252E+04  0.00000000000E+00 0.  1.
<mgrwt>
<rscale>  3 0.28864122E+03</rscale>
<asrwt>0</asrwt>
<pdfrwt beam="1">  1       21 0.84857541E-02 0.28864122E+03</pdfrwt>
<pdfrwt beam="2">  1        1 0.31586235E+00 0.28864122E+03</pdfrwt>
<totfact> 0.37130096E+03</totfact>
</mgrwt>
</event>
<event>
 4    0  0.1029430E-001  0.2489263E+03  0.7546771E-02  0.1113985E+00
         21   -1    0    0  501  502  0.00000000000E+00  0.00000000000E+00  0.63753587116E+03  0.63753587116E+03  0.00000000000E+00 0. -1.
          1   -1    0    0  502    0 -0.00000000000E+00 -0.00000000000E+00 -0.20333588577E+03  0.20333588577E+03  0.00000000000E+00 0.  1.
         25    1    1    2    0    0 -0.75257798887E+02  0.20168181827E+03  0.54471269397E+03  0.59889582657E+03  0.12500000000E+03 0.  0.
          1    1    1    2  501    0  0.75257798887E+02 -0.20168181827E+03 -0.11051270857E+03  0.24197593036E+03  0.00000000000E+00 0.  1.
<mgrwt>
<rscale>  3 0.24892628E+03</rscale>
<asrwt>0</asrwt>
<pdfrwt beam="1">  1       21 0.98082441E-01 0.24892628E+03</pdfrwt>
<pdfrwt beam="2">  1        1 0.31282444E-01 0.24892628E+03</pdfrwt>
<totfact> 0.13071452E+03</totfact>
</mgrwt>
</event>
<event>
 4    0  0.1070132E-001  0.2537018E+03  0.7546771E-02  0.1110987E+00
         21   -1    0    0  501  502  0.00000000000E+00  0.00000000000E+00  0.85379355890E+03  0.85379355890E+03  0.00000000000E+00 0. -1.
          2   -1    0    0  502    0 -0.00000000000E+00 -0.00000000000E+00 -0.68385013898E+02  0.68385013898E+02  0.00000000000E+00 0. -1.
         25    1    1    2    0    0  0.21782079354E+03 -0.35968408984E+02  0.50633756242E+03  0.56634119721E+03  0.12500000000E+03 0.  0.
          2    1    1    2  501    0 -0.21782079354E+03  0.35968408984E+02  0.27907098258E+03  0.35583737559E+03  0.00000000000E+00 0. -1.
<mgrwt>
<rscale>  3 0.25370184E+03</rscale>
<asrwt>0</asrwt>
<pdfrwt beam="1">  1       21 0.13135285E+00 0.25370184E+03</pdfrwt>
<pdfrwt beam="2">  1        2 0.10520772E-01 0.25370184E+03</pdfrwt>
<totfact> 0.30004527E+03</totfact>
</mgrwt>
</event>
<event>
 4    0  0.1069591E-001  0.3856117E+03  0.7546771E-02  0.1048879E+00
         21   -1    0    0  501  502  0.00000000000E+00  0.00000000000E+00  0.42927666282E+03  0.42927666282E+03  0.00000000000E+00 0.  1.
          2   -1    0    0  502    0 -0.00000000000E+00 -0.00000000000E+00 -0.62317142082E+03  0.62317142082E+03  0.00000000000E+00 0. -1.
         25    1    1    2    0    0  0.35872225725E+03  0.66255266878E+02  0.26376549189E+03  0.46719230831E+03  0.12500000000E+03 0.  0.
          2    1    1    2  501    0 -0.35872225725E+03 -0.66255266878E+02 -0.45766024989E+03  0.58525577533E+03  0.00000000000E+00 0. -1.
<mgrwt>
<rscale>  3 0.38561175E+03</rscale>
<asrwt>0</asrwt>
<pdfrwt beam="1">  1       21 0.66042564E-01 0.38561175E+03</pdfrwt>
<pdfrwt beam="2">  1        2 0.95872526E-01 0.38561175E+03</pdfrwt>
<totfact> 0.11893151E+03</totfact>
</mgrwt>
</event>
<event>
 4    0  0.1666849E-001  0.2946218E+03  0.7546771E-02  0.1087960E+00
          1   -1    0    0  502    0 -0.00000000000E+00  0.00000000000E+00  0.13529476518E+04  0.13529476518E+04  0.00000000000E+00 0. -1.
         21   -1    0    0  501  502  0.00000000000E+00 -0.00000000000E+00 -0.19235177435E+03  0.19235177435E+03  0.00000000000E+00 0. -1.
         25    1    1    2    0    0 -0.18671323577E+03 -0.19056542018E+03 -0.55912172582E+02  0.29988028081E+03  0.12500000000E+03 0.  0.
          1    1    1    2  501    0  0.18671323577E+03  0.19056542018E+03  0.12165080501E+04  0.12454191454E+04  0.00000000000E+00 0. -1.
<mgrwt>
<rscale>  3 0.29462181E+03</rscale>
<asrwt>0</asrwt>
<pdfrwt beam="1">  1       21 0.29592581E-01 0.29462181E+03</pdfrwt>
<pdfrwt beam="2">  1        1 0.20814579E+00 0.29462181E+03</pdfrwt>
<totfact> 0.10588818E+03</totfact>
</mgrwt>
</event>
<event>
 4    0  0.1099065E-001  0.2505586E+03  0.7546771E-02  0.1112952E+00
          1   -1    0    0  502    0 -0.00000000000E+00  0.00000000000E+00  0.24905872567E+04  0.24905872567E+04  0.00000000000E+00 0.  1.
         21   -1    0    0  501  502  0.00000000000E+00 -0.00000000000E+00 -0.37865615125E+02  0.37865615125E+02  0.00000000000E+00 0. -1.
         25    1    1    2    0    0 -0.97586282270E+02  0.19398852012E+03  0.45895115985E+03  0.52289176275E+03  0.12500000000E+03 0.  0.
          1    1    1    2  501    0  0.97586282270E+02 -0.19398852012E+03  0.19937704817E+04  0.20055611090E+04  0.00000000000E+00 0.  1.
<mgrwt>
<rscale>  3 0.25055863E+03</rscale>
<asrwt>0</asrwt>
<pdfrwt beam="1">  1       21 0.58254812E-02 0.25055863E+03</pdfrwt>
<pdfrwt beam="2">  1        1 0.38316714E+00 0.25055863E+03</pdfrwt>
<totfact> 0.37436603E+03</totfact>
</mgrwt>
</event>
<event>
 4    0  0.1002184E-001  0.2523549E+03  0.7546771E-02  0.1111826E+00
         -1   -1    0    0    0  501 -0.00000000000E+00  0.00000000000E+00  0.48398255291E+03  0.48398255291E+03  0.00000000000E+00 0. -1.
         21   -1    0    0  501  502  0.00000000000E+00 -0.00000000000E+00 -0.15416145249E+03  0.15416145249E+03  0.00000000000E+00 0.  1.
         25    1    1    2    0    0 -0.74931188196E+02 -0.20601775237E+03  0.12761937197E+02  0.25267739174E+03  0.12500000000E+03 0.  0.
         -1    1    1    2    0  502  0.74931188196E+02  0.20601775237E+03  0.31705916323E+03  0.38546661365E+03  0.00000000000E+00 0. -1.
<mgrwt>
<rscale>  3 0.25235490E+03</rscale>
<asrwt>0</asrwt>
<pdfrwt beam="1">  1       21 0.23717147E-01 0.25235490E+03</pdfrwt>
<pdfrwt beam="2">  1       -1 0.74458853E-01 0.25235490E+03</pdfrwt>
<totfact> 0.29103852E+03</totfact>
</mgrwt>
</event>
<event>
 4    0  0.1614982E-001  0.3169347E+03  0.7546771E-02  0.1077069E+00
         -1   -1    0    0    0  501 -0.00000000000E+00  0.00000000000E+00  0.36240336243E+03  0.36240336243E+03  0.00000000000E+00 0.  1.
         21   -1    0    0  501  502  0.00000000000E+00 -0.00000000000E+00 -0.31081806376E+03  0.31081806376E+03  0.00000000000E+00 0.  1.
         25    1    1    2    0    0 -0.21030842873E+03 -0.20147703291E+03 -0.11565334324E+03  0.33737712695E+03  0.12500000000E+03 0.  0.
         -1    1    1    2    0  502  0.21030842873E+03  0.20147703291E+03  0.16723864191E+03  0.33584429924E+03  0.00000000000E+00 0.  1.
<mgrwt>
<rscale>  3 0.31693474E+03</rscale>
<asrwt>0</asrwt>
<pdfrwt beam="1">  1       21 0.47818164E-01 0.31693474E+03</pdfrwt>
<pdfrwt beam="2">  1       -1 0.55754363E-01 0.31693474E+03</pdfrwt>
<totfact> 0.12479930E+03</totfact>
</mgrwt>
</event>
<event>
 4    0  0.1417141E-001  0.2366662E+03  0.7546771E-02  0.1122034E+00
         21   -1    0    0  501  502  0.00000000000E+00  0.00000000000E+00  0.58366206719E+02  0.58366206719E+02  0.00000000000E+00 0. -1.
          2   -1    0    0  502    0 -0.00000000000E+00 -0.00000000000E+00 -0.10494290516E+04  0.10494290516E+04  0.00000000000E+00 0. -1.
         25    1    1    2    0    0  0.18414216079E+03 -0.80483336438E+02 -0.26900908891E+03  0.35829707331E+03  0.12500000000E+03 0.  0.
          2    1    1    2  501    0 -0.18414216079E+03  0.80483336438E+02 -0.72205375595E+03  0.74949818500E+03  0.00000000000E+00 0. -1.
<mgrwt>
<rscale>  3 0.23666623E+03</rscale>
<asrwt>0</asrwt>
<pdfrwt beam="1">  1       21 0.89794162E-02 0.23666623E+03</pdfrwt>
<pdfrwt beam="2">  1        2 0.16145063E+00 0.23666623E+03</pdfrwt>
<totfact> 0.30347599E+04</totfact>
</mgrwt>
</event>
<event>
 4    0  0.1002184E-001  0.2566671E+03  0.7546771E-02  0.1109162E+00
          1   -1    0    0  502    0 -0.00000000000E+00  0.00000000000E+00  0.21223078691E+04  0.21223078691E+04  0.00000000000E+00 0.  1.
         21   -1    0    0  501  502  0.00000000000E+00 -0.00000000000E+00 -0.30716791883E+02  0.30716791883E+02  0.00000000000E+00 0. -1.
         25    1    1    2    0    0  0.22369053946E+03  0.14681174895E+02  0.74676889838E+03  0.78964661838E+03  0.12500000000E+03 0.  0.
          1    1    1    2  501    0 -0.22369053946E+03 -0.14681174895E+02  0.13448221788E+04  0.13633780426E+04  0.00000000000E+00 0.  1.
<mgrwt>
<rscale>  3 0.25666709E+03</rscale>
<asrwt>0</asrwt>
<pdfrwt beam="1">  1       21 0.47256619E-02 0.25666709E+03</pdfrwt>
<pdfrwt beam="2">  1        1 0.32650879E+00 0.25666709E+03</pdfrwt>
<totfact> 0.93176414E+03</totfact>
</mgrwt>
</event>
<event>
 4    0  0.1002184E-001  0.2395040E+03  0.7546771E-02  0.1120124E+00
          1   -1    0    0  502    0 -0.00000000000E+00  0.00000000000E+00  0.18588567991E+03  0.18588567991E+03  0.00000000000E+00 0. -1.
         21   -1    0    0  501  502  0.00000000000E+00 -0.00000000000E+00 -0.66501050452E+03  0.66501050452E+03  0.00000000000E+00 0.  1.
         25    1    1    2    0    0 -0.11306932354E+01  0.20429365345E+03 -0.57672795979E+03  0.62448163697E+03  0.12500000000E+03 0.  0.
          1    1    1    2  501    0  0.11306932354E+01 -0.20429365345E+03  0.97603135178E+02  0.22641454747E+03  0.00000000000E+00 0. -1.
<mgrwt>
<rscale>  3 0.23950402E+03</rscale>
<asrwt>0</asrwt>
<pdfrwt beam="1">  1       21 0.10230931E+00 0.23950402E+03</pdfrwt>
<pdfrwt beam="2">  1        1 0.28597797E-01 0.23950402E+03</pdfrwt>
<totfact> 0.13285295E+03</totfact>
</mgrwt>
</event>
<event>
 4    0  0.1531453E-001  0.2497917E+03  0.7546771E-02  0.1113437E+00
         21   -1    0    0  501  502  0.00000000000E+00  0.00000000000E+00  0.30185872042E+02  0.30185872042E+02  0.00000000000E+00 0. -1.
          2   -1    0    0  502    0 -0.00000000000E+00 -0.00000000000E+00 -0.22210844348E+04  0.22210844348E+04  0.00000000000E+00 0. -1.
         25    1    1    2    0    0  0.20227204680E+03  0.76530459823E+02 -0.66956581764E+03  0.71464276135E+03  0.12500000000E+03 0.  0.
          2    1    1    2  501    0 -0.20227204680E+03 -0.76530459823E+02 -0.15213327452E+04  0.15366275455E+04  0.00000000000E+00 0. -1.
<mgrwt>
<rscale>  3 0.24979170E+03</rscale>
<asrwt>0</asrwt>
<pdfrwt beam="1">  1       21 0.46439789E-02 0.24979170E+03</pdfrwt>
<pdfrwt beam="2">  1        2 0.34170540E+00 0.24979170E+03</pdfrwt>
<totfact> 0.22093956E+04</totfact>
</mgrwt>
</event>
<event>
 4    0  0.1002184E-001  0.2476949E+03  0.7546771E-02  0.1114770E+00
         21   -1    0    0  501  502  0.00000000000E+00  0.00000000000E+00  0.21460455899E+02  0.21460455899E+02  0.00000000000E+00 0. -1.
          1   -1    0    0  502    0 -0.00000000000E+00 -0.00000000000E+00 -0.30758696022E+04  0.30758696022E+04  0.00000000000E+00 0.  1.
         25    1    1    2    0    0 -0.16085843770E+03  0.14089827685E+03 -0.22968834758E+04  0.23102005244E+04  0.12500000000E+03 0.  0.
          1    1    1    2  501    0  0.16085843770E+03 -0.14089827685E+03 -0.75752567049E+03  0.78712953372E+03  0.00000000000E+00 0.  1.
<mgrwt>
<rscale>  3 0.24769490E+03</rscale>
<asrwt>0</asrwt>
<pdfrwt beam="1">  1       21 0.33016095E-02 0.24769490E+03</pdfrwt>
<pdfrwt beam="2">  1        1 0.47321057E+00 0.24769490E+03</pdfrwt>
<totfact> 0.39102285E+03</totfact>
</mgrwt>
</event>
<event>
 4    0  0.1029326E-001  0.2690473E+03  0.7546771E-02  0.1101826E+00
          2   -1    0    0  502    0 -0.00000000000E+00  0.00000000000E+00  0.28835568258E+04  0.28835568258E+04  0.00000000000E+00 0.  1.
         21   -1    0    0  501  502  0.00000000000E+00 -0.00000000000E+00 -0.40401789485E+02  0.40401789485E+02  0.00000000000E+00 0. -1.
         25    1    1    2    0    0  0.23111489023E+03  0.57856199610E+02  0.49196052622E+03  0.56072416720E+03  0.12500000000E+03 0.  0.
          2    1    1    2  501    0 -0.23111489023E+03 -0.57856199610E+02  0.23511945101E+04  0.23632344481E+04  0.00000000000E+00 0.  1.
<mgrwt>
<rscale>  3 0.26904727E+03</rscale>
<asrwt>0</asrwt>
<pdfrwt beam="1">  1       21 0.62156622E-02 0.26904727E+03</pdfrwt>
<pdfrwt beam="2">  1        2 0.44362396E+00 0.26904727E+03</pdfrwt>
<totfact> 0.57328347E+03</totfact>
</mgrwt>
</event>
<event>
 4    0  0.1366022E-001  0.3151901E+03  0.7546771E-02  0.1077884E+00
          2   -1    0    0  502    0 -0.00000000000E+00  0.00000000000E+00  0.14271449134E+04  0.14271449134E+04  0.00000000000E+00 0. -1.
         21   -1    0    0  501  502  0.00000000000E+00 -0.00000000000E+00 -0.11658906474E+03  0.11658906474E+03  0.00000000000E+00 0.  1.
         25    1    1    2    0    0 -0.28498267831E+03 -0.50046670189E+02  0.15262294708E+03  0.35019788708E+03  0.12500000000E+03 0.  0.
          2    1    1    2  501    0  0.28498267831E+03  0.50046670189E+02  0.11579329016E+04  0.11935360911E+04  0.00000000000E+00 0. -1.
<mgrwt>
<rscale>  3 0.31519010E+03</rscale>
<asrwt>0</asrwt>
<pdfrwt beam="1">  1       21 0.17936780E-01 0.31519010E+03</pdfrwt>
<pdfrwt beam="2">  1        2 0.21956074E+00 0.31519010E+03</pdfrwt>
<totfact> 0.51932197E+03</totfact>
</mgrwt>
</event>
<event>
 4    0  0.1002184E-001  0.3165037E+03  0.7546771E-02  0.1077270E+00
         21   -1    0    0  501  502  0.00000000000E+00  0.00000000000E+00  0.37258197937E+02  0.37258197937E+02  0.00000000000E+00 0.  1.
          2   -1    0    0  502    0 -0.00000000000E+00 -0.00000000000E+00 -0.24893085400E+04  0.24893085400E+04  0.00000000000E+00 0. -1.
         25    1    1    2    0    0 -0.28833304367E+03  0.37598409280E+02 -0.11804166676E+04  0.12221121444E+04  0.12500000000E+03 0.  0.
          2    1    1    2  501    0  0.28833304367E+03 -0.37598409280E+02 -0.12716336745E+04  0.13044545935E+04  0.00000000000E+00 0. -1.
<mgrwt>
<rscale>  3 0.31650369E+03</rscale>
<asrwt>0</asrwt>
<pdfrwt beam="1">  1       21 0.57320314E-02 0.31650369E+03</pdfrwt>
<pdfrwt beam="2">  1        2 0.38297048E+00 0.31650369E+03</pdfrwt>
<totfact> 0.10820118E+04</totfact>
</mgrwt>
</event>
<event>
 4    0  0.1629395E-001  0.2644822E+03  0.7546771E-02  0.1104480E+00
          1   -1    0    0  502    0 -0.00000000000E+00  0.00000000000E+00  0.17711169027E+04  0.17711169027E+04  0.00000000000E+00 0.  1.
         21   -1    0    0  501  502  0.00000000000E+00 -0.00000000000E+00 -0.56888970618E+03  0.56888970618E+03  0.00000000000E+00 0. -1.
         25    1    1    2    0    0  0.20307793182E+03  0.11439058585E+03 -0.52991631446E+03  0.59225176476E+03  0.12500000000E+03 0.  0.
          1    1    1    2  501    0 -0.20307793182E+03 -0.11439058585E+03  0.17321435110E+04  0.17477548441E+04  0.00000000000E+00 0.  1.
<mgrwt>
<rscale>  3 0.26448223E+03</rscale>
<asrwt>0</asrwt>
<pdfrwt beam="1">  1       21 0.87521494E-01 0.26448223E+03</pdfrwt>
<pdfrwt beam="2">  1        1 0.27247952E+00 0.26448223E+03</pdfrwt>
<totfact> 0.57061492E+01</totfact>
</mgrwt>
</event>
<event>
 4    0  0.1811048E-001  0.4370996E+03  0.7546771E-02  0.1031640E+00
         -4   -1    0    0    0  501 -0.00000000000E+00  0.00000000000E+00  0.10728239559E+04  0.10728239559E+04  0.00000000000E+00 0. -1.
         21   -1    0    0  501  502  0.00000000000E+00 -0.00000000000E+00 -0.23806979663E+03  0.23806979663E+03  0.00000000000E+00 0. -1.
         25    1    1    2    0    0 -0.41858840199E+03 -0.14657118388E+02  0.75215174295E+02  0.44352384811E+03  0.12500000000E+03 0.  0.
         -4    1    1    2    0  502  0.41858840199E+03  0.14657118388E+02  0.75953898498E+03  0.86736990442E+03  0.00000000000E+00 0. -1.
<mgrwt>
<rscale>  3 0.43709962E+03</rscale>
<asrwt>0</asrwt>
<pdfrwt beam="1">  1       21 0.36626123E-01 0.43709962E+03</pdfrwt>
<pdfrwt beam="2">  1       -4 0.16504984E+00 0.43709962E+03</pdfrwt>
<totfact> 0.70911105E+01</totfact>
</mgrwt>
</event>
<event>
 4    0  0.1270151E-001  0.2468817E+03  0.7546771E-02  0.1115291E+00
         21   -1    0    0  501  502  0.00000000000E+00  0.00000000000E+00  0.33803987600E+03  0.33803987600E+03  0.00000000000E+00 0. -1.
          2   -1    0    0  502    0 -0.00000000000E+00 -0.00000000000E+00 -0.57833622089E+03  0.57833622089E+03  0.00000000000E+00 0.  1.
         25    1    1    2    0    0  0.73252510556E+02 -0.19989911385E+03  0.26855007746E+03  0.36478723953E+03  0.12500000000E+03 0.  0.
          2    1    1    2  501    0 -0.73252510556E+02  0.19989911385E+03 -0.50884642235E+03  0.55158885736E+03  0.00000000000E+00 0.  1.
<mgrwt>
<rscale>  3 0.24688172E+03</rscale>
<asrwt>0</asrwt>
<pdfrwt beam="1">  1       21 0.52006135E-01 0.24688172E+03</pdfrwt>
<pdfrwt beam="2">  1        2 0.88974803E-01 0.24688172E+03</pdfrwt>
<totfact> 0.22718388E+03</totfact>
</mgrwt>
</event>
<event>
 4    0  0.1507373E-001  0.2898075E+03  0.7546771E-02  0.1090450E+00
         21   -1    0    0  501  502  0.00000000000E+00  0.00000000000E+00  0.40925929126E+03  0.40925929126E+03  0.00000000000E+00 0.  1.
         -2   -1    0    0    0  501 -0.00000000000E+00 -0.00000000000E+00 -0.19628500675E+03  0.19628500675E+03  0.00000000000E+00 0.  1.
         25    1    1    2    0    0 -0.23758795474E+03  0.10915739447E+03  0.41245446495E+02  0.29272779140E+03  0.12500000000E+03 0.  0.
         -2    1    1    2    0  502  0.23758795474E+03 -0.10915739447E+03  0.17172883802E+03  0.31281650661E+03  0.00000000000E+00 0.  1.
<mgrwt>
<rscale>  3 0.28980748E+03</rscale>
<asrwt>0</asrwt>
<pdfrwt beam="1">  1       21 0.62962968E-01 0.28980748E+03</pdfrwt>
<pdfrwt beam="2">  1       -2 0.30197693E-01 0.28980748E+03</pdfrwt>
<totfact> 0.18452898E+03</totfact>
</mgrwt>
</event>
<event>
 4    0  0.1002184E-001  0.2516356E+03  0.7546771E-02  0.1112276E+00
          2   -1    0    0  502    0 -0.00000000000E+00  0.00000000000E+00  0.13473249354E+04  0.13473249354E+04  0.00000000000E+00 0. -1.
         21   -1    0    0  501  502  0.00000000000E+00 -0.00000000000E+00 -0.41073724969E+02  0.41073724969E+02  0.00000000000E+00 0.  1.
         25    1    1    2    0    0  0.21771035624E+03  0.17252854799E+02  0.66864217698E+03  0.71442481833E+03  0.12500000000E+03 0.  0.
          2    1    1    2  501    0 -0.21771035624E+03 -0.17252854799E+02  0.63760903350E+03  0.67397384209E+03  0.00000000000E+00 0. -1.
<mgrwt>
<rscale>  3 0.25163557E+03</rscale>
<asrwt>0</asrwt>
<pdfrwt beam="1">  1       21 0.63190356E-02 0.25163557E+03</pdfrwt>
<pdfrwt beam="2">  1        2 0.20728073E+00 0.25163557E+03</pdfrwt>
<totfact> 0.37798940E+04</totfact>
</mgrwt>
</event>
<event>
 4    0  0.1575433E-001  0.2396056E+03  0.7546771E-02  0.1120056E+00
          2   -1    0    0  502    0 -0.00000000000E+00  0.00000000000E+00  0.52675470947E+03  0.52675470947E+03  0.00000000000E+00 0.  1.
         21   -1    0    0  501  502  0.00000000000E+00 -0.00000000000E+00 -0.95270658901E+02  0.95270658901E+02  0.00000000000E+00 0.  1.
         25    1    1    2    0    0  0.86717550294E+02 -0.18511055993E+03  0.27395231501E+03  0.36395154049E+03  0.12500000000E+03 0.  0.
          2    1    1    2  501    0 -0.86717550294E+02  0.18511055993E+03  0.15753173555E+03  0.25807382787E+03  0.00000000000E+00 0.  1.
<mgrwt>
<rscale>  3 0.23960562E+03</rscale>
<asrwt>0</asrwt>
<pdfrwt beam="1">  1       21 0.14657025E-01 0.23960562E+03</pdfrwt>
<pdfrwt beam="2">  1        2 0.81039184E-01 0.23960562E+03</pdfrwt>
<totfact> 0.29926533E+04</totfact>
</mgrwt>
</event>
<event>
 4    0  0.1002184E-001  0.2373662E+03  0.7546771E-02  0.1121560E+00
         21   -1    0    0  501  502  0.00000000000E+00  0.00000000000E+00  0.92259044627E+03  0.92259044627E+03  0.00000000000E+00 0. -1.
          2   -1    0    0  502    0 -0.00000000000E+00 -0.00000000000E+00 -0.11884382618E+03  0.11884382618E+03  0.00000000000E+00 0. -1.
         25    1    1    2    0    0 -0.87922101578E+02 -0.18162438782E+03  0.80539104645E+03  0.83964126381E+03  0.12500000000E+03 0.  0.
          2    1    1    2  501    0  0.87922101578E+02  0.18162438782E+03 -0.16444263532E+01  0.20179300864E+03  0.00000000000E+00 0. -1.
<mgrwt>
<rscale>  3 0.23736620E+03</rscale>
<asrwt>0</asrwt>
<pdfrwt beam="1">  1       21 0.14193699E+00 0.23736620E+03</pdfrwt>
<pdfrwt beam="2">  1        2 0.18283666E-01 0.23736620E+03</pdfrwt>
<totfact> 0.12724537E+03</totfact>
</mgrwt>
</event>
<event>
 4    0  0.1002184E-001  0.3043415E+03  0.7546771E-02  0.1083090E+00
          2   -1    0    0  502    0 -0.00000000000E+00  0.00000000000E+00  0.39513196233E+03  0.39513196233E+03  0.00000000000E+00 0.  1.
         21   -1    0    0  501  502  0.00000000000E+00 -0.00000000000E+00 -0.23145956620E+03  0.23145956620E+03  0.00000000000E+00 0. -1.
         25    1    1    2    0    0 -0.80828485021E+02 -0.26545344241E+03 -0.17584803802E+00  0.30434159262E+03  0.12500000000E+03 0.  0.
          2    1    1    2  501    0  0.80828485021E+02  0.26545344241E+03  0.16384824416E+03  0.32224993591E+03  0.00000000000E+00 0.  1.
<mgrwt>
<rscale>  3 0.30434154E+03</rscale>
<asrwt>0</asrwt>
<pdfrwt beam="1">  1       21 0.35609164E-01 0.30434154E+03</pdfrwt>
<pdfrwt beam="2">  1        2 0.60789533E-01 0.30434154E+03</pdfrwt>
<totfact> 0.74800779E+03</totfact>
</mgrwt>
</event>
<event>
 4    0  0.1577401E-001  0.2809266E+03  0.7546771E-02  0.1095184E+00
         21   -1    0    0  501  502  0.00000000000E+00  0.00000000000E+00  0.28798396085E+03  0.28798396085E+03  0.00000000000E+00 0.  1.
          1   -1    0    0  502    0 -0.00000000000E+00 -0.00000000000E+00 -0.17465834579E+04  0.17465834579E+04  0.00000000000E+00 0. -1.
         25    1    1    2    0    0  0.18182776215E+03  0.17387758813E+03  0.20770811297E+03  0.34937431350E+03  0.12500000000E+03 0.  0.
          1    1    1    2  501    0 -0.18182776215E+03 -0.17387758813E+03 -0.16663076100E+04  0.16851931052E+04  0.00000000000E+00 0. -1.
<mgrwt>
<rscale>  3 0.28092659E+03</rscale>
<asrwt>0</asrwt>
<pdfrwt beam="1">  1       21 0.44305225E-01 0.28092659E+03</pdfrwt>
<pdfrwt beam="2">  1        1 0.26870515E+00 0.28092659E+03</pdfrwt>
<totfact> 0.25912670E+02</totfact>
</mgrwt>
</event>
<event>
 4    0  0.1002184E-001  0.3167629E+03  0.7546771E-02  0.1077149E+00
          2   -1    0    0  502    0 -0.00000000000E+00  0.00000000000E+00  0.16619508599E+03  0.16619508599E+03  0.00000000000E+00 0. -1.
         21   -1    0    0  501  502  0.00000000000E+00 -0.00000000000E+00 -0.89441825437E+03  0.89441825437E+03  0.00000000000E+00 0. -1.
         25    1    1    2    0    0  0.26536147135E+03 -0.11957013462E+03 -0.47535551785E+02  0.32030978170E+03  0.12500000000E+03 0.  0.
          2    1    1    2  501    0 -0.26536147135E+03  0.11957013462E+03 -0.68068761660E+03  0.74030355866E+03  0.00000000000E+00 0. -1.
<mgrwt>
<rscale>  3 0.31676289E+03</rscale>
<asrwt>0</asrwt>
<pdfrwt beam="1">  1       21 0.13760281E+00 0.31676289E+03</pdfrwt>
<pdfrwt beam="2">  1        2 0.25568474E-01 0.31676289E+03</pdfrwt>
<totfact> 0.91231779E+02</totfact>
</mgrwt>
</event>
<event>
 4    0  0.1002184E-001  0.3615148E+03  0.7546771E-02  0.1057986E+00
         21   -1    0    0  501  502  0.00000000000E+00  0.00000000000E+00  0.17929611807E+03  0.17929611807E+03  0.00000000000E+00 0.  1.
          1   -1    0    0  502    0 -0.00000000000E+00 -0.00000000000E+00 -0.79625387065E+03  0.79625387065E+03  0.00000000000E+00 0. -1.
         25    1    1    2    0    0  0.33640228510E+03  0.43605596849E+02 -0.13438989983E+03  0.38568587046E+03  0.12500000000E+03 0.  0.
          1    1    1    2  501    0 -0.33640228510E+03 -0.43605596849E+02 -0.48256785275E+03  0.58986411825E+03  0.00000000000E+00 0. -1.
<mgrwt>
<rscale>  3 0.36151479E+03</rscale>
<asrwt>0</asrwt>
<pdfrwt beam="1">  1       21 0.27584018E-01 0.36151479E+03</pdfrwt>
<pdfrwt beam="2">  1        1 0.12250060E+00 0.36151479E+03</pdfrwt>
<totfact> 0.30888469E+03</totfact>
</mgrwt>
</event>
<event>
 4    0  0.1383690E-001  0.4700408E+03  0.7546771E-02  0.1021909E+00
          2   -1    0    0  502    0 -0.00000000000E+00  0.00000000000E+00  0.12609890606E+04  0.12609890606E+04  0.00000000000E+00 0. -1.
         21   -1    0    0  501  502  0.00000000000E+00 -0.00000000000E+00 -0.29804054897E+03  0.29804054897E+03  0.00000000000E+00 0. -1.
         25    1    1    2    0    0  0.36655251656E+03  0.26636930100E+03 -0.26476110381E+02  0.47078587100E+03  0.12500000000E+03 0.  0.
          2    1    1    2  501    0 -0.36655251656E+03 -0.26636930100E+03  0.98942462200E+03  0.10882437386E+04  0.00000000000E+00 0. -1.
<mgrwt>
<rscale>  3 0.47004080E+03</rscale>
<asrwt>0</asrwt>
<pdfrwt beam="1">  1       21 0.45852393E-01 0.47004080E+03</pdfrwt>
<pdfrwt beam="2">  1        2 0.19399831E+00 0.47004080E+03</pdfrwt>
<totfact> 0.96654182E+02</totfact>
</mgrwt>
</event>
<event>
 4    0  0.1433393E-001  0.2808014E+03  0.7546771E-02  0.1095252E+00
          4   -1    0    0  502    0 -0.00000000000E+00  0.00000000000E+00  0.72445376292E+03  0.72445376292E+03  0.00000000000E+00 0. -1.
         21   -1    0    0  501  502  0.00000000000E+00 -0.00000000000E+00 -0.23245217780E+03  0.23245217780E+03  0.00000000000E+00 0. -1.
         25    1    1    2    0    0 -0.23178546314E+03  0.97467691467E+02 -0.11226503215E+03  0.30241178755E+03  0.12500000000E+03 0.  0.
          4    1    1    2  501    0  0.23178546314E+03 -0.97467691467E+02  0.60426661726E+03  0.65449415317E+03  0.00000000000E+00 0. -1.
<mgrwt>
<rscale>  3 0.28080145E+03</rscale>
<asrwt>0</asrwt>
<pdfrwt beam="1">  1       21 0.35761874E-01 0.28080145E+03</pdfrwt>
<pdfrwt beam="2">  1        4 0.11145442E+00 0.28080145E+03</pdfrwt>
<totfact> 0.20721999E+02</totfact>
</mgrwt>
</event>
<event>
 4    0  0.1002184E-001  0.2405591E+03  0.7546771E-02  0.1119421E+00
         21   -1    0    0  501  502  0.00000000000E+00  0.00000000000E+00  0.27639490343E+03  0.27639490343E+03  0.00000000000E+00 0. -1.
          2   -1    0    0  502    0 -0.00000000000E+00 -0.00000000000E+00 -0.33371984826E+03  0.33371984826E+03  0.00000000000E+00 0.  1.
         25    1    1    2    0    0  0.34535534377E+02 -0.20261046101E+03  0.17682363291E+03  0.29855535366E+03  0.12500000000E+03 0.  0.
          2    1    1    2  501    0 -0.34535534377E+02  0.20261046101E+03 -0.23414857774E+03  0.31155939803E+03  0.00000000000E+00 0.  1.
<mgrwt>
<rscale>  3 0.24055914E+03</rscale>
<asrwt>0</asrwt>
<pdfrwt beam="1">  1       21 0.42522293E-01 0.24055914E+03</pdfrwt>
<pdfrwt beam="2">  1        2 0.51341515E-01 0.24055914E+03</pdfrwt>
<totfact> 0.63556974E+03</totfact>
</mgrwt>
</event>
<event>
 4    0  0.1002184E-001  0.4832077E+03  0.7546771E-02  0.1018257E+00
         21   -1    0    0  501  502  0.00000000000E+00  0.00000000000E+00  0.82477265332E+03  0.82477265332E+03  0.00000000000E+00 0. -1.
          1   -1    0    0  502    0 -0.00000000000E+00 -0.00000000000E+00 -0.33689563587E+03  0.33689563587E+03  0.00000000000E+00 0. -1.
         25    1    1    2    0    0 -0.41553248167E+03 -0.21259678830E+03  0.49921628508E+03  0.69477085216E+03  0.12500000000E+03 0.  0.
          1    1    1    2  501    0  0.41553248167E+03  0.21259678830E+03 -0.11339267625E+02  0.46689743703E+03  0.00000000000E+00 0. -1.
<mgrwt>
<rscale>  3 0.48320765E+03</rscale>
<asrwt>0</asrwt>
<pdfrwt beam="1">  1       21 0.12688810E+00 0.48320765E+03</pdfrwt>
<pdfrwt beam="2">  1        1 0.51830098E-01 0.48320765E+03</pdfrwt>
<totfact> 0.33768936E+02</totfact>
</mgrwt>
</event>
<event>
 4    0  0.1002184E-001  0.3085400E+03  0.7546771E-02  0.1081048E+00
          2   -1    0    0  502    0 -0.00000000000E+00  0.00000000000E+00  0.20818777103E+04  0.20818777103E+04  0.00000000000E+00 0. -1.
         21   -1    0    0  501  502  0.00000000000E+00 -0.00000000000E+00 -0.48488139879E+02  0.48488139879E+02  0.00000000000E+00 0.  1.
         25    1    1    2    0    0  0.24248391734E+03  0.14413000303E+03  0.66344000826E+03  0.73167585207E+03  0.12500000000E+03 0.  0.
          2    1    1    2  501    0 -0.24248391734E+03 -0.14413000303E+03  0.13699495621E+04  0.13986899981E+04  0.00000000000E+00 0. -1.
<mgrwt>
<rscale>  3 0.30853996E+03</rscale>
<asrwt>0</asrwt>
<pdfrwt beam="1">  1       21 0.74597154E-02 0.30853996E+03</pdfrwt>
<pdfrwt beam="2">  1        2 0.32028881E+00 0.30853996E+03</pdfrwt>
<totfact> 0.11377508E+04</totfact>
</mgrwt>
</event>
<event>
 4    0  0.2144835E-001  0.2414213E+03  0.7546771E-02  0.1118850E+00
         -3   -1    0    0    0  501 -0.00000000000E+00  0.00000000000E+00  0.73439154155E+03  0.73439154155E+03  0.00000000000E+00 0.  1.
         21   -1    0    0  501  502  0.00000000000E+00 -0.00000000000E+00 -0.14456489551E+03  0.14456489551E+03  0.00000000000E+00 0.  1.
         25    1    1    2    0    0  0.17782987601E+03 -0.10505133370E+03  0.62448595783E+03  0.66952741470E+03  0.12500000000E+03 0.  0.
         -3    1    1    2    0  502 -0.17782987601E+03  0.10505133370E+03 -0.34659311780E+02  0.20942902236E+03  0.00000000000E+00 0.  1.
<mgrwt>
<rscale>  3 0.24142131E+03</rscale>
<asrwt>0</asrwt>
<pdfrwt beam="1">  1       21 0.22240754E-01 0.24142131E+03</pdfrwt>
<pdfrwt beam="2">  1       -3 0.11298331E+00 0.24142131E+03</pdfrwt>
<totfact> 0.63324081E+02</totfact>
</mgrwt>
</event>
<event>
 4    0  0.1002184E-001  0.2851285E+03  0.7546771E-02  0.1092920E+00
          1   -1    0    0  502    0 -0.00000000000E+00  0.00000000000E+00  0.10912305396E+04  0.10912305396E+04  0.00000000000E+00 0. -1.
         21   -1    0    0  501  502  0.00000000000E+00 -0.00000000000E+00 -0.81157004432E+02  0.81157004432E+02  0.00000000000E+00 0.  1.
         25    1    1    2    0    0  0.19178830140E+02 -0.25554929962E+03  0.28408153680E+03  0.40249297089E+03  0.12500000000E+03 0.  0.
          1    1    1    2  501    0 -0.19178830140E+02  0.25554929962E+03  0.72599199840E+03  0.76989457318E+03  0.00000000000E+00 0. -1.
<mgrwt>
<rscale>  3 0.28512852E+03</rscale>
<asrwt>0</asrwt>
<pdfrwt beam="1">  1       21 0.12485694E-01 0.28512852E+03</pdfrwt>
<pdfrwt beam="2">  1        1 0.16788161E+00 0.28512852E+03</pdfrwt>
<totfact> 0.82136187E+03</totfact>
</mgrwt>
</event>
<event>
 4    0  0.1597581E-001  0.2398009E+03  0.7546771E-02  0.1119926E+00
          2   -1    0    0  502    0 -0.00000000000E+00  0.00000000000E+00  0.66467054129E+03  0.66467054129E+03  0.00000000000E+00 0. -1.
         21   -1    0    0  501  502  0.00000000000E+00 -0.00000000000E+00 -0.75704952792E+02  0.75704952792E+02  0.00000000000E+00 0. -1.
         25    1    1    2    0    0  0.49467273439E+02  0.19857605427E+03  0.36767375546E+03  0.43896292659E+03  0.12500000000E+03 0.  0.
          2    1    1    2  501    0 -0.49467273439E+02 -0.19857605427E+03  0.22129183304E+03  0.30141256749E+03  0.00000000000E+00 0. -1.
<mgrwt>
<rscale>  3 0.23980088E+03</rscale>
<asrwt>0</asrwt>
<pdfrwt beam="1">  1       21 0.11646916E-01 0.23980088E+03</pdfrwt>
<pdfrwt beam="2">  1        2 0.10225700E+00 0.23980088E+03</pdfrwt>
<totfact> 0.34640057E+04</totfact>
</mgrwt>
</event>
<event>
 4    0  0.1328039E-001  0.3134143E+03  0.7546771E-02  0.1078721E+00
          1   -1    0    0  502    0 -0.00000000000E+00  0.00000000000E+00  0.39826157135E+03  0.39826157135E+03  0.00000000000E+00 0.  1.
         21   -1    0    0  501  502  0.00000000000E+00 -0.00000000000E+00 -0.28295998885E+03  0.28295998885E+03  0.00000000000E+00 0.  1.
         25    1    1    2    0    0 -0.22857262714E+03  0.17423570870E+03  0.21154530043E+03  0.37812688637E+03  0.12500000000E+03 0.  0.
          1    1    1    2  501    0  0.22857262714E+03 -0.17423570870E+03 -0.96243717923E+02  0.30309467383E+03  0.00000000000E+00 0.  1.
<mgrwt>
<rscale>  3 0.31341431E+03</rscale>
<asrwt>0</asrwt>
<pdfrwt beam="1">  1       21 0.43532306E-01 0.31341431E+03</pdfrwt>
<pdfrwt beam="2">  1        1 0.61271011E-01 0.31341431E+03</pdfrwt>
<totfact> 0.32813081E+03</totfact>
</mgrwt>
</event>
<event>
 4    0  0.1424917E-001  0.2909750E+03  0.7546771E-02  0.1089841E+00
          2   -1    0    0  502    0 -0.00000000000E+00  0.00000000000E+00  0.26933616832E+04  0.26933616832E+04  0.00000000000E+00 0.  1.
         21   -1    0    0  501  502  0.00000000000E+00 -0.00000000000E+00 -0.33302500551E+02  0.33302500551E+02  0.00000000000E+00 0.  1.
         25    1    1    2    0    0 -0.22754271655E+03 -0.13139922961E+03  0.86869174983E+03  0.91612870363E+03  0.12500000000E+03 0.  0.
          2    1    1    2  501    0  0.22754271655E+03  0.13139922961E+03  0.17913674329E+04  0.18105354802E+04  0.00000000000E+00 0.  1.
<mgrwt>
<rscale>  3 0.29097499E+03</rscale>
<asrwt>0</asrwt>
<pdfrwt beam="1">  1       21 0.51234637E-02 0.29097499E+03</pdfrwt>
<pdfrwt beam="2">  1        2 0.41436316E+00 0.29097499E+03</pdfrwt>
<totfact> 0.10182843E+04</totfact>
</mgrwt>
</event>
<event>
 4    0  0.1060929E-001  0.3569780E+03  0.7546771E-02  0.1059787E+00
         21   -1    0    0  501  502  0.00000000000E+00  0.00000000000E+00  0.28793459897E+03  0.28793459897E+03  0.00000000000E+00 0. -1.
          2   -1    0    0  502    0 -0.00000000000E+00 -0.00000000000E+00 -0.58185791179E+03  0.58185791179E+03  0.00000000000E+00 0.  1.
         25    1    1    2    0    0  0.33426030214E+03  0.88524954013E+01  0.82412288647E+02  0.36636744067E+03  0.12500000000E+03 0.  0.
          2    1    1    2  501    0 -0.33426030214E+03 -0.88524954013E+01 -0.37633560146E+03  0.50342507009E+03  0.00000000000E+00 0.  1.
<mgrwt>
<rscale>  3 0.35697803E+03</rscale>
<asrwt>0</asrwt>
<pdfrwt beam="1">  1       21 0.44297631E-01 0.35697803E+03</pdfrwt>
<pdfrwt beam="2">  1        2 0.89516601E-01 0.35697803E+03</pdfrwt>
<totfact> 0.30606063E+03</totfact>
</mgrwt>
</event>
<event>
 4    0  0.1002184E-001  0.2385233E+03  0.7546771E-02  0.1120780E+00
         21   -1    0    0  501  502  0.00000000000E+00  0.00000000000E+00  0.44693232620E+03  0.44693232620E+03  0.00000000000E+00 0. -1.
          2   -1    0    0  502    0 -0.00000000000E+00 -0.00000000000E+00 -0.12379633376E+03  0.12379633376E+03  0.00000000000E+00 0.  1.
         25    1    1    2    0    0  0.16022270172E+03 -0.12488810218E+03  0.27096124386E+03  0.36098940136E+03  0.12500000000E+03 0.  0.
          2    1    1    2  501    0 -0.16022270172E+03  0.12488810218E+03  0.52174748575E+02  0.20973925861E+03  0.00000000000E+00 0.  1.
<mgrwt>
<rscale>  3 0.23852327E+03</rscale>
<asrwt>0</asrwt>
<pdfrwt beam="1">  1       21 0.68758819E-01 0.23852327E+03</pdfrwt>
<pdfrwt beam="2">  1        2 0.19045590E-01 0.23852327E+03</pdfrwt>
<totfact> 0.68467596E+03</totfact>
</mgrwt>
</event>
<event>
 4    0  0.1539515E-001  0.3201607E+03  0.7546771E-02  0.1075575E+00
          2   -1    0    0  502    0 -0.00000000000E+00  0.00000000000E+00  0.89774391394E+03  0.89774391394E+03  0.00000000000E+00 0. -1.
         21   -1    0    0  501  502  0.00000000000E+00 -0.00000000000E+00 -0.18705425852E+03  0.18705425852E+03  0.00000000000E+00 0. -1.
         25    1    1    2    0    0  0.11952211359E+03 -0.26942962660E+03  0.51910456616E+01  0.32020275808E+03  0.12500000000E+03 0.  0.
          2    1    1    2  501    0 -0.11952211359E+03  0.26942962660E+03  0.70549860975E+03  0.76459541438E+03  0.00000000000E+00 0. -1.
<mgrwt>
<rscale>  3 0.32016068E+03</rscale>
<asrwt>0</asrwt>
<pdfrwt beam="1">  1       21 0.28777579E-01 0.32016068E+03</pdfrwt>
<pdfrwt beam="2">  1        2 0.13811445E+00 0.32016068E+03</pdfrwt>
<totfact> 0.42898074E+03</totfact>
</mgrwt>
</event>
<event>
 4    0  0.1119700E-001  0.2601927E+03  0.7546771E-02  0.1107028E+00
         21   -1    0    0  501  502  0.00000000000E+00  0.00000000000E+00  0.10508124072E+03  0.10508124072E+03  0.00000000000E+00 0.  1.
          2   -1    0    0  502    0 -0.00000000000E+00 -0.00000000000E+00 -0.30279271378E+04  0.30279271378E+04  0.00000000000E+00 0.  1.
         25    1    1    2    0    0  0.25035251979E+02 -0.22682257693E+03 -0.67832276755E+02  0.26888931369E+03  0.12500000000E+03 0.  0.
          2    1    1    2  501    0 -0.25035251979E+02  0.22682257693E+03 -0.28550136203E+04  0.28641190648E+04  0.00000000000E+00 0.  1.
<mgrwt>
<rscale>  3 0.26019271E+03</rscale>
<asrwt>0</asrwt>
<pdfrwt beam="1">  1       21 0.16166347E-01 0.26019271E+03</pdfrwt>
<pdfrwt beam="2">  1        2 0.46583488E+00 0.26019271E+03</pdfrwt>
<totfact> 0.86275016E+02</totfact>
</mgrwt>
</event>
<event>
 4    0  0.1509774E-001  0.2914979E+03  0.7546771E-02  0.1089570E+00
         21   -1    0    0  501  502  0.00000000000E+00  0.00000000000E+00  0.84235668896E+02  0.84235668896E+02  0.00000000000E+00 0. -1.
          2   -1    0    0  502    0 -0.00000000000E+00 -0.00000000000E+00 -0.95250735564E+03  0.95250735564E+03  0.00000000000E+00 0. -1.
         25    1    1    2    0    0  0.24261624089E+03 -0.10238830044E+03 -0.35067508022E+03  0.45600878971E+03  0.12500000000E+03 0.  0.
          2    1    1    2  501    0 -0.24261624089E+03  0.10238830044E+03 -0.51759660653E+03  0.58073423482E+03  0.00000000000E+00 0. -1.
<mgrwt>
<rscale>  3 0.29149786E+03</rscale>
<asrwt>0</asrwt>
<pdfrwt beam="1">  1       21 0.12959333E-01 0.29149786E+03</pdfrwt>
<pdfrwt beam="2">  1        2 0.14653960E+00 0.29149786E+03</pdfrwt>
<totfact> 0.17891223E+04</totfact>
</mgrwt>
</event>
<event>
 4    0  0.1002184E-001  0.2374516E+03  0.7546771E-02  0.1121502E+00
          2   -1    0    0  502    0 -0.00000000000E+00  0.00000000000E+00  0.35054765199E+04  0.35054765199E+04  0.00000000000E+00 0.  1.
         21   -1    0    0  501  502  0.00000000000E+00 -0.00000000000E+00 -0.32660988221E+02  0.32660988221E+02  0.00000000000E+00 0.  1.
         25    1    1    2    0    0 -0.19278640355E+03  0.59930323712E+02  0.45193014770E+03  0.51051356446E+03  0.12500000000E+03 0.  0.
          2    1    1    2  501    0  0.19278640355E+03 -0.59930323712E+02  0.30208853840E+04  0.30276239437E+04  0.00000000000E+00 0.  1.
<mgrwt>
<rscale>  3 0.23745156E+03</rscale>
<asrwt>0</asrwt>
<pdfrwt beam="1">  1       21 0.50247702E-02 0.23745156E+03</pdfrwt>
<pdfrwt beam="2">  1        2 0.53930378E+00 0.23745156E+03</pdfrwt>
<totfact> 0.34668824E+03</totfact>
</mgrwt>
</event>
<event>
 4    0  0.1404229E-001  0.3559481E+03  0.7546771E-02  0.1060200E+00
          2   -1    0    0  502    0 -0.00000000000E+00  0.00000000000E+00  0.65650667432E+03  0.65650667432E+03  0.00000000000E+00 0.  1.
         21   -1    0    0  501  502  0.00000000000E+00 -0.00000000000E+00 -0.64754002269E+03  0.64754002269E+03  0.00000000000E+00 0.  1.
         25    1    1    2    0    0 -0.31825676160E+03  0.98927500751E+02 -0.54889955087E+03  0.65420924302E+03  0.12500000000E+03 0.  0.
          2    1    1    2  501    0  0.31825676160E+03 -0.98927500751E+02  0.55786620250E+03  0.64983745398E+03  0.00000000000E+00 0.  1.
<mgrwt>
<rscale>  3 0.35594805E+03</rscale>
<asrwt>0</asrwt>
<pdfrwt beam="1">  1       21 0.99621543E-01 0.35594805E+03</pdfrwt>
<pdfrwt beam="2">  1        2 0.10100103E+00 0.35594805E+03</pdfrwt>
<totfact> 0.43646857E+02</totfact>
</mgrwt>
</event>
<event>
 4    0  0.1035234E-001  0.4452445E+03  0.7546771E-02  0.1029150E+00
          2   -1    0    0  502    0 -0.00000000000E+00  0.00000000000E+00  0.11925588781E+04  0.11925588781E+04  0.00000000000E+00 0. -1.
         21   -1    0    0  501  502  0.00000000000E+00 -0.00000000000E+00 -0.23757319094E+03  0.23757319094E+03  0.00000000000E+00 0.  1.
         25    1    1    2    0    0  0.24752800499E+03  0.34834972477E+03  0.74516200205E+02  0.45143693701E+03  0.12500000000E+03 0.  0.
          2    1    1    2  501    0 -0.24752800499E+03 -0.34834972477E+03  0.88046948696E+03  0.97869513204E+03  0.00000000000E+00 0. -1.
<mgrwt>
<rscale>  3 0.44524448E+03</rscale>
<asrwt>0</asrwt>
<pdfrwt beam="1">  1       21 0.36549723E-01 0.44524448E+03</pdfrwt>
<pdfrwt beam="2">  1        2 0.18347059E+00 0.44524448E+03</pdfrwt>
<totfact> 0.17021418E+03</totfact>
</mgrwt>
</event>
<event>
 4    0  0.1303132E-001  0.4740966E+03  0.7546771E-02  0.1020770E+00
          1   -1    0    0  502    0 -0.00000000000E+00  0.00000000000E+00  0.87422939296E+03  0.87422939296E+03  0.00000000000E+00 0.  1.
         21   -1    0    0  501  502  0.00000000000E+00 -0.00000000000E+00 -0.29587074107E+03  0.29587074107E+03  0.00000000000E+00 0.  1.
         25    1    1    2    0    0  0.60681498072E+02  0.45327735209E+03  0.58461956170E+02  0.47768755735E+03  0.12500000000E+03 0.  0.
          1    1    1    2  501    0 -0.60681498072E+02 -0.45327735209E+03  0.51989669572E+03  0.69241257668E+03  0.00000000000E+00 0.  1.
<mgrwt>
<rscale>  3 0.47409662E+03</rscale>
<asrwt>0</asrwt>
<pdfrwt beam="1">  1       21 0.45518576E-01 0.47409662E+03</pdfrwt>
<pdfrwt beam="2">  1        1 0.13449683E+00 0.47409662E+03</pdfrwt>
<totfact> 0.93999107E+02</totfact>
</mgrwt>
</event>
<event>
 4    0  0.1470480E-001  0.2648882E+03  0.7546771E-02  0.1104241E+00
          1   -1    0    0  502    0 -0.00000000000E+00  0.00000000000E+00  0.95139098105E+03  0.95139098105E+03  0.00000000000E+00 0. -1.
         21   -1    0    0  501  502  0.00000000000E+00 -0.00000000000E+00 -0.12055125749E+03  0.12055125749E+03  0.00000000000E+00 0. -1.
         25    1    1    2    0    0  0.72424997938E+02 -0.22202567336E+03  0.67044984184E+02  0.27324130336E+03  0.12500000000E+03 0.  0.
          1    1    1    2  501    0 -0.72424997938E+02  0.22202567336E+03  0.76379473937E+03  0.79870093518E+03  0.00000000000E+00 0. -1.
<mgrwt>
<rscale>  3 0.26488824E+03</rscale>
<asrwt>0</asrwt>
<pdfrwt beam="1">  1       21 0.18546348E-01 0.26488824E+03</pdfrwt>
<pdfrwt beam="2">  1        1 0.14636784E+00 0.26488824E+03</pdfrwt>
<totfact> 0.50709247E+03</totfact>
</mgrwt>
</event>
<event>
 4    0  0.1206162E-001  0.5367080E+03  0.7546771E-02  0.1004618E+00
         -2   -1    0    0    0  501 -0.00000000000E+00  0.00000000000E+00  0.23392046272E+04  0.23392046272E+04  0.00000000000E+00 0.  1.
         21   -1    0    0  501  502  0.00000000000E+00 -0.00000000000E+00 -0.23167445374E+03  0.23167445374E+03  0.00000000000E+00 0.  1.
         25    1    1    2    0    0  0.21183812291E+03 -0.47702738462E+03  0.16806298349E+03  0.56240615432E+03  0.12500000000E+03 0.  0.
         -2    1    1    2    0  502 -0.21183812291E+03  0.47702738462E+03  0.19394671899E+04  0.20084729266E+04  0.00000000000E+00 0.  1.
<mgrwt>
<rscale>  3 0.53670804E+03</rscale>
<asrwt>0</asrwt>
<pdfrwt beam="1">  1       21 0.35642225E-01 0.53670804E+03</pdfrwt>
<pdfrwt beam="2">  1       -2 0.35987762E+00 0.53670804E+03</pdfrwt>
<totfact> 0.86521887E+00</totfact>
</mgrwt>
</event>
<event>
 4    0  0.1002184E-001  0.3238094E+03  0.7546771E-02  0.1073909E+00
         21   -1    0    0  501  502  0.00000000000E+00  0.00000000000E+00  0.26555599810E+03  0.26555599810E+03  0.00000000000E+00 0.  1.
          1   -1    0    0  502    0 -0.00000000000E+00 -0.00000000000E+00 -0.45655615142E+03  0.45655615142E+03  0.00000000000E+00 0. -1.
         25    1    1    2    0    0 -0.22391420673E+03 -0.19771174660E+03  0.63154452204E+02  0.32991058115E+03  0.12500000000E+03 0.  0.
          1    1    1    2  501    0  0.22391420673E+03  0.19771174660E+03 -0.25415460553E+03  0.39220156837E+03  0.00000000000E+00 0. -1.
<mgrwt>
<rscale>  3 0.32380937E+03</rscale>
<asrwt>0</asrwt>
<pdfrwt beam="1">  1       21 0.40854770E-01 0.32380937E+03</pdfrwt>
<pdfrwt beam="2">  1        1 0.70239407E-01 0.32380937E+03</pdfrwt>
<totfact> 0.31210185E+03</totfact>
</mgrwt>
</event>
<event>
 4    0  0.1245403E-001  0.4479325E+03  0.7546771E-02  0.1028340E+00
         21   -1    0    0  501  502  0.00000000000E+00  0.00000000000E+00  0.16585236131E+03  0.16585236131E+03  0.00000000000E+00 0. -1.
          2   -1    0    0  502    0 -0.00000000000E+00 -0.00000000000E+00 -0.21286904826E+04  0.21286904826E+04  0.00000000000E+00 0. -1.
         25    1    1    2    0    0 -0.12397328514E+03  0.41188487913E+03 -0.21930828438E+03  0.49873806018E+03  0.12500000000E+03 0.  0.
          2    1    1    2  501    0  0.12397328514E+03 -0.41188487913E+03 -0.17435298369E+04  0.17958047837E+04  0.00000000000E+00 0. -1.
<mgrwt>
<rscale>  3 0.44793251E+03</rscale>
<asrwt>0</asrwt>
<pdfrwt beam="1">  1       21 0.25515750E-01 0.44793251E+03</pdfrwt>
<pdfrwt beam="2">  1        2 0.32749081E+00 0.44793251E+03</pdfrwt>
<totfact> 0.10726834E+03</totfact>
</mgrwt>
</event>
<event>
 4    0  0.1002184E-001  0.2720995E+03  0.7546771E-02  0.1100084E+00
         21   -1    0    0  501  502  0.00000000000E+00  0.00000000000E+00  0.28750104601E+03  0.28750104601E+03  0.00000000000E+00 0.  1.
         -3   -1    0    0    0  501 -0.00000000000E+00 -0.00000000000E+00 -0.24441918690E+03  0.24441918690E+03  0.00000000000E+00 0. -1.
         25    1    1    2    0    0 -0.14306401715E+03 -0.19479684760E+03  0.88239767245E+02  0.28604961346E+03  0.12500000000E+03 0.  0.
         -3    1    1    2    0  502  0.14306401715E+03  0.19479684760E+03 -0.45157908136E+02  0.24587061944E+03  0.00000000000E+00 0. -1.
<mgrwt>
<rscale>  3 0.27209948E+03</rscale>
<asrwt>0</asrwt>
<pdfrwt beam="1">  1       21 0.44230930E-01 0.27209948E+03</pdfrwt>
<pdfrwt beam="2">  1       -3 0.37602952E-01 0.27209948E+03</pdfrwt>
<totfact> 0.16865849E+03</totfact>
</mgrwt>
</event>
<event>
 4    0  0.1002184E-001  0.2704597E+03  0.7546771E-02  0.1101017E+00
          2   -1    0    0  502    0 -0.00000000000E+00  0.00000000000E+00  0.41243955380E+02  0.41243955380E+02  0.00000000000E+00 0. -1.
         21   -1    0    0  501  502  0.00000000000E+00 -0.00000000000E+00 -0.17214184315E+04  0.17214184315E+04  0.00000000000E+00 0. -1.
         25    1    1    2    0    0  0.23251386812E+03  0.58828118732E+02 -0.11398772287E+04  0.11715240257E+04  0.12500000000E+03 0.  0.
          2    1    1    2  501    0 -0.23251386812E+03 -0.58828118732E+02 -0.54029724746E+03  0.59113836116E+03  0.00000000000E+00 0. -1.
<mgrwt>
<rscale>  3 0.27045969E+03</rscale>
<asrwt>0</asrwt>
<pdfrwt beam="1">  1       21 0.26483368E+00 0.27045969E+03</pdfrwt>
<pdfrwt beam="2">  1        2 0.63452220E-02 0.27045969E+03</pdfrwt>
<totfact> 0.71267598E+02</totfact>
</mgrwt>
</event>
<event>
 4    0  0.1228955E-001  0.2749049E+03  0.7546771E-02  0.1098505E+00
         -1   -1    0    0    0  501 -0.00000000000E+00  0.00000000000E+00  0.12285325407E+04  0.12285325407E+04  0.00000000000E+00 0. -1.
         21   -1    0    0  501  502  0.00000000000E+00 -0.00000000000E+00 -0.21824866302E+03  0.21824866302E+03  0.00000000000E+00 0.  1.
         25    1    1    2    0    0  0.93369499694E+02  0.22634009198E+03 -0.11292595774E+03  0.29719517601E+03  0.12500000000E+03 0.  0.
         -1    1    1    2    0  502 -0.93369499694E+02 -0.22634009198E+03  0.11232098355E+04  0.11495860277E+04  0.00000000000E+00 0. -1.
<mgrwt>
<rscale>  3 0.27490489E+03</rscale>
<asrwt>0</asrwt>
<pdfrwt beam="1">  1       21 0.33576718E-01 0.27490489E+03</pdfrwt>
<pdfrwt beam="2">  1       -1 0.18900500E+00 0.27490489E+03</pdfrwt>
<totfact> 0.15427467E+02</totfact>
</mgrwt>
</event>
<event>
 4    0  0.1280383E-001  0.3633837E+03  0.7546771E-02  0.1057252E+00
          2   -1    0    0  502    0 -0.00000000000E+00  0.00000000000E+00  0.41210426117E+03  0.41210426117E+03  0.00000000000E+00 0.  1.
         21   -1    0    0  501  502  0.00000000000E+00 -0.00000000000E+00 -0.38891391920E+03  0.38891391920E+03  0.00000000000E+00 0.  1.
         25    1    1    2    0    0 -0.31521688148E+03 -0.13061792245E+03 -0.17828892960E+03  0.40476495211E+03  0.12500000000E+03 0.  0.
          2    1    1    2  501    0  0.31521688148E+03  0.13061792245E+03  0.20147927157E+03  0.39625322827E+03  0.00000000000E+00 0.  1.
<mgrwt>
<rscale>  3 0.36338371E+03</rscale>
<asrwt>0</asrwt>
<pdfrwt beam="1">  1       21 0.59832911E-01 0.36338371E+03</pdfrwt>
<pdfrwt beam="2">  1        2 0.63400655E-01 0.36338371E+03</pdfrwt>
<totfact> 0.23843283E+03</totfact>
</mgrwt>
</event>
<event>
 4    0  0.1547504E-001  0.2557337E+03  0.7546771E-02  0.1109734E+00
         21   -1    0    0  501  502  0.00000000000E+00  0.00000000000E+00  0.55469497659E+02  0.55469497659E+02  0.00000000000E+00 0. -1.
          2   -1    0    0  502    0 -0.00000000000E+00 -0.00000000000E+00 -0.10333790067E+04  0.10333790067E+04  0.00000000000E+00 0. -1.
         25    1    1    2    0    0  0.57035576341E+02  0.21568879350E+03 -0.52233334560E+03  0.58157702545E+03  0.12500000000E+03 0.  0.
          2    1    1    2  501    0 -0.57035576341E+02 -0.21568879350E+03 -0.45557616342E+03  0.50727147888E+03  0.00000000000E+00 0. -1.
<mgrwt>
<rscale>  3 0.25573368E+03</rscale>
<asrwt>0</asrwt>
<pdfrwt beam="1">  1       21 0.85337690E-02 0.25573368E+03</pdfrwt>
<pdfrwt beam="2">  1        2 0.15898138E+00 0.25573368E+03</pdfrwt>
<totfact> 0.33837377E+04</totfact>
</mgrwt>
</event>
<event>
 4    0  0.1192364E-001  0.2654325E+03  0.7546771E-02  0.1103923E+00
          2   -1    0    0  502    0 -0.00000000000E+00  0.00000000000E+00  0.17761228402E+04  0.17761228402E+04  0.00000000000E+00 0.  1.
         21   -1    0    0  501  502  0.00000000000E+00 -0.00000000000E+00 -0.57279561231E+02  0.57279561231E+02  0.00000000000E+00 0. -1.
         25    1    1    2    0    0  0.19657275009E+03  0.12723423050E+03  0.32307442265E+03  0.41812854251E+03  0.12500000000E+03 0.  0.
          2    1    1    2  501    0 -0.19657275009E+03 -0.12723423050E+03  0.13957688563E+04  0.14152738589E+04  0.00000000000E+00 0.  1.
<mgrwt>
<rscale>  3 0.26543247E+03</rscale>
<asrwt>0</asrwt>
<pdfrwt beam="1">  1       21 0.88122416E-02 0.26543247E+03</pdfrwt>
<pdfrwt beam="2">  1        2 0.27324962E+00 0.26543247E+03</pdfrwt>
<totfact> 0.12454489E+04</totfact>
</mgrwt>
</event>
<event>
 4    0  0.1378049E-001  0.2483638E+03  0.7546771E-02  0.1114343E+00
          3   -1    0    0  502    0 -0.00000000000E+00  0.00000000000E+00  0.10141115730E+04  0.10141115730E+04  0.00000000000E+00 0.  1.
         21   -1    0    0  501  502  0.00000000000E+00 -0.00000000000E+00 -0.94706487465E+02  0.94706487465E+02  0.00000000000E+00 0.  1.
         25    1    1    2    0    0  0.30110231177E+02  0.21249218238E+03  0.11033793539E+03  0.27177014843E+03  0.12500000000E+03 0.  0.
          3    1    1    2  501    0 -0.30110231177E+02 -0.21249218238E+03  0.80906715018E+03  0.83704791206E+03  0.00000000000E+00 0.  1.
<mgrwt>
<rscale>  3 0.24836375E+03</rscale>
<asrwt>0</asrwt>
<pdfrwt beam="1">  1       21 0.14570230E-01 0.24836375E+03</pdfrwt>
<pdfrwt beam="2">  1        3 0.15601716E+00 0.24836375E+03</pdfrwt>
<totfact> 0.63238001E+02</totfact>
</mgrwt>
</event>
<event>
 4    0  0.1488188E-001  0.2625346E+03  0.7546771E-02  0.1105630E+00
         21   -1    0    0  501  502  0.00000000000E+00  0.00000000000E+00  0.40839680131E+03  0.40839680131E+03  0.00000000000E+00 0.  1.
          2   -1    0    0  502    0 -0.00000000000E+00 -0.00000000000E+00 -0.16263325141E+04  0.16263325141E+04  0.00000000000E+00 0.  1.
         25    1    1    2    0    0 -0.17812758500E+03  0.14686720019E+03  0.35690083803E+03  0.44306051417E+03  0.12500000000E+03 0.  0.
          2    1    1    2  501    0  0.17812758500E+03 -0.14686720019E+03 -0.15748365509E+04  0.15916688013E+04  0.00000000000E+00 0.  1.
<mgrwt>
<rscale>  3 0.26253459E+03</rscale>
<asrwt>0</asrwt>
<pdfrwt beam="1">  1       21 0.62830276E-01 0.26253459E+03</pdfrwt>
<pdfrwt beam="2">  1        2 0.25020501E+00 0.26253459E+03</pdfrwt>
<totfact> 0.33656494E+02</totfact>
</mgrwt>
</event>
<event>
 4    0  0.1406859E-001  0.2463102E+03  0.7546771E-02  0.1115659E+00
          1   -1    0    0  502    0 -0.00000000000E+00  0.00000000000E+00  0.80361132620E+03  0.80361132620E+03  0.00000000000E+00 0. -1.
         21   -1    0    0  501  502  0.00000000000E+00 -0.00000000000E+00 -0.83060023364E+02  0.83060023364E+02  0.00000000000E+00 0. -1.
         25    1    1    2    0    0 -0.13809315470E+03 -0.16116449807E+03  0.17745075420E+03  0.30357451306E+03  0.12500000000E+03 0.  0.
          1    1    1    2  501    0  0.13809315470E+03  0.16116449807E+03  0.54310054864E+03  0.58309683651E+03  0.00000000000E+00 0. -1.
<mgrwt>
<rscale>  3 0.24631020E+03</rscale>
<asrwt>0</asrwt>
<pdfrwt beam="1">  1       21 0.12778466E-01 0.24631020E+03</pdfrwt>
<pdfrwt beam="2">  1        1 0.12363251E+00 0.24631020E+03</pdfrwt>
<totfact> 0.13248348E+04</totfact>
</mgrwt>
</event>
<event>
 4    0  0.1339522E-001  0.4450967E+03  0.7546771E-02  0.1029194E+00
         21   -1    0    0  501  502  0.00000000000E+00  0.00000000000E+00  0.20189605264E+03  0.20189605264E+03  0.00000000000E+00 0.  1.
          2   -1    0    0  502    0 -0.00000000000E+00 -0.00000000000E+00 -0.99331239874E+03  0.99331239874E+03  0.00000000000E+00 0.  1.
         25    1    1    2    0    0  0.41388391087E+03  0.10576482267E+03 -0.53900252362E+03  0.69902418403E+03  0.12500000000E+03 0.  0.
          2    1    1    2  501    0 -0.41388391087E+03 -0.10576482267E+03 -0.25241382248E+03  0.49618426735E+03  0.00000000000E+00 0.  1.
<mgrwt>
<rscale>  3 0.44509672E+03</rscale>
<asrwt>0</asrwt>
<pdfrwt beam="1">  1       21 0.31060932E-01 0.44509672E+03</pdfrwt>
<pdfrwt beam="2">  1        2 0.15281729E+00 0.44509672E+03</pdfrwt>
<totfact> 0.31156969E+03</totfact>
</mgrwt>
</event>
<event>
 4    0  0.1170107E-001  0.3873134E+03  0.7546771E-02  0.1048263E+00
         21   -1    0    0  501  502  0.00000000000E+00  0.00000000000E+00  0.17508498678E+03  0.17508498678E+03  0.00000000000E+00 0. -1.
          2   -1    0    0  502    0 -0.00000000000E+00 -0.00000000000E+00 -0.23517502105E+04  0.23517502105E+04  0.00000000000E+00 0. -1.
         25    1    1    2    0    0  0.14520138571E+03 -0.33660550488E+03 -0.76348874624E+02  0.39476684130E+03  0.12500000000E+03 0.  0.
          2    1    1    2  501    0 -0.14520138571E+03  0.33660550488E+03 -0.21003163491E+04  0.21320683560E+04  0.00000000000E+00 0. -1.
<mgrwt>
<rscale>  3 0.38731345E+03</rscale>
<asrwt>0</asrwt>
<pdfrwt beam="1">  1       21 0.26936153E-01 0.38731345E+03</pdfrwt>
<pdfrwt beam="2">  1        2 0.36180771E+00 0.38731345E+03</pdfrwt>
<totfact> 0.74536681E+02</totfact>
</mgrwt>
</event>
<event>
 4    0  0.1142887E-001  0.2447136E+03  0.7546771E-02  0.1116692E+00
          2   -1    0    0  502    0 -0.00000000000E+00  0.00000000000E+00  0.24848599808E+04  0.24848599808E+04  0.00000000000E+00 0.  1.
         21   -1    0    0  501  502  0.00000000000E+00 -0.00000000000E+00 -0.15707521266E+03  0.15707521266E+03  0.00000000000E+00 0.  1.
         25    1    1    2    0    0  0.20248749410E+03 -0.57083873194E+02 -0.54228038817E+02  0.25065002302E+03  0.12500000000E+03 0.  0.
          2    1    1    2  501    0 -0.20248749410E+03  0.57083873194E+02  0.23820128070E+04  0.23912851705E+04  0.00000000000E+00 0.  1.
<mgrwt>
<rscale>  3 0.24471362E+03</rscale>
<asrwt>0</asrwt>
<pdfrwt beam="1">  1       21 0.24165419E-01 0.24471362E+03</pdfrwt>
<pdfrwt beam="2">  1        2 0.38228612E+00 0.24471362E+03</pdfrwt>
<totfact> 0.83284483E+02</totfact>
</mgrwt>
</event>
<event>
 4    0  0.1222655E-001  0.2485154E+03  0.7546771E-02  0.1114247E+00
         21   -1    0    0  501  502  0.00000000000E+00  0.00000000000E+00  0.25414115596E+03  0.25414115596E+03  0.00000000000E+00 0.  1.
          4   -1    0    0  502    0 -0.00000000000E+00 -0.00000000000E+00 -0.30353164729E+03  0.30353164729E+03  0.00000000000E+00 0.  1.
         25    1    1    2    0    0  0.66790421508E+02  0.20414201370E+03  0.12759636066E+03  0.27935775166E+03  0.12500000000E+03 0.  0.
          4    1    1    2  501    0 -0.66790421508E+02 -0.20414201370E+03 -0.17698685199E+03  0.27831505158E+03  0.00000000000E+00 0.  1.
<mgrwt>
<rscale>  3 0.24851544E+03</rscale>
<asrwt>0</asrwt>
<pdfrwt beam="1">  1       21 0.39098639E-01 0.24851544E+03</pdfrwt>
<pdfrwt beam="2">  1        4 0.46697177E-01 0.24851544E+03</pdfrwt>
<totfact> 0.11833763E+03</totfact>
</mgrwt>
</event>
<event>
 4    0  0.1201590E-001  0.4113606E+03  0.7546771E-02  0.1039915E+00
          2   -1    0    0  502    0 -0.00000000000E+00  0.00000000000E+00  0.20571893541E+04  0.20571893541E+04  0.00000000000E+00 0. -1.
         21   -1    0    0  501  502  0.00000000000E+00 -0.00000000000E+00 -0.17205014866E+03  0.17205014866E+03  0.00000000000E+00 0.  1.
         25    1    1    2    0    0 -0.21635142459E+03 -0.32677919148E+03  0.13079559010E+03  0.43165387209E+03  0.12500000000E+03 0.  0.
          2    1    1    2  501    0  0.21635142459E+03  0.32677919148E+03  0.17543436154E+04  0.17975856307E+04  0.00000000000E+00 0. -1.
<mgrwt>
<rscale>  3 0.41136064E+03</rscale>
<asrwt>0</asrwt>
<pdfrwt beam="1">  1       21 0.26469255E-01 0.41136064E+03</pdfrwt>
<pdfrwt beam="2">  1        2 0.31649065E+00 0.41136064E+03</pdfrwt>
<totfact> 0.11032783E+03</totfact>
</mgrwt>
</event>
<event>
 4    0  0.1241145E-001  0.2717693E+03  0.7546771E-02  0.1100271E+00
         21   -1    0    0  501  502  0.00000000000E+00  0.00000000000E+00  0.45865859982E+03  0.45865859982E+03  0.00000000000E+00 0. -1.
          3   -1    0    0  502    0 -0.00000000000E+00 -0.00000000000E+00 -0.25523815989E+04  0.25523815989E+04  0.00000000000E+00 0.  1.
         25    1    1    2    0    0  0.17193613628E+03  0.16932664987E+03  0.41208896447E+03  0.49363535524E+03  0.12500000000E+03 0.  0.
          3    1    1    2  501    0 -0.17193613628E+03 -0.16932664987E+03 -0.25058119636E+04  0.25174048435E+04  0.00000000000E+00 0.  1.
<mgrwt>
<rscale>  3 0.27176929E+03</rscale>
<asrwt>0</asrwt>
<pdfrwt beam="1">  1       21 0.70562862E-01 0.27176929E+03</pdfrwt>
<pdfrwt beam="2">  1        3 0.39267409E+00 0.27176929E+03</pdfrwt>
<totfact> 0.12642326E+00</totfact>
</mgrwt>
</event>
<event>
 4    0  0.1002184E-001  0.2472111E+03  0.7546771E-02  0.1115080E+00
         21   -1    0    0  501  502  0.00000000000E+00  0.00000000000E+00  0.24574391061E+03  0.24574391061E+03  0.00000000000E+00 0.  1.
          2   -1    0    0  502    0 -0.00000000000E+00 -0.00000000000E+00 -0.36445515197E+04  0.36445515197E+04  0.00000000000E+00 0. -1.
         25    1    1    2    0    0 -0.21308968755E+03 -0.90064790325E+01  0.17958315950E+03  0.30555432051E+03  0.12500000000E+03 0.  0.
          2    1    1    2  501    0  0.21308968755E+03  0.90064790325E+01 -0.35783907686E+04  0.35847411098E+04  0.00000000000E+00 0. -1.
<mgrwt>
<rscale>  3 0.24721111E+03</rscale>
<asrwt>0</asrwt>
<pdfrwt beam="1">  1       21 0.37806758E-01 0.24721111E+03</pdfrwt>
<pdfrwt beam="2">  1        2 0.56070020E+00 0.24721111E+03</pdfrwt>
<totfact> 0.68823296E+01</totfact>
</mgrwt>
</event>
<event>
 4    0  0.1064578E-001  0.2439238E+03  0.7546771E-02  0.1117206E+00
         21   -1    0    0  501  502  0.00000000000E+00  0.00000000000E+00  0.68096414384E+03  0.68096414384E+03  0.00000000000E+00 0. -1.
          2   -1    0    0  502    0 -0.00000000000E+00 -0.00000000000E+00 -0.84029454613E+02  0.84029454613E+02  0.00000000000E+00 0. -1.
         25    1    1    2    0    0  0.45890102758E+02  0.20437197101E+03  0.44063387795E+03  0.50364374161E+03  0.12500000000E+03 0.  0.
          2    1    1    2  501    0 -0.45890102758E+02 -0.20437197101E+03  0.15630081127E+03  0.26134985684E+03  0.00000000000E+00 0. -1.
<mgrwt>
<rscale>  3 0.24392377E+03</rscale>
<asrwt>0</asrwt>
<pdfrwt beam="1">  1       21 0.10476371E+00 0.24392377E+03</pdfrwt>
<pdfrwt beam="2">  1        2 0.12927609E-01 0.24392377E+03</pdfrwt>
<totfact> 0.40962892E+03</totfact>
</mgrwt>
</event>
<event>
 4    0  0.1342893E-001  0.2525459E+03  0.7546771E-02  0.1111706E+00
          1   -1    0    0  502    0 -0.00000000000E+00  0.00000000000E+00  0.29841761680E+03  0.29841761680E+03  0.00000000000E+00 0. -1.
         21   -1    0    0  501  502  0.00000000000E+00 -0.00000000000E+00 -0.20024242478E+03  0.20024242478E+03  0.00000000000E+00 0. -1.
         25    1    1    2    0    0 -0.21763597634E+03 -0.28089678584E+02 -0.12567644902E+02  0.25285844645E+03  0.12500000000E+03 0.  0.
          1    1    1    2  501    0  0.21763597634E+03  0.28089678584E+02  0.11074283693E+03  0.24580159514E+03  0.00000000000E+00 0. -1.
<mgrwt>
<rscale>  3 0.25254593E+03</rscale>
<asrwt>0</asrwt>
<pdfrwt beam="1">  1       21 0.30806527E-01 0.25254593E+03</pdfrwt>
<pdfrwt beam="2">  1        1 0.45910403E-01 0.25254593E+03</pdfrwt>
<totfact> 0.96408618E+03</totfact>
</mgrwt>
</event>
<event>
 4    0  0.1142405E-001  0.2508869E+03  0.7546771E-02  0.1112746E+00
         21   -1    0    0  501  502  0.00000000000E+00  0.00000000000E+00  0.28422676843E+02  0.28422676843E+02  0.00000000000E+00 0.  1.
          2   -1    0    0  502    0 -0.00000000000E+00 -0.00000000000E+00 -0.29253892021E+04  0.29253892021E+04  0.00000000000E+00 0.  1.
         25    1    1    2    0    0  0.18756401173E+03  0.11017700961E+03 -0.65643716160E+03  0.70274745042E+03  0.12500000000E+03 0.  0.
          2    1    1    2  501    0 -0.18756401173E+03 -0.11017700961E+03 -0.22405293637E+04  0.22510644285E+04  0.00000000000E+00 0.  1.
<mgrwt>
<rscale>  3 0.25088689E+03</rscale>
<asrwt>0</asrwt>
<pdfrwt beam="1">  1       21 0.43727221E-02 0.25088689E+03</pdfrwt>
<pdfrwt beam="2">  1        2 0.45005961E+00 0.25088689E+03</pdfrwt>
<totfact> 0.99671454E+03</totfact>
</mgrwt>
</event>
<event>
 4    0  0.1005256E-001  0.6124427E+03  0.7546771E-02  0.9879922E-01
         21   -1    0    0  501  502  0.00000000000E+00  0.00000000000E+00  0.44227130996E+03  0.44227130996E+03  0.00000000000E+00 0.  1.
          2   -1    0    0  502    0 -0.00000000000E+00 -0.00000000000E+00 -0.16690069047E+04  0.16690069047E+04  0.00000000000E+00 0. -1.
         25    1    1    2    0    0  0.41494700154E+03 -0.43275871618E+03  0.13167809320E+03  0.62643853708E+03  0.12500000000E+03 0.  0.
          2    1    1    2  501    0 -0.41494700154E+03  0.43275871618E+03 -0.13584136879E+04  0.14848396775E+04  0.00000000000E+00 0. -1.
<mgrwt>
<rscale>  3 0.61244275E+03</rscale>
<asrwt>0</asrwt>
<pdfrwt beam="1">  1       21 0.68041739E-01 0.61244275E+03</pdfrwt>
<pdfrwt beam="2">  1        2 0.25677030E+00 0.61244275E+03</pdfrwt>
<totfact> 0.23457549E+02</totfact>
</mgrwt>
</event>
<event>
 4    0  0.1002184E-001  0.2372166E+03  0.7546771E-02  0.1121661E+00
          2   -1    0    0  502    0 -0.00000000000E+00  0.00000000000E+00  0.22811986383E+04  0.22811986383E+04  0.00000000000E+00 0. -1.
         21   -1    0    0  501  502  0.00000000000E+00 -0.00000000000E+00 -0.21112752696E+02  0.21112752696E+02  0.00000000000E+00 0.  1.
         25    1    1    2    0    0  0.76667780771E+02  0.18646382912E+03  0.11982412106E+04  0.12214965030E+04  0.12500000000E+03 0.  0.
          2    1    1    2  501    0 -0.76667780771E+02 -0.18646382912E+03  0.10618446751E+04  0.10808148880E+04  0.00000000000E+00 0. -1.
<mgrwt>
<rscale>  3 0.23721658E+03</rscale>
<asrwt>0</asrwt>
<pdfrwt beam="1">  1       21 0.32481176E-02 0.23721658E+03</pdfrwt>
<pdfrwt beam="2">  1        2 0.35095344E+00 0.23721658E+03</pdfrwt>
<totfact> 0.37592232E+04</totfact>
</mgrwt>
</event>
<event>
 4    0  0.1758096E-001  0.3671086E+03  0.7546771E-02  0.1055804E+00
         21   -1    0    0  501  502  0.00000000000E+00  0.00000000000E+00  0.17028834229E+03  0.17028834229E+03  0.00000000000E+00 0. -1.
         -2   -1    0    0    0  501 -0.00000000000E+00 -0.00000000000E+00 -0.14413342574E+04  0.14413342574E+04  0.00000000000E+00 0. -1.
         25    1    1    2    0    0  0.71210370726E+02  0.33774665837E+03 -0.85613792957E+02  0.37695947220E+03  0.12500000000E+03 0.  0.
         -2    1    1    2    0  502 -0.71210370726E+02 -0.33774665837E+03 -0.11854321221E+04  0.12346631275E+04  0.00000000000E+00 0. -1.
<mgrwt>
<rscale>  3 0.36710860E+03</rscale>
<asrwt>0</asrwt>
<pdfrwt beam="1">  1       21 0.26198206E-01 0.36710860E+03</pdfrwt>
<pdfrwt beam="2">  1       -2 0.22174374E+00 0.36710860E+03</pdfrwt>
<totfact> 0.11381007E+02</totfact>
</mgrwt>
</event>
<event>
 4    0  0.1122711E-001  0.2563706E+03  0.7546771E-02  0.1109344E+00
          1   -1    0    0  502    0 -0.00000000000E+00  0.00000000000E+00  0.11515348149E+03  0.11515348149E+03  0.00000000000E+00 0.  1.
         21   -1    0    0  501  502  0.00000000000E+00 -0.00000000000E+00 -0.60931748036E+03  0.60931748036E+03  0.00000000000E+00 0.  1.
         25    1    1    2    0    0  0.18833512577E+03 -0.12095759555E+03 -0.41354108754E+03  0.48656149725E+03  0.12500000000E+03 0.  0.
          1    1    1    2  501    0 -0.18833512577E+03  0.12095759555E+03 -0.80622911331E+02  0.23790946461E+03  0.00000000000E+00 0.  1.
<mgrwt>
<rscale>  3 0.25637055E+03</rscale>
<asrwt>0</asrwt>
<pdfrwt beam="1">  1       21 0.93741151E-01 0.25637055E+03</pdfrwt>
<pdfrwt beam="2">  1        1 0.17715920E-01 0.25637055E+03</pdfrwt>
<totfact> 0.30079679E+03</totfact>
</mgrwt>
</event>
<event>
 4    0  0.1365612E-001  0.3236996E+03  0.7546771E-02  0.1073959E+00
         21   -1    0    0  501  502  0.00000000000E+00  0.00000000000E+00  0.19048953588E+03  0.19048953588E+03  0.00000000000E+00 0. -1.
          2   -1    0    0  502    0 -0.00000000000E+00 -0.00000000000E+00 -0.55916614303E+03  0.55916614303E+03  0.00000000000E+00 0. -1.
         25    1    1    2    0    0  0.28302424546E+03 -0.95150868806E+02 -0.30415094808E+03  0.44417250092E+03  0.12500000000E+03 0.  0.
          2    1    1    2  501    0 -0.28302424546E+03  0.95150868806E+02 -0.64525659065E+02  0.30548317799E+03  0.00000000000E+00 0. -1.
<mgrwt>
<rscale>  3 0.32369957E+03</rscale>
<asrwt>0</asrwt>
<pdfrwt beam="1">  1       21 0.29306082E-01 0.32369957E+03</pdfrwt>
<pdfrwt beam="2">  1        2 0.86025561E-01 0.32369957E+03</pdfrwt>
<totfact> 0.74371395E+03</totfact>
</mgrwt>
</event>
<event>
 4    0  0.1002184E-001  0.3651584E+03  0.7546771E-02  0.1056560E+00
          2   -1    0    0  502    0 -0.00000000000E+00  0.00000000000E+00  0.24515137318E+04  0.24515137318E+04  0.00000000000E+00 0.  1.
         21   -1    0    0  501  502  0.00000000000E+00 -0.00000000000E+00 -0.56113748466E+02  0.56113748466E+02  0.00000000000E+00 0. -1.
         25    1    1    2    0    0 -0.34142588282E+03  0.33822909563E+02  0.85914192030E+03  0.93352314481E+03  0.12500000000E+03 0.  0.
          2    1    1    2  501    0  0.34142588282E+03 -0.33822909563E+02  0.15362580630E+04  0.15741043354E+04  0.00000000000E+00 0.  1.
<mgrwt>
<rscale>  3 0.36515835E+03</rscale>
<asrwt>0</asrwt>
<pdfrwt beam="1">  1       21 0.86328863E-02 0.36515835E+03</pdfrwt>
<pdfrwt beam="2">  1        2 0.37715588E+00 0.36515835E+03</pdfrwt>
<totfact> 0.54670118E+03</totfact>
</mgrwt>
</event>
<event>
 4    0  0.1337135E-001  0.2612935E+03  0.7546771E-02  0.1106369E+00
         21   -1    0    0  501  502  0.00000000000E+00  0.00000000000E+00  0.46589488541E+03  0.46589488541E+03  0.00000000000E+00 0. -1.
          2   -1    0    0  502    0 -0.00000000000E+00 -0.00000000000E+00 -0.13331108883E+03  0.13331108883E+03  0.00000000000E+00 0. -1.
         25    1    1    2    0    0 -0.11897471910E+03  0.19619963064E+03  0.22905368942E+03  0.34747643299E+03  0.12500000000E+03 0.  0.
          2    1    1    2  501    0  0.11897471910E+03 -0.19619963064E+03  0.10353010716E+03  0.25172954125E+03  0.00000000000E+00 0. -1.
<mgrwt>
<rscale>  3 0.26129347E+03</rscale>
<asrwt>0</asrwt>
<pdfrwt beam="1">  1       21 0.71676135E-01 0.26129347E+03</pdfrwt>
<pdfrwt beam="2">  1        2 0.20509399E-01 0.26129347E+03</pdfrwt>
<totfact> 0.57042373E+03</totfact>
</mgrwt>
</event>
<event>
 4    0  0.1256875E-001  0.2394811E+03  0.7546771E-02  0.1120139E+00
         21   -1    0    0  501  502  0.00000000000E+00  0.00000000000E+00  0.13296767436E+03  0.13296767436E+03  0.00000000000E+00 0. -1.
          2   -1    0    0  502    0 -0.00000000000E+00 -0.00000000000E+00 -0.26300430592E+04  0.26300430592E+04  0.00000000000E+00 0.  1.
         25    1    1    2    0    0  0.20425168080E+03 -0.27331312309E+01  0.17530310859E+02  0.24012190844E+03  0.12500000000E+03 0.  0.
          2    1    1    2  501    0 -0.20425168080E+03  0.27331312309E+01 -0.25146056957E+04  0.25228888251E+04  0.00000000000E+00 0.  1.
<mgrwt>
<rscale>  3 0.23948115E+03</rscale>
<asrwt>0</asrwt>
<pdfrwt beam="1">  1       21 0.20456565E-01 0.23948115E+03</pdfrwt>
<pdfrwt beam="2">  1        2 0.40462202E+00 0.23948115E+03</pdfrwt>
<totfact> 0.95367375E+02</totfact>
</mgrwt>
</event>
<event>
 4    0  0.1247704E-001  0.3364247E+03  0.7546771E-02  0.1068329E+00
         21   -1    0    0  501  502  0.00000000000E+00  0.00000000000E+00  0.54909519360E+03  0.54909519360E+03  0.00000000000E+00 0.  1.
          3   -1    0    0  502    0 -0.00000000000E+00 -0.00000000000E+00 -0.37628138932E+03  0.37628138932E+03  0.00000000000E+00 0.  1.
         25    1    1    2    0    0 -0.23206655916E+03 -0.20904952246E+03  0.41204714457E+03  0.53194401967E+03  0.12500000000E+03 0.  0.
          3    1    1    2  501    0  0.23206655916E+03  0.20904952246E+03 -0.23923334029E+03  0.39343256325E+03  0.00000000000E+00 0.  1.
<mgrwt>
<rscale>  3 0.33642472E+03</rscale>
<asrwt>0</asrwt>
<pdfrwt beam="1">  1       21 0.84476183E-01 0.33642472E+03</pdfrwt>
<pdfrwt beam="2">  1        3 0.57889445E-01 0.33642472E+03</pdfrwt>
<totfact> 0.17132984E+02</totfact>
</mgrwt>
</event>
<event>
 4    0  0.1422703E-001  0.2856688E+03  0.7546771E-02  0.1092632E+00
         21   -1    0    0  501  502  0.00000000000E+00  0.00000000000E+00  0.25069495338E+03  0.25069495338E+03  0.00000000000E+00 0.  1.
          2   -1    0    0  502    0 -0.00000000000E+00 -0.00000000000E+00 -0.69099410968E+03  0.69099410968E+03  0.00000000000E+00 0.  1.
         25    1    1    2    0    0 -0.21800877077E+03 -0.13584497520E+03  0.13177129522E+03  0.31459554298E+03  0.12500000000E+03 0.  0.
          2    1    1    2  501    0  0.21800877077E+03  0.13584497520E+03 -0.57207045152E+03  0.62709352007E+03  0.00000000000E+00 0.  1.
<mgrwt>
<rscale>  3 0.28566883E+03</rscale>
<asrwt>0</asrwt>
<pdfrwt beam="1">  1       21 0.38568454E-01 0.28566883E+03</pdfrwt>
<pdfrwt beam="2">  1        2 0.10630679E+00 0.28566883E+03</pdfrwt>
<totfact> 0.33738089E+03</totfact>
</mgrwt>
</event>
<event>
 4    0  0.1164747E-001  0.3625983E+03  0.7546771E-02  0.1057560E+00
         21   -1    0    0  501  502  0.00000000000E+00  0.00000000000E+00  0.96422558399E+02  0.96422558399E+02  0.00000000000E+00 0. -1.
          1   -1    0    0  502    0 -0.00000000000E+00 -0.00000000000E+00 -0.18605922531E+04  0.18605922531E+04  0.00000000000E+00 0. -1.
         25    1    1    2    0    0 -0.28236173544E+03 -0.19006407337E+03 -0.14471195313E+04  0.14918553682E+04  0.12500000000E+03 0.  0.
          1    1    1    2  501    0  0.28236173544E+03  0.19006407337E+03 -0.31705016343E+03  0.46515944337E+03  0.00000000000E+00 0. -1.
<mgrwt>
<rscale>  3 0.36259826E+03</rscale>
<asrwt>0</asrwt>
<pdfrwt beam="1">  1       21 0.14834240E-01 0.36259826E+03</pdfrwt>
<pdfrwt beam="2">  1        1 0.28624496E+00 0.36259826E+03</pdfrwt>
<totfact> 0.17693174E+03</totfact>
</mgrwt>
</event>
<event>
 4    0  0.1002184E-001  0.2986912E+03  0.7546771E-02  0.1085897E+00
          2   -1    0    0  502    0 -0.00000000000E+00  0.00000000000E+00  0.52344161169E+02  0.52344161169E+02  0.00000000000E+00 0. -1.
         21   -1    0    0  501  502  0.00000000000E+00 -0.00000000000E+00 -0.16177963344E+04  0.16177963344E+04  0.00000000000E+00 0. -1.
         25    1    1    2    0    0  0.27044873745E+03  0.21187843236E+02 -0.65007297684E+03  0.71540989615E+03  0.12500000000E+03 0.  0.
          2    1    1    2  501    0 -0.27044873745E+03 -0.21187843236E+02 -0.91537919641E+03  0.95473059945E+03  0.00000000000E+00 0. -1.
<mgrwt>
<rscale>  3 0.29869122E+03</rscale>
<asrwt>0</asrwt>
<pdfrwt beam="1">  1       21 0.24889172E+00 0.29869122E+03</pdfrwt>
<pdfrwt beam="2">  1        2 0.80529487E-02 0.29869122E+03</pdfrwt>
<totfact> 0.64204338E+02</totfact>
</mgrwt>
</event>
<event>
 4    0  0.1694625E-001  0.2365050E+03  0.7546771E-02  0.1122143E+00
         21   -1    0    0  501  502  0.00000000000E+00  0.00000000000E+00  0.36096717287E+03  0.36096717287E+03  0.00000000000E+00 0.  1.
         -1   -1    0    0    0  501 -0.00000000000E+00 -0.00000000000E+00 -0.52669152413E+03  0.52669152413E+03  0.00000000000E+00 0.  1.
         25    1    1    2    0    0 -0.83389426601E+02  0.18263579789E+03  0.29911170752E+03  0.38131672493E+03  0.12500000000E+03 0.  0.
         -1    1    1    2    0  502  0.83389426601E+02 -0.18263579789E+03 -0.46483605878E+03  0.50634197207E+03  0.00000000000E+00 0.  1.
<mgrwt>
<rscale>  3 0.23650503E+03</rscale>
<asrwt>0</asrwt>
<pdfrwt beam="1">  1       21 0.55533412E-01 0.23650503E+03</pdfrwt>
<pdfrwt beam="2">  1       -1 0.81029465E-01 0.23650503E+03</pdfrwt>
<totfact> 0.44424808E+02</totfact>
</mgrwt>
</event>
<event>
 4    0  0.1515463E-001  0.2410422E+03  0.7546771E-02  0.1119100E+00
         21   -1    0    0  501  502  0.00000000000E+00  0.00000000000E+00  0.24508387308E+03  0.24508387308E+03  0.00000000000E+00 0.  1.
          2   -1    0    0  502    0 -0.00000000000E+00 -0.00000000000E+00 -0.10363257930E+04  0.10363257930E+04  0.00000000000E+00 0. -1.
         25    1    1    2    0    0 -0.15020687884E+02 -0.20554978240E+03  0.17215956712E+03  0.29620980852E+03  0.12500000000E+03 0.  0.
          2    1    1    2  501    0  0.15020687884E+02  0.20554978240E+03 -0.96340148700E+03  0.98519985752E+03  0.00000000000E+00 0. -1.
<mgrwt>
<rscale>  3 0.24104218E+03</rscale>
<asrwt>0</asrwt>
<pdfrwt beam="1">  1       21 0.37705211E-01 0.24104218E+03</pdfrwt>
<pdfrwt beam="2">  1        2 0.15943474E+00 0.24104218E+03</pdfrwt>
<totfact> 0.21059907E+03</totfact>
</mgrwt>
</event>
<event>
 4    0  0.1002184E-001  0.2452256E+03  0.7546771E-02  0.1116360E+00
          2   -1    0    0  502    0 -0.00000000000E+00  0.00000000000E+00  0.64688926292E+02  0.64688926292E+02  0.00000000000E+00 0. -1.
         21   -1    0    0  501  502  0.00000000000E+00 -0.00000000000E+00 -0.12109656537E+04  0.12109656537E+04  0.00000000000E+00 0. -1.
         25    1    1    2    0    0 -0.71978292887E+02 -0.19831716758E+03 -0.97064243075E+03  0.10011405006E+04  0.12500000000E+03 0.  0.
          2    1    1    2  501    0  0.71978292887E+02  0.19831716758E+03 -0.17563429662E+03  0.27451407934E+03  0.00000000000E+00 0. -1.
<mgrwt>
<rscale>  3 0.24522556E+03</rscale>
<asrwt>0</asrwt>
<pdfrwt beam="1">  1       21 0.18630242E+00 0.24522556E+03</pdfrwt>
<pdfrwt beam="2">  1        2 0.99521421E-02 0.24522556E+03</pdfrwt>
<totfact> 0.12519200E+03</totfact>
</mgrwt>
</event>
<event>
 4    0  0.1165938E-001  0.2979395E+03  0.7546771E-02  0.1086275E+00
          2   -1    0    0  502    0 -0.00000000000E+00  0.00000000000E+00  0.35573055284E+04  0.35573055284E+04  0.00000000000E+00 0. -1.
         21   -1    0    0  501  502  0.00000000000E+00 -0.00000000000E+00 -0.28183689032E+02  0.28183689032E+02  0.00000000000E+00 0. -1.
         25    1    1    2    0    0  0.21070040569E+03  0.16955312921E+03  0.10435939582E+04  0.10852908708E+04  0.12500000000E+03 0.  0.
          2    1    1    2  501    0 -0.21070040569E+03 -0.16955312921E+03  0.24855278811E+04  0.25001983466E+04  0.00000000000E+00 0. -1.
<mgrwt>
<rscale>  3 0.29793946E+03</rscale>
<asrwt>0</asrwt>
<pdfrwt beam="1">  1       21 0.43359550E-02 0.29793946E+03</pdfrwt>
<pdfrwt beam="2">  1        2 0.54727742E+00 0.29793946E+03</pdfrwt>
<totfact> 0.39913923E+03</totfact>
</mgrwt>
</event>
<event>
 4    0  0.1655118E-001  0.2500598E+03  0.7546771E-02  0.1113267E+00
         21   -1    0    0  501  502  0.00000000000E+00  0.00000000000E+00  0.16923285718E+03  0.16923285718E+03  0.00000000000E+00 0. -1.
         -2   -1    0    0    0  501 -0.00000000000E+00 -0.00000000000E+00 -0.57771973746E+03  0.57771973746E+03  0.00000000000E+00 0. -1.
         25    1    1    2    0    0 -0.64249047873E+02 -0.20682597639E+03  0.35877099161E+02  0.25262044831E+03  0.12500000000E+03 0.  0.
         -2    1    1    2    0  502  0.64249047873E+02  0.20682597639E+03 -0.44436397945E+03  0.49433214633E+03  0.00000000000E+00 0. -1.
<mgrwt>
<rscale>  3 0.25005984E+03</rscale>
<asrwt>0</asrwt>
<pdfrwt beam="1">  1       21 0.26035824E-01 0.25005984E+03</pdfrwt>
<pdfrwt beam="2">  1       -2 0.88879962E-01 0.25005984E+03</pdfrwt>
<totfact> 0.12725076E+03</totfact>
</mgrwt>
</event>
