<LesHouchesEvents version="3.0">
  <!--
  <scalesfunctionalform>
    muR  H_T/2 := sum_i mT(i)/2, i=final state
    muF1 H_T/2 := sum_i mT(i)/2, i=final state
    muF2 H_T/2 := sum_i mT(i)/2, i=final state
    QES  H_T/2 := sum_i mT(i)/2, i=final state
  </scalesfunctionalform>
HERWIG6   
  -->
  <header>
        3
  </header>
  <init>
   2212   2212 0.65000000D+04 0.65000000D+04 -1 -1   244800   244800 -4   1
 0.32105845D-05 0.20085902D-06 0.23034796D-05     66
  </init>
  <event>
  5     66 0.23034796E-05 0.17427087E+03 0.75467711E-02 0.93993791E-01
       -4 -1    0    0    0  501 0.00000000E+00 0.00000000E+00 0.32146980E+03 0.32147354E+03 0.15500000E+01 0.0000E+00 0.9000E+01
       -1 -1    0    0    0  502 0.00000000E+00 0.00000000E+00 -.21115375E+04 0.21115376E+04 0.32000000E+00 0.0000E+00 0.9000E+01
       25  1    1    2    0    0 0.44415145E+03 0.22380209E+03 -.54379446E+03 0.74745923E+03 0.12500000E+03 0.0000E+00 0.9000E+01
       -4  1    1    2    0  501 -.20679963E+03 0.14127290E+02 0.14583714E+03 0.25344929E+03 0.15500000E+01 0.0000E+00 0.9000E+01
       -1  1    1    2    0  502 -.23735181E+03 -.23792938E+03 -.13921104E+04 0.14321026E+04 0.32000000E+00 0.0000E+00 0.9000E+01
#aMCatNLO 1  0  0  2  5 0.91450414D+00 0.00000000D+00  -5  6  0 0.00000000D+00 0.00000000D+00 0.00000000D+00 0.00000000D+00 0.00000000D+00
  <mgrwgt>
 0.1626391509D-04   10    4    0
 0.823893278090461D+03 0.000000000000000D+00 0.000000000000000D+00 0.823893278090461D+03
 0.823893278090461D+03 0.000000000000000D+00 0.000000000000000D+00 -.823893278090461D+03
 0.513083035984544D+03 0.444233427241026D+03 0.224033989016973D+03 0.972808829891625D+01
 0.532128158227207D+03 -.206595598036055D+03 0.141133515332725D+02 0.490183076981349D+03
 0.602575361969171D+03 -.237637829204971D+03 -.238147340550245D+03 -.499911165280265D+03
 0.000000000000000D+00 0.000000000000000D+00 0.000000000000000D+00 -.000000000000000D+00
 0.823952524141134D+03 0.000000000000000D+00 0.000000000000000D+00 0.823952524141134D+03
 0.827429981533098D+03 0.000000000000000D+00 0.000000000000000D+00 -.827429981533098D+03
 0.512830520352108D+03 0.443949115986841D+03 0.224019394957590D+03 0.972808829891625D+01
 0.532242346258154D+03 -.206890566857921D+03 0.140982104073453D+02 0.490183076981349D+03
 0.602713943340712D+03 -.237971850830801D+03 -.238164486306421D+03 -.499911165280265D+03
 0.359569572325810D+01 0.913301701880953D+00 0.468809414850777D-01 -.347745739196377D+01
 0.823893278090461D+03 0.000000000000000D+00 0.000000000000000D+00 0.823893278090461D+03
 0.823893278090461D+03 0.000000000000000D+00 0.000000000000000D+00 -.823893278090461D+03
 0.513083035984544D+03 0.444233427241026D+03 0.224033989016973D+03 0.972808829891625D+01
 0.000000000000000D+00 0.000000000000000D+00 0.000000000000000D+00 -.000000000000000D+00
 0.532128158227207D+03 -.206595598036055D+03 0.141133515332725D+02 0.490183076981349D+03
 0.602575361969171D+03 -.237637829204971D+03 -.238147340550245D+03 -.499911165280265D+03
 0.823952524141134D+03 0.000000000000000D+00 0.000000000000000D+00 0.823952524141134D+03
 0.827429981533098D+03 0.000000000000000D+00 0.000000000000000D+00 -.827429981533098D+03
 0.512830520352108D+03 0.443949115986841D+03 0.224019394957590D+03 0.972808829891625D+01
 0.359569572325810D+01 0.913301701880953D+00 0.468809414850777D-01 -.347745739196377D+01
 0.532242346258154D+03 -.206890566857921D+03 0.140982104073453D+02 0.490183076981349D+03
 0.602713943340712D+03 -.237971850830801D+03 -.238164486306421D+03 -.499911165280265D+03
0.254892013052D-04 0.000000000000D+00 0.000000000000D+00 0.567234982241D-06 0.000000000000D+00  6 -4 -1 25 -4 -1 21 0 0.49457182D-01 0.32485222D+00 0.27904755D+06 0.27904755D+06 0.27904755D+06 0.10868859D+01  1  2  2  2  6  2       -1 0.655087771471D-06 0.100000000000D+01
0.216783122076D-05 0.000000000000D+00 -.978852444726D-07 0.567234982241D-06 0.000000000000D+00  6 -4 -1 25 -4 -1 21 2 0.49457182D-01 0.32485222D+00 0.27904755D+06 0.27904755D+06 0.27904755D+06 0.10868859D+01  1  2  3  2  6  2       -1 0.658167758776D-07 0.100000000000D+01
-.159504829053D-04 0.000000000000D+00 0.000000000000D+00 0.567234982241D-06 0.000000000000D+00  6 -4 -1 25 -4 -1 21 2 0.49457182D-01 0.32485222D+00 0.27904755D+06 0.27904755D+06 0.27904755D+06 0.10868859D+01  1  2 15  2  6  2       -1 -.484267109204D-06 0.100000000000D+01
-.152815298262D-01 0.000000000000D+00 0.000000000000D+00 0.567234982241D-06 0.000000000000D+00  6 -4 -1 25 -4 -1 21 2 0.49457182D-01 0.32485222D+00 0.27904755D+06 0.27904755D+06 0.27904755D+06 0.10868859D+01  1  2  4  2  6  2       -1 -.463957255530D-03 0.100000000000D+01
-.377921344996D-01 0.000000000000D+00 -.954413011962D-03 0.567234982241D-06 0.000000000000D+00  6 -4 -1 25 -4 -1 21 2 0.49457182D-01 0.32625468D+00 0.27904755D+06 0.27904755D+06 0.27904755D+06 0.10868859D+01  1  2  5  2  6  2       -1 -.111282293352D-02 0.100000000000D+01
0.377959041921D-01 0.000000000000D+00 0.954404155879D-03 0.567234982241D-06 0.000000000000D+00  6 -4 -1 25 -4 -1 21 2 0.49457182D-01 0.32485222D+00 0.27904755D+06 0.27904755D+06 0.27904755D+06 0.10868859D+01  1  2  6  2  6  2       -1 0.114750840909D-02 0.100000000000D+01
0.152007659552D-01 0.000000000000D+00 0.000000000000D+00 0.567234982241D-06 0.235075588288D-05  6 -4 -1 25 -4 -1 21 2 0.49460739D-01 0.32624670D+00 0.27968358D+06 0.27968358D+06 0.27968358D+06 0.10868122D+01  1  2 11  2  6  2       -1 0.447478207397D-03 0.100000000000D+01
0.101428683820D-09 0.000000000000D+00 0.000000000000D+00 0.567234982241D-06 0.000000000000D+00  6 -4 21 25 1 -4 -1 2 0.49457182D-01 0.32643441D+00 0.27968358D+06 0.27968358D+06 0.27968358D+06 0.10868122D+01  3  4 12  6  4  2       -1 0.314066957782D-10 0.100000000000D+01
-.303233111976D-04 0.000000000000D+00 -.765958081775D-06 0.567234982241D-06 0.000000000000D+00  6 -4 21 25 1 -4 -1 2 0.49457182D-01 0.32625468D+00 0.27904755D+06 0.27904755D+06 0.27904755D+06 0.10868859D+01  3  4  5  6  4  2       -1 -.941834196560D-05 0.100000000000D+01
0.233162798887D-04 0.000000000000D+00 0.000000000000D+00 0.567234982241D-06 0.338992425586D-08  6 -4 21 25 1 -4 -1 2 0.49460739D-01 0.32624670D+00 0.27968358D+06 0.27968358D+06 0.27968358D+06 0.10868122D+01  3  4 11  6  4  2       -1 0.723916078073D-05 0.100000000000D+01
  </mgrwgt>
  </event>
  <event>
  5     66 0.23034796E-05 0.68267704E+02 0.75467711E-02 0.92248507E-01
       -2 -1    0    0    0  501 0.00000000E+00 0.00000000E+00 0.14076270E+04 0.14076271E+04 0.32000000E+00 0.0000E+00 0.9000E+01
       -3 -1    0    0    0  502 0.00000000E+00 0.00000000E+00 -.72193726E+03 0.72193743E+03 0.50000000E+00 0.0000E+00 0.9000E+01
       25  1    1    2    0    0 -.44347134E+03 0.31692083E+03 0.46475429E+03 0.72713630E+03 0.12500000E+03 0.0000E+00 0.9000E+01
       -2  1    1    2    0  501 -.38917960E+02 0.56115507E+02 0.65205525E+03 0.65562162E+03 0.32000000E+00 0.0000E+00 0.9000E+01
       -3  1    1    2    0  502 0.48238930E+03 -.37303634E+03 -.43111977E+03 0.74680657E+03 0.50000000E+00 0.0000E+00 0.9000E+01
#aMCatNLO 1  0  0  4  1 0.62164621D+01 0.00000000D+00  -5  6  0 0.00000000D+00 0.00000000D+00 0.00000000D+00 0.00000000D+00 0.00000000D+00
  <mgrwgt>
 0.4825777038D-04    8    2    0
 0.100807668847073D+04 0.000000000000000D+00 0.000000000000000D+00 0.100807668847073D+04
 0.100807668847073D+04 -.000000000000000D+00 -.000000000000000D+00 -.100807668847073D+04
 0.610112886191141D+03 -.443551170936017D+03 0.316988560386415D+03 0.243707499355109D+03
 0.470582943142757D+03 -.389051135992380D+02 0.560969837144355D+02 0.465604796937136D+03
 0.935457547607570D+03 0.482456284535255D+03 -.373085544100851D+03 -.709312296292246D+03
 0.000000000000000D+00 0.000000000000000D+00 0.000000000000000D+00 0.000000000000000D+00
 0.100807668847073D+04 0.000000000000000D+00 0.000000000000000D+00 0.100807668847073D+04
 0.100807668847073D+04 -.000000000000000D+00 -.000000000000000D+00 -.100807668847073D+04
 0.610176424075007D+03 -.443561324823928D+03 0.317003201199206D+03 0.243829018057450D+03
 0.539377060841316D+02 -.660128947334268D+01 0.585197243442601D+00 0.535290263230481D+02
 0.935299315901004D+03 0.482440718181161D+03 -.373063099094749D+03 -.709126002808777D+03
 0.416739930881325D+03 -.322781038838898D+02 0.554747006521009D+02 0.411767958428278D+03
0.383006085373D-04 0.000000000000D+00 0.000000000000D+00 0.336456794119D-05 0.000000000000D+00  6 -2 -3 25 -2 -3 21 0 0.21655802D+00 0.11106729D+00 0.38283630D+06 0.38283630D+06 0.38283630D+06 0.10768034D+01  1  2  2  3  6  4       -2 0.139757825789D-05 0.100000000000D+01
0.110320961174D-04 0.000000000000D+00 -.147084421565D-06 0.336456794119D-05 0.000000000000D+00  6 -2 -3 25 -2 -3 21 2 0.21655802D+00 0.11106729D+00 0.38283630D+06 0.38283630D+06 0.38283630D+06 0.10768034D+01  1  2  3  3  6  4       -2 0.466768271672D-06 0.100000000000D+01
-.310844824285D-04 0.000000000000D+00 0.000000000000D+00 0.336456794119D-05 0.000000000000D+00  6 -2 -3 25 -2 -3 21 2 0.21655802D+00 0.11106729D+00 0.38283630D+06 0.38283630D+06 0.38283630D+06 0.10768034D+01  1  2 15  3  6  4       -2 -.131518525442D-05 0.100000000000D+01
0.692093165169D-03 0.000000000000D+00 0.000000000000D+00 0.336456794119D-05 0.000000000000D+00  6 -2 -3 25 -2 -3 21 2 0.21655802D+00 0.11106729D+00 0.38440436D+06 0.38440436D+06 0.38440436D+06 0.10766749D+01  1  2 12  3  6  4       -2 0.292680076491D-04 0.100000000000D+01
-.595386710119D-03 0.000000000000D+00 0.000000000000D+00 0.336456794119D-05 0.000000000000D+00  6 -2 -3 25 -2 -3 21 2 0.21655802D+00 0.11106729D+00 0.38283630D+06 0.38283630D+06 0.38283630D+06 0.10768034D+01  1  2  4  3  6  4       -2 -.251908270832D-04 0.100000000000D+01
-.838824377180D-03 0.000000000000D+00 0.000000000000D+00 0.336456794119D-05 0.000000000000D+00  6 -2 -3 25 -2 -3 21 2 0.21655802D+00 0.11106729D+00 0.38283630D+06 0.38283630D+06 0.38283630D+06 0.10768034D+01  1  2  5  3  6  4       -2 -.354906810643D-04 0.100000000000D+01
0.175668899863D-02 0.000000000000D+00 -.000000000000D+00 0.336456794119D-05 0.000000000000D+00  6 -2 -3 25 -2 -3 21 2 0.21655802D+00 0.11106729D+00 0.38283630D+06 0.38283630D+06 0.38283630D+06 0.10768034D+01  1  2  6  3  6  4       -2 0.743255569049D-04 0.100000000000D+01
0.113422866952D-03 0.000000000000D+00 0.000000000000D+00 0.336456794119D-05 0.263182079184D-07  6 -2 -3 25 -2 -3 21 2 0.21655802D+00 0.11106729D+00 0.38440436D+06 0.38440436D+06 0.38440436D+06 0.10766749D+01  1  2 11  3  6  4       -2 0.479655269638D-05 0.100000000000D+01
  </mgrwgt>
  </event>
  <event>
  5     66 0.23034796E-05 0.15808892E+03 0.75467711E-02 0.94437030E-01
       -2 -1    0    0    0  501 0.00000000E+00 0.00000000E+00 0.10055023E+04 0.10055024E+04 0.32000000E+00 0.0000E+00 0.9000E+01
       -3 -1    0    0    0  502 0.00000000E+00 0.00000000E+00 -.15544608E+04 0.15544609E+04 0.50000000E+00 0.0000E+00 0.9000E+01
       25  1    1    2    0    0 0.36933103E+03 0.33240593E+03 -.33710597E+03 0.61332254E+03 0.12500000E+03 0.0000E+00 0.9000E+01
       -2  1    1    2    0  501 -.26083118E+03 -.21744174E+03 0.82795408E+03 0.89488651E+03 0.32000000E+00 0.0000E+00 0.9000E+01
       -3  1    1    2    0  502 -.10849985E+03 -.11496418E+03 -.10398066E+04 0.10517542E+04 0.50000000E+00 0.0000E+00 0.9000E+01
#aMCatNLO 1  0  0  1  1 0.11694087D+02 0.00000000D+00  -5  6  0 0.00000000D+00 0.00000000D+00 0.00000000D+00 0.00000000D+00 0.00000000D+00
  <mgrwgt>
 0.1292410661D-04    7    4    0
 0.125020563999689D+04 0.000000000000000D+00 0.000000000000000D+00 0.125020563999689D+04
 0.125020563999689D+04 0.000000000000000D+00 0.000000000000000D+00 -.125020563999689D+04
 0.553907688485153D+03 0.369334060825199D+03 0.332409824180595D+03 -.210439510704524D+03
 0.109795873972260D+04 -.260827330207169D+03 -.217438536609888D+03 0.104412785651337D+04
 0.848544851786024D+03 -.108506730618030D+03 -.114971287570707D+03 -.833688345808843D+03
 0.000000000000000D+00 -.000000000000000D+00 -.000000000000000D+00 0.000000000000000D+00
 0.127724204323544D+04 0.000000000000000D+00 0.000000000000000D+00 0.127724204323544D+04
 0.125148446696076D+04 0.000000000000000D+00 0.000000000000000D+00 -.125148446696076D+04
 0.555701257326316D+03 0.371926758858953D+03 0.332512534760967D+03 -.210439510704524D+03
 0.109671159479544D+04 -.255699291646807D+03 -.217235387685544D+03 0.104412785651337D+04
 0.848025773558735D+03 -.104542545450760D+03 -.114814245079090D+03 -.833688345808843D+03
 0.282878845157054D+02 -.116849217613868D+02 -.462901996333437D+00 0.257575762746798D+02
 0.125020563999689D+04 0.000000000000000D+00 0.000000000000000D+00 0.125020563999689D+04
 0.125020563999689D+04 0.000000000000000D+00 0.000000000000000D+00 -.125020563999689D+04
 0.553907688485153D+03 0.369334060825199D+03 0.332409824180595D+03 -.210439510704524D+03
 0.000000000000000D+00 -.000000000000000D+00 -.000000000000000D+00 0.000000000000000D+00
 0.109795873972260D+04 -.260827330207169D+03 -.217438536609888D+03 0.104412785651337D+04
 0.848544851786024D+03 -.108506730618030D+03 -.114971287570707D+03 -.833688345808843D+03
 0.127724204323544D+04 0.000000000000000D+00 0.000000000000000D+00 0.127724204323544D+04
 0.125148446696076D+04 0.000000000000000D+00 0.000000000000000D+00 -.125148446696076D+04
 0.555701257326316D+03 0.371926758858953D+03 0.332512534760967D+03 -.210439510704524D+03
 0.282878845157054D+02 -.116849217613868D+02 -.462901996333437D+00 0.257575762746798D+02
 0.109671159479544D+04 -.255699291646807D+03 -.217235387685544D+03 0.104412785651337D+04
 0.848025773558735D+03 -.104542545450760D+03 -.114814245079090D+03 -.833688345808843D+03
0.815445627548D-03 0.000000000000D+00 0.000000000000D+00 0.194763755737D-04 0.000000000000D+00  6 -2 -3 25 -2 -3 21 0 0.15469268D+00 0.23914783D+00 0.25504448D+06 0.25504448D+06 0.25504448D+06 0.10898070D+01  1  2  2  1  6  1       -2 0.406294543584D-05 0.100000000000D+01
0.116470845056D-03 0.000000000000D+00 -.313152592155D-05 0.194763755737D-04 0.000000000000D+00  6 -2 -3 25 -2 -3 21 2 0.15469268D+00 0.23914783D+00 0.25504448D+06 0.25504448D+06 0.25504448D+06 0.10898070D+01  1  2  3  1  6  1       -2 0.689227204583D-06 0.100000000000D+01
-.647626304217D-03 0.000000000000D+00 0.000000000000D+00 0.194763755737D-04 0.000000000000D+00  6 -2 -3 25 -2 -3 21 2 0.15469268D+00 0.23914783D+00 0.25504448D+06 0.25504448D+06 0.25504448D+06 0.10898070D+01  1  2 15  1  6  1       -2 -.383238970280D-05 0.100000000000D+01
-.135629564431D-02 0.000000000000D+00 0.000000000000D+00 0.194763755737D-04 0.000000000000D+00  6 -2 -3 25 -2 -3 21 2 0.15469268D+00 0.23914783D+00 0.25504448D+06 0.25504448D+06 0.25504448D+06 0.10898070D+01  1  2  4  1  6  1       -2 -.802600732451D-05 0.100000000000D+01
-.117063913603D+00 0.000000000000D+00 -.731135011602D-02 0.194763755737D-04 0.000000000000D+00  6 -2 -3 25 -2 -3 21 2 0.15811046D+00 0.23914783D+00 0.25504448D+06 0.25504448D+06 0.25504448D+06 0.10898070D+01  1  2  5  1  6  1       -2 -.651567370229D-03 0.100000000000D+01
0.117197451007D+00 0.000000000000D+00 0.730960461149D-02 0.194763755737D-04 0.000000000000D+00  6 -2 -3 25 -2 -3 21 2 0.15469268D+00 0.23914783D+00 0.25504448D+06 0.25504448D+06 0.25504448D+06 0.10898070D+01  1  2  6  1  6  1       -2 0.693526963787D-03 0.100000000000D+01
-.465763413872D-03 0.000000000000D+00 -.290000938026D-04 0.194763755737D-04 0.000000000000D+00  6 21 -3 25 2 -2 -3 2 0.15811046D+00 0.23914783D+00 0.25504448D+06 0.25504448D+06 0.25504448D+06 0.10898070D+01  3  4  5  5  4  1       -2 -.219292625581D-04 0.100000000000D+01
  </mgrwgt>
  </event>
</LesHouchesEvents>
