<event>
 5    0  0.4025551E-002  0.6515975E+03  0.7546771E-02  0.9803786E-01
         -2   -1    0    0    0  501 -0.00000000000E+00  0.00000000000E+00  0.68283600040E+02  0.68283600040E+02  0.00000000000E+00 0. -1.
          2   -1    0    0  503    0  0.00000000000E+00 -0.00000000000E+00 -0.15544700321E+04  0.15544700321E+04  0.00000000000E+00 0.  1.
         25    1    1    2    0    0 -0.20868334386E+03 -0.20304829339E+03 -0.10493612670E+04  0.10961575690E+04  0.12500000000E+03 0.  0.
         21    1    1    2  502  501  0.19819293392E+03  0.18414327103E+03 -0.38601800596E+03  0.47137997863E+03  0.00000000000E+00 0. -1.
         21    1    1    2  503  502  0.10490409935E+02  0.18905022357E+02 -0.50807159133E+02  0.55216084523E+02  0.00000000000E+00 0.  1.
<mgrwt>
<rscale>  4 0.65159745E+03</rscale>
<asrwt>0</asrwt>
<pdfrwt beam="1">  1        2 0.23914923E+00 0.65159745E+03</pdfrwt>
<pdfrwt beam="2">  1       -2 0.10505170E-01 0.65159745E+03</pdfrwt>
<totfact> 0.76283763E+02</totfact>
</mgrwt>
</event>
<event>
 5    0  0.4025551E-002  0.7481392E+03  0.7546771E-02  0.9638274E-01
          2   -1    0    0  502    0  0.00000000000E+00  0.00000000000E+00  0.55972107454E+03  0.55972107454E+03  0.00000000000E+00 0. -1.
         -2   -1    0    0    0  501 -0.00000000000E+00 -0.00000000000E+00 -0.30739550452E+03  0.30739550452E+03  0.00000000000E+00 0.  1.
         25    1    1    2    0    0  0.20205798620E+03 -0.21647094533E+03  0.26502303714E+03  0.41659249894E+03  0.12500000000E+03 0.  0.
         21    1    1    2  502  503  0.41199839253E+02 -0.65822974447E+02  0.25661115884E+00  0.77654082756E+02  0.00000000000E+00 0.  1.
         21    1    1    2  503  501 -0.24325782545E+03  0.28229391978E+03 -0.12954078285E+02  0.37286999736E+03  0.00000000000E+00 0.  1.
<mgrwt>
<rscale>  4 0.74813921E+03</rscale>
<asrwt>0</asrwt>
<pdfrwt beam="1">  1        2 0.86110935E-01 0.74813921E+03</pdfrwt>
<pdfrwt beam="2">  1       -2 0.47291616E-01 0.74813921E+03</pdfrwt>
<totfact> 0.23053410E+02</totfact>
</mgrwt>
</event>
<event>
 5    0  0.4025551E-002  0.5819371E+03  0.7546771E-02  0.9943606E-01
         -2   -1    0    0    0  501 -0.00000000000E+00  0.00000000000E+00  0.21724119673E+03  0.21724119673E+03  0.00000000000E+00 0.  1.
          2   -1    0    0  502    0  0.00000000000E+00 -0.00000000000E+00 -0.44452899573E+03  0.44452899573E+03  0.00000000000E+00 0. -1.
         25    1    1    2    0    0  0.27191747548E+03 -0.37915046936E+02 -0.19283015142E+03  0.35802951212E+03  0.12500000000E+03 0.  0.
         21    1    1    2  502  503 -0.47104620496E+01  0.29205624809E+02  0.12823956826E+02  0.32242996788E+02  0.00000000000E+00 0. -1.
         21    1    1    2  503  501 -0.26720701343E+03  0.87094221263E+01 -0.47281604400E+02  0.27149768355E+03  0.00000000000E+00 0. -1.
<mgrwt>
<rscale>  4 0.58193714E+03</rscale>
<asrwt>0</asrwt>
<pdfrwt beam="1">  1        2 0.68389076E-01 0.58193714E+03</pdfrwt>
<pdfrwt beam="2">  1       -2 0.33421723E-01 0.58193714E+03</pdfrwt>
<totfact> 0.59431100E+02</totfact>
</mgrwt>
</event>
<event>
 5    0  0.4025551E-002  0.5397274E+03  0.7546771E-02  0.1003900E+00
         -2   -1    0    0    0  501 -0.00000000000E+00  0.00000000000E+00  0.47625990767E+02  0.47625990767E+02  0.00000000000E+00 0.  1.
          2   -1    0    0  503    0  0.00000000000E+00 -0.00000000000E+00 -0.24655103180E+04  0.24655103180E+04  0.00000000000E+00 0. -1.
         25    1    1    2    0    0 -0.21748104765E+03 -0.18249197529E+03 -0.12842314693E+04  0.13211649382E+04  0.12500000000E+03 0.  0.
         21    1    1    2  502  501  0.15536804857E+02  0.13523393537E+03 -0.67524012541E+03  0.68882424212E+03  0.00000000000E+00 0. -1.
         21    1    1    2  503  502  0.20194424280E+03  0.47258039922E+02 -0.45841273251E+03  0.50314712845E+03  0.00000000000E+00 0.  1.
<mgrwt>
<rscale>  4 0.53972743E+03</rscale>
<asrwt>0</asrwt>
<pdfrwt beam="1">  1        2 0.37930928E+00 0.53972743E+03</pdfrwt>
<pdfrwt beam="2">  1       -2 0.73270756E-02 0.53972743E+03</pdfrwt>
<totfact> 0.43659353E+02</totfact>
</mgrwt>
</event>
<event>
 5    0  0.4025551E-002  0.6727036E+03  0.7546771E-02  0.9765086E-01
         -1   -1    0    0    0  501 -0.00000000000E+00  0.00000000000E+00  0.11688606265E+04  0.11688606265E+04  0.00000000000E+00 0. -1.
          1   -1    0    0  503    0  0.00000000000E+00 -0.00000000000E+00 -0.17933368656E+03  0.17933368656E+03  0.00000000000E+00 0.  1.
         25    1    1    2    0    0  0.27869304973E+03 -0.14365496651E+03  0.32788177426E+03  0.47057201708E+03  0.12500000000E+03 0.  0.
         21    1    1    2  502  501 -0.25407645744E+03  0.19042663222E+03  0.12958331298E+03  0.34294166193E+03  0.00000000000E+00 0.  1.
         21    1    1    2  503  502 -0.24616592290E+02 -0.46771665718E+02  0.53206185265E+03  0.53468063400E+03  0.00000000000E+00 0.  1.
<mgrwt>
<rscale>  4 0.67270365E+03</rscale>
<asrwt>0</asrwt>
<pdfrwt beam="1">  1        1 0.27589799E-01 0.67270365E+03</pdfrwt>
<pdfrwt beam="2">  1       -1 0.17982471E+00 0.67270365E+03</pdfrwt>
<totfact> 0.36847352E+01</totfact>
</mgrwt>
</event>
<event>
 5    0  0.4025551E-002  0.7045265E+03  0.7546771E-02  0.9709522E-01
         -1   -1    0    0    0  501 -0.00000000000E+00  0.00000000000E+00  0.18001513471E+03  0.18001513471E+03  0.00000000000E+00 0.  1.
          1   -1    0    0  503    0  0.00000000000E+00 -0.00000000000E+00 -0.92013015072E+03  0.92013015072E+03  0.00000000000E+00 0. -1.
         25    1    1    2    0    0  0.15113304759E+03  0.24917512971E+03 -0.63414969157E+03  0.70901359272E+03  0.12500000000E+03 0.  0.
         21    1    1    2  502  501 -0.14110148917E+03 -0.27543075538E+03 -0.14602806417E+03  0.34219282105E+03  0.00000000000E+00 0.  1.
         21    1    1    2  503  502 -0.10031558422E+02  0.26255625671E+02  0.40062739734E+02  0.48938871653E+02  0.00000000000E+00 0. -1.
<mgrwt>
<rscale>  4 0.70452650E+03</rscale>
<asrwt>0</asrwt>
<pdfrwt beam="1">  1        1 0.14155848E+00 0.70452650E+03</pdfrwt>
<pdfrwt beam="2">  1       -1 0.27694636E-01 0.70452650E+03</pdfrwt>
<totfact> 0.20886104E+02</totfact>
</mgrwt>
</event>
<event>
 5    0  0.4025551E-002  0.4009099E+03  0.7546771E-02  0.1043465E+00
          1   -1    0    0  502    0  0.00000000000E+00  0.00000000000E+00  0.10098062356E+04  0.10098062356E+04  0.00000000000E+00 0.  1.
         -1   -1    0    0    0  501 -0.00000000000E+00 -0.00000000000E+00 -0.94095674704E+02  0.94095674704E+02  0.00000000000E+00 0. -1.
         25    1    1    2    0    0 -0.63207272427E+02 -0.21080958859E+03  0.66753380425E+03  0.71390631161E+03  0.12500000000E+03 0.  0.
         21    1    1    2  502  503 -0.37083336513E+02  0.11355936890E+03  0.18094580750E+02  0.12082349922E+03  0.00000000000E+00 0. -1.
         21    1    1    2  503  501  0.10029060894E+03  0.97250219689E+02  0.23008217587E+03  0.26917209945E+03  0.00000000000E+00 0. -1.
<mgrwt>
<rscale>  4 0.40090986E+03</rscale>
<asrwt>0</asrwt>
<pdfrwt beam="1">  1        1 0.15535480E+00 0.40090986E+03</pdfrwt>
<pdfrwt beam="2">  1       -1 0.14476258E-01 0.40090986E+03</pdfrwt>
<totfact> 0.53193044E+02</totfact>
</mgrwt>
</event>
<event>
 5    0  0.4025551E-002  0.4791320E+03  0.7546771E-02  0.1019374E+00
         -2   -1    0    0    0  501 -0.00000000000E+00  0.00000000000E+00  0.20928898661E+03  0.20928898661E+03  0.00000000000E+00 0.  1.
          2   -1    0    0  502    0  0.00000000000E+00 -0.00000000000E+00 -0.45167549121E+03  0.45167549121E+03  0.00000000000E+00 0. -1.
         25    1    1    2    0    0  0.54351248830E+02 -0.23039071232E+03 -0.11488346081E+03  0.29130250280E+03  0.12500000000E+03 0.  0.
         21    1    1    2  502  503  0.61290688168E+02  0.62726358516E+02  0.48727032186E+02  0.10032680686E+03  0.00000000000E+00 0.  1.
         21    1    1    2  503  501 -0.11564193700E+03  0.16766435380E+03 -0.17623007598E+03  0.26933516816E+03  0.00000000000E+00 0. -1.
<mgrwt>
<rscale>  4 0.47913203E+03</rscale>
<asrwt>0</asrwt>
<pdfrwt beam="1">  1        2 0.69488537E-01 0.47913203E+03</pdfrwt>
<pdfrwt beam="2">  1       -2 0.32198306E-01 0.47913203E+03</pdfrwt>
<totfact> 0.62699335E+02</totfact>
</mgrwt>
</event>
<event>
 5    0  0.4025551E-002  0.4112312E+03  0.7546771E-02  0.1039959E+00
          2   -1    0    0  503    0  0.00000000000E+00  0.00000000000E+00  0.18845864402E+04  0.18845864402E+04  0.00000000000E+00 0.  1.
         -2   -1    0    0    0  501 -0.00000000000E+00 -0.00000000000E+00 -0.39234630289E+02  0.39234630289E+02  0.00000000000E+00 0. -1.
         25    1    1    2    0    0  0.15390550072E+02  0.20826976173E+03  0.13076151436E+04  0.13300735042E+04  0.12500000000E+03 0.  0.
         21    1    1    2  502  501 -0.13027288234E+02 -0.15613608019E+03  0.51223815477E+03  0.53566417929E+03  0.00000000000E+00 0. -1.
         21    1    1    2  503  502 -0.23632618380E+01 -0.52133681540E+02  0.25498511515E+02  0.58083387013E+02  0.00000000000E+00 0. -1.
<mgrwt>
<rscale>  4 0.41123117E+03</rscale>
<asrwt>0</asrwt>
<pdfrwt beam="1">  1        2 0.28993631E+00 0.41123117E+03</pdfrwt>
<pdfrwt beam="2">  1       -2 0.60360984E-02 0.41123117E+03</pdfrwt>
<totfact> 0.12389614E+03</totfact>
</mgrwt>
</event>
<event>
 5    0  0.4025551E-002  0.7451675E+03  0.7546771E-02  0.9642962E-01
         -1   -1    0    0    0  501 -0.00000000000E+00  0.00000000000E+00  0.48264571275E+03  0.48264571275E+03  0.00000000000E+00 0. -1.
          1   -1    0    0  503    0  0.00000000000E+00 -0.00000000000E+00 -0.58756571242E+03  0.58756571242E+03  0.00000000000E+00 0.  1.
         25    1    1    2    0    0 -0.18280370111E+03  0.30019008888E+03 -0.23640015913E+03  0.44163482407E+03  0.12500000000E+03 0.  0.
         21    1    1    2  502  501  0.21362607827E+03 -0.29512116651E+03 -0.11351389302E+03  0.38159927692E+03  0.00000000000E+00 0.  1.
         21    1    1    2  503  502 -0.30822377155E+02 -0.50689223630E+01  0.24499405247E+03  0.24697732417E+03  0.00000000000E+00 0. -1.
<mgrwt>
<rscale>  4 0.74516746E+03</rscale>
<asrwt>0</asrwt>
<pdfrwt beam="1">  1        1 0.90394725E-01 0.74516746E+03</pdfrwt>
<pdfrwt beam="2">  1       -1 0.74253187E-01 0.74516746E+03</pdfrwt>
<totfact> 0.65786450E+01</totfact>
</mgrwt>
</event>
<event>
 5    0  0.4025551E-002  0.6338021E+03  0.7546771E-02  0.9837657E-01
         -2   -1    0    0    0  501 -0.00000000000E+00  0.00000000000E+00  0.12845090400E+03  0.12845090400E+03  0.00000000000E+00 0. -1.
          2   -1    0    0  502    0  0.00000000000E+00 -0.00000000000E+00 -0.10072093763E+04  0.10072093763E+04  0.00000000000E+00 0.  1.
         25    1    1    2    0    0 -0.47828217893E+02  0.21822344078E+03 -0.73349697663E+03  0.77688597828E+03  0.12500000000E+03 0.  0.
         21    1    1    2  502  503  0.12745288157E+03 -0.18796580594E+03 -0.53000335562E+02  0.23320466718E+03  0.00000000000E+00 0. -1.
         21    1    1    2  503  501 -0.79624663680E+02 -0.30257634838E+02 -0.92261160155E+02  0.12556963489E+03  0.00000000000E+00 0. -1.
<mgrwt>
<rscale>  4 0.63380209E+03</rscale>
<asrwt>0</asrwt>
<pdfrwt beam="1">  1        2 0.15495529E+00 0.63380209E+03</pdfrwt>
<pdfrwt beam="2">  1       -2 0.19761678E-01 0.63380209E+03</pdfrwt>
<totfact> 0.54866293E+02</totfact>
</mgrwt>
</event>
<event>
 5    0  0.4025551E-002  0.5201993E+03  0.7546771E-02  0.1008637E+00
          2   -1    0    0  503    0  0.00000000000E+00  0.00000000000E+00  0.20910987777E+04  0.20910987777E+04  0.00000000000E+00 0. -1.
         -2   -1    0    0    0  501 -0.00000000000E+00 -0.00000000000E+00 -0.68054963069E+02  0.68054963069E+02  0.00000000000E+00 0.  1.
         25    1    1    2    0    0  0.23190586604E+03  0.38539345021E+02  0.71321597912E+03  0.76129340250E+03  0.12500000000E+03 0.  0.
         21    1    1    2  502  501 -0.21292408233E+03  0.52216571525E+02  0.12826336746E+04  0.13012349436E+04  0.00000000000E+00 0. -1.
         21    1    1    2  503  502 -0.18981783703E+02 -0.90755916546E+02  0.27194160837E+02  0.96625394614E+02  0.00000000000E+00 0. -1.
<mgrwt>
<rscale>  4 0.52019933E+03</rscale>
<asrwt>0</asrwt>
<pdfrwt beam="1">  1        2 0.32170745E+00 0.52019933E+03</pdfrwt>
<pdfrwt beam="2">  1       -2 0.10469996E-01 0.52019933E+03</pdfrwt>
<totfact> 0.39644342E+02</totfact>
</mgrwt>
</event>
<event>
 5    0  0.4025551E-002  0.4575421E+03  0.7546771E-02  0.1025496E+00
          1   -1    0    0  503    0  0.00000000000E+00  0.00000000000E+00  0.38181475085E+03  0.38181475085E+03  0.00000000000E+00 0.  1.
         -1   -1    0    0    0  501 -0.00000000000E+00 -0.00000000000E+00 -0.21795222189E+03  0.21795222189E+03  0.00000000000E+00 0. -1.
         25    1    1    2    0    0  0.97754753736E+02 -0.22776688371E+03  0.14492941740E+03  0.31315057276E+03  0.12500000000E+03 0.  0.
         21    1    1    2  502  501 -0.12532493298E+03  0.11859788258E+03  0.22232594481E+02  0.17397150581E+03  0.00000000000E+00 0. -1.
         21    1    1    2  503  502  0.27570179243E+02  0.10916900114E+03 -0.32994829227E+01  0.11264489416E+03  0.00000000000E+00 0. -1.
<mgrwt>
<rscale>  4 0.45754211E+03</rscale>
<asrwt>0</asrwt>
<pdfrwt beam="1">  1        1 0.58740731E-01 0.45754211E+03</pdfrwt>
<pdfrwt beam="2">  1       -1 0.33531111E-01 0.45754211E+03</pdfrwt>
<totfact> 0.54196271E+02</totfact>
</mgrwt>
</event>
<event>
 5    0  0.4025551E-002  0.5909698E+03  0.7546771E-02  0.9924320E-01
         -1   -1    0    0    0  501 -0.00000000000E+00  0.00000000000E+00  0.70607026757E+02  0.70607026757E+02  0.00000000000E+00 0. -1.
          1   -1    0    0  503    0  0.00000000000E+00 -0.00000000000E+00 -0.14017647424E+04  0.14017647424E+04  0.00000000000E+00 0.  1.
         25    1    1    2    0    0  0.28664642414E+03  0.12628008478E+02 -0.59068417410E+03  0.66847470603E+03  0.12500000000E+03 0.  0.
         21    1    1    2  502  501 -0.27039061062E+03  0.65985432651E+01 -0.72624951023E+03  0.77497933792E+03  0.00000000000E+00 0. -1.
         21    1    1    2  503  502 -0.16255813511E+02 -0.19226551743E+02 -0.14224031317E+02  0.28917725217E+02  0.00000000000E+00 0.  1.
<mgrwt>
<rscale>  4 0.59096975E+03</rscale>
<asrwt>0</asrwt>
<pdfrwt beam="1">  1        1 0.21565613E+00 0.59096975E+03</pdfrwt>
<pdfrwt beam="2">  1       -1 0.10862619E-01 0.59096975E+03</pdfrwt>
<totfact> 0.43454693E+02</totfact>
</mgrwt>
</event>
<event>
 5    0  0.4025551E-002  0.5378490E+03  0.7546771E-02  0.1004346E+00
         -2   -1    0    0    0  501 -0.00000000000E+00  0.00000000000E+00  0.89977585321E+02  0.89977585321E+02  0.00000000000E+00 0. -1.
          2   -1    0    0  503    0  0.00000000000E+00 -0.00000000000E+00 -0.14774884007E+04  0.14774884007E+04  0.00000000000E+00 0.  1.
         25    1    1    2    0    0 -0.92742394202E+02 -0.25174551442E+03 -0.68473701814E+03  0.74596698300E+03  0.12500000000E+03 0.  0.
         21    1    1    2  502  501  0.92791475298E+02  0.21787761086E+03 -0.73653999095E+03  0.77367439500E+03  0.00000000000E+00 0.  1.
         21    1    1    2  503  502 -0.49081096141E-01  0.33867903555E+02  0.33766193682E+02  0.47824608058E+02  0.00000000000E+00 0.  1.
<mgrwt>
<rscale>  4 0.53784903E+03</rscale>
<asrwt>0</asrwt>
<pdfrwt beam="1">  1        2 0.22730589E+00 0.53784903E+03</pdfrwt>
<pdfrwt beam="2">  1       -2 0.13842706E-01 0.53784903E+03</pdfrwt>
<totfact> 0.53746480E+02</totfact>
</mgrwt>
</event>
<event>
 5    0  0.4025551E-002  0.6050567E+03  0.7546771E-02  0.9894970E-01
         -2   -1    0    0    0  501 -0.00000000000E+00  0.00000000000E+00  0.21470325347E+03  0.21470325347E+03  0.00000000000E+00 0.  1.
          2   -1    0    0  503    0  0.00000000000E+00 -0.00000000000E+00 -0.67081316836E+03  0.67081316836E+03  0.00000000000E+00 0. -1.
         25    1    1    2    0    0  0.23107907059E+03 -0.76368722521E+02 -0.31499414443E+03  0.41722419593E+03  0.12500000000E+03 0.  0.
         21    1    1    2  502  501 -0.61797818663E+02 -0.64907635322E+02 -0.21726574650E+03  0.23502420325E+03  0.00000000000E+00 0. -1.
         21    1    1    2  503  502 -0.16928125193E+03  0.14127635784E+03  0.76149976034E+02  0.23326802265E+03  0.00000000000E+00 0.  1.
<mgrwt>
<rscale>  4 0.60505668E+03</rscale>
<asrwt>0</asrwt>
<pdfrwt beam="1">  1        2 0.10320202E+00 0.60505668E+03</pdfrwt>
<pdfrwt beam="2">  1       -2 0.33031271E-01 0.60505668E+03</pdfrwt>
<totfact> 0.37409950E+02</totfact>
</mgrwt>
</event>
<event>
 5    0  0.4025551E-002  0.5337240E+03  0.7546771E-02  0.1005333E+00
          1   -1    0    0  502    0  0.00000000000E+00  0.00000000000E+00  0.45660294256E+03  0.45660294256E+03  0.00000000000E+00 0.  1.
         -1   -1    0    0    0  501 -0.00000000000E+00 -0.00000000000E+00 -0.54256227117E+03  0.54256227117E+03  0.00000000000E+00 0. -1.
         25    1    1    2    0    0 -0.11362792921E+03 -0.28626759725E+03  0.90499421535E+02  0.34449323481E+03  0.12500000000E+03 0.  0.
         21    1    1    2  502  503  0.11210776287E+03  0.11033533374E+03 -0.36460034549E+03  0.39708367921E+03  0.00000000000E+00 0. -1.
         21    1    1    2  503  501  0.15201663404E+01  0.17593226350E+03  0.18814159535E+03  0.25758829971E+03  0.00000000000E+00 0. -1.
<mgrwt>
<rscale>  4 0.53372405E+03</rscale>
<asrwt>0</asrwt>
<pdfrwt beam="1">  1        1 0.70246607E-01 0.53372405E+03</pdfrwt>
<pdfrwt beam="2">  1       -1 0.83471118E-01 0.53372405E+03</pdfrwt>
<totfact> 0.74233928E+01</totfact>
</mgrwt>
</event>
<event>
 5    0  0.4025551E-002  0.6134114E+03  0.7546771E-02  0.9877966E-01
         -2   -1    0    0    0  501 -0.00000000000E+00  0.00000000000E+00  0.18842366450E+03  0.18842366450E+03  0.00000000000E+00 0.  1.
          2   -1    0    0  502    0  0.00000000000E+00 -0.00000000000E+00 -0.78796134240E+03  0.78796134240E+03  0.00000000000E+00 0. -1.
         25    1    1    2    0    0  0.16245060306E+03 -0.14785724757E+03 -0.50091790702E+03  0.56106658577E+03  0.12500000000E+03 0.  0.
         21    1    1    2  502  503  0.33824839530E+02  0.15210465426E+03 -0.14581310607E+03  0.21340432872E+03  0.00000000000E+00 0.  1.
         21    1    1    2  503  501 -0.19627544259E+03 -0.42474066856E+01  0.47193335190E+02  0.20191409241E+03  0.00000000000E+00 0.  1.
<mgrwt>
<rscale>  4 0.61341139E+03</rscale>
<asrwt>0</asrwt>
<pdfrwt beam="1">  1        2 0.12122482E+00 0.61341139E+03</pdfrwt>
<pdfrwt beam="2">  1       -2 0.28988257E-01 0.61341139E+03</pdfrwt>
<totfact> 0.38850783E+02</totfact>
</mgrwt>
</event>
<event>
 5    0  0.4025551E-002  0.4989576E+03  0.7546771E-02  0.1014051E+00
         -1   -1    0    0    0  501 -0.00000000000E+00  0.00000000000E+00  0.41191473692E+03  0.41191473692E+03  0.00000000000E+00 0.  1.
          1   -1    0    0  502    0  0.00000000000E+00 -0.00000000000E+00 -0.33355224791E+03  0.33355224791E+03  0.00000000000E+00 0. -1.
         25    1    1    2    0    0 -0.99708752058E+02 -0.22662499265E+03  0.46659154384E+02  0.28125219861E+03  0.12500000000E+03 0.  0.
         21    1    1    2  502  503 -0.46930104504E+02  0.19548404332E+03  0.16770669335E+03  0.26180523466E+03  0.00000000000E+00 0.  1.
         21    1    1    2  503  501  0.14663885656E+03  0.31140949337E+02 -0.13600335872E+03  0.20240955156E+03  0.00000000000E+00 0.  1.
<mgrwt>
<rscale>  4 0.49895757E+03</rscale>
<asrwt>0</asrwt>
<pdfrwt beam="1">  1        1 0.51315730E-01 0.49895757E+03</pdfrwt>
<pdfrwt beam="2">  1       -1 0.63371498E-01 0.49895757E+03</pdfrwt>
<totfact> 0.19793206E+02</totfact>
</mgrwt>
</event>
<event>
 5    0  0.4025551E-002  0.4066132E+03  0.7546771E-02  0.1041514E+00
         -2   -1    0    0    0  501 -0.00000000000E+00  0.00000000000E+00  0.45709199336E+02  0.45709199336E+02  0.00000000000E+00 0.  1.
          2   -1    0    0  503    0  0.00000000000E+00 -0.00000000000E+00 -0.13278219808E+04  0.13278219808E+04  0.00000000000E+00 0. -1.
         25    1    1    2    0    0 -0.16006088211E+03 -0.12913184204E+03 -0.79857525021E+03  0.83405152650E+03  0.12500000000E+03 0.  0.
         21    1    1    2  502  501  0.14138155782E+03  0.83931058661E+02 -0.45276883870E+03  0.48169781897E+03  0.00000000000E+00 0.  1.
         21    1    1    2  503  502  0.18679324285E+02  0.45200783383E+02 -0.30768692522E+02  0.57781834634E+02  0.00000000000E+00 0.  1.
<mgrwt>
<rscale>  4 0.40661322E+03</rscale>
<asrwt>0</asrwt>
<pdfrwt beam="1">  1        2 0.20428031E+00 0.40661322E+03</pdfrwt>
<pdfrwt beam="2">  1       -2 0.70321845E-02 0.40661322E+03</pdfrwt>
<totfact> 0.19550453E+03</totfact>
</mgrwt>
</event>
<event>
 5    0  0.4025551E-002  0.6503461E+03  0.7546771E-02  0.9806130E-01
          2   -1    0    0  503    0  0.00000000000E+00  0.00000000000E+00  0.70904163889E+03  0.70904163889E+03  0.00000000000E+00 0. -1.
         -2   -1    0    0    0  501 -0.00000000000E+00 -0.00000000000E+00 -0.14912737183E+03  0.14912737183E+03  0.00000000000E+00 0.  1.
         25    1    1    2    0    0  0.29179508617E+03 -0.70231924256E+01  0.37620672206E+03  0.49229076293E+03  0.12500000000E+03 0.  0.
         21    1    1    2  502  501 -0.21851056159E+03 -0.25776509655E+02  0.18204298640E+03  0.28557125708E+03  0.00000000000E+00 0.  1.
         21    1    1    2  503  502 -0.73284524581E+02  0.32799702081E+02  0.16645585998E+01  0.80306990698E+02  0.00000000000E+00 0.  1.
<mgrwt>
<rscale>  4 0.65034611E+03</rscale>
<asrwt>0</asrwt>
<pdfrwt beam="1">  1        2 0.10908333E+00 0.65034611E+03</pdfrwt>
<pdfrwt beam="2">  1       -2 0.22942673E-01 0.65034611E+03</pdfrwt>
<totfact> 0.67823501E+02</totfact>
</mgrwt>
</event>
<event>
 5    0  0.4025551E-002  0.6126661E+03  0.7546771E-02  0.9879471E-01
         -2   -1    0    0    0  501 -0.00000000000E+00  0.00000000000E+00  0.21145378274E+03  0.21145378274E+03  0.00000000000E+00 0. -1.
          2   -1    0    0  503    0  0.00000000000E+00 -0.00000000000E+00 -0.51754750455E+03  0.51754750455E+03  0.00000000000E+00 0.  1.
         25    1    1    2    0    0  0.16339545008E+03  0.21574040416E+03 -0.28849288366E+02  0.29949837484E+03  0.12500000000E+03 0.  0.
         21    1    1    2  502  501 -0.17607844320E+03 -0.19039592989E+03 -0.29750204290E+03  0.39466656029E+03  0.00000000000E+00 0.  1.
         21    1    1    2  503  502  0.12682993119E+02 -0.25344474268E+02  0.20257609465E+02  0.34836352157E+02  0.00000000000E+00 0.  1.
<mgrwt>
<rscale>  4 0.61266611E+03</rscale>
<asrwt>0</asrwt>
<pdfrwt beam="1">  1        2 0.79622692E-01 0.61266611E+03</pdfrwt>
<pdfrwt beam="2">  1       -2 0.32531351E-01 0.61266611E+03</pdfrwt>
<totfact> 0.52488295E+02</totfact>
</mgrwt>
</event>
<event>
 5    0  0.4025551E-002  0.6194758E+03  0.7546771E-02  0.9865804E-01
         -2   -1    0    0    0  501 -0.00000000000E+00  0.00000000000E+00  0.13415134382E+03  0.13415134382E+03  0.00000000000E+00 0.  1.
          2   -1    0    0  503    0  0.00000000000E+00 -0.00000000000E+00 -0.76564433759E+03  0.76564433759E+03  0.00000000000E+00 0. -1.
         25    1    1    2    0    0 -0.19107579632E+03  0.82743977443E+02 -0.29646308860E+02  0.24466391105E+03  0.12500000000E+03 0.  0.
         21    1    1    2  502  501  0.20483993136E+03 -0.98691801444E+02 -0.58660414566E+03  0.62912947226E+03  0.00000000000E+00 0. -1.
         21    1    1    2  503  502 -0.13764135042E+02  0.15947824001E+02 -0.15242539243E+02  0.26002298099E+02  0.00000000000E+00 0. -1.
<mgrwt>
<rscale>  4 0.61947579E+03</rscale>
<asrwt>0</asrwt>
<pdfrwt beam="1">  1        2 0.11779144E+00 0.61947579E+03</pdfrwt>
<pdfrwt beam="2">  1       -2 0.20638668E-01 0.61947579E+03</pdfrwt>
<totfact> 0.74165109E+02</totfact>
</mgrwt>
</event>
<event>
 5    0  0.4025551E-002  0.6795515E+03  0.7546771E-02  0.9752855E-01
         -1   -1    0    0    0  501 -0.00000000000E+00  0.00000000000E+00  0.13765820013E+03  0.13765820013E+03  0.00000000000E+00 0.  1.
          1   -1    0    0  502    0  0.00000000000E+00 -0.00000000000E+00 -0.15368054359E+04  0.15368054359E+04  0.00000000000E+00 0. -1.
         25    1    1    2    0    0  0.56367290256E+02  0.31564511056E+03 -0.67007750913E+03  0.75328479041E+03  0.12500000000E+03 0.  0.
         21    1    1    2  502  503 -0.15394994187E+03 -0.20149470614E+03 -0.96970157665E+02  0.27148464539E+03  0.00000000000E+00 0.  1.
         21    1    1    2  503  501  0.97582651612E+02 -0.11415040442E+03 -0.63209956899E+03  0.64969420026E+03  0.00000000000E+00 0.  1.
<mgrwt>
<rscale>  4 0.67955152E+03</rscale>
<asrwt>0</asrwt>
<pdfrwt beam="1">  1        1 0.23643159E+00 0.67955152E+03</pdfrwt>
<pdfrwt beam="2">  1       -1 0.21178186E-01 0.67955152E+03</pdfrwt>
<totfact> 0.11784316E+02</totfact>
</mgrwt>
</event>
<event>
 5    0  0.4025551E-002  0.4578725E+03  0.7546771E-02  0.1025400E+00
         -2   -1    0    0    0  501 -0.00000000000E+00  0.00000000000E+00  0.78681867908E+02  0.78681867908E+02  0.00000000000E+00 0. -1.
          2   -1    0    0  502    0  0.00000000000E+00 -0.00000000000E+00 -0.77765202209E+03  0.77765202209E+03  0.00000000000E+00 0.  1.
         25    1    1    2    0    0 -0.20224357303E+03 -0.39987110409E+02 -0.51320435772E+03  0.56701423669E+03  0.12500000000E+03 0.  0.
         21    1    1    2  502  503  0.11796726552E+02  0.27080054346E+02 -0.14674445137E+02  0.32982289805E+02  0.00000000000E+00 0.  1.
         21    1    1    2  503  501  0.19044684647E+03  0.12907056063E+02 -0.17109135132E+03  0.25633736350E+03  0.00000000000E+00 0. -1.
<mgrwt>
<rscale>  4 0.45787252E+03</rscale>
<asrwt>0</asrwt>
<pdfrwt beam="1">  1        2 0.11963877E+00 0.45787252E+03</pdfrwt>
<pdfrwt beam="2">  1       -2 0.12104903E-01 0.45787252E+03</pdfrwt>
<totfact> 0.17969187E+03</totfact>
</mgrwt>
</event>
<event>
 5    0  0.4025551E-002  0.8714843E+03  0.7546771E-02  0.9461947E-01
          2   -1    0    0  502    0  0.00000000000E+00  0.00000000000E+00  0.36512405316E+03  0.36512405316E+03  0.00000000000E+00 0. -1.
         -2   -1    0    0    0  501 -0.00000000000E+00 -0.00000000000E+00 -0.56680173216E+03  0.56680173216E+03  0.00000000000E+00 0.  1.
         25    1    1    2    0    0 -0.19526313998E+03 -0.34981859789E+03 -0.22053648626E+03  0.47409080041E+03  0.12500000000E+03 0.  0.
         21    1    1    2  502  503 -0.31584930641E+02  0.65180257982E+01 -0.29267268849E+02  0.43550723642E+02  0.00000000000E+00 0. -1.
         21    1    1    2  503  501  0.22684807062E+03  0.34330057209E+03  0.48126076109E+02  0.41428426128E+03  0.00000000000E+00 0. -1.
<mgrwt>
<rscale>  4 0.87148431E+03</rscale>
<asrwt>0</asrwt>
<pdfrwt beam="1">  1        2 0.56172931E-01 0.87148431E+03</pdfrwt>
<pdfrwt beam="2">  1       -2 0.87200267E-01 0.87148431E+03</pdfrwt>
<totfact> 0.10064667E+02</totfact>
</mgrwt>
</event>
<event>
 5    0  0.4025551E-002  0.5859515E+03  0.7546771E-02  0.9934989E-01
          1   -1    0    0  503    0  0.00000000000E+00  0.00000000000E+00  0.10133047175E+04  0.10133047175E+04  0.00000000000E+00 0.  1.
         -1   -1    0    0    0  501 -0.00000000000E+00 -0.00000000000E+00 -0.13562034731E+03  0.13562034731E+03  0.00000000000E+00 0. -1.
         25    1    1    2    0    0  0.48733841268E+02  0.19576085009E+03  0.18520762443E+03  0.30103847239E+03  0.12500000000E+03 0.  0.
         21    1    1    2  502  501 -0.17343996933E+03 -0.26701774084E+03  0.59331678265E+03  0.67335332587E+03  0.00000000000E+00 0.  1.
         21    1    1    2  503  502  0.12470612806E+03  0.71256890754E+02  0.99159963143E+02  0.17453326659E+03  0.00000000000E+00 0. -1.
<mgrwt>
<rscale>  4 0.58595147E+03</rscale>
<asrwt>0</asrwt>
<pdfrwt beam="1">  1        1 0.15589303E+00 0.58595147E+03</pdfrwt>
<pdfrwt beam="2">  1       -1 0.20864669E-01 0.58595147E+03</pdfrwt>
<totfact> 0.28741301E+02</totfact>
</mgrwt>
</event>
<event>
 5    0  0.4025551E-002  0.4876208E+03  0.7546771E-02  0.1017062E+00
         -1   -1    0    0    0  501 -0.00000000000E+00  0.00000000000E+00  0.52313960215E+02  0.52313960215E+02  0.00000000000E+00 0. -1.
          1   -1    0    0  503    0  0.00000000000E+00 -0.00000000000E+00 -0.11362840242E+04  0.11362840242E+04  0.00000000000E+00 0.  1.
         25    1    1    2    0    0  0.80680511838E+02  0.20344272061E+03 -0.62976168168E+03  0.67832371422E+03  0.12500000000E+03 0.  0.
         21    1    1    2  502  501 -0.77931514711E+02 -0.14374391192E+03 -0.38820737783E+03  0.42123698960E+03  0.00000000000E+00 0. -1.
         21    1    1    2  503  502 -0.27489971272E+01 -0.59698808682E+02 -0.66001004419E+02  0.89037280549E+02  0.00000000000E+00 0.  1.
<mgrwt>
<rscale>  4 0.48762082E+03</rscale>
<asrwt>0</asrwt>
<pdfrwt beam="1">  1        1 0.17481292E+00 0.48762082E+03</pdfrwt>
<pdfrwt beam="2">  1       -1 0.80483017E-02 0.48762082E+03</pdfrwt>
<totfact> 0.10767019E+03</totfact>
</mgrwt>
</event>
<event>
 5    0  0.4025551E-002  0.5664603E+03  0.7546771E-02  0.9977542E-01
          2   -1    0    0  503    0  0.00000000000E+00  0.00000000000E+00  0.22631334941E+04  0.22631334941E+04  0.00000000000E+00 0. -1.
         -2   -1    0    0    0  501 -0.00000000000E+00 -0.00000000000E+00 -0.46587313431E+02  0.46587313431E+02  0.00000000000E+00 0.  1.
         25    1    1    2    0    0 -0.27528251370E+03 -0.41470009668E+02  0.97779750431E+03  0.10243110775E+04  0.12500000000E+03 0.  0.
         21    1    1    2  502  501  0.24907922997E+03  0.18369949793E+02  0.12208964185E+04  0.12461805578E+04  0.00000000000E+00 0. -1.
         21    1    1    2  503  502  0.26203283727E+02  0.23100059874E+02  0.17852257827E+02  0.39229172229E+02  0.00000000000E+00 0. -1.
<mgrwt>
<rscale>  4 0.56646032E+03</rscale>
<asrwt>0</asrwt>
<pdfrwt beam="1">  1        2 0.34817430E+00 0.56646032E+03</pdfrwt>
<pdfrwt beam="2">  1       -2 0.71672807E-02 0.56646032E+03</pdfrwt>
<totfact> 0.58352554E+02</totfact>
</mgrwt>
</event>
<event>
 5    0  0.4025551E-002  0.4230689E+03  0.7546771E-02  0.1036072E+00
          2   -1    0    0  503    0  0.00000000000E+00  0.00000000000E+00  0.53622053670E+03  0.53622053670E+03  0.00000000000E+00 0. -1.
         -2   -1    0    0    0  501 -0.00000000000E+00 -0.00000000000E+00 -0.10207159992E+03  0.10207159992E+03  0.00000000000E+00 0.  1.
         25    1    1    2    0    0  0.18986597396E+03  0.78463458066E+02  0.27173895077E+03  0.36286727558E+03  0.12500000000E+03 0.  0.
         21    1    1    2  502  501 -0.16270311494E+03 -0.80552134720E+02  0.16829169433E+03  0.24755412418E+03  0.00000000000E+00 0.  1.
         21    1    1    2  503  502 -0.27162859026E+02  0.20886766543E+01 -0.58817083099E+01  0.27870736863E+02  0.00000000000E+00 0. -1.
<mgrwt>
<rscale>  4 0.42306893E+03</rscale>
<asrwt>0</asrwt>
<pdfrwt beam="1">  1        2 0.82495465E-01 0.42306893E+03</pdfrwt>
<pdfrwt beam="2">  1       -2 0.15703323E-01 0.42306893E+03</pdfrwt>
<totfact> 0.18310405E+03</totfact>
</mgrwt>
</event>
<event>
 5    0  0.4025551E-002  0.4812078E+03  0.7546771E-02  0.1018804E+00
          2   -1    0    0  502    0  0.00000000000E+00  0.00000000000E+00  0.24458719578E+04  0.24458719578E+04  0.00000000000E+00 0. -1.
         -2   -1    0    0    0  501 -0.00000000000E+00 -0.00000000000E+00 -0.30744327644E+02  0.30744327644E+02  0.00000000000E+00 0.  1.
         25    1    1    2    0    0  0.13819155613E+03 -0.15347253154E+03  0.11038817729E+04  0.11299693326E+04  0.12500000000E+03 0.  0.
         21    1    1    2  502  503  0.23059864022E+02 -0.21998022009E+02  0.31175112242E+02  0.44582035892E+02  0.00000000000E+00 0.  1.
         21    1    1    2  503  501 -0.16125142015E+03  0.17547055354E+03  0.12800707450E+04  0.13020649169E+04  0.00000000000E+00 0. -1.
<mgrwt>
<rscale>  4 0.48120784E+03</rscale>
<asrwt>0</asrwt>
<pdfrwt beam="1">  1        2 0.37628784E+00 0.48120784E+03</pdfrwt>
<pdfrwt beam="2">  1       -2 0.47298985E-02 0.48120784E+03</pdfrwt>
<totfact> 0.89176257E+02</totfact>
</mgrwt>
</event>
<event>
 5    0  0.4025551E-002  0.5275505E+03  0.7546771E-02  0.1006828E+00
         -4   -1    0    0    0  501 -0.00000000000E+00  0.00000000000E+00  0.27497561276E+03  0.27497561276E+03  0.00000000000E+00 0. -1.
          4   -1    0    0  502    0  0.00000000000E+00 -0.00000000000E+00 -0.25303108777E+03  0.25303108777E+03  0.00000000000E+00 0.  1.
         25    1    1    2    0    0  0.13962987109E+03 -0.19140459974E+03 -0.25310446302E+02  0.26906846786E+03  0.12500000000E+03 0.  0.
         21    1    1    2  502  503 -0.67223719599E+02  0.82281530227E+02  0.68283339937E+02  0.12630080446E+03  0.00000000000E+00 0. -1.
         21    1    1    2  503  501 -0.72406151494E+02  0.10912306951E+03 -0.21028368642E+02  0.13263742821E+03  0.00000000000E+00 0. -1.
<mgrwt>
<rscale>  4 0.52755048E+03</rscale>
<asrwt>0</asrwt>
<pdfrwt beam="1">  1        4 0.38927860E-01 0.52755048E+03</pdfrwt>
<pdfrwt beam="2">  1       -4 0.42303941E-01 0.52755048E+03</pdfrwt>
<totfact> 0.68502586E+01</totfact>
</mgrwt>
</event>
<event>
 5    0  0.4025551E-002  0.5184933E+03  0.7546771E-02  0.1009062E+00
         -3   -1    0    0    0  501 -0.00000000000E+00  0.00000000000E+00  0.47224472128E+03  0.47224472128E+03  0.00000000000E+00 0.  1.
          3   -1    0    0  502    0  0.00000000000E+00 -0.00000000000E+00 -0.39815193120E+03  0.39815193120E+03  0.00000000000E+00 0. -1.
         25    1    1    2    0    0 -0.23641444717E+03 -0.10424211364E+03  0.12315252904E+02  0.28728883469E+03  0.12500000000E+03 0.  0.
         21    1    1    2  502  503  0.12291246737E+03 -0.28749343912E+01  0.28520166568E+03  0.31057322807E+03  0.00000000000E+00 0. -1.
         21    1    1    2  503  501  0.11350197980E+03  0.10711704803E+03 -0.22342412850E+03  0.27253458972E+03  0.00000000000E+00 0. -1.
<mgrwt>
<rscale>  4 0.51849331E+03</rscale>
<asrwt>0</asrwt>
<pdfrwt beam="1">  1        3 0.61254143E-01 0.51849331E+03</pdfrwt>
<pdfrwt beam="2">  1       -3 0.72653034E-01 0.51849331E+03</pdfrwt>
<totfact> 0.12209105E+01</totfact>
</mgrwt>
</event>
<event>
 5    0  0.4025551E-002  0.7891437E+03  0.7546771E-02  0.9575865E-01
          2   -1    0    0  503    0  0.00000000000E+00  0.00000000000E+00  0.26571831539E+04  0.26571831539E+04  0.00000000000E+00 0.  1.
         -2   -1    0    0    0  501 -0.00000000000E+00 -0.00000000000E+00 -0.66706821626E+02  0.66706821626E+02  0.00000000000E+00 0. -1.
         25    1    1    2    0    0  0.12189880471E+03  0.31637836233E+03  0.64003895959E+03  0.73500303165E+03  0.12500000000E+03 0.  0.
         21    1    1    2  502  501 -0.12181510852E+03 -0.28030568129E+03  0.19116122344E+04  0.19358903715E+04  0.00000000000E+00 0.  1.
         21    1    1    2  503  502 -0.83696195561E-01 -0.36072681042E+02  0.38825138218E+02  0.52996572344E+02  0.00000000000E+00 0.  1.
<mgrwt>
<rscale>  4 0.78914368E+03</rscale>
<asrwt>0</asrwt>
<pdfrwt beam="1">  1        2 0.40879733E+00 0.78914368E+03</pdfrwt>
<pdfrwt beam="2">  1       -2 0.10262590E-01 0.78914368E+03</pdfrwt>
<totfact> 0.19245558E+02</totfact>
</mgrwt>
</event>
<event>
 5    0  0.4025551E-002  0.4709480E+03  0.7546771E-02  0.1021653E+00
          1   -1    0    0  502    0  0.00000000000E+00  0.00000000000E+00  0.14186303560E+04  0.14186303560E+04  0.00000000000E+00 0. -1.
         -1   -1    0    0    0  501 -0.00000000000E+00 -0.00000000000E+00 -0.48990682210E+03  0.48990682210E+03  0.00000000000E+00 0.  1.
         25    1    1    2    0    0  0.21598261391E+03 -0.67035977089E+02  0.55683086893E+03  0.61386311856E+03  0.12500000000E+03 0.  0.
         21    1    1    2  502  503 -0.28247895935E+02  0.80639539915E+02 -0.44665978729E+03  0.45475888623E+03  0.00000000000E+00 0.  1.
         21    1    1    2  503  501 -0.18773471798E+03 -0.13603562826E+02  0.81855245228E+03  0.83991517333E+03  0.00000000000E+00 0. -1.
<mgrwt>
<rscale>  4 0.47094802E+03</rscale>
<asrwt>0</asrwt>
<pdfrwt beam="1">  1        1 0.21825082E+00 0.47094802E+03</pdfrwt>
<pdfrwt beam="2">  1       -1 0.75370281E-01 0.47094802E+03</pdfrwt>
<totfact> 0.14354795E+01</totfact>
</mgrwt>
</event>
<event>
 5    0  0.4025551E-002  0.4372724E+03  0.7546771E-02  0.1031587E+00
          2   -1    0    0  502    0  0.00000000000E+00  0.00000000000E+00  0.18535724910E+04  0.18535724910E+04  0.00000000000E+00 0.  1.
         -2   -1    0    0    0  501 -0.00000000000E+00 -0.00000000000E+00 -0.38649074723E+02  0.38649074723E+02  0.00000000000E+00 0. -1.
         25    1    1    2    0    0 -0.16398085698E+03  0.11719386695E+03  0.66088684489E+03  0.70215421786E+03  0.12500000000E+03 0.  0.
         21    1    1    2  502  503  0.34489315894E+02 -0.22769683883E+02  0.22145642197E+02  0.46887107858E+02  0.00000000000E+00 0. -1.
         21    1    1    2  503  501  0.12949154109E+03 -0.94424183066E+02  0.11318909292E+04  0.11431802401E+04  0.00000000000E+00 0.  1.
<mgrwt>
<rscale>  4 0.43727236E+03</rscale>
<asrwt>0</asrwt>
<pdfrwt beam="1">  1        2 0.28516493E+00 0.43727236E+03</pdfrwt>
<pdfrwt beam="2">  1       -2 0.59460130E-02 0.43727236E+03</pdfrwt>
<totfact> 0.13153674E+03</totfact>
</mgrwt>
</event>
