<event>
 4    0  0.1257651E-001  0.4639171E+03  0.7546771E-02  0.1023651E+00
         21   -1    0    0  502  501  0.00000000000E+00  0.00000000000E+00  0.88232977913E+03  0.88232977913E+03  0.00000000000E+00 0. -1.
         21   -1    0    0  503  502 -0.00000000000E+00 -0.00000000000E+00 -0.27190241887E+03  0.27190241887E+03  0.00000000000E+00 0. -1.
         25    1    1    2    0    0 -0.17217581120E+03 -0.41224936250E+03  0.97558208408E+02  0.47406397340E+03  0.12500000000E+03 0.  0.
         21    1    1    2  503  501  0.17217581120E+03  0.41224936250E+03  0.51286915185E+03  0.68016822460E+03  0.00000000000E+00 0. -1.
<mgrwt>
<rscale>  3 0.46391707E+03</rscale>
<asrwt>0</asrwt>
<pdfrwt beam="1">  1       21 0.13574304E+00 0.46391707E+03</pdfrwt>
<pdfrwt beam="2">  1       21 0.41831142E-01 0.46391707E+03</pdfrwt>
<totfact> 0.18164085E+03</totfact>
</mgrwt>
</event>
<event>
 4    0  0.1005289E-001  0.2383378E+03  0.7546771E-02  0.1120905E+00
         21   -1    0    0  503  501  0.00000000000E+00  0.00000000000E+00  0.22233000845E+03  0.22233000845E+03  0.00000000000E+00 0.  1.
         21   -1    0    0  501  502 -0.00000000000E+00 -0.00000000000E+00 -0.29722829445E+03  0.29722829445E+03  0.00000000000E+00 0. -1.
         25    1    1    2    0    0  0.20181582118E+03  0.21219723191E+02 -0.17266233180E+03  0.29430797331E+03  0.12500000000E+03 0.  0.
         21    1    1    2  503  502 -0.20181582118E+03 -0.21219723191E+02  0.97764045794E+02  0.22525032959E+03  0.00000000000E+00 0.  1.
<mgrwt>
<rscale>  3 0.23833779E+03</rscale>
<asrwt>0</asrwt>
<pdfrwt beam="1">  1       21 0.34204617E-01 0.23833779E+03</pdfrwt>
<pdfrwt beam="2">  1       21 0.45727430E-01 0.23833779E+03</pdfrwt>
<totfact> 0.36927721E+04</totfact>
</mgrwt>
</event>
<event>
 4    0  0.1185991E-001  0.2491161E+03  0.7546771E-02  0.1113865E+00
         21   -1    0    0  503  501  0.00000000000E+00  0.00000000000E+00  0.13324102965E+04  0.13324102965E+04  0.00000000000E+00 0.  1.
         21   -1    0    0  501  502 -0.00000000000E+00 -0.00000000000E+00 -0.40996888066E+02  0.40996888066E+02  0.00000000000E+00 0.  1.
         25    1    1    2    0    0 -0.19240599992E+03 -0.97024542034E+02  0.76723170137E+03  0.80666183382E+03  0.12500000000E+03 0.  0.
         21    1    1    2  503  502  0.19240599992E+03  0.97024542034E+02  0.52418170702E+03  0.56674535069E+03  0.00000000000E+00 0.  1.
<mgrwt>
<rscale>  3 0.24911610E+03</rscale>
<asrwt>0</asrwt>
<pdfrwt beam="1">  1       21 0.20498617E+00 0.24911610E+03</pdfrwt>
<pdfrwt beam="2">  1       21 0.63072146E-02 0.24911610E+03</pdfrwt>
<totfact> 0.21726817E+04</totfact>
</mgrwt>
</event>
<event>
 4    0  0.1851698E-001  0.2692897E+03  0.7546771E-02  0.1101687E+00
         21   -1    0    0  503  501  0.00000000000E+00  0.00000000000E+00  0.82024612049E+03  0.82024612049E+03  0.00000000000E+00 0. -1.
         21   -1    0    0  501  502 -0.00000000000E+00 -0.00000000000E+00 -0.46165900736E+03  0.46165900736E+03  0.00000000000E+00 0.  1.
         25    1    1    2    0    0  0.92216470456E+02  0.21997289693E+03 -0.40252343590E+03  0.48429543593E+03  0.12500000000E+03 0.  0.
         21    1    1    2  503  502 -0.92216470456E+02 -0.21997289693E+03  0.76111054903E+03  0.79760969193E+03  0.00000000000E+00 0. -1.
<mgrwt>
<rscale>  3 0.26928972E+03</rscale>
<asrwt>0</asrwt>
<pdfrwt beam="1">  1       21 0.12619171E+00 0.26928972E+03</pdfrwt>
<pdfrwt beam="2">  1       21 0.71024463E-01 0.26928972E+03</pdfrwt>
<totfact> 0.78006164E+02</totfact>
</mgrwt>
</event>
<event>
 4    0  0.1005289E-001  0.2771688E+03  0.7546771E-02  0.1097245E+00
         21   -1    0    0  502  501  0.00000000000E+00  0.00000000000E+00  0.15302250536E+04  0.15302250536E+04  0.00000000000E+00 0.  1.
         21   -1    0    0  503  502 -0.00000000000E+00 -0.00000000000E+00 -0.50266142716E+03  0.50266142716E+03  0.00000000000E+00 0.  1.
         25    1    1    2    0    0  0.71309620285E+00  0.24738037202E+03 -0.45339778869E+03  0.53140578822E+03  0.12500000000E+03 0.  0.
         21    1    1    2  503  501 -0.71309620285E+00 -0.24738037202E+03  0.14809614152E+04  0.15014806926E+04  0.00000000000E+00 0.  1.
<mgrwt>
<rscale>  3 0.27716882E+03</rscale>
<asrwt>0</asrwt>
<pdfrwt beam="1">  1       21 0.23541924E+00 0.27716882E+03</pdfrwt>
<pdfrwt beam="2">  1       21 0.77332528E-01 0.27716882E+03</pdfrwt>
<totfact> 0.10848350E+02</totfact>
</mgrwt>
</event>
<event>
 4    0  0.1384022E-001  0.3979372E+03  0.7546771E-02  0.1044496E+00
         21   -1    0    0  503  501  0.00000000000E+00  0.00000000000E+00  0.59291471211E+03  0.59291471211E+03  0.00000000000E+00 0. -1.
         21   -1    0    0  501  502 -0.00000000000E+00 -0.00000000000E+00 -0.34825284698E+03  0.34825284698E+03  0.00000000000E+00 0. -1.
         25    1    1    2    0    0  0.14818525533E+02 -0.37750423503E+03 -0.12045965167E+03  0.41576984480E+03  0.12500000000E+03 0.  0.
         21    1    1    2  503  502 -0.14818525533E+02  0.37750423503E+03  0.36512151679E+03  0.52539771429E+03  0.00000000000E+00 0. -1.
<mgrwt>
<rscale>  3 0.39793723E+03</rscale>
<asrwt>0</asrwt>
<pdfrwt beam="1">  1       21 0.91217648E-01 0.39793723E+03</pdfrwt>
<pdfrwt beam="2">  1       21 0.53577361E-01 0.39793723E+03</pdfrwt>
<totfact> 0.29780350E+03</totfact>
</mgrwt>
</event>
<event>
 4    0  0.1484435E-001  0.2485954E+03  0.7546771E-02  0.1114196E+00
         21   -1    0    0  502  501  0.00000000000E+00  0.00000000000E+00  0.37580067588E+03  0.37580067588E+03  0.00000000000E+00 0.  1.
         21   -1    0    0  503  502 -0.00000000000E+00 -0.00000000000E+00 -0.21591585847E+03  0.21591585847E+03  0.00000000000E+00 0.  1.
         25    1    1    2    0    0  0.11231110751E+03 -0.18319634972E+03 -0.87952163449E+02  0.26369541231E+03  0.12500000000E+03 0.  0.
         21    1    1    2  503  501 -0.11231110751E+03  0.18319634972E+03  0.24783698086E+03  0.32802112203E+03  0.00000000000E+00 0.  1.
<mgrwt>
<rscale>  3 0.24859543E+03</rscale>
<asrwt>0</asrwt>
<pdfrwt beam="1">  1       21 0.57815489E-01 0.24859543E+03</pdfrwt>
<pdfrwt beam="2">  1       21 0.33217824E-01 0.24859543E+03</pdfrwt>
<totfact> 0.23767744E+04</totfact>
</mgrwt>
</event>
<event>
 4    0  0.1373425E-001  0.2968881E+03  0.7546771E-02  0.1086807E+00
         21   -1    0    0  503  501  0.00000000000E+00  0.00000000000E+00  0.11163721863E+03  0.11163721863E+03  0.00000000000E+00 0. -1.
         21   -1    0    0  501  502 -0.00000000000E+00 -0.00000000000E+00 -0.91495900583E+03  0.91495900583E+03  0.00000000000E+00 0. -1.
         25    1    1    2    0    0  0.25302532009E+03 -0.92172360302E+02 -0.65503868414E+03  0.71917886115E+03  0.12500000000E+03 0.  0.
         21    1    1    2  503  502 -0.25302532009E+03  0.92172360302E+02 -0.14828310306E+03  0.30741736331E+03  0.00000000000E+00 0. -1.
<mgrwt>
<rscale>  3 0.29688812E+03</rscale>
<asrwt>0</asrwt>
<pdfrwt beam="1">  1       21 0.17174957E-01 0.29688812E+03</pdfrwt>
<pdfrwt beam="2">  1       21 0.14076292E+00 0.29688812E+03</pdfrwt>
<totfact> 0.10136554E+04</totfact>
</mgrwt>
</event>
<event>
 4    0  0.1405730E-001  0.2832375E+03  0.7546771E-02  0.1093934E+00
         21   -1    0    0  502  501  0.00000000000E+00  0.00000000000E+00  0.11789379380E+03  0.11789379380E+03  0.00000000000E+00 0. -1.
         21   -1    0    0  503  502 -0.00000000000E+00 -0.00000000000E+00 -0.80868603398E+03  0.80868603398E+03  0.00000000000E+00 0. -1.
         25    1    1    2    0    0 -0.11386381654E+03 -0.22723010274E+03 -0.58753561550E+03  0.65224350344E+03  0.12500000000E+03 0.  0.
         21    1    1    2  503  501  0.11386381654E+03  0.22723010274E+03 -0.10325662469E+03  0.27433632433E+03  0.00000000000E+00 0. -1.
<mgrwt>
<rscale>  3 0.28323751E+03</rscale>
<asrwt>0</asrwt>
<pdfrwt beam="1">  1       21 0.18137507E-01 0.28323751E+03</pdfrwt>
<pdfrwt beam="2">  1       21 0.12441324E+00 0.28323751E+03</pdfrwt>
<totfact> 0.12666728E+04</totfact>
</mgrwt>
</event>
<event>
 4    0  0.1426159E-001  0.2635422E+03  0.7546771E-02  0.1105034E+00
         21   -1    0    0  503  501  0.00000000000E+00  0.00000000000E+00  0.59011611627E+03  0.59011611627E+03  0.00000000000E+00 0. -1.
         21   -1    0    0  501  502 -0.00000000000E+00 -0.00000000000E+00 -0.10465234558E+03  0.10465234558E+03  0.00000000000E+00 0. -1.
         25    1    1    2    0    0 -0.22856654122E+03  0.39834847480E+02  0.28468638063E+03  0.38794434415E+03  0.12500000000E+03 0.  0.
         21    1    1    2  503  502  0.22856654122E+03 -0.39834847480E+02  0.20077739006E+03  0.30682411770E+03  0.00000000000E+00 0. -1.
<mgrwt>
<rscale>  3 0.26354218E+03</rscale>
<asrwt>0</asrwt>
<pdfrwt beam="1">  1       21 0.90787093E-01 0.26354218E+03</pdfrwt>
<pdfrwt beam="2">  1       21 0.16100361E-01 0.26354218E+03</pdfrwt>
<totfact> 0.34287025E+04</totfact>
</mgrwt>
</event>
<event>
 4    0  0.1005289E-001  0.2751989E+03  0.7546771E-02  0.1098340E+00
         21   -1    0    0  502  501  0.00000000000E+00  0.00000000000E+00  0.11258737803E+03  0.11258737803E+03  0.00000000000E+00 0. -1.
         21   -1    0    0  503  502 -0.00000000000E+00 -0.00000000000E+00 -0.10097303792E+04  0.10097303792E+04  0.00000000000E+00 0. -1.
         25    1    1    2    0    0 -0.85289335812E+02 -0.22985904634E+03 -0.10743376070E+03  0.29542590429E+03  0.12500000000E+03 0.  0.
         21    1    1    2  503  501  0.85289335812E+02  0.22985904634E+03 -0.78970924046E+03  0.82689185294E+03  0.00000000000E+00 0. -1.
<mgrwt>
<rscale>  3 0.27519893E+03</rscale>
<asrwt>0</asrwt>
<pdfrwt beam="1">  1       21 0.17321135E-01 0.27519893E+03</pdfrwt>
<pdfrwt beam="2">  1       21 0.15534313E+00 0.27519893E+03</pdfrwt>
<totfact> 0.77638509E+03</totfact>
</mgrwt>
</event>
<event>
 4    0  0.1005289E-001  0.3359772E+03  0.7546771E-02  0.1068522E+00
         21   -1    0    0  502  501  0.00000000000E+00  0.00000000000E+00  0.47589612170E+02  0.47589612170E+02  0.00000000000E+00 0.  1.
         21   -1    0    0  503  502 -0.00000000000E+00 -0.00000000000E+00 -0.30054571639E+04  0.30054571639E+04  0.00000000000E+00 0.  1.
         25    1    1    2    0    0 -0.29605049879E+03 -0.98029363977E+02 -0.23068544192E+04  0.23311923914E+04  0.12500000000E+03 0.  0.
         21    1    1    2  503  501  0.29605049879E+03  0.98029363977E+02 -0.65101313252E+03  0.72185438472E+03  0.00000000000E+00 0.  1.
<mgrwt>
<rscale>  3 0.33597716E+03</rscale>
<asrwt>0</asrwt>
<pdfrwt beam="1">  1       21 0.73214771E-02 0.33597716E+03</pdfrwt>
<pdfrwt beam="2">  1       21 0.46237813E+00 0.33597716E+03</pdfrwt>
<totfact> 0.40296918E+02</totfact>
</mgrwt>
</event>
<event>
 4    0  0.1170761E-001  0.2607902E+03  0.7546771E-02  0.1106669E+00
         21   -1    0    0  503  501  0.00000000000E+00  0.00000000000E+00  0.13391679607E+04  0.13391679607E+04  0.00000000000E+00 0.  1.
         21   -1    0    0  501  502 -0.00000000000E+00 -0.00000000000E+00 -0.55463123376E+02  0.55463123376E+02  0.00000000000E+00 0.  1.
         25    1    1    2    0    0  0.70726164631E+02  0.21767949443E+03  0.36984484796E+03  0.45254476488E+03  0.12500000000E+03 0.  0.
         21    1    1    2  503  502 -0.70726164631E+02 -0.21767949443E+03  0.91385998938E+03  0.94208631921E+03  0.00000000000E+00 0.  1.
<mgrwt>
<rscale>  3 0.26079025E+03</rscale>
<asrwt>0</asrwt>
<pdfrwt beam="1">  1       21 0.20602582E+00 0.26079025E+03</pdfrwt>
<pdfrwt beam="2">  1       21 0.85327892E-02 0.26079025E+03</pdfrwt>
<totfact> 0.12544435E+04</totfact>
</mgrwt>
</event>
<event>
 4    0  0.1205081E-001  0.3756311E+03  0.7546771E-02  0.1052560E+00
         21   -1    0    0  502  501  0.00000000000E+00  0.00000000000E+00  0.13107988007E+03  0.13107988007E+03  0.00000000000E+00 0.  1.
         21   -1    0    0  503  502 -0.00000000000E+00 -0.00000000000E+00 -0.12754121189E+04  0.12754121189E+04  0.00000000000E+00 0.  1.
         25    1    1    2    0    0  0.51957160166E+02  0.35039144195E+03 -0.90261115512E+03  0.97765311151E+03  0.12500000000E+03 0.  0.
         21    1    1    2  503  501 -0.51957160166E+02 -0.35039144195E+03 -0.24172108372E+03  0.42883888746E+03  0.00000000000E+00 0.  1.
<mgrwt>
<rscale>  3 0.37563108E+03</rscale>
<asrwt>0</asrwt>
<pdfrwt beam="1">  1       21 0.20166136E-01 0.37563108E+03</pdfrwt>
<pdfrwt beam="2">  1       21 0.19621725E+00 0.37563108E+03</pdfrwt>
<totfact> 0.28427743E+03</totfact>
</mgrwt>
</event>
<event>
 4    0  0.1319561E-001  0.2940084E+03  0.7546771E-02  0.1088275E+00
         21   -1    0    0  502  501  0.00000000000E+00  0.00000000000E+00  0.90400275589E+02  0.90400275589E+02  0.00000000000E+00 0. -1.
         21   -1    0    0  503  502 -0.00000000000E+00 -0.00000000000E+00 -0.12710712700E+04  0.12710712700E+04  0.00000000000E+00 0. -1.
         25    1    1    2    0    0  0.24146016034E+03 -0.11186126214E+03 -0.99359609978E+03  0.10361824938E+04  0.12500000000E+03 0.  0.
         21    1    1    2  503  501 -0.24146016034E+03  0.11186126214E+03 -0.18707489463E+03  0.32528905177E+03  0.00000000000E+00 0. -1.
<mgrwt>
<rscale>  3 0.29400842E+03</rscale>
<asrwt>0</asrwt>
<pdfrwt beam="1">  1       21 0.13907735E-01 0.29400842E+03</pdfrwt>
<pdfrwt beam="2">  1       21 0.19554942E+00 0.29400842E+03</pdfrwt>
<totfact> 0.59937338E+03</totfact>
</mgrwt>
</event>
<event>
 4    0  0.1276699E-001  0.2880396E+03  0.7546771E-02  0.1091377E+00
         21   -1    0    0  503  501  0.00000000000E+00  0.00000000000E+00  0.14907886299E+04  0.14907886299E+04  0.00000000000E+00 0. -1.
         21   -1    0    0  501  502 -0.00000000000E+00 -0.00000000000E+00 -0.52721283564E+02  0.52721283564E+02  0.00000000000E+00 0. -1.
         25    1    1    2    0    0 -0.25742287777E+03 -0.32791197185E+02  0.58877357539E+03  0.65545489829E+03  0.12500000000E+03 0.  0.
         21    1    1    2  503  502  0.25742287777E+03  0.32791197185E+02  0.84929377091E+03  0.88805501514E+03  0.00000000000E+00 0. -1.
<mgrwt>
<rscale>  3 0.28803958E+03</rscale>
<asrwt>0</asrwt>
<pdfrwt beam="1">  1       21 0.22935206E+00 0.28803958E+03</pdfrwt>
<pdfrwt beam="2">  1       21 0.81109678E-02 0.28803958E+03</pdfrwt>
<totfact> 0.96225167E+03</totfact>
</mgrwt>
</event>
<event>
 4    0  0.1096542E-001  0.3387717E+03  0.7546771E-02  0.1067320E+00
         21   -1    0    0  503  501  0.00000000000E+00  0.00000000000E+00  0.25310336686E+03  0.25310336686E+03  0.00000000000E+00 0.  1.
         21   -1    0    0  501  502 -0.00000000000E+00 -0.00000000000E+00 -0.90291793156E+03  0.90291793156E+03  0.00000000000E+00 0.  1.
         25    1    1    2    0    0 -0.20670102774E+03  0.23752047282E+03 -0.75216616937E+03  0.82493650435E+03  0.12500000000E+03 0.  0.
         21    1    1    2  503  502  0.20670102774E+03 -0.23752047282E+03  0.10235160467E+03  0.33108479406E+03  0.00000000000E+00 0.  1.
<mgrwt>
<rscale>  3 0.33877174E+03</rscale>
<asrwt>0</asrwt>
<pdfrwt beam="1">  1       21 0.38938979E-01 0.33877174E+03</pdfrwt>
<pdfrwt beam="2">  1       21 0.13891045E+00 0.33877174E+03</pdfrwt>
<totfact> 0.20948153E+03</totfact>
</mgrwt>
</event>
<event>
 4    0  0.1005289E-001  0.2551975E+03  0.7546771E-02  0.1110063E+00
         21   -1    0    0  502  501  0.00000000000E+00  0.00000000000E+00  0.20887759770E+04  0.20887759770E+04  0.00000000000E+00 0.  1.
         21   -1    0    0  503  502 -0.00000000000E+00 -0.00000000000E+00 -0.36316033172E+02  0.36316033172E+02  0.00000000000E+00 0. -1.
         25    1    1    2    0    0 -0.21334802821E+03  0.63114008645E+02  0.55089473725E+03  0.60713323971E+03  0.12500000000E+03 0.  0.
         21    1    1    2  503  501  0.21334802821E+03 -0.63114008645E+02  0.15015652066E+04  0.15179587705E+04  0.00000000000E+00 0.  1.
<mgrwt>
<rscale>  3 0.25519749E+03</rscale>
<asrwt>0</asrwt>
<pdfrwt beam="1">  1       21 0.32135006E+00 0.25519749E+03</pdfrwt>
<pdfrwt beam="2">  1       21 0.55870837E-02 0.25519749E+03</pdfrwt>
<totfact> 0.53632760E+03</totfact>
</mgrwt>
</event>
<event>
 4    0  0.1005289E-001  0.2968801E+03  0.7546771E-02  0.1086811E+00
         21   -1    0    0  503  501  0.00000000000E+00  0.00000000000E+00  0.13663529018E+03  0.13663529018E+03  0.00000000000E+00 0.  1.
         21   -1    0    0  501  502 -0.00000000000E+00 -0.00000000000E+00 -0.15312516887E+04  0.15312516887E+04  0.00000000000E+00 0.  1.
         25    1    1    2    0    0 -0.18271827866E+03 -0.19780499867E+03 -0.13650799185E+04  0.13969899680E+04  0.12500000000E+03 0.  0.
         21    1    1    2  503  502  0.18271827866E+03  0.19780499867E+03 -0.29536480049E+02  0.27089701089E+03  0.00000000000E+00 0.  1.
<mgrwt>
<rscale>  3 0.29688009E+03</rscale>
<asrwt>0</asrwt>
<pdfrwt beam="1">  1       21 0.21020814E-01 0.29688009E+03</pdfrwt>
<pdfrwt beam="2">  1       21 0.23557719E+00 0.29688009E+03</pdfrwt>
<totfact> 0.15467487E+03</totfact>
</mgrwt>
</event>
<event>
 4    0  0.1005289E-001  0.2571733E+03  0.7546771E-02  0.1108854E+00
         21   -1    0    0  502  501  0.00000000000E+00  0.00000000000E+00  0.63509534187E+03  0.63509534187E+03  0.00000000000E+00 0.  1.
         21   -1    0    0  503  502 -0.00000000000E+00 -0.00000000000E+00 -0.22201225207E+03  0.22201225207E+03  0.00000000000E+00 0.  1.
         25    1    1    2    0    0 -0.22438559072E+03  0.12815405437E+02  0.54063411267E+03  0.59868470143E+03  0.12500000000E+03 0.  0.
         21    1    1    2  503  501  0.22438559072E+03 -0.12815405437E+02 -0.12755102287E+03  0.25842289251E+03  0.00000000000E+00 0.  1.
<mgrwt>
<rscale>  3 0.25717334E+03</rscale>
<asrwt>0</asrwt>
<pdfrwt beam="1">  1       21 0.97706975E-01 0.25717334E+03</pdfrwt>
<pdfrwt beam="2">  1       21 0.34155731E-01 0.25717334E+03</pdfrwt>
<totfact> 0.68610994E+03</totfact>
</mgrwt>
</event>
<event>
 4    0  0.1005289E-001  0.2469489E+03  0.7546771E-02  0.1115248E+00
         21   -1    0    0  502  501  0.00000000000E+00  0.00000000000E+00  0.21055426262E+03  0.21055426262E+03  0.00000000000E+00 0. -1.
         21   -1    0    0  503  502 -0.00000000000E+00 -0.00000000000E+00 -0.25147889529E+03  0.25147889529E+03  0.00000000000E+00 0.  1.
         25    1    1    2    0    0  0.14959611590E+03 -0.15159070389E+03 -0.13761106277E+02  0.24733197821E+03  0.12500000000E+03 0.  0.
         21    1    1    2  503  501 -0.14959611590E+03  0.15159070389E+03 -0.27163526384E+02  0.21470117970E+03  0.00000000000E+00 0. -1.
<mgrwt>
<rscale>  3 0.24694886E+03</rscale>
<asrwt>0</asrwt>
<pdfrwt beam="1">  1       21 0.32392964E-01 0.24694886E+03</pdfrwt>
<pdfrwt beam="2">  1       21 0.38689061E-01 0.24694886E+03</pdfrwt>
<totfact> 0.57705092E+04</totfact>
</mgrwt>
</event>
<event>
 4    0  0.1169999E-001  0.4013711E+03  0.7546771E-02  0.1043306E+00
         21   -1    0    0  503  501  0.00000000000E+00  0.00000000000E+00  0.30217181167E+03  0.30217181167E+03  0.00000000000E+00 0.  1.
         21   -1    0    0  501  502 -0.00000000000E+00 -0.00000000000E+00 -0.81381009468E+03  0.81381009468E+03  0.00000000000E+00 0.  1.
         25    1    1    2    0    0 -0.17959061921E+03 -0.33648329201E+03 -0.60245035620E+03  0.72390968221E+03  0.12500000000E+03 0.  0.
         21    1    1    2  503  502  0.17959061921E+03  0.33648329201E+03  0.90812073182E+02  0.39207222415E+03  0.00000000000E+00 0.  1.
<mgrwt>
<rscale>  3 0.40137115E+03</rscale>
<asrwt>0</asrwt>
<pdfrwt beam="1">  1       21 0.46487972E-01 0.40137115E+03</pdfrwt>
<pdfrwt beam="2">  1       21 0.12520155E+00 0.40137115E+03</pdfrwt>
<totfact> 0.18436747E+03</totfact>
</mgrwt>
</event>
<event>
 4    0  0.1265450E-001  0.2387909E+03  0.7546771E-02  0.1120601E+00
         21   -1    0    0  503  501  0.00000000000E+00  0.00000000000E+00  0.14547830032E+03  0.14547830032E+03  0.00000000000E+00 0.  1.
         21   -1    0    0  501  502 -0.00000000000E+00 -0.00000000000E+00 -0.70021035196E+03  0.70021035196E+03  0.00000000000E+00 0.  1.
         25    1    1    2    0    0  0.64702336744E+02  0.19289821009E+03 -0.59244888563E+03  0.63876192273E+03  0.12500000000E+03 0.  0.
         21    1    1    2  503  502 -0.64702336744E+02 -0.19289821009E+03  0.37716834000E+02  0.20692672955E+03  0.00000000000E+00 0.  1.
<mgrwt>
<rscale>  3 0.23879094E+03</rscale>
<asrwt>0</asrwt>
<pdfrwt beam="1">  1       21 0.22381277E-01 0.23879094E+03</pdfrwt>
<pdfrwt beam="2">  1       21 0.10772467E+00 0.23879094E+03</pdfrwt>
<totfact> 0.12465881E+04</totfact>
</mgrwt>
</event>
<event>
 4    0  0.1544626E-001  0.3120590E+03  0.7546771E-02  0.1079363E+00
         21   -1    0    0  502  501  0.00000000000E+00  0.00000000000E+00  0.41609995476E+03  0.41609995476E+03  0.00000000000E+00 0.  1.
         21   -1    0    0  503  502 -0.00000000000E+00 -0.00000000000E+00 -0.21726325664E+03  0.21726325664E+03  0.00000000000E+00 0.  1.
         25    1    1    2    0    0 -0.20594185599E+03 -0.19835267561E+03  0.70346178130E+02  0.31988969466E+03  0.12500000000E+03 0.  0.
         21    1    1    2  503  501  0.20594185599E+03  0.19835267561E+03  0.12849051999E+03  0.31347351674E+03  0.00000000000E+00 0.  1.
<mgrwt>
<rscale>  3 0.31205902E+03</rscale>
<asrwt>0</asrwt>
<pdfrwt beam="1">  1       21 0.64015378E-01 0.31205902E+03</pdfrwt>
<pdfrwt beam="2">  1       21 0.33425116E-01 0.31205902E+03</pdfrwt>
<totfact> 0.18313022E+04</totfact>
</mgrwt>
</event>
<event>
 4    0  0.1526329E-001  0.4012645E+03  0.7546771E-02  0.1043343E+00
         21   -1    0    0  503  501  0.00000000000E+00  0.00000000000E+00  0.46071470109E+03  0.46071470109E+03  0.00000000000E+00 0.  1.
         21   -1    0    0  501  502 -0.00000000000E+00 -0.00000000000E+00 -0.33260392660E+03  0.33260392660E+03  0.00000000000E+00 0.  1.
         25    1    1    2    0    0  0.23559453787E+03  0.29980565406E+03  0.77434665924E+02  0.40866776722E+03  0.12500000000E+03 0.  0.
         21    1    1    2  503  502 -0.23559453787E+03 -0.29980565406E+03  0.50676108569E+02  0.38465086047E+03  0.00000000000E+00 0.  1.
<mgrwt>
<rscale>  3 0.40126452E+03</rscale>
<asrwt>0</asrwt>
<pdfrwt beam="1">  1       21 0.70879185E-01 0.40126452E+03</pdfrwt>
<pdfrwt beam="2">  1       21 0.51169835E-01 0.40126452E+03</pdfrwt>
<totfact> 0.58724344E+03</totfact>
</mgrwt>
</event>
<event>
 4    0  0.1200650E-001  0.2953223E+03  0.7546771E-02  0.1087603E+00
         21   -1    0    0  502  501  0.00000000000E+00  0.00000000000E+00  0.74676079920E+03  0.74676079920E+03  0.00000000000E+00 0. -1.
         21   -1    0    0  503  502 -0.00000000000E+00 -0.00000000000E+00 -0.35089192026E+03  0.35089192026E+03  0.00000000000E+00 0. -1.
         25    1    1    2    0    0 -0.28545375427E+02 -0.26603652467E+03 -0.25737520423E+03  0.39173622078E+03  0.12500000000E+03 0.  0.
         21    1    1    2  503  501  0.28545375427E+02  0.26603652467E+03  0.65324408316E+03  0.70591649868E+03  0.00000000000E+00 0. -1.
<mgrwt>
<rscale>  3 0.29532232E+03</rscale>
<asrwt>0</asrwt>
<pdfrwt beam="1">  1       21 0.11488628E+00 0.29532232E+03</pdfrwt>
<pdfrwt beam="2">  1       21 0.53983372E-01 0.29532232E+03</pdfrwt>
<totfact> 0.17632223E+03</totfact>
</mgrwt>
</event>
<event>
 4    0  0.1458347E-001  0.3707095E+03  0.7546771E-02  0.1054422E+00
         21   -1    0    0  503  501  0.00000000000E+00  0.00000000000E+00  0.19731324400E+03  0.19731324400E+03  0.00000000000E+00 0.  1.
         21   -1    0    0  501  502 -0.00000000000E+00 -0.00000000000E+00 -0.86031864306E+03  0.86031864306E+03  0.00000000000E+00 0.  1.
         25    1    1    2    0    0  0.33843367205E+03 -0.85224356903E+02 -0.59656569401E+03  0.70236469776E+03  0.12500000000E+03 0.  0.
         21    1    1    2  503  502 -0.33843367205E+03  0.85224356903E+02 -0.66439705052E+02  0.35526718931E+03  0.00000000000E+00 0.  1.
<mgrwt>
<rscale>  3 0.37070951E+03</rscale>
<asrwt>0</asrwt>
<pdfrwt beam="1">  1       21 0.30355883E-01 0.37070951E+03</pdfrwt>
<pdfrwt beam="2">  1       21 0.13235672E+00 0.37070951E+03</pdfrwt>
<totfact> 0.38592622E+03</totfact>
</mgrwt>
</event>
<event>
 4    0  0.1005289E-001  0.3039135E+03  0.7546771E-02  0.1083301E+00
         21   -1    0    0  502  501  0.00000000000E+00  0.00000000000E+00  0.41856904191E+03  0.41856904191E+03  0.00000000000E+00 0. -1.
         21   -1    0    0  503  502 -0.00000000000E+00 -0.00000000000E+00 -0.23195501226E+03  0.23195501226E+03  0.00000000000E+00 0.  1.
         25    1    1    2    0    0 -0.27641964504E+03 -0.18181998865E+02 -0.20556390722E+02  0.30460789623E+03  0.12500000000E+03 0.  0.
         21    1    1    2  503  501  0.27641964504E+03  0.18181998865E+02  0.20717042038E+03  0.34591615794E+03  0.00000000000E+00 0. -1.
<mgrwt>
<rscale>  3 0.30391348E+03</rscale>
<asrwt>0</asrwt>
<pdfrwt beam="1">  1       21 0.64395237E-01 0.30391348E+03</pdfrwt>
<pdfrwt beam="2">  1       21 0.35685387E-01 0.30391348E+03</pdfrwt>
<totfact> 0.15906919E+04</totfact>
</mgrwt>
</event>
<event>
 4    0  0.1005289E-001  0.2449857E+03  0.7546771E-02  0.1116515E+00
         21   -1    0    0  503  501  0.00000000000E+00  0.00000000000E+00  0.18111202182E+04  0.18111202182E+04  0.00000000000E+00 0. -1.
         21   -1    0    0  501  502 -0.00000000000E+00 -0.00000000000E+00 -0.23020858895E+03  0.23020858895E+03  0.00000000000E+00 0. -1.
         25    1    1    2    0    0 -0.19579077069E+03  0.77839245750E+02 -0.15681458814E+03  0.29087589986E+03  0.12500000000E+03 0.  0.
         21    1    1    2  503  502  0.19579077069E+03 -0.77839245750E+02  0.17377262174E+04  0.17504529073E+04  0.00000000000E+00 0. -1.
<mgrwt>
<rscale>  3 0.24498566E+03</rscale>
<asrwt>0</asrwt>
<pdfrwt beam="1">  1       21 0.27863387E+00 0.24498566E+03</pdfrwt>
<pdfrwt beam="2">  1       21 0.35416707E-01 0.24498566E+03</pdfrwt>
<totfact> 0.32570254E+02</totfact>
</mgrwt>
</event>
<event>
 4    0  0.1353052E-001  0.3203712E+03  0.7546771E-02  0.1075479E+00
         21   -1    0    0  502  501  0.00000000000E+00  0.00000000000E+00  0.10363331286E+03  0.10363331286E+03  0.00000000000E+00 0.  1.
         21   -1    0    0  503  502 -0.00000000000E+00 -0.00000000000E+00 -0.91345899822E+03  0.91345899822E+03  0.00000000000E+00 0.  1.
         25    1    1    2    0    0 -0.71927478593E+02 -0.28607539932E+03 -0.42307482897E+03  0.53068823916E+03  0.12500000000E+03 0.  0.
         21    1    1    2  503  501  0.71927478593E+02  0.28607539932E+03 -0.38675085639E+03  0.48640407193E+03  0.00000000000E+00 0.  1.
<mgrwt>
<rscale>  3 0.32037119E+03</rscale>
<asrwt>0</asrwt>
<pdfrwt beam="1">  1       21 0.15943587E-01 0.32037119E+03</pdfrwt>
<pdfrwt beam="2">  1       21 0.14053215E+00 0.32037119E+03</pdfrwt>
<totfact> 0.11559472E+04</totfact>
</mgrwt>
</event>
<event>
 4    0  0.1005289E-001  0.2584560E+03  0.7546771E-02  0.1108074E+00
         21   -1    0    0  503  501  0.00000000000E+00  0.00000000000E+00  0.16917643134E+04  0.16917643134E+04  0.00000000000E+00 0.  1.
         21   -1    0    0  501  502 -0.00000000000E+00 -0.00000000000E+00 -0.77365714406E+02  0.77365714406E+02  0.00000000000E+00 0.  1.
         25    1    1    2    0    0 -0.10477446662E+03 -0.20049143449E+03  0.17515332141E+03  0.31221497427E+03  0.12500000000E+03 0.  0.
         21    1    1    2  503  502  0.10477446662E+03  0.20049143449E+03  0.14392452776E+04  0.14569150536E+04  0.00000000000E+00 0.  1.
<mgrwt>
<rscale>  3 0.25845600E+03</rscale>
<asrwt>0</asrwt>
<pdfrwt beam="1">  1       21 0.26027141E+00 0.25845600E+03</pdfrwt>
<pdfrwt beam="2">  1       21 0.11902419E-01 0.25845600E+03</pdfrwt>
<totfact> 0.32347334E+03</totfact>
</mgrwt>
</event>
<event>
 4    0  0.1858154E-001  0.2681627E+03  0.7546771E-02  0.1102336E+00
         21   -1    0    0  503  501  0.00000000000E+00  0.00000000000E+00  0.50046255780E+03  0.50046255780E+03  0.00000000000E+00 0.  1.
         21   -1    0    0  501  502 -0.00000000000E+00 -0.00000000000E+00 -0.45344650020E+03  0.45344650020E+03  0.00000000000E+00 0. -1.
         25    1    1    2    0    0  0.20566736039E+03  0.11826743963E+03 -0.38018901958E+03  0.46524718270E+03  0.12500000000E+03 0.  0.
         21    1    1    2  503  502 -0.20566736039E+03 -0.11826743963E+03  0.42720507717E+03  0.48866187530E+03  0.00000000000E+00 0.  1.
<mgrwt>
<rscale>  3 0.26816273E+03</rscale>
<asrwt>0</asrwt>
<pdfrwt beam="1">  1       21 0.76994240E-01 0.26816273E+03</pdfrwt>
<pdfrwt beam="2">  1       21 0.69761000E-01 0.26816273E+03</pdfrwt>
<totfact> 0.26454686E+03</totfact>
</mgrwt>
</event>
<event>
 4    0  0.1005289E-001  0.3059961E+03  0.7546771E-02  0.1082281E+00
         21   -1    0    0  503  501  0.00000000000E+00  0.00000000000E+00  0.60091979752E+02  0.60091979752E+02  0.00000000000E+00 0. -1.
         21   -1    0    0  501  502 -0.00000000000E+00 -0.00000000000E+00 -0.16853885103E+04  0.16853885103E+04  0.00000000000E+00 0.  1.
         25    1    1    2    0    0 -0.25585537833E+03  0.11201174670E+03 -0.50138263584E+03  0.58738245935E+03  0.12500000000E+03 0.  0.
         21    1    1    2  503  502  0.25585537833E+03 -0.11201174670E+03 -0.11239138947E+04  0.11580980307E+04  0.00000000000E+00 0. -1.
<mgrwt>
<rscale>  3 0.30599609E+03</rscale>
<asrwt>0</asrwt>
<pdfrwt beam="1">  1       21 0.92449205E-02 0.30599609E+03</pdfrwt>
<pdfrwt beam="2">  1       21 0.25929052E+00 0.30599609E+03</pdfrwt>
<totfact> 0.49717805E+03</totfact>
</mgrwt>
</event>
<event>
 4    0  0.1286818E-001  0.3237561E+03  0.7546771E-02  0.1073934E+00
         21   -1    0    0  502  501  0.00000000000E+00  0.00000000000E+00  0.17654755932E+03  0.17654755932E+03  0.00000000000E+00 0. -1.
         21   -1    0    0  503  502 -0.00000000000E+00 -0.00000000000E+00 -0.72224173181E+03  0.72224173181E+03  0.00000000000E+00 0. -1.
         25    1    1    2    0    0 -0.82090770623E+02 -0.28714820015E+03 -0.50144161546E+03  0.59687660131E+03  0.12500000000E+03 0.  0.
         21    1    1    2  503  501  0.82090770623E+02  0.28714820015E+03 -0.44252557033E+02  0.30191268982E+03  0.00000000000E+00 0. -1.
<mgrwt>
<rscale>  3 0.32375606E+03</rscale>
<asrwt>0</asrwt>
<pdfrwt beam="1">  1       21 0.27161163E-01 0.32375606E+03</pdfrwt>
<pdfrwt beam="2">  1       21 0.11111411E+00 0.32375606E+03</pdfrwt>
<totfact> 0.76291654E+03</totfact>
</mgrwt>
</event>
<event>
 4    0  0.1247613E-001  0.2507417E+03  0.7546771E-02  0.1112837E+00
         21   -1    0    0  503  501  0.00000000000E+00  0.00000000000E+00  0.38073469486E+02  0.38073469486E+02  0.00000000000E+00 0.  1.
         21   -1    0    0  501  502 -0.00000000000E+00 -0.00000000000E+00 -0.14457569977E+04  0.14457569977E+04  0.00000000000E+00 0.  1.
         25    1    1    2    0    0  0.72787670176E+02 -0.20481299597E+03 -0.80510019063E+03  0.84324238817E+03  0.12500000000E+03 0.  0.
         21    1    1    2  503  502 -0.72787670176E+02  0.20481299597E+03 -0.60258333755E+03  0.64058807899E+03  0.00000000000E+00 0.  1.
<mgrwt>
<rscale>  3 0.25074172E+03</rscale>
<asrwt>0</asrwt>
<pdfrwt beam="1">  1       21 0.58574575E-02 0.25074172E+03</pdfrwt>
<pdfrwt beam="2">  1       21 0.22242413E+00 0.25074172E+03</pdfrwt>
<totfact> 0.19144579E+04</totfact>
</mgrwt>
</event>
<event>
 4    0  0.1168565E-001  0.3403357E+03  0.7546771E-02  0.1066653E+00
         21   -1    0    0  502  501  0.00000000000E+00  0.00000000000E+00  0.14641979332E+04  0.14641979332E+04  0.00000000000E+00 0. -1.
         21   -1    0    0  503  502 -0.00000000000E+00 -0.00000000000E+00 -0.75690030505E+02  0.75690030505E+02  0.00000000000E+00 0. -1.
         25    1    1    2    0    0 -0.27966533797E+03 -0.14829261493E+03  0.84427744979E+03  0.91029270739E+03  0.12500000000E+03 0.  0.
         21    1    1    2  503  501  0.27966533797E+03  0.14829261493E+03  0.54423045294E+03  0.62959525634E+03  0.00000000000E+00 0. -1.
<mgrwt>
<rscale>  3 0.34033572E+03</rscale>
<asrwt>0</asrwt>
<pdfrwt beam="1">  1       21 0.22526120E+00 0.34033572E+03</pdfrwt>
<pdfrwt beam="2">  1       21 0.11644621E-01 0.34033572E+03</pdfrwt>
<totfact> 0.51948023E+03</totfact>
</mgrwt>
</event>
<event>
 4    0  0.1332256E-001  0.3427565E+03  0.7546771E-02  0.1065628E+00
         21   -1    0    0  502  501  0.00000000000E+00  0.00000000000E+00  0.18891054817E+03  0.18891054817E+03  0.00000000000E+00 0.  1.
         21   -1    0    0  503  502 -0.00000000000E+00 -0.00000000000E+00 -0.71658996938E+03  0.71658996938E+03  0.00000000000E+00 0.  1.
         25    1    1    2    0    0  0.11135274841E+03  0.29909455616E+03 -0.46916282905E+03  0.58102990307E+03  0.12500000000E+03 0.  0.
         21    1    1    2  503  501 -0.11135274841E+03 -0.29909455616E+03 -0.58516592166E+02  0.32447061448E+03  0.00000000000E+00 0.  1.
<mgrwt>
<rscale>  3 0.34275646E+03</rscale>
<asrwt>0</asrwt>
<pdfrwt beam="1">  1       21 0.29063161E-01 0.34275646E+03</pdfrwt>
<pdfrwt beam="2">  1       21 0.11024461E+00 0.34275646E+03</pdfrwt>
<totfact> 0.67549494E+03</totfact>
</mgrwt>
</event>
<event>
 4    0  0.1005289E-001  0.3741158E+03  0.7546771E-02  0.1053130E+00
         21   -1    0    0  503  501  0.00000000000E+00  0.00000000000E+00  0.18950546762E+04  0.18950546762E+04  0.00000000000E+00 0.  1.
         21   -1    0    0  501  502 -0.00000000000E+00 -0.00000000000E+00 -0.11099210550E+03  0.11099210550E+03  0.00000000000E+00 0.  1.
         25    1    1    2    0    0 -0.50669445054E+02  0.34895588744E+03  0.29678272762E+03  0.47753805236E+03  0.12500000000E+03 0.  0.
         21    1    1    2  503  502  0.50669445054E+02 -0.34895588744E+03  0.14872798430E+04  0.15285087293E+04  0.00000000000E+00 0.  1.
<mgrwt>
<rscale>  3 0.37411576E+03</rscale>
<asrwt>0</asrwt>
<pdfrwt beam="1">  1       21 0.29154685E+00 0.37411576E+03</pdfrwt>
<pdfrwt beam="2">  1       21 0.17075710E-01 0.37411576E+03</pdfrwt>
<totfact> 0.99976999E+02</totfact>
</mgrwt>
</event>
<event>
 4    0  0.1606297E-001  0.3436942E+03  0.7546771E-02  0.1065233E+00
         21   -1    0    0  503  501  0.00000000000E+00  0.00000000000E+00  0.48647611273E+03  0.48647611273E+03  0.00000000000E+00 0.  1.
         21   -1    0    0  501  502 -0.00000000000E+00 -0.00000000000E+00 -0.23435810613E+03  0.23435810613E+03  0.00000000000E+00 0.  1.
         25    1    1    2    0    0  0.32015725095E+03  0.16400511109E+00  0.19643969886E+03  0.39587150380E+03  0.12500000000E+03 0.  0.
         21    1    1    2  503  502 -0.32015725095E+03 -0.16400511109E+00  0.55678307741E+02  0.32496271507E+03  0.00000000000E+00 0.  1.
<mgrwt>
<rscale>  3 0.34369418E+03</rscale>
<asrwt>0</asrwt>
<pdfrwt beam="1">  1       21 0.74842479E-01 0.34369418E+03</pdfrwt>
<pdfrwt beam="2">  1       21 0.36055093E-01 0.34369418E+03</pdfrwt>
<totfact> 0.10964112E+04</totfact>
</mgrwt>
</event>
<event>
 4    0  0.1512648E-001  0.2460297E+03  0.7546771E-02  0.1115840E+00
         21   -1    0    0  502  501  0.00000000000E+00  0.00000000000E+00  0.31966264300E+03  0.31966264300E+03  0.00000000000E+00 0.  1.
         21   -1    0    0  503  502 -0.00000000000E+00 -0.00000000000E+00 -0.17943340774E+03  0.17943340774E+03  0.00000000000E+00 0.  1.
         25    1    1    2    0    0 -0.17082522434E+03 -0.12539676532E+03  0.19062739731E+01  0.24603707018E+03  0.12500000000E+03 0.  0.
         21    1    1    2  503  501  0.17082522434E+03  0.12539676532E+03  0.13832296128E+03  0.25305898056E+03  0.00000000000E+00 0.  1.
<mgrwt>
<rscale>  3 0.24602969E+03</rscale>
<asrwt>0</asrwt>
<pdfrwt beam="1">  1       21 0.49178868E-01 0.24602969E+03</pdfrwt>
<pdfrwt beam="2">  1       21 0.27605140E-01 0.24602969E+03</pdfrwt>
<totfact> 0.48211611E+04</totfact>
</mgrwt>
</event>
<event>
 4    0  0.1005289E-001  0.2882442E+03  0.7546771E-02  0.1091269E+00
         21   -1    0    0  502  501  0.00000000000E+00  0.00000000000E+00  0.11469671642E+03  0.11469671642E+03  0.00000000000E+00 0.  1.
         21   -1    0    0  503  502 -0.00000000000E+00 -0.00000000000E+00 -0.65464873330E+03  0.65464873330E+03  0.00000000000E+00 0. -1.
         25    1    1    2    0    0 -0.20695539481E+03  0.15693691464E+03 -0.27822507284E+03  0.40061692648E+03  0.12500000000E+03 0.  0.
         21    1    1    2  503  501  0.20695539481E+03 -0.15693691464E+03 -0.26172694403E+03  0.36872852324E+03  0.00000000000E+00 0.  1.
<mgrwt>
<rscale>  3 0.28824422E+03</rscale>
<asrwt>0</asrwt>
<pdfrwt beam="1">  1       21 0.17645649E-01 0.28824422E+03</pdfrwt>
<pdfrwt beam="2">  1       21 0.10071519E+00 0.28824422E+03</pdfrwt>
<totfact> 0.22388111E+04</totfact>
</mgrwt>
</event>
<event>
 4    0  0.1017799E-001  0.3148566E+03  0.7546771E-02  0.1078041E+00
         21   -1    0    0  502  501  0.00000000000E+00  0.00000000000E+00  0.96461940394E+02  0.96461940394E+02  0.00000000000E+00 0. -1.
         21   -1    0    0  503  502 -0.00000000000E+00 -0.00000000000E+00 -0.15029426273E+04  0.15029426273E+04  0.00000000000E+00 0.  1.
         25    1    1    2    0    0  0.86253540768E+02  0.27580789984E+03 -0.12091650698E+04  0.12494858290E+04  0.12500000000E+03 0.  0.
         21    1    1    2  503  501 -0.86253540768E+02 -0.27580789984E+03 -0.19731561707E+03  0.34991873863E+03  0.00000000000E+00 0. -1.
<mgrwt>
<rscale>  3 0.31485659E+03</rscale>
<asrwt>0</asrwt>
<pdfrwt beam="1">  1       21 0.14840299E-01 0.31485659E+03</pdfrwt>
<pdfrwt beam="2">  1       21 0.23122193E+00 0.31485659E+03</pdfrwt>
<totfact> 0.31123278E+03</totfact>
</mgrwt>
</event>
<event>
 4    0  0.1263414E-001  0.2373743E+03  0.7546771E-02  0.1121554E+00
         21   -1    0    0  502  501  0.00000000000E+00  0.00000000000E+00  0.11393497702E+03  0.11393497702E+03  0.00000000000E+00 0.  1.
         21   -1    0    0  503  502 -0.00000000000E+00 -0.00000000000E+00 -0.82138375852E+03  0.82138375852E+03  0.00000000000E+00 0.  1.
         25    1    1    2    0    0  0.19606770337E+03  0.47738794987E+02 -0.69354740000E+03  0.73304470048E+03  0.12500000000E+03 0.  0.
         21    1    1    2  503  501 -0.19606770337E+03 -0.47738794987E+02 -0.13901381505E+02  0.20227403506E+03  0.00000000000E+00 0.  1.
<mgrwt>
<rscale>  3 0.23737425E+03</rscale>
<asrwt>0</asrwt>
<pdfrwt beam="1">  1       21 0.17528458E-01 0.23737425E+03</pdfrwt>
<pdfrwt beam="2">  1       21 0.12636673E+00 0.23737425E+03</pdfrwt>
<totfact> 0.13297488E+04</totfact>
</mgrwt>
</event>
<event>
 4    0  0.1654410E-001  0.3290509E+03  0.7546771E-02  0.1071558E+00
         21   -1    0    0  502  501  0.00000000000E+00  0.00000000000E+00  0.20754961123E+03  0.20754961123E+03  0.00000000000E+00 0.  1.
         21   -1    0    0  503  502 -0.00000000000E+00 -0.00000000000E+00 -0.48889277466E+03  0.48889277466E+03  0.00000000000E+00 0.  1.
         25    1    1    2    0    0 -0.95427198342E+02  0.28903827266E+03 -0.18328543681E+03  0.37665371974E+03  0.12500000000E+03 0.  0.
         21    1    1    2  503  501  0.95427198342E+02 -0.28903827266E+03 -0.98057726617E+02  0.31978866615E+03  0.00000000000E+00 0.  1.
<mgrwt>
<rscale>  3 0.32905087E+03</rscale>
<asrwt>0</asrwt>
<pdfrwt beam="1">  1       21 0.31930710E-01 0.32905087E+03</pdfrwt>
<pdfrwt beam="2">  1       21 0.75214272E-01 0.32905087E+03</pdfrwt>
<totfact> 0.13908303E+04</totfact>
</mgrwt>
</event>
<event>
 4    0  0.1194769E-001  0.2432091E+03  0.7546771E-02  0.1117673E+00
         21   -1    0    0  503  501  0.00000000000E+00  0.00000000000E+00  0.11270086522E+03  0.11270086522E+03  0.00000000000E+00 0.  1.
         21   -1    0    0  501  502 -0.00000000000E+00 -0.00000000000E+00 -0.75006259440E+03  0.75006259440E+03  0.00000000000E+00 0. -1.
         25    1    1    2    0    0 -0.10298272122E+03  0.18143929423E+03 -0.60446390926E+03  0.65155757685E+03  0.12500000000E+03 0.  0.
         21    1    1    2  503  502  0.10298272122E+03 -0.18143929423E+03 -0.32897819917E+02  0.21120588277E+03  0.00000000000E+00 0.  1.
<mgrwt>
<rscale>  3 0.24320908E+03</rscale>
<asrwt>0</asrwt>
<pdfrwt beam="1">  1       21 0.17338595E-01 0.24320908E+03</pdfrwt>
<pdfrwt beam="2">  1       21 0.11539425E+00 0.24320908E+03</pdfrwt>
<totfact> 0.16966657E+04</totfact>
</mgrwt>
</event>
<event>
 4    0  0.1084282E-001  0.3816912E+03  0.7546771E-02  0.1050310E+00
         21   -1    0    0  503  501  0.00000000000E+00  0.00000000000E+00  0.15546585899E+04  0.15546585899E+04  0.00000000000E+00 0. -1.
         21   -1    0    0  501  502 -0.00000000000E+00 -0.00000000000E+00 -0.13059886950E+03  0.13059886950E+03  0.00000000000E+00 0. -1.
         25    1    1    2    0    0  0.15175020008E+03 -0.32716212243E+03  0.24809701244E+03  0.45523653760E+03  0.12500000000E+03 0.  0.
         21    1    1    2  503  502 -0.15175020008E+03  0.32716212243E+03  0.11759627079E+04  0.12300209218E+04  0.00000000000E+00 0. -1.
<mgrwt>
<rscale>  3 0.38169121E+03</rscale>
<asrwt>0</asrwt>
<pdfrwt beam="1">  1       21 0.23917823E+00 0.38169121E+03</pdfrwt>
<pdfrwt beam="2">  1       21 0.20092135E-01 0.38169121E+03</pdfrwt>
<totfact> 0.15165266E+03</totfact>
</mgrwt>
</event>
<event>
 4    0  0.1365163E-001  0.2949159E+03  0.7546771E-02  0.1087810E+00
         21   -1    0    0  503  501  0.00000000000E+00  0.00000000000E+00  0.59800300738E+03  0.59800300738E+03  0.00000000000E+00 0. -1.
         21   -1    0    0  501  502 -0.00000000000E+00 -0.00000000000E+00 -0.31567200373E+03  0.31567200373E+03  0.00000000000E+00 0. -1.
         25    1    1    2    0    0 -0.24530125775E+03  0.10572459422E+03 -0.20415207054E+03  0.35868295859E+03  0.12500000000E+03 0.  0.
         21    1    1    2  503  502  0.24530125775E+03 -0.10572459422E+03  0.48648307420E+03  0.55499205252E+03  0.00000000000E+00 0. -1.
<mgrwt>
<rscale>  3 0.29491591E+03</rscale>
<asrwt>0</asrwt>
<pdfrwt beam="1">  1       21 0.92000463E-01 0.29491591E+03</pdfrwt>
<pdfrwt beam="2">  1       21 0.48564924E-01 0.29491591E+03</pdfrwt>
<totfact> 0.37724836E+03</totfact>
</mgrwt>
</event>
<event>
 4    0  0.1313620E-001  0.3141206E+03  0.7546771E-02  0.1078387E+00
         21   -1    0    0  502  501  0.00000000000E+00  0.00000000000E+00  0.22697377053E+03  0.22697377053E+03  0.00000000000E+00 0. -1.
         21   -1    0    0  503  502 -0.00000000000E+00 -0.00000000000E+00 -0.69829173551E+03  0.69829173551E+03  0.00000000000E+00 0. -1.
         25    1    1    2    0    0  0.18690311894E+03 -0.21934895953E+03 -0.54389619137E+03  0.62808821745E+03  0.12500000000E+03 0.  0.
         21    1    1    2  503  501 -0.18690311894E+03  0.21934895953E+03  0.72578226390E+02  0.29717728860E+03  0.00000000000E+00 0. -1.
<mgrwt>
<rscale>  3 0.31412058E+03</rscale>
<asrwt>0</asrwt>
<pdfrwt beam="1">  1       21 0.34919042E-01 0.31412058E+03</pdfrwt>
<pdfrwt beam="2">  1       21 0.10742950E+00 0.31412058E+03</pdfrwt>
<totfact> 0.50644206E+03</totfact>
</mgrwt>
</event>
<event>
 4    0  0.1167211E-001  0.3530752E+03  0.7546771E-02  0.1061360E+00
         21   -1    0    0  502  501  0.00000000000E+00  0.00000000000E+00  0.32223455458E+03  0.32223455458E+03  0.00000000000E+00 0. -1.
         21   -1    0    0  503  502 -0.00000000000E+00 -0.00000000000E+00 -0.73294336952E+03  0.73294336952E+03  0.00000000000E+00 0. -1.
         25    1    1    2    0    0  0.15988556044E+03 -0.28891813020E+03 -0.58386802646E+03  0.68232246828E+03  0.12500000000E+03 0.  0.
         21    1    1    2  503  501 -0.15988556044E+03  0.28891813020E+03  0.17315921152E+03  0.37285545581E+03  0.00000000000E+00 0. -1.
<mgrwt>
<rscale>  3 0.35307517E+03</rscale>
<asrwt>0</asrwt>
<pdfrwt beam="1">  1       21 0.49574548E-01 0.35307517E+03</pdfrwt>
<pdfrwt beam="2">  1       21 0.11276052E+00 0.35307517E+03</pdfrwt>
<totfact> 0.21435216E+03</totfact>
</mgrwt>
</event>
<event>
 4    0  0.1544415E-001  0.2826510E+03  0.7546771E-02  0.1094250E+00
         21   -1    0    0  502  501  0.00000000000E+00  0.00000000000E+00  0.77299640682E+02  0.77299640682E+02  0.00000000000E+00 0. -1.
         21   -1    0    0  503  502 -0.00000000000E+00 -0.00000000000E+00 -0.93592419483E+03  0.93592419483E+03  0.00000000000E+00 0. -1.
         25    1    1    2    0    0 -0.14768212968E+03  0.20604993983E+03 -0.49369019075E+03  0.56887748555E+03  0.12500000000E+03 0.  0.
         21    1    1    2  503  501  0.14768212968E+03 -0.20604993983E+03 -0.36493436340E+03  0.44434634995E+03  0.00000000000E+00 0. -1.
<mgrwt>
<rscale>  3 0.28265100E+03</rscale>
<asrwt>0</asrwt>
<pdfrwt beam="1">  1       21 0.11892252E-01 0.28265100E+03</pdfrwt>
<pdfrwt beam="2">  1       21 0.14398835E+00 0.28265100E+03</pdfrwt>
<totfact> 0.18845681E+04</totfact>
</mgrwt>
</event>
<event>
 4    0  0.1005289E-001  0.2408679E+03  0.7546771E-02  0.1119216E+00
         21   -1    0    0  503  501  0.00000000000E+00  0.00000000000E+00  0.15016145533E+03  0.15016145533E+03  0.00000000000E+00 0. -1.
         21   -1    0    0  501  502 -0.00000000000E+00 -0.00000000000E+00 -0.45448008230E+03  0.45448008230E+03  0.00000000000E+00 0.  1.
         25    1    1    2    0    0 -0.19638396247E+03 -0.61852225668E+02 -0.31726647075E+03  0.39834077371E+03  0.12500000000E+03 0.  0.
         21    1    1    2  503  502  0.19638396247E+03  0.61852225668E+02  0.12947843783E+02  0.20630076392E+03  0.00000000000E+00 0. -1.
<mgrwt>
<rscale>  3 0.24086793E+03</rscale>
<asrwt>0</asrwt>
<pdfrwt beam="1">  1       21 0.23101763E-01 0.24086793E+03</pdfrwt>
<pdfrwt beam="2">  1       21 0.69920010E-01 0.24086793E+03</pdfrwt>
<totfact> 0.31902623E+04</totfact>
</mgrwt>
</event>
<event>
 4    0  0.1058657E-001  0.3010545E+03  0.7546771E-02  0.1084715E+00
         21   -1    0    0  502  501  0.00000000000E+00  0.00000000000E+00  0.12509513853E+03  0.12509513853E+03  0.00000000000E+00 0. -1.
         21   -1    0    0  503  502 -0.00000000000E+00 -0.00000000000E+00 -0.15167086585E+04  0.15167086585E+04  0.00000000000E+00 0. -1.
         25    1    1    2    0    0  0.27239746919E+03  0.28433408214E+02 -0.13265788451E+04  0.13603107263E+04  0.12500000000E+03 0.  0.
         21    1    1    2  503  501 -0.27239746919E+03 -0.28433408214E+02 -0.65034674900E+02  0.28149307072E+03  0.00000000000E+00 0. -1.
<mgrwt>
<rscale>  3 0.30105455E+03</rscale>
<asrwt>0</asrwt>
<pdfrwt beam="1">  1       21 0.19245406E-01 0.30105455E+03</pdfrwt>
<pdfrwt beam="2">  1       21 0.23333980E+00 0.30105455E+03</pdfrwt>
<totfact> 0.18801778E+03</totfact>
</mgrwt>
</event>
<event>
 4    0  0.1239637E-001  0.3987878E+03  0.7546771E-02  0.1044200E+00
         21   -1    0    0  503  501  0.00000000000E+00  0.00000000000E+00  0.14848917305E+04  0.14848917305E+04  0.00000000000E+00 0.  1.
         21   -1    0    0  501  502 -0.00000000000E+00 -0.00000000000E+00 -0.10178192169E+03  0.10178192169E+03  0.00000000000E+00 0.  1.
         25    1    1    2    0    0 -0.20481364966E+03  0.31852480011E+03  0.71782193464E+03  0.82115772493E+03  0.12500000000E+03 0.  0.
         21    1    1    2  503  502  0.20481364966E+03 -0.31852480011E+03  0.66528787417E+03  0.76551592726E+03  0.00000000000E+00 0.  1.
<mgrwt>
<rscale>  3 0.39878776E+03</rscale>
<asrwt>0</asrwt>
<pdfrwt beam="1">  1       21 0.22844487E+00 0.39878776E+03</pdfrwt>
<pdfrwt beam="2">  1       21 0.15658758E-01 0.39878776E+03</pdfrwt>
<totfact> 0.27978316E+03</totfact>
</mgrwt>
</event>
<event>
 4    0  0.1005289E-001  0.2664464E+03  0.7546771E-02  0.1103331E+00
         21   -1    0    0  502  501  0.00000000000E+00  0.00000000000E+00  0.74680920855E+02  0.74680920855E+02  0.00000000000E+00 0.  1.
         21   -1    0    0  503  502 -0.00000000000E+00 -0.00000000000E+00 -0.18774536779E+04  0.18774536779E+04  0.00000000000E+00 0.  1.
         25    1    1    2    0    0 -0.14475338048E+03  0.18551313523E+03 -0.16504738389E+04  0.16718425636E+04  0.12500000000E+03 0.  0.
         21    1    1    2  503  501  0.14475338048E+03 -0.18551313523E+03 -0.15229891809E+03  0.28029203512E+03  0.00000000000E+00 0.  1.
<mgrwt>
<rscale>  3 0.26644636E+03</rscale>
<asrwt>0</asrwt>
<pdfrwt beam="1">  1       21 0.11489371E-01 0.26644636E+03</pdfrwt>
<pdfrwt beam="2">  1       21 0.28883906E+00 0.26644636E+03</pdfrwt>
<totfact> 0.23246534E+03</totfact>
</mgrwt>
</event>
<event>
 4    0  0.1038291E-001  0.2488324E+03  0.7546771E-02  0.1114045E+00
         21   -1    0    0  503  501  0.00000000000E+00  0.00000000000E+00  0.10501777031E+04  0.10501777031E+04  0.00000000000E+00 0. -1.
         21   -1    0    0  501  502 -0.00000000000E+00 -0.00000000000E+00 -0.15575474139E+03  0.15575474139E+03  0.00000000000E+00 0. -1.
         25    1    1    2    0    0  0.62185822103E+02  0.20597443094E+03 -0.35582024291E+02  0.25136352783E+03  0.12500000000E+03 0.  0.
         21    1    1    2  503  502 -0.62185822103E+02 -0.20597443094E+03  0.93000498602E+03  0.95456891668E+03  0.00000000000E+00 0. -1.
<mgrwt>
<rscale>  3 0.24883236E+03</rscale>
<asrwt>0</asrwt>
<pdfrwt beam="1">  1       21 0.16156580E+00 0.24883236E+03</pdfrwt>
<pdfrwt beam="2">  1       21 0.23962269E-01 0.24883236E+03</pdfrwt>
<totfact> 0.38484718E+03</totfact>
</mgrwt>
</event>
<event>
 4    0  0.1419229E-001  0.2412677E+03  0.7546771E-02  0.1118951E+00
         21   -1    0    0  502  501  0.00000000000E+00  0.00000000000E+00  0.76252923337E+02  0.76252923337E+02  0.00000000000E+00 0. -1.
         21   -1    0    0  503  502 -0.00000000000E+00 -0.00000000000E+00 -0.69178526049E+03  0.69178526049E+03  0.00000000000E+00 0. -1.
         25    1    1    2    0    0 -0.13259569514E+03  0.15812493474E+03 -0.41650344422E+03  0.48133692192E+03  0.12500000000E+03 0.  0.
         21    1    1    2  503  501  0.13259569514E+03 -0.15812493474E+03 -0.19902889293E+03  0.28670126191E+03  0.00000000000E+00 0. -1.
<mgrwt>
<rscale>  3 0.24126772E+03</rscale>
<asrwt>0</asrwt>
<pdfrwt beam="1">  1       21 0.11731219E-01 0.24126772E+03</pdfrwt>
<pdfrwt beam="2">  1       21 0.10642850E+00 0.24126772E+03</pdfrwt>
<totfact> 0.42181074E+04</totfact>
</mgrwt>
</event>
<event>
 4    0  0.1612899E-001  0.2882368E+03  0.7546771E-02  0.1091273E+00
         21   -1    0    0  502  501  0.00000000000E+00  0.00000000000E+00  0.25786344072E+03  0.25786344072E+03  0.00000000000E+00 0.  1.
         21   -1    0    0  503  502 -0.00000000000E+00 -0.00000000000E+00 -0.81512142160E+03  0.81512142160E+03  0.00000000000E+00 0. -1.
         25    1    1    2    0    0 -0.19285624903E+03  0.17395947304E+03 -0.71375508734E+03  0.76975759545E+03  0.12500000000E+03 0.  0.
         21    1    1    2  503  501  0.19285624903E+03 -0.17395947304E+03  0.15649710645E+03  0.30322726688E+03  0.00000000000E+00 0.  1.
<mgrwt>
<rscale>  3 0.28823676E+03</rscale>
<asrwt>0</asrwt>
<pdfrwt beam="1">  1       21 0.39671299E-01 0.28823676E+03</pdfrwt>
<pdfrwt beam="2">  1       21 0.12540329E+00 0.28823676E+03</pdfrwt>
<totfact> 0.27010068E+03</totfact>
</mgrwt>
</event>
<event>
 4    0  0.1143689E-001  0.3559198E+03  0.7546771E-02  0.1060211E+00
         21   -1    0    0  503  501  0.00000000000E+00  0.00000000000E+00  0.45781357797E+03  0.45781357797E+03  0.00000000000E+00 0. -1.
         21   -1    0    0  501  502 -0.00000000000E+00 -0.00000000000E+00 -0.47256902448E+03  0.47256902448E+03  0.00000000000E+00 0. -1.
         25    1    1    2    0    0  0.24309511400E+03  0.22794449056E+03 -0.31988436516E+03  0.47854459803E+03  0.12500000000E+03 0.  0.
         21    1    1    2  503  502 -0.24309511400E+03 -0.22794449056E+03  0.30512891866E+03  0.45183800441E+03  0.00000000000E+00 0. -1.
<mgrwt>
<rscale>  3 0.35591983E+03</rscale>
<asrwt>0</asrwt>
<pdfrwt beam="1">  1       21 0.70432858E-01 0.35591983E+03</pdfrwt>
<pdfrwt beam="2">  1       21 0.72702927E-01 0.35591983E+03</pdfrwt>
<totfact> 0.28118855E+03</totfact>
</mgrwt>
</event>
<event>
 4    0  0.1164752E-001  0.2546476E+03  0.7546771E-02  0.1110402E+00
         21   -1    0    0  503  501  0.00000000000E+00  0.00000000000E+00  0.10754271735E+04  0.10754271735E+04  0.00000000000E+00 0. -1.
         21   -1    0    0  501  502 -0.00000000000E+00 -0.00000000000E+00 -0.99879106043E+02  0.99879106043E+02  0.00000000000E+00 0. -1.
         25    1    1    2    0    0  0.43030586017E+02 -0.21764367063E+03  0.10248692356E+03  0.27449766520E+03  0.12500000000E+03 0.  0.
         21    1    1    2  503  502 -0.43030586017E+02  0.21764367063E+03  0.87306114393E+03  0.90080861438E+03  0.00000000000E+00 0. -1.
<mgrwt>
<rscale>  3 0.25464760E+03</rscale>
<asrwt>0</asrwt>
<pdfrwt beam="1">  1       21 0.16545033E+00 0.25464760E+03</pdfrwt>
<pdfrwt beam="2">  1       21 0.15366017E-01 0.25464760E+03</pdfrwt>
<totfact> 0.82538663E+03</totfact>
</mgrwt>
</event>
<event>
 4    0  0.1786249E-001  0.2649367E+03  0.7546771E-02  0.1104213E+00
         21   -1    0    0  503  501  0.00000000000E+00  0.00000000000E+00  0.16270018714E+03  0.16270018714E+03  0.00000000000E+00 0. -1.
         21   -1    0    0  501  502 -0.00000000000E+00 -0.00000000000E+00 -0.40256800808E+03  0.40256800808E+03  0.00000000000E+00 0. -1.
         25    1    1    2    0    0  0.19231488094E+03  0.13259509179E+03 -0.19102415494E+03  0.32662164589E+03  0.12500000000E+03 0.  0.
         21    1    1    2  503  502 -0.19231488094E+03 -0.13259509179E+03 -0.48843666000E+02  0.23864654932E+03  0.00000000000E+00 0. -1.
<mgrwt>
<rscale>  3 0.26493673E+03</rscale>
<asrwt>0</asrwt>
<pdfrwt beam="1">  1       21 0.25030798E-01 0.26493673E+03</pdfrwt>
<pdfrwt beam="2">  1       21 0.61933540E-01 0.26493673E+03</pdfrwt>
<totfact> 0.35349248E+04</totfact>
</mgrwt>
</event>
<event>
 4    0  0.1191805E-001  0.3134013E+03  0.7546771E-02  0.1078727E+00
         21   -1    0    0  502  501  0.00000000000E+00  0.00000000000E+00  0.18671252583E+03  0.18671252583E+03  0.00000000000E+00 0. -1.
         21   -1    0    0  503  502 -0.00000000000E+00 -0.00000000000E+00 -0.74527799577E+03  0.74527799577E+03  0.00000000000E+00 0.  1.
         25    1    1    2    0    0 -0.27358995102E+03  0.87999458698E+02 -0.56323641257E+03  0.64455847095E+03  0.12500000000E+03 0.  0.
         21    1    1    2  503  501  0.27358995102E+03 -0.87999458698E+02  0.46709426311E+01  0.28743205064E+03  0.00000000000E+00 0. -1.
<mgrwt>
<rscale>  3 0.31340129E+03</rscale>
<asrwt>0</asrwt>
<pdfrwt beam="1">  1       21 0.28725004E-01 0.31340129E+03</pdfrwt>
<pdfrwt beam="2">  1       21 0.11465815E+00 0.31340129E+03</pdfrwt>
<totfact> 0.63586896E+03</totfact>
</mgrwt>
</event>
<event>
 4    0  0.1611215E-001  0.2812963E+03  0.7546771E-02  0.1094983E+00
         21   -1    0    0  502  501  0.00000000000E+00  0.00000000000E+00  0.78906623609E+03  0.78906623609E+03  0.00000000000E+00 0.  1.
         21   -1    0    0  503  502 -0.00000000000E+00 -0.00000000000E+00 -0.25185148151E+03  0.25185148151E+03  0.00000000000E+00 0. -1.
         25    1    1    2    0    0  0.38652179478E+02 -0.24901532816E+03 -0.14297646136E+03  0.31554697454E+03  0.12500000000E+03 0.  0.
         21    1    1    2  503  501 -0.38652179478E+02  0.24901532816E+03  0.68019121594E+03  0.72537074306E+03  0.00000000000E+00 0.  1.
<mgrwt>
<rscale>  3 0.28129633E+03</rscale>
<asrwt>0</asrwt>
<pdfrwt beam="1">  1       21 0.12139480E+00 0.28129633E+03</pdfrwt>
<pdfrwt beam="2">  1       21 0.38746382E-01 0.28129633E+03</pdfrwt>
<totfact> 0.30889953E+03</totfact>
</mgrwt>
</event>
<event>
 4    0  0.1587341E-001  0.2437144E+03  0.7546771E-02  0.1117343E+00
         21   -1    0    0  502  501  0.00000000000E+00  0.00000000000E+00  0.26085919296E+03  0.26085919296E+03  0.00000000000E+00 0. -1.
         21   -1    0    0  503  502 -0.00000000000E+00 -0.00000000000E+00 -0.24244828816E+03  0.24244828816E+03  0.00000000000E+00 0. -1.
         25    1    1    2    0    0  0.20886145509E+03  0.12190848627E+02 -0.99394902124E+02  0.26320347791E+03  0.12500000000E+03 0.  0.
         21    1    1    2  503  501 -0.20886145509E+03 -0.12190848627E+02  0.11780580692E+03  0.24010400321E+03  0.00000000000E+00 0. -1.
<mgrwt>
<rscale>  3 0.24371443E+03</rscale>
<asrwt>0</asrwt>
<pdfrwt beam="1">  1       21 0.40132184E-01 0.24371443E+03</pdfrwt>
<pdfrwt beam="2">  1       21 0.37299737E-01 0.24371443E+03</pdfrwt>
<totfact> 0.40488539E+04</totfact>
</mgrwt>
</event>
<event>
 4    0  0.1464408E-001  0.2469161E+03  0.7546771E-02  0.1115269E+00
         21   -1    0    0  502  501  0.00000000000E+00  0.00000000000E+00  0.77495749718E+03  0.77495749718E+03  0.00000000000E+00 0.  1.
         21   -1    0    0  503  502 -0.00000000000E+00 -0.00000000000E+00 -0.68232722246E+02  0.68232722246E+02  0.00000000000E+00 0.  1.
         25    1    1    2    0    0 -0.32139973468E+02 -0.21049839166E+03  0.38554113950E+03  0.45783132378E+03  0.12500000000E+03 0.  0.
         21    1    1    2  503  501  0.32139973468E+02  0.21049839166E+03  0.32118363543E+03  0.38535889565E+03  0.00000000000E+00 0.  1.
<mgrwt>
<rscale>  3 0.24691608E+03</rscale>
<asrwt>0</asrwt>
<pdfrwt beam="1">  1       21 0.11922422E+00 0.24691608E+03</pdfrwt>
<pdfrwt beam="2">  1       21 0.10497342E-01 0.24691608E+03</pdfrwt>
<totfact> 0.38866557E+04</totfact>
</mgrwt>
</event>
<event>
 4    0  0.2158970E-001  0.2453921E+03  0.7546771E-02  0.1116252E+00
         21   -1    0    0  503  501  0.00000000000E+00  0.00000000000E+00  0.42516736329E+03  0.42516736329E+03  0.00000000000E+00 0. -1.
         21   -1    0    0  501  502 -0.00000000000E+00 -0.00000000000E+00 -0.52628233163E+03  0.52628233163E+03  0.00000000000E+00 0.  1.
         25    1    1    2    0    0 -0.21114053311E+03 -0.34609895290E+01 -0.46782892618E+03  0.52828137137E+03  0.12500000000E+03 0.  0.
         21    1    1    2  503  502  0.21114053311E+03  0.34609895290E+01  0.36671395784E+03  0.42316832354E+03  0.00000000000E+00 0. -1.
<mgrwt>
<rscale>  3 0.24539214E+03</rscale>
<asrwt>0</asrwt>
<pdfrwt beam="1">  1       21 0.65410364E-01 0.24539214E+03</pdfrwt>
<pdfrwt beam="2">  1       21 0.80966512E-01 0.24539214E+03</pdfrwt>
<totfact> 0.27614344E+03</totfact>
</mgrwt>
</event>
<event>
 4    0  0.1310451E-001  0.2384013E+03  0.7546771E-02  0.1120862E+00
         21   -1    0    0  503  501  0.00000000000E+00  0.00000000000E+00  0.79422367364E+02  0.79422367364E+02  0.00000000000E+00 0.  1.
         21   -1    0    0  501  502 -0.00000000000E+00 -0.00000000000E+00 -0.82998159093E+03  0.82998159093E+03  0.00000000000E+00 0.  1.
         25    1    1    2    0    0  0.15849367902E+03 -0.12684603898E+03 -0.62929669192E+03  0.67294092635E+03  0.12500000000E+03 0.  0.
         21    1    1    2  503  502 -0.15849367902E+03  0.12684603898E+03 -0.12126253164E+03  0.23646303194E+03  0.00000000000E+00 0.  1.
<mgrwt>
<rscale>  3 0.23840127E+03</rscale>
<asrwt>0</asrwt>
<pdfrwt beam="1">  1       21 0.12218825E-01 0.23840127E+03</pdfrwt>
<pdfrwt beam="2">  1       21 0.12768948E+00 0.23840127E+03</pdfrwt>
<totfact> 0.25021960E+04</totfact>
</mgrwt>
</event>
<event>
 4    0  0.1005289E-001  0.2935630E+03  0.7546771E-02  0.1088503E+00
         21   -1    0    0  502  501  0.00000000000E+00  0.00000000000E+00  0.18476497397E+03  0.18476497397E+03  0.00000000000E+00 0.  1.
         21   -1    0    0  503  502 -0.00000000000E+00 -0.00000000000E+00 -0.44581948535E+03  0.44581948535E+03  0.00000000000E+00 0. -1.
         25    1    1    2    0    0  0.24109380108E+03  0.11148110446E+03 -0.20782981972E+03  0.35968387723E+03  0.12500000000E+03 0.  0.
         21    1    1    2  503  501 -0.24109380108E+03 -0.11148110446E+03 -0.53224691657E+02  0.27090058208E+03  0.00000000000E+00 0.  1.
<mgrwt>
<rscale>  3 0.29356304E+03</rscale>
<asrwt>0</asrwt>
<pdfrwt beam="1">  1       21 0.28425381E-01 0.29356304E+03</pdfrwt>
<pdfrwt beam="2">  1       21 0.68587612E-01 0.29356304E+03</pdfrwt>
<totfact> 0.21817502E+04</totfact>
</mgrwt>
</event>
<event>
 4    0  0.1253887E-001  0.2382819E+03  0.7546771E-02  0.1120943E+00
         21   -1    0    0  503  501  0.00000000000E+00  0.00000000000E+00  0.11762921716E+03  0.11762921716E+03  0.00000000000E+00 0. -1.
         21   -1    0    0  501  502 -0.00000000000E+00 -0.00000000000E+00 -0.86430469377E+03  0.86430469377E+03  0.00000000000E+00 0. -1.
         25    1    1    2    0    0 -0.19764448007E+03 -0.45715740096E+02 -0.74167215476E+03  0.77900953431E+03  0.12500000000E+03 0.  0.
         21    1    1    2  503  502  0.19764448007E+03  0.45715740096E+02 -0.50033218423E+01  0.20292437662E+03  0.00000000000E+00 0. -1.
<mgrwt>
<rscale>  3 0.23828191E+03</rscale>
<asrwt>0</asrwt>
<pdfrwt beam="1">  1       21 0.18096803E-01 0.23828191E+03</pdfrwt>
<pdfrwt beam="2">  1       21 0.13296995E+00 0.23828191E+03</pdfrwt>
<totfact> 0.11005809E+04</totfact>
</mgrwt>
</event>
<event>
 4    0  0.1005289E-001  0.2508169E+03  0.7546771E-02  0.1112790E+00
         21   -1    0    0  502  501  0.00000000000E+00  0.00000000000E+00  0.59504546360E+02  0.59504546360E+02  0.00000000000E+00 0. -1.
         21   -1    0    0  503  502 -0.00000000000E+00 -0.00000000000E+00 -0.93602283194E+03  0.93602283194E+03  0.00000000000E+00 0.  1.
         25    1    1    2    0    0 -0.10651513559E+03 -0.18957495975E+03 -0.53138235884E+03  0.58760220452E+03  0.12500000000E+03 0.  0.
         21    1    1    2  503  501  0.10651513559E+03  0.18957495975E+03 -0.34513592675E+03  0.40792517378E+03  0.00000000000E+00 0. -1.
<mgrwt>
<rscale>  3 0.25081694E+03</rscale>
<asrwt>0</asrwt>
<pdfrwt beam="1">  1       21 0.91545460E-02 0.25081694E+03</pdfrwt>
<pdfrwt beam="2">  1       21 0.14400351E+00 0.25081694E+03</pdfrwt>
<totfact> 0.30522208E+04</totfact>
</mgrwt>
</event>
<event>
 4    0  0.1005289E-001  0.2422656E+03  0.7546771E-02  0.1118293E+00
         21   -1    0    0  503  501  0.00000000000E+00  0.00000000000E+00  0.17454464259E+04  0.17454464259E+04  0.00000000000E+00 0. -1.
         21   -1    0    0  501  502 -0.00000000000E+00 -0.00000000000E+00 -0.40955825684E+03  0.40955825684E+03  0.00000000000E+00 0. -1.
         25    1    1    2    0    0 -0.15086479069E+03  0.14250417490E+03 -0.36687186697E+03  0.43964484724E+03  0.12500000000E+03 0.  0.
         21    1    1    2  503  502  0.15086479069E+03 -0.14250417490E+03  0.17027600361E+04  0.17153598355E+04  0.00000000000E+00 0. -1.
<mgrwt>
<rscale>  3 0.24226561E+03</rscale>
<asrwt>0</asrwt>
<pdfrwt beam="1">  1       21 0.26853021E+00 0.24226561E+03</pdfrwt>
<pdfrwt beam="2">  1       21 0.63008964E-01 0.24226561E+03</pdfrwt>
<totfact> 0.11280420E+02</totfact>
</mgrwt>
</event>
<event>
 4    0  0.1452079E-001  0.2445286E+03  0.7546771E-02  0.1116812E+00
         21   -1    0    0  502  501  0.00000000000E+00  0.00000000000E+00  0.93663397536E+02  0.93663397536E+02  0.00000000000E+00 0.  1.
         21   -1    0    0  503  502 -0.00000000000E+00 -0.00000000000E+00 -0.59382956376E+03  0.59382956376E+03  0.00000000000E+00 0.  1.
         25    1    1    2    0    0 -0.11525986430E+03 -0.17573957962E+03 -0.35881845161E+03  0.43421759220E+03  0.12500000000E+03 0.  0.
         21    1    1    2  503  501  0.11525986430E+03  0.17573957962E+03 -0.14134771462E+03  0.25327536910E+03  0.00000000000E+00 0.  1.
<mgrwt>
<rscale>  3 0.24452860E+03</rscale>
<asrwt>0</asrwt>
<pdfrwt beam="1">  1       21 0.14409753E-01 0.24452860E+03</pdfrwt>
<pdfrwt beam="2">  1       21 0.91358397E-01 0.24452860E+03</pdfrwt>
<totfact> 0.41752961E+04</totfact>
</mgrwt>
</event>
<event>
 4    0  0.1065273E-001  0.2466526E+03  0.7546771E-02  0.1115439E+00
         21   -1    0    0  502  501  0.00000000000E+00  0.00000000000E+00  0.28016298441E+03  0.28016298441E+03  0.00000000000E+00 0.  1.
         21   -1    0    0  503  502 -0.00000000000E+00 -0.00000000000E+00 -0.26843408866E+03  0.26843408866E+03  0.00000000000E+00 0. -1.
         25    1    1    2    0    0  0.52082929609E+02  0.20615494515E+03 -0.14347530270E+03  0.28534655325E+03  0.12500000000E+03 0.  0.
         21    1    1    2  503  501 -0.52082929609E+02 -0.20615494515E+03  0.15520419845E+03  0.26325051981E+03  0.00000000000E+00 0.  1.
<mgrwt>
<rscale>  3 0.24665258E+03</rscale>
<asrwt>0</asrwt>
<pdfrwt beam="1">  1       21 0.43101998E-01 0.24665258E+03</pdfrwt>
<pdfrwt beam="2">  1       21 0.41297552E-01 0.24665258E+03</pdfrwt>
<totfact> 0.28431752E+04</totfact>
</mgrwt>
</event>
<event>
 4    0  0.1631652E-001  0.2410966E+03  0.7546771E-02  0.1119064E+00
         21   -1    0    0  503  501  0.00000000000E+00  0.00000000000E+00  0.32636383351E+03  0.32636383351E+03  0.00000000000E+00 0. -1.
         21   -1    0    0  501  502 -0.00000000000E+00 -0.00000000000E+00 -0.19447401569E+03  0.19447401569E+03  0.00000000000E+00 0. -1.
         25    1    1    2    0    0 -0.19114909901E+03  0.77230695934E+02 -0.49630923921E+02  0.24615195927E+03  0.12500000000E+03 0.  0.
         21    1    1    2  503  502  0.19114909901E+03 -0.77230695934E+02  0.18152074173E+03  0.27468588993E+03  0.00000000000E+00 0. -1.
<mgrwt>
<rscale>  3 0.24109657E+03</rscale>
<asrwt>0</asrwt>
<pdfrwt beam="1">  1       21 0.50209821E-01 0.24109657E+03</pdfrwt>
<pdfrwt beam="2">  1       21 0.29919079E-01 0.24109657E+03</pdfrwt>
<totfact> 0.39534741E+04</totfact>
</mgrwt>
</event>
<event>
 4    0  0.1758726E-001  0.2659124E+03  0.7546771E-02  0.1103642E+00
         21   -1    0    0  503  501  0.00000000000E+00  0.00000000000E+00  0.10601878914E+03  0.10601878914E+03  0.00000000000E+00 0.  1.
         21   -1    0    0  501  502 -0.00000000000E+00 -0.00000000000E+00 -0.59386800453E+03  0.59386800453E+03  0.00000000000E+00 0.  1.
         25    1    1    2    0    0 -0.23463297406E+03 -0.56345197817E+01 -0.28347987821E+03  0.38867752917E+03  0.12500000000E+03 0.  0.
         21    1    1    2  503  502  0.23463297406E+03  0.56345197817E+01 -0.20436933718E+03  0.31120926450E+03  0.00000000000E+00 0.  1.
<mgrwt>
<rscale>  3 0.26591235E+03</rscale>
<asrwt>0</asrwt>
<pdfrwt beam="1">  1       21 0.16310583E-01 0.26591235E+03</pdfrwt>
<pdfrwt beam="2">  1       21 0.91364309E-01 0.26591235E+03</pdfrwt>
<totfact> 0.32949787E+04</totfact>
</mgrwt>
</event>
<event>
 4    0  0.1005289E-001  0.2422710E+03  0.7546771E-02  0.1118289E+00
         21   -1    0    0  503  501  0.00000000000E+00  0.00000000000E+00  0.18244963455E+02  0.18244963455E+02  0.00000000000E+00 0.  1.
         21   -1    0    0  501  502 -0.00000000000E+00 -0.00000000000E+00 -0.27800427752E+04  0.27800427752E+04  0.00000000000E+00 0. -1.
         25    1    1    2    0    0 -0.14839796616E+03 -0.14508019286E+03 -0.14137674116E+04  0.14343756526E+04  0.12500000000E+03 0.  0.
         21    1    1    2  503  502  0.14839796616E+03  0.14508019286E+03 -0.13480304001E+04  0.13639120860E+04  0.00000000000E+00 0.  1.
<mgrwt>
<rscale>  3 0.24227096E+03</rscale>
<asrwt>0</asrwt>
<pdfrwt beam="1">  1       21 0.28069203E-02 0.24227096E+03</pdfrwt>
<pdfrwt beam="2">  1       21 0.42769846E+00 0.24227096E+03</pdfrwt>
<totfact> 0.38588461E+03</totfact>
</mgrwt>
</event>
<event>
 4    0  0.1005289E-001  0.2476398E+03  0.7546771E-02  0.1114806E+00
         21   -1    0    0  503  501  0.00000000000E+00  0.00000000000E+00  0.62162323543E+02  0.62162323543E+02  0.00000000000E+00 0. -1.
         21   -1    0    0  501  502 -0.00000000000E+00 -0.00000000000E+00 -0.13757907213E+04  0.13757907213E+04  0.00000000000E+00 0.  1.
         25    1    1    2    0    0 -0.17365510789E+03  0.12467698360E+03 -0.11278976850E+04  0.11547634539E+04  0.12500000000E+03 0.  0.
         21    1    1    2  503  502  0.17365510789E+03 -0.12467698360E+03 -0.18573071278E+03  0.28318959092E+03  0.00000000000E+00 0. -1.
<mgrwt>
<rscale>  3 0.24763975E+03</rscale>
<asrwt>0</asrwt>
<pdfrwt beam="1">  1       21 0.95634344E-02 0.24763975E+03</pdfrwt>
<pdfrwt beam="2">  1       21 0.21166011E+00 0.24763975E+03</pdfrwt>
<totfact> 0.95259450E+03</totfact>
</mgrwt>
</event>
<event>
 4    0  0.1005289E-001  0.2386754E+03  0.7546771E-02  0.1120678E+00
         21   -1    0    0  503  501  0.00000000000E+00  0.00000000000E+00  0.12528109279E+03  0.12528109279E+03  0.00000000000E+00 0.  1.
         21   -1    0    0  501  502 -0.00000000000E+00 -0.00000000000E+00 -0.41249295305E+03  0.41249295305E+03  0.00000000000E+00 0. -1.
         25    1    1    2    0    0  0.19822863169E+03 -0.45236853786E+02 -0.21726607444E+03  0.32275456692E+03  0.12500000000E+03 0.  0.
         21    1    1    2  503  502 -0.19822863169E+03  0.45236853786E+02 -0.69945785828E+02  0.21501947893E+03  0.00000000000E+00 0.  1.
<mgrwt>
<rscale>  3 0.23867544E+03</rscale>
<asrwt>0</asrwt>
<pdfrwt beam="1">  1       21 0.19274015E-01 0.23867544E+03</pdfrwt>
<pdfrwt beam="2">  1       21 0.63460453E-01 0.23867544E+03</pdfrwt>
<totfact> 0.55622629E+04</totfact>
</mgrwt>
</event>
<event>
 4    0  0.1029062E-001  0.2505613E+03  0.7546771E-02  0.1112951E+00
         21   -1    0    0  503  501  0.00000000000E+00  0.00000000000E+00  0.15215283506E+04  0.15215283506E+04  0.00000000000E+00 0. -1.
         21   -1    0    0  501  502 -0.00000000000E+00 -0.00000000000E+00 -0.37392426701E+02  0.37392426701E+02  0.00000000000E+00 0. -1.
         25    1    1    2    0    0 -0.13208919078E+03 -0.17236125184E+03  0.94606248363E+03  0.97868032492E+03  0.12500000000E+03 0.  0.
         21    1    1    2  503  502  0.13208919078E+03  0.17236125184E+03  0.53807344029E+03  0.58024045240E+03  0.00000000000E+00 0. -1.
<mgrwt>
<rscale>  3 0.25056128E+03</rscale>
<asrwt>0</asrwt>
<pdfrwt beam="1">  1       21 0.23408124E+00 0.25056128E+03</pdfrwt>
<pdfrwt beam="2">  1       21 0.57526822E-02 0.25056128E+03</pdfrwt>
<totfact> 0.16751872E+04</totfact>
</mgrwt>
</event>
<event>
 4    0  0.1665430E-001  0.2409940E+03  0.7546771E-02  0.1119132E+00
         21   -1    0    0  503  501  0.00000000000E+00  0.00000000000E+00  0.10341423209E+04  0.10341423209E+04  0.00000000000E+00 0.  1.
         21   -1    0    0  501  502 -0.00000000000E+00 -0.00000000000E+00 -0.14569206314E+03  0.14569206314E+03  0.00000000000E+00 0. -1.
         25    1    1    2    0    0  0.71486950817E+02  0.19324263137E+03 -0.26061572707E+02  0.24239906000E+03  0.12500000000E+03 0.  0.
         21    1    1    2  503  502 -0.71486950817E+02 -0.19324263137E+03  0.91451183045E+03  0.93743532404E+03  0.00000000000E+00 0.  1.
<mgrwt>
<rscale>  3 0.24099398E+03</rscale>
<asrwt>0</asrwt>
<pdfrwt beam="1">  1       21 0.15909881E+00 0.24099398E+03</pdfrwt>
<pdfrwt beam="2">  1       21 0.22414164E-01 0.24099398E+03</pdfrwt>
<totfact> 0.45830774E+03</totfact>
</mgrwt>
</event>
<event>
 4    0  0.1420233E-001  0.2746768E+03  0.7546771E-02  0.1098632E+00
         21   -1    0    0  503  501  0.00000000000E+00  0.00000000000E+00  0.91915833512E+03  0.91915833512E+03  0.00000000000E+00 0.  1.
         21   -1    0    0  501  502 -0.00000000000E+00 -0.00000000000E+00 -0.94673830986E+02  0.94673830986E+02  0.00000000000E+00 0.  1.
         25    1    1    2    0    0  0.12425178830E+03 -0.21067473676E+03  0.19041154946E+03  0.33422134847E+03  0.12500000000E+03 0.  0.
         21    1    1    2  503  502 -0.12425178830E+03  0.21067473676E+03  0.63407295467E+03  0.67961081763E+03  0.00000000000E+00 0.  1.
<mgrwt>
<rscale>  3 0.27467681E+03</rscale>
<asrwt>0</asrwt>
<pdfrwt beam="1">  1       21 0.14140897E+00 0.27467681E+03</pdfrwt>
<pdfrwt beam="2">  1       21 0.14565205E-01 0.27467681E+03</pdfrwt>
<totfact> 0.13727202E+04</totfact>
</mgrwt>
</event>
<event>
 4    0  0.1419608E-001  0.2482822E+03  0.7546771E-02  0.1114395E+00
         21   -1    0    0  503  501  0.00000000000E+00  0.00000000000E+00  0.25188046821E+03  0.25188046821E+03  0.00000000000E+00 0. -1.
         21   -1    0    0  501  502 -0.00000000000E+00 -0.00000000000E+00 -0.27989626765E+03  0.27989626765E+03  0.00000000000E+00 0. -1.
         25    1    1    2    0    0 -0.20927166209E+03 -0.47163726985E+02 -0.14490817129E+03  0.28747595343E+03  0.12500000000E+03 0.  0.
         21    1    1    2  503  502  0.20927166209E+03  0.47163726985E+02  0.11689237185E+03  0.24430078242E+03  0.00000000000E+00 0. -1.
<mgrwt>
<rscale>  3 0.24828219E+03</rscale>
<asrwt>0</asrwt>
<pdfrwt beam="1">  1       21 0.38750841E-01 0.24828219E+03</pdfrwt>
<pdfrwt beam="2">  1       21 0.43060964E-01 0.24828219E+03</pdfrwt>
<totfact> 0.32398701E+04</totfact>
</mgrwt>
</event>
<event>
 4    0  0.1262598E-001  0.2506020E+03  0.7546771E-02  0.1112925E+00
         21   -1    0    0  503  501  0.00000000000E+00  0.00000000000E+00  0.41328567165E+02  0.41328567165E+02  0.00000000000E+00 0. -1.
         21   -1    0    0  501  502 -0.00000000000E+00 -0.00000000000E+00 -0.13948370924E+04  0.13948370924E+04  0.00000000000E+00 0. -1.
         25    1    1    2    0    0  0.16939917781E+03 -0.13594226355E+03 -0.88429383345E+03  0.91911749213E+03  0.12500000000E+03 0.  0.
         21    1    1    2  503  502 -0.16939917781E+03  0.13594226355E+03 -0.46921469179E+03  0.51704816744E+03  0.00000000000E+00 0. -1.
<mgrwt>
<rscale>  3 0.25060204E+03</rscale>
<asrwt>0</asrwt>
<pdfrwt beam="1">  1       21 0.63582421E-02 0.25060204E+03</pdfrwt>
<pdfrwt beam="2">  1       21 0.21459029E+00 0.25060204E+03</pdfrwt>
<totfact> 0.18602253E+04</totfact>
</mgrwt>
</event>
<event>
 4    0  0.1439975E-001  0.2690011E+03  0.7546771E-02  0.1101853E+00
         21   -1    0    0  502  501  0.00000000000E+00  0.00000000000E+00  0.76854075928E+03  0.76854075928E+03  0.00000000000E+00 0.  1.
         21   -1    0    0  503  502 -0.00000000000E+00 -0.00000000000E+00 -0.94391453672E+02  0.94391453672E+02  0.00000000000E+00 0.  1.
         25    1    1    2    0    0  0.51381477493E+02  0.23258663287E+03  0.21011949456E+03  0.34133824869E+03  0.12500000000E+03 0.  0.
         21    1    1    2  503  501 -0.51381477493E+02 -0.23258663287E+03  0.46402981105E+03  0.52159396427E+03  0.00000000000E+00 0.  1.
<mgrwt>
<rscale>  3 0.26900111E+03</rscale>
<asrwt>0</asrwt>
<pdfrwt beam="1">  1       21 0.11823704E+00 0.26900111E+03</pdfrwt>
<pdfrwt beam="2">  1       21 0.14521763E-01 0.26900111E+03</pdfrwt>
<totfact> 0.21862416E+04</totfact>
</mgrwt>
</event>
<event>
 4    0  0.1189889E-001  0.2378811E+03  0.7546771E-02  0.1121212E+00
         21   -1    0    0  503  501  0.00000000000E+00  0.00000000000E+00  0.87626505195E+03  0.87626505195E+03  0.00000000000E+00 0.  1.
         21   -1    0    0  501  502 -0.00000000000E+00 -0.00000000000E+00 -0.22838777981E+03  0.22838777981E+03  0.00000000000E+00 0.  1.
         25    1    1    2    0    0  0.16607486722E+03 -0.11567875207E+03 -0.15018709842E+03  0.28132472294E+03  0.12500000000E+03 0.  0.
         21    1    1    2  503  502 -0.16607486722E+03  0.11567875207E+03  0.79806437057E+03  0.82332810882E+03  0.00000000000E+00 0.  1.
<mgrwt>
<rscale>  3 0.23788114E+03</rscale>
<asrwt>0</asrwt>
<pdfrwt beam="1">  1       21 0.13481001E+00 0.23788114E+03</pdfrwt>
<pdfrwt beam="2">  1       21 0.35136582E-01 0.23788114E+03</pdfrwt>
<totfact> 0.29664170E+03</totfact>
</mgrwt>
</event>
<event>
 4    0  0.1005289E-001  0.2792399E+03  0.7546771E-02  0.1096105E+00
         21   -1    0    0  503  501  0.00000000000E+00  0.00000000000E+00  0.76528050883E+03  0.76528050883E+03  0.00000000000E+00 0. -1.
         21   -1    0    0  501  502 -0.00000000000E+00 -0.00000000000E+00 -0.10054653391E+03  0.10054653391E+03  0.00000000000E+00 0.  1.
         25    1    1    2    0    0 -0.20039281542E+03  0.14897195890E+03  0.21883231822E+03  0.35477106492E+03  0.12500000000E+03 0.  0.
         21    1    1    2  503  502  0.20039281542E+03 -0.14897195890E+03  0.44590165670E+03  0.51105597781E+03  0.00000000000E+00 0. -1.
<mgrwt>
<rscale>  3 0.27923991E+03</rscale>
<asrwt>0</asrwt>
<pdfrwt beam="1">  1       21 0.11773546E+00 0.27923991E+03</pdfrwt>
<pdfrwt beam="2">  1       21 0.15468698E-01 0.27923991E+03</pdfrwt>
<totfact> 0.19581636E+04</totfact>
</mgrwt>
</event>
<event>
 4    0  0.1271269E-001  0.3060373E+03  0.7546771E-02  0.1082261E+00
         21   -1    0    0  503  501  0.00000000000E+00  0.00000000000E+00  0.14465027611E+03  0.14465027611E+03  0.00000000000E+00 0. -1.
         21   -1    0    0  501  502 -0.00000000000E+00 -0.00000000000E+00 -0.62266282674E+03  0.62266282674E+03  0.00000000000E+00 0. -1.
         25    1    1    2    0    0 -0.12124339863E+03 -0.25166225470E+03 -0.16465728115E+03  0.34752103877E+03  0.12500000000E+03 0.  0.
         21    1    1    2  503  502  0.12124339863E+03  0.25166225470E+03 -0.31335526947E+03  0.41979206408E+03  0.00000000000E+00 0. -1.
<mgrwt>
<rscale>  3 0.30603734E+03</rscale>
<asrwt>0</asrwt>
<pdfrwt beam="1">  1       21 0.22253889E-01 0.30603734E+03</pdfrwt>
<pdfrwt beam="2">  1       21 0.95794281E-01 0.30603734E+03</pdfrwt>
<totfact> 0.16174900E+04</totfact>
</mgrwt>
</event>
<event>
 4    0  0.1205176E-001  0.2535118E+03  0.7546771E-02  0.1111105E+00
         21   -1    0    0  503  501  0.00000000000E+00  0.00000000000E+00  0.47196823651E+02  0.47196823651E+02  0.00000000000E+00 0. -1.
         21   -1    0    0  501  502 -0.00000000000E+00 -0.00000000000E+00 -0.11906281655E+04  0.11906281655E+04  0.00000000000E+00 0. -1.
         25    1    1    2    0    0  0.18055526541E+03 -0.12666107053E+03 -0.60333669340E+03  0.65443364542E+03  0.12500000000E+03 0.  0.
         21    1    1    2  503  502 -0.18055526541E+03  0.12666107053E+03 -0.54009464841E+03  0.58339134370E+03  0.00000000000E+00 0. -1.
<mgrwt>
<rscale>  3 0.25351180E+03</rscale>
<asrwt>0</asrwt>
<pdfrwt beam="1">  1       21 0.72610509E-02 0.25351180E+03</pdfrwt>
<pdfrwt beam="2">  1       21 0.18317354E+00 0.25351180E+03</pdfrwt>
<totfact> 0.23655059E+04</totfact>
</mgrwt>
</event>
<event>
 4    0  0.1005289E-001  0.4594683E+03  0.7546771E-02  0.1024936E+00
         21   -1    0    0  502  501  0.00000000000E+00  0.00000000000E+00  0.10349604051E+04  0.10349604051E+04  0.00000000000E+00 0. -1.
         21   -1    0    0  503  502 -0.00000000000E+00 -0.00000000000E+00 -0.20069472919E+03  0.20069472919E+03  0.00000000000E+00 0.  1.
         25    1    1    2    0    0  0.16239204312E+03  0.41123586870E+03  0.33418199766E+03  0.56814498409E+03  0.12500000000E+03 0.  0.
         21    1    1    2  503  501 -0.16239204312E+03 -0.41123586870E+03  0.50008367828E+03  0.66751015023E+03  0.00000000000E+00 0. -1.
<mgrwt>
<rscale>  3 0.45946830E+03</rscale>
<asrwt>0</asrwt>
<pdfrwt beam="1">  1       21 0.15922467E+00 0.45946830E+03</pdfrwt>
<pdfrwt beam="2">  1       21 0.30876113E-01 0.45946830E+03</pdfrwt>
<totfact> 0.21908936E+03</totfact>
</mgrwt>
</event>
<event>
 4    0  0.1005289E-001  0.2669023E+03  0.7546771E-02  0.1103066E+00
         21   -1    0    0  503  501  0.00000000000E+00  0.00000000000E+00  0.10871955964E+03  0.10871955964E+03  0.00000000000E+00 0.  1.
         21   -1    0    0  501  502 -0.00000000000E+00 -0.00000000000E+00 -0.58556263552E+03  0.58556263552E+03  0.00000000000E+00 0. -1.
         25    1    1    2    0    0 -0.15529197771E+03  0.17747173432E+03 -0.28311464886E+03  0.38908960308E+03  0.12500000000E+03 0.  0.
         21    1    1    2  503  502  0.15529197771E+03 -0.17747173432E+03 -0.19372842702E+03  0.30519259208E+03  0.00000000000E+00 0.  1.
<mgrwt>
<rscale>  3 0.26690226E+03</rscale>
<asrwt>0</asrwt>
<pdfrwt beam="1">  1       21 0.16726086E-01 0.26690226E+03</pdfrwt>
<pdfrwt beam="2">  1       21 0.90086560E-01 0.26690226E+03</pdfrwt>
<totfact> 0.32492417E+04</totfact>
</mgrwt>
</event>
<event>
 4    0  0.1184168E-001  0.2511784E+03  0.7546771E-02  0.1112562E+00
         21   -1    0    0  502  501  0.00000000000E+00  0.00000000000E+00  0.84533308560E+02  0.84533308560E+02  0.00000000000E+00 0.  1.
         21   -1    0    0  503  502 -0.00000000000E+00 -0.00000000000E+00 -0.16181374350E+04  0.16181374350E+04  0.00000000000E+00 0. -1.
         25    1    1    2    0    0  0.96821173045E+01  0.21765078543E+03 -0.14463231793E+04  0.14679718481E+04  0.12500000000E+03 0.  0.
         21    1    1    2  503  501 -0.96821173045E+01 -0.21765078543E+03 -0.87280947111E+02  0.23469889544E+03  0.00000000000E+00 0.  1.
<mgrwt>
<rscale>  3 0.25117844E+03</rscale>
<asrwt>0</asrwt>
<pdfrwt beam="1">  1       21 0.13005124E-01 0.25117844E+03</pdfrwt>
<pdfrwt beam="2">  1       21 0.24894423E+00 0.25117844E+03</pdfrwt>
<totfact> 0.32387205E+03</totfact>
</mgrwt>
</event>
<event>
 4    0  0.1349069E-001  0.2655126E+03  0.7546771E-02  0.1103876E+00
         21   -1    0    0  503  501  0.00000000000E+00  0.00000000000E+00  0.12121693514E+04  0.12121693514E+04  0.00000000000E+00 0.  1.
         21   -1    0    0  501  502 -0.00000000000E+00 -0.00000000000E+00 -0.51704353426E+02  0.51704353426E+02  0.00000000000E+00 0.  1.
         25    1    1    2    0    0 -0.23047222077E+03  0.41886954680E+02  0.57782972344E+03  0.63591206217E+03  0.12500000000E+03 0.  0.
         21    1    1    2  503  502  0.23047222077E+03 -0.41886954680E+02  0.58263527449E+03  0.62796164262E+03  0.00000000000E+00 0.  1.
<mgrwt>
<rscale>  3 0.26551264E+03</rscale>
<asrwt>0</asrwt>
<pdfrwt beam="1">  1       21 0.18648757E+00 0.26551264E+03</pdfrwt>
<pdfrwt beam="2">  1       21 0.79545168E-02 0.26551264E+03</pdfrwt>
<totfact> 0.19025073E+04</totfact>
</mgrwt>
</event>
<event>
 4    0  0.1133408E-001  0.3309196E+03  0.7546771E-02  0.1070731E+00
         21   -1    0    0  502  501  0.00000000000E+00  0.00000000000E+00  0.60250841500E+02  0.60250841500E+02  0.00000000000E+00 0.  1.
         21   -1    0    0  503  502 -0.00000000000E+00 -0.00000000000E+00 -0.17004987014E+04  0.17004987014E+04  0.00000000000E+00 0.  1.
         25    1    1    2    0    0  0.29588073304E+03 -0.79607767419E+02 -0.93436611628E+03  0.99123551393E+03  0.12500000000E+03 0.  0.
         21    1    1    2  503  501 -0.29588073304E+03  0.79607767419E+02 -0.70588174364E+03  0.76951402900E+03  0.00000000000E+00 0.  1.
<mgrwt>
<rscale>  3 0.33091963E+03</rscale>
<asrwt>0</asrwt>
<pdfrwt beam="1">  1       21 0.92693616E-02 0.33091963E+03</pdfrwt>
<pdfrwt beam="2">  1       21 0.26161515E+00 0.33091963E+03</pdfrwt>
<totfact> 0.47164120E+03</totfact>
</mgrwt>
</event>
<event>
 4    0  0.1005289E-001  0.2793059E+03  0.7546771E-02  0.1096069E+00
         21   -1    0    0  502  501  0.00000000000E+00  0.00000000000E+00  0.57255073681E+03  0.57255073681E+03  0.00000000000E+00 0. -1.
         21   -1    0    0  503  502 -0.00000000000E+00 -0.00000000000E+00 -0.12970344405E+03  0.12970344405E+03  0.00000000000E+00 0.  1.
         25    1    1    2    0    0  0.10452073737E+03 -0.22685285653E+03  0.14889397023E+03  0.31651416624E+03  0.12500000000E+03 0.  0.
         21    1    1    2  503  501 -0.10452073737E+03  0.22685285653E+03  0.29395332253E+03  0.38574001463E+03  0.00000000000E+00 0. -1.
<mgrwt>
<rscale>  3 0.27930593E+03</rscale>
<asrwt>0</asrwt>
<pdfrwt beam="1">  1       21 0.88084727E-01 0.27930593E+03</pdfrwt>
<pdfrwt beam="2">  1       21 0.19954376E-01 0.27930593E+03</pdfrwt>
<totfact> 0.24500762E+04</totfact>
</mgrwt>
</event>
<event>
 4    0  0.1005289E-001  0.2379667E+03  0.7546771E-02  0.1121155E+00
         21   -1    0    0  503  501  0.00000000000E+00  0.00000000000E+00  0.17877761370E+04  0.17877761370E+04  0.00000000000E+00 0.  1.
         21   -1    0    0  501  502 -0.00000000000E+00 -0.00000000000E+00 -0.53058912735E+03  0.53058912735E+03  0.00000000000E+00 0.  1.
         25    1    1    2    0    0 -0.19599003172E+03 -0.50902417756E+02 -0.49778972284E+03  0.55174519194E+03  0.12500000000E+03 0.  0.
         21    1    1    2  503  502  0.19599003172E+03  0.50902417756E+02  0.17549767325E+04  0.17666200724E+04  0.00000000000E+00 0.  1.
<mgrwt>
<rscale>  3 0.23796670E+03</rscale>
<asrwt>0</asrwt>
<pdfrwt beam="1">  1       21 0.27504248E+00 0.23796670E+03</pdfrwt>
<pdfrwt beam="2">  1       21 0.81629097E-01 0.23796670E+03</pdfrwt>
<totfact> 0.58341761E+01</totfact>
</mgrwt>
</event>
<event>
 4    0  0.1585488E-001  0.2657149E+03  0.7546771E-02  0.1103757E+00
         21   -1    0    0  502  501  0.00000000000E+00  0.00000000000E+00  0.15667366560E+04  0.15667366560E+04  0.00000000000E+00 0. -1.
         21   -1    0    0  503  502 -0.00000000000E+00 -0.00000000000E+00 -0.53614821149E+03  0.53614821149E+03  0.00000000000E+00 0.  1.
         25    1    1    2    0    0 -0.16469356652E+03  0.16689949313E+03 -0.49370183590E+03  0.56066559948E+03  0.12500000000E+03 0.  0.
         21    1    1    2  503  501  0.16469356652E+03 -0.16689949313E+03  0.15242902805E+04  0.15422192681E+04  0.00000000000E+00 0. -1.
<mgrwt>
<rscale>  3 0.26571491E+03</rscale>
<asrwt>0</asrwt>
<pdfrwt beam="1">  1       21 0.24103641E+00 0.26571491E+03</pdfrwt>
<pdfrwt beam="2">  1       21 0.82484341E-01 0.26571491E+03</pdfrwt>
<totfact> 0.87647653E+01</totfact>
</mgrwt>
</event>
<event>
 4    0  0.1005289E-001  0.2886066E+03  0.7546771E-02  0.1091079E+00
         21   -1    0    0  502  501  0.00000000000E+00  0.00000000000E+00  0.14264205458E+03  0.14264205458E+03  0.00000000000E+00 0. -1.
         21   -1    0    0  503  502 -0.00000000000E+00 -0.00000000000E+00 -0.66706087228E+03  0.66706087228E+03  0.00000000000E+00 0.  1.
         25    1    1    2    0    0  0.83029499034E+02 -0.24652558749E+03 -0.45779477534E+03  0.54117448141E+03  0.12500000000E+03 0.  0.
         21    1    1    2  503  501 -0.83029499034E+02  0.24652558749E+03 -0.66624042363E+02  0.26852844545E+03  0.00000000000E+00 0. -1.
<mgrwt>
<rscale>  3 0.28860659E+03</rscale>
<asrwt>0</asrwt>
<pdfrwt beam="1">  1       21 0.21944932E-01 0.28860659E+03</pdfrwt>
<pdfrwt beam="2">  1       21 0.10262475E+00 0.28860659E+03</pdfrwt>
<totfact> 0.14190057E+04</totfact>
</mgrwt>
</event>
<event>
 4    0  0.1209256E-001  0.2925995E+03  0.7546771E-02  0.1089000E+00
         21   -1    0    0  502  501  0.00000000000E+00  0.00000000000E+00  0.12095792242E+03  0.12095792242E+03  0.00000000000E+00 0. -1.
         21   -1    0    0  503  502 -0.00000000000E+00 -0.00000000000E+00 -0.11326660888E+04  0.11326660888E+04  0.00000000000E+00 0. -1.
         25    1    1    2    0    0  0.17797114378E+03 -0.19574407770E+03 -0.93270572368E+03  0.97752464878E+03  0.12500000000E+03 0.  0.
         21    1    1    2  503  501 -0.17797114378E+03  0.19574407770E+03 -0.79002442654E+02  0.27609936240E+03  0.00000000000E+00 0. -1.
<mgrwt>
<rscale>  3 0.29259951E+03</rscale>
<asrwt>0</asrwt>
<pdfrwt beam="1">  1       21 0.18608911E-01 0.29259951E+03</pdfrwt>
<pdfrwt beam="2">  1       21 0.17425632E+00 0.29259951E+03</pdfrwt>
<totfact> 0.48934050E+03</totfact>
</mgrwt>
</event>
<event>
 4    0  0.1205081E-001  0.2522028E+03  0.7546771E-02  0.1111921E+00
         21   -1    0    0  503  501  0.00000000000E+00  0.00000000000E+00  0.74112089612E+02  0.74112089612E+02  0.00000000000E+00 0. -1.
         21   -1    0    0  501  502 -0.00000000000E+00 -0.00000000000E+00 -0.78066574953E+03  0.78066574953E+03  0.00000000000E+00 0. -1.
         25    1    1    2    0    0 -0.79748298344E+02 -0.20401343630E+03 -0.29142104524E+03  0.38539914230E+03  0.12500000000E+03 0.  0.
         21    1    1    2  503  502  0.79748298344E+02  0.20401343630E+03 -0.41513261468E+03  0.46937869684E+03  0.00000000000E+00 0. -1.
<mgrwt>
<rscale>  3 0.25220284E+03</rscale>
<asrwt>0</asrwt>
<pdfrwt beam="1">  1       21 0.11401860E-01 0.25220284E+03</pdfrwt>
<pdfrwt beam="2">  1       21 0.12010243E+00 0.25220284E+03</pdfrwt>
<totfact> 0.32837937E+04</totfact>
</mgrwt>
</event>
<event>
 4    0  0.1369024E-001  0.3344622E+03  0.7546771E-02  0.1069179E+00
         21   -1    0    0  503  501  0.00000000000E+00  0.00000000000E+00  0.18588885069E+03  0.18588885069E+03  0.00000000000E+00 0. -1.
         21   -1    0    0  501  502 -0.00000000000E+00 -0.00000000000E+00 -0.83340188301E+03  0.83340188301E+03  0.00000000000E+00 0. -1.
         25    1    1    2    0    0 -0.11168046182E+03 -0.28942608043E+03 -0.62423753666E+03  0.70819311191E+03  0.12500000000E+03 0.  0.
         21    1    1    2  503  502  0.11168046182E+03  0.28942608043E+03 -0.23275495663E+02  0.31109762179E+03  0.00000000000E+00 0. -1.
<mgrwt>
<rscale>  3 0.33446223E+03</rscale>
<asrwt>0</asrwt>
<pdfrwt beam="1">  1       21 0.28598284E-01 0.33446223E+03</pdfrwt>
<pdfrwt beam="2">  1       21 0.12821568E+00 0.33446223E+03</pdfrwt>
<totfact> 0.47898309E+03</totfact>
</mgrwt>
</event>
<event>
 4    0  0.1313731E-001  0.2541008E+03  0.7546771E-02  0.1110740E+00
         21   -1    0    0  502  501  0.00000000000E+00  0.00000000000E+00  0.16391047724E+03  0.16391047724E+03  0.00000000000E+00 0. -1.
         21   -1    0    0  503  502 -0.00000000000E+00 -0.00000000000E+00 -0.59963789146E+03  0.59963789146E+03  0.00000000000E+00 0. -1.
         25    1    1    2    0    0  0.14696437655E+02  0.22074015426E+03 -0.47515689025E+03  0.53883325003E+03  0.12500000000E+03 0.  0.
         21    1    1    2  503  501 -0.14696437655E+02 -0.22074015426E+03  0.39429476028E+02  0.22471511868E+03  0.00000000000E+00 0. -1.
<mgrwt>
<rscale>  3 0.25410077E+03</rscale>
<asrwt>0</asrwt>
<pdfrwt beam="1">  1       21 0.25216996E-01 0.25410077E+03</pdfrwt>
<pdfrwt beam="2">  1       21 0.92251985E-01 0.25410077E+03</pdfrwt>
<totfact> 0.14253921E+04</totfact>
</mgrwt>
</event>
<event>
 4    0  0.1005289E-001  0.3170838E+03  0.7546771E-02  0.1076999E+00
         21   -1    0    0  502  501  0.00000000000E+00  0.00000000000E+00  0.15991920176E+03  0.15991920176E+03  0.00000000000E+00 0. -1.
         21   -1    0    0  503  502 -0.00000000000E+00 -0.00000000000E+00 -0.57882367175E+03  0.57882367175E+03  0.00000000000E+00 0.  1.
         25    1    1    2    0    0  0.49131264906E+02 -0.28723376184E+03 -0.21768602236E+03  0.38461580761E+03  0.12500000000E+03 0.  0.
         21    1    1    2  503  501 -0.49131264906E+02  0.28723376184E+03 -0.20121844763E+03  0.35412706590E+03  0.00000000000E+00 0. -1.
<mgrwt>
<rscale>  3 0.31708377E+03</rscale>
<asrwt>0</asrwt>
<pdfrwt beam="1">  1       21 0.24602954E-01 0.31708377E+03</pdfrwt>
<pdfrwt beam="2">  1       21 0.89049796E-01 0.31708377E+03</pdfrwt>
<totfact> 0.15779907E+04</totfact>
</mgrwt>
</event>
<event>
 4    0  0.1005289E-001  0.2946349E+03  0.7546771E-02  0.1087954E+00
         21   -1    0    0  502  501  0.00000000000E+00  0.00000000000E+00  0.60546044550E+03  0.60546044550E+03  0.00000000000E+00 0.  1.
         21   -1    0    0  503  502 -0.00000000000E+00 -0.00000000000E+00 -0.16006956636E+03  0.16006956636E+03  0.00000000000E+00 0. -1.
         25    1    1    2    0    0  0.26248624173E+03 -0.47809135264E+02  0.66366291847E+02  0.30201692867E+03  0.12500000000E+03 0.  0.
         21    1    1    2  503  501 -0.26248624173E+03  0.47809135264E+02  0.37902458730E+03  0.46351308319E+03  0.00000000000E+00 0.  1.
<mgrwt>
<rscale>  3 0.29463493E+03</rscale>
<asrwt>0</asrwt>
<pdfrwt beam="1">  1       21 0.93147760E-01 0.29463493E+03</pdfrwt>
<pdfrwt beam="2">  1       21 0.24626087E-01 0.29463493E+03</pdfrwt>
<totfact> 0.14304768E+04</totfact>
</mgrwt>
</event>
<event>
 4    0  0.1119821E-001  0.2713598E+03  0.7546771E-02  0.1100504E+00
         21   -1    0    0  502  501  0.00000000000E+00  0.00000000000E+00  0.78647795714E+03  0.78647795714E+03  0.00000000000E+00 0. -1.
         21   -1    0    0  503  502 -0.00000000000E+00 -0.00000000000E+00 -0.15731192593E+03  0.15731192593E+03  0.00000000000E+00 0. -1.
         25    1    1    2    0    0 -0.18077938363E+03 -0.15915380988E+03  0.13550755350E+01  0.27136314594E+03  0.12500000000E+03 0.  0.
         21    1    1    2  503  501  0.18077938363E+03  0.15915380988E+03  0.62781095567E+03  0.67242673713E+03  0.00000000000E+00 0. -1.
<mgrwt>
<rscale>  3 0.27135976E+03</rscale>
<asrwt>0</asrwt>
<pdfrwt beam="1">  1       21 0.12099661E+00 0.27135976E+03</pdfrwt>
<pdfrwt beam="2">  1       21 0.24201835E-01 0.27135976E+03</pdfrwt>
<totfact> 0.79215811E+03</totfact>
</mgrwt>
</event>
<event>
 4    0  0.1005289E-001  0.3170029E+03  0.7546771E-02  0.1077037E+00
         21   -1    0    0  502  501  0.00000000000E+00  0.00000000000E+00  0.27621077517E+04  0.27621077517E+04  0.00000000000E+00 0.  1.
         21   -1    0    0  503  502 -0.00000000000E+00 -0.00000000000E+00 -0.25513000891E+04  0.25513000891E+04  0.00000000000E+00 0. -1.
         25    1    1    2    0    0 -0.24117557703E+03  0.16340193518E+03 -0.25337143983E+04  0.25534681325E+04  0.12500000000E+03 0.  0.
         21    1    1    2  503  501  0.24117557703E+03 -0.16340193518E+03  0.27445220609E+04  0.27599397084E+04  0.00000000000E+00 0.  1.
<mgrwt>
<rscale>  3 0.31700292E+03</rscale>
<asrwt>0</asrwt>
<pdfrwt beam="1">  1       21 0.42493965E+00 0.31700292E+03</pdfrwt>
<pdfrwt beam="2">  1       21 0.39250771E+00 0.31700292E+03</pdfrwt>
<totfact> 0.42962875E-02</totfact>
</mgrwt>
</event>
<event>
 4    0  0.1080939E-001  0.3789295E+03  0.7546771E-02  0.1051330E+00
         21   -1    0    0  503  501  0.00000000000E+00  0.00000000000E+00  0.95640188793E+02  0.95640188793E+02  0.00000000000E+00 0. -1.
         21   -1    0    0  501  502 -0.00000000000E+00 -0.00000000000E+00 -0.16794220454E+04  0.16794220454E+04  0.00000000000E+00 0. -1.
         25    1    1    2    0    0 -0.17474410884E+03  0.31213304353E+03 -0.11608799744E+04  0.12211592260E+04  0.12500000000E+03 0.  0.
         21    1    1    2  503  502  0.17474410884E+03 -0.31213304353E+03 -0.42290188219E+03  0.55390300812E+03  0.00000000000E+00 0. -1.
<mgrwt>
<rscale>  3 0.37892947E+03</rscale>
<asrwt>0</asrwt>
<pdfrwt beam="1">  1       21 0.14713875E-01 0.37892947E+03</pdfrwt>
<pdfrwt beam="2">  1       21 0.25837262E+00 0.37892947E+03</pdfrwt>
<totfact> 0.20772173E+03</totfact>
</mgrwt>
</event>
<event>
 4    0  0.1288652E-001  0.2730092E+03  0.7546771E-02  0.1099570E+00
         21   -1    0    0  503  501  0.00000000000E+00  0.00000000000E+00  0.11925688724E+03  0.11925688724E+03  0.00000000000E+00 0. -1.
         21   -1    0    0  501  502 -0.00000000000E+00 -0.00000000000E+00 -0.60908297338E+03  0.60908297338E+03  0.00000000000E+00 0. -1.
         25    1    1    2    0    0  0.24163222920E+03 -0.22867069930E+02 -0.15232710628E+03  0.31263010793E+03  0.12500000000E+03 0.  0.
         21    1    1    2  503  502 -0.24163222920E+03  0.22867069930E+02 -0.33749897987E+03  0.41570975270E+03  0.00000000000E+00 0. -1.
<mgrwt>
<rscale>  3 0.27300923E+03</rscale>
<asrwt>0</asrwt>
<pdfrwt beam="1">  1       21 0.18347214E-01 0.27300923E+03</pdfrwt>
<pdfrwt beam="2">  1       21 0.93705071E-01 0.27300923E+03</pdfrwt>
<totfact> 0.24878242E+04</totfact>
</mgrwt>
</event>
<event>
 4    0  0.1279883E-001  0.3187162E+03  0.7546771E-02  0.1076242E+00
         21   -1    0    0  503  501  0.00000000000E+00  0.00000000000E+00  0.26778944306E+03  0.26778944306E+03  0.00000000000E+00 0. -1.
         21   -1    0    0  501  502 -0.00000000000E+00 -0.00000000000E+00 -0.54026772508E+03  0.54026772508E+03  0.00000000000E+00 0. -1.
         25    1    1    2    0    0 -0.29315799600E+03  0.36635529011E+01 -0.37983605208E+03  0.49583813760E+03  0.12500000000E+03 0.  0.
         21    1    1    2  503  502  0.29315799600E+03 -0.36635529011E+01  0.10735777006E+03  0.31221903054E+03  0.00000000000E+00 0. -1.
<mgrwt>
<rscale>  3 0.31871623E+03</rscale>
<asrwt>0</asrwt>
<pdfrwt beam="1">  1       21 0.41198376E-01 0.31871623E+03</pdfrwt>
<pdfrwt beam="2">  1       21 0.83118111E-01 0.31871623E+03</pdfrwt>
<totfact> 0.66452835E+03</totfact>
</mgrwt>
</event>
<event>
 4    0  0.1159529E-001  0.3818645E+03  0.7546771E-02  0.1050247E+00
         21   -1    0    0  503  501  0.00000000000E+00  0.00000000000E+00  0.16424588774E+03  0.16424588774E+03  0.00000000000E+00 0.  1.
         21   -1    0    0  501  502 -0.00000000000E+00 -0.00000000000E+00 -0.11061768895E+04  0.11061768895E+04  0.00000000000E+00 0.  1.
         25    1    1    2    0    0 -0.34949705085E+03  0.89706760808E+02 -0.79283836163E+03  0.88000747676E+03  0.12500000000E+03 0.  0.
         21    1    1    2  503  502  0.34949705085E+03 -0.89706760808E+02 -0.14909264008E+03  0.39041530044E+03  0.00000000000E+00 0.  1.
<mgrwt>
<rscale>  3 0.38186449E+03</rscale>
<asrwt>0</asrwt>
<pdfrwt beam="1">  1       21 0.25268598E-01 0.38186449E+03</pdfrwt>
<pdfrwt beam="2">  1       21 0.17018106E+00 0.38186449E+03</pdfrwt>
<totfact> 0.27868795E+03</totfact>
</mgrwt>
</event>
<event>
 4    0  0.1251540E-001  0.3446257E+03  0.7546771E-02  0.1064843E+00
         21   -1    0    0  503  501  0.00000000000E+00  0.00000000000E+00  0.94982803464E+02  0.94982803464E+02  0.00000000000E+00 0. -1.
         21   -1    0    0  501  502 -0.00000000000E+00 -0.00000000000E+00 -0.14079981758E+04  0.14079981758E+04  0.00000000000E+00 0. -1.
         25    1    1    2    0    0  0.28026544777E+03  0.15682200474E+03 -0.98662129517E+03  0.10450781992E+04  0.12500000000E+03 0.  0.
         21    1    1    2  503  502 -0.28026544777E+03 -0.15682200474E+03 -0.32639407722E+03  0.45790278010E+03  0.00000000000E+00 0. -1.
<mgrwt>
<rscale>  3 0.34462568E+03</rscale>
<asrwt>0</asrwt>
<pdfrwt beam="1">  1       21 0.14612739E-01 0.34462568E+03</pdfrwt>
<pdfrwt beam="2">  1       21 0.21661510E+00 0.34462568E+03</pdfrwt>
<totfact> 0.38834401E+03</totfact>
</mgrwt>
</event>
<event>
 4    0  0.1782349E-001  0.3253510E+03  0.7546771E-02  0.1073213E+00
         21   -1    0    0  503  501  0.00000000000E+00  0.00000000000E+00  0.56063169731E+03  0.56063169731E+03  0.00000000000E+00 0.  1.
         21   -1    0    0  501  502 -0.00000000000E+00 -0.00000000000E+00 -0.94455443937E+03  0.94455443937E+03  0.00000000000E+00 0. -1.
         25    1    1    2    0    0  0.29364508381E+03  0.63252249750E+02 -0.87276246529E+03  0.93143309108E+03  0.12500000000E+03 0.  0.
         21    1    1    2  503  502 -0.29364508381E+03 -0.63252249750E+02  0.48883972322E+03  0.57375304560E+03  0.00000000000E+00 0.  1.
<mgrwt>
<rscale>  3 0.32535101E+03</rscale>
<asrwt>0</asrwt>
<pdfrwt beam="1">  1       21 0.86251031E-01 0.32535101E+03</pdfrwt>
<pdfrwt beam="2">  1       21 0.14531607E+00 0.32535101E+03</pdfrwt>
<totfact> 0.33375574E+02</totfact>
</mgrwt>
</event>
<event>
 4    0  0.1502537E-001  0.2743801E+03  0.7546771E-02  0.1098799E+00
         21   -1    0    0  502  501  0.00000000000E+00  0.00000000000E+00  0.13172248205E+03  0.13172248205E+03  0.00000000000E+00 0. -1.
         21   -1    0    0  503  502 -0.00000000000E+00 -0.00000000000E+00 -0.63409170226E+03  0.63409170226E+03  0.00000000000E+00 0. -1.
         25    1    1    2    0    0  0.21467675984E+03  0.11650452937E+03 -0.43174747587E+03  0.51155674124E+03  0.12500000000E+03 0.  0.
         21    1    1    2  503  501 -0.21467675984E+03 -0.11650452937E+03 -0.70621744339E+02  0.25425744307E+03  0.00000000000E+00 0. -1.
<mgrwt>
<rscale>  3 0.27438006E+03</rscale>
<asrwt>0</asrwt>
<pdfrwt beam="1">  1       21 0.20264997E-01 0.27438006E+03</pdfrwt>
<pdfrwt beam="2">  1       21 0.97552569E-01 0.27438006E+03</pdfrwt>
<totfact> 0.18755912E+04</totfact>
</mgrwt>
</event>
<event>
 4    0  0.1393345E-001  0.2801001E+03  0.7546771E-02  0.1095634E+00
         21   -1    0    0  503  501  0.00000000000E+00  0.00000000000E+00  0.70252728149E+03  0.70252728149E+03  0.00000000000E+00 0. -1.
         21   -1    0    0  501  502 -0.00000000000E+00 -0.00000000000E+00 -0.18296399475E+04  0.18296399475E+04  0.00000000000E+00 0.  1.
         25    1    1    2    0    0  0.16128088019E+03  0.19188415999E+03 -0.17960752345E+04  0.18177849986E+04  0.12500000000E+03 0.  0.
         21    1    1    2  503  502 -0.16128088019E+03 -0.19188415999E+03  0.66896256845E+03  0.71438223043E+03  0.00000000000E+00 0. -1.
<mgrwt>
<rscale>  3 0.28010008E+03</rscale>
<asrwt>0</asrwt>
<pdfrwt beam="1">  1       21 0.10808112E+00 0.28010008E+03</pdfrwt>
<pdfrwt beam="2">  1       21 0.28148307E+00 0.28010008E+03</pdfrwt>
<totfact> 0.26140013E+01</totfact>
</mgrwt>
</event>
<event>
 4    0  0.1038112E-001  0.3675590E+03  0.7546771E-02  0.1055630E+00
         21   -1    0    0  502  501  0.00000000000E+00  0.00000000000E+00  0.88980181099E+03  0.88980181099E+03  0.00000000000E+00 0. -1.
         21   -1    0    0  503  502 -0.00000000000E+00 -0.00000000000E+00 -0.41245697298E+03  0.41245697298E+03  0.00000000000E+00 0. -1.
         25    1    1    2    0    0 -0.30802017904E+03  0.15683816232E+03 -0.28507002002E+03  0.46515003619E+03  0.12500000000E+03 0.  0.
         21    1    1    2  503  501  0.30802017904E+03 -0.15683816232E+03  0.76241485803E+03  0.83710874777E+03  0.00000000000E+00 0. -1.
<mgrwt>
<rscale>  3 0.36755903E+03</rscale>
<asrwt>0</asrwt>
<pdfrwt beam="1">  1       21 0.13689259E+00 0.36755903E+03</pdfrwt>
<pdfrwt beam="2">  1       21 0.63454919E-01 0.36755903E+03</pdfrwt>
<totfact> 0.76265420E+02</totfact>
</mgrwt>
</event>
<event>
 4    0  0.1384589E-001  0.2623601E+03  0.7546771E-02  0.1105733E+00
         21   -1    0    0  502  501  0.00000000000E+00  0.00000000000E+00  0.63842801044E+03  0.63842801044E+03  0.00000000000E+00 0.  1.
         21   -1    0    0  503  502 -0.00000000000E+00 -0.00000000000E+00 -0.95367031868E+02  0.95367031868E+02  0.00000000000E+00 0.  1.
         25    1    1    2    0    0 -0.18423096805E+03  0.13880473507E+03  0.30491739499E+03  0.40225293266E+03  0.12500000000E+03 0.  0.
         21    1    1    2  503  501  0.18423096805E+03 -0.13880473507E+03  0.23814358358E+03  0.33154210964E+03  0.00000000000E+00 0.  1.
<mgrwt>
<rscale>  3 0.26236007E+03</rscale>
<asrwt>0</asrwt>
<pdfrwt beam="1">  1       21 0.98219691E-01 0.26236007E+03</pdfrwt>
<pdfrwt beam="2">  1       21 0.14671851E-01 0.26236007E+03</pdfrwt>
<totfact> 0.33796387E+04</totfact>
</mgrwt>
</event>
<event>
 4    0  0.1488421E-001  0.2673157E+03  0.7546771E-02  0.1102826E+00
         21   -1    0    0  503  501  0.00000000000E+00  0.00000000000E+00  0.44706470401E+03  0.44706470401E+03  0.00000000000E+00 0.  1.
         21   -1    0    0  501  502 -0.00000000000E+00 -0.00000000000E+00 -0.26347174205E+03  0.26347174205E+03  0.00000000000E+00 0. -1.
         25    1    1    2    0    0 -0.21465065858E+03 -0.98781436727E+02 -0.14631477270E+03  0.30473872445E+03  0.12500000000E+03 0.  0.
         21    1    1    2  503  502  0.21465065858E+03  0.98781436727E+02  0.32990773466E+03  0.40579772160E+03  0.00000000000E+00 0.  1.
<mgrwt>
<rscale>  3 0.26731569E+03</rscale>
<asrwt>0</asrwt>
<pdfrwt beam="1">  1       21 0.68779185E-01 0.26731569E+03</pdfrwt>
<pdfrwt beam="2">  1       21 0.40534114E-01 0.26731569E+03</pdfrwt>
<totfact> 0.10805183E+04</totfact>
</mgrwt>
</event>
<event>
 4    0  0.1181570E-001  0.2506386E+03  0.7546771E-02  0.1112902E+00
         21   -1    0    0  502  501  0.00000000000E+00  0.00000000000E+00  0.10391599982E+04  0.10391599982E+04  0.00000000000E+00 0.  1.
         21   -1    0    0  503  502 -0.00000000000E+00 -0.00000000000E+00 -0.26212521820E+03  0.26212521820E+03  0.00000000000E+00 0.  1.
         25    1    1    2    0    0 -0.20805701489E+03  0.62505871370E+02 -0.18723128330E+03  0.31285021791E+03  0.12500000000E+03 0.  0.
         21    1    1    2  503  501  0.20805701489E+03 -0.62505871370E+02  0.96426606330E+03  0.98843499849E+03  0.00000000000E+00 0.  1.
<mgrwt>
<rscale>  3 0.25063860E+03</rscale>
<asrwt>0</asrwt>
<pdfrwt beam="1">  1       21 0.15987077E+00 0.25063860E+03</pdfrwt>
<pdfrwt beam="2">  1       21 0.40326957E-01 0.25063860E+03</pdfrwt>
<totfact> 0.14182566E+03</totfact>
</mgrwt>
</event>
<event>
 4    0  0.1345626E-001  0.3000834E+03  0.7546771E-02  0.1085199E+00
         21   -1    0    0  502  501  0.00000000000E+00  0.00000000000E+00  0.10787558839E+03  0.10787558839E+03  0.00000000000E+00 0.  1.
         21   -1    0    0  503  502 -0.00000000000E+00 -0.00000000000E+00 -0.10781114612E+04  0.10781114612E+04  0.00000000000E+00 0.  1.
         25    1    1    2    0    0 -0.21773146356E+02  0.27193929290E+03 -0.82295638889E+03  0.87596076793E+03  0.12500000000E+03 0.  0.
         21    1    1    2  503  501  0.21773146356E+02 -0.27193929290E+03 -0.14727948387E+03  0.31002628162E+03  0.00000000000E+00 0.  1.
<mgrwt>
<rscale>  3 0.30008340E+03</rscale>
<asrwt>0</asrwt>
<pdfrwt beam="1">  1       21 0.16596245E-01 0.30008340E+03</pdfrwt>
<pdfrwt beam="2">  1       21 0.16586329E+00 0.30008340E+03</pdfrwt>
<totfact> 0.69264566E+03</totfact>
</mgrwt>
</event>
<event>
 4    0  0.1257345E-001  0.2524512E+03  0.7546771E-02  0.1111765E+00
         21   -1    0    0  502  501  0.00000000000E+00  0.00000000000E+00  0.22718247589E+03  0.22718247589E+03  0.00000000000E+00 0.  1.
         21   -1    0    0  503  502 -0.00000000000E+00 -0.00000000000E+00 -0.43238352868E+03  0.43238352868E+03  0.00000000000E+00 0. -1.
         25    1    1    2    0    0  0.73879344505E+02 -0.20651506373E+03 -0.32351479892E+03  0.41035771494E+03  0.12500000000E+03 0.  0.
         21    1    1    2  503  501 -0.73879344505E+02  0.20651506373E+03  0.11831374613E+03  0.24920828962E+03  0.00000000000E+00 0.  1.
<mgrwt>
<rscale>  3 0.25245124E+03</rscale>
<asrwt>0</asrwt>
<pdfrwt beam="1">  1       21 0.34951150E-01 0.25245124E+03</pdfrwt>
<pdfrwt beam="2">  1       21 0.66520543E-01 0.25245124E+03</pdfrwt>
<totfact> 0.15804708E+04</totfact>
</mgrwt>
</event>
<event>
 4    0  0.1126599E-001  0.2802606E+03  0.7546771E-02  0.1095547E+00
         21   -1    0    0  503  501  0.00000000000E+00  0.00000000000E+00  0.18502339167E+03  0.18502339167E+03  0.00000000000E+00 0. -1.
         21   -1    0    0  501  502 -0.00000000000E+00 -0.00000000000E+00 -0.94409174507E+03  0.94409174507E+03  0.00000000000E+00 0. -1.
         25    1    1    2    0    0 -0.22143415027E+03 -0.11784704103E+03 -0.82370705240E+03  0.87008006307E+03  0.12500000000E+03 0.  0.
         21    1    1    2  503  502  0.22143415027E+03  0.11784704103E+03  0.64638699004E+02  0.25903507367E+03  0.00000000000E+00 0. -1.
<mgrwt>
<rscale>  3 0.28026061E+03</rscale>
<asrwt>0</asrwt>
<pdfrwt beam="1">  1       21 0.28465137E-01 0.28026061E+03</pdfrwt>
<pdfrwt beam="2">  1       21 0.14524489E+00 0.28026061E+03</pdfrwt>
<totfact> 0.35975030E+03</totfact>
</mgrwt>
</event>
<event>
 4    0  0.1005289E-001  0.2532059E+03  0.7546771E-02  0.1111295E+00
         21   -1    0    0  503  501  0.00000000000E+00  0.00000000000E+00  0.26352588735E+04  0.26352588735E+04  0.00000000000E+00 0. -1.
         21   -1    0    0  501  502 -0.00000000000E+00 -0.00000000000E+00 -0.21273449157E+02  0.21273449157E+02  0.00000000000E+00 0. -1.
         25    1    1    2    0    0  0.17726949829E+03 -0.13062820451E+03  0.13660686601E+04  0.13893368155E+04  0.12500000000E+03 0.  0.
         21    1    1    2  503  502 -0.17726949829E+03  0.13062820451E+03  0.12479167642E+04  0.12671955071E+04  0.00000000000E+00 0. -1.
<mgrwt>
<rscale>  3 0.25320585E+03</rscale>
<asrwt>0</asrwt>
<pdfrwt beam="1">  1       21 0.40542418E+00 0.25320585E+03</pdfrwt>
<pdfrwt beam="2">  1       21 0.32728404E-02 0.25320585E+03</pdfrwt>
<totfact> 0.41027404E+03</totfact>
</mgrwt>
</event>
<event>
 4    0  0.1516365E-001  0.2525412E+03  0.7546771E-02  0.1111709E+00
         21   -1    0    0  503  501  0.00000000000E+00  0.00000000000E+00  0.87752805272E+02  0.87752805272E+02  0.00000000000E+00 0.  1.
         21   -1    0    0  501  502 -0.00000000000E+00 -0.00000000000E+00 -0.63468353746E+03  0.63468353746E+03  0.00000000000E+00 0.  1.
         25    1    1    2    0    0 -0.73284695483E+02  0.20683672056E+03 -0.29594734098E+03  0.38905257254E+03  0.12500000000E+03 0.  0.
         21    1    1    2  503  502  0.73284695483E+02 -0.20683672056E+03 -0.25098339121E+03  0.33338377020E+03  0.00000000000E+00 0.  1.
<mgrwt>
<rscale>  3 0.25254124E+03</rscale>
<asrwt>0</asrwt>
<pdfrwt beam="1">  1       21 0.13500432E-01 0.25254124E+03</pdfrwt>
<pdfrwt beam="2">  1       21 0.97643617E-01 0.25254124E+03</pdfrwt>
<totfact> 0.40056916E+04</totfact>
</mgrwt>
</event>
<event>
 4    0  0.1674238E-001  0.2519879E+03  0.7546771E-02  0.1112055E+00
         21   -1    0    0  503  501  0.00000000000E+00  0.00000000000E+00  0.48185151922E+03  0.48185151922E+03  0.00000000000E+00 0.  1.
         21   -1    0    0  501  502 -0.00000000000E+00 -0.00000000000E+00 -0.35279452549E+03  0.35279452549E+03  0.00000000000E+00 0. -1.
         25    1    1    2    0    0  0.17428540223E+03 -0.13227813638E+03 -0.27633514606E+03  0.37397729843E+03  0.12500000000E+03 0.  0.
         21    1    1    2  503  502 -0.17428540223E+03  0.13227813638E+03  0.40539213978E+03  0.46066874627E+03  0.00000000000E+00 0.  1.
<mgrwt>
<rscale>  3 0.25198791E+03</rscale>
<asrwt>0</asrwt>
<pdfrwt beam="1">  1       21 0.74131003E-01 0.25198791E+03</pdfrwt>
<pdfrwt beam="2">  1       21 0.54276081E-01 0.25198791E+03</pdfrwt>
<totfact> 0.50216336E+03</totfact>
</mgrwt>
</event>
<event>
 4    0  0.1155010E-001  0.3556455E+03  0.7546771E-02  0.1060321E+00
         21   -1    0    0  503  501  0.00000000000E+00  0.00000000000E+00  0.14107790896E+04  0.14107790896E+04  0.00000000000E+00 0. -1.
         21   -1    0    0  501  502 -0.00000000000E+00 -0.00000000000E+00 -0.10336125250E+03  0.10336125250E+03  0.00000000000E+00 0. -1.
         25    1    1    2    0    0  0.27254241847E+03 -0.19125728465E+03  0.34392705956E+03  0.49474189340E+03  0.12500000000E+03 0.  0.
         21    1    1    2  503  502 -0.27254241847E+03  0.19125728465E+03  0.96349077755E+03  0.10193984487E+04  0.00000000000E+00 0. -1.
<mgrwt>
<rscale>  3 0.35564550E+03</rscale>
<asrwt>0</asrwt>
<pdfrwt beam="1">  1       21 0.21704292E+00 0.35564550E+03</pdfrwt>
<pdfrwt beam="2">  1       21 0.15901732E-01 0.35564550E+03</pdfrwt>
<totfact> 0.32816194E+03</totfact>
</mgrwt>
</event>
<event>
 4    0  0.1647205E-001  0.3775184E+03  0.7546771E-02  0.1051855E+00
         21   -1    0    0  503  501  0.00000000000E+00  0.00000000000E+00  0.35221517798E+03  0.35221517798E+03  0.00000000000E+00 0.  1.
         21   -1    0    0  501  502 -0.00000000000E+00 -0.00000000000E+00 -0.38225758340E+03  0.38225758340E+03  0.00000000000E+00 0.  1.
         25    1    1    2    0    0 -0.19623121782E+03  0.29730193995E+03 -0.89230492506E+01  0.37762382758E+03  0.12500000000E+03 0.  0.
         21    1    1    2  503  502  0.19623121782E+03 -0.29730193995E+03 -0.21119356168E+02  0.35684893380E+03  0.00000000000E+00 0.  1.
<mgrwt>
<rscale>  3 0.37751839E+03</rscale>
<asrwt>0</asrwt>
<pdfrwt beam="1">  1       21 0.54186950E-01 0.37751839E+03</pdfrwt>
<pdfrwt beam="2">  1       21 0.58808859E-01 0.37751839E+03</pdfrwt>
<totfact> 0.79216072E+03</totfact>
</mgrwt>
</event>
<event>
 4    0  0.1461965E-001  0.2883471E+03  0.7546771E-02  0.1091215E+00
         21   -1    0    0  503  501  0.00000000000E+00  0.00000000000E+00  0.12484883904E+03  0.12484883904E+03  0.00000000000E+00 0. -1.
         21   -1    0    0  501  502 -0.00000000000E+00 -0.00000000000E+00 -0.67373984101E+03  0.67373984101E+03  0.00000000000E+00 0. -1.
         25    1    1    2    0    0  0.13009741801E+03  0.22493039912E+03 -0.41754991797E+03  0.50743665281E+03  0.12500000000E+03 0.  0.
         21    1    1    2  503  502 -0.13009741801E+03 -0.22493039912E+03 -0.13134108400E+03  0.29115202724E+03  0.00000000000E+00 0. -1.
<mgrwt>
<rscale>  3 0.28834705E+03</rscale>
<asrwt>0</asrwt>
<pdfrwt beam="1">  1       21 0.19207514E-01 0.28834705E+03</pdfrwt>
<pdfrwt beam="2">  1       21 0.10365228E+00 0.28834705E+03</pdfrwt>
<totfact> 0.17820820E+04</totfact>
</mgrwt>
</event>
<event>
 4    0  0.1137695E-001  0.2633872E+03  0.7546771E-02  0.1105125E+00
         21   -1    0    0  502  501  0.00000000000E+00  0.00000000000E+00  0.15400651106E+04  0.15400651106E+04  0.00000000000E+00 0.  1.
         21   -1    0    0  503  502 -0.00000000000E+00 -0.00000000000E+00 -0.56007399046E+02  0.56007399046E+02  0.00000000000E+00 0.  1.
         25    1    1    2    0    0 -0.20482175833E+03  0.10860879100E+03  0.34710208345E+03  0.43572087224E+03  0.12500000000E+03 0.  0.
         21    1    1    2  503  501  0.20482175833E+03 -0.10860879100E+03  0.11369556281E+04  0.11603516374E+04  0.00000000000E+00 0.  1.
<mgrwt>
<rscale>  3 0.26338721E+03</rscale>
<asrwt>0</asrwt>
<pdfrwt beam="1">  1       21 0.23693306E+00 0.26338721E+03</pdfrwt>
<pdfrwt beam="2">  1       21 0.86165241E-02 0.26338721E+03</pdfrwt>
<totfact> 0.79025778E+03</totfact>
</mgrwt>
</event>
<event>
 4    0  0.1313766E-001  0.2512313E+03  0.7546771E-02  0.1112529E+00
         21   -1    0    0  503  501  0.00000000000E+00  0.00000000000E+00  0.57478155979E+03  0.57478155979E+03  0.00000000000E+00 0.  1.
         21   -1    0    0  501  502 -0.00000000000E+00 -0.00000000000E+00 -0.12962350294E+03  0.12962350294E+03  0.00000000000E+00 0.  1.
         25    1    1    2    0    0  0.18667654929E+03 -0.11244579576E+03  0.54502575918E+02  0.25707532325E+03  0.12500000000E+03 0.  0.
         21    1    1    2  503  502 -0.18667654929E+03  0.11244579576E+03  0.39065548093E+03  0.44732973948E+03  0.00000000000E+00 0.  1.
<mgrwt>
<rscale>  3 0.25123135E+03</rscale>
<asrwt>0</asrwt>
<pdfrwt beam="1">  1       21 0.88427930E-01 0.25123135E+03</pdfrwt>
<pdfrwt beam="2">  1       21 0.19942078E-01 0.25123135E+03</pdfrwt>
<totfact> 0.24614622E+04</totfact>
</mgrwt>
</event>
<event>
 4    0  0.1005289E-001  0.2687018E+03  0.7546771E-02  0.1102025E+00
         21   -1    0    0  503  501  0.00000000000E+00  0.00000000000E+00  0.58950974116E+02  0.58950974116E+02  0.00000000000E+00 0.  1.
         21   -1    0    0  501  502 -0.00000000000E+00 -0.00000000000E+00 -0.12147878862E+04  0.12147878862E+04  0.00000000000E+00 0.  1.
         25    1    1    2    0    0  0.72418590992E+02  0.22656385160E+03 -0.40419397317E+03  0.48535904145E+03  0.12500000000E+03 0.  0.
         21    1    1    2  503  502 -0.72418590992E+02 -0.22656385160E+03 -0.75164293890E+03  0.78837981885E+03  0.00000000000E+00 0.  1.
<mgrwt>
<rscale>  3 0.26870175E+03</rscale>
<asrwt>0</asrwt>
<pdfrwt beam="1">  1       21 0.90693811E-02 0.26870175E+03</pdfrwt>
<pdfrwt beam="2">  1       21 0.18689044E+00 0.26870175E+03</pdfrwt>
<totfact> 0.14981679E+04</totfact>
</mgrwt>
</event>
<event>
 4    0  0.1005289E-001  0.2891482E+03  0.7546771E-02  0.1090795E+00
         21   -1    0    0  503  501  0.00000000000E+00  0.00000000000E+00  0.61680827033E+03  0.61680827033E+03  0.00000000000E+00 0.  1.
         21   -1    0    0  501  502 -0.00000000000E+00 -0.00000000000E+00 -0.12467757036E+03  0.12467757036E+03  0.00000000000E+00 0. -1.
         25    1    1    2    0    0  0.16103538507E+03  0.20505928075E+03  0.21024315079E+03  0.35750368714E+03  0.12500000000E+03 0.  0.
         21    1    1    2  503  502 -0.16103538507E+03 -0.20505928075E+03  0.28188754917E+03  0.38398215355E+03  0.00000000000E+00 0.  1.
<mgrwt>
<rscale>  3 0.28914824E+03</rscale>
<asrwt>0</asrwt>
<pdfrwt beam="1">  1       21 0.94893578E-01 0.28914824E+03</pdfrwt>
<pdfrwt beam="2">  1       21 0.19181165E-01 0.28914824E+03</pdfrwt>
<totfact> 0.22067630E+04</totfact>
</mgrwt>
</event>
<event>
 4    0  0.1282556E-001  0.2370819E+03  0.7546771E-02  0.1121752E+00
         21   -1    0    0  503  501  0.00000000000E+00  0.00000000000E+00  0.91618382514E+02  0.91618382514E+02  0.00000000000E+00 0.  1.
         21   -1    0    0  501  502 -0.00000000000E+00 -0.00000000000E+00 -0.56905283007E+03  0.56905283007E+03  0.00000000000E+00 0.  1.
         25    1    1    2    0    0 -0.85670251054E+02  0.18232788477E+03 -0.16472678827E+03  0.28869146897E+03  0.12500000000E+03 0.  0.
         21    1    1    2  503  502  0.85670251054E+02 -0.18232788477E+03 -0.31270765929E+03  0.37197974361E+03  0.00000000000E+00 0.  1.
<mgrwt>
<rscale>  3 0.23708195E+03</rscale>
<asrwt>0</asrwt>
<pdfrwt beam="1">  1       21 0.14095136E-01 0.23708195E+03</pdfrwt>
<pdfrwt beam="2">  1       21 0.87546591E-01 0.23708195E+03</pdfrwt>
<totfact> 0.48152411E+04</totfact>
</mgrwt>
</event>
<event>
 4    0  0.1404242E-001  0.2388620E+03  0.7546771E-02  0.1120553E+00
         21   -1    0    0  502  501  0.00000000000E+00  0.00000000000E+00  0.40152869800E+03  0.40152869800E+03  0.00000000000E+00 0.  1.
         21   -1    0    0  503  502 -0.00000000000E+00 -0.00000000000E+00 -0.21727484043E+03  0.21727484043E+03  0.00000000000E+00 0. -1.
         25    1    1    2    0    0 -0.40253435658E+02  0.19952376535E+03 -0.10841422673E+03  0.26231415627E+03  0.12500000000E+03 0.  0.
         21    1    1    2  503  501  0.40253435658E+02 -0.19952376535E+03  0.29266808430E+03  0.35648938216E+03  0.00000000000E+00 0.  1.
<mgrwt>
<rscale>  3 0.23886204E+03</rscale>
<asrwt>0</asrwt>
<pdfrwt beam="1">  1       21 0.61773646E-01 0.23886204E+03</pdfrwt>
<pdfrwt beam="2">  1       21 0.33426899E-01 0.23886204E+03</pdfrwt>
<totfact> 0.20442811E+04</totfact>
</mgrwt>
</event>
<event>
 4    0  0.1453301E-001  0.2821512E+03  0.7546771E-02  0.1094520E+00
         21   -1    0    0  502  501  0.00000000000E+00  0.00000000000E+00  0.90174129598E+03  0.90174129598E+03  0.00000000000E+00 0.  1.
         21   -1    0    0  503  502 -0.00000000000E+00 -0.00000000000E+00 -0.87781413912E+02  0.87781413912E+02  0.00000000000E+00 0.  1.
         25    1    1    2    0    0 -0.24917412059E+03  0.43549773484E+02  0.27424165028E+03  0.39346894145E+03  0.12500000000E+03 0.  0.
         21    1    1    2  503  501  0.24917412059E+03 -0.43549773484E+02  0.53971823179E+03  0.59605376843E+03  0.00000000000E+00 0.  1.
<mgrwt>
<rscale>  3 0.28215125E+03</rscale>
<asrwt>0</asrwt>
<pdfrwt beam="1">  1       21 0.13872942E+00 0.28215125E+03</pdfrwt>
<pdfrwt beam="2">  1       21 0.13504834E-01 0.28215125E+03</pdfrwt>
<totfact> 0.16507728E+04</totfact>
</mgrwt>
</event>
<event>
 4    0  0.1522232E-001  0.2404366E+03  0.7546771E-02  0.1119502E+00
         21   -1    0    0  503  501  0.00000000000E+00  0.00000000000E+00  0.24336172381E+03  0.24336172381E+03  0.00000000000E+00 0. -1.
         21   -1    0    0  501  502 -0.00000000000E+00 -0.00000000000E+00 -0.23343464452E+03  0.23343464452E+03  0.00000000000E+00 0. -1.
         25    1    1    2    0    0 -0.16269039066E+03  0.12536580175E+03 -0.78858565473E+02  0.25303837813E+03  0.12500000000E+03 0.  0.
         21    1    1    2  503  502  0.16269039066E+03 -0.12536580175E+03  0.88785644771E+02  0.22375799020E+03  0.00000000000E+00 0. -1.
<mgrwt>
<rscale>  3 0.24043658E+03</rscale>
<asrwt>0</asrwt>
<pdfrwt beam="1">  1       21 0.37440265E-01 0.24043658E+03</pdfrwt>
<pdfrwt beam="2">  1       21 0.35913022E-01 0.24043658E+03</pdfrwt>
<totfact> 0.50341516E+04</totfact>
</mgrwt>
</event>
<event>
 4    0  0.1060692E-001  0.4613690E+03  0.7546771E-02  0.1024385E+00
         21   -1    0    0  503  501  0.00000000000E+00  0.00000000000E+00  0.19302255599E+03  0.19302255599E+03  0.00000000000E+00 0.  1.
         21   -1    0    0  501  502 -0.00000000000E+00 -0.00000000000E+00 -0.15265592353E+04  0.15265592353E+04  0.00000000000E+00 0. -1.
         25    1    1    2    0    0 -0.19898900148E+03  0.39703874424E+03 -0.11498923931E+04  0.12389971359E+04  0.12500000000E+03 0.  0.
         21    1    1    2  503  502  0.19898900148E+03 -0.39703874424E+03 -0.18364428624E+03  0.48058465540E+03  0.00000000000E+00 0.  1.
<mgrwt>
<rscale>  3 0.46136904E+03</rscale>
<asrwt>0</asrwt>
<pdfrwt beam="1">  1       21 0.29695779E-01 0.46136904E+03</pdfrwt>
<pdfrwt beam="2">  1       21 0.23485526E+00 0.46136904E+03</pdfrwt>
<totfact> 0.72527721E+02</totfact>
</mgrwt>
</event>
<event>
 4    0  0.1005289E-001  0.2454619E+03  0.7546771E-02  0.1116207E+00
         21   -1    0    0  503  501  0.00000000000E+00  0.00000000000E+00  0.17340898685E+04  0.17340898685E+04  0.00000000000E+00 0.  1.
         21   -1    0    0  501  502 -0.00000000000E+00 -0.00000000000E+00 -0.48250503378E+02  0.48250503378E+02  0.00000000000E+00 0.  1.
         25    1    1    2    0    0  0.18557576227E+03  0.10093658241E+03  0.14283263270E+04  0.14492645217E+04  0.12500000000E+03 0.  0.
         21    1    1    2  503  502 -0.18557576227E+03 -0.10093658241E+03  0.25751303803E+03  0.33307585018E+03  0.00000000000E+00 0.  1.
<mgrwt>
<rscale>  3 0.24546193E+03</rscale>
<asrwt>0</asrwt>
<pdfrwt beam="1">  1       21 0.26678301E+00 0.24546193E+03</pdfrwt>
<pdfrwt beam="2">  1       21 0.74231557E-02 0.24546193E+03</pdfrwt>
<totfact> 0.69034216E+03</totfact>
</mgrwt>
</event>
<event>
 4    0  0.1005289E-001  0.3033370E+03  0.7546771E-02  0.1083584E+00
         21   -1    0    0  503  501  0.00000000000E+00  0.00000000000E+00  0.19595361284E+03  0.19595361284E+03  0.00000000000E+00 0. -1.
         21   -1    0    0  501  502 -0.00000000000E+00 -0.00000000000E+00 -0.66292603075E+03  0.66292603075E+03  0.00000000000E+00 0. -1.
         25    1    1    2    0    0 -0.27312122687E+03  0.42345312909E+02  0.14538284327E+02  0.30368518535E+03  0.12500000000E+03 0.  0.
         21    1    1    2  503  502  0.27312122687E+03 -0.42345312909E+02 -0.48151070224E+03  0.55519445824E+03  0.00000000000E+00 0. -1.
<mgrwt>
<rscale>  3 0.30333699E+03</rscale>
<asrwt>0</asrwt>
<pdfrwt beam="1">  1       21 0.30146710E-01 0.30333699E+03</pdfrwt>
<pdfrwt beam="2">  1       21 0.10198862E+00 0.30333699E+03</pdfrwt>
<totfact> 0.77387871E+03</totfact>
</mgrwt>
</event>
<event>
 4    0  0.1653846E-001  0.2393290E+03  0.7546771E-02  0.1120241E+00
         21   -1    0    0  503  501  0.00000000000E+00  0.00000000000E+00  0.12400152962E+04  0.12400152962E+04  0.00000000000E+00 0.  1.
         21   -1    0    0  501  502 -0.00000000000E+00 -0.00000000000E+00 -0.11232609015E+03  0.11232609015E+03  0.00000000000E+00 0. -1.
         25    1    1    2    0    0 -0.11532679884E+03  0.16838379209E+03  0.36339392151E+02  0.24207214501E+03  0.12500000000E+03 0.  0.
         21    1    1    2  503  502  0.11532679884E+03 -0.16838379209E+03  0.10913498139E+04  0.11102692414E+04  0.00000000000E+00 0.  1.
<mgrwt>
<rscale>  3 0.23932900E+03</rscale>
<asrwt>0</asrwt>
<pdfrwt beam="1">  1       21 0.19077157E+00 0.23932900E+03</pdfrwt>
<pdfrwt beam="2">  1       21 0.17280938E-01 0.23932900E+03</pdfrwt>
<totfact> 0.44855073E+03</totfact>
</mgrwt>
</event>
<event>
 4    0  0.1005289E-001  0.3414634E+03  0.7546771E-02  0.1066174E+00
         21   -1    0    0  503  501  0.00000000000E+00  0.00000000000E+00  0.20571008413E+04  0.20571008413E+04  0.00000000000E+00 0.  1.
         21   -1    0    0  501  502 -0.00000000000E+00 -0.00000000000E+00 -0.53176152270E+02  0.53176152270E+02  0.00000000000E+00 0.  1.
         25    1    1    2    0    0  0.29976011386E+03 -0.10543317979E+03  0.95075816698E+03  0.10102169932E+04  0.12500000000E+03 0.  0.
         21    1    1    2  503  502 -0.29976011386E+03  0.10543317979E+03  0.10531665221E+04  0.11000600004E+04  0.00000000000E+00 0.  1.
<mgrwt>
<rscale>  3 0.34146344E+03</rscale>
<asrwt>0</asrwt>
<pdfrwt beam="1">  1       21 0.31647699E+00 0.34146344E+03</pdfrwt>
<pdfrwt beam="2">  1       21 0.81809481E-02 0.34146344E+03</pdfrwt>
<totfact> 0.27572524E+03</totfact>
</mgrwt>
</event>
<event>
 4    0  0.1501530E-001  0.2383367E+03  0.7546771E-02  0.1120906E+00
         21   -1    0    0  502  501  0.00000000000E+00  0.00000000000E+00  0.92641098011E+02  0.92641098011E+02  0.00000000000E+00 0. -1.
         21   -1    0    0  503  502 -0.00000000000E+00 -0.00000000000E+00 -0.61554107495E+03  0.61554107495E+03  0.00000000000E+00 0. -1.
         25    1    1    2    0    0 -0.49316452462E+02  0.19684327948E+03 -0.41445059612E+03  0.47809380438E+03  0.12500000000E+03 0.  0.
         21    1    1    2  503  501  0.49316452462E+02 -0.19684327948E+03 -0.10844938082E+03  0.23008836859E+03  0.00000000000E+00 0. -1.
<mgrwt>
<rscale>  3 0.23833671E+03</rscale>
<asrwt>0</asrwt>
<pdfrwt beam="1">  1       21 0.14252477E-01 0.23833671E+03</pdfrwt>
<pdfrwt beam="2">  1       21 0.94698625E-01 0.23833671E+03</pdfrwt>
<totfact> 0.39263273E+04</totfact>
</mgrwt>
</event>
<event>
 4    0  0.1005289E-001  0.3973077E+03  0.7546771E-02  0.1044716E+00
         21   -1    0    0  503  501  0.00000000000E+00  0.00000000000E+00  0.49506047624E+03  0.49506047624E+03  0.00000000000E+00 0. -1.
         21   -1    0    0  501  502 -0.00000000000E+00 -0.00000000000E+00 -0.31371739349E+03  0.31371739349E+03  0.00000000000E+00 0.  1.
         25    1    1    2    0    0  0.22585343601E+03 -0.30202424595E+03  0.16812175633E+03  0.43141435378E+03  0.12500000000E+03 0.  0.
         21    1    1    2  503  502 -0.22585343601E+03  0.30202424595E+03  0.13221326419E+02  0.37736351595E+03  0.00000000000E+00 0. -1.
<mgrwt>
<rscale>  3 0.39730771E+03</rscale>
<asrwt>0</asrwt>
<pdfrwt beam="1">  1       21 0.76163150E-01 0.39730771E+03</pdfrwt>
<pdfrwt beam="2">  1       21 0.48264214E-01 0.39730771E+03</pdfrwt>
<totfact> 0.56560306E+03</totfact>
</mgrwt>
</event>
<event>
 4    0  0.1252741E-001  0.2641319E+03  0.7546771E-02  0.1104686E+00
         21   -1    0    0  502  501  0.00000000000E+00  0.00000000000E+00  0.20351248862E+03  0.20351248862E+03  0.00000000000E+00 0.  1.
         21   -1    0    0  503  502 -0.00000000000E+00 -0.00000000000E+00 -0.52006804072E+03  0.52006804072E+03  0.00000000000E+00 0.  1.
         25    1    1    2    0    0  0.19947497711E+03  0.11979306834E+03 -0.39747176475E+03  0.47723102318E+03  0.12500000000E+03 0.  0.
         21    1    1    2  503  501 -0.19947497711E+03 -0.11979306834E+03  0.80916212645E+02  0.24634950616E+03  0.00000000000E+00 0.  1.
<mgrwt>
<rscale>  3 0.26413187E+03</rscale>
<asrwt>0</asrwt>
<pdfrwt beam="1">  1       21 0.31309614E-01 0.26413187E+03</pdfrwt>
<pdfrwt beam="2">  1       21 0.80010468E-01 0.26413187E+03</pdfrwt>
<totfact> 0.12929136E+04</totfact>
</mgrwt>
</event>
<event>
 4    0  0.1086053E-001  0.4500147E+03  0.7546771E-02  0.1027718E+00
         21   -1    0    0  503  501  0.00000000000E+00  0.00000000000E+00  0.96018448256E+03  0.96018448256E+03  0.00000000000E+00 0. -1.
         21   -1    0    0  501  502 -0.00000000000E+00 -0.00000000000E+00 -0.28915659648E+03  0.28915659648E+03  0.00000000000E+00 0. -1.
         25    1    1    2    0    0  0.39830549783E+03 -0.16805045776E+03 -0.13049312327E+01  0.45001658725E+03  0.12500000000E+03 0.  0.
         21    1    1    2  503  502 -0.39830549783E+03  0.16805045776E+03  0.67233281731E+03  0.79932449180E+03  0.00000000000E+00 0. -1.
<mgrwt>
<rscale>  3 0.45001470E+03</rscale>
<asrwt>0</asrwt>
<pdfrwt beam="1">  1       21 0.14772069E+00 0.45001470E+03</pdfrwt>
<pdfrwt beam="2">  1       21 0.44485630E-01 0.45001470E+03</pdfrwt>
<totfact> 0.12820120E+03</totfact>
</mgrwt>
</event>
<event>
 4    0  0.1005289E-001  0.3521909E+03  0.7546771E-02  0.1061719E+00
         21   -1    0    0  503  501  0.00000000000E+00  0.00000000000E+00  0.22745468052E+03  0.22745468052E+03  0.00000000000E+00 0. -1.
         21   -1    0    0  501  502 -0.00000000000E+00 -0.00000000000E+00 -0.51218162510E+03  0.51218162510E+03  0.00000000000E+00 0.  1.
         25    1    1    2    0    0 -0.12324337410E+02 -0.32903121710E+03 -0.16889230737E+03  0.39059319324E+03  0.12500000000E+03 0.  0.
         21    1    1    2  503  502  0.12324337410E+02  0.32903121710E+03 -0.11583463721E+03  0.34904311237E+03  0.00000000000E+00 0. -1.
<mgrwt>
<rscale>  3 0.35219090E+03</rscale>
<asrwt>0</asrwt>
<pdfrwt beam="1">  1       21 0.34993028E-01 0.35219090E+03</pdfrwt>
<pdfrwt beam="2">  1       21 0.78797173E-01 0.35219090E+03</pdfrwt>
<totfact> 0.10323281E+04</totfact>
</mgrwt>
</event>
<event>
 4    0  0.1297716E-001  0.2380285E+03  0.7546771E-02  0.1121113E+00
         21   -1    0    0  502  501  0.00000000000E+00  0.00000000000E+00  0.14478530518E+03  0.14478530518E+03  0.00000000000E+00 0. -1.
         21   -1    0    0  503  502 -0.00000000000E+00 -0.00000000000E+00 -0.34889504562E+03  0.34889504562E+03  0.00000000000E+00 0. -1.
         25    1    1    2    0    0  0.20114885111E+03 -0.23910412723E+02 -0.61177439537E+02  0.24576461757E+03  0.12500000000E+03 0.  0.
         21    1    1    2  503  501 -0.20114885111E+03  0.23910412723E+02 -0.14293230091E+03  0.24791573323E+03  0.00000000000E+00 0. -1.
<mgrwt>
<rscale>  3 0.23802850E+03</rscale>
<asrwt>0</asrwt>
<pdfrwt beam="1">  1       21 0.22274662E-01 0.23802850E+03</pdfrwt>
<pdfrwt beam="2">  1       21 0.53676161E-01 0.23802850E+03</pdfrwt>
<totfact> 0.60709705E+04</totfact>
</mgrwt>
</event>
<event>
 4    0  0.1360332E-001  0.2648699E+03  0.7546771E-02  0.1104252E+00
         21   -1    0    0  503  501  0.00000000000E+00  0.00000000000E+00  0.52098355881E+03  0.52098355881E+03  0.00000000000E+00 0. -1.
         21   -1    0    0  501  502 -0.00000000000E+00 -0.00000000000E+00 -0.18299349398E+03  0.18299349398E+03  0.00000000000E+00 0. -1.
         25    1    1    2    0    0 -0.23170878134E+03 -0.29018757772E+02 -0.31648875516E+02  0.26675400460E+03  0.12500000000E+03 0.  0.
         21    1    1    2  503  502  0.23170878134E+03  0.29018757772E+02  0.36963894035E+03  0.43722304819E+03  0.00000000000E+00 0. -1.
<mgrwt>
<rscale>  3 0.26486987E+03</rscale>
<asrwt>0</asrwt>
<pdfrwt beam="1">  1       21 0.80151316E-01 0.26486987E+03</pdfrwt>
<pdfrwt beam="2">  1       21 0.28152845E-01 0.26486987E+03</pdfrwt>
<totfact> 0.15856388E+04</totfact>
</mgrwt>
</event>
<event>
 4    0  0.1073753E-001  0.2471181E+03  0.7546771E-02  0.1115140E+00
         21   -1    0    0  503  501  0.00000000000E+00  0.00000000000E+00  0.38326547767E+03  0.38326547767E+03  0.00000000000E+00 0.  1.
         21   -1    0    0  501  502 -0.00000000000E+00 -0.00000000000E+00 -0.19499548280E+03  0.19499548280E+03  0.00000000000E+00 0. -1.
         25    1    1    2    0    0 -0.17546954598E+03 -0.12104872284E+03 -0.56686485278E+02  0.25353641254E+03  0.12500000000E+03 0.  0.
         21    1    1    2  503  502  0.17546954598E+03  0.12104872284E+03  0.24495648014E+03  0.32472454794E+03  0.00000000000E+00 0.  1.
<mgrwt>
<rscale>  3 0.24711810E+03</rscale>
<asrwt>0</asrwt>
<pdfrwt beam="1">  1       21 0.58963920E-01 0.24711810E+03</pdfrwt>
<pdfrwt beam="2">  1       21 0.29999305E-01 0.24711810E+03</pdfrwt>
<totfact> 0.27874486E+04</totfact>
</mgrwt>
</event>
<event>
 4    0  0.1474122E-001  0.3519494E+03  0.7546771E-02  0.1061818E+00
         21   -1    0    0  502  501  0.00000000000E+00  0.00000000000E+00  0.17973714235E+03  0.17973714235E+03  0.00000000000E+00 0.  1.
         21   -1    0    0  503  502 -0.00000000000E+00 -0.00000000000E+00 -0.64780250551E+03  0.64780250551E+03  0.00000000000E+00 0.  1.
         25    1    1    2    0    0 -0.31290975922E+03 -0.10164096804E+03 -0.21451812850E+03  0.41217281722E+03  0.12500000000E+03 0.  0.
         21    1    1    2  503  501  0.31290975922E+03  0.10164096804E+03 -0.25354723466E+03  0.41536683065E+03  0.00000000000E+00 0.  1.
<mgrwt>
<rscale>  3 0.35194943E+03</rscale>
<asrwt>0</asrwt>
<pdfrwt beam="1">  1       21 0.27651868E-01 0.35194943E+03</pdfrwt>
<pdfrwt beam="2">  1       21 0.99661926E-01 0.35194943E+03</pdfrwt>
<totfact> 0.94940595E+03</totfact>
</mgrwt>
</event>
<event>
 4    0  0.1256065E-001  0.2497999E+03  0.7546771E-02  0.1113431E+00
         21   -1    0    0  503  501  0.00000000000E+00  0.00000000000E+00  0.92802484624E+02  0.92802484624E+02  0.00000000000E+00 0. -1.
         21   -1    0    0  501  502 -0.00000000000E+00 -0.00000000000E+00 -0.88085159716E+03  0.88085159716E+03  0.00000000000E+00 0. -1.
         25    1    1    2    0    0  0.15808498746E+03 -0.14759448361E+03 -0.69441758847E+03  0.73798088189E+03  0.12500000000E+03 0.  0.
         21    1    1    2  503  502 -0.15808498746E+03  0.14759448361E+03 -0.93631524062E+02  0.23567319990E+03  0.00000000000E+00 0. -1.
<mgrwt>
<rscale>  3 0.24979991E+03</rscale>
<asrwt>0</asrwt>
<pdfrwt beam="1">  1       21 0.14277306E-01 0.24979991E+03</pdfrwt>
<pdfrwt beam="2">  1       21 0.13551563E+00 0.24979991E+03</pdfrwt>
<totfact> 0.16115907E+04</totfact>
</mgrwt>
</event>
<event>
 4    0  0.1269241E-001  0.2378431E+03  0.7546771E-02  0.1121238E+00
         21   -1    0    0  503  501  0.00000000000E+00  0.00000000000E+00  0.14662870168E+03  0.14662870168E+03  0.00000000000E+00 0.  1.
         21   -1    0    0  501  502 -0.00000000000E+00 -0.00000000000E+00 -0.78940142637E+03  0.78940142637E+03  0.00000000000E+00 0.  1.
         25    1    1    2    0    0  0.13797010113E+03  0.14801544244E+03 -0.68863429173E+03  0.72855096442E+03  0.12500000000E+03 0.  0.
         21    1    1    2  503  502 -0.13797010113E+03 -0.14801544244E+03  0.45861567038E+02  0.20747916363E+03  0.00000000000E+00 0.  1.
<mgrwt>
<rscale>  3 0.23784306E+03</rscale>
<asrwt>0</asrwt>
<pdfrwt beam="1">  1       21 0.22558262E-01 0.23784306E+03</pdfrwt>
<pdfrwt beam="2">  1       21 0.12144637E+00 0.23784306E+03</pdfrwt>
<totfact> 0.91514500E+03</totfact>
</mgrwt>
</event>
<event>
 4    0  0.1005289E-001  0.2418245E+03  0.7546771E-02  0.1118583E+00
         21   -1    0    0  503  501  0.00000000000E+00  0.00000000000E+00  0.31238027782E+03  0.31238027782E+03  0.00000000000E+00 0. -1.
         21   -1    0    0  501  502 -0.00000000000E+00 -0.00000000000E+00 -0.16128623375E+03  0.16128623375E+03  0.00000000000E+00 0.  1.
         25    1    1    2    0    0 -0.93691333846E+02  0.18459691763E+03  0.85992392480E+02  0.25665887789E+03  0.12500000000E+03 0.  0.
         21    1    1    2  503  502  0.93691333846E+02 -0.18459691763E+03  0.65101651593E+02  0.21700763368E+03  0.00000000000E+00 0. -1.
<mgrwt>
<rscale>  3 0.24182450E+03</rscale>
<asrwt>0</asrwt>
<pdfrwt beam="1">  1       21 0.48058504E-01 0.24182450E+03</pdfrwt>
<pdfrwt beam="2">  1       21 0.24813267E-01 0.24182450E+03</pdfrwt>
<totfact> 0.62246915E+04</totfact>
</mgrwt>
</event>
<event>
 4    0  0.1218708E-001  0.2503101E+03  0.7546771E-02  0.1113109E+00
         21   -1    0    0  503  501  0.00000000000E+00  0.00000000000E+00  0.34049136889E+03  0.34049136889E+03  0.00000000000E+00 0. -1.
         21   -1    0    0  501  502 -0.00000000000E+00 -0.00000000000E+00 -0.44614996788E+03  0.44614996788E+03  0.00000000000E+00 0. -1.
         25    1    1    2    0    0  0.42842966222E+02 -0.21259031040E+03 -0.36875603191E+03  0.44568617984E+03  0.12500000000E+03 0.  0.
         21    1    1    2  503  502 -0.42842966222E+02  0.21259031040E+03  0.26309743292E+03  0.34095515693E+03  0.00000000000E+00 0. -1.
<mgrwt>
<rscale>  3 0.25031013E+03</rscale>
<asrwt>0</asrwt>
<pdfrwt beam="1">  1       21 0.52383288E-01 0.25031013E+03</pdfrwt>
<pdfrwt beam="2">  1       21 0.68638456E-01 0.25031013E+03</pdfrwt>
<totfact> 0.64333270E+03</totfact>
</mgrwt>
</event>
<event>
 4    0  0.1005289E-001  0.3732619E+03  0.7546771E-02  0.1053453E+00
         21   -1    0    0  503  501  0.00000000000E+00  0.00000000000E+00  0.77029083893E+03  0.77029083893E+03  0.00000000000E+00 0. -1.
         21   -1    0    0  501  502 -0.00000000000E+00 -0.00000000000E+00 -0.30787927850E+04  0.30787927850E+04  0.00000000000E+00 0.  1.
         25    1    1    2    0    0  0.28111471753E+03 -0.21136217869E+03 -0.30265742146E+04  0.30495042108E+04  0.12500000000E+03 0.  0.
         21    1    1    2  503  502 -0.28111471753E+03  0.21136217869E+03  0.71807226858E+03  0.79957941312E+03  0.00000000000E+00 0. -1.
<mgrwt>
<rscale>  3 0.37326191E+03</rscale>
<asrwt>0</asrwt>
<pdfrwt beam="1">  1       21 0.11850628E+00 0.37326191E+03</pdfrwt>
<pdfrwt beam="2">  1       21 0.47366042E+00 0.37326191E+03</pdfrwt>
<totfact> 0.11627463E+00</totfact>
</mgrwt>
</event>
<event>
 4    0  0.1681963E-001  0.2854363E+03  0.7546771E-02  0.1092756E+00
         21   -1    0    0  502  501  0.00000000000E+00  0.00000000000E+00  0.44895337994E+03  0.44895337994E+03  0.00000000000E+00 0.  1.
         21   -1    0    0  503  502 -0.00000000000E+00 -0.00000000000E+00 -0.43480314279E+03  0.43480314279E+03  0.00000000000E+00 0. -1.
         25    1    1    2    0    0  0.25543153430E+03 -0.24569027583E+02 -0.34157305305E+03  0.44513599765E+03  0.12500000000E+03 0.  0.
         21    1    1    2  503  501 -0.25543153430E+03  0.24569027583E+02  0.35572329020E+03  0.43862052508E+03  0.00000000000E+00 0.  1.
<mgrwt>
<rscale>  3 0.28543634E+03</rscale>
<asrwt>0</asrwt>
<pdfrwt beam="1">  1       21 0.69069751E-01 0.28543634E+03</pdfrwt>
<pdfrwt beam="2">  1       21 0.66892791E-01 0.28543634E+03</pdfrwt>
<totfact> 0.36660420E+03</totfact>
</mgrwt>
</event>
<event>
 4    0  0.1346612E-001  0.2426723E+03  0.7546771E-02  0.1118025E+00
         21   -1    0    0  502  501  0.00000000000E+00  0.00000000000E+00  0.58093771451E+03  0.58093771451E+03  0.00000000000E+00 0.  1.
         21   -1    0    0  503  502 -0.00000000000E+00 -0.00000000000E+00 -0.88087474259E+02  0.88087474259E+02  0.00000000000E+00 0.  1.
         25    1    1    2    0    0  0.50724405736E+02  0.20172229400E+03  0.23587743730E+03  0.33841987923E+03  0.12500000000E+03 0.  0.
         21    1    1    2  503  501 -0.50724405736E+02 -0.20172229400E+03  0.25697280295E+03  0.33060530953E+03  0.00000000000E+00 0.  1.
<mgrwt>
<rscale>  3 0.24267231E+03</rscale>
<asrwt>0</asrwt>
<pdfrwt beam="1">  1       21 0.89375031E-01 0.24267231E+03</pdfrwt>
<pdfrwt beam="2">  1       21 0.13551919E-01 0.24267231E+03</pdfrwt>
<totfact> 0.49180150E+04</totfact>
</mgrwt>
</event>
<event>
 4    0  0.1242702E-001  0.2870027E+03  0.7546771E-02  0.1091925E+00
         21   -1    0    0  502  501  0.00000000000E+00  0.00000000000E+00  0.10001447672E+04  0.10001447672E+04  0.00000000000E+00 0. -1.
         21   -1    0    0  503  502 -0.00000000000E+00 -0.00000000000E+00 -0.13000732081E+03  0.13000732081E+03  0.00000000000E+00 0. -1.
         25    1    1    2    0    0 -0.17078625669E+03  0.19384941995E+03  0.78675078168E+02  0.29759084498E+03  0.12500000000E+03 0.  0.
         21    1    1    2  503  501  0.17078625669E+03 -0.19384941995E+03  0.79146236822E+03  0.83256124303E+03  0.00000000000E+00 0. -1.
<mgrwt>
<rscale>  3 0.28700269E+03</rscale>
<asrwt>0</asrwt>
<pdfrwt beam="1">  1       21 0.15386842E+00 0.28700269E+03</pdfrwt>
<pdfrwt beam="2">  1       21 0.20001127E-01 0.28700269E+03</pdfrwt>
<totfact> 0.60454351E+03</totfact>
</mgrwt>
</event>
<event>
 4    0  0.1005289E-001  0.4244527E+03  0.7546771E-02  0.1035627E+00
         21   -1    0    0  503  501  0.00000000000E+00  0.00000000000E+00  0.19078803370E+04  0.19078803370E+04  0.00000000000E+00 0. -1.
         21   -1    0    0  501  502 -0.00000000000E+00 -0.00000000000E+00 -0.82256996583E+03  0.82256996583E+03  0.00000000000E+00 0.  1.
         25    1    1    2    0    0 -0.13486657502E+03 -0.38255206381E+03 -0.74407970548E+03  0.85662983995E+03  0.12500000000E+03 0.  0.
         21    1    1    2  503  502  0.13486657502E+03  0.38255206381E+03  0.18293900767E+04  0.18738204629E+04  0.00000000000E+00 0. -1.
<mgrwt>
<rscale>  3 0.42445268E+03</rscale>
<asrwt>0</asrwt>
<pdfrwt beam="1">  1       21 0.29352005E+00 0.42445268E+03</pdfrwt>
<pdfrwt beam="2">  1       21 0.12654923E+00 0.42445268E+03</pdfrwt>
<totfact> 0.12974306E+01</totfact>
</mgrwt>
</event>
<event>
 4    0  0.1685608E-001  0.3353981E+03  0.7546771E-02  0.1068773E+00
         21   -1    0    0  502  501  0.00000000000E+00  0.00000000000E+00  0.10202235831E+04  0.10202235831E+04  0.00000000000E+00 0.  1.
         21   -1    0    0  503  502 -0.00000000000E+00 -0.00000000000E+00 -0.38613311808E+03  0.38613311808E+03  0.00000000000E+00 0. -1.
         25    1    1    2    0    0  0.12730813965E+03 -0.28400622159E+03 -0.28240471797E+03  0.43845674935E+03  0.12500000000E+03 0.  0.
         21    1    1    2  503  501 -0.12730813965E+03  0.28400622159E+03  0.91649518297E+03  0.96789995182E+03  0.00000000000E+00 0.  1.
<mgrwt>
<rscale>  3 0.33539812E+03</rscale>
<asrwt>0</asrwt>
<pdfrwt beam="1">  1       21 0.15695747E+00 0.33539812E+03</pdfrwt>
<pdfrwt beam="2">  1       21 0.59405095E-01 0.33539812E+03</pdfrwt>
<totfact> 0.62252331E+02</totfact>
</mgrwt>
</event>
<event>
 4    0  0.1346549E-001  0.4030145E+03  0.7546771E-02  0.1042741E+00
         21   -1    0    0  502  501  0.00000000000E+00  0.00000000000E+00  0.90624835864E+03  0.90624835864E+03  0.00000000000E+00 0. -1.
         21   -1    0    0  503  502 -0.00000000000E+00 -0.00000000000E+00 -0.22168236678E+03  0.22168236678E+03  0.00000000000E+00 0. -1.
         25    1    1    2    0    0  0.37207055228E+03 -0.91428459540E+02  0.78001429521E+02  0.41049346169E+03  0.12500000000E+03 0.  0.
         21    1    1    2  503  501 -0.37207055228E+03  0.91428459540E+02  0.60656456234E+03  0.71743726372E+03  0.00000000000E+00 0. -1.
<mgrwt>
<rscale>  3 0.40301447E+03</rscale>
<asrwt>0</asrwt>
<pdfrwt beam="1">  1       21 0.13942282E+00 0.40301447E+03</pdfrwt>
<pdfrwt beam="2">  1       21 0.34104980E-01 0.40301447E+03</pdfrwt>
<totfact> 0.26320989E+03</totfact>
</mgrwt>
</event>
<event>
 4    0  0.1418373E-001  0.2404268E+03  0.7546771E-02  0.1119509E+00
         21   -1    0    0  503  501  0.00000000000E+00  0.00000000000E+00  0.30479731336E+03  0.30479731336E+03  0.00000000000E+00 0. -1.
         21   -1    0    0  501  502 -0.00000000000E+00 -0.00000000000E+00 -0.16396015128E+03  0.16396015128E+03  0.00000000000E+00 0. -1.
         25    1    1    2    0    0 -0.20418026758E+03 -0.22146371704E+02  0.58148728542E+02  0.24735868305E+03  0.12500000000E+03 0.  0.
         21    1    1    2  503  502  0.20418026758E+03  0.22146371704E+02  0.82688433537E+02  0.22139878159E+03  0.00000000000E+00 0. -1.
<mgrwt>
<rscale>  3 0.24042679E+03</rscale>
<asrwt>0</asrwt>
<pdfrwt beam="1">  1       21 0.46891894E-01 0.24042679E+03</pdfrwt>
<pdfrwt beam="2">  1       21 0.25224639E-01 0.24042679E+03</pdfrwt>
<totfact> 0.63511629E+04</totfact>
</mgrwt>
</event>
<event>
 4    0  0.1223467E-001  0.3332513E+03  0.7546771E-02  0.1069707E+00
         21   -1    0    0  503  501  0.00000000000E+00  0.00000000000E+00  0.41948296972E+03  0.41948296972E+03  0.00000000000E+00 0.  1.
         21   -1    0    0  501  502 -0.00000000000E+00 -0.00000000000E+00 -0.27239457396E+03  0.27239457396E+03  0.00000000000E+00 0.  1.
         25    1    1    2    0    0 -0.21145759195E+03  0.22520458411E+03  0.18414401679E+03  0.38074326890E+03  0.12500000000E+03 0.  0.
         21    1    1    2  503  502  0.21145759195E+03 -0.22520458411E+03 -0.37055621029E+02  0.31113427478E+03  0.00000000000E+00 0.  1.
<mgrwt>
<rscale>  3 0.33325128E+03</rscale>
<asrwt>0</asrwt>
<pdfrwt beam="1">  1       21 0.64535841E-01 0.33325128E+03</pdfrwt>
<pdfrwt beam="2">  1       21 0.41906858E-01 0.33325128E+03</pdfrwt>
<totfact> 0.11280056E+04</totfact>
</mgrwt>
</event>
<event>
 4    0  0.1005289E-001  0.4892658E+03  0.7546771E-02  0.1016619E+00
         21   -1    0    0  503  501  0.00000000000E+00  0.00000000000E+00  0.10833375365E+04  0.10833375365E+04  0.00000000000E+00 0.  1.
         21   -1    0    0  501  502 -0.00000000000E+00 -0.00000000000E+00 -0.21750723236E+03  0.21750723236E+03  0.00000000000E+00 0. -1.
         25    1    1    2    0    0 -0.16334837136E+03  0.44392939727E+03  0.35398216691E+03  0.60389102881E+03  0.12500000000E+03 0.  0.
         21    1    1    2  503  502  0.16334837136E+03 -0.44392939727E+03  0.51184813723E+03  0.69695374005E+03  0.00000000000E+00 0.  1.
<mgrwt>
<rscale>  3 0.48926578E+03</rscale>
<asrwt>0</asrwt>
<pdfrwt beam="1">  1       21 0.16666731E+00 0.48926578E+03</pdfrwt>
<pdfrwt beam="2">  1       21 0.33462652E-01 0.48926578E+03</pdfrwt>
<totfact> 0.16210844E+03</totfact>
</mgrwt>
</event>
<event>
 4    0  0.1427270E-001  0.2397986E+03  0.7546771E-02  0.1119927E+00
         21   -1    0    0  503  501  0.00000000000E+00  0.00000000000E+00  0.10373290361E+03  0.10373290361E+03  0.00000000000E+00 0. -1.
         21   -1    0    0  501  502 -0.00000000000E+00 -0.00000000000E+00 -0.68875419926E+03  0.68875419926E+03  0.00000000000E+00 0. -1.
         25    1    1    2    0    0 -0.18905803258E+03  0.78328870996E+02 -0.52822799564E+03  0.58011047835E+03  0.12500000000E+03 0.  0.
         21    1    1    2  503  502  0.18905803258E+03 -0.78328870996E+02 -0.56793300006E+02  0.21237662451E+03  0.00000000000E+00 0. -1.
<mgrwt>
<rscale>  3 0.23979856E+03</rscale>
<asrwt>0</asrwt>
<pdfrwt beam="1">  1       21 0.15958908E-01 0.23979856E+03</pdfrwt>
<pdfrwt beam="2">  1       21 0.10596219E+00 0.23979856E+03</pdfrwt>
<totfact> 0.24388030E+04</totfact>
</mgrwt>
</event>
<event>
 4    0  0.1678162E-001  0.2521871E+03  0.7546771E-02  0.1111930E+00
         21   -1    0    0  503  501  0.00000000000E+00  0.00000000000E+00  0.24410313155E+03  0.24410313155E+03  0.00000000000E+00 0. -1.
         21   -1    0    0  501  502 -0.00000000000E+00 -0.00000000000E+00 -0.24065355141E+03  0.24065355141E+03  0.00000000000E+00 0. -1.
         25    1    1    2    0    0 -0.19188584716E+03 -0.10560855951E+03 -0.54891036351E+02  0.25809178997E+03  0.12500000000E+03 0.  0.
         21    1    1    2  503  502  0.19188584716E+03  0.10560855951E+03  0.58340616485E+02  0.22666489299E+03  0.00000000000E+00 0. -1.
<mgrwt>
<rscale>  3 0.25218713E+03</rscale>
<asrwt>0</asrwt>
<pdfrwt beam="1">  1       21 0.37554328E-01 0.25218713E+03</pdfrwt>
<pdfrwt beam="2">  1       21 0.37023623E-01 0.25218713E+03</pdfrwt>
<totfact> 0.46846135E+04</totfact>
</mgrwt>
</event>
<event>
 4    0  0.1005289E-001  0.3444129E+03  0.7546771E-02  0.1064932E+00
         21   -1    0    0  503  501  0.00000000000E+00  0.00000000000E+00  0.16532688587E+03  0.16532688587E+03  0.00000000000E+00 0. -1.
         21   -1    0    0  501  502 -0.00000000000E+00 -0.00000000000E+00 -0.71719820559E+03  0.71719820559E+03  0.00000000000E+00 0.  1.
         25    1    1    2    0    0 -0.18818260249E+03  0.25996645971E+03 -0.39887505415E+03  0.52699294196E+03  0.12500000000E+03 0.  0.
         21    1    1    2  503  502  0.18818260249E+03 -0.25996645971E+03 -0.15299626557E+03  0.35553214950E+03  0.00000000000E+00 0. -1.
<mgrwt>
<rscale>  3 0.34441291E+03</rscale>
<asrwt>0</asrwt>
<pdfrwt beam="1">  1       21 0.25434906E-01 0.34441291E+03</pdfrwt>
<pdfrwt beam="2">  1       21 0.11033818E+00 0.34441291E+03</pdfrwt>
<totfact> 0.87401402E+03</totfact>
</mgrwt>
</event>
<event>
 4    0  0.1468364E-001  0.2416510E+03  0.7546771E-02  0.1118698E+00
         21   -1    0    0  502  501  0.00000000000E+00  0.00000000000E+00  0.77706811442E+02  0.77706811442E+02  0.00000000000E+00 0.  1.
         21   -1    0    0  503  502 -0.00000000000E+00 -0.00000000000E+00 -0.81444059379E+03  0.81444059379E+03  0.00000000000E+00 0.  1.
         25    1    1    2    0    0 -0.33236911946E+02 -0.20412133216E+03 -0.59285386342E+03  0.64021161653E+03  0.12500000000E+03 0.  0.
         21    1    1    2  503  501  0.33236911946E+02  0.20412133216E+03 -0.14387991892E+03  0.25193578870E+03  0.00000000000E+00 0.  1.
<mgrwt>
<rscale>  3 0.24165101E+03</rscale>
<asrwt>0</asrwt>
<pdfrwt beam="1">  1       21 0.11954894E-01 0.24165101E+03</pdfrwt>
<pdfrwt beam="2">  1       21 0.12529855E+00 0.24165101E+03</pdfrwt>
<totfact> 0.27252972E+04</totfact>
</mgrwt>
</event>
<event>
 4    0  0.1375369E-001  0.6200599E+03  0.7546771E-02  0.9864640E-01
         21   -1    0    0  503  501  0.00000000000E+00  0.00000000000E+00  0.91963858235E+03  0.91963858235E+03  0.00000000000E+00 0. -1.
         21   -1    0    0  501  502 -0.00000000000E+00 -0.00000000000E+00 -0.41692967724E+03  0.41692967724E+03  0.00000000000E+00 0. -1.
         25    1    1    2    0    0 -0.15042618252E+03  0.58840565679E+03  0.16490074457E+03  0.64161242888E+03  0.12500000000E+03 0.  0.
         21    1    1    2  503  502  0.15042618252E+03 -0.58840565679E+03  0.33780816054E+03  0.69495583072E+03  0.00000000000E+00 0. -1.
<mgrwt>
<rscale>  3 0.62005988E+03</rscale>
<asrwt>0</asrwt>
<pdfrwt beam="1">  1       21 0.14148286E+00 0.62005988E+03</pdfrwt>
<pdfrwt beam="2">  1       21 0.64143028E-01 0.62005988E+03</pdfrwt>
<totfact> 0.61474922E+02</totfact>
</mgrwt>
</event>
<event>
 4    0  0.1005289E-001  0.2605107E+03  0.7546771E-02  0.1106837E+00
         21   -1    0    0  502  501  0.00000000000E+00  0.00000000000E+00  0.11374284429E+04  0.11374284429E+04  0.00000000000E+00 0.  1.
         21   -1    0    0  503  502 -0.00000000000E+00 -0.00000000000E+00 -0.24205521970E+03  0.24205521970E+03  0.00000000000E+00 0.  1.
         25    1    1    2    0    0  0.62401260816E+02  0.21987935696E+03 -0.15593665355E+03  0.30361503403E+03  0.12500000000E+03 0.  0.
         21    1    1    2  503  501 -0.62401260816E+02 -0.21987935696E+03  0.10513098768E+04  0.10758686286E+04  0.00000000000E+00 0.  1.
<mgrwt>
<rscale>  3 0.26051075E+03</rscale>
<asrwt>0</asrwt>
<pdfrwt beam="1">  1       21 0.17498899E+00 0.26051075E+03</pdfrwt>
<pdfrwt beam="2">  1       21 0.37239265E-01 0.26051075E+03</pdfrwt>
<totfact> 0.12873965E+03</totfact>
</mgrwt>
</event>
<event>
 4    0  0.1030762E-001  0.2568573E+03  0.7546771E-02  0.1109046E+00
         21   -1    0    0  503  501  0.00000000000E+00  0.00000000000E+00  0.11340753956E+04  0.11340753956E+04  0.00000000000E+00 0.  1.
         21   -1    0    0  501  502 -0.00000000000E+00 -0.00000000000E+00 -0.16443588016E+03  0.16443588016E+03  0.00000000000E+00 0.  1.
         25    1    1    2    0    0 -0.13109272567E+03  0.18211361709E+03 -0.43767240999E+02  0.26055948196E+03  0.12500000000E+03 0.  0.
         21    1    1    2  503  502  0.13109272567E+03 -0.18211361709E+03  0.10134067564E+04  0.10379517938E+04  0.00000000000E+00 0.  1.
<mgrwt>
<rscale>  3 0.25685730E+03</rscale>
<asrwt>0</asrwt>
<pdfrwt beam="1">  1       21 0.17447313E+00 0.25685730E+03</pdfrwt>
<pdfrwt beam="2">  1       21 0.25297828E-01 0.25685730E+03</pdfrwt>
<totfact> 0.27865638E+03</totfact>
</mgrwt>
</event>
<event>
 4    0  0.1278504E-001  0.2490980E+03  0.7546771E-02  0.1113876E+00
         21   -1    0    0  502  501  0.00000000000E+00  0.00000000000E+00  0.12929830225E+03  0.12929830225E+03  0.00000000000E+00 0. -1.
         21   -1    0    0  503  502 -0.00000000000E+00 -0.00000000000E+00 -0.45161913717E+03  0.45161913717E+03  0.00000000000E+00 0. -1.
         25    1    1    2    0    0 -0.11000732633E+03  0.18526519843E+03 -0.92050870706E+02  0.26556198598E+03  0.12500000000E+03 0.  0.
         21    1    1    2  503  501  0.11000732633E+03 -0.18526519843E+03 -0.23026996422E+03  0.31535545345E+03  0.00000000000E+00 0. -1.
<mgrwt>
<rscale>  3 0.24909798E+03</rscale>
<asrwt>0</asrwt>
<pdfrwt beam="1">  1       21 0.19892047E-01 0.24909798E+03</pdfrwt>
<pdfrwt beam="2">  1       21 0.69479866E-01 0.24909798E+03</pdfrwt>
<totfact> 0.42775983E+04</totfact>
</mgrwt>
</event>
<event>
 4    0  0.1305264E-001  0.2571436E+03  0.7546771E-02  0.1108872E+00
         21   -1    0    0  502  501  0.00000000000E+00  0.00000000000E+00  0.19642869746E+03  0.19642869746E+03  0.00000000000E+00 0. -1.
         21   -1    0    0  503  502 -0.00000000000E+00 -0.00000000000E+00 -0.58464861094E+03  0.58464861094E+03  0.00000000000E+00 0. -1.
         25    1    1    2    0    0  0.18339493094E+03  0.12986197052E+03 -0.47503964584E+03  0.54017172936E+03  0.12500000000E+03 0.  0.
         21    1    1    2  503  501 -0.18339493094E+03 -0.12986197052E+03  0.86819732358E+02  0.24090557903E+03  0.00000000000E+00 0. -1.
<mgrwt>
<rscale>  3 0.25714360E+03</rscale>
<asrwt>0</asrwt>
<pdfrwt beam="1">  1       21 0.30219800E-01 0.25714360E+03</pdfrwt>
<pdfrwt beam="2">  1       21 0.89945939E-01 0.25714360E+03</pdfrwt>
<totfact> 0.10621934E+04</totfact>
</mgrwt>
</event>
<event>
 4    0  0.1005289E-001  0.2419756E+03  0.7546771E-02  0.1118484E+00
         21   -1    0    0  502  501  0.00000000000E+00  0.00000000000E+00  0.26072056508E+03  0.26072056508E+03  0.00000000000E+00 0.  1.
         21   -1    0    0  503  502 -0.00000000000E+00 -0.00000000000E+00 -0.26505531289E+03  0.26505531289E+03  0.00000000000E+00 0. -1.
         25    1    1    2    0    0 -0.20575907330E+03 -0.24297665710E+02 -0.13862684541E+03  0.27887196896E+03  0.12500000000E+03 0.  0.
         21    1    1    2  503  501  0.20575907330E+03  0.24297665710E+02  0.13429209760E+03  0.24690390900E+03  0.00000000000E+00 0.  1.
<mgrwt>
<rscale>  3 0.24197556E+03</rscale>
<asrwt>0</asrwt>
<pdfrwt beam="1">  1       21 0.40110856E-01 0.24197556E+03</pdfrwt>
<pdfrwt beam="2">  1       21 0.40777741E-01 0.24197556E+03</pdfrwt>
<totfact> 0.33865036E+04</totfact>
</mgrwt>
</event>
<event>
 4    0  0.1249894E-001  0.4204832E+03  0.7546771E-02  0.1036909E+00
         21   -1    0    0  502  501  0.00000000000E+00  0.00000000000E+00  0.12319822793E+03  0.12319822793E+03  0.00000000000E+00 0.  1.
         21   -1    0    0  503  502 -0.00000000000E+00 -0.00000000000E+00 -0.14666945734E+04  0.14666945734E+04  0.00000000000E+00 0.  1.
         25    1    1    2    0    0 -0.10317076837E+03 -0.38799086962E+03 -0.88928613827E+03  0.98368488759E+03  0.12500000000E+03 0.  0.
         21    1    1    2  503  501  0.10317076837E+03  0.38799086962E+03 -0.45421020720E+03  0.60620791373E+03  0.00000000000E+00 0.  1.
<mgrwt>
<rscale>  3 0.42048320E+03</rscale>
<asrwt>0</asrwt>
<pdfrwt beam="1">  1       21 0.18953575E-01 0.42048320E+03</pdfrwt>
<pdfrwt beam="2">  1       21 0.22564530E+00 0.42048320E+03</pdfrwt>
<totfact> 0.20158972E+03</totfact>
</mgrwt>
</event>
<event>
 4    0  0.1149747E-001  0.2461577E+03  0.7546771E-02  0.1115757E+00
         21   -1    0    0  502  501  0.00000000000E+00  0.00000000000E+00  0.14922146189E+04  0.14922146189E+04  0.00000000000E+00 0. -1.
         21   -1    0    0  503  502 -0.00000000000E+00 -0.00000000000E+00 -0.50008510904E+02  0.50008510904E+02  0.00000000000E+00 0. -1.
         25    1    1    2    0    0 -0.17817421031E+03 -0.11498933523E+03  0.33971640058E+03  0.41952452760E+03  0.12500000000E+03 0.  0.
         21    1    1    2  503  501  0.17817421031E+03  0.11498933523E+03  0.11024897075E+04  0.11226986023E+04  0.00000000000E+00 0. -1.
<mgrwt>
<rscale>  3 0.24615767E+03</rscale>
<asrwt>0</asrwt>
<pdfrwt beam="1">  1       21 0.22957145E+00 0.24615767E+03</pdfrwt>
<pdfrwt beam="2">  1       21 0.76936182E-02 0.24615767E+03</pdfrwt>
<totfact> 0.10820086E+04</totfact>
</mgrwt>
</event>
<event>
 4    0  0.1005289E-001  0.3435611E+03  0.7546771E-02  0.1065289E+00
         21   -1    0    0  502  501  0.00000000000E+00  0.00000000000E+00  0.11204357903E+04  0.11204357903E+04  0.00000000000E+00 0. -1.
         21   -1    0    0  503  502 -0.00000000000E+00 -0.00000000000E+00 -0.64098190254E+03  0.64098190254E+03  0.00000000000E+00 0. -1.
         25    1    1    2    0    0  0.23279645708E+03 -0.21957918470E+03 -0.56929583139E+03  0.66493003573E+03  0.12500000000E+03 0.  0.
         21    1    1    2  503  501 -0.23279645708E+03  0.21957918470E+03  0.10487497192E+04  0.10964876571E+04  0.00000000000E+00 0. -1.
<mgrwt>
<rscale>  3 0.34356107E+03</rscale>
<asrwt>0</asrwt>
<pdfrwt beam="1">  1       21 0.17237474E+00 0.34356107E+03</pdfrwt>
<pdfrwt beam="2">  1       21 0.98612601E-01 0.34356107E+03</pdfrwt>
<totfact> 0.15026893E+02</totfact>
</mgrwt>
</event>
<event>
 4    0  0.1005289E-001  0.3809734E+03  0.7546771E-02  0.1050575E+00
         21   -1    0    0  502  501  0.00000000000E+00  0.00000000000E+00  0.42336013980E+03  0.42336013980E+03  0.00000000000E+00 0. -1.
         21   -1    0    0  503  502 -0.00000000000E+00 -0.00000000000E+00 -0.33649526604E+03  0.33649526604E+03  0.00000000000E+00 0.  1.
         25    1    1    2    0    0  0.35298598203E+03 -0.70118699476E+02 -0.28225184792E+02  0.38201753439E+03  0.12500000000E+03 0.  0.
         21    1    1    2  503  501 -0.35298598203E+03  0.70118699476E+02  0.11509005856E+03  0.37783787145E+03  0.00000000000E+00 0. -1.
<mgrwt>
<rscale>  3 0.38097341E+03</rscale>
<asrwt>0</asrwt>
<pdfrwt beam="1">  1       21 0.65132329E-01 0.38097341E+03</pdfrwt>
<pdfrwt beam="2">  1       21 0.51768502E-01 0.38097341E+03</pdfrwt>
<totfact> 0.69710205E+03</totfact>
</mgrwt>
</event>
<event>
 4    0  0.1272314E-001  0.2657109E+03  0.7546771E-02  0.1103760E+00
         21   -1    0    0  502  501  0.00000000000E+00  0.00000000000E+00  0.59326240028E+02  0.59326240028E+02  0.00000000000E+00 0.  1.
         21   -1    0    0  503  502 -0.00000000000E+00 -0.00000000000E+00 -0.10552290173E+04  0.10552290173E+04  0.00000000000E+00 0.  1.
         25    1    1    2    0    0 -0.15981789760E+03  0.17156782848E+03 -0.51224659079E+03  0.57706052537E+03  0.12500000000E+03 0.  0.
         21    1    1    2  503  501  0.15981789760E+03 -0.17156782848E+03 -0.48365618652E+03  0.53749473200E+03  0.00000000000E+00 0.  1.
<mgrwt>
<rscale>  3 0.26571090E+03</rscale>
<asrwt>0</asrwt>
<pdfrwt beam="1">  1       21 0.91271142E-02 0.26571090E+03</pdfrwt>
<pdfrwt beam="2">  1       21 0.16234292E+00 0.26571090E+03</pdfrwt>
<totfact> 0.22078851E+04</totfact>
</mgrwt>
</event>
<event>
 4    0  0.1390284E-001  0.2964695E+03  0.7546771E-02  0.1087019E+00
         21   -1    0    0  503  501  0.00000000000E+00  0.00000000000E+00  0.43318006176E+03  0.43318006176E+03  0.00000000000E+00 0. -1.
         21   -1    0    0  501  502 -0.00000000000E+00 -0.00000000000E+00 -0.36047253269E+03  0.36047253269E+03  0.00000000000E+00 0. -1.
         25    1    1    2    0    0 -0.24131751450E+03  0.11846959162E+03 -0.23988331164E+03  0.38136359310E+03  0.12500000000E+03 0.  0.
         21    1    1    2  503  502  0.24131751450E+03 -0.11846959162E+03  0.31259084070E+03  0.41228900135E+03  0.00000000000E+00 0. -1.
<mgrwt>
<rscale>  3 0.29646954E+03</rscale>
<asrwt>0</asrwt>
<pdfrwt beam="1">  1       21 0.66643086E-01 0.29646954E+03</pdfrwt>
<pdfrwt beam="2">  1       21 0.55457313E-01 0.29646954E+03</pdfrwt>
<totfact> 0.59319554E+03</totfact>
</mgrwt>
</event>
<event>
 4    0  0.1178118E-001  0.3957283E+03  0.7546771E-02  0.1045269E+00
         21   -1    0    0  502  501  0.00000000000E+00  0.00000000000E+00  0.18469828546E+04  0.18469828546E+04  0.00000000000E+00 0. -1.
         21   -1    0    0  503  502 -0.00000000000E+00 -0.00000000000E+00 -0.82645026777E+02  0.82645026777E+02  0.00000000000E+00 0. -1.
         25    1    1    2    0    0 -0.31936778206E+03  0.19743373904E+03  0.74943137205E+03  0.84749527606E+03  0.12500000000E+03 0.  0.
         21    1    1    2  503  501  0.31936778206E+03 -0.19743373904E+03  0.10149064558E+04  0.10821326054E+04  0.00000000000E+00 0. -1.
<mgrwt>
<rscale>  3 0.39572827E+03</rscale>
<asrwt>0</asrwt>
<pdfrwt beam="1">  1       21 0.28415118E+00 0.39572827E+03</pdfrwt>
<pdfrwt beam="2">  1       21 0.12714621E-01 0.39572827E+03</pdfrwt>
<totfact> 0.18827804E+03</totfact>
</mgrwt>
</event>
<event>
 4    0  0.1229635E-001  0.2725211E+03  0.7546771E-02  0.1099845E+00
         21   -1    0    0  503  501  0.00000000000E+00  0.00000000000E+00  0.57775539205E+03  0.57775539205E+03  0.00000000000E+00 0. -1.
         21   -1    0    0  501  502 -0.00000000000E+00 -0.00000000000E+00 -0.56203800867E+03  0.56203800867E+03  0.00000000000E+00 0. -1.
         25    1    1    2    0    0 -0.22962460156E+03  0.76910947055E+02 -0.50033936243E+03  0.56974312547E+03  0.12500000000E+03 0.  0.
         21    1    1    2  503  502  0.22962460156E+03 -0.76910947055E+02  0.51605674582E+03  0.57005027526E+03  0.00000000000E+00 0. -1.
<mgrwt>
<rscale>  3 0.27252110E+03</rscale>
<asrwt>0</asrwt>
<pdfrwt beam="1">  1       21 0.88885446E-01 0.27252110E+03</pdfrwt>
<pdfrwt beam="2">  1       21 0.86467385E-01 0.27252110E+03</pdfrwt>
<totfact> 0.11653639E+03</totfact>
</mgrwt>
</event>
<event>
 4    0  0.1311246E-001  0.3994608E+03  0.7546771E-02  0.1043967E+00
         21   -1    0    0  503  501  0.00000000000E+00  0.00000000000E+00  0.18908560692E+03  0.18908560692E+03  0.00000000000E+00 0.  1.
         21   -1    0    0  501  502 -0.00000000000E+00 -0.00000000000E+00 -0.97824702349E+03  0.97824702349E+03  0.00000000000E+00 0.  1.
         25    1    1    2    0    0 -0.32183638875E+03 -0.20091112720E+03 -0.65055492251E+03  0.76340726311E+03  0.12500000000E+03 0.  0.
         21    1    1    2  503  502  0.32183638875E+03  0.20091112720E+03 -0.13860649406E+03  0.40392536731E+03  0.00000000000E+00 0.  1.
<mgrwt>
<rscale>  3 0.39946081E+03</rscale>
<asrwt>0</asrwt>
<pdfrwt beam="1">  1       21 0.29090094E-01 0.39946081E+03</pdfrwt>
<pdfrwt beam="2">  1       21 0.15049954E+00 0.39946081E+03</pdfrwt>
<totfact> 0.29495827E+03</totfact>
</mgrwt>
</event>
<event>
 4    0  0.1265782E-001  0.2791261E+03  0.7546771E-02  0.1096167E+00
         21   -1    0    0  503  501  0.00000000000E+00  0.00000000000E+00  0.15677652278E+03  0.15677652278E+03  0.00000000000E+00 0.  1.
         21   -1    0    0  501  502 -0.00000000000E+00 -0.00000000000E+00 -0.73400420345E+03  0.73400420345E+03  0.00000000000E+00 0. -1.
         25    1    1    2    0    0  0.24774787576E+03  0.30122597742E+02 -0.57726660915E+03  0.64120832721E+03  0.12500000000E+03 0.  0.
         21    1    1    2  503  502 -0.24774787576E+03 -0.30122597742E+02  0.38928479874E-01  0.24957239903E+03  0.00000000000E+00 0.  1.
<mgrwt>
<rscale>  3 0.27912610E+03</rscale>
<asrwt>0</asrwt>
<pdfrwt beam="1">  1       21 0.24119465E-01 0.27912610E+03</pdfrwt>
<pdfrwt beam="2">  1       21 0.11292372E+00 0.27912610E+03</pdfrwt>
<totfact> 0.94241142E+03</totfact>
</mgrwt>
</event>
<event>
 4    0  0.1648095E-001  0.2573380E+03  0.7546771E-02  0.1108753E+00
         21   -1    0    0  503  501  0.00000000000E+00  0.00000000000E+00  0.35876608982E+03  0.35876608982E+03  0.00000000000E+00 0. -1.
         21   -1    0    0  501  502 -0.00000000000E+00 -0.00000000000E+00 -0.20575327404E+03  0.20575327404E+03  0.00000000000E+00 0. -1.
         25    1    1    2    0    0 -0.21435139179E+03  0.68200555970E+02 -0.49259273957E+02  0.26201013543E+03  0.12500000000E+03 0.  0.
         21    1    1    2  503  502  0.21435139179E+03 -0.68200555970E+02  0.20227208974E+03  0.30250922843E+03  0.00000000000E+00 0. -1.
<mgrwt>
<rscale>  3 0.25733798E+03</rscale>
<asrwt>0</asrwt>
<pdfrwt beam="1">  1       21 0.55194783E-01 0.25733798E+03</pdfrwt>
<pdfrwt beam="2">  1       21 0.31654350E-01 0.25733798E+03</pdfrwt>
<totfact> 0.28762706E+04</totfact>
</mgrwt>
</event>
<event>
 4    0  0.1005289E-001  0.3314333E+03  0.7546771E-02  0.1070504E+00
         21   -1    0    0  502  501  0.00000000000E+00  0.00000000000E+00  0.12945835331E+03  0.12945835331E+03  0.00000000000E+00 0. -1.
         21   -1    0    0  503  502 -0.00000000000E+00 -0.00000000000E+00 -0.22132249912E+04  0.22132249912E+04  0.00000000000E+00 0.  1.
         25    1    1    2    0    0  0.17696472987E+03  0.25081173648E+03 -0.19961332569E+04  0.20234613963E+04  0.12500000000E+03 0.  0.
         21    1    1    2  503  501 -0.17696472987E+03 -0.25081173648E+03 -0.87633380937E+02  0.31922194822E+03  0.00000000000E+00 0. -1.
<mgrwt>
<rscale>  3 0.33143332E+03</rscale>
<asrwt>0</asrwt>
<pdfrwt beam="1">  1       21 0.19916670E-01 0.33143332E+03</pdfrwt>
<pdfrwt beam="2">  1       21 0.34049615E+00 0.33143332E+03</pdfrwt>
<totfact> 0.39440024E+02</totfact>
</mgrwt>
</event>
<event>
 4    0  0.1216595E-001  0.2420912E+03  0.7546771E-02  0.1118408E+00
         21   -1    0    0  503  501  0.00000000000E+00  0.00000000000E+00  0.15958276473E+03  0.15958276473E+03  0.00000000000E+00 0.  1.
         21   -1    0    0  501  502 -0.00000000000E+00 -0.00000000000E+00 -0.69954784659E+03  0.69954784659E+03  0.00000000000E+00 0.  1.
         25    1    1    2    0    0  0.19054564983E+03 -0.81703684067E+02 -0.59690477662E+03  0.64412999388E+03  0.12500000000E+03 0.  0.
         21    1    1    2  503  502 -0.19054564983E+03  0.81703684067E+02  0.56939694762E+02  0.21500061744E+03  0.00000000000E+00 0.  1.
<mgrwt>
<rscale>  3 0.24209117E+03</rscale>
<asrwt>0</asrwt>
<pdfrwt beam="1">  1       21 0.24551194E-01 0.24209117E+03</pdfrwt>
<pdfrwt beam="2">  1       21 0.10762275E+00 0.24209117E+03</pdfrwt>
<totfact> 0.10453779E+04</totfact>
</mgrwt>
</event>
<event>
 4    0  0.1005289E-001  0.2386318E+03  0.7546771E-02  0.1120708E+00
         21   -1    0    0  503  501  0.00000000000E+00  0.00000000000E+00  0.48741557358E+03  0.48741557358E+03  0.00000000000E+00 0.  1.
         21   -1    0    0  501  502 -0.00000000000E+00 -0.00000000000E+00 -0.88257161059E+03  0.88257161059E+03  0.00000000000E+00 0.  1.
         25    1    1    2    0    0  0.24096827068E+01  0.20325930003E+03 -0.84409196446E+03  0.87717523568E+03  0.12500000000E+03 0.  0.
         21    1    1    2  503  502 -0.24096827068E+01 -0.20325930003E+03  0.44893592745E+03  0.49281194849E+03  0.00000000000E+00 0.  1.
<mgrwt>
<rscale>  3 0.23863183E+03</rscale>
<asrwt>0</asrwt>
<pdfrwt beam="1">  1       21 0.74987011E-01 0.23863183E+03</pdfrwt>
<pdfrwt beam="2">  1       21 0.13578025E+00 0.23863183E+03</pdfrwt>
<totfact> 0.58780481E+02</totfact>
</mgrwt>
</event>
<event>
 4    0  0.1852737E-001  0.2393169E+03  0.7546771E-02  0.1120249E+00
         21   -1    0    0  502  501  0.00000000000E+00  0.00000000000E+00  0.90059696447E+03  0.90059696447E+03  0.00000000000E+00 0.  1.
         21   -1    0    0  503  502 -0.00000000000E+00 -0.00000000000E+00 -0.20481155272E+03  0.20481155272E+03  0.00000000000E+00 0. -1.
         25    1    1    2    0    0  0.19529513401E+02  0.20314079795E+03 -0.11771493480E+03  0.26670094030E+03  0.12500000000E+03 0.  0.
         21    1    1    2  503  501 -0.19529513401E+02 -0.20314079795E+03  0.81350034656E+03  0.83870757689E+03  0.00000000000E+00 0.  1.
<mgrwt>
<rscale>  3 0.23931691E+03</rscale>
<asrwt>0</asrwt>
<pdfrwt beam="1">  1       21 0.13855338E+00 0.23931691E+03</pdfrwt>
<pdfrwt beam="2">  1       21 0.31509470E-01 0.23931691E+03</pdfrwt>
<totfact> 0.34271442E+03</totfact>
</mgrwt>
</event>
<event>
 4    0  0.1703482E-001  0.2817114E+03  0.7546771E-02  0.1094758E+00
         21   -1    0    0  503  501  0.00000000000E+00  0.00000000000E+00  0.38855915950E+03  0.38855915950E+03  0.00000000000E+00 0. -1.
         21   -1    0    0  501  502 -0.00000000000E+00 -0.00000000000E+00 -0.22624229803E+03  0.22624229803E+03  0.00000000000E+00 0. -1.
         25    1    1    2    0    0  0.76267876325E+02 -0.24066476373E+03 -0.48547146207E+02  0.28586385373E+03  0.12500000000E+03 0.  0.
         21    1    1    2  503  502 -0.76267876325E+02  0.24066476373E+03  0.21086400768E+03  0.32893760380E+03  0.00000000000E+00 0. -1.
<mgrwt>
<rscale>  3 0.28171141E+03</rscale>
<asrwt>0</asrwt>
<pdfrwt beam="1">  1       21 0.59778332E-01 0.28171141E+03</pdfrwt>
<pdfrwt beam="2">  1       21 0.34806508E-01 0.28171141E+03</pdfrwt>
<totfact> 0.19853548E+04</totfact>
</mgrwt>
</event>
<event>
 4    0  0.1324055E-001  0.2617422E+03  0.7546771E-02  0.1106101E+00
         21   -1    0    0  503  501  0.00000000000E+00  0.00000000000E+00  0.41462657307E+02  0.41462657307E+02  0.00000000000E+00 0.  1.
         21   -1    0    0  501  502 -0.00000000000E+00 -0.00000000000E+00 -0.15104385146E+04  0.15104385146E+04  0.00000000000E+00 0.  1.
         25    1    1    2    0    0  0.70052724942E+02 -0.21903555250E+03 -0.92487178075E+03  0.96119548915E+03  0.12500000000E+03 0.  0.
         21    1    1    2  503  502 -0.70052724942E+02  0.21903555250E+03 -0.54410407652E+03  0.59070568273E+03  0.00000000000E+00 0.  1.
<mgrwt>
<rscale>  3 0.26174216E+03</rscale>
<asrwt>0</asrwt>
<pdfrwt beam="1">  1       21 0.63788699E-02 0.26174216E+03</pdfrwt>
<pdfrwt beam="2">  1       21 0.23237517E+00 0.26174216E+03</pdfrwt>
<totfact> 0.14252952E+04</totfact>
</mgrwt>
</event>
<event>
 4    0  0.1005289E-001  0.2866038E+03  0.7546771E-02  0.1092136E+00
         21   -1    0    0  503  501  0.00000000000E+00  0.00000000000E+00  0.57371222576E+03  0.57371222576E+03  0.00000000000E+00 0. -1.
         21   -1    0    0  501  502 -0.00000000000E+00 -0.00000000000E+00 -0.16845134977E+03  0.16845134977E+03  0.00000000000E+00 0.  1.
         25    1    1    2    0    0 -0.22419786291E+03 -0.12748346538E+03  0.31884073567E+02  0.28837182564E+03  0.12500000000E+03 0.  0.
         21    1    1    2  503  502  0.22419786291E+03  0.12748346538E+03  0.37337680243E+03  0.45379174989E+03  0.00000000000E+00 0. -1.
<mgrwt>
<rscale>  3 0.28660376E+03</rscale>
<asrwt>0</asrwt>
<pdfrwt beam="1">  1       21 0.88263418E-01 0.28660376E+03</pdfrwt>
<pdfrwt beam="2">  1       21 0.25915593E-01 0.28660376E+03</pdfrwt>
<totfact> 0.14760816E+04</totfact>
</mgrwt>
</event>
<event>
 4    0  0.1392655E-001  0.3059556E+03  0.7546771E-02  0.1082301E+00
         21   -1    0    0  503  501  0.00000000000E+00  0.00000000000E+00  0.67305682423E+03  0.67305682423E+03  0.00000000000E+00 0.  1.
         21   -1    0    0  501  502 -0.00000000000E+00 -0.00000000000E+00 -0.14893923226E+03  0.14893923226E+03  0.00000000000E+00 0.  1.
         25    1    1    2    0    0 -0.22958877446E+03 -0.15897437698E+03  0.11541777237E+03  0.32700171265E+03  0.12500000000E+03 0.  0.
         21    1    1    2  503  502  0.22958877446E+03  0.15897437698E+03  0.40869981960E+03  0.49499434384E+03  0.00000000000E+00 0.  1.
<mgrwt>
<rscale>  3 0.30595565E+03</rscale>
<asrwt>0</asrwt>
<pdfrwt beam="1">  1       21 0.10354720E+00 0.30595565E+03</pdfrwt>
<pdfrwt beam="2">  1       21 0.22913728E-01 0.30595565E+03</pdfrwt>
<totfact> 0.12688886E+04</totfact>
</mgrwt>
</event>
<event>
 4    0  0.1288671E-001  0.2516673E+03  0.7546771E-02  0.1112256E+00
         21   -1    0    0  503  501  0.00000000000E+00  0.00000000000E+00  0.61549627043E+02  0.61549627043E+02  0.00000000000E+00 0. -1.
         21   -1    0    0  501  502 -0.00000000000E+00 -0.00000000000E+00 -0.11708686004E+04  0.11708686004E+04  0.00000000000E+00 0. -1.
         25    1    1    2    0    0  0.21835221401E+03 -0.58083786058E+01 -0.88183911146E+03  0.91704778781E+03  0.12500000000E+03 0.  0.
         21    1    1    2  503  502 -0.21835221401E+03  0.58083786058E+01 -0.22747986188E+03  0.31537043962E+03  0.00000000000E+00 0. -1.
<mgrwt>
<rscale>  3 0.25166729E+03</rscale>
<asrwt>0</asrwt>
<pdfrwt beam="1">  1       21 0.94691739E-02 0.25166729E+03</pdfrwt>
<pdfrwt beam="2">  1       21 0.18013362E+00 0.25166729E+03</pdfrwt>
<totfact> 0.15587099E+04</totfact>
</mgrwt>
</event>
<event>
 4    0  0.1005289E-001  0.2718612E+03  0.7546771E-02  0.1100219E+00
         21   -1    0    0  502  501  0.00000000000E+00  0.00000000000E+00  0.32695053335E+02  0.32695053335E+02  0.00000000000E+00 0.  1.
         21   -1    0    0  503  502 -0.00000000000E+00 -0.00000000000E+00 -0.22605607322E+04  0.22605607322E+04  0.00000000000E+00 0. -1.
         25    1    1    2    0    0 -0.22300805670E+03 -0.92471157712E+02 -0.15505088344E+04  0.15741620482E+04  0.12500000000E+03 0.  0.
         21    1    1    2  503  501  0.22300805670E+03  0.92471157712E+02 -0.67735684442E+03  0.71909373732E+03  0.00000000000E+00 0.  1.
<mgrwt>
<rscale>  3 0.27186119E+03</rscale>
<asrwt>0</asrwt>
<pdfrwt beam="1">  1       21 0.50300078E-02 0.27186119E+03</pdfrwt>
<pdfrwt beam="2">  1       21 0.34777860E+00 0.27186119E+03</pdfrwt>
<totfact> 0.44075316E+03</totfact>
</mgrwt>
</event>
<event>
 4    0  0.1333969E-001  0.2582476E+03  0.7546771E-02  0.1108201E+00
         21   -1    0    0  502  501  0.00000000000E+00  0.00000000000E+00  0.84844484497E+03  0.84844484497E+03  0.00000000000E+00 0. -1.
         21   -1    0    0  503  502 -0.00000000000E+00 -0.00000000000E+00 -0.87268780189E+02  0.87268780189E+02  0.00000000000E+00 0. -1.
         25    1    1    2    0    0  0.35902358242E+02  0.22310944997E+03  0.18750848126E+03  0.31914140524E+03  0.12500000000E+03 0.  0.
         21    1    1    2  503  501 -0.35902358242E+02 -0.22310944997E+03  0.57366758351E+03  0.61657221991E+03  0.00000000000E+00 0. -1.
<mgrwt>
<rscale>  3 0.25824757E+03</rscale>
<asrwt>0</asrwt>
<pdfrwt beam="1">  1       21 0.13052997E+00 0.25824757E+03</pdfrwt>
<pdfrwt beam="2">  1       21 0.13425967E-01 0.25824757E+03</pdfrwt>
<totfact> 0.19753084E+04</totfact>
</mgrwt>
</event>
<event>
 4    0  0.1332254E-001  0.2534518E+03  0.7546771E-02  0.1111143E+00
         21   -1    0    0  503  501  0.00000000000E+00  0.00000000000E+00  0.35375127615E+03  0.35375127615E+03  0.00000000000E+00 0.  1.
         21   -1    0    0  501  502 -0.00000000000E+00 -0.00000000000E+00 -0.23061264409E+03  0.23061264409E+03  0.00000000000E+00 0.  1.
         25    1    1    2    0    0  0.12202901974E+03  0.18363483194E+03 -0.98328407442E+02  0.27185714791E+03  0.12500000000E+03 0.  0.
         21    1    1    2  503  502 -0.12202901974E+03 -0.18363483194E+03  0.22146703951E+03  0.31250677233E+03  0.00000000000E+00 0.  1.
<mgrwt>
<rscale>  3 0.25345184E+03</rscale>
<asrwt>0</asrwt>
<pdfrwt beam="1">  1       21 0.54423273E-01 0.25345184E+03</pdfrwt>
<pdfrwt beam="2">  1       21 0.35478868E-01 0.25345184E+03</pdfrwt>
<totfact> 0.23666088E+04</totfact>
</mgrwt>
</event>
<event>
 4    0  0.1441465E-001  0.3488027E+03  0.7546771E-02  0.1063108E+00
         21   -1    0    0  503  501  0.00000000000E+00  0.00000000000E+00  0.80096752989E+03  0.80096752989E+03  0.00000000000E+00 0. -1.
         21   -1    0    0  501  502 -0.00000000000E+00 -0.00000000000E+00 -0.14326730225E+03  0.14326730225E+03  0.00000000000E+00 0. -1.
         25    1    1    2    0    0  0.13786478238E+03  0.29501120916E+03  0.29521541789E+03  0.45696329690E+03  0.12500000000E+03 0.  0.
         21    1    1    2  503  502 -0.13786478238E+03 -0.29501120916E+03  0.36248480975E+03  0.48727153524E+03  0.00000000000E+00 0. -1.
<mgrwt>
<rscale>  3 0.34880268E+03</rscale>
<asrwt>0</asrwt>
<pdfrwt beam="1">  1       21 0.12322577E+00 0.34880268E+03</pdfrwt>
<pdfrwt beam="2">  1       21 0.22041124E-01 0.34880268E+03</pdfrwt>
<totfact> 0.87208555E+03</totfact>
</mgrwt>
</event>
<event>
 4    0  0.1512392E-001  0.3014075E+03  0.7546771E-02  0.1084539E+00
         21   -1    0    0  502  501  0.00000000000E+00  0.00000000000E+00  0.69697832030E+03  0.69697832030E+03  0.00000000000E+00 0. -1.
         21   -1    0    0  503  502 -0.00000000000E+00 -0.00000000000E+00 -0.12103327647E+03  0.12103327647E+03  0.00000000000E+00 0. -1.
         25    1    1    2    0    0  0.27408113912E+03 -0.10049135035E+02  0.24668592065E+03  0.38948735459E+03  0.12500000000E+03 0.  0.
         21    1    1    2  503  501 -0.27408113912E+03  0.10049135035E+02  0.32925912317E+03  0.42852424217E+03  0.00000000000E+00 0. -1.
<mgrwt>
<rscale>  3 0.30140746E+03</rscale>
<asrwt>0</asrwt>
<pdfrwt beam="1">  1       21 0.10722743E+00 0.30140746E+03</pdfrwt>
<pdfrwt beam="2">  1       21 0.18620504E-01 0.30140746E+03</pdfrwt>
<totfact> 0.17295957E+04</totfact>
</mgrwt>
</event>
<event>
 4    0  0.1005289E-001  0.2529032E+03  0.7546771E-02  0.1111484E+00
         21   -1    0    0  503  501  0.00000000000E+00  0.00000000000E+00  0.20503885731E+03  0.20503885731E+03  0.00000000000E+00 0.  1.
         21   -1    0    0  501  502 -0.00000000000E+00 -0.00000000000E+00 -0.35650726093E+03  0.35650726093E+03  0.00000000000E+00 0. -1.
         25    1    1    2    0    0 -0.21327539843E+03  0.53372751048E+02 -0.21581601901E+03  0.33247045010E+03  0.12500000000E+03 0.  0.
         21    1    1    2  503  502  0.21327539843E+03 -0.53372751048E+02  0.64347615387E+02  0.22907566814E+03  0.00000000000E+00 0.  1.
<mgrwt>
<rscale>  3 0.25290323E+03</rscale>
<asrwt>0</asrwt>
<pdfrwt beam="1">  1       21 0.31544440E-01 0.25290323E+03</pdfrwt>
<pdfrwt beam="2">  1       21 0.54847271E-01 0.25290323E+03</pdfrwt>
<totfact> 0.29410082E+04</totfact>
</mgrwt>
</event>
<event>
 4    0  0.1464293E-001  0.5187521E+03  0.7546771E-02  0.1008997E+00
         21   -1    0    0  502  501  0.00000000000E+00  0.00000000000E+00  0.87134457956E+03  0.87134457956E+03  0.00000000000E+00 0.  1.
         21   -1    0    0  503  502 -0.00000000000E+00 -0.00000000000E+00 -0.30011423653E+03  0.30011423653E+03  0.00000000000E+00 0.  1.
         25    1    1    2    0    0 -0.50251326969E+03 -0.30969775061E+02  0.30870427154E+03  0.60365722099E+03  0.12500000000E+03 0.  0.
         21    1    1    2  503  501  0.50251326969E+03  0.30969775061E+02  0.26252607149E+03  0.56780159510E+03  0.00000000000E+00 0.  1.
<mgrwt>
<rscale>  3 0.51875207E+03</rscale>
<asrwt>0</asrwt>
<pdfrwt beam="1">  1       21 0.13405301E+00 0.51875207E+03</pdfrwt>
<pdfrwt beam="2">  1       21 0.46171421E-01 0.51875207E+03</pdfrwt>
<totfact> 0.14968056E+03</totfact>
</mgrwt>
</event>
<event>
 4    0  0.1084226E-001  0.3342808E+03  0.7546771E-02  0.1069258E+00
         21   -1    0    0  503  501  0.00000000000E+00  0.00000000000E+00  0.38950879782E+03  0.38950879782E+03  0.00000000000E+00 0.  1.
         21   -1    0    0  501  502 -0.00000000000E+00 -0.00000000000E+00 -0.93820598043E+03  0.93820598043E+03  0.00000000000E+00 0.  1.
         25    1    1    2    0    0 -0.26113679746E+03 -0.16711133587E+03 -0.83890367546E+03  0.90305204848E+03  0.12500000000E+03 0.  0.
         21    1    1    2  503  502  0.26113679746E+03  0.16711133587E+03  0.29020649285E+03  0.42466272977E+03  0.00000000000E+00 0.  1.
<mgrwt>
<rscale>  3 0.33428076E+03</rscale>
<asrwt>0</asrwt>
<pdfrwt beam="1">  1       21 0.59924430E-01 0.33428076E+03</pdfrwt>
<pdfrwt beam="2">  1       21 0.14433938E+00 0.33428076E+03</pdfrwt>
<totfact> 0.76601835E+02</totfact>
</mgrwt>
</event>
<event>
 4    0  0.1562941E-001  0.2663677E+03  0.7546771E-02  0.1103377E+00
         21   -1    0    0  502  501  0.00000000000E+00  0.00000000000E+00  0.10416869088E+04  0.10416869088E+04  0.00000000000E+00 0. -1.
         21   -1    0    0  503  502 -0.00000000000E+00 -0.00000000000E+00 -0.64872879827E+02  0.64872879827E+02  0.00000000000E+00 0. -1.
         25    1    1    2    0    0  0.39235015530E+02 -0.23192099171E+03  0.37128921926E+03  0.45695450231E+03  0.12500000000E+03 0.  0.
         21    1    1    2  503  501 -0.39235015530E+02  0.23192099171E+03  0.60552480967E+03  0.64960528628E+03  0.00000000000E+00 0. -1.
<mgrwt>
<rscale>  3 0.26636766E+03</rscale>
<asrwt>0</asrwt>
<pdfrwt beam="1">  1       21 0.16025951E+00 0.26636766E+03</pdfrwt>
<pdfrwt beam="2">  1       21 0.99804438E-02 0.26636766E+03</pdfrwt>
<totfact> 0.19513577E+04</totfact>
</mgrwt>
</event>
<event>
 4    0  0.1870465E-001  0.2777377E+03  0.7546771E-02  0.1096931E+00
         21   -1    0    0  503  501  0.00000000000E+00  0.00000000000E+00  0.37286081043E+03  0.37286081043E+03  0.00000000000E+00 0.  1.
         21   -1    0    0  501  502 -0.00000000000E+00 -0.00000000000E+00 -0.20780643525E+03  0.20780643525E+03  0.00000000000E+00 0.  1.
         25    1    1    2    0    0 -0.23219801685E+03  0.87162524457E+02 -0.86453843162E+01  0.27787221410E+03  0.12500000000E+03 0.  0.
         21    1    1    2  503  502  0.23219801685E+03 -0.87162524457E+02  0.17369975950E+03  0.30279503158E+03  0.00000000000E+00 0.  1.
<mgrwt>
<rscale>  3 0.27773769E+03</rscale>
<asrwt>0</asrwt>
<pdfrwt beam="1">  1       21 0.57363201E-01 0.27773769E+03</pdfrwt>
<pdfrwt beam="2">  1       21 0.31970221E-01 0.27773769E+03</pdfrwt>
<totfact> 0.25747045E+04</totfact>
</mgrwt>
</event>
<event>
 4    0  0.1760923E-001  0.2576153E+03  0.7546771E-02  0.1108585E+00
         21   -1    0    0  503  501  0.00000000000E+00  0.00000000000E+00  0.29516791751E+03  0.29516791751E+03  0.00000000000E+00 0. -1.
         21   -1    0    0  501  502 -0.00000000000E+00 -0.00000000000E+00 -0.22274284376E+03  0.22274284376E+03  0.00000000000E+00 0. -1.
         25    1    1    2    0    0 -0.98524014623E+02 -0.20256764698E+03 -0.48662363959E+02  0.26217104861E+03  0.12500000000E+03 0.  0.
         21    1    1    2  503  502  0.98524014623E+02  0.20256764698E+03  0.12108743771E+03  0.25573971266E+03  0.00000000000E+00 0. -1.
<mgrwt>
<rscale>  3 0.25761528E+03</rscale>
<asrwt>0</asrwt>
<pdfrwt beam="1">  1       21 0.45410449E-01 0.25761528E+03</pdfrwt>
<pdfrwt beam="2">  1       21 0.34268130E-01 0.25761528E+03</pdfrwt>
<totfact> 0.37020655E+04</totfact>
</mgrwt>
</event>
<event>
 4    0  0.1011990E-001  0.2958000E+03  0.7546771E-02  0.1087359E+00
         21   -1    0    0  502  501  0.00000000000E+00  0.00000000000E+00  0.17243953562E+04  0.17243953562E+04  0.00000000000E+00 0.  1.
         21   -1    0    0  503  502 -0.00000000000E+00 -0.00000000000E+00 -0.47391462897E+02  0.47391462897E+02  0.00000000000E+00 0.  1.
         25    1    1    2    0    0  0.62048673024E+02  0.26081143981E+03  0.10246990831E+04  0.10665391956E+04  0.12500000000E+03 0.  0.
         21    1    1    2  503  501 -0.62048673024E+02 -0.26081143981E+03  0.65230481026E+03  0.70524762350E+03  0.00000000000E+00 0.  1.
<mgrwt>
<rscale>  3 0.29580001E+03</rscale>
<asrwt>0</asrwt>
<pdfrwt beam="1">  1       21 0.26529154E+00 0.29580001E+03</pdfrwt>
<pdfrwt beam="2">  1       21 0.72909956E-02 0.29580001E+03</pdfrwt>
<totfact> 0.70026680E+03</totfact>
</mgrwt>
</event>
<event>
 4    0  0.1063739E-001  0.2600316E+03  0.7546771E-02  0.1107124E+00
         21   -1    0    0  502  501  0.00000000000E+00  0.00000000000E+00  0.83925170618E+03  0.83925170618E+03  0.00000000000E+00 0.  1.
         21   -1    0    0  503  502 -0.00000000000E+00 -0.00000000000E+00 -0.68108626797E+03  0.68108626797E+03  0.00000000000E+00 0.  1.
         25    1    1    2    0    0  0.89902325174E+02 -0.20954473518E+03 -0.63969986949E+03  0.69053048242E+03  0.12500000000E+03 0.  0.
         21    1    1    2  503  501 -0.89902325174E+02  0.20954473518E+03  0.79786530770E+03  0.82980749174E+03  0.00000000000E+00 0.  1.
<mgrwt>
<rscale>  3 0.26003158E+03</rscale>
<asrwt>0</asrwt>
<pdfrwt beam="1">  1       21 0.12911565E+00 0.26003158E+03</pdfrwt>
<pdfrwt beam="2">  1       21 0.10478250E+00 0.26003158E+03</pdfrwt>
<totfact> 0.30106079E+02</totfact>
</mgrwt>
</event>
<event>
 4    0  0.1445857E-001  0.3262528E+03  0.7546771E-02  0.1072807E+00
         21   -1    0    0  503  501  0.00000000000E+00  0.00000000000E+00  0.13612873449E+03  0.13612873449E+03  0.00000000000E+00 0. -1.
         21   -1    0    0  501  502 -0.00000000000E+00 -0.00000000000E+00 -0.72877920903E+03  0.72877920903E+03  0.00000000000E+00 0. -1.
         25    1    1    2    0    0  0.30135630099E+03  0.52710443948E+00 -0.27081554577E+03  0.42400702567E+03  0.12500000000E+03 0.  0.
         21    1    1    2  503  502 -0.30135630099E+03 -0.52710443948E+00 -0.32183492877E+03  0.44090091785E+03  0.00000000000E+00 0. -1.
<mgrwt>
<rscale>  3 0.32625281E+03</rscale>
<asrwt>0</asrwt>
<pdfrwt beam="1">  1       21 0.20942883E-01 0.32625281E+03</pdfrwt>
<pdfrwt beam="2">  1       21 0.11211988E+00 0.32625281E+03</pdfrwt>
<totfact> 0.12289465E+04</totfact>
</mgrwt>
</event>
<event>
 4    0  0.1274749E-001  0.2450717E+03  0.7546771E-02  0.1116460E+00
         21   -1    0    0  503  501  0.00000000000E+00  0.00000000000E+00  0.75939142822E+03  0.75939142822E+03  0.00000000000E+00 0. -1.
         21   -1    0    0  501  502 -0.00000000000E+00 -0.00000000000E+00 -0.16262001210E+03  0.16262001210E+03  0.00000000000E+00 0.  1.
         25    1    1    2    0    0 -0.21056669712E+03  0.98390797723E+01 -0.42636114282E+02  0.24875284856E+03  0.12500000000E+03 0.  0.
         21    1    1    2  503  502  0.21056669712E+03 -0.98390797723E+01  0.63940753041E+03  0.67325859176E+03  0.00000000000E+00 0. -1.
<mgrwt>
<rscale>  3 0.24507171E+03</rscale>
<asrwt>0</asrwt>
<pdfrwt beam="1">  1       21 0.11682945E+00 0.24507171E+03</pdfrwt>
<pdfrwt beam="2">  1       21 0.25018464E-01 0.24507171E+03</pdfrwt>
<totfact> 0.82342202E+03</totfact>
</mgrwt>
</event>
<event>
 4    0  0.1384395E-001  0.2889391E+03  0.7546771E-02  0.1090904E+00
         21   -1    0    0  503  501  0.00000000000E+00  0.00000000000E+00  0.42445260907E+03  0.42445260907E+03  0.00000000000E+00 0.  1.
         21   -1    0    0  501  502 -0.00000000000E+00 -0.00000000000E+00 -0.29936960878E+03  0.29936960878E+03  0.00000000000E+00 0.  1.
         25    1    1    2    0    0  0.21562212611E+03  0.14617762515E+03 -0.16597186823E+03  0.33321533639E+03  0.12500000000E+03 0.  0.
         21    1    1    2  503  502 -0.21562212611E+03 -0.14617762515E+03  0.29105486852E+03  0.39060688147E+03  0.00000000000E+00 0.  1.
<mgrwt>
<rscale>  3 0.28893909E+03</rscale>
<asrwt>0</asrwt>
<pdfrwt beam="1">  1       21 0.65300402E-01 0.28893909E+03</pdfrwt>
<pdfrwt beam="2">  1       21 0.46056862E-01 0.28893909E+03</pdfrwt>
<totfact> 0.92151686E+03</totfact>
</mgrwt>
</event>
<event>
 4    0  0.1693207E-001  0.3966251E+03  0.7546771E-02  0.1044955E+00
         21   -1    0    0  502  501  0.00000000000E+00  0.00000000000E+00  0.50873919782E+03  0.50873919782E+03  0.00000000000E+00 0. -1.
         21   -1    0    0  503  502 -0.00000000000E+00 -0.00000000000E+00 -0.31026672653E+03  0.31026672653E+03  0.00000000000E+00 0. -1.
         25    1    1    2    0    0 -0.20869492387E+02 -0.37583368158E+03  0.69859696137E+01  0.39668664673E+03  0.12500000000E+03 0.  0.
         21    1    1    2  503  501  0.20869492387E+02  0.37583368158E+03  0.19148650167E+03  0.42231927762E+03  0.00000000000E+00 0. -1.
<mgrwt>
<rscale>  3 0.39662513E+03</rscale>
<asrwt>0</asrwt>
<pdfrwt beam="1">  1       21 0.78267569E-01 0.39662513E+03</pdfrwt>
<pdfrwt beam="2">  1       21 0.47733343E-01 0.39662513E+03</pdfrwt>
<totfact> 0.54409914E+03</totfact>
</mgrwt>
</event>
<event>
 4    0  0.1453282E-001  0.2639098E+03  0.7546771E-02  0.1104817E+00
         21   -1    0    0  502  501  0.00000000000E+00  0.00000000000E+00  0.64045255107E+03  0.64045255107E+03  0.00000000000E+00 0. -1.
         21   -1    0    0  503  502 -0.00000000000E+00 -0.00000000000E+00 -0.10478947906E+03  0.10478947906E+03  0.00000000000E+00 0. -1.
         25    1    1    2    0    0  0.16693344832E+03 -0.16172997693E+03  0.17670888635E+03  0.31760729230E+03  0.12500000000E+03 0.  0.
         21    1    1    2  503  501 -0.16693344832E+03  0.16172997693E+03  0.35895418566E+03  0.42763473784E+03  0.00000000000E+00 0. -1.
<mgrwt>
<rscale>  3 0.26390976E+03</rscale>
<asrwt>0</asrwt>
<pdfrwt beam="1">  1       21 0.98531159E-01 0.26390976E+03</pdfrwt>
<pdfrwt beam="2">  1       21 0.16121459E-01 0.26390976E+03</pdfrwt>
<totfact> 0.28190589E+04</totfact>
</mgrwt>
</event>
<event>
 4    0  0.1005289E-001  0.2504990E+03  0.7546771E-02  0.1112990E+00
         21   -1    0    0  502  501  0.00000000000E+00  0.00000000000E+00  0.14792547889E+04  0.14792547889E+04  0.00000000000E+00 0.  1.
         21   -1    0    0  503  502 -0.00000000000E+00 -0.00000000000E+00 -0.37042857215E+03  0.37042857215E+03  0.00000000000E+00 0.  1.
         25    1    1    2    0    0  0.21143026259E+03 -0.49213602343E+02 -0.31891545591E+03  0.40553273926E+03  0.12500000000E+03 0.  0.
         21    1    1    2  503  501 -0.21143026259E+03  0.49213602343E+02  0.14277416727E+04  0.14441506218E+04  0.00000000000E+00 0.  1.
<mgrwt>
<rscale>  3 0.25049897E+03</rscale>
<asrwt>0</asrwt>
<pdfrwt beam="1">  1       21 0.22757766E+00 0.25049897E+03</pdfrwt>
<pdfrwt beam="2">  1       21 0.56989012E-01 0.25049897E+03</pdfrwt>
<totfact> 0.24407292E+02</totfact>
</mgrwt>
</event>
<event>
 4    0  0.1005289E-001  0.3349262E+03  0.7546771E-02  0.1068978E+00
         21   -1    0    0  502  501  0.00000000000E+00  0.00000000000E+00  0.22942983377E+03  0.22942983377E+03  0.00000000000E+00 0. -1.
         21   -1    0    0  503  502 -0.00000000000E+00 -0.00000000000E+00 -0.49804156857E+03  0.49804156857E+03  0.00000000000E+00 0.  1.
         25    1    1    2    0    0  0.31042193085E+03 -0.13740709471E+02 -0.24669493330E+03  0.41597352364E+03  0.12500000000E+03 0.  0.
         21    1    1    2  503  501 -0.31042193085E+03  0.13740709471E+02 -0.21916801497E+02  0.31149787871E+03  0.00000000000E+00 0. -1.
<mgrwt>
<rscale>  3 0.33492623E+03</rscale>
<asrwt>0</asrwt>
<pdfrwt beam="1">  1       21 0.35296897E-01 0.33492623E+03</pdfrwt>
<pdfrwt beam="2">  1       21 0.76621780E-01 0.33492623E+03</pdfrwt>
<totfact> 0.10887209E+04</totfact>
</mgrwt>
</event>
<event>
 4    0  0.1109375E-001  0.2362988E+03  0.7546771E-02  0.1122283E+00
         21   -1    0    0  502  501  0.00000000000E+00  0.00000000000E+00  0.78841584280E+03  0.78841584280E+03  0.00000000000E+00 0. -1.
         21   -1    0    0  503  502 -0.00000000000E+00 -0.00000000000E+00 -0.61591585184E+02  0.61591585184E+02  0.00000000000E+00 0. -1.
         25    1    1    2    0    0 -0.19487489687E+03 -0.47285484937E+02  0.44885422941E+03  0.50725463209E+03  0.12500000000E+03 0.  0.
         21    1    1    2  503  501  0.19487489687E+03  0.47285484937E+02  0.27797002821E+03  0.34275279590E+03  0.00000000000E+00 0. -1.
<mgrwt>
<rscale>  3 0.23629884E+03</rscale>
<asrwt>0</asrwt>
<pdfrwt beam="1">  1       21 0.12129474E+00 0.23629884E+03</pdfrwt>
<pdfrwt beam="2">  1       21 0.94756291E-02 0.23629884E+03</pdfrwt>
<totfact> 0.44869157E+04</totfact>
</mgrwt>
</event>
<event>
 4    0  0.1468985E-001  0.2562289E+03  0.7546771E-02  0.1109430E+00
         21   -1    0    0  503  501  0.00000000000E+00  0.00000000000E+00  0.59840246483E+03  0.59840246483E+03  0.00000000000E+00 0. -1.
         21   -1    0    0  501  502 -0.00000000000E+00 -0.00000000000E+00 -0.24128915462E+03  0.24128915462E+03  0.00000000000E+00 0.  1.
         25    1    1    2    0    0  0.24328122655E+02  0.22234297537E+03 -0.14186165416E+03  0.29287878921E+03  0.12500000000E+03 0.  0.
         21    1    1    2  503  502 -0.24328122655E+02 -0.22234297537E+03  0.49897496437E+03  0.54681283024E+03  0.00000000000E+00 0. -1.
<mgrwt>
<rscale>  3 0.25622891E+03</rscale>
<asrwt>0</asrwt>
<pdfrwt beam="1">  1       21 0.92061917E-01 0.25622891E+03</pdfrwt>
<pdfrwt beam="2">  1       21 0.37121409E-01 0.25622891E+03</pdfrwt>
<totfact> 0.66864625E+03</totfact>
</mgrwt>
</event>
<event>
 4    0  0.1108518E-001  0.3536972E+03  0.7546771E-02  0.1061108E+00
         21   -1    0    0  502  501  0.00000000000E+00  0.00000000000E+00  0.18570409752E+03  0.18570409752E+03  0.00000000000E+00 0.  1.
         21   -1    0    0  503  502 -0.00000000000E+00 -0.00000000000E+00 -0.96782392335E+03  0.96782392335E+03  0.00000000000E+00 0.  1.
         25    1    1    2    0    0  0.19860952894E+03  0.26463369277E+03 -0.73974370555E+03  0.81995273415E+03  0.12500000000E+03 0.  0.
         21    1    1    2  503  501 -0.19860952894E+03 -0.26463369277E+03 -0.42376120280E+02  0.33357528671E+03  0.00000000000E+00 0.  1.
<mgrwt>
<rscale>  3 0.35369724E+03</rscale>
<asrwt>0</asrwt>
<pdfrwt beam="1">  1       21 0.28569861E-01 0.35369724E+03</pdfrwt>
<pdfrwt beam="2">  1       21 0.14889599E+00 0.35369724E+03</pdfrwt>
<totfact> 0.32124598E+03</totfact>
</mgrwt>
</event>
<event>
 4    0  0.1439935E-001  0.3021111E+03  0.7546771E-02  0.1084190E+00
         21   -1    0    0  502  501  0.00000000000E+00  0.00000000000E+00  0.24324965504E+03  0.24324965504E+03  0.00000000000E+00 0.  1.
         21   -1    0    0  503  502 -0.00000000000E+00 -0.00000000000E+00 -0.43755379845E+03  0.43755379845E+03  0.00000000000E+00 0.  1.
         25    1    1    2    0    0  0.14872791515E+03  0.23135708455E+03 -0.25936756492E+03  0.39817411649E+03  0.12500000000E+03 0.  0.
         21    1    1    2  503  501 -0.14872791515E+03 -0.23135708455E+03  0.65063421515E+02  0.28262933700E+03  0.00000000000E+00 0.  1.
<mgrwt>
<rscale>  3 0.30211106E+03</rscale>
<asrwt>0</asrwt>
<pdfrwt beam="1">  1       21 0.37423025E-01 0.30211106E+03</pdfrwt>
<pdfrwt beam="2">  1       21 0.67315968E-01 0.30211106E+03</pdfrwt>
<totfact> 0.13114652E+04</totfact>
</mgrwt>
</event>
<event>
 4    0  0.1580495E-001  0.2797104E+03  0.7546771E-02  0.1095847E+00
         21   -1    0    0  502  501  0.00000000000E+00  0.00000000000E+00  0.48897235263E+03  0.48897235263E+03  0.00000000000E+00 0.  1.
         21   -1    0    0  503  502 -0.00000000000E+00 -0.00000000000E+00 -0.19983078902E+03  0.19983078902E+03  0.00000000000E+00 0.  1.
         25    1    1    2    0    0 -0.15131747329E+03 -0.19928861449E+03 -0.32166666145E+02  0.28155394510E+03  0.12500000000E+03 0.  0.
         21    1    1    2  503  501  0.15131747329E+03  0.19928861449E+03  0.32130822975E+03  0.40724919655E+03  0.00000000000E+00 0.  1.
<mgrwt>
<rscale>  3 0.27971044E+03</rscale>
<asrwt>0</asrwt>
<pdfrwt beam="1">  1       21 0.75226515E-01 0.27971044E+03</pdfrwt>
<pdfrwt beam="2">  1       21 0.30743198E-01 0.27971044E+03</pdfrwt>
<totfact> 0.15299976E+04</totfact>
</mgrwt>
</event>
<event>
 4    0  0.1480544E-001  0.3328574E+03  0.7546771E-02  0.1069880E+00
         21   -1    0    0  503  501  0.00000000000E+00  0.00000000000E+00  0.31267069656E+03  0.31267069656E+03  0.00000000000E+00 0. -1.
         21   -1    0    0  501  502 -0.00000000000E+00 -0.00000000000E+00 -0.16030644745E+04  0.16030644745E+04  0.00000000000E+00 0.  1.
         25    1    1    2    0    0 -0.13314882492E+03  0.27828117637E+03 -0.15040734756E+04  0.15404645542E+04  0.12500000000E+03 0.  0.
         21    1    1    2  503  502  0.13314882492E+03 -0.27828117637E+03  0.21367969766E+03  0.37527061688E+03  0.00000000000E+00 0. -1.
<mgrwt>
<rscale>  3 0.33285736E+03</rscale>
<asrwt>0</asrwt>
<pdfrwt beam="1">  1       21 0.48103184E-01 0.33285736E+03</pdfrwt>
<pdfrwt beam="2">  1       21 0.24662530E+00 0.33285736E+03</pdfrwt>
<totfact> 0.24830652E+02</totfact>
</mgrwt>
</event>
<event>
 4    0  0.1178058E-001  0.2586544E+03  0.7546771E-02  0.1107954E+00
         21   -1    0    0  502  501  0.00000000000E+00  0.00000000000E+00  0.76310330735E+03  0.76310330735E+03  0.00000000000E+00 0.  1.
         21   -1    0    0  503  502 -0.00000000000E+00 -0.00000000000E+00 -0.12486968437E+03  0.12486968437E+03  0.00000000000E+00 0.  1.
         25    1    1    2    0    0  0.96566443394E+02  0.20482195339E+03  0.57943071387E+02  0.26506510540E+03  0.12500000000E+03 0.  0.
         21    1    1    2  503  501 -0.96566443394E+02 -0.20482195339E+03  0.58029055159E+03  0.62290788633E+03  0.00000000000E+00 0.  1.
<mgrwt>
<rscale>  3 0.25865442E+03</rscale>
<asrwt>0</asrwt>
<pdfrwt beam="1">  1       21 0.11740051E+00 0.25865442E+03</pdfrwt>
<pdfrwt beam="2">  1       21 0.19210721E-01 0.25865442E+03</pdfrwt>
<totfact> 0.13324027E+04</totfact>
</mgrwt>
</event>
<event>
 4    0  0.1930960E-001  0.2472868E+03  0.7546771E-02  0.1115032E+00
         21   -1    0    0  503  501  0.00000000000E+00  0.00000000000E+00  0.13069853251E+04  0.13069853251E+04  0.00000000000E+00 0.  1.
         21   -1    0    0  501  502 -0.00000000000E+00 -0.00000000000E+00 -0.35464366974E+03  0.35464366974E+03  0.00000000000E+00 0. -1.
         25    1    1    2    0    0  0.20532195102E+03  0.58039951703E+02 -0.30139918765E+03  0.38986178304E+03  0.12500000000E+03 0.  0.
         21    1    1    2  503  502 -0.20532195102E+03 -0.58039951703E+02  0.12537408430E+04  0.12717672118E+04  0.00000000000E+00 0.  1.
<mgrwt>
<rscale>  3 0.24728676E+03</rscale>
<asrwt>0</asrwt>
<pdfrwt beam="1">  1       21 0.20107466E+00 0.24728676E+03</pdfrwt>
<pdfrwt beam="2">  1       21 0.54560565E-01 0.24728676E+03</pdfrwt>
<totfact> 0.39453782E+02</totfact>
</mgrwt>
</event>
<event>
 4    0  0.1394615E-001  0.2553332E+03  0.7546771E-02  0.1109980E+00
         21   -1    0    0  502  501  0.00000000000E+00  0.00000000000E+00  0.14902698612E+03  0.14902698612E+03  0.00000000000E+00 0.  1.
         21   -1    0    0  503  502 -0.00000000000E+00 -0.00000000000E+00 -0.38370105458E+03  0.38370105458E+03  0.00000000000E+00 0.  1.
         25    1    1    2    0    0  0.13920253159E+03  0.17376050494E+03 -0.13440893582E+03  0.28854951032E+03  0.12500000000E+03 0.  0.
         21    1    1    2  503  501 -0.13920253159E+03 -0.17376050494E+03 -0.10026513264E+03  0.24417853038E+03  0.00000000000E+00 0.  1.
<mgrwt>
<rscale>  3 0.25533323E+03</rscale>
<asrwt>0</asrwt>
<pdfrwt beam="1">  1       21 0.22927229E-01 0.25533323E+03</pdfrwt>
<pdfrwt beam="2">  1       21 0.59030931E-01 0.25533323E+03</pdfrwt>
<totfact> 0.46579052E+04</totfact>
</mgrwt>
</event>
<event>
 4    0  0.1005289E-001  0.6997630E+03  0.7546771E-02  0.9717638E-01
         21   -1    0    0  503  501  0.00000000000E+00  0.00000000000E+00  0.55803387432E+03  0.55803387432E+03  0.00000000000E+00 0.  1.
         21   -1    0    0  501  502 -0.00000000000E+00 -0.00000000000E+00 -0.16333490144E+04  0.16333490144E+04  0.00000000000E+00 0.  1.
         25    1    1    2    0    0 -0.41394784913E+02  0.68726252552E+03 -0.12922136629E+04  0.14695184441E+04  0.12500000000E+03 0.  0.
         21    1    1    2  503  502  0.41394784913E+02 -0.68726252552E+03  0.21689852275E+03  0.72186444460E+03  0.00000000000E+00 0.  1.
<mgrwt>
<rscale>  3 0.69976304E+03</rscale>
<asrwt>0</asrwt>
<pdfrwt beam="1">  1       21 0.85851366E-01 0.69976304E+03</pdfrwt>
<pdfrwt beam="2">  1       21 0.25128446E+00 0.69976304E+03</pdfrwt>
<totfact> 0.52474533E+01</totfact>
</mgrwt>
</event>
<event>
 4    0  0.1088894E-001  0.2373665E+03  0.7546771E-02  0.1121560E+00
         21   -1    0    0  503  501  0.00000000000E+00  0.00000000000E+00  0.10426389759E+03  0.10426389759E+03  0.00000000000E+00 0. -1.
         21   -1    0    0  501  502 -0.00000000000E+00 -0.00000000000E+00 -0.52129849018E+03  0.52129849018E+03  0.00000000000E+00 0. -1.
         25    1    1    2    0    0  0.20043231152E+03  0.23340078608E+02 -0.11869348907E+03  0.26538842311E+03  0.12500000000E+03 0.  0.
         21    1    1    2  503  502 -0.20043231152E+03 -0.23340078608E+02 -0.29834110352E+03  0.36017396466E+03  0.00000000000E+00 0. -1.
<mgrwt>
<rscale>  3 0.23736653E+03</rscale>
<asrwt>0</asrwt>
<pdfrwt beam="1">  1       21 0.16040600E-01 0.23736653E+03</pdfrwt>
<pdfrwt beam="2">  1       21 0.80199768E-01 0.23736653E+03</pdfrwt>
<totfact> 0.46466149E+04</totfact>
</mgrwt>
</event>
<event>
 4    0  0.1832747E-001  0.2616335E+03  0.7546771E-02  0.1106166E+00
         21   -1    0    0  502  501  0.00000000000E+00  0.00000000000E+00  0.38490856952E+03  0.38490856952E+03  0.00000000000E+00 0. -1.
         21   -1    0    0  503  502 -0.00000000000E+00 -0.00000000000E+00 -0.16252701895E+03  0.16252701895E+03  0.00000000000E+00 0. -1.
         25    1    1    2    0    0  0.10797718192E+03 -0.20289909074E+03  0.67244763117E+02  0.27013694862E+03  0.12500000000E+03 0.  0.
         21    1    1    2  503  501 -0.10797718192E+03  0.20289909074E+03  0.15513678745E+03  0.27729863985E+03  0.00000000000E+00 0. -1.
<mgrwt>
<rscale>  3 0.26163355E+03</rscale>
<asrwt>0</asrwt>
<pdfrwt beam="1">  1       21 0.59216703E-01 0.26163355E+03</pdfrwt>
<pdfrwt beam="2">  1       21 0.25004157E-01 0.26163355E+03</pdfrwt>
<totfact> 0.39091068E+04</totfact>
</mgrwt>
</event>
<event>
 4    0  0.1005289E-001  0.2438730E+03  0.7546771E-02  0.1117239E+00
         21   -1    0    0  502  501  0.00000000000E+00  0.00000000000E+00  0.24428754092E+03  0.24428754092E+03  0.00000000000E+00 0. -1.
         21   -1    0    0  503  502 -0.00000000000E+00 -0.00000000000E+00 -0.21483743543E+03  0.21483743543E+03  0.00000000000E+00 0.  1.
         25    1    1    2    0    0  0.16909992531E+02 -0.20871776417E+03  0.49225977455E+02  0.24879157901E+03  0.12500000000E+03 0.  0.
         21    1    1    2  503  501 -0.16909992531E+02  0.20871776417E+03 -0.19775871967E+02  0.21033339735E+03  0.00000000000E+00 0. -1.
<mgrwt>
<rscale>  3 0.24387303E+03</rscale>
<asrwt>0</asrwt>
<pdfrwt beam="1">  1       21 0.37582699E-01 0.24387303E+03</pdfrwt>
<pdfrwt beam="2">  1       21 0.33051913E-01 0.24387303E+03</pdfrwt>
<totfact> 0.58862488E+04</totfact>
</mgrwt>
</event>
<event>
 4    0  0.1536855E-001  0.2695524E+03  0.7546771E-02  0.1101536E+00
         21   -1    0    0  503  501  0.00000000000E+00  0.00000000000E+00  0.15872701562E+03  0.15872701562E+03  0.00000000000E+00 0. -1.
         21   -1    0    0  501  502 -0.00000000000E+00 -0.00000000000E+00 -0.46656471121E+03  0.46656471121E+03  0.00000000000E+00 0. -1.
         25    1    1    2    0    0  0.20373399130E+03 -0.12460313415E+03 -0.27352242406E+03  0.38402213050E+03  0.12500000000E+03 0.  0.
         21    1    1    2  503  502 -0.20373399130E+03  0.12460313415E+03 -0.34315271525E+02  0.24126959632E+03  0.00000000000E+00 0. -1.
<mgrwt>
<rscale>  3 0.26955237E+03</rscale>
<asrwt>0</asrwt>
<pdfrwt beam="1">  1       21 0.24419541E-01 0.26955237E+03</pdfrwt>
<pdfrwt beam="2">  1       21 0.71779186E-01 0.26955237E+03</pdfrwt>
<totfact> 0.26724932E+04</totfact>
</mgrwt>
</event>
<event>
 4    0  0.1448008E-001  0.2802790E+03  0.7546771E-02  0.1095537E+00
         21   -1    0    0  503  501  0.00000000000E+00  0.00000000000E+00  0.13235734900E+03  0.13235734900E+03  0.00000000000E+00 0. -1.
         21   -1    0    0  501  502 -0.00000000000E+00 -0.00000000000E+00 -0.53316748124E+03  0.53316748124E+03  0.00000000000E+00 0. -1.
         25    1    1    2    0    0  0.25314590524E+02 -0.24958058900E+03 -0.20347138730E+03  0.34634795271E+03  0.12500000000E+03 0.  0.
         21    1    1    2  503  502 -0.25314590524E+02  0.24958058900E+03 -0.19733874494E+03  0.31917687753E+03  0.00000000000E+00 0. -1.
<mgrwt>
<rscale>  3 0.28027897E+03</rscale>
<asrwt>0</asrwt>
<pdfrwt beam="1">  1       21 0.20362670E-01 0.28027897E+03</pdfrwt>
<pdfrwt beam="2">  1       21 0.82025764E-01 0.28027897E+03</pdfrwt>
<totfact> 0.27794307E+04</totfact>
</mgrwt>
</event>
<event>
 4    0  0.1106377E-001  0.2571075E+03  0.7546771E-02  0.1108894E+00
         21   -1    0    0  503  501  0.00000000000E+00  0.00000000000E+00  0.13012382239E+03  0.13012382239E+03  0.00000000000E+00 0. -1.
         21   -1    0    0  501  502 -0.00000000000E+00 -0.00000000000E+00 -0.95736408920E+03  0.95736408920E+03  0.00000000000E+00 0. -1.
         25    1    1    2    0    0  0.77757758289E+02 -0.21079131661E+03 -0.82358302821E+03  0.86278227409E+03  0.12500000000E+03 0.  0.
         21    1    1    2  503  502 -0.77757758289E+02  0.21079131661E+03 -0.36572385997E+01  0.22470563751E+03  0.00000000000E+00 0. -1.
<mgrwt>
<rscale>  3 0.25710746E+03</rscale>
<asrwt>0</asrwt>
<pdfrwt beam="1">  1       21 0.20019049E-01 0.25710746E+03</pdfrwt>
<pdfrwt beam="2">  1       21 0.14728678E+00 0.25710746E+03</pdfrwt>
<totfact> 0.69030153E+03</totfact>
</mgrwt>
</event>
<event>
 4    0  0.1395162E-001  0.3810694E+03  0.7546771E-02  0.1050539E+00
         21   -1    0    0  503  501  0.00000000000E+00  0.00000000000E+00  0.19312937975E+03  0.19312937975E+03  0.00000000000E+00 0. -1.
         21   -1    0    0  501  502 -0.00000000000E+00 -0.00000000000E+00 -0.73451787143E+03  0.73451787143E+03  0.00000000000E+00 0. -1.
         25    1    1    2    0    0  0.59667565656E+02  0.35500513021E+03 -0.36133639049E+03  0.52514554931E+03  0.12500000000E+03 0.  0.
         21    1    1    2  503  502 -0.59667565656E+02 -0.35500513021E+03 -0.18005210119E+03  0.40250170188E+03  0.00000000000E+00 0. -1.
<mgrwt>
<rscale>  3 0.38106936E+03</rscale>
<asrwt>0</asrwt>
<pdfrwt beam="1">  1       21 0.29712213E-01 0.38106936E+03</pdfrwt>
<pdfrwt beam="2">  1       21 0.11300275E+00 0.38106936E+03</pdfrwt>
<totfact> 0.59888080E+03</totfact>
</mgrwt>
</event>
<event>
 4    0  0.1633199E-001  0.3641977E+03  0.7546771E-02  0.1056934E+00
         21   -1    0    0  503  501  0.00000000000E+00  0.00000000000E+00  0.41033211696E+03  0.41033211696E+03  0.00000000000E+00 0.  1.
         21   -1    0    0  501  502 -0.00000000000E+00 -0.00000000000E+00 -0.30608666135E+03  0.30608666135E+03  0.00000000000E+00 0.  1.
         25    1    1    2    0    0 -0.14985645713E+03  0.30750282099E+03  0.23569107609E+02  0.36495951213E+03  0.12500000000E+03 0.  0.
         21    1    1    2  503  502  0.14985645713E+03 -0.30750282099E+03  0.80676347998E+02  0.35145926618E+03  0.00000000000E+00 0.  1.
<mgrwt>
<rscale>  3 0.36419767E+03</rscale>
<asrwt>0</asrwt>
<pdfrwt beam="1">  1       21 0.63128018E-01 0.36419767E+03</pdfrwt>
<pdfrwt beam="2">  1       21 0.47090255E-01 0.36419767E+03</pdfrwt>
<totfact> 0.91822553E+03</totfact>
</mgrwt>
</event>
<event>
 4    0  0.1481078E-001  0.2552346E+03  0.7546771E-02  0.1110041E+00
         21   -1    0    0  502  501  0.00000000000E+00  0.00000000000E+00  0.12421367938E+03  0.12421367938E+03  0.00000000000E+00 0.  1.
         21   -1    0    0  503  502 -0.00000000000E+00 -0.00000000000E+00 -0.47499056474E+03  0.47499056474E+03  0.00000000000E+00 0.  1.
         25    1    1    2    0    0  0.17862324258E+03 -0.13271562674E+03 -0.24114190559E+03  0.35113262310E+03  0.12500000000E+03 0.  0.
         21    1    1    2  503  501 -0.17862324258E+03  0.13271562674E+03 -0.10963497976E+03  0.24807162102E+03  0.00000000000E+00 0.  1.
<mgrwt>
<rscale>  3 0.25523460E+03</rscale>
<asrwt>0</asrwt>
<pdfrwt beam="1">  1       21 0.19109797E-01 0.25523460E+03</pdfrwt>
<pdfrwt beam="2">  1       21 0.73075470E-01 0.25523460E+03</pdfrwt>
<totfact> 0.41111595E+04</totfact>
</mgrwt>
</event>
<event>
 4    0  0.1500256E-001  0.2760282E+03  0.7546771E-02  0.1097878E+00
         21   -1    0    0  502  501  0.00000000000E+00  0.00000000000E+00  0.12713587105E+03  0.12713587105E+03  0.00000000000E+00 0.  1.
         21   -1    0    0  503  502 -0.00000000000E+00 -0.00000000000E+00 -0.73324869113E+03  0.73324869113E+03  0.00000000000E+00 0.  1.
         25    1    1    2    0    0 -0.20657572334E+03  0.13376482789E+03 -0.53856401711E+03  0.60517993950E+03  0.12500000000E+03 0.  0.
         21    1    1    2  503  501  0.20657572334E+03 -0.13376482789E+03 -0.67548802974E+02  0.25520462268E+03  0.00000000000E+00 0.  1.
<mgrwt>
<rscale>  3 0.27602818E+03</rscale>
<asrwt>0</asrwt>
<pdfrwt beam="1">  1       21 0.19559365E-01 0.27602818E+03</pdfrwt>
<pdfrwt beam="2">  1       21 0.11280749E+00 0.27602818E+03</pdfrwt>
<totfact> 0.14087719E+04</totfact>
</mgrwt>
</event>
<event>
 4    0  0.1084232E-001  0.2892801E+03  0.7546771E-02  0.1090726E+00
         21   -1    0    0  503  501  0.00000000000E+00  0.00000000000E+00  0.38563184421E+03  0.38563184421E+03  0.00000000000E+00 0. -1.
         21   -1    0    0  501  502 -0.00000000000E+00 -0.00000000000E+00 -0.29556045245E+03  0.29556045245E+03  0.00000000000E+00 0.  1.
         25    1    1    2    0    0  0.10246749753E+03  0.23991333251E+03 -0.15070589377E+03  0.32618286525E+03  0.12500000000E+03 0.  0.
         21    1    1    2  503  502 -0.10246749753E+03 -0.23991333251E+03  0.24077728553E+03  0.35500943141E+03  0.00000000000E+00 0. -1.
<mgrwt>
<rscale>  3 0.28928013E+03</rscale>
<asrwt>0</asrwt>
<pdfrwt beam="1">  1       21 0.59327976E-01 0.28928013E+03</pdfrwt>
<pdfrwt beam="2">  1       21 0.45470839E-01 0.28928013E+03</pdfrwt>
<totfact> 0.11666099E+04</totfact>
</mgrwt>
</event>
<event>
 4    0  0.1005289E-001  0.2940210E+03  0.7546771E-02  0.1088268E+00
         21   -1    0    0  502  501  0.00000000000E+00  0.00000000000E+00  0.14000572330E+04  0.14000572330E+04  0.00000000000E+00 0. -1.
         21   -1    0    0  503  502 -0.00000000000E+00 -0.00000000000E+00 -0.23628214354E+03  0.23628214354E+03  0.00000000000E+00 0. -1.
         25    1    1    2    0    0  0.18742799051E+03 -0.18892881043E+03 -0.12564523908E+03  0.31974219794E+03  0.12500000000E+03 0.  0.
         21    1    1    2  503  501 -0.18742799051E+03  0.18892881043E+03  0.12894203286E+04  0.13165971786E+04  0.00000000000E+00 0. -1.
<mgrwt>
<rscale>  3 0.29402100E+03</rscale>
<asrwt>0</asrwt>
<pdfrwt beam="1">  1       21 0.21539342E+00 0.29402100E+03</pdfrwt>
<pdfrwt beam="2">  1       21 0.36351100E-01 0.29402100E+03</pdfrwt>
<totfact> 0.71050926E+02</totfact>
</mgrwt>
</event>
<event>
 4    0  0.1005289E-001  0.2379918E+03  0.7546771E-02  0.1121138E+00
         21   -1    0    0  503  501  0.00000000000E+00  0.00000000000E+00  0.21611964432E+04  0.21611964432E+04  0.00000000000E+00 0. -1.
         21   -1    0    0  501  502 -0.00000000000E+00 -0.00000000000E+00 -0.22448501956E+02  0.22448501956E+02  0.00000000000E+00 0. -1.
         25    1    1    2    0    0 -0.80430518527E+02  0.18586556314E+03  0.11634053898E+04  0.11874982850E+04  0.12500000000E+03 0.  0.
         21    1    1    2  503  502  0.80430518527E+02 -0.18586556314E+03  0.97534255147E+03  0.99614666017E+03  0.00000000000E+00 0. -1.
<mgrwt>
<rscale>  3 0.23799176E+03</rscale>
<asrwt>0</asrwt>
<pdfrwt beam="1">  1       21 0.33249160E+00 0.23799176E+03</pdfrwt>
<pdfrwt beam="2">  1       21 0.34536174E-02 0.23799176E+03</pdfrwt>
<totfact> 0.10579423E+04</totfact>
</mgrwt>
</event>
<event>
 4    0  0.1574315E-001  0.2533363E+03  0.7546771E-02  0.1111214E+00
         21   -1    0    0  503  501  0.00000000000E+00  0.00000000000E+00  0.59415664637E+03  0.59415664637E+03  0.00000000000E+00 0.  1.
         21   -1    0    0  501  502 -0.00000000000E+00 -0.00000000000E+00 -0.10195222142E+03  0.10195222142E+03  0.00000000000E+00 0.  1.
         25    1    1    2    0    0  0.53275101183E+02 -0.21381305989E+03  0.16752243538E+03  0.30371537225E+03  0.12500000000E+03 0.  0.
         21    1    1    2  503  502 -0.53275101183E+02  0.21381305989E+03  0.32468198956E+03  0.39239349553E+03  0.00000000000E+00 0.  1.
<mgrwt>
<rscale>  3 0.25333626E+03</rscale>
<asrwt>0</asrwt>
<pdfrwt beam="1">  1       21 0.91408713E-01 0.25333626E+03</pdfrwt>
<pdfrwt beam="2">  1       21 0.15684957E-01 0.25333626E+03</pdfrwt>
<totfact> 0.35563087E+04</totfact>
</mgrwt>
</event>
<event>
 4    0  0.1374902E-001  0.3524879E+03  0.7546771E-02  0.1061599E+00
         21   -1    0    0  502  501  0.00000000000E+00  0.00000000000E+00  0.19167989983E+03  0.19167989983E+03  0.00000000000E+00 0.  1.
         21   -1    0    0  503  502 -0.00000000000E+00 -0.00000000000E+00 -0.12790604770E+04  0.12790604770E+04  0.00000000000E+00 0. -1.
         25    1    1    2    0    0  0.24664263287E+03  0.21860957624E+03 -0.10853505595E+04  0.11411544910E+04  0.12500000000E+03 0.  0.
         21    1    1    2  503  501 -0.24664263287E+03 -0.21860957624E+03 -0.20300176124E+01  0.32958588584E+03  0.00000000000E+00 0.  1.
<mgrwt>
<rscale>  3 0.35248792E+03</rscale>
<asrwt>0</asrwt>
<pdfrwt beam="1">  1       21 0.29489216E-01 0.35248792E+03</pdfrwt>
<pdfrwt beam="2">  1       21 0.19677853E+00 0.35248792E+03</pdfrwt>
<totfact> 0.13686545E+03</totfact>
</mgrwt>
</event>
<event>
 4    0  0.1482961E-001  0.3476369E+03  0.7546771E-02  0.1063589E+00
         21   -1    0    0  503  501  0.00000000000E+00  0.00000000000E+00  0.57583700382E+03  0.57583700382E+03  0.00000000000E+00 0. -1.
         21   -1    0    0  501  502 -0.00000000000E+00 -0.00000000000E+00 -0.20239504308E+03  0.20239504308E+03  0.00000000000E+00 0. -1.
         25    1    1    2    0    0 -0.31078666087E+03 -0.92941209770E+02  0.12422582020E+03  0.36916591318E+03  0.12500000000E+03 0.  0.
         21    1    1    2  503  502  0.31078666087E+03  0.92941209770E+02  0.24921614054E+03  0.40906613372E+03  0.00000000000E+00 0. -1.
<mgrwt>
<rscale>  3 0.34763690E+03</rscale>
<asrwt>0</asrwt>
<pdfrwt beam="1">  1       21 0.88590307E-01 0.34763690E+03</pdfrwt>
<pdfrwt beam="2">  1       21 0.31137699E-01 0.34763690E+03</pdfrwt>
<totfact> 0.99547055E+03</totfact>
</mgrwt>
</event>
<event>
 4    0  0.1005289E-001  0.4251966E+03  0.7546771E-02  0.1035388E+00
         21   -1    0    0  503  501  0.00000000000E+00  0.00000000000E+00  0.17050461994E+03  0.17050461994E+03  0.00000000000E+00 0.  1.
         21   -1    0    0  501  502 -0.00000000000E+00 -0.00000000000E+00 -0.14531659590E+04  0.14531659590E+04  0.00000000000E+00 0.  1.
         25    1    1    2    0    0  0.22574417582E+03 -0.33794486227E+03 -0.10976606296E+04  0.11771367892E+04  0.12500000000E+03 0.  0.
         21    1    1    2  503  502 -0.22574417582E+03  0.33794486227E+03 -0.18500070950E+03  0.44653378973E+03  0.00000000000E+00 0.  1.
<mgrwt>
<rscale>  3 0.42519662E+03</rscale>
<asrwt>0</asrwt>
<pdfrwt beam="1">  1       21 0.26231479E-01 0.42519662E+03</pdfrwt>
<pdfrwt beam="2">  1       21 0.22356400E+00 0.42519662E+03</pdfrwt>
<totfact> 0.11103323E+03</totfact>
</mgrwt>
</event>
<event>
 4    0  0.1288398E-001  0.2409837E+03  0.7546771E-02  0.1119139E+00
         21   -1    0    0  503  501  0.00000000000E+00  0.00000000000E+00  0.48825242941E+03  0.48825242941E+03  0.00000000000E+00 0.  1.
         21   -1    0    0  501  502 -0.00000000000E+00 -0.00000000000E+00 -0.18791291676E+03  0.18791291676E+03  0.00000000000E+00 0.  1.
         25    1    1    2    0    0 -0.14155202651E+03 -0.14970357752E+03 -0.71236813875E+02  0.25129230188E+03  0.12500000000E+03 0.  0.
         21    1    1    2  503  502  0.14155202651E+03  0.14970357752E+03  0.37157632652E+03  0.42487304429E+03  0.00000000000E+00 0.  1.
<mgrwt>
<rscale>  3 0.24098369E+03</rscale>
<asrwt>0</asrwt>
<pdfrwt beam="1">  1       21 0.75115758E-01 0.24098369E+03</pdfrwt>
<pdfrwt beam="2">  1       21 0.28909680E-01 0.24098369E+03</pdfrwt>
<totfact> 0.17646922E+04</totfact>
</mgrwt>
</event>
<event>
 4    0  0.1510724E-001  0.2448570E+03  0.7546771E-02  0.1116599E+00
         21   -1    0    0  502  501  0.00000000000E+00  0.00000000000E+00  0.56618684475E+03  0.56618684475E+03  0.00000000000E+00 0. -1.
         21   -1    0    0  503  502 -0.00000000000E+00 -0.00000000000E+00 -0.94720707616E+02  0.94720707616E+02  0.00000000000E+00 0. -1.
         25    1    1    2    0    0  0.16619752022E+03 -0.12926072745E+03  0.19284096907E+03  0.31167706162E+03  0.12500000000E+03 0.  0.
         21    1    1    2  503  501 -0.16619752022E+03  0.12926072745E+03  0.27862516806E+03  0.34923049075E+03  0.00000000000E+00 0. -1.
<mgrwt>
<rscale>  3 0.24485700E+03</rscale>
<asrwt>0</asrwt>
<pdfrwt beam="1">  1       21 0.87105667E-01 0.24485700E+03</pdfrwt>
<pdfrwt beam="2">  1       21 0.14572417E-01 0.24485700E+03</pdfrwt>
<totfact> 0.45695980E+04</totfact>
</mgrwt>
</event>
<event>
 4    0  0.1067511E-001  0.2823623E+03  0.7546771E-02  0.1094406E+00
         21   -1    0    0  503  501  0.00000000000E+00  0.00000000000E+00  0.74568487868E+03  0.74568487868E+03  0.00000000000E+00 0.  1.
         21   -1    0    0  501  502 -0.00000000000E+00 -0.00000000000E+00 -0.25096363424E+03  0.25096363424E+03  0.00000000000E+00 0.  1.
         25    1    1    2    0    0  0.47532843802E+02 -0.24868469803E+03 -0.13863548012E+03  0.31456040218E+03  0.12500000000E+03 0.  0.
         21    1    1    2  503  502 -0.47532843802E+02  0.24868469803E+03  0.63335672455E+03  0.68208811074E+03  0.00000000000E+00 0.  1.
<mgrwt>
<rscale>  3 0.28236227E+03</rscale>
<asrwt>0</asrwt>
<pdfrwt beam="1">  1       21 0.11472075E+00 0.28236227E+03</pdfrwt>
<pdfrwt beam="2">  1       21 0.38609790E-01 0.28236227E+03</pdfrwt>
<totfact> 0.35793878E+03</totfact>
</mgrwt>
</event>
<event>
 4    0  0.1162557E-001  0.2754948E+03  0.7546771E-02  0.1098175E+00
         21   -1    0    0  503  501  0.00000000000E+00  0.00000000000E+00  0.17476051241E+03  0.17476051241E+03  0.00000000000E+00 0.  1.
         21   -1    0    0  501  502 -0.00000000000E+00 -0.00000000000E+00 -0.10427735312E+04  0.10427735312E+04  0.00000000000E+00 0.  1.
         25    1    1    2    0    0 -0.22176666054E+03  0.10531825746E+03 -0.92529400531E+03  0.96543585149E+03  0.12500000000E+03 0.  0.
         21    1    1    2  503  502  0.22176666054E+03 -0.10531825746E+03  0.57280986474E+02  0.25209819217E+03  0.00000000000E+00 0.  1.
<mgrwt>
<rscale>  3 0.27549480E+03</rscale>
<asrwt>0</asrwt>
<pdfrwt beam="1">  1       21 0.26886232E-01 0.27549480E+03</pdfrwt>
<pdfrwt beam="2">  1       21 0.16042670E+00 0.27549480E+03</pdfrwt>
<totfact> 0.30869037E+03</totfact>
</mgrwt>
</event>
<event>
 4    0  0.1255156E-001  0.2410004E+03  0.7546771E-02  0.1119128E+00
         21   -1    0    0  502  501  0.00000000000E+00  0.00000000000E+00  0.30281119104E+03  0.30281119104E+03  0.00000000000E+00 0.  1.
         21   -1    0    0  503  502 -0.00000000000E+00 -0.00000000000E+00 -0.41917509147E+03  0.41917509147E+03  0.00000000000E+00 0.  1.
         25    1    1    2    0    0  0.18896496961E+03  0.82148841475E+02 -0.34073955565E+03  0.41735432990E+03  0.12500000000E+03 0.  0.
         21    1    1    2  503  501 -0.18896496961E+03 -0.82148841475E+02  0.22437565523E+03  0.30463195261E+03  0.00000000000E+00 0.  1.
<mgrwt>
<rscale>  3 0.24100040E+03</rscale>
<asrwt>0</asrwt>
<pdfrwt beam="1">  1       21 0.46586337E-01 0.24100040E+03</pdfrwt>
<pdfrwt beam="2">  1       21 0.64488475E-01 0.24100040E+03</pdfrwt>
<totfact> 0.94843446E+03</totfact>
</mgrwt>
</event>
<event>
 4    0  0.1610073E-001  0.2436576E+03  0.7546771E-02  0.1117380E+00
         21   -1    0    0  503  501  0.00000000000E+00  0.00000000000E+00  0.25847183336E+03  0.25847183336E+03  0.00000000000E+00 0. -1.
         21   -1    0    0  501  502 -0.00000000000E+00 -0.00000000000E+00 -0.23945625747E+03  0.23945625747E+03  0.00000000000E+00 0. -1.
         25    1    1    2    0    0 -0.38732485278E+02  0.20553303766E+03 -0.92839489075E+02  0.26074548072E+03  0.12500000000E+03 0.  0.
         21    1    1    2  503  502  0.38732485278E+02 -0.20553303766E+03  0.11185506496E+03  0.23718261012E+03  0.00000000000E+00 0. -1.
<mgrwt>
<rscale>  3 0.24365762E+03</rscale>
<asrwt>0</asrwt>
<pdfrwt beam="1">  1       21 0.39764897E-01 0.24365762E+03</pdfrwt>
<pdfrwt beam="2">  1       21 0.36839424E-01 0.24365762E+03</pdfrwt>
<totfact> 0.42295945E+04</totfact>
</mgrwt>
</event>
<event>
 4    0  0.1138399E-001  0.2984840E+03  0.7546771E-02  0.1086001E+00
         21   -1    0    0  502  501  0.00000000000E+00  0.00000000000E+00  0.28296279923E+03  0.28296279923E+03  0.00000000000E+00 0. -1.
         21   -1    0    0  503  502 -0.00000000000E+00 -0.00000000000E+00 -0.33465745248E+03  0.33465745248E+03  0.00000000000E+00 0. -1.
         25    1    1    2    0    0  0.27038272399E+03  0.18997560214E+02  0.90015080458E+02  0.31176183127E+03  0.12500000000E+03 0.  0.
         21    1    1    2  503  501 -0.27038272399E+03 -0.18997560214E+02 -0.14170973370E+03  0.30585842044E+03  0.00000000000E+00 0. -1.
<mgrwt>
<rscale>  3 0.29848404E+03</rscale>
<asrwt>0</asrwt>
<pdfrwt beam="1">  1       21 0.43532739E-01 0.29848404E+03</pdfrwt>
<pdfrwt beam="2">  1       21 0.51485761E-01 0.29848404E+03</pdfrwt>
<totfact> 0.17224961E+04</totfact>
</mgrwt>
</event>
<event>
 4    0  0.1005289E-001  0.2457081E+03  0.7546771E-02  0.1116048E+00
         21   -1    0    0  503  501  0.00000000000E+00  0.00000000000E+00  0.14942925478E+03  0.14942925478E+03  0.00000000000E+00 0. -1.
         21   -1    0    0  501  502 -0.00000000000E+00 -0.00000000000E+00 -0.49211976142E+03  0.49211976142E+03  0.00000000000E+00 0. -1.
         25    1    1    2    0    0 -0.15238635583E+03  0.14671690797E+03 -0.82771627648E+01  0.24584744040E+03  0.12500000000E+03 0.  0.
         21    1    1    2  503  502  0.15238635583E+03 -0.14671690797E+03 -0.33441334388E+03  0.39570157580E+03  0.00000000000E+00 0. -1.
<mgrwt>
<rscale>  3 0.24570806E+03</rscale>
<asrwt>0</asrwt>
<pdfrwt beam="1">  1       21 0.22989116E-01 0.24570806E+03</pdfrwt>
<pdfrwt beam="2">  1       21 0.75710732E-01 0.24570806E+03</pdfrwt>
<totfact> 0.26896710E+04</totfact>
</mgrwt>
</event>
<event>
 4    0  0.1122005E-001  0.2668265E+03  0.7546771E-02  0.1103110E+00
         21   -1    0    0  503  501  0.00000000000E+00  0.00000000000E+00  0.30702887736E+03  0.30702887736E+03  0.00000000000E+00 0.  1.
         21   -1    0    0  501  502 -0.00000000000E+00 -0.00000000000E+00 -0.71049737952E+03  0.71049737952E+03  0.00000000000E+00 0.  1.
         25    1    1    2    0    0 -0.23165201088E+03  0.43688820011E+02 -0.63396559470E+03  0.68782900665E+03  0.12500000000E+03 0.  0.
         21    1    1    2  503  502  0.23165201088E+03 -0.43688820011E+02  0.23049709254E+03  0.32969725023E+03  0.00000000000E+00 0.  1.
<mgrwt>
<rscale>  3 0.26682647E+03</rscale>
<asrwt>0</asrwt>
<pdfrwt beam="1">  1       21 0.47235213E-01 0.26682647E+03</pdfrwt>
<pdfrwt beam="2">  1       21 0.10930729E+00 0.26682647E+03</pdfrwt>
<totfact> 0.26879398E+03</totfact>
</mgrwt>
</event>
<event>
 4    0  0.1005289E-001  0.3189296E+03  0.7546771E-02  0.1076143E+00
         21   -1    0    0  503  501  0.00000000000E+00  0.00000000000E+00  0.63578277370E+03  0.63578277370E+03  0.00000000000E+00 0. -1.
         21   -1    0    0  501  502 -0.00000000000E+00 -0.00000000000E+00 -0.76941818042E+03  0.76941818042E+03  0.00000000000E+00 0. -1.
         25    1    1    2    0    0 -0.24118436542E+03 -0.16709641856E+03 -0.69895103014E+03  0.76827641754E+03  0.12500000000E+03 0.  0.
         21    1    1    2  503  502  0.24118436542E+03  0.16709641856E+03  0.56531562342E+03  0.63692453658E+03  0.00000000000E+00 0. -1.
<mgrwt>
<rscale>  3 0.31892963E+03</rscale>
<asrwt>0</asrwt>
<pdfrwt beam="1">  1       21 0.97812735E-01 0.31892963E+03</pdfrwt>
<pdfrwt beam="2">  1       21 0.11837203E+00 0.31892963E+03</pdfrwt>
<totfact> 0.42293529E+02</totfact>
</mgrwt>
</event>
<event>
 4    0  0.1372401E-001  0.2495484E+03  0.7546771E-02  0.1113591E+00
         21   -1    0    0  503  501  0.00000000000E+00  0.00000000000E+00  0.76871934045E+03  0.76871934045E+03  0.00000000000E+00 0. -1.
         21   -1    0    0  501  502 -0.00000000000E+00 -0.00000000000E+00 -0.78720682196E+02  0.78720682196E+02  0.00000000000E+00 0. -1.
         25    1    1    2    0    0  0.18608306892E+03 -0.10964724274E+03  0.23050585308E+03  0.33971660937E+03  0.12500000000E+03 0.  0.
         21    1    1    2  503  502 -0.18608306892E+03  0.10964724274E+03  0.45949280518E+03  0.50772341328E+03  0.00000000000E+00 0. -1.
<mgrwt>
<rscale>  3 0.24954844E+03</rscale>
<asrwt>0</asrwt>
<pdfrwt beam="1">  1       21 0.11826451E+00 0.24954844E+03</pdfrwt>
<pdfrwt beam="2">  1       21 0.12110875E-01 0.24954844E+03</pdfrwt>
<totfact> 0.30658412E+04</totfact>
</mgrwt>
</event>
<event>
 4    0  0.1264669E-001  0.2629818E+03  0.7546771E-02  0.1105365E+00
         21   -1    0    0  502  501  0.00000000000E+00  0.00000000000E+00  0.15594487493E+04  0.15594487493E+04  0.00000000000E+00 0.  1.
         21   -1    0    0  503  502 -0.00000000000E+00 -0.00000000000E+00 -0.44991122681E+02  0.44991122681E+02  0.00000000000E+00 0.  1.
         25    1    1    2    0    0  0.15085007246E+03  0.17543858774E+03  0.51155922063E+03  0.57519759965E+03  0.12500000000E+03 0.  0.
         21    1    1    2  503  501 -0.15085007246E+03 -0.17543858774E+03  0.10028984060E+04  0.10292422724E+04  0.00000000000E+00 0.  1.
<mgrwt>
<rscale>  3 0.26298183E+03</rscale>
<asrwt>0</asrwt>
<pdfrwt beam="1">  1       21 0.23991515E+00 0.26298183E+03</pdfrwt>
<pdfrwt beam="2">  1       21 0.69217124E-02 0.26298183E+03</pdfrwt>
<totfact> 0.11122723E+04</totfact>
</mgrwt>
</event>
<event>
 4    0  0.1225630E-001  0.2653555E+03  0.7546771E-02  0.1103968E+00
         21   -1    0    0  503  501  0.00000000000E+00  0.00000000000E+00  0.11674227835E+03  0.11674227835E+03  0.00000000000E+00 0. -1.
         21   -1    0    0  501  502 -0.00000000000E+00 -0.00000000000E+00 -0.78660371555E+03  0.78660371555E+03  0.00000000000E+00 0. -1.
         25    1    1    2    0    0 -0.23302095586E+03 -0.22131340529E+02 -0.60472383141E+03  0.66038206697E+03  0.12500000000E+03 0.  0.
         21    1    1    2  503  502  0.23302095586E+03  0.22131340529E+02 -0.65137605792E+02  0.24296392693E+03  0.00000000000E+00 0. -1.
<mgrwt>
<rscale>  3 0.26535554E+03</rscale>
<asrwt>0</asrwt>
<pdfrwt beam="1">  1       21 0.17960349E-01 0.26535554E+03</pdfrwt>
<pdfrwt beam="2">  1       21 0.12101596E+00 0.26535554E+03</pdfrwt>
<totfact> 0.13958549E+04</totfact>
</mgrwt>
</event>
<event>
 4    0  0.1594155E-001  0.2628638E+03  0.7546771E-02  0.1105435E+00
         21   -1    0    0  502  501  0.00000000000E+00  0.00000000000E+00  0.23628396684E+03  0.23628396684E+03  0.00000000000E+00 0. -1.
         21   -1    0    0  503  502 -0.00000000000E+00 -0.00000000000E+00 -0.28284790466E+03  0.28284790466E+03  0.00000000000E+00 0. -1.
         25    1    1    2    0    0  0.20516037682E+03  0.10668464177E+03 -0.10094932642E+03  0.28158153262E+03  0.12500000000E+03 0.  0.
         21    1    1    2  503  501 -0.20516037682E+03 -0.10668464177E+03  0.54385388606E+02  0.23755033888E+03  0.00000000000E+00 0. -1.
<mgrwt>
<rscale>  3 0.26286383E+03</rscale>
<asrwt>0</asrwt>
<pdfrwt beam="1">  1       21 0.36351379E-01 0.26286383E+03</pdfrwt>
<pdfrwt beam="2">  1       21 0.43515062E-01 0.26286383E+03</pdfrwt>
<totfact> 0.35847857E+04</totfact>
</mgrwt>
</event>
<event>
 4    0  0.1081222E-001  0.4714504E+03  0.7546771E-02  0.1021512E+00
         21   -1    0    0  503  501  0.00000000000E+00  0.00000000000E+00  0.11840736048E+04  0.11840736048E+04  0.00000000000E+00 0.  1.
         21   -1    0    0  501  502 -0.00000000000E+00 -0.00000000000E+00 -0.25738586235E+03  0.25738586235E+03  0.00000000000E+00 0.  1.
         25    1    1    2    0    0  0.33521438821E+03 -0.30703705029E+03  0.76835604445E+02  0.47767054172E+03  0.12500000000E+03 0.  0.
         21    1    1    2  503  502 -0.33521438821E+03  0.30703705029E+03  0.84985213805E+03  0.96378892547E+03  0.00000000000E+00 0.  1.
<mgrwt>
<rscale>  3 0.47145035E+03</rscale>
<asrwt>0</asrwt>
<pdfrwt beam="1">  1       21 0.18216517E+00 0.47145035E+03</pdfrwt>
<pdfrwt beam="2">  1       21 0.39597826E-01 0.47145035E+03</pdfrwt>
<totfact> 0.89652297E+02</totfact>
</mgrwt>
</event>
<event>
 4    0  0.1005289E-001  0.2472422E+03  0.7546771E-02  0.1115060E+00
         21   -1    0    0  502  501  0.00000000000E+00  0.00000000000E+00  0.89921721392E+03  0.89921721392E+03  0.00000000000E+00 0.  1.
         21   -1    0    0  503  502 -0.00000000000E+00 -0.00000000000E+00 -0.72465172494E+02  0.72465172494E+02  0.00000000000E+00 0. -1.
         25    1    1    2    0    0  0.18939438398E+03  0.98150258954E+02  0.22897239245E+03  0.33698228814E+03  0.12500000000E+03 0.  0.
         21    1    1    2  503  501 -0.18939438398E+03 -0.98150258954E+02  0.59777964897E+03  0.63470009827E+03  0.00000000000E+00 0.  1.
<mgrwt>
<rscale>  3 0.24724220E+03</rscale>
<asrwt>0</asrwt>
<pdfrwt beam="1">  1       21 0.13834110E+00 0.24724220E+03</pdfrwt>
<pdfrwt beam="2">  1       21 0.11148489E-01 0.24724220E+03</pdfrwt>
<totfact> 0.23920506E+04</totfact>
</mgrwt>
</event>
<event>
 4    0  0.1005289E-001  0.2425882E+03  0.7546771E-02  0.1118081E+00
         21   -1    0    0  503  501  0.00000000000E+00  0.00000000000E+00  0.21580949097E+04  0.21580949097E+04  0.00000000000E+00 0.  1.
         21   -1    0    0  501  502 -0.00000000000E+00 -0.00000000000E+00 -0.39958766909E+02  0.39958766909E+02  0.00000000000E+00 0. -1.
         25    1    1    2    0    0 -0.17127103804E+03 -0.11785697704E+03  0.40313247887E+03  0.47049424122E+03  0.12500000000E+03 0.  0.
         21    1    1    2  503  502  0.17127103804E+03  0.11785697704E+03  0.17150036639E+04  0.17275594354E+04  0.00000000000E+00 0.  1.
<mgrwt>
<rscale>  3 0.24258820E+03</rscale>
<asrwt>0</asrwt>
<pdfrwt beam="1">  1       21 0.33201451E+00 0.24258820E+03</pdfrwt>
<pdfrwt beam="2">  1       21 0.61475043E-02 0.24258820E+03</pdfrwt>
<totfact> 0.39851557E+03</totfact>
</mgrwt>
</event>
<event>
 4    0  0.1525666E-001  0.2506548E+03  0.7546771E-02  0.1112892E+00
         21   -1    0    0  503  501  0.00000000000E+00  0.00000000000E+00  0.13559469402E+03  0.13559469402E+03  0.00000000000E+00 0.  1.
         21   -1    0    0  501  502 -0.00000000000E+00 -0.00000000000E+00 -0.44884780016E+03  0.44884780016E+03  0.00000000000E+00 0.  1.
         25    1    1    2    0    0  0.19872835498E+03 -0.87805809206E+02 -0.25916846197E+03  0.36054973427E+03  0.12500000000E+03 0.  0.
         21    1    1    2  503  502 -0.19872835498E+03  0.87805809206E+02 -0.54084644167E+02  0.22389275990E+03  0.00000000000E+00 0.  1.
<mgrwt>
<rscale>  3 0.25065478E+03</rscale>
<asrwt>0</asrwt>
<pdfrwt beam="1">  1       21 0.20860722E-01 0.25065478E+03</pdfrwt>
<pdfrwt beam="2">  1       21 0.69053508E-01 0.25065478E+03</pdfrwt>
<totfact> 0.39624688E+04</totfact>
</mgrwt>
</event>
<event>
 4    0  0.1592742E-001  0.2699261E+03  0.7546771E-02  0.1101322E+00
         21   -1    0    0  502  501  0.00000000000E+00  0.00000000000E+00  0.29263417993E+03  0.29263417993E+03  0.00000000000E+00 0.  1.
         21   -1    0    0  503  502 -0.00000000000E+00 -0.00000000000E+00 -0.23226715239E+03  0.23226715239E+03  0.00000000000E+00 0.  1.
         25    1    1    2    0    0  0.15178311347E+03  0.18492427257E+03 -0.24547502571E+02  0.27103999705E+03  0.12500000000E+03 0.  0.
         21    1    1    2  503  501 -0.15178311347E+03 -0.18492427257E+03  0.84914530109E+02  0.25386133527E+03  0.00000000000E+00 0.  1.
<mgrwt>
<rscale>  3 0.26992610E+03</rscale>
<asrwt>0</asrwt>
<pdfrwt beam="1">  1       21 0.45020643E-01 0.26992610E+03</pdfrwt>
<pdfrwt beam="2">  1       21 0.35733408E-01 0.26992610E+03</pdfrwt>
<totfact> 0.34488758E+04</totfact>
</mgrwt>
</event>
<event>
 4    0  0.1101428E-001  0.4473616E+03  0.7546771E-02  0.1028512E+00
         21   -1    0    0  503  501  0.00000000000E+00  0.00000000000E+00  0.38739163290E+03  0.38739163290E+03  0.00000000000E+00 0. -1.
         21   -1    0    0  501  502 -0.00000000000E+00 -0.00000000000E+00 -0.99428148599E+03  0.99428148599E+03  0.00000000000E+00 0.  1.
         25    1    1    2    0    0  0.31940367714E+03 -0.28720836971E+03 -0.79540787999E+03  0.91258207968E+03  0.12500000000E+03 0.  0.
         21    1    1    2  503  502 -0.31940367714E+03  0.28720836971E+03  0.18851802690E+03  0.46909103921E+03  0.00000000000E+00 0. -1.
<mgrwt>
<rscale>  3 0.44736155E+03</rscale>
<asrwt>0</asrwt>
<pdfrwt beam="1">  1       21 0.59598713E-01 0.44736155E+03</pdfrwt>
<pdfrwt beam="2">  1       21 0.15296638E+00 0.44736155E+03</pdfrwt>
<totfact> 0.62474456E+02</totfact>
</mgrwt>
</event>
<event>
 4    0  0.1532955E-001  0.2580973E+03  0.7546771E-02  0.1108292E+00
         21   -1    0    0  503  501  0.00000000000E+00  0.00000000000E+00  0.52317994731E+02  0.52317994731E+02  0.00000000000E+00 0.  1.
         21   -1    0    0  501  502 -0.00000000000E+00 -0.00000000000E+00 -0.12143748135E+04  0.12143748135E+04  0.00000000000E+00 0.  1.
         25    1    1    2    0    0 -0.52478389646E+02 -0.21962520897E+03 -0.79392985415E+03  0.83482862140E+03  0.12500000000E+03 0.  0.
         21    1    1    2  503  502  0.52478389646E+02  0.21962520897E+03 -0.36812696464E+03  0.43186418685E+03  0.00000000000E+00 0.  1.
<mgrwt>
<rscale>  3 0.25809730E+03</rscale>
<asrwt>0</asrwt>
<pdfrwt beam="1">  1       21 0.80489227E-02 0.25809730E+03</pdfrwt>
<pdfrwt beam="2">  1       21 0.18682688E+00 0.25809730E+03</pdfrwt>
<totfact> 0.18615542E+04</totfact>
</mgrwt>
</event>
<event>
 4    0  0.1005289E-001  0.2786552E+03  0.7546771E-02  0.1096426E+00
         21   -1    0    0  503  501  0.00000000000E+00  0.00000000000E+00  0.34761197885E+03  0.34761197885E+03  0.00000000000E+00 0. -1.
         21   -1    0    0  501  502 -0.00000000000E+00 -0.00000000000E+00 -0.15756012941E+04  0.15756012941E+04  0.00000000000E+00 0. -1.
         25    1    1    2    0    0 -0.17005463139E+03 -0.18194821016E+03 -0.15166101881E+04  0.15419971438E+04  0.12500000000E+03 0.  0.
         21    1    1    2  503  502  0.17005463139E+03  0.18194821016E+03  0.28862087288E+03  0.38121612912E+03  0.00000000000E+00 0. -1.
<mgrwt>
<rscale>  3 0.27865521E+03</rscale>
<asrwt>0</asrwt>
<pdfrwt beam="1">  1       21 0.53478766E-01 0.27865521E+03</pdfrwt>
<pdfrwt beam="2">  1       21 0.24240020E+00 0.27865521E+03</pdfrwt>
<totfact> 0.22067554E+02</totfact>
</mgrwt>
</event>
<event>
 4    0  0.1005289E-001  0.2613352E+03  0.7546771E-02  0.1106344E+00
         21   -1    0    0  502  501  0.00000000000E+00  0.00000000000E+00  0.29081967718E+03  0.29081967718E+03  0.00000000000E+00 0.  1.
         21   -1    0    0  503  502 -0.00000000000E+00 -0.00000000000E+00 -0.25113273157E+03  0.25113273157E+03  0.00000000000E+00 0. -1.
         25    1    1    2    0    0 -0.75368086321E+02 -0.21677345252E+03 -0.92358084086E+02  0.27717520425E+03  0.12500000000E+03 0.  0.
         21    1    1    2  503  501  0.75368086321E+02  0.21677345252E+03  0.13204502970E+03  0.26477720450E+03  0.00000000000E+00 0.  1.
<mgrwt>
<rscale>  3 0.26133518E+03</rscale>
<asrwt>0</asrwt>
<pdfrwt beam="1">  1       21 0.44741489E-01 0.26133518E+03</pdfrwt>
<pdfrwt beam="2">  1       21 0.38635805E-01 0.26133518E+03</pdfrwt>
<totfact> 0.29953424E+04</totfact>
</mgrwt>
</event>
<event>
 4    0  0.1545341E-001  0.2703002E+03  0.7546771E-02  0.1101108E+00
         21   -1    0    0  503  501  0.00000000000E+00  0.00000000000E+00  0.18116479013E+03  0.18116479013E+03  0.00000000000E+00 0. -1.
         21   -1    0    0  501  502 -0.00000000000E+00 -0.00000000000E+00 -0.36104690628E+03  0.36104690628E+03  0.00000000000E+00 0. -1.
         25    1    1    2    0    0  0.18557523346E+03 -0.15165423125E+03 -0.11631595946E+03  0.29426446533E+03  0.12500000000E+03 0.  0.
         21    1    1    2  503  502 -0.18557523346E+03  0.15165423125E+03 -0.63566156692E+02  0.24794723109E+03  0.00000000000E+00 0. -1.
<mgrwt>
<rscale>  3 0.27030015E+03</rscale>
<asrwt>0</asrwt>
<pdfrwt beam="1">  1       21 0.27871506E-01 0.27030015E+03</pdfrwt>
<pdfrwt beam="2">  1       21 0.55545678E-01 0.27030015E+03</pdfrwt>
<totfact> 0.36228075E+04</totfact>
</mgrwt>
</event>
<event>
 4    0  0.1624507E-001  0.2463320E+03  0.7546771E-02  0.1115645E+00
         21   -1    0    0  503  501  0.00000000000E+00  0.00000000000E+00  0.14330505590E+03  0.14330505590E+03  0.00000000000E+00 0. -1.
         21   -1    0    0  501  502 -0.00000000000E+00 -0.00000000000E+00 -0.38027307314E+03  0.38027307314E+03  0.00000000000E+00 0. -1.
         25    1    1    2    0    0 -0.20874742748E+03  0.38457633763E+02 -0.17596294548E+03  0.30272501755E+03  0.12500000000E+03 0.  0.
         21    1    1    2  503  502  0.20874742748E+03 -0.38457633763E+02 -0.61005071763E+02  0.22085311149E+03  0.00000000000E+00 0. -1.
<mgrwt>
<rscale>  3 0.24633205E+03</rscale>
<asrwt>0</asrwt>
<pdfrwt beam="1">  1       21 0.22046932E-01 0.24633205E+03</pdfrwt>
<pdfrwt beam="2">  1       21 0.58503549E-01 0.24633205E+03</pdfrwt>
<totfact> 0.51339811E+04</totfact>
</mgrwt>
</event>
<event>
 4    0  0.1117248E-001  0.2468570E+03  0.7546771E-02  0.1115307E+00
         21   -1    0    0  502  501  0.00000000000E+00  0.00000000000E+00  0.15261983742E+04  0.15261983742E+04  0.00000000000E+00 0.  1.
         21   -1    0    0  503  502 -0.00000000000E+00 -0.00000000000E+00 -0.66399845451E+02  0.66399845451E+02  0.00000000000E+00 0.  1.
         25    1    1    2    0    0 -0.10577538927E+02 -0.21260643829E+03  0.20792554800E+03  0.32275596887E+03  0.12500000000E+03 0.  0.
         21    1    1    2  503  501  0.10577538927E+02  0.21260643829E+03  0.12518729808E+04  0.12698422508E+04  0.00000000000E+00 0.  1.
<mgrwt>
<rscale>  3 0.24685701E+03</rscale>
<asrwt>0</asrwt>
<pdfrwt beam="1">  1       21 0.23479972E+00 0.24685701E+03</pdfrwt>
<pdfrwt beam="2">  1       21 0.10215362E-01 0.24685701E+03</pdfrwt>
<totfact> 0.60976447E+03</totfact>
</mgrwt>
</event>
<event>
 4    0  0.1348916E-001  0.2705130E+03  0.7546771E-02  0.1100986E+00
         21   -1    0    0  502  501  0.00000000000E+00  0.00000000000E+00  0.19544651938E+03  0.19544651938E+03  0.00000000000E+00 0.  1.
         21   -1    0    0  503  502 -0.00000000000E+00 -0.00000000000E+00 -0.66640234302E+03  0.66640234302E+03  0.00000000000E+00 0.  1.
         25    1    1    2    0    0  0.23741928738E+03 -0.34414674099E+02 -0.54695809381E+03  0.61019705358E+03  0.12500000000E+03 0.  0.
         21    1    1    2  503  501 -0.23741928738E+03  0.34414674099E+02  0.76002270175E+02  0.25165180882E+03  0.00000000000E+00 0.  1.
<mgrwt>
<rscale>  3 0.27051301E+03</rscale>
<asrwt>0</asrwt>
<pdfrwt beam="1">  1       21 0.30068696E-01 0.27051301E+03</pdfrwt>
<pdfrwt beam="2">  1       21 0.10252344E+00 0.27051301E+03</pdfrwt>
<totfact> 0.78093223E+03</totfact>
</mgrwt>
</event>
<event>
 4    0  0.1005289E-001  0.2476267E+03  0.7546771E-02  0.1114814E+00
         21   -1    0    0  503  501  0.00000000000E+00  0.00000000000E+00  0.16597429724E+03  0.16597429724E+03  0.00000000000E+00 0.  1.
         21   -1    0    0  501  502 -0.00000000000E+00 -0.00000000000E+00 -0.16816266638E+04  0.16816266638E+04  0.00000000000E+00 0.  1.
         25    1    1    2    0    0  0.62723248505E+02  0.20435211120E+03 -0.15990773317E+04  0.16181369855E+04  0.12500000000E+03 0.  0.
         21    1    1    2  503  502 -0.62723248505E+02 -0.20435211120E+03  0.83424965115E+02  0.22946397552E+03  0.00000000000E+00 0.  1.
<mgrwt>
<rscale>  3 0.24762672E+03</rscale>
<asrwt>0</asrwt>
<pdfrwt beam="1">  1       21 0.25534507E-01 0.24762672E+03</pdfrwt>
<pdfrwt beam="2">  1       21 0.25871180E+00 0.24762672E+03</pdfrwt>
<totfact> 0.80792757E+02</totfact>
</mgrwt>
</event>
<event>
 4    0  0.1416929E-001  0.3560635E+03  0.7546771E-02  0.1060153E+00
         21   -1    0    0  503  501  0.00000000000E+00  0.00000000000E+00  0.12658777202E+03  0.12658777202E+03  0.00000000000E+00 0.  1.
         21   -1    0    0  501  502 -0.00000000000E+00 -0.00000000000E+00 -0.95205115807E+03  0.95205115807E+03  0.00000000000E+00 0.  1.
         25    1    1    2    0    0 -0.33055922502E+03  0.43437763754E+02 -0.48970740020E+03  0.60547054295E+03  0.12500000000E+03 0.  0.
         21    1    1    2  503  502  0.33055922502E+03 -0.43437763754E+02 -0.33575598585E+03  0.47316838715E+03  0.00000000000E+00 0.  1.
<mgrwt>
<rscale>  3 0.35606353E+03</rscale>
<asrwt>0</asrwt>
<pdfrwt beam="1">  1       21 0.19475042E-01 0.35606353E+03</pdfrwt>
<pdfrwt beam="2">  1       21 0.14646941E+00 0.35606353E+03</pdfrwt>
<totfact> 0.70140580E+03</totfact>
</mgrwt>
</event>
<event>
 4    0  0.1038053E-001  0.2505541E+03  0.7546771E-02  0.1112955E+00
         21   -1    0    0  503  501  0.00000000000E+00  0.00000000000E+00  0.15164003842E+03  0.15164003842E+03  0.00000000000E+00 0. -1.
         21   -1    0    0  501  502 -0.00000000000E+00 -0.00000000000E+00 -0.54697858085E+03  0.54697858085E+03  0.00000000000E+00 0.  1.
         25    1    1    2    0    0 -0.20807151441E+03 -0.62117834565E+02 -0.41052193265E+03  0.48094244735E+03  0.12500000000E+03 0.  0.
         21    1    1    2  503  502  0.20807151441E+03  0.62117834565E+02  0.15183390226E+02  0.21767617191E+03  0.00000000000E+00 0. -1.
<mgrwt>
<rscale>  3 0.25055415E+03</rscale>
<asrwt>0</asrwt>
<pdfrwt beam="1">  1       21 0.23329237E-01 0.25055415E+03</pdfrwt>
<pdfrwt beam="2">  1       21 0.84150548E-01 0.25055415E+03</pdfrwt>
<totfact> 0.20517616E+04</totfact>
</mgrwt>
</event>
<event>
 4    0  0.1281733E-001  0.2409696E+03  0.7546771E-02  0.1119149E+00
         21   -1    0    0  503  501  0.00000000000E+00  0.00000000000E+00  0.14306882630E+03  0.14306882630E+03  0.00000000000E+00 0.  1.
         21   -1    0    0  501  502 -0.00000000000E+00 -0.00000000000E+00 -0.37597311331E+03  0.37597311331E+03  0.00000000000E+00 0.  1.
         25    1    1    2    0    0 -0.41968596932E+02 -0.20169275754E+03 -0.55750359260E+02  0.24733466019E+03  0.12500000000E+03 0.  0.
         21    1    1    2  503  502  0.41968596932E+02  0.20169275754E+03 -0.17715392775E+03  0.27170727942E+03  0.00000000000E+00 0.  1.
<mgrwt>
<rscale>  3 0.24096957E+03</rscale>
<asrwt>0</asrwt>
<pdfrwt beam="1">  1       21 0.22010589E-01 0.24096957E+03</pdfrwt>
<pdfrwt beam="2">  1       21 0.57842016E-01 0.24096957E+03</pdfrwt>
<totfact> 0.52888553E+04</totfact>
</mgrwt>
</event>
<event>
 4    0  0.1005289E-001  0.5747964E+03  0.7546771E-02  0.9959121E-01
         21   -1    0    0  502  501  0.00000000000E+00  0.00000000000E+00  0.19897124435E+04  0.19897124435E+04  0.00000000000E+00 0.  1.
         21   -1    0    0  503  502 -0.00000000000E+00 -0.00000000000E+00 -0.19212649540E+03  0.19212649540E+03  0.00000000000E+00 0.  1.
         25    1    1    2    0    0  0.32316159410E+03  0.45862025106E+03  0.47672725989E+03  0.74676624918E+03  0.12500000000E+03 0.  0.
         21    1    1    2  503  501 -0.32316159410E+03 -0.45862025106E+03  0.13208586882E+04  0.14350726897E+04  0.00000000000E+00 0.  1.
<mgrwt>
<rscale>  3 0.57479644E+03</rscale>
<asrwt>0</asrwt>
<pdfrwt beam="1">  1       21 0.30610959E+00 0.57479644E+03</pdfrwt>
<pdfrwt beam="2">  1       21 0.29557924E-01 0.57479644E+03</pdfrwt>
<totfact> 0.25427721E+02</totfact>
</mgrwt>
</event>
<event>
 4    0  0.1589500E-001  0.2638735E+03  0.7546771E-02  0.1104838E+00
         21   -1    0    0  503  501  0.00000000000E+00  0.00000000000E+00  0.44607896778E+03  0.44607896778E+03  0.00000000000E+00 0. -1.
         21   -1    0    0  501  502 -0.00000000000E+00 -0.00000000000E+00 -0.22139666887E+03  0.22139666887E+03  0.00000000000E+00 0. -1.
         25    1    1    2    0    0 -0.12289122208E+03  0.19723582427E+03 -0.87761116947E+02  0.27808494473E+03  0.12500000000E+03 0.  0.
         21    1    1    2  503  502  0.12289122208E+03 -0.19723582427E+03  0.31244341586E+03  0.38939069192E+03  0.00000000000E+00 0. -1.
<mgrwt>
<rscale>  3 0.26387350E+03</rscale>
<asrwt>0</asrwt>
<pdfrwt beam="1">  1       21 0.68627533E-01 0.26387350E+03</pdfrwt>
<pdfrwt beam="2">  1       21 0.34061026E-01 0.26387350E+03</pdfrwt>
<totfact> 0.15445810E+04</totfact>
</mgrwt>
</event>
<event>
 4    0  0.1100554E-001  0.2948617E+03  0.7546771E-02  0.1087838E+00
         21   -1    0    0  502  501  0.00000000000E+00  0.00000000000E+00  0.17862247796E+03  0.17862247796E+03  0.00000000000E+00 0.  1.
         21   -1    0    0  503  502 -0.00000000000E+00 -0.00000000000E+00 -0.57943054809E+03  0.57943054809E+03  0.00000000000E+00 0.  1.
         25    1    1    2    0    0 -0.22595613608E+03 -0.14234550360E+03 -0.23498319844E+02  0.29579653287E+03  0.12500000000E+03 0.  0.
         21    1    1    2  503  501  0.22595613608E+03  0.14234550360E+03 -0.37730975028E+03  0.46225649318E+03  0.00000000000E+00 0.  1.
<mgrwt>
<rscale>  3 0.29486169E+03</rscale>
<asrwt>0</asrwt>
<pdfrwt beam="1">  1       21 0.27480381E-01 0.29486169E+03</pdfrwt>
<pdfrwt beam="2">  1       21 0.89143161E-01 0.29486169E+03</pdfrwt>
<totfact> 0.12824218E+04</totfact>
</mgrwt>
</event>
<event>
 4    0  0.1289042E-001  0.3100214E+03  0.7546771E-02  0.1080336E+00
         21   -1    0    0  503  501  0.00000000000E+00  0.00000000000E+00  0.75242246862E+02  0.75242246862E+02  0.00000000000E+00 0.  1.
         21   -1    0    0  501  502 -0.00000000000E+00 -0.00000000000E+00 -0.13139014320E+04  0.13139014320E+04  0.00000000000E+00 0.  1.
         25    1    1    2    0    0  0.25918289463E+03  0.11537973546E+03 -0.87246110159E+03  0.92590584295E+03  0.12500000000E+03 0.  0.
         21    1    1    2  503  502 -0.25918289463E+03 -0.11537973546E+03 -0.36619808356E+03  0.46323783592E+03  0.00000000000E+00 0.  1.
<mgrwt>
<rscale>  3 0.31002138E+03</rscale>
<asrwt>0</asrwt>
<pdfrwt beam="1">  1       21 0.11575731E-01 0.31002138E+03</pdfrwt>
<pdfrwt beam="2">  1       21 0.20213867E+00 0.31002138E+03</pdfrwt>
<totfact> 0.75005614E+03</totfact>
</mgrwt>
</event>
<event>
 4    0  0.1214875E-001  0.2533105E+03  0.7546771E-02  0.1111230E+00
         21   -1    0    0  503  501  0.00000000000E+00  0.00000000000E+00  0.10885064136E+04  0.10885064136E+04  0.00000000000E+00 0.  1.
         21   -1    0    0  501  502 -0.00000000000E+00 -0.00000000000E+00 -0.99184032282E+02  0.99184032282E+02  0.00000000000E+00 0. -1.
         25    1    1    2    0    0 -0.14362241622E+03 -0.16707425036E+03  0.10141625084E+03  0.27285794749E+03  0.12500000000E+03 0.  0.
         21    1    1    2  503  502  0.14362241622E+03  0.16707425036E+03  0.88790613046E+03  0.91483249838E+03  0.00000000000E+00 0.  1.
<mgrwt>
<rscale>  3 0.25331049E+03</rscale>
<asrwt>0</asrwt>
<pdfrwt beam="1">  1       21 0.16746252E+00 0.25331049E+03</pdfrwt>
<pdfrwt beam="2">  1       21 0.15259083E-01 0.25331049E+03</pdfrwt>
<totfact> 0.80924529E+03</totfact>
</mgrwt>
</event>
<event>
 4    0  0.1150936E-001  0.2482507E+03  0.7546771E-02  0.1114415E+00
         21   -1    0    0  503  501  0.00000000000E+00  0.00000000000E+00  0.13777364521E+03  0.13777364521E+03  0.00000000000E+00 0. -1.
         21   -1    0    0  501  502 -0.00000000000E+00 -0.00000000000E+00 -0.25563512633E+04  0.25563512633E+04  0.00000000000E+00 0.  1.
         25    1    1    2    0    0 -0.21423256603E+03 -0.10382861416E+02 -0.24626739830E+04  0.24751548522E+04  0.12500000000E+03 0.  0.
         21    1    1    2  503  502  0.21423256603E+03  0.10382861416E+02  0.44096364861E+02  0.21897005629E+03  0.00000000000E+00 0. -1.
<mgrwt>
<rscale>  3 0.24825067E+03</rscale>
<asrwt>0</asrwt>
<pdfrwt beam="1">  1       21 0.21195945E-01 0.24825067E+03</pdfrwt>
<pdfrwt beam="2">  1       21 0.39328481E+00 0.24825067E+03</pdfrwt>
<totfact> 0.18236724E+02</totfact>
</mgrwt>
</event>
<event>
 4    0  0.1005289E-001  0.2995888E+03  0.7546771E-02  0.1085446E+00
         21   -1    0    0  502  501  0.00000000000E+00  0.00000000000E+00  0.18882569048E+04  0.18882569048E+04  0.00000000000E+00 0.  1.
         21   -1    0    0  503  502 -0.00000000000E+00 -0.00000000000E+00 -0.10762524044E+03  0.10762524044E+03  0.00000000000E+00 0.  1.
         25    1    1    2    0    0 -0.25878527637E+03  0.84608718568E+02  0.13625577298E+03  0.32911865671E+03  0.12500000000E+03 0.  0.
         21    1    1    2  503  501  0.25878527637E+03 -0.84608718568E+02  0.16443758914E+04  0.16667634885E+04  0.00000000000E+00 0.  1.
<mgrwt>
<rscale>  3 0.29958881E+03</rscale>
<asrwt>0</asrwt>
<pdfrwt beam="1">  1       21 0.29050104E+00 0.29958881E+03</pdfrwt>
<pdfrwt beam="2">  1       21 0.16557731E-01 0.29958881E+03</pdfrwt>
<totfact> 0.11342841E+03</totfact>
</mgrwt>
</event>
<event>
 4    0  0.1108029E-001  0.3085600E+03  0.7546771E-02  0.1081038E+00
         21   -1    0    0  502  501  0.00000000000E+00  0.00000000000E+00  0.65985141793E+03  0.65985141793E+03  0.00000000000E+00 0. -1.
         21   -1    0    0  503  502 -0.00000000000E+00 -0.00000000000E+00 -0.15272908663E+03  0.15272908663E+03  0.00000000000E+00 0. -1.
         25    1    1    2    0    0 -0.21116315763E+03 -0.18706791544E+03  0.41227459829E+03  0.51495594814E+03  0.12500000000E+03 0.  0.
         21    1    1    2  503  501  0.21116315763E+03  0.18706791544E+03  0.94847733020E+02  0.29762455642E+03  0.00000000000E+00 0. -1.
<mgrwt>
<rscale>  3 0.30856002E+03</rscale>
<asrwt>0</asrwt>
<pdfrwt beam="1">  1       21 0.10151560E+00 0.30856002E+03</pdfrwt>
<pdfrwt beam="2">  1       21 0.23496783E-01 0.30856002E+03</pdfrwt>
<totfact> 0.12673229E+04</totfact>
</mgrwt>
</event>
<event>
 4    0  0.1496341E-001  0.3404447E+03  0.7546771E-02  0.1066607E+00
         21   -1    0    0  503  501  0.00000000000E+00  0.00000000000E+00  0.12710167920E+03  0.12710167920E+03  0.00000000000E+00 0.  1.
         21   -1    0    0  501  502 -0.00000000000E+00 -0.00000000000E+00 -0.87864582845E+03  0.87864582845E+03  0.00000000000E+00 0.  1.
         25    1    1    2    0    0 -0.28046069247E+03  0.14703534750E+03 -0.48074388160E+03  0.58908172025E+03  0.12500000000E+03 0.  0.
         21    1    1    2  503  502  0.28046069247E+03 -0.14703534750E+03 -0.27080026764E+03  0.41666578740E+03  0.00000000000E+00 0.  1.
<mgrwt>
<rscale>  3 0.34044470E+03</rscale>
<asrwt>0</asrwt>
<pdfrwt beam="1">  1       21 0.19554105E-01 0.34044470E+03</pdfrwt>
<pdfrwt beam="2">  1       21 0.13517628E+00 0.34044470E+03</pdfrwt>
<totfact> 0.86611542E+03</totfact>
</mgrwt>
</event>
<event>
 4    0  0.1112432E-001  0.3452055E+03  0.7546771E-02  0.1064600E+00
         21   -1    0    0  502  501  0.00000000000E+00  0.00000000000E+00  0.62201605222E+03  0.62201605222E+03  0.00000000000E+00 0. -1.
         21   -1    0    0  503  502 -0.00000000000E+00 -0.00000000000E+00 -0.50584098438E+03  0.50584098438E+03  0.00000000000E+00 0. -1.
         25    1    1    2    0    0  0.31689465121E+03 -0.55853372316E+02 -0.39452995560E+03  0.52423344517E+03  0.12500000000E+03 0.  0.
         21    1    1    2  503  501 -0.31689465121E+03  0.55853372316E+02  0.51070502344E+03  0.60362359143E+03  0.00000000000E+00 0. -1.
<mgrwt>
<rscale>  3 0.34520547E+03</rscale>
<asrwt>0</asrwt>
<pdfrwt beam="1">  1       21 0.95694777E-01 0.34520547E+03</pdfrwt>
<pdfrwt beam="2">  1       21 0.77821690E-01 0.34520547E+03</pdfrwt>
<totfact> 0.11933752E+03</totfact>
</mgrwt>
</event>
<event>
 4    0  0.1641786E-001  0.2780309E+03  0.7546771E-02  0.1096769E+00
         21   -1    0    0  503  501  0.00000000000E+00  0.00000000000E+00  0.46991227908E+03  0.46991227908E+03  0.00000000000E+00 0.  1.
         21   -1    0    0  501  502 -0.00000000000E+00 -0.00000000000E+00 -0.15398534942E+03  0.15398534942E+03  0.00000000000E+00 0.  1.
         25    1    1    2    0    0 -0.22295439009E+03  0.10939604416E+03  0.10211266730E+03  0.29618938428E+03  0.12500000000E+03 0.  0.
         21    1    1    2  503  502  0.22295439009E+03 -0.10939604416E+03  0.21381426236E+03  0.32770824422E+03  0.00000000000E+00 0.  1.
<mgrwt>
<rscale>  3 0.27803085E+03</rscale>
<asrwt>0</asrwt>
<pdfrwt beam="1">  1       21 0.72294196E-01 0.27803085E+03</pdfrwt>
<pdfrwt beam="2">  1       21 0.23690054E-01 0.27803085E+03</pdfrwt>
<totfact> 0.27777234E+04</totfact>
</mgrwt>
</event>
<event>
 4    0  0.1253540E-001  0.3504067E+03  0.7546771E-02  0.1062448E+00
         21   -1    0    0  502  501  0.00000000000E+00  0.00000000000E+00  0.49745796871E+03  0.49745796871E+03  0.00000000000E+00 0.  1.
         21   -1    0    0  503  502 -0.00000000000E+00 -0.00000000000E+00 -0.40181988271E+03  0.40181988271E+03  0.00000000000E+00 0.  1.
         25    1    1    2    0    0 -0.11078855715E+03 -0.30803533074E+03 -0.24444394063E+03  0.42724432061E+03  0.12500000000E+03 0.  0.
         21    1    1    2  503  501  0.11078855715E+03  0.30803533074E+03  0.34008202663E+03  0.47203353082E+03  0.00000000000E+00 0.  1.
<mgrwt>
<rscale>  3 0.35040672E+03</rscale>
<asrwt>0</asrwt>
<pdfrwt beam="1">  1       21 0.76531995E-01 0.35040672E+03</pdfrwt>
<pdfrwt beam="2">  1       21 0.61818444E-01 0.35040672E+03</pdfrwt>
<totfact> 0.33505949E+03</totfact>
</mgrwt>
</event>
<event>
 4    0  0.1248498E-001  0.3837990E+03  0.7546771E-02  0.1049538E+00
         21   -1    0    0  502  501  0.00000000000E+00  0.00000000000E+00  0.21794064329E+03  0.21794064329E+03  0.00000000000E+00 0. -1.
         21   -1    0    0  503  502 -0.00000000000E+00 -0.00000000000E+00 -0.77491060634E+03  0.77491060634E+03  0.00000000000E+00 0. -1.
         25    1    1    2    0    0  0.30803484545E+03  0.19181041154E+03 -0.49235300187E+03  0.62427011656E+03  0.12500000000E+03 0.  0.
         21    1    1    2  503  501 -0.30803484545E+03 -0.19181041154E+03 -0.64616961185E+02  0.36858113307E+03  0.00000000000E+00 0. -1.
<mgrwt>
<rscale>  3 0.38379904E+03</rscale>
<asrwt>0</asrwt>
<pdfrwt beam="1">  1       21 0.33529330E-01 0.38379904E+03</pdfrwt>
<pdfrwt beam="2">  1       21 0.11921702E+00 0.38379904E+03</pdfrwt>
<totfact> 0.41138907E+03</totfact>
</mgrwt>
</event>
<event>
 4    0  0.1419462E-001  0.3804988E+03  0.7546771E-02  0.1050750E+00
         21   -1    0    0  502  501  0.00000000000E+00  0.00000000000E+00  0.96031914927E+03  0.96031914927E+03  0.00000000000E+00 0. -1.
         21   -1    0    0  503  502 -0.00000000000E+00 -0.00000000000E+00 -0.15371456437E+03  0.15371456437E+03  0.00000000000E+00 0. -1.
         25    1    1    2    0    0 -0.35356713553E+03  0.64378723875E+02  0.26364696253E+03  0.46291366395E+03  0.12500000000E+03 0.  0.
         21    1    1    2  503  501  0.35356713553E+03 -0.64378723875E+02  0.54295762237E+03  0.65112004969E+03  0.00000000000E+00 0. -1.
<mgrwt>
<rscale>  3 0.38049880E+03</rscale>
<asrwt>0</asrwt>
<pdfrwt beam="1">  1       21 0.14774140E+00 0.38049880E+03</pdfrwt>
<pdfrwt beam="2">  1       21 0.23648395E-01 0.38049880E+03</pdfrwt>
<totfact> 0.46819560E+03</totfact>
</mgrwt>
</event>
<event>
 4    0  0.1005289E-001  0.4523556E+03  0.7546771E-02  0.1027022E+00
         21   -1    0    0  503  501  0.00000000000E+00  0.00000000000E+00  0.99763254293E+02  0.99763254293E+02  0.00000000000E+00 0. -1.
         21   -1    0    0  501  502 -0.00000000000E+00 -0.00000000000E+00 -0.25936550813E+04  0.25936550813E+04  0.00000000000E+00 0. -1.
         25    1    1    2    0    0 -0.73776678259E+02 -0.42843616879E+03 -0.19249733853E+04  0.19774094374E+04  0.12500000000E+03 0.  0.
         21    1    1    2  503  502  0.73776678259E+02  0.42843616879E+03 -0.56891844170E+03  0.71600889819E+03  0.00000000000E+00 0. -1.
<mgrwt>
<rscale>  3 0.45235556E+03</rscale>
<asrwt>0</asrwt>
<pdfrwt beam="1">  1       21 0.15348195E-01 0.45235556E+03</pdfrwt>
<pdfrwt beam="2">  1       21 0.39902381E+00 0.45235556E+03</pdfrwt>
<totfact> 0.25438802E+02</totfact>
</mgrwt>
</event>
<event>
 4    0  0.1005289E-001  0.3593125E+03  0.7546771E-02  0.1058856E+00
         21   -1    0    0  502  501  0.00000000000E+00  0.00000000000E+00  0.37570041240E+03  0.37570041240E+03  0.00000000000E+00 0. -1.
         21   -1    0    0  503  502 -0.00000000000E+00 -0.00000000000E+00 -0.43080933445E+03  0.43080933445E+03  0.00000000000E+00 0. -1.
         25    1    1    2    0    0  0.14906474761E+03 -0.30209297401E+03  0.17388761215E+03  0.39917711055E+03  0.12500000000E+03 0.  0.
         21    1    1    2  503  501 -0.14906474761E+03  0.30209297401E+03 -0.22899653420E+03  0.40733263631E+03  0.00000000000E+00 0. -1.
<mgrwt>
<rscale>  3 0.35931249E+03</rscale>
<asrwt>0</asrwt>
<pdfrwt beam="1">  1       21 0.57800063E-01 0.35931249E+03</pdfrwt>
<pdfrwt beam="2">  1       21 0.66278359E-01 0.35931249E+03</pdfrwt>
<totfact> 0.53382416E+03</totfact>
</mgrwt>
</event>
<event>
 4    0  0.1414454E-001  0.2890451E+03  0.7546771E-02  0.1090849E+00
         21   -1    0    0  502  501  0.00000000000E+00  0.00000000000E+00  0.19386157207E+03  0.19386157207E+03  0.00000000000E+00 0. -1.
         21   -1    0    0  503  502 -0.00000000000E+00 -0.00000000000E+00 -0.38972061208E+03  0.38972061208E+03  0.00000000000E+00 0. -1.
         25    1    1    2    0    0  0.13288694056E+03  0.22419442803E+03 -0.10764850841E+03  0.30844007829E+03  0.12500000000E+03 0.  0.
         21    1    1    2  503  501 -0.13288694056E+03 -0.22419442803E+03 -0.88210531606E+02  0.27514210586E+03  0.00000000000E+00 0. -1.
<mgrwt>
<rscale>  3 0.28904512E+03</rscale>
<asrwt>0</asrwt>
<pdfrwt beam="1">  1       21 0.29824858E-01 0.28904512E+03</pdfrwt>
<pdfrwt beam="2">  1       21 0.59957016E-01 0.28904512E+03</pdfrwt>
<totfact> 0.26718496E+04</totfact>
</mgrwt>
</event>
<event>
 4    0  0.1278020E-001  0.2451938E+03  0.7546771E-02  0.1116380E+00
         21   -1    0    0  503  501  0.00000000000E+00  0.00000000000E+00  0.21526974794E+03  0.21526974794E+03  0.00000000000E+00 0.  1.
         21   -1    0    0  501  502 -0.00000000000E+00 -0.00000000000E+00 -0.24940177053E+03  0.24940177053E+03  0.00000000000E+00 0.  1.
         25    1    1    2    0    0  0.20322169288E+02  0.20995711736E+03  0.22611958684E+02  0.24623420227E+03  0.12500000000E+03 0.  0.
         21    1    1    2  503  502 -0.20322169288E+02 -0.20995711736E+03 -0.56743981273E+02  0.21843731619E+03  0.00000000000E+00 0.  1.
<mgrwt>
<rscale>  3 0.24519376E+03</rscale>
<asrwt>0</asrwt>
<pdfrwt beam="1">  1       21 0.33118423E-01 0.24519376E+03</pdfrwt>
<pdfrwt beam="2">  1       21 0.38369503E-01 0.24519376E+03</pdfrwt>
<totfact> 0.56200015E+04</totfact>
</mgrwt>
</event>
<event>
 4    0  0.1033527E-001  0.2633807E+03  0.7546771E-02  0.1105129E+00
         21   -1    0    0  503  501  0.00000000000E+00  0.00000000000E+00  0.20166913269E+04  0.20166913269E+04  0.00000000000E+00 0.  1.
         21   -1    0    0  501  502 -0.00000000000E+00 -0.00000000000E+00 -0.30427651794E+02  0.30427651794E+02  0.00000000000E+00 0.  1.
         25    1    1    2    0    0 -0.20476868519E+03 -0.10869311794E+03  0.10257264817E+04  0.10590015220E+04  0.12500000000E+03 0.  0.
         21    1    1    2  503  502  0.20476868519E+03  0.10869311794E+03  0.96053719345E+03  0.98811745675E+03  0.00000000000E+00 0.  1.
<mgrwt>
<rscale>  3 0.26338073E+03</rscale>
<asrwt>0</asrwt>
<pdfrwt beam="1">  1       21 0.31026010E+00 0.26338073E+03</pdfrwt>
<pdfrwt beam="2">  1       21 0.46811788E-02 0.26338073E+03</pdfrwt>
<totfact> 0.83696057E+03</totfact>
</mgrwt>
</event>
<event>
 4    0  0.1005289E-001  0.3270995E+03  0.7546771E-02  0.1072428E+00
         21   -1    0    0  502  501  0.00000000000E+00  0.00000000000E+00  0.32272548320E+03  0.32272548320E+03  0.00000000000E+00 0. -1.
         21   -1    0    0  503  502 -0.00000000000E+00 -0.00000000000E+00 -0.12280562497E+04  0.12280562497E+04  0.00000000000E+00 0. -1.
         25    1    1    2    0    0 -0.14505324272E+03 -0.26519548044E+03 -0.11285652847E+04  0.11750122076E+04  0.12500000000E+03 0.  0.
         21    1    1    2  503  501  0.14505324272E+03  0.26519548044E+03  0.22323451820E+03  0.37576952535E+03  0.00000000000E+00 0. -1.
<mgrwt>
<rscale>  3 0.32709950E+03</rscale>
<asrwt>0</asrwt>
<pdfrwt beam="1">  1       21 0.49650074E-01 0.32709950E+03</pdfrwt>
<pdfrwt beam="2">  1       21 0.18893173E+00 0.32709950E+03</pdfrwt>
<totfact> 0.54322258E+02</totfact>
</mgrwt>
</event>
<event>
 4    0  0.1005289E-001  0.2570287E+03  0.7546771E-02  0.1108942E+00
         21   -1    0    0  503  501  0.00000000000E+00  0.00000000000E+00  0.92520470207E+02  0.92520470207E+02  0.00000000000E+00 0.  1.
         21   -1    0    0  501  502 -0.00000000000E+00 -0.00000000000E+00 -0.18286740387E+04  0.18286740387E+04  0.00000000000E+00 0.  1.
         25    1    1    2    0    0 -0.14199547713E+03  0.17400010865E+03 -0.16662843540E+04  0.16859914892E+04  0.12500000000E+03 0.  0.
         21    1    1    2  503  502  0.14199547713E+03 -0.17400010865E+03 -0.69869214495E+02  0.23520301969E+03  0.00000000000E+00 0.  1.
<mgrwt>
<rscale>  3 0.25702870E+03</rscale>
<asrwt>0</asrwt>
<pdfrwt beam="1">  1       21 0.14233918E-01 0.25702870E+03</pdfrwt>
<pdfrwt beam="2">  1       21 0.28133447E+00 0.25702870E+03</pdfrwt>
<totfact> 0.17603791E+03</totfact>
</mgrwt>
</event>
<event>
 4    0  0.1109027E-001  0.3945674E+03  0.7546771E-02  0.1045677E+00
         21   -1    0    0  503  501  0.00000000000E+00  0.00000000000E+00  0.15260020598E+04  0.15260020598E+04  0.00000000000E+00 0. -1.
         21   -1    0    0  501  502 -0.00000000000E+00 -0.00000000000E+00 -0.21404694442E+03  0.21404694442E+03  0.00000000000E+00 0.  1.
         25    1    1    2    0    0 -0.29961713542E+03 -0.22424979682E+03  0.20101513022E+02  0.39507906808E+03  0.12500000000E+03 0.  0.
         21    1    1    2  503  502  0.29961713542E+03  0.22424979682E+03  0.12918536024E+04  0.13449699362E+04  0.00000000000E+00 0. -1.
<mgrwt>
<rscale>  3 0.39456736E+03</rscale>
<asrwt>0</asrwt>
<pdfrwt beam="1">  1       21 0.23476954E+00 0.39456736E+03</pdfrwt>
<pdfrwt beam="2">  1       21 0.32930300E-01 0.39456736E+03</pdfrwt>
<totfact> 0.61232312E+02</totfact>
</mgrwt>
</event>
<event>
 4    0  0.1364611E-001  0.3139409E+03  0.7546771E-02  0.1078472E+00
         21   -1    0    0  502  501  0.00000000000E+00  0.00000000000E+00  0.10808122953E+04  0.10808122953E+04  0.00000000000E+00 0.  1.
         21   -1    0    0  503  502 -0.00000000000E+00 -0.00000000000E+00 -0.11282076959E+03  0.11282076959E+03  0.00000000000E+00 0.  1.
         25    1    1    2    0    0 -0.13041811785E+03  0.25675861880E+03  0.19704587372E+03  0.37065610765E+03  0.12500000000E+03 0.  0.
         21    1    1    2  503  501  0.13041811785E+03 -0.25675861880E+03  0.77094565196E+03  0.82297695719E+03  0.00000000000E+00 0.  1.
<mgrwt>
<rscale>  3 0.31394088E+03</rscale>
<asrwt>0</asrwt>
<pdfrwt beam="1">  1       21 0.16627881E+00 0.31394088E+03</pdfrwt>
<pdfrwt beam="2">  1       21 0.17357042E-01 0.31394088E+03</pdfrwt>
<totfact> 0.62823608E+03</totfact>
</mgrwt>
</event>
<event>
 4    0  0.1005289E-001  0.2569939E+03  0.7546771E-02  0.1108963E+00
         21   -1    0    0  502  501  0.00000000000E+00  0.00000000000E+00  0.84552254599E+03  0.84552254599E+03  0.00000000000E+00 0. -1.
         21   -1    0    0  503  502 -0.00000000000E+00 -0.00000000000E+00 -0.11502114630E+03  0.11502114630E+03  0.00000000000E+00 0.  1.
         25    1    1    2    0    0  0.15947821504E+03  0.15807459750E+03  0.75097805400E+02  0.26774159151E+03  0.12500000000E+03 0.  0.
         21    1    1    2  503  501 -0.15947821504E+03 -0.15807459750E+03  0.65540359429E+03  0.69280210079E+03  0.00000000000E+00 0. -1.
<mgrwt>
<rscale>  3 0.25699393E+03</rscale>
<asrwt>0</asrwt>
<pdfrwt beam="1">  1       21 0.13008039E+00 0.25699393E+03</pdfrwt>
<pdfrwt beam="2">  1       21 0.17695562E-01 0.25699393E+03</pdfrwt>
<totfact> 0.12006061E+04</totfact>
</mgrwt>
</event>
<event>
 4    0  0.1235416E-001  0.2549162E+03  0.7546771E-02  0.1110237E+00
         21   -1    0    0  502  501  0.00000000000E+00  0.00000000000E+00  0.10354933647E+04  0.10354933647E+04  0.00000000000E+00 0.  1.
         21   -1    0    0  503  502 -0.00000000000E+00 -0.00000000000E+00 -0.79962348379E+02  0.79962348379E+02  0.00000000000E+00 0.  1.
         25    1    1    2    0    0  0.20023262447E+03  0.96250457615E+02  0.18888807283E+03  0.31727111206E+03  0.12500000000E+03 0.  0.
         21    1    1    2  503  501 -0.20023262447E+03 -0.96250457615E+02  0.76664294346E+03  0.79818460099E+03  0.00000000000E+00 0.  1.
<mgrwt>
<rscale>  3 0.25491617E+03</rscale>
<asrwt>0</asrwt>
<pdfrwt beam="1">  1       21 0.15930666E+00 0.25491617E+03</pdfrwt>
<pdfrwt beam="2">  1       21 0.12301900E-01 0.25491617E+03</pdfrwt>
<totfact> 0.13722274E+04</totfact>
</mgrwt>
</event>
<event>
 4    0  0.1005289E-001  0.3157057E+03  0.7546771E-02  0.1077643E+00
         21   -1    0    0  502  501  0.00000000000E+00  0.00000000000E+00  0.49278683443E+02  0.49278683443E+02  0.00000000000E+00 0.  1.
         21   -1    0    0  503  502 -0.00000000000E+00 -0.00000000000E+00 -0.19131451347E+04  0.19131451347E+04  0.00000000000E+00 0.  1.
         25    1    1    2    0    0 -0.25520213616E+03  0.13753892267E+03 -0.80817930526E+03  0.86765423701E+03  0.12500000000E+03 0.  0.
         21    1    1    2  503  501  0.25520213616E+03 -0.13753892267E+03 -0.10556871460E+04  0.10947695811E+04  0.00000000000E+00 0.  1.
<mgrwt>
<rscale>  3 0.31570569E+03</rscale>
<asrwt>0</asrwt>
<pdfrwt beam="1">  1       21 0.75813338E-02 0.31570569E+03</pdfrwt>
<pdfrwt beam="2">  1       21 0.29433010E+00 0.31570569E+03</pdfrwt>
<totfact> 0.43429891E+03</totfact>
</mgrwt>
</event>
<event>
 4    0  0.1232306E-001  0.2622678E+03  0.7546771E-02  0.1105788E+00
         21   -1    0    0  502  501  0.00000000000E+00  0.00000000000E+00  0.13218803700E+04  0.13218803700E+04  0.00000000000E+00 0. -1.
         21   -1    0    0  503  502 -0.00000000000E+00 -0.00000000000E+00 -0.66736188648E+02  0.66736188648E+02  0.00000000000E+00 0. -1.
         25    1    1    2    0    0 -0.11762546486E+03  0.19830189606E+03  0.26828503994E+03  0.37518162884E+03  0.12500000000E+03 0.  0.
         21    1    1    2  503  501  0.11762546486E+03 -0.19830189606E+03  0.98685914141E+03  0.10134349298E+04  0.00000000000E+00 0. -1.
<mgrwt>
<rscale>  3 0.26226779E+03</rscale>
<asrwt>0</asrwt>
<pdfrwt beam="1">  1       21 0.20336619E+00 0.26226779E+03</pdfrwt>
<pdfrwt beam="2">  1       21 0.10267107E-01 0.26226779E+03</pdfrwt>
<totfact> 0.93940075E+03</totfact>
</mgrwt>
</event>
<event>
 4    0  0.1005289E-001  0.3545335E+03  0.7546771E-02  0.1060770E+00
         21   -1    0    0  503  501  0.00000000000E+00  0.00000000000E+00  0.12413241407E+04  0.12413241407E+04  0.00000000000E+00 0. -1.
         21   -1    0    0  501  502 -0.00000000000E+00 -0.00000000000E+00 -0.94863649763E+02  0.94863649763E+02  0.00000000000E+00 0.  1.
         25    1    1    2    0    0 -0.25559394383E+03 -0.21152006748E+03  0.58806332626E+03  0.68666766253E+03  0.12500000000E+03 0.  0.
         21    1    1    2  503  502  0.25559394383E+03  0.21152006748E+03  0.55839716465E+03  0.64952012790E+03  0.00000000000E+00 0. -1.
<mgrwt>
<rscale>  3 0.35453350E+03</rscale>
<asrwt>0</asrwt>
<pdfrwt beam="1">  1       21 0.19097293E+00 0.35453350E+03</pdfrwt>
<pdfrwt beam="2">  1       21 0.14594409E-01 0.35453350E+03</pdfrwt>
<totfact> 0.57002673E+03</totfact>
</mgrwt>
</event>
<event>
 4    0  0.1135853E-001  0.2523535E+03  0.7546771E-02  0.1111826E+00
         21   -1    0    0  502  501  0.00000000000E+00  0.00000000000E+00  0.11611091860E+03  0.11611091860E+03  0.00000000000E+00 0. -1.
         21   -1    0    0  503  502 -0.00000000000E+00 -0.00000000000E+00 -0.53856630746E+03  0.53856630746E+03  0.00000000000E+00 0. -1.
         25    1    1    2    0    0  0.62365457259E+02  0.21016143851E+03 -0.11562796830E+03  0.27758261392E+03  0.12500000000E+03 0.  0.
         21    1    1    2  503  501 -0.62365457259E+02 -0.21016143851E+03 -0.30682742057E+03  0.37709461214E+03  0.00000000000E+00 0. -1.
<mgrwt>
<rscale>  3 0.25235348E+03</rscale>
<asrwt>0</asrwt>
<pdfrwt beam="1">  1       21 0.17863218E-01 0.25235348E+03</pdfrwt>
<pdfrwt beam="2">  1       21 0.82856355E-01 0.25235348E+03</pdfrwt>
<totfact> 0.35121599E+04</totfact>
</mgrwt>
</event>
<event>
 4    0  0.1584370E-001  0.2479007E+03  0.7546771E-02  0.1114639E+00
         21   -1    0    0  502  501  0.00000000000E+00  0.00000000000E+00  0.23149549825E+03  0.23149549825E+03  0.00000000000E+00 0.  1.
         21   -1    0    0  503  502 -0.00000000000E+00 -0.00000000000E+00 -0.60944762396E+03  0.60944762396E+03  0.00000000000E+00 0. -1.
         25    1    1    2    0    0  0.20473731704E+02 -0.21309756167E+03 -0.52543547570E+03  0.58097950360E+03  0.12500000000E+03 0.  0.
         21    1    1    2  503  501 -0.20473731704E+02  0.21309756167E+03  0.14748334998E+03  0.25996361861E+03  0.00000000000E+00 0.  1.
<mgrwt>
<rscale>  3 0.24790067E+03</rscale>
<asrwt>0</asrwt>
<pdfrwt beam="1">  1       21 0.35614693E-01 0.24790067E+03</pdfrwt>
<pdfrwt beam="2">  1       21 0.93761172E-01 0.24790067E+03</pdfrwt>
<totfact> 0.69950496E+03</totfact>
</mgrwt>
</event>
<event>
 4    0  0.1525563E-001  0.2526284E+03  0.7546771E-02  0.1111655E+00
         21   -1    0    0  503  501  0.00000000000E+00  0.00000000000E+00  0.55395447470E+02  0.55395447470E+02  0.00000000000E+00 0. -1.
         21   -1    0    0  501  502 -0.00000000000E+00 -0.00000000000E+00 -0.10922411810E+04  0.10922411810E+04  0.00000000000E+00 0. -1.
         25    1    1    2    0    0 -0.80658907022E+02  0.20418184471E+03 -0.71264949308E+03  0.75610209958E+03  0.12500000000E+03 0.  0.
         21    1    1    2  503  502  0.80658907022E+02 -0.20418184471E+03 -0.32419624043E+03  0.39153452888E+03  0.00000000000E+00 0. -1.
<mgrwt>
<rscale>  3 0.25262835E+03</rscale>
<asrwt>0</asrwt>
<pdfrwt beam="1">  1       21 0.85223764E-02 0.25262835E+03</pdfrwt>
<pdfrwt beam="2">  1       21 0.16803711E+00 0.25262835E+03</pdfrwt>
<totfact> 0.22812476E+04</totfact>
</mgrwt>
</event>
<event>
 4    0  0.1021862E-001  0.2823104E+03  0.7546771E-02  0.1094434E+00
         21   -1    0    0  502  501  0.00000000000E+00  0.00000000000E+00  0.58535421373E+03  0.58535421373E+03  0.00000000000E+00 0.  1.
         21   -1    0    0  503  502 -0.00000000000E+00 -0.00000000000E+00 -0.15097067047E+03  0.15097067047E+03  0.00000000000E+00 0. -1.
         25    1    1    2    0    0 -0.20682589072E+03  0.14593558599E+03  0.66951799014E+02  0.29014080671E+03  0.12500000000E+03 0.  0.
         21    1    1    2  503  501  0.20682589072E+03 -0.14593558599E+03  0.36743174425E+03  0.44618407749E+03  0.00000000000E+00 0.  1.
<mgrwt>
<rscale>  3 0.28231037E+03</rscale>
<asrwt>0</asrwt>
<pdfrwt beam="1">  1       21 0.90054493E-01 0.28231037E+03</pdfrwt>
<pdfrwt beam="2">  1       21 0.23226257E-01 0.28231037E+03</pdfrwt>
<totfact> 0.17420457E+04</totfact>
</mgrwt>
</event>
<event>
 4    0  0.1125211E-001  0.4842294E+03  0.7546771E-02  0.1017979E+00
         21   -1    0    0  503  501  0.00000000000E+00  0.00000000000E+00  0.94939932052E+03  0.94939932052E+03  0.00000000000E+00 0.  1.
         21   -1    0    0  501  502 -0.00000000000E+00 -0.00000000000E+00 -0.32522119087E+03  0.32522119087E+03  0.00000000000E+00 0.  1.
         25    1    1    2    0    0  0.35599898308E+03 -0.30350918732E+03 -0.12690931841E+02  0.48439566729E+03  0.12500000000E+03 0.  0.
         21    1    1    2  503  502 -0.35599898308E+03  0.30350918732E+03  0.63686906150E+03  0.79022484410E+03  0.00000000000E+00 0.  1.
<mgrwt>
<rscale>  3 0.48422939E+03</rscale>
<asrwt>0</asrwt>
<pdfrwt beam="1">  1       21 0.14606143E+00 0.48422939E+03</pdfrwt>
<pdfrwt beam="2">  1       21 0.50034030E-01 0.48422939E+03</pdfrwt>
<totfact> 0.10170344E+03</totfact>
</mgrwt>
</event>
<event>
 4    0  0.1104596E-001  0.3466994E+03  0.7546771E-02  0.1063978E+00
         21   -1    0    0  502  501  0.00000000000E+00  0.00000000000E+00  0.69293492706E+02  0.69293492706E+02  0.00000000000E+00 0. -1.
         21   -1    0    0  503  502 -0.00000000000E+00 -0.00000000000E+00 -0.16249092481E+04  0.16249092481E+04  0.00000000000E+00 0. -1.
         25    1    1    2    0    0 -0.24266108493E+03 -0.21375474712E+03 -0.85155747644E+03  0.91942951320E+03  0.12500000000E+03 0.  0.
         21    1    1    2  503  501  0.24266108493E+03  0.21375474712E+03 -0.70405827898E+03  0.77477322763E+03  0.00000000000E+00 0. -1.
<mgrwt>
<rscale>  3 0.34669943E+03</rscale>
<asrwt>0</asrwt>
<pdfrwt beam="1">  1       21 0.10660537E-01 0.34669943E+03</pdfrwt>
<pdfrwt beam="2">  1       21 0.24998606E+00 0.34669943E+03</pdfrwt>
<totfact> 0.42761582E+03</totfact>
</mgrwt>
</event>
<event>
 4    0  0.1126201E-001  0.2589143E+03  0.7546771E-02  0.1107797E+00
         21   -1    0    0  503  501  0.00000000000E+00  0.00000000000E+00  0.17586935658E+04  0.17586935658E+04  0.00000000000E+00 0.  1.
         21   -1    0    0  501  502 -0.00000000000E+00 -0.00000000000E+00 -0.33820309177E+02  0.33820309177E+02  0.00000000000E+00 0.  1.
         25    1    1    2    0    0 -0.22558298755E+03  0.22889777865E+02  0.83592429218E+03  0.87510345015E+03  0.12500000000E+03 0.  0.
         21    1    1    2  503  502  0.22558298755E+03 -0.22889777865E+02  0.88894896443E+03  0.91741042481E+03  0.00000000000E+00 0.  1.
<mgrwt>
<rscale>  3 0.25891432E+03</rscale>
<asrwt>0</asrwt>
<pdfrwt beam="1">  1       21 0.27056817E+00 0.25891432E+03</pdfrwt>
<pdfrwt beam="2">  1       21 0.52031258E-02 0.25891432E+03</pdfrwt>
<totfact> 0.11982992E+04</totfact>
</mgrwt>
</event>
<event>
 4    0  0.1005289E-001  0.3069496E+03  0.7546771E-02  0.1081817E+00
         21   -1    0    0  502  501  0.00000000000E+00  0.00000000000E+00  0.78406789668E+03  0.78406789668E+03  0.00000000000E+00 0.  1.
         21   -1    0    0  503  502 -0.00000000000E+00 -0.00000000000E+00 -0.23994155957E+03  0.23994155957E+03  0.00000000000E+00 0.  1.
         25    1    1    2    0    0  0.26277894579E+03 -0.97674240342E+02  0.65435627489E+03  0.72277255486E+03  0.12500000000E+03 0.  0.
         21    1    1    2  503  501 -0.26277894579E+03  0.97674240342E+02 -0.11022993778E+03  0.30123690139E+03  0.00000000000E+00 0.  1.
<mgrwt>
<rscale>  3 0.30694956E+03</rscale>
<asrwt>0</asrwt>
<pdfrwt beam="1">  1       21 0.12062583E+00 0.30694956E+03</pdfrwt>
<pdfrwt beam="2">  1       21 0.36914086E-01 0.30694956E+03</pdfrwt>
<totfact> 0.34123200E+03</totfact>
</mgrwt>
</event>
<event>
 4    0  0.1184217E-001  0.2431098E+03  0.7546771E-02  0.1117738E+00
         21   -1    0    0  502  501  0.00000000000E+00  0.00000000000E+00  0.25289793370E+02  0.25289793370E+02  0.00000000000E+00 0. -1.
         21   -1    0    0  503  502 -0.00000000000E+00 -0.00000000000E+00 -0.20777957663E+04  0.20777957663E+04  0.00000000000E+00 0. -1.
         25    1    1    2    0    0  0.13025035025E+03  0.16282567860E+03 -0.12830005973E+04  0.13058303443E+04  0.12500000000E+03 0.  0.
         21    1    1    2  503  501 -0.13025035025E+03 -0.16282567860E+03 -0.76950537562E+03  0.79725521539E+03  0.00000000000E+00 0. -1.
<mgrwt>
<rscale>  3 0.24310976E+03</rscale>
<asrwt>0</asrwt>
<pdfrwt beam="1">  1       21 0.38907371E-02 0.24310976E+03</pdfrwt>
<pdfrwt beam="2">  1       21 0.31966092E+00 0.24310976E+03</pdfrwt>
<totfact> 0.10256836E+04</totfact>
</mgrwt>
</event>
<event>
 4    0  0.1212302E-001  0.4042447E+03  0.7546771E-02  0.1042320E+00
         21   -1    0    0  502  501  0.00000000000E+00  0.00000000000E+00  0.11486593473E+03  0.11486593473E+03  0.00000000000E+00 0.  1.
         21   -1    0    0  503  502 -0.00000000000E+00 -0.00000000000E+00 -0.14018243933E+04  0.14018243933E+04  0.00000000000E+00 0.  1.
         25    1    1    2    0    0 -0.20195662049E+03 -0.32711211386E+03 -0.79943864176E+03  0.89583254771E+03  0.12500000000E+03 0.  0.
         21    1    1    2  503  501  0.20195662049E+03  0.32711211386E+03 -0.48751981679E+03  0.62085778030E+03  0.00000000000E+00 0.  1.
<mgrwt>
<rscale>  3 0.40424474E+03</rscale>
<asrwt>0</asrwt>
<pdfrwt beam="1">  1       21 0.17671682E-01 0.40424474E+03</pdfrwt>
<pdfrwt beam="2">  1       21 0.21566530E+00 0.40424474E+03</pdfrwt>
<totfact> 0.26830179E+03</totfact>
</mgrwt>
</event>
<event>
 4    0  0.1838094E-001  0.3783216E+03  0.7546771E-02  0.1051556E+00
         21   -1    0    0  502  501  0.00000000000E+00  0.00000000000E+00  0.56083516740E+03  0.56083516740E+03  0.00000000000E+00 0.  1.
         21   -1    0    0  503  502 -0.00000000000E+00 -0.00000000000E+00 -0.24594915019E+03  0.24594915019E+03  0.00000000000E+00 0.  1.
         25    1    1    2    0    0 -0.34389099785E+03  0.96131330923E+02  0.10512218212E+03  0.39265496859E+03  0.12500000000E+03 0.  0.
         21    1    1    2  503  501  0.34389099785E+03 -0.96131330923E+02  0.20976383508E+03  0.41412934899E+03  0.00000000000E+00 0.  1.
<mgrwt>
<rscale>  3 0.37832162E+03</rscale>
<asrwt>0</asrwt>
<pdfrwt beam="1">  1       21 0.86282333E-01 0.37832162E+03</pdfrwt>
<pdfrwt beam="2">  1       21 0.37838331E-01 0.37832162E+03</pdfrwt>
<totfact> 0.70735107E+03</totfact>
</mgrwt>
</event>
<event>
 4    0  0.1005289E-001  0.3015534E+03  0.7546771E-02  0.1084467E+00
         21   -1    0    0  503  501  0.00000000000E+00  0.00000000000E+00  0.20814221894E+03  0.20814221894E+03  0.00000000000E+00 0. -1.
         21   -1    0    0  501  502 -0.00000000000E+00 -0.00000000000E+00 -0.46624101151E+03  0.46624101151E+03  0.00000000000E+00 0.  1.
         25    1    1    2    0    0 -0.25122801213E+03 -0.11042607353E+03 -0.26268051202E+03  0.39991934586E+03  0.12500000000E+03 0.  0.
         21    1    1    2  503  502  0.25122801213E+03  0.11042607353E+03  0.45817194582E+01  0.27446388460E+03  0.00000000000E+00 0. -1.
<mgrwt>
<rscale>  3 0.30155336E+03</rscale>
<asrwt>0</asrwt>
<pdfrwt beam="1">  1       21 0.32021880E-01 0.30155336E+03</pdfrwt>
<pdfrwt beam="2">  1       21 0.71729386E-01 0.30155336E+03</pdfrwt>
<totfact> 0.15561410E+04</totfact>
</mgrwt>
</event>
<event>
 4    0  0.1005289E-001  0.2863602E+03  0.7546771E-02  0.1092265E+00
         21   -1    0    0  503  501  0.00000000000E+00  0.00000000000E+00  0.10615418352E+04  0.10615418352E+04  0.00000000000E+00 0. -1.
         21   -1    0    0  501  502 -0.00000000000E+00 -0.00000000000E+00 -0.83696820898E+03  0.83696820898E+03  0.00000000000E+00 0. -1.
         25    1    1    2    0    0  0.22924262579E+03  0.11757979034E+03 -0.79598790970E+03  0.84593081334E+03  0.12500000000E+03 0.  0.
         21    1    1    2  503  502 -0.22924262579E+03 -0.11757979034E+03  0.10205615359E+04  0.10525792309E+04  0.00000000000E+00 0. -1.
<mgrwt>
<rscale>  3 0.28636024E+03</rscale>
<asrwt>0</asrwt>
<pdfrwt beam="1">  1       21 0.16331413E+00 0.28636024E+03</pdfrwt>
<pdfrwt beam="2">  1       21 0.12876434E+00 0.28636024E+03</pdfrwt>
<totfact> 0.94647143E+01</totfact>
</mgrwt>
</event>
<event>
 4    0  0.1005289E-001  0.2849543E+03  0.7546771E-02  0.1093013E+00
         21   -1    0    0  502  501  0.00000000000E+00  0.00000000000E+00  0.71470607595E+02  0.71470607595E+02  0.00000000000E+00 0. -1.
         21   -1    0    0  503  502 -0.00000000000E+00 -0.00000000000E+00 -0.12184334393E+04  0.12184334393E+04  0.00000000000E+00 0.  1.
         25    1    1    2    0    0 -0.22939664159E+03 -0.11380311022E+03 -0.85661029800E+03  0.90276252122E+03  0.12500000000E+03 0.  0.
         21    1    1    2  503  501  0.22939664159E+03  0.11380311022E+03 -0.29035253366E+03  0.38714152563E+03  0.00000000000E+00 0. -1.
<mgrwt>
<rscale>  3 0.28495432E+03</rscale>
<asrwt>0</asrwt>
<pdfrwt beam="1">  1       21 0.10995477E-01 0.28495432E+03</pdfrwt>
<pdfrwt beam="2">  1       21 0.18745131E+00 0.28495432E+03</pdfrwt>
<totfact> 0.10442709E+04</totfact>
</mgrwt>
</event>
<event>
 4    0  0.1005289E-001  0.2533384E+03  0.7546771E-02  0.1111213E+00
         21   -1    0    0  502  501  0.00000000000E+00  0.00000000000E+00  0.21064121369E+03  0.21064121369E+03  0.00000000000E+00 0.  1.
         21   -1    0    0  503  502 -0.00000000000E+00 -0.00000000000E+00 -0.18598470874E+04  0.18598470874E+04  0.00000000000E+00 0.  1.
         25    1    1    2    0    0  0.16463429864E+03  0.14646125821E+03 -0.17907565402E+04  0.18085876641E+04  0.12500000000E+03 0.  0.
         21    1    1    2  503  501 -0.16463429864E+03 -0.14646125821E+03  0.14155066652E+03  0.26190063696E+03  0.00000000000E+00 0.  1.
<mgrwt>
<rscale>  3 0.25333841E+03</rscale>
<asrwt>0</asrwt>
<pdfrwt beam="1">  1       21 0.32406340E-01 0.25333841E+03</pdfrwt>
<pdfrwt beam="2">  1       21 0.28613033E+00 0.25333841E+03</pdfrwt>
<totfact> 0.34812009E+02</totfact>
</mgrwt>
</event>
<event>
 4    0  0.1408780E-001  0.3303340E+03  0.7546771E-02  0.1070989E+00
         21   -1    0    0  503  501  0.00000000000E+00  0.00000000000E+00  0.64055501444E+03  0.64055501444E+03  0.00000000000E+00 0. -1.
         21   -1    0    0  501  502 -0.00000000000E+00 -0.00000000000E+00 -0.18498423289E+03  0.18498423289E+03  0.00000000000E+00 0. -1.
         25    1    1    2    0    0  0.23093114933E+03 -0.20041553604E+03  0.77514701532E+02  0.33930681067E+03  0.12500000000E+03 0.  0.
         21    1    1    2  503  502 -0.23093114933E+03  0.20041553604E+03  0.37805608002E+03  0.48623243665E+03  0.00000000000E+00 0. -1.
<mgrwt>
<rscale>  3 0.33033405E+03</rscale>
<asrwt>0</asrwt>
<pdfrwt beam="1">  1       21 0.98546925E-01 0.33033405E+03</pdfrwt>
<pdfrwt beam="2">  1       21 0.28459113E-01 0.33033405E+03</pdfrwt>
<totfact> 0.93007279E+03</totfact>
</mgrwt>
</event>
<event>
 4    0  0.1254225E-001  0.2812066E+03  0.7546771E-02  0.1095032E+00
         21   -1    0    0  502  501  0.00000000000E+00  0.00000000000E+00  0.19958532039E+03  0.19958532039E+03  0.00000000000E+00 0. -1.
         21   -1    0    0  503  502 -0.00000000000E+00 -0.00000000000E+00 -0.38093826971E+03  0.38093826971E+03  0.00000000000E+00 0. -1.
         25    1    1    2    0    0 -0.25177030789E+03  0.79919277267E+01 -0.21154787482E+02  0.28200121254E+03  0.12500000000E+03 0.  0.
         21    1    1    2  503  501  0.25177030789E+03 -0.79919277267E+01 -0.16019816184E+03  0.29852237755E+03  0.00000000000E+00 0. -1.
<mgrwt>
<rscale>  3 0.28120661E+03</rscale>
<asrwt>0</asrwt>
<pdfrwt beam="1">  1       21 0.30705434E-01 0.28120661E+03</pdfrwt>
<pdfrwt beam="2">  1       21 0.58605888E-01 0.28120661E+03</pdfrwt>
<totfact> 0.26588502E+04</totfact>
</mgrwt>
</event>
<event>
 4    0  0.1005289E-001  0.4500382E+03  0.7546771E-02  0.1027711E+00
         21   -1    0    0  503  501  0.00000000000E+00  0.00000000000E+00  0.26325485415E+04  0.26325485415E+04  0.00000000000E+00 0. -1.
         21   -1    0    0  501  502 -0.00000000000E+00 -0.00000000000E+00 -0.86496892422E+02  0.86496892422E+02  0.00000000000E+00 0. -1.
         25    1    1    2    0    0  0.22122731915E+03  0.37144024550E+03  0.77690029804E+03  0.89783542802E+03  0.12500000000E+03 0.  0.
         21    1    1    2  503  502 -0.22122731915E+03 -0.37144024550E+03  0.17691513511E+04  0.18212100059E+04  0.00000000000E+00 0. -1.
<mgrwt>
<rscale>  3 0.45003820E+03</rscale>
<asrwt>0</asrwt>
<pdfrwt beam="1">  1       21 0.40500741E+00 0.45003820E+03</pdfrwt>
<pdfrwt beam="2">  1       21 0.13307216E-01 0.45003820E+03</pdfrwt>
<totfact> 0.30354035E+02</totfact>
</mgrwt>
</event>
<event>
 4    0  0.1452839E-001  0.2732276E+03  0.7546771E-02  0.1099446E+00
         21   -1    0    0  502  501  0.00000000000E+00  0.00000000000E+00  0.26482984488E+03  0.26482984488E+03  0.00000000000E+00 0. -1.
         21   -1    0    0  503  502 -0.00000000000E+00 -0.00000000000E+00 -0.36788487591E+03  0.36788487591E+03  0.00000000000E+00 0. -1.
         25    1    1    2    0    0  0.22873500728E+03  0.81906060039E+02 -0.23130252457E+03  0.35798626244E+03  0.12500000000E+03 0.  0.
         21    1    1    2  503  501 -0.22873500728E+03 -0.81906060039E+02  0.12824749354E+03  0.27472845835E+03  0.00000000000E+00 0. -1.
<mgrwt>
<rscale>  3 0.27322757E+03</rscale>
<asrwt>0</asrwt>
<pdfrwt beam="1">  1       21 0.40743053E-01 0.27322757E+03</pdfrwt>
<pdfrwt beam="2">  1       21 0.56597673E-01 0.27322757E+03</pdfrwt>
<totfact> 0.16308476E+04</totfact>
</mgrwt>
</event>
<event>
 4    0  0.1400151E-001  0.2372665E+03  0.7546771E-02  0.1121627E+00
         21   -1    0    0  503  501  0.00000000000E+00  0.00000000000E+00  0.25926071140E+03  0.25926071140E+03  0.00000000000E+00 0. -1.
         21   -1    0    0  501  502 -0.00000000000E+00 -0.00000000000E+00 -0.18860255476E+03  0.18860255476E+03  0.00000000000E+00 0. -1.
         25    1    1    2    0    0  0.19169991675E+03  0.62622157327E+02  0.65445001292E+02  0.24612687960E+03  0.12500000000E+03 0.  0.
         21    1    1    2  503  502 -0.19169991675E+03 -0.62622157327E+02  0.52131553490E+01  0.20173638655E+03  0.00000000000E+00 0. -1.
<mgrwt>
<rscale>  3 0.23726650E+03</rscale>
<asrwt>0</asrwt>
<pdfrwt beam="1">  1       21 0.39886264E-01 0.23726650E+03</pdfrwt>
<pdfrwt beam="2">  1       21 0.29015777E-01 0.23726650E+03</pdfrwt>
<totfact> 0.67601552E+04</totfact>
</mgrwt>
</event>
<event>
 4    0  0.1005289E-001  0.2625259E+03  0.7546771E-02  0.1105635E+00
         21   -1    0    0  502  501  0.00000000000E+00  0.00000000000E+00  0.21393570866E+03  0.21393570866E+03  0.00000000000E+00 0. -1.
         21   -1    0    0  503  502 -0.00000000000E+00 -0.00000000000E+00 -0.36998040396E+03  0.36998040396E+03  0.00000000000E+00 0.  1.
         25    1    1    2    0    0  0.12876292604E+03  0.19161147061E+03 -0.22201588763E+03  0.34381812220E+03  0.12500000000E+03 0.  0.
         21    1    1    2  503  501 -0.12876292604E+03 -0.19161147061E+03  0.65971192323E+02  0.24009799043E+03  0.00000000000E+00 0. -1.
<mgrwt>
<rscale>  3 0.26252590E+03</rscale>
<asrwt>0</asrwt>
<pdfrwt beam="1">  1       21 0.32913186E-01 0.26252590E+03</pdfrwt>
<pdfrwt beam="2">  1       21 0.56920062E-01 0.26252590E+03</pdfrwt>
<totfact> 0.24873645E+04</totfact>
</mgrwt>
</event>
<event>
 4    0  0.1453204E-001  0.2443212E+03  0.7546771E-02  0.1116947E+00
         21   -1    0    0  502  501  0.00000000000E+00  0.00000000000E+00  0.34095535638E+03  0.34095535638E+03  0.00000000000E+00 0.  1.
         21   -1    0    0  503  502 -0.00000000000E+00 -0.00000000000E+00 -0.15979321044E+03  0.15979321044E+03  0.00000000000E+00 0.  1.
         25    1    1    2    0    0  0.45270989292E+02 -0.20498388663E+03  0.39489957768E+02  0.24749204637E+03  0.12500000000E+03 0.  0.
         21    1    1    2  503  501 -0.45270989292E+02  0.20498388663E+03  0.14167218817E+03  0.25325652045E+03  0.00000000000E+00 0.  1.
<mgrwt>
<rscale>  3 0.24432122E+03</rscale>
<asrwt>0</asrwt>
<pdfrwt beam="1">  1       21 0.52454670E-01 0.24432122E+03</pdfrwt>
<pdfrwt beam="2">  1       21 0.24583571E-01 0.24432122E+03</pdfrwt>
<totfact> 0.52681936E+04</totfact>
</mgrwt>
</event>
<event>
 4    0  0.1500650E-001  0.4303737E+03  0.7546771E-02  0.1033742E+00
         21   -1    0    0  503  501  0.00000000000E+00  0.00000000000E+00  0.31251074795E+03  0.31251074795E+03  0.00000000000E+00 0.  1.
         21   -1    0    0  501  502 -0.00000000000E+00 -0.00000000000E+00 -0.56929220577E+03  0.56929220577E+03  0.00000000000E+00 0.  1.
         25    1    1    2    0    0  0.33862575490E+03  0.23436959984E+03 -0.15652864795E+03  0.45795494193E+03  0.12500000000E+03 0.  0.
         21    1    1    2  503  502 -0.33862575490E+03 -0.23436959984E+03 -0.10025280987E+03  0.42384801179E+03  0.00000000000E+00 0.  1.
<mgrwt>
<rscale>  3 0.43037369E+03</rscale>
<asrwt>0</asrwt>
<pdfrwt beam="1">  1       21 0.48078576E-01 0.43037369E+03</pdfrwt>
<pdfrwt beam="2">  1       21 0.87583417E-01 0.43037369E+03</pdfrwt>
<totfact> 0.40768978E+03</totfact>
</mgrwt>
</event>
<event>
 4    0  0.1704328E-001  0.3175913E+03  0.7546771E-02  0.1076763E+00
         21   -1    0    0  502  501  0.00000000000E+00  0.00000000000E+00  0.41734739842E+03  0.41734739842E+03  0.00000000000E+00 0. -1.
         21   -1    0    0  503  502 -0.00000000000E+00 -0.00000000000E+00 -0.13670837698E+04  0.13670837698E+04  0.00000000000E+00 0.  1.
         25    1    1    2    0    0  0.77346932602E+02 -0.28152559819E+03 -0.12943651173E+04  0.13327585180E+04  0.12500000000E+03 0.  0.
         21    1    1    2  503  501 -0.77346932602E+02  0.28152559819E+03  0.34462874594E+03  0.45167265021E+03  0.00000000000E+00 0. -1.
<mgrwt>
<rscale>  3 0.31759126E+03</rscale>
<asrwt>0</asrwt>
<pdfrwt beam="1">  1       21 0.64207291E-01 0.31759126E+03</pdfrwt>
<pdfrwt beam="2">  1       21 0.21032058E+00 0.31759126E+03</pdfrwt>
<totfact> 0.22740686E+02</totfact>
</mgrwt>
</event>
<event>
 4    0  0.1321967E-001  0.2819057E+03  0.7546771E-02  0.1094653E+00
         21   -1    0    0  502  501  0.00000000000E+00  0.00000000000E+00  0.85368738959E+03  0.85368738959E+03  0.00000000000E+00 0.  1.
         21   -1    0    0  503  502 -0.00000000000E+00 -0.00000000000E+00 -0.10951408649E+03  0.10951408649E+03  0.00000000000E+00 0.  1.
         25    1    1    2    0    0  0.16917226146E+03  0.18768742805E+03  0.15403400346E+03  0.32124336401E+03  0.12500000000E+03 0.  0.
         21    1    1    2  503  501 -0.16917226146E+03 -0.18768742805E+03  0.59013929963E+03  0.64195811208E+03  0.00000000000E+00 0.  1.
<mgrwt>
<rscale>  3 0.28190570E+03</rscale>
<asrwt>0</asrwt>
<pdfrwt beam="1">  1       21 0.13133652E+00 0.28190570E+03</pdfrwt>
<pdfrwt beam="2">  1       21 0.16848322E-01 0.28190570E+03</pdfrwt>
<totfact> 0.12665300E+04</totfact>
</mgrwt>
</event>
<event>
 4    0  0.1005289E-001  0.2772349E+03  0.7546771E-02  0.1097209E+00
         21   -1    0    0  503  501  0.00000000000E+00  0.00000000000E+00  0.19949911464E+04  0.19949911464E+04  0.00000000000E+00 0.  1.
         21   -1    0    0  501  502 -0.00000000000E+00 -0.00000000000E+00 -0.35814619259E+02  0.35814619259E+02  0.00000000000E+00 0.  1.
         25    1    1    2    0    0 -0.22266896318E+03 -0.10794769884E+03  0.12274635883E+04  0.12583823082E+04  0.12500000000E+03 0.  0.
         21    1    1    2  503  502  0.22266896318E+03  0.10794769884E+03  0.73171293879E+03  0.77242345747E+03  0.00000000000E+00 0.  1.
<mgrwt>
<rscale>  3 0.27723487E+03</rscale>
<asrwt>0</asrwt>
<pdfrwt beam="1">  1       21 0.30692163E+00 0.27723487E+03</pdfrwt>
<pdfrwt beam="2">  1       21 0.55099430E-02 0.27723487E+03</pdfrwt>
<totfact> 0.65519815E+03</totfact>
</mgrwt>
</event>
<event>
 4    0  0.1639722E-001  0.2778906E+03  0.7546771E-02  0.1096847E+00
         21   -1    0    0  502  501  0.00000000000E+00  0.00000000000E+00  0.90812582584E+03  0.90812582584E+03  0.00000000000E+00 0. -1.
         21   -1    0    0  503  502 -0.00000000000E+00 -0.00000000000E+00 -0.89539385019E+02  0.89539385019E+02  0.00000000000E+00 0. -1.
         25    1    1    2    0    0  0.24575372569E+03 -0.34688672346E+02  0.23660753735E+03  0.36497441610E+03  0.12500000000E+03 0.  0.
         21    1    1    2  503  501 -0.24575372569E+03  0.34688672346E+02  0.58197890348E+03  0.63269079476E+03  0.00000000000E+00 0. -1.
<mgrwt>
<rscale>  3 0.27789062E+03</rscale>
<asrwt>0</asrwt>
<pdfrwt beam="1">  1       21 0.13971166E+00 0.27789062E+03</pdfrwt>
<pdfrwt beam="2">  1       21 0.13775291E-01 0.27789062E+03</pdfrwt>
<totfact> 0.15663213E+04</totfact>
</mgrwt>
</event>
<event>
 4    0  0.1005289E-001  0.2411635E+03  0.7546771E-02  0.1119020E+00
         21   -1    0    0  502  501  0.00000000000E+00  0.00000000000E+00  0.10693226539E+04  0.10693226539E+04  0.00000000000E+00 0.  1.
         21   -1    0    0  503  502 -0.00000000000E+00 -0.00000000000E+00 -0.51223611761E+02  0.51223611761E+02  0.00000000000E+00 0.  1.
         25    1    1    2    0    0 -0.20225390125E+03  0.40351145814E+02  0.70957255875E+03  0.74943516843E+03  0.12500000000E+03 0.  0.
         21    1    1    2  503  501  0.20225390125E+03 -0.40351145814E+02  0.30852648337E+03  0.37111109722E+03  0.00000000000E+00 0.  1.
<mgrwt>
<rscale>  3 0.24116355E+03</rscale>
<asrwt>0</asrwt>
<pdfrwt beam="1">  1       21 0.16451116E+00 0.24116355E+03</pdfrwt>
<pdfrwt beam="2">  1       21 0.78805564E-02 0.24116355E+03</pdfrwt>
<totfact> 0.27918424E+04</totfact>
</mgrwt>
</event>
<event>
 4    0  0.1631508E-001  0.2989649E+03  0.7546771E-02  0.1085759E+00
         21   -1    0    0  503  501  0.00000000000E+00  0.00000000000E+00  0.66932537763E+03  0.66932537763E+03  0.00000000000E+00 0.  1.
         21   -1    0    0  501  502 -0.00000000000E+00 -0.00000000000E+00 -0.29214261144E+03  0.29214261144E+03  0.00000000000E+00 0. -1.
         25    1    1    2    0    0 -0.17658592619E+03 -0.20633091817E+03 -0.17478342883E+03  0.34630807688E+03  0.12500000000E+03 0.  0.
         21    1    1    2  503  502  0.17658592619E+03  0.20633091817E+03  0.55196619502E+03  0.61515991219E+03  0.00000000000E+00 0.  1.
<mgrwt>
<rscale>  3 0.29896494E+03</rscale>
<asrwt>0</asrwt>
<pdfrwt beam="1">  1       21 0.10297313E+00 0.29896494E+03</pdfrwt>
<pdfrwt beam="2">  1       21 0.44945017E-01 0.29896494E+03</pdfrwt>
<totfact> 0.33814350E+03</totfact>
</mgrwt>
</event>
<event>
 4    0  0.1005289E-001  0.2389408E+03  0.7546771E-02  0.1120500E+00
         21   -1    0    0  503  501  0.00000000000E+00  0.00000000000E+00  0.22119403310E+02  0.22119403310E+02  0.00000000000E+00 0. -1.
         21   -1    0    0  501  502 -0.00000000000E+00 -0.00000000000E+00 -0.26114427685E+04  0.26114427685E+04  0.00000000000E+00 0. -1.
         25    1    1    2    0    0  0.20108711986E+03  0.32119414553E+02 -0.18946367624E+04  0.19096442464E+04  0.12500000000E+03 0.  0.
         21    1    1    2  503  502 -0.20108711986E+03 -0.32119414553E+02 -0.69468660285E+03  0.72391792542E+03  0.00000000000E+00 0. -1.
<mgrwt>
<rscale>  3 0.23894076E+03</rscale>
<asrwt>0</asrwt>
<pdfrwt beam="1">  1       21 0.34029870E-02 0.23894076E+03</pdfrwt>
<pdfrwt beam="2">  1       21 0.40176021E+00 0.23894076E+03</pdfrwt>
<totfact> 0.41155470E+03</totfact>
</mgrwt>
</event>
<event>
 4    0  0.1005289E-001  0.3082583E+03  0.7546771E-02  0.1081184E+00
         21   -1    0    0  503  501  0.00000000000E+00  0.00000000000E+00  0.20467487962E+04  0.20467487962E+04  0.00000000000E+00 0.  1.
         21   -1    0    0  501  502 -0.00000000000E+00 -0.00000000000E+00 -0.68927201629E+02  0.68927201629E+02  0.00000000000E+00 0.  1.
         25    1    1    2    0    0 -0.22093175453E+03 -0.17489244469E+03  0.36198140210E+03  0.47545109405E+03  0.12500000000E+03 0.  0.
         21    1    1    2  503  502  0.22093175453E+03  0.17489244469E+03  0.16158401925E+04  0.16402249038E+04  0.00000000000E+00 0.  1.
<mgrwt>
<rscale>  3 0.30825835E+03</rscale>
<asrwt>0</asrwt>
<pdfrwt beam="1">  1       21 0.31488438E+00 0.30825835E+03</pdfrwt>
<pdfrwt beam="2">  1       21 0.10604186E-01 0.30825835E+03</pdfrwt>
<totfact> 0.18212330E+03</totfact>
</mgrwt>
</event>
<event>
 4    0  0.1593017E-001  0.2986737E+03  0.7546771E-02  0.1085905E+00
         21   -1    0    0  502  501  0.00000000000E+00  0.00000000000E+00  0.19176909294E+03  0.19176909294E+03  0.00000000000E+00 0. -1.
         21   -1    0    0  503  502 -0.00000000000E+00 -0.00000000000E+00 -0.44077778745E+03  0.44077778745E+03  0.00000000000E+00 0. -1.
         25    1    1    2    0    0 -0.17675410385E+03  0.20576440524E+03 -0.19288728977E+03  0.35554396387E+03  0.12500000000E+03 0.  0.
         21    1    1    2  503  501  0.17675410385E+03 -0.20576440524E+03 -0.56121404746E+02  0.27700291652E+03  0.00000000000E+00 0. -1.
<mgrwt>
<rscale>  3 0.29867374E+03</rscale>
<asrwt>0</asrwt>
<pdfrwt beam="1">  1       21 0.29502938E-01 0.29867374E+03</pdfrwt>
<pdfrwt beam="2">  1       21 0.67811966E-01 0.29867374E+03</pdfrwt>
<totfact> 0.20758312E+04</totfact>
</mgrwt>
</event>
<event>
 4    0  0.1005289E-001  0.2678899E+03  0.7546771E-02  0.1102493E+00
         21   -1    0    0  503  501  0.00000000000E+00  0.00000000000E+00  0.16923485535E+04  0.16923485535E+04  0.00000000000E+00 0.  1.
         21   -1    0    0  501  502 -0.00000000000E+00 -0.00000000000E+00 -0.14641317620E+03  0.14641317620E+03  0.00000000000E+00 0.  1.
         25    1    1    2    0    0 -0.35769525128E+02  0.23422326005E+03 -0.68753642501E+01  0.26797810566E+03  0.12500000000E+03 0.  0.
         21    1    1    2  503  502  0.35769525128E+02 -0.23422326005E+03  0.15528107416E+04  0.15707836241E+04  0.00000000000E+00 0.  1.
<mgrwt>
<rscale>  3 0.26788989E+03</rscale>
<asrwt>0</asrwt>
<pdfrwt beam="1">  1       21 0.26036130E+00 0.26788989E+03</pdfrwt>
<pdfrwt beam="2">  1       21 0.22525105E-01 0.26788989E+03</pdfrwt>
<totfact> 0.98511799E+02</totfact>
</mgrwt>
</event>
<event>
 4    0  0.1209385E-001  0.2436443E+03  0.7546771E-02  0.1117389E+00
         21   -1    0    0  502  501  0.00000000000E+00  0.00000000000E+00  0.45392006164E+03  0.45392006164E+03  0.00000000000E+00 0. -1.
         21   -1    0    0  503  502 -0.00000000000E+00 -0.00000000000E+00 -0.20113299165E+03  0.20113299165E+03  0.00000000000E+00 0.  1.
         25    1    1    2    0    0  0.19596785168E+03 -0.73035114215E+02 -0.84762214544E+02  0.25796736192E+03  0.12500000000E+03 0.  0.
         21    1    1    2  503  501 -0.19596785168E+03  0.73035114215E+02  0.33754928454E+03  0.39708569137E+03  0.00000000000E+00 0. -1.
<mgrwt>
<rscale>  3 0.24364426E+03</rscale>
<asrwt>0</asrwt>
<pdfrwt beam="1">  1       21 0.69833855E-01 0.24364426E+03</pdfrwt>
<pdfrwt beam="2">  1       21 0.30943537E-01 0.24364426E+03</pdfrwt>
<totfact> 0.18151398E+04</totfact>
</mgrwt>
</event>
<event>
 4    0  0.1005289E-001  0.2896487E+03  0.7546771E-02  0.1090533E+00
         21   -1    0    0  502  501  0.00000000000E+00  0.00000000000E+00  0.42801973713E+03  0.42801973713E+03  0.00000000000E+00 0.  1.
         21   -1    0    0  503  502 -0.00000000000E+00 -0.00000000000E+00 -0.20640793608E+03  0.20640793608E+03  0.00000000000E+00 0. -1.
         25    1    1    2    0    0  0.22304997819E+03  0.13608858791E+03 -0.33061861105E+01  0.28966761537E+03  0.12500000000E+03 0.  0.
         21    1    1    2  503  501 -0.22304997819E+03 -0.13608858791E+03  0.22491798717E+03  0.34476005784E+03  0.00000000000E+00 0.  1.
<mgrwt>
<rscale>  3 0.28964875E+03</rscale>
<asrwt>0</asrwt>
<pdfrwt beam="1">  1       21 0.65849190E-01 0.28964875E+03</pdfrwt>
<pdfrwt beam="2">  1       21 0.31755067E-01 0.28964875E+03</pdfrwt>
<totfact> 0.19228496E+04</totfact>
</mgrwt>
</event>
<event>
 4    0  0.1619185E-001  0.2581660E+03  0.7546771E-02  0.1108250E+00
         21   -1    0    0  503  501  0.00000000000E+00  0.00000000000E+00  0.21887296349E+03  0.21887296349E+03  0.00000000000E+00 0. -1.
         21   -1    0    0  501  502 -0.00000000000E+00 -0.00000000000E+00 -0.30134090573E+03  0.30134090573E+03  0.00000000000E+00 0. -1.
         25    1    1    2    0    0  0.12422337361E+03  0.18866164482E+03 -0.13050364627E+03  0.28927644990E+03  0.12500000000E+03 0.  0.
         21    1    1    2  503  502 -0.12422337361E+03 -0.18866164482E+03  0.48035704023E+02  0.23093741931E+03  0.00000000000E+00 0. -1.
<mgrwt>
<rscale>  3 0.25816596E+03</rscale>
<asrwt>0</asrwt>
<pdfrwt beam="1">  1       21 0.33672764E-01 0.25816596E+03</pdfrwt>
<pdfrwt beam="2">  1       21 0.46360139E-01 0.25816596E+03</pdfrwt>
<totfact> 0.36716498E+04</totfact>
</mgrwt>
</event>
<event>
 4    0  0.1005289E-001  0.2709110E+03  0.7546771E-02  0.1100759E+00
         21   -1    0    0  503  501  0.00000000000E+00  0.00000000000E+00  0.23815266450E+04  0.23815266450E+04  0.00000000000E+00 0. -1.
         21   -1    0    0  501  502 -0.00000000000E+00 -0.00000000000E+00 -0.35293719252E+02  0.35293719252E+02  0.00000000000E+00 0. -1.
         25    1    1    2    0    0 -0.72947416752E+02 -0.22901184827E+03  0.65835480362E+03  0.71191558468E+03  0.12500000000E+03 0.  0.
         21    1    1    2  503  502  0.72947416752E+02  0.22901184827E+03  0.16878781221E+04  0.17049047796E+04  0.00000000000E+00 0. -1.
<mgrwt>
<rscale>  3 0.27091097E+03</rscale>
<asrwt>0</asrwt>
<pdfrwt beam="1">  1       21 0.36638859E+00 0.27091097E+03</pdfrwt>
<pdfrwt beam="2">  1       21 0.54298048E-02 0.27091097E+03</pdfrwt>
<totfact> 0.29877254E+03</totfact>
</mgrwt>
</event>
<event>
 4    0  0.1122576E-001  0.3503685E+03  0.7546771E-02  0.1062464E+00
         21   -1    0    0  502  501  0.00000000000E+00  0.00000000000E+00  0.89316884848E+03  0.89316884848E+03  0.00000000000E+00 0. -1.
         21   -1    0    0  503  502 -0.00000000000E+00 -0.00000000000E+00 -0.20078362413E+03  0.20078362413E+03  0.00000000000E+00 0. -1.
         25    1    1    2    0    0 -0.19733966273E+03 -0.26113243138E+03  0.25768718617E+02  0.35131483895E+03  0.12500000000E+03 0.  0.
         21    1    1    2  503  501  0.19733966273E+03  0.26113243138E+03  0.66661650573E+03  0.74263763366E+03  0.00000000000E+00 0. -1.
<mgrwt>
<rscale>  3 0.35036850E+03</rscale>
<asrwt>0</asrwt>
<pdfrwt beam="1">  1       21 0.13741059E+00 0.35036850E+03</pdfrwt>
<pdfrwt beam="2">  1       21 0.30889789E-01 0.35036850E+03</pdfrwt>
<totfact> 0.34134804E+03</totfact>
</mgrwt>
</event>
<event>
 4    0  0.1580962E-001  0.2534943E+03  0.7546771E-02  0.1111116E+00
         21   -1    0    0  502  501  0.00000000000E+00  0.00000000000E+00  0.23681920851E+03  0.23681920851E+03  0.00000000000E+00 0. -1.
         21   -1    0    0  503  502 -0.00000000000E+00 -0.00000000000E+00 -0.33441657816E+03  0.33441657816E+03  0.00000000000E+00 0. -1.
         25    1    1    2    0    0 -0.20932347391E+03  0.69412224669E+02 -0.20493231813E+03  0.32597028803E+03  0.12500000000E+03 0.  0.
         21    1    1    2  503  501  0.20932347391E+03 -0.69412224669E+02  0.10733494848E+03  0.24526549865E+03  0.00000000000E+00 0. -1.
<mgrwt>
<rscale>  3 0.25349433E+03</rscale>
<asrwt>0</asrwt>
<pdfrwt beam="1">  1       21 0.36433725E-01 0.25349433E+03</pdfrwt>
<pdfrwt beam="2">  1       21 0.51448704E-01 0.25349433E+03</pdfrwt>
<totfact> 0.25274522E+04</totfact>
</mgrwt>
</event>
<event>
 4    0  0.1396929E-001  0.2469555E+03  0.7546771E-02  0.1115244E+00
         21   -1    0    0  503  501  0.00000000000E+00  0.00000000000E+00  0.44081062355E+03  0.44081062355E+03  0.00000000000E+00 0. -1.
         21   -1    0    0  501  502 -0.00000000000E+00 -0.00000000000E+00 -0.18712746984E+03  0.18712746984E+03  0.00000000000E+00 0. -1.
         25    1    1    2    0    0  0.17333980423E+03 -0.12375505653E+03 -0.54906216474E+02  0.25298556155E+03  0.12500000000E+03 0.  0.
         21    1    1    2  503  502 -0.17333980423E+03  0.12375505653E+03  0.30858937018E+03  0.37495253184E+03  0.00000000000E+00 0. -1.
<mgrwt>
<rscale>  3 0.24695547E+03</rscale>
<asrwt>0</asrwt>
<pdfrwt beam="1">  1       21 0.67817019E-01 0.24695547E+03</pdfrwt>
<pdfrwt beam="2">  1       21 0.28788842E-01 0.24695547E+03</pdfrwt>
<totfact> 0.22272563E+04</totfact>
</mgrwt>
</event>
<event>
 4    0  0.1005289E-001  0.3069968E+03  0.7546771E-02  0.1081794E+00
         21   -1    0    0  502  501  0.00000000000E+00  0.00000000000E+00  0.23522983584E+03  0.23522983584E+03  0.00000000000E+00 0. -1.
         21   -1    0    0  503  502 -0.00000000000E+00 -0.00000000000E+00 -0.38237956694E+03  0.38237956694E+03  0.00000000000E+00 0.  1.
         25    1    1    2    0    0  0.24438940125E+03  0.13746227258E+03 -0.14289926999E+02  0.30732923363E+03  0.12500000000E+03 0.  0.
         21    1    1    2  503  501 -0.24438940125E+03 -0.13746227258E+03 -0.13285980409E+03  0.31028016916E+03  0.00000000000E+00 0. -1.
<mgrwt>
<rscale>  3 0.30699683E+03</rscale>
<asrwt>0</asrwt>
<pdfrwt beam="1">  1       21 0.36189206E-01 0.30699683E+03</pdfrwt>
<pdfrwt beam="2">  1       21 0.58827625E-01 0.30699683E+03</pdfrwt>
<totfact> 0.18813341E+04</totfact>
</mgrwt>
</event>
<event>
 4    0  0.1505739E-001  0.2895807E+03  0.7546771E-02  0.1090568E+00
         21   -1    0    0  502  501  0.00000000000E+00  0.00000000000E+00  0.17150611523E+03  0.17150611523E+03  0.00000000000E+00 0. -1.
         21   -1    0    0  503  502 -0.00000000000E+00 -0.00000000000E+00 -0.53692504288E+03  0.53692504288E+03  0.00000000000E+00 0. -1.
         25    1    1    2    0    0 -0.11355575702E+01  0.26121004240E+03 -0.33906184423E+03  0.44589226272E+03  0.12500000000E+03 0.  0.
         21    1    1    2  503  501  0.11355575702E+01 -0.26121004240E+03 -0.26357083419E+02  0.26253889539E+03  0.00000000000E+00 0. -1.
<mgrwt>
<rscale>  3 0.28958069E+03</rscale>
<asrwt>0</asrwt>
<pdfrwt beam="1">  1       21 0.26385557E-01 0.28958069E+03</pdfrwt>
<pdfrwt beam="2">  1       21 0.82603851E-01 0.28958069E+03</pdfrwt>
<totfact> 0.16598502E+04</totfact>
</mgrwt>
</event>
<event>
 4    0  0.1358481E-001  0.3476144E+03  0.7546771E-02  0.1063598E+00
         21   -1    0    0  502  501  0.00000000000E+00  0.00000000000E+00  0.19462188494E+03  0.19462188494E+03  0.00000000000E+00 0. -1.
         21   -1    0    0  503  502 -0.00000000000E+00 -0.00000000000E+00 -0.79987092424E+03  0.79987092424E+03  0.00000000000E+00 0. -1.
         25    1    1    2    0    0 -0.15869502348E+03  0.28288980250E+03 -0.57078523625E+03  0.66830497287E+03  0.12500000000E+03 0.  0.
         21    1    1    2  503  501  0.15869502348E+03 -0.28288980250E+03 -0.34463803042E+02  0.32618783631E+03  0.00000000000E+00 0. -1.
<mgrwt>
<rscale>  3 0.34761437E+03</rscale>
<asrwt>0</asrwt>
<pdfrwt beam="1">  1       21 0.29941828E-01 0.34761437E+03</pdfrwt>
<pdfrwt beam="2">  1       21 0.12305707E+00 0.34761437E+03</pdfrwt>
<totfact> 0.48298981E+03</totfact>
</mgrwt>
</event>
<event>
 4    0  0.1005289E-001  0.2427855E+03  0.7546771E-02  0.1117951E+00
         21   -1    0    0  503  501  0.00000000000E+00  0.00000000000E+00  0.11581837507E+04  0.11581837507E+04  0.00000000000E+00 0. -1.
         21   -1    0    0  501  502 -0.00000000000E+00 -0.00000000000E+00 -0.50658758569E+02  0.50658758569E+02  0.00000000000E+00 0.  1.
         25    1    1    2    0    0 -0.33998923526E+02 -0.20533837565E+03  0.37025203629E+03  0.44275427236E+03  0.12500000000E+03 0.  0.
         21    1    1    2  503  502  0.33998923526E+02  0.20533837565E+03  0.73727295587E+03  0.76608823693E+03  0.00000000000E+00 0. -1.
<mgrwt>
<rscale>  3 0.24278545E+03</rscale>
<asrwt>0</asrwt>
<pdfrwt beam="1">  1       21 0.17818210E+00 0.24278545E+03</pdfrwt>
<pdfrwt beam="2">  1       21 0.77936561E-02 0.24278545E+03</pdfrwt>
<totfact> 0.22761839E+04</totfact>
</mgrwt>
</event>
<event>
 4    0  0.1005289E-001  0.2974881E+03  0.7546771E-02  0.1086503E+00
         21   -1    0    0  503  501  0.00000000000E+00  0.00000000000E+00  0.27457786227E+04  0.27457786227E+04  0.00000000000E+00 0. -1.
         21   -1    0    0  501  502 -0.00000000000E+00 -0.00000000000E+00 -0.29819044813E+02  0.29819044813E+02  0.00000000000E+00 0. -1.
         25    1    1    2    0    0  0.84004429553E+00  0.26995080949E+03  0.12428433891E+04  0.12779510300E+04  0.12500000000E+03 0.  0.
         21    1    1    2  503  502 -0.84004429553E+00 -0.26995080949E+03  0.14731161887E+04  0.14976466375E+04  0.00000000000E+00 0. -1.
<mgrwt>
<rscale>  3 0.29748806E+03</rscale>
<asrwt>0</asrwt>
<pdfrwt beam="1">  1       21 0.42242728E+00 0.29748806E+03</pdfrwt>
<pdfrwt beam="2">  1       21 0.45875475E-02 0.29748806E+03</pdfrwt>
<totfact> 0.17281723E+03</totfact>
</mgrwt>
</event>
<event>
 4    0  0.1005289E-001  0.2526949E+03  0.7546771E-02  0.1111613E+00
         21   -1    0    0  502  501  0.00000000000E+00  0.00000000000E+00  0.48583868885E+02  0.48583868885E+02  0.00000000000E+00 0. -1.
         21   -1    0    0  503  502 -0.00000000000E+00 -0.00000000000E+00 -0.12251047399E+04  0.12251047399E+04  0.00000000000E+00 0.  1.
         25    1    1    2    0    0 -0.48317945570E+02  0.21423138288E+03 -0.78638751318E+03  0.82599033297E+03  0.12500000000E+03 0.  0.
         21    1    1    2  503  501  0.48317945570E+02 -0.21423138288E+03 -0.39013335787E+03  0.44769827585E+03  0.00000000000E+00 0. -1.
<mgrwt>
<rscale>  3 0.25269489E+03</rscale>
<asrwt>0</asrwt>
<pdfrwt beam="1">  1       21 0.74744418E-02 0.25269489E+03</pdfrwt>
<pdfrwt beam="2">  1       21 0.18847764E+00 0.25269489E+03</pdfrwt>
<totfact> 0.20718585E+04</totfact>
</mgrwt>
</event>
<event>
 4    0  0.1005289E-001  0.3263401E+03  0.7546771E-02  0.1072768E+00
         21   -1    0    0  502  501  0.00000000000E+00  0.00000000000E+00  0.24268780116E+04  0.24268780116E+04  0.00000000000E+00 0. -1.
         21   -1    0    0  503  502 -0.00000000000E+00 -0.00000000000E+00 -0.44411219573E+02  0.44411219573E+02  0.00000000000E+00 0. -1.
         25    1    1    2    0    0  0.16493269616E+03  0.25232931510E+03  0.87267706768E+03  0.93169906191E+03  0.12500000000E+03 0.  0.
         21    1    1    2  503  501 -0.16493269616E+03 -0.25232931510E+03  0.15097897243E+04  0.15395901692E+04  0.00000000000E+00 0. -1.
<mgrwt>
<rscale>  3 0.32634013E+03</rscale>
<asrwt>0</asrwt>
<pdfrwt beam="1">  1       21 0.37336574E+00 0.32634013E+03</pdfrwt>
<pdfrwt beam="2">  1       21 0.68324972E-02 0.32634013E+03</pdfrwt>
<totfact> 0.17329527E+03</totfact>
</mgrwt>
</event>
<event>
 4    0  0.1428367E-001  0.3023231E+03  0.7546771E-02  0.1084085E+00
         21   -1    0    0  503  501  0.00000000000E+00  0.00000000000E+00  0.49811992934E+03  0.49811992934E+03  0.00000000000E+00 0. -1.
         21   -1    0    0  501  502 -0.00000000000E+00 -0.00000000000E+00 -0.18577463942E+03  0.18577463942E+03  0.00000000000E+00 0. -1.
         25    1    1    2    0    0  0.19727251125E+03  0.19198392150E+03  0.55438985049E+02  0.30736419908E+03  0.12500000000E+03 0.  0.
         21    1    1    2  503  502 -0.19727251125E+03 -0.19198392150E+03  0.25690630487E+03  0.37653036968E+03  0.00000000000E+00 0. -1.
<mgrwt>
<rscale>  3 0.30232312E+03</rscale>
<asrwt>0</asrwt>
<pdfrwt beam="1">  1       21 0.76633835E-01 0.30232312E+03</pdfrwt>
<pdfrwt beam="2">  1       21 0.28580714E-01 0.30232312E+03</pdfrwt>
<totfact> 0.16769132E+04</totfact>
</mgrwt>
</event>
<event>
 4    0  0.1108267E-001  0.2897296E+03  0.7546771E-02  0.1090490E+00
         21   -1    0    0  503  501  0.00000000000E+00  0.00000000000E+00  0.26011733688E+03  0.26011733688E+03  0.00000000000E+00 0. -1.
         21   -1    0    0  501  502 -0.00000000000E+00 -0.00000000000E+00 -0.44791392361E+03  0.44791392361E+03  0.00000000000E+00 0.  1.
         25    1    1    2    0    0  0.19422560012E+03 -0.17491326766E+03 -0.30579514730E+03  0.42125278285E+03  0.12500000000E+03 0.  0.
         21    1    1    2  503  502 -0.19422560012E+03  0.17491326766E+03  0.11799856057E+03  0.28677847765E+03  0.00000000000E+00 0. -1.
<mgrwt>
<rscale>  3 0.28972959E+03</rscale>
<asrwt>0</asrwt>
<pdfrwt beam="1">  1       21 0.40018052E-01 0.28972959E+03</pdfrwt>
<pdfrwt beam="2">  1       21 0.68909835E-01 0.28972959E+03</pdfrwt>
<totfact> 0.10925675E+04</totfact>
</mgrwt>
</event>
<event>
 4    0  0.1190419E-001  0.2781075E+03  0.7546771E-02  0.1096727E+00
         21   -1    0    0  503  501  0.00000000000E+00  0.00000000000E+00  0.15489425783E+04  0.15489425783E+04  0.00000000000E+00 0. -1.
         21   -1    0    0  501  502 -0.00000000000E+00 -0.00000000000E+00 -0.44914580866E+02  0.44914580866E+02  0.00000000000E+00 0. -1.
         25    1    1    2    0    0  0.14887676611E+03  0.19888303715E+03  0.74569037397E+03  0.79586298305E+03  0.12500000000E+03 0.  0.
         21    1    1    2  503  502 -0.14887676611E+03 -0.19888303715E+03  0.75833762344E+03  0.79799417609E+03  0.00000000000E+00 0. -1.
<mgrwt>
<rscale>  3 0.27810745E+03</rscale>
<asrwt>0</asrwt>
<pdfrwt beam="1">  1       21 0.23829882E+00 0.27810745E+03</pdfrwt>
<pdfrwt beam="2">  1       21 0.69099367E-02 0.27810745E+03</pdfrwt>
<totfact> 0.11295154E+04</totfact>
</mgrwt>
</event>
<event>
 4    0  0.1304648E-001  0.2499357E+03  0.7546771E-02  0.1113345E+00
         21   -1    0    0  502  501  0.00000000000E+00  0.00000000000E+00  0.58463059209E+03  0.58463059209E+03  0.00000000000E+00 0.  1.
         21   -1    0    0  503  502 -0.00000000000E+00 -0.00000000000E+00 -0.94048795140E+02  0.94048795140E+02  0.00000000000E+00 0.  1.
         25    1    1    2    0    0 -0.69036933498E+02 -0.20512624640E+03  0.29834044572E+03  0.38919776040E+03  0.12500000000E+03 0.  0.
         21    1    1    2  503  501  0.69036933498E+02  0.20512624640E+03  0.19224135123E+03  0.28948162683E+03  0.00000000000E+00 0.  1.
<mgrwt>
<rscale>  3 0.24993574E+03</rscale>
<asrwt>0</asrwt>
<pdfrwt beam="1">  1       21 0.89943166E-01 0.24993574E+03</pdfrwt>
<pdfrwt beam="2">  1       21 0.14469046E-01 0.24993574E+03</pdfrwt>
<totfact> 0.42880088E+04</totfact>
</mgrwt>
</event>
<event>
 4    0  0.1005289E-001  0.2937291E+03  0.7546771E-02  0.1088418E+00
         21   -1    0    0  503  501  0.00000000000E+00  0.00000000000E+00  0.82675113081E+03  0.82675113081E+03  0.00000000000E+00 0.  1.
         21   -1    0    0  501  502 -0.00000000000E+00 -0.00000000000E+00 -0.11307369788E+03  0.11307369788E+03  0.00000000000E+00 0.  1.
         25    1    1    2    0    0 -0.22546765570E+03 -0.14076973026E+03  0.56112490337E+03  0.63335451202E+03  0.12500000000E+03 0.  0.
         21    1    1    2  503  502  0.22546765570E+03  0.14076973026E+03  0.15255252955E+03  0.30647031666E+03  0.00000000000E+00 0.  1.
<mgrwt>
<rscale>  3 0.29372909E+03</rscale>
<asrwt>0</asrwt>
<pdfrwt beam="1">  1       21 0.12719248E+00 0.29372909E+03</pdfrwt>
<pdfrwt beam="2">  1       21 0.17395954E-01 0.29372909E+03</pdfrwt>
<totfact> 0.12880274E+04</totfact>
</mgrwt>
</event>
<event>
 4    0  0.1137137E-001  0.2705949E+03  0.7546771E-02  0.1100940E+00
         21   -1    0    0  502  501  0.00000000000E+00  0.00000000000E+00  0.45574993604E+02  0.45574993604E+02  0.00000000000E+00 0.  1.
         21   -1    0    0  503  502 -0.00000000000E+00 -0.00000000000E+00 -0.14347206958E+04  0.14347206958E+04  0.00000000000E+00 0.  1.
         25    1    1    2    0    0  0.19504926442E+03 -0.13982975068E+03 -0.77817841741E+03  0.82388301600E+03  0.12500000000E+03 0.  0.
         21    1    1    2  503  501 -0.19504926442E+03  0.13982975068E+03 -0.61096728477E+03  0.65641267339E+03  0.00000000000E+00 0.  1.
<mgrwt>
<rscale>  3 0.27059485E+03</rscale>
<asrwt>0</asrwt>
<pdfrwt beam="1">  1       21 0.70115381E-02 0.27059485E+03</pdfrwt>
<pdfrwt beam="2">  1       21 0.22072624E+00 0.27059485E+03</pdfrwt>
<totfact> 0.14192303E+04</totfact>
</mgrwt>
</event>
<event>
 4    0  0.1270533E-001  0.2620695E+03  0.7546771E-02  0.1105906E+00
         21   -1    0    0  502  501  0.00000000000E+00  0.00000000000E+00  0.92123363849E+02  0.92123363849E+02  0.00000000000E+00 0. -1.
         21   -1    0    0  503  502 -0.00000000000E+00 -0.00000000000E+00 -0.10555942223E+04  0.10555942223E+04  0.00000000000E+00 0. -1.
         25    1    1    2    0    0  0.10621498088E+03  0.20438636289E+03 -0.85282463189E+03  0.89218286257E+03  0.12500000000E+03 0.  0.
         21    1    1    2  503  501 -0.10621498088E+03 -0.20438636289E+03 -0.11064622655E+03  0.25553472357E+03  0.00000000000E+00 0. -1.
<mgrwt>
<rscale>  3 0.26206947E+03</rscale>
<asrwt>0</asrwt>
<pdfrwt beam="1">  1       21 0.14172825E-01 0.26206947E+03</pdfrwt>
<pdfrwt beam="2">  1       21 0.16239912E+00 0.26206947E+03</pdfrwt>
<totfact> 0.10028138E+04</totfact>
</mgrwt>
</event>
<event>
 4    0  0.1107670E-001  0.2389856E+03  0.7546771E-02  0.1120470E+00
         21   -1    0    0  503  501  0.00000000000E+00  0.00000000000E+00  0.15368339431E+04  0.15368339431E+04  0.00000000000E+00 0. -1.
         21   -1    0    0  501  502 -0.00000000000E+00 -0.00000000000E+00 -0.67707084390E+02  0.67707084390E+02  0.00000000000E+00 0. -1.
         25    1    1    2    0    0  0.18862176130E+03 -0.76882618319E+02  0.17939925149E+03  0.29882803964E+03  0.12500000000E+03 0.  0.
         21    1    1    2  503  502 -0.18862176130E+03  0.76882618319E+02  0.12897276073E+04  0.13057129879E+04  0.00000000000E+00 0. -1.
<mgrwt>
<rscale>  3 0.23898558E+03</rscale>
<asrwt>0</asrwt>
<pdfrwt beam="1">  1       21 0.23643596E+00 0.23898558E+03</pdfrwt>
<pdfrwt beam="2">  1       21 0.10416476E-01 0.23898558E+03</pdfrwt>
<totfact> 0.57923166E+03</totfact>
</mgrwt>
</event>
<event>
 4    0  0.1005289E-001  0.2373561E+03  0.7546771E-02  0.1121567E+00
         21   -1    0    0  502  501  0.00000000000E+00  0.00000000000E+00  0.27952719256E+03  0.27952719256E+03  0.00000000000E+00 0.  1.
         21   -1    0    0  503  502 -0.00000000000E+00 -0.00000000000E+00 -0.21410579615E+03  0.21410579615E+03  0.00000000000E+00 0. -1.
         25    1    1    2    0    0 -0.20139026699E+03  0.12444216776E+02 -0.73712794743E+02  0.24853867763E+03  0.12500000000E+03 0.  0.
         21    1    1    2  503  501  0.20139026699E+03 -0.12444216776E+02  0.13913419115E+03  0.24509431107E+03  0.00000000000E+00 0.  1.
<mgrwt>
<rscale>  3 0.23735606E+03</rscale>
<asrwt>0</asrwt>
<pdfrwt beam="1">  1       21 0.43004184E-01 0.23735606E+03</pdfrwt>
<pdfrwt beam="2">  1       21 0.32939353E-01 0.23735606E+03</pdfrwt>
<totfact> 0.45181951E+04</totfact>
</mgrwt>
</event>
<event>
 4    0  0.1005289E-001  0.4192565E+03  0.7546771E-02  0.1037309E+00
         21   -1    0    0  503  501  0.00000000000E+00  0.00000000000E+00  0.34010420890E+03  0.34010420890E+03  0.00000000000E+00 0. -1.
         21   -1    0    0  501  502 -0.00000000000E+00 -0.00000000000E+00 -0.49359421520E+03  0.49359421520E+03  0.00000000000E+00 0.  1.
         25    1    1    2    0    0  0.39449670811E+03  0.67256007465E+02 -0.79464020701E+02  0.42672069769E+03  0.12500000000E+03 0.  0.
         21    1    1    2  503  502 -0.39449670811E+03 -0.67256007465E+02 -0.74025985604E+02  0.40697772641E+03  0.00000000000E+00 0. -1.
<mgrwt>
<rscale>  3 0.41925651E+03</rscale>
<asrwt>0</asrwt>
<pdfrwt beam="1">  1       21 0.52323724E-01 0.41925651E+03</pdfrwt>
<pdfrwt beam="2">  1       21 0.75937572E-01 0.41925651E+03</pdfrwt>
<totfact> 0.47586137E+03</totfact>
</mgrwt>
</event>
<event>
 4    0  0.1637770E-001  0.3257559E+03  0.7546771E-02  0.1073030E+00
         21   -1    0    0  502  501  0.00000000000E+00  0.00000000000E+00  0.34308131256E+03  0.34308131256E+03  0.00000000000E+00 0. -1.
         21   -1    0    0  503  502 -0.00000000000E+00 -0.00000000000E+00 -0.31624961110E+03  0.31624961110E+03  0.00000000000E+00 0. -1.
         25    1    1    2    0    0 -0.25109533270E+03 -0.16565935376E+03 -0.87849482378E+02  0.33739356714E+03  0.12500000000E+03 0.  0.
         21    1    1    2  503  501  0.25109533270E+03  0.16565935376E+03  0.11468118384E+03  0.32193735652E+03  0.00000000000E+00 0. -1.
<mgrwt>
<rscale>  3 0.32575587E+03</rscale>
<asrwt>0</asrwt>
<pdfrwt beam="1">  1       21 0.52781740E-01 0.32575587E+03</pdfrwt>
<pdfrwt beam="2">  1       21 0.48653786E-01 0.32575587E+03</pdfrwt>
<totfact> 0.12816714E+04</totfact>
</mgrwt>
</event>
<event>
 4    0  0.1313896E-001  0.2404317E+03  0.7546771E-02  0.1119506E+00
         21   -1    0    0  502  501  0.00000000000E+00  0.00000000000E+00  0.18151703594E+03  0.18151703594E+03  0.00000000000E+00 0. -1.
         21   -1    0    0  503  502 -0.00000000000E+00 -0.00000000000E+00 -0.44983992666E+03  0.44983992666E+03  0.00000000000E+00 0. -1.
         25    1    1    2    0    0 -0.20524499444E+03  0.75437316540E+01 -0.33772281985E+03  0.41456497522E+03  0.12500000000E+03 0.  0.
         21    1    1    2  503  501  0.20524499444E+03 -0.75437316540E+01  0.69399929126E+02  0.21679198738E+03  0.00000000000E+00 0. -1.
<mgrwt>
<rscale>  3 0.24043173E+03</rscale>
<asrwt>0</asrwt>
<pdfrwt beam="1">  1       21 0.27925698E-01 0.24043173E+03</pdfrwt>
<pdfrwt beam="2">  1       21 0.69206143E-01 0.24043173E+03</pdfrwt>
<totfact> 0.22668708E+04</totfact>
</mgrwt>
</event>
<event>
 4    0  0.1116503E-001  0.2467412E+03  0.7546771E-02  0.1115382E+00
         21   -1    0    0  503  501  0.00000000000E+00  0.00000000000E+00  0.68808486397E+03  0.68808486397E+03  0.00000000000E+00 0.  1.
         21   -1    0    0  501  502 -0.00000000000E+00 -0.00000000000E+00 -0.11316078535E+03  0.11316078535E+03  0.00000000000E+00 0. -1.
         25    1    1    2    0    0 -0.99504485787E+02 -0.18802940701E+03  0.74916244898E+02  0.25786361578E+03  0.12500000000E+03 0.  0.
         21    1    1    2  503  502  0.99504485787E+02  0.18802940701E+03  0.50000783372E+03  0.54338203354E+03  0.00000000000E+00 0.  1.
<mgrwt>
<rscale>  3 0.24674116E+03</rscale>
<asrwt>0</asrwt>
<pdfrwt beam="1">  1       21 0.10585921E+00 0.24674116E+03</pdfrwt>
<pdfrwt beam="2">  1       21 0.17409352E-01 0.24674116E+03</pdfrwt>
<totfact> 0.20745176E+04</totfact>
</mgrwt>
</event>
<event>
 4    0  0.1329496E-001  0.3009871E+03  0.7546771E-02  0.1084748E+00
         21   -1    0    0  502  501  0.00000000000E+00  0.00000000000E+00  0.95883084925E+03  0.95883084925E+03  0.00000000000E+00 0. -1.
         21   -1    0    0  503  502 -0.00000000000E+00 -0.00000000000E+00 -0.12820091892E+03  0.12820091892E+03  0.00000000000E+00 0. -1.
         25    1    1    2    0    0 -0.21484917916E+03  0.16972946479E+03  0.11743657149E+03  0.32308607108E+03  0.12500000000E+03 0.  0.
         21    1    1    2  503  501  0.21484917916E+03 -0.16972946479E+03  0.71319335885E+03  0.76394569709E+03  0.00000000000E+00 0. -1.
<mgrwt>
<rscale>  3 0.30098714E+03</rscale>
<asrwt>0</asrwt>
<pdfrwt beam="1">  1       21 0.14751243E+00 0.30098714E+03</pdfrwt>
<pdfrwt beam="2">  1       21 0.19723219E-01 0.30098714E+03</pdfrwt>
<totfact> 0.68975085E+03</totfact>
</mgrwt>
</event>
<event>
 4    0  0.1005289E-001  0.2514265E+03  0.7546771E-02  0.1112407E+00
         21   -1    0    0  502  501  0.00000000000E+00  0.00000000000E+00  0.32561979893E+02  0.32561979893E+02  0.00000000000E+00 0. -1.
         21   -1    0    0  503  502 -0.00000000000E+00 -0.00000000000E+00 -0.19925980837E+04  0.19925980837E+04  0.00000000000E+00 0. -1.
         25    1    1    2    0    0 -0.51595897598E+02 -0.21196264029E+03 -0.64719425480E+03  0.69431671518E+03  0.12500000000E+03 0.  0.
         21    1    1    2  503  501  0.51595897598E+02  0.21196264029E+03 -0.13128418490E+04  0.13308433485E+04  0.00000000000E+00 0. -1.
<mgrwt>
<rscale>  3 0.25142653E+03</rscale>
<asrwt>0</asrwt>
<pdfrwt beam="1">  1       21 0.50095344E-02 0.25142653E+03</pdfrwt>
<pdfrwt beam="2">  1       21 0.30655361E+00 0.25142653E+03</pdfrwt>
<totfact> 0.79182923E+03</totfact>
</mgrwt>
</event>
<event>
 4    0  0.1637938E-001  0.2562059E+03  0.7546771E-02  0.1109444E+00
         21   -1    0    0  502  501  0.00000000000E+00  0.00000000000E+00  0.65653259479E+03  0.65653259479E+03  0.00000000000E+00 0. -1.
         21   -1    0    0  503  502 -0.00000000000E+00 -0.00000000000E+00 -0.96388349825E+02  0.96388349825E+02  0.00000000000E+00 0. -1.
         25    1    1    2    0    0  0.77103058486E+02 -0.20993226957E+03  0.18443316989E+03  0.31568502275E+03  0.12500000000E+03 0.  0.
         21    1    1    2  503  501 -0.77103058486E+02  0.20993226957E+03  0.37571107507E+03  0.43723592186E+03  0.00000000000E+00 0. -1.
<mgrwt>
<rscale>  3 0.25620585E+03</rscale>
<asrwt>0</asrwt>
<pdfrwt beam="1">  1       21 0.10100501E+00 0.25620585E+03</pdfrwt>
<pdfrwt beam="2">  1       21 0.14828977E-01 0.25620585E+03</pdfrwt>
<totfact> 0.31084283E+04</totfact>
</mgrwt>
</event>
<event>
 4    0  0.1082813E-001  0.2700909E+03  0.7546771E-02  0.1101228E+00
         21   -1    0    0  502  501  0.00000000000E+00  0.00000000000E+00  0.20560127369E+04  0.20560127369E+04  0.00000000000E+00 0.  1.
         21   -1    0    0  503  502 -0.00000000000E+00 -0.00000000000E+00 -0.34120709399E+02  0.34120709399E+02  0.00000000000E+00 0.  1.
         25    1    1    2    0    0  0.56722779897E+02  0.23260828990E+03  0.78179461352E+03  0.82713475808E+03  0.12500000000E+03 0.  0.
         21    1    1    2  503  501 -0.56722779897E+02 -0.23260828990E+03  0.12400974140E+04  0.12629986882E+04  0.00000000000E+00 0.  1.
<mgrwt>
<rscale>  3 0.27009089E+03</rscale>
<asrwt>0</asrwt>
<pdfrwt beam="1">  1       21 0.31630955E+00 0.27009089E+03</pdfrwt>
<pdfrwt beam="2">  1       21 0.52493415E-02 0.27009089E+03</pdfrwt>
<totfact> 0.63070344E+03</totfact>
</mgrwt>
</event>
<event>
 4    0  0.1378159E-001  0.3290832E+03  0.7546771E-02  0.1071543E+00
         21   -1    0    0  502  501  0.00000000000E+00  0.00000000000E+00  0.18605232804E+03  0.18605232804E+03  0.00000000000E+00 0. -1.
         21   -1    0    0  503  502 -0.00000000000E+00 -0.00000000000E+00 -0.80711439911E+03  0.80711439911E+03  0.00000000000E+00 0. -1.
         25    1    1    2    0    0  0.30433826521E+03  0.69992275147E+01 -0.60453334483E+03  0.68829959601E+03  0.12500000000E+03 0.  0.
         21    1    1    2  503  501 -0.30433826521E+03 -0.69992275147E+01 -0.16528726235E+02  0.30486713113E+03  0.00000000000E+00 0. -1.
<mgrwt>
<rscale>  3 0.32908322E+03</rscale>
<asrwt>0</asrwt>
<pdfrwt beam="1">  1       21 0.28623436E-01 0.32908322E+03</pdfrwt>
<pdfrwt beam="2">  1       21 0.12417144E+00 0.32908322E+03</pdfrwt>
<totfact> 0.52027204E+03</totfact>
</mgrwt>
</event>
<event>
 4    0  0.1104392E-001  0.2863292E+03  0.7546771E-02  0.1092281E+00
         21   -1    0    0  503  501  0.00000000000E+00  0.00000000000E+00  0.33913348659E+03  0.33913348659E+03  0.00000000000E+00 0.  1.
         21   -1    0    0  501  502 -0.00000000000E+00 -0.00000000000E+00 -0.30204315174E+03  0.30204315174E+03  0.00000000000E+00 0. -1.
         25    1    1    2    0    0  0.18470104693E+03 -0.17956879905E+03 -0.14958294704E+03  0.32304719218E+03  0.12500000000E+03 0.  0.
         21    1    1    2  503  502 -0.18470104693E+03  0.17956879905E+03  0.18667328190E+03  0.31812944615E+03  0.00000000000E+00 0.  1.
<mgrwt>
<rscale>  3 0.28632923E+03</rscale>
<asrwt>0</asrwt>
<pdfrwt beam="1">  1       21 0.52174383E-01 0.28632923E+03</pdfrwt>
<pdfrwt beam="2">  1       21 0.46468177E-01 0.28632923E+03</pdfrwt>
<totfact> 0.14702420E+04</totfact>
</mgrwt>
</event>
<event>
 4    0  0.1005289E-001  0.2845832E+03  0.7546771E-02  0.1093212E+00
         21   -1    0    0  503  501  0.00000000000E+00  0.00000000000E+00  0.48675380107E+03  0.48675380107E+03  0.00000000000E+00 0.  1.
         21   -1    0    0  501  502 -0.00000000000E+00 -0.00000000000E+00 -0.90207805261E+03  0.90207805261E+03  0.00000000000E+00 0.  1.
         25    1    1    2    0    0  0.22719579267E+03  0.11723777767E+03 -0.84345740677E+03  0.89017302911E+03  0.12500000000E+03 0.  0.
         21    1    1    2  503  502 -0.22719579267E+03 -0.11723777767E+03  0.42813315523E+03  0.49865882458E+03  0.00000000000E+00 0.  1.
<mgrwt>
<rscale>  3 0.28458325E+03</rscale>
<asrwt>0</asrwt>
<pdfrwt beam="1">  1       21 0.74885201E-01 0.28458325E+03</pdfrwt>
<pdfrwt beam="2">  1       21 0.13878124E+00 0.28458325E+03</pdfrwt>
<totfact> 0.53635762E+02</totfact>
</mgrwt>
</event>
<event>
 4    0  0.1612988E-001  0.2497639E+03  0.7546771E-02  0.1113454E+00
         21   -1    0    0  502  501  0.00000000000E+00  0.00000000000E+00  0.24134961282E+03  0.24134961282E+03  0.00000000000E+00 0.  1.
         21   -1    0    0  503  502 -0.00000000000E+00 -0.00000000000E+00 -0.23248403740E+03  0.23248403740E+03  0.00000000000E+00 0.  1.
         25    1    1    2    0    0  0.18936245712E+03 -0.10439758443E+03 -0.37838134992E+02  0.25261377686E+03  0.12500000000E+03 0.  0.
         21    1    1    2  503  501 -0.18936245712E+03  0.10439758443E+03  0.46703710410E+02  0.22121987335E+03  0.00000000000E+00 0.  1.
<mgrwt>
<rscale>  3 0.24976388E+03</rscale>
<asrwt>0</asrwt>
<pdfrwt beam="1">  1       21 0.37130709E-01 0.24976388E+03</pdfrwt>
<pdfrwt beam="2">  1       21 0.35766775E-01 0.24976388E+03</pdfrwt>
<totfact> 0.51418060E+04</totfact>
</mgrwt>
</event>
<event>
 4    0  0.1392755E-001  0.2366390E+03  0.7546771E-02  0.1122052E+00
         21   -1    0    0  502  501  0.00000000000E+00  0.00000000000E+00  0.76135369400E+03  0.76135369400E+03  0.00000000000E+00 0. -1.
         21   -1    0    0  503  502 -0.00000000000E+00 -0.00000000000E+00 -0.76312290717E+02  0.76312290717E+02  0.00000000000E+00 0. -1.
         25    1    1    2    0    0 -0.19594849382E+03 -0.44465774645E+02  0.19025144864E+03  0.30363404133E+03  0.12500000000E+03 0.  0.
         21    1    1    2  503  501  0.19594849382E+03  0.44465774645E+02  0.49478995463E+03  0.53403194338E+03  0.00000000000E+00 0. -1.
<mgrwt>
<rscale>  3 0.23663900E+03</rscale>
<asrwt>0</asrwt>
<pdfrwt beam="1">  1       21 0.11713133E+00 0.23663900E+03</pdfrwt>
<pdfrwt beam="2">  1       21 0.11740353E-01 0.23663900E+03</pdfrwt>
<totfact> 0.33404249E+04</totfact>
</mgrwt>
</event>
<event>
 4    0  0.1005289E-001  0.2673546E+03  0.7546771E-02  0.1102803E+00
         21   -1    0    0  503  501  0.00000000000E+00  0.00000000000E+00  0.39617856270E+03  0.39617856270E+03  0.00000000000E+00 0.  1.
         21   -1    0    0  501  502 -0.00000000000E+00 -0.00000000000E+00 -0.27364296067E+03  0.27364296067E+03  0.00000000000E+00 0.  1.
         25    1    1    2    0    0 -0.15583638874E+03  0.17767528662E+03  0.27897577973E+03  0.38640131108E+03  0.12500000000E+03 0.  0.
         21    1    1    2  503  502  0.15583638874E+03 -0.17767528662E+03 -0.15644017770E+03  0.28342021228E+03  0.00000000000E+00 0.  1.
<mgrwt>
<rscale>  3 0.26735461E+03</rscale>
<asrwt>0</asrwt>
<pdfrwt beam="1">  1       21 0.60950548E-01 0.26735461E+03</pdfrwt>
<pdfrwt beam="2">  1       21 0.42098917E-01 0.26735461E+03</pdfrwt>
<totfact> 0.13034120E+04</totfact>
</mgrwt>
</event>
<event>
 4    0  0.1005289E-001  0.2980008E+03  0.7546771E-02  0.1086244E+00
         21   -1    0    0  503  501  0.00000000000E+00  0.00000000000E+00  0.31072223850E+03  0.31072223850E+03  0.00000000000E+00 0.  1.
         21   -1    0    0  501  502 -0.00000000000E+00 -0.00000000000E+00 -0.26630471672E+03  0.26630471672E+03  0.00000000000E+00 0. -1.
         25    1    1    2    0    0 -0.26065328752E+03  0.72383220687E+02  0.67424962029E+02  0.30553329186E+03  0.12500000000E+03 0.  0.
         21    1    1    2  503  502  0.26065328752E+03 -0.72383220687E+02 -0.23007440252E+02  0.27149366335E+03  0.00000000000E+00 0.  1.
<mgrwt>
<rscale>  3 0.29800078E+03</rscale>
<asrwt>0</asrwt>
<pdfrwt beam="1">  1       21 0.47803421E-01 0.29800078E+03</pdfrwt>
<pdfrwt beam="2">  1       21 0.40969957E-01 0.29800078E+03</pdfrwt>
<totfact> 0.22818843E+04</totfact>
</mgrwt>
</event>
<event>
 4    0  0.1409657E-001  0.3411432E+03  0.7546771E-02  0.1066310E+00
         21   -1    0    0  502  501  0.00000000000E+00  0.00000000000E+00  0.32984983724E+03  0.32984983724E+03  0.00000000000E+00 0.  1.
         21   -1    0    0  503  502 -0.00000000000E+00 -0.00000000000E+00 -0.42782317520E+03  0.42782317520E+03  0.00000000000E+00 0.  1.
         25    1    1    2    0    0 -0.29517919761E+03 -0.11671714477E+03 -0.23259181387E+03  0.41288933441E+03  0.12500000000E+03 0.  0.
         21    1    1    2  503  501  0.29517919761E+03  0.11671714477E+03  0.13461847591E+03  0.34478367804E+03  0.00000000000E+00 0.  1.
<mgrwt>
<rscale>  3 0.34114315E+03</rscale>
<asrwt>0</asrwt>
<pdfrwt beam="1">  1       21 0.50746129E-01 0.34114315E+03</pdfrwt>
<pdfrwt beam="2">  1       21 0.65818950E-01 0.34114315E+03</pdfrwt>
<totfact> 0.72177008E+03</totfact>
</mgrwt>
</event>
<event>
 4    0  0.1364239E-001  0.2627928E+03  0.7546771E-02  0.1105477E+00
         21   -1    0    0  503  501  0.00000000000E+00  0.00000000000E+00  0.82555842968E+02  0.82555842968E+02  0.00000000000E+00 0. -1.
         21   -1    0    0  501  502 -0.00000000000E+00 -0.00000000000E+00 -0.76569368776E+03  0.76569368776E+03  0.00000000000E+00 0. -1.
         25    1    1    2    0    0  0.21571266329E+03 -0.83084849669E+02 -0.28343944451E+03  0.38652032812E+03  0.12500000000E+03 0.  0.
         21    1    1    2  503  502 -0.21571266329E+03  0.83084849669E+02 -0.39969840028E+03  0.46172920261E+03  0.00000000000E+00 0. -1.
<mgrwt>
<rscale>  3 0.26279278E+03</rscale>
<asrwt>0</asrwt>
<pdfrwt beam="1">  1       21 0.12700899E-01 0.26279278E+03</pdfrwt>
<pdfrwt beam="2">  1       21 0.11779903E+00 0.26279278E+03</pdfrwt>
<totfact> 0.28237758E+04</totfact>
</mgrwt>
</event>
<event>
 4    0  0.1005289E-001  0.2598033E+03  0.7546771E-02  0.1107261E+00
         21   -1    0    0  502  501  0.00000000000E+00  0.00000000000E+00  0.53024451469E+03  0.53024451469E+03  0.00000000000E+00 0. -1.
         21   -1    0    0  503  502 -0.00000000000E+00 -0.00000000000E+00 -0.81776475054E+03  0.81776475054E+03  0.00000000000E+00 0. -1.
         25    1    1    2    0    0  0.18495808437E+03 -0.13290312865E+03 -0.77098582450E+03  0.81358274082E+03  0.12500000000E+03 0.  0.
         21    1    1    2  503  501 -0.18495808437E+03  0.13290312865E+03  0.48346558865E+03  0.53442652440E+03  0.00000000000E+00 0. -1.
<mgrwt>
<rscale>  3 0.25980326E+03</rscale>
<asrwt>0</asrwt>
<pdfrwt beam="1">  1       21 0.81576079E-01 0.25980326E+03</pdfrwt>
<pdfrwt beam="2">  1       21 0.12580996E+00 0.25980326E+03</pdfrwt>
<totfact> 0.57929325E+02</totfact>
</mgrwt>
</event>
<event>
 4    0  0.1005289E-001  0.2631445E+03  0.7546771E-02  0.1105269E+00
         21   -1    0    0  502  501  0.00000000000E+00  0.00000000000E+00  0.49088040620E+03  0.49088040620E+03  0.00000000000E+00 0.  1.
         21   -1    0    0  503  502 -0.00000000000E+00 -0.00000000000E+00 -0.23353268690E+03  0.23353268690E+03  0.00000000000E+00 0.  1.
         25    1    1    2    0    0 -0.13204122961E+03 -0.19022386511E+03  0.38012261800E+03  0.46231829933E+03  0.12500000000E+03 0.  0.
         21    1    1    2  503  501  0.13204122961E+03  0.19022386511E+03 -0.12277489870E+03  0.26209479378E+03  0.00000000000E+00 0. -1.
<mgrwt>
<rscale>  3 0.26314446E+03</rscale>
<asrwt>0</asrwt>
<pdfrwt beam="1">  1       21 0.75520062E-01 0.26314446E+03</pdfrwt>
<pdfrwt beam="2">  1       21 0.35928106E-01 0.26314446E+03</pdfrwt>
<totfact> 0.11213803E+04</totfact>
</mgrwt>
</event>
<event>
 4    0  0.1268986E-001  0.3363889E+03  0.7546771E-02  0.1068344E+00
         21   -1    0    0  503  501  0.00000000000E+00  0.00000000000E+00  0.10394828058E+03  0.10394828058E+03  0.00000000000E+00 0. -1.
         21   -1    0    0  501  502 -0.00000000000E+00 -0.00000000000E+00 -0.10658946047E+04  0.10658946047E+04  0.00000000000E+00 0. -1.
         25    1    1    2    0    0  0.74800716764E+02 -0.30321172192E+03 -0.62932015568E+03  0.71358345965E+03  0.12500000000E+03 0.  0.
         21    1    1    2  503  502 -0.74800716764E+02  0.30321172192E+03 -0.33262616839E+03  0.45625942559E+03  0.00000000000E+00 0. -1.
<mgrwt>
<rscale>  3 0.33638891E+03</rscale>
<asrwt>0</asrwt>
<pdfrwt beam="1">  1       21 0.15992043E-01 0.33638891E+03</pdfrwt>
<pdfrwt beam="2">  1       21 0.16398378E+00 0.33638891E+03</pdfrwt>
<totfact> 0.75194026E+03</totfact>
</mgrwt>
</event>
<event>
 4    0  0.1632347E-001  0.2742953E+03  0.7546771E-02  0.1098846E+00
         21   -1    0    0  503  501  0.00000000000E+00  0.00000000000E+00  0.39662026666E+03  0.39662026666E+03  0.00000000000E+00 0. -1.
         21   -1    0    0  501  502 -0.00000000000E+00 -0.00000000000E+00 -0.20993157779E+03  0.20993157779E+03  0.00000000000E+00 0. -1.
         25    1    1    2    0    0 -0.14426637136E+03 -0.19697741333E+03 -0.35308499704E+02  0.27655845208E+03  0.12500000000E+03 0.  0.
         21    1    1    2  503  502  0.14426637136E+03  0.19697741333E+03  0.22199718858E+03  0.32999339236E+03  0.00000000000E+00 0. -1.
<mgrwt>
<rscale>  3 0.27429526E+03</rscale>
<asrwt>0</asrwt>
<pdfrwt beam="1">  1       21 0.61018502E-01 0.27429526E+03</pdfrwt>
<pdfrwt beam="2">  1       21 0.32297166E-01 0.27429526E+03</pdfrwt>
<totfact> 0.22110805E+04</totfact>
</mgrwt>
</event>
<event>
 4    0  0.1296992E-001  0.3186443E+03  0.7546771E-02  0.1076275E+00
         21   -1    0    0  503  501  0.00000000000E+00  0.00000000000E+00  0.13757974786E+03  0.13757974786E+03  0.00000000000E+00 0. -1.
         21   -1    0    0  501  502 -0.00000000000E+00 -0.00000000000E+00 -0.87943228128E+03  0.87943228128E+03  0.00000000000E+00 0. -1.
         25    1    1    2    0    0 -0.24998349470E+03 -0.15302766230E+03 -0.62487360032E+03  0.70142799304E+03  0.12500000000E+03 0.  0.
         21    1    1    2  503  502  0.24998349470E+03  0.15302766230E+03 -0.11697893310E+03  0.31558403610E+03  0.00000000000E+00 0. -1.
<mgrwt>
<rscale>  3 0.31864434E+03</rscale>
<asrwt>0</asrwt>
<pdfrwt beam="1">  1       21 0.21166115E-01 0.31864434E+03</pdfrwt>
<pdfrwt beam="2">  1       21 0.13529727E+00 0.31864434E+03</pdfrwt>
<totfact> 0.75114781E+03</totfact>
</mgrwt>
</event>
<event>
 4    0  0.1005289E-001  0.3016394E+03  0.7546771E-02  0.1084424E+00
         21   -1    0    0  502  501  0.00000000000E+00  0.00000000000E+00  0.22396235004E+04  0.22396235004E+04  0.00000000000E+00 0.  1.
         21   -1    0    0  503  502 -0.00000000000E+00 -0.00000000000E+00 -0.55875086757E+02  0.55875086757E+02  0.00000000000E+00 0.  1.
         25    1    1    2    0    0  0.30874303304E+02 -0.27277848505E+03  0.46033821679E+03  0.55036133435E+03  0.12500000000E+03 0.  0.
         21    1    1    2  503  501 -0.30874303304E+02  0.27277848505E+03  0.17234101969E+04  0.17451372528E+04  0.00000000000E+00 0.  1.
<mgrwt>
<rscale>  3 0.30163939E+03</rscale>
<asrwt>0</asrwt>
<pdfrwt beam="1">  1       21 0.34455739E+00 0.30163939E+03</pdfrwt>
<pdfrwt beam="2">  1       21 0.85961690E-02 0.30163939E+03</pdfrwt>
<totfact> 0.17708196E+03</totfact>
</mgrwt>
</event>
<event>
 4    0  0.1005289E-001  0.3973817E+03  0.7546771E-02  0.1044690E+00
         21   -1    0    0  502  501  0.00000000000E+00  0.00000000000E+00  0.59440123763E+03  0.59440123763E+03  0.00000000000E+00 0. -1.
         21   -1    0    0  503  502 -0.00000000000E+00 -0.00000000000E+00 -0.61670921442E+03  0.61670921442E+03  0.00000000000E+00 0. -1.
         25    1    1    2    0    0  0.22543374309E+03  0.30243484785E+03 -0.47666313386E+03  0.62058033557E+03  0.12500000000E+03 0.  0.
         21    1    1    2  503  501 -0.22543374309E+03 -0.30243484785E+03  0.45435515706E+03  0.59053011648E+03  0.00000000000E+00 0. -1.
<mgrwt>
<rscale>  3 0.39738169E+03</rscale>
<asrwt>0</asrwt>
<pdfrwt beam="1">  1       21 0.91446344E-01 0.39738169E+03</pdfrwt>
<pdfrwt beam="2">  1       21 0.94878341E-01 0.39738169E+03</pdfrwt>
<totfact> 0.81503147E+02</totfact>
</mgrwt>
</event>
<event>
 4    0  0.1185614E-001  0.2465118E+03  0.7546771E-02  0.1115529E+00
         21   -1    0    0  503  501  0.00000000000E+00  0.00000000000E+00  0.27501861961E+03  0.27501861961E+03  0.00000000000E+00 0. -1.
         21   -1    0    0  501  502 -0.00000000000E+00 -0.00000000000E+00 -0.78409168013E+03  0.78409168013E+03  0.00000000000E+00 0. -1.
         25    1    1    2    0    0  0.19043248555E+03  0.94226001174E+02 -0.71920676848E+03  0.76028050526E+03  0.12500000000E+03 0.  0.
         21    1    1    2  503  502 -0.19043248555E+03 -0.94226001174E+02  0.21013370796E+03  0.29882979448E+03  0.00000000000E+00 0. -1.
<mgrwt>
<rscale>  3 0.24651181E+03</rscale>
<asrwt>0</asrwt>
<pdfrwt beam="1">  1       21 0.42310557E-01 0.24651181E+03</pdfrwt>
<pdfrwt beam="2">  1       21 0.12062949E+00 0.24651181E+03</pdfrwt>
<totfact> 0.26834725E+03</totfact>
</mgrwt>
</event>
<event>
 4    0  0.1005289E-001  0.3896813E+03  0.7546771E-02  0.1047412E+00
         21   -1    0    0  502  501  0.00000000000E+00  0.00000000000E+00  0.42268451702E+03  0.42268451702E+03  0.00000000000E+00 0.  1.
         21   -1    0    0  503  502 -0.00000000000E+00 -0.00000000000E+00 -0.83776715097E+03  0.83776715097E+03  0.00000000000E+00 0.  1.
         25    1    1    2    0    0  0.35172978635E+03 -0.11186011422E+03 -0.69529265710E+03  0.79704667791E+03  0.12500000000E+03 0.  0.
         21    1    1    2  503  501 -0.35172978635E+03  0.11186011422E+03  0.28021002314E+03  0.46340499007E+03  0.00000000000E+00 0.  1.
<mgrwt>
<rscale>  3 0.38968132E+03</rscale>
<asrwt>0</asrwt>
<pdfrwt beam="1">  1       21 0.65028388E-01 0.38968132E+03</pdfrwt>
<pdfrwt beam="2">  1       21 0.12888725E+00 0.38968132E+03</pdfrwt>
<totfact> 0.83495845E+02</totfact>
</mgrwt>
</event>
<event>
 4    0  0.1229328E-001  0.3101899E+03  0.7546771E-02  0.1080255E+00
         21   -1    0    0  503  501  0.00000000000E+00  0.00000000000E+00  0.16128602029E+04  0.16128602029E+04  0.00000000000E+00 0. -1.
         21   -1    0    0  501  502 -0.00000000000E+00 -0.00000000000E+00 -0.60014115616E+02  0.60014115616E+02  0.00000000000E+00 0. -1.
         25    1    1    2    0    0  0.25475017274E+03  0.12528030296E+03  0.55920987891E+03  0.63947907979E+03  0.12500000000E+03 0.  0.
         21    1    1    2  503  502 -0.25475017274E+03 -0.12528030296E+03  0.99363620839E+03  0.10333952387E+04  0.00000000000E+00 0. -1.
<mgrwt>
<rscale>  3 0.31018995E+03</rscale>
<asrwt>0</asrwt>
<pdfrwt beam="1">  1       21 0.24813231E+00 0.31018995E+03</pdfrwt>
<pdfrwt beam="2">  1       21 0.92329421E-02 0.31018995E+03</pdfrwt>
<totfact> 0.57998408E+03</totfact>
</mgrwt>
</event>
<event>
 4    0  0.1005289E-001  0.4466202E+03  0.7546771E-02  0.1028735E+00
         21   -1    0    0  503  501  0.00000000000E+00  0.00000000000E+00  0.34702639495E+03  0.34702639495E+03  0.00000000000E+00 0.  1.
         21   -1    0    0  501  502 -0.00000000000E+00 -0.00000000000E+00 -0.61402588040E+03  0.61402588040E+03  0.00000000000E+00 0. -1.
         25    1    1    2    0    0 -0.42416769658E+03  0.62660971238E+02 -0.28857642081E+03  0.53173864142E+03  0.12500000000E+03 0.  0.
         21    1    1    2  503  502  0.42416769658E+03 -0.62660971238E+02  0.21576935356E+02  0.42931363393E+03  0.00000000000E+00 0.  1.
<mgrwt>
<rscale>  3 0.44662023E+03</rscale>
<asrwt>0</asrwt>
<pdfrwt beam="1">  1       21 0.53388676E-01 0.44662023E+03</pdfrwt>
<pdfrwt beam="2">  1       21 0.94465520E-01 0.44662023E+03</pdfrwt>
<totfact> 0.27097362E+03</totfact>
</mgrwt>
</event>
<event>
 4    0  0.1417727E-001  0.2525847E+03  0.7546771E-02  0.1111682E+00
         21   -1    0    0  502  501  0.00000000000E+00  0.00000000000E+00  0.92479475000E+02  0.92479475000E+02  0.00000000000E+00 0. -1.
         21   -1    0    0  503  502 -0.00000000000E+00 -0.00000000000E+00 -0.60586871811E+03  0.60586871811E+03  0.00000000000E+00 0. -1.
         25    1    1    2    0    0  0.21354288978E+02  0.21844451011E+03 -0.24835799584E+03  0.35423255603E+03  0.12500000000E+03 0.  0.
         21    1    1    2  503  501 -0.21354288978E+02 -0.21844451011E+03 -0.26503124727E+03  0.34411563708E+03  0.00000000000E+00 0. -1.
<mgrwt>
<rscale>  3 0.25258466E+03</rscale>
<asrwt>0</asrwt>
<pdfrwt beam="1">  1       21 0.14227612E-01 0.25258466E+03</pdfrwt>
<pdfrwt beam="2">  1       21 0.93210572E-01 0.25258466E+03</pdfrwt>
<totfact> 0.40629295E+04</totfact>
</mgrwt>
</event>
<event>
 4    0  0.1294354E-001  0.2441984E+03  0.7546771E-02  0.1117027E+00
         21   -1    0    0  502  501  0.00000000000E+00  0.00000000000E+00  0.33879170190E+02  0.33879170190E+02  0.00000000000E+00 0. -1.
         21   -1    0    0  503  502 -0.00000000000E+00 -0.00000000000E+00 -0.15484459984E+04  0.15484459984E+04  0.00000000000E+00 0. -1.
         25    1    1    2    0    0 -0.23666432904E+02 -0.20844128081E+03 -0.91904354100E+03  0.95093317212E+03  0.12500000000E+03 0.  0.
         21    1    1    2  503  501  0.23666432904E+02  0.20844128081E+03 -0.59552328723E+03  0.63139199648E+03  0.00000000000E+00 0. -1.
<mgrwt>
<rscale>  3 0.24419842E+03</rscale>
<asrwt>0</asrwt>
<pdfrwt beam="1">  1       21 0.52121786E-02 0.24419842E+03</pdfrwt>
<pdfrwt beam="2">  1       21 0.23822253E+00 0.24419842E+03</pdfrwt>
<totfact> 0.18802814E+04</totfact>
</mgrwt>
</event>
<event>
 4    0  0.1389437E-001  0.2446225E+03  0.7546771E-02  0.1116751E+00
         21   -1    0    0  503  501  0.00000000000E+00  0.00000000000E+00  0.55763692360E+02  0.55763692360E+02  0.00000000000E+00 0.  1.
         21   -1    0    0  501  502 -0.00000000000E+00 -0.00000000000E+00 -0.10119035343E+04  0.10119035343E+04  0.00000000000E+00 0.  1.
         25    1    1    2    0    0  0.44786129114E+00 -0.21027351145E+03 -0.66474324480E+03  0.70832459487E+03  0.12500000000E+03 0.  0.
         21    1    1    2  503  502 -0.44786129114E+00  0.21027351145E+03 -0.29139659718E+03  0.35934263182E+03  0.00000000000E+00 0.  1.
<mgrwt>
<rscale>  3 0.24462246E+03</rscale>
<asrwt>0</asrwt>
<pdfrwt beam="1">  1       21 0.85790289E-02 0.24462246E+03</pdfrwt>
<pdfrwt beam="2">  1       21 0.15567748E+00 0.24462246E+03</pdfrwt>
<totfact> 0.27907080E+04</totfact>
</mgrwt>
</event>
<event>
 4    0  0.1092528E-001  0.2415273E+03  0.7546771E-02  0.1118780E+00
         21   -1    0    0  502  501  0.00000000000E+00  0.00000000000E+00  0.17977455587E+04  0.17977455587E+04  0.00000000000E+00 0.  1.
         21   -1    0    0  503  502 -0.00000000000E+00 -0.00000000000E+00 -0.35135409079E+02  0.35135409079E+02  0.00000000000E+00 0.  1.
         25    1    1    2    0    0  0.18422754684E+03 -0.93651800882E+02  0.52192313208E+03  0.57509929980E+03  0.12500000000E+03 0.  0.
         21    1    1    2  503  501 -0.18422754684E+03  0.93651800882E+02  0.12406870175E+04  0.12577816679E+04  0.00000000000E+00 0.  1.
<mgrwt>
<rscale>  3 0.24152733E+03</rscale>
<asrwt>0</asrwt>
<pdfrwt beam="1">  1       21 0.27657617E+00 0.24152733E+03</pdfrwt>
<pdfrwt beam="2">  1       21 0.54054490E-02 0.24152733E+03</pdfrwt>
<totfact> 0.10490998E+04</totfact>
</mgrwt>
</event>
<event>
 4    0  0.1005289E-001  0.4524876E+03  0.7546771E-02  0.1026983E+00
         21   -1    0    0  502  501  0.00000000000E+00  0.00000000000E+00  0.34868529764E+03  0.34868529764E+03  0.00000000000E+00 0. -1.
         21   -1    0    0  503  502 -0.00000000000E+00 -0.00000000000E+00 -0.14153171631E+04  0.14153171631E+04  0.00000000000E+00 0. -1.
         25    1    1    2    0    0 -0.19031588757E+03 -0.39102414232E+03 -0.12213074298E+04  0.13024349715E+04  0.12500000000E+03 0.  0.
         21    1    1    2  503  501  0.19031588757E+03  0.39102414232E+03  0.15467556432E+03  0.46156748925E+03  0.00000000000E+00 0. -1.
<mgrwt>
<rscale>  3 0.45248759E+03</rscale>
<asrwt>0</asrwt>
<pdfrwt beam="1">  1       21 0.53643892E-01 0.45248759E+03</pdfrwt>
<pdfrwt beam="2">  1       21 0.21774110E+00 0.45248759E+03</pdfrwt>
<totfact> 0.27613131E+02</totfact>
</mgrwt>
</event>
<event>
 4    0  0.1404524E-001  0.2648153E+03  0.7546771E-02  0.1104284E+00
         21   -1    0    0  503  501  0.00000000000E+00  0.00000000000E+00  0.23538703622E+03  0.23538703622E+03  0.00000000000E+00 0. -1.
         21   -1    0    0  501  502 -0.00000000000E+00 -0.00000000000E+00 -0.37710180748E+03  0.37710180748E+03  0.00000000000E+00 0. -1.
         25    1    1    2    0    0  0.20938591835E+03  0.10324561087E+03 -0.24168955863E+03  0.35852609628E+03  0.12500000000E+03 0.  0.
         21    1    1    2  503  502 -0.20938591835E+03 -0.10324561087E+03  0.99974787373E+02  0.25396274742E+03  0.00000000000E+00 0. -1.
<mgrwt>
<rscale>  3 0.26481525E+03</rscale>
<asrwt>0</asrwt>
<pdfrwt beam="1">  1       21 0.36213390E-01 0.26481525E+03</pdfrwt>
<pdfrwt beam="2">  1       21 0.58015662E-01 0.26481525E+03</pdfrwt>
<totfact> 0.19708322E+04</totfact>
</mgrwt>
</event>
<event>
 4    0  0.1132693E-001  0.3291822E+03  0.7546771E-02  0.1071499E+00
         21   -1    0    0  502  501  0.00000000000E+00  0.00000000000E+00  0.13682087760E+04  0.13682087760E+04  0.00000000000E+00 0. -1.
         21   -1    0    0  503  502 -0.00000000000E+00 -0.00000000000E+00 -0.90030246672E+02  0.90030246672E+02  0.00000000000E+00 0. -1.
         25    1    1    2    0    0  0.26976436552E+03  0.14129075792E+03  0.34597461681E+03  0.47755557441E+03  0.12500000000E+03 0.  0.
         21    1    1    2  503  501 -0.26976436552E+03 -0.14129075792E+03  0.93220391249E+03  0.98068344823E+03  0.00000000000E+00 0. -1.
<mgrwt>
<rscale>  3 0.32918216E+03</rscale>
<asrwt>0</asrwt>
<pdfrwt beam="1">  1       21 0.21049364E+00 0.32918216E+03</pdfrwt>
<pdfrwt beam="2">  1       21 0.13850808E-01 0.32918216E+03</pdfrwt>
<totfact> 0.47292094E+03</totfact>
</mgrwt>
</event>
<event>
 4    0  0.1584026E-001  0.2873065E+03  0.7546771E-02  0.1091764E+00
         21   -1    0    0  503  501  0.00000000000E+00  0.00000000000E+00  0.27992743853E+03  0.27992743853E+03  0.00000000000E+00 0.  1.
         21   -1    0    0  501  502 -0.00000000000E+00 -0.00000000000E+00 -0.49334710720E+03  0.49334710720E+03  0.00000000000E+00 0. -1.
         25    1    1    2    0    0 -0.15209667977E+03  0.20925251300E+03 -0.37186073291E+03  0.46992065168E+03  0.12500000000E+03 0.  0.
         21    1    1    2  503  502  0.15209667977E+03 -0.20925251300E+03  0.15844106425E+03  0.30335389405E+03  0.00000000000E+00 0.  1.
<mgrwt>
<rscale>  3 0.28730648E+03</rscale>
<asrwt>0</asrwt>
<pdfrwt beam="1">  1       21 0.43065760E-01 0.28730648E+03</pdfrwt>
<pdfrwt beam="2">  1       21 0.75899555E-01 0.28730648E+03</pdfrwt>
<totfact> 0.75776109E+03</totfact>
</mgrwt>
</event>
<event>
 4    0  0.1005289E-001  0.2556859E+03  0.7546771E-02  0.1109763E+00
         21   -1    0    0  503  501  0.00000000000E+00  0.00000000000E+00  0.78691878840E+02  0.78691878840E+02  0.00000000000E+00 0.  1.
         21   -1    0    0  501  502 -0.00000000000E+00 -0.00000000000E+00 -0.94574729398E+03  0.94574729398E+03  0.00000000000E+00 0. -1.
         25    1    1    2    0    0 -0.68562189335E+02  0.21224865229E+03 -0.70155869576E+03  0.74669931552E+03  0.12500000000E+03 0.  0.
         21    1    1    2  503  502  0.68562189335E+02 -0.21224865229E+03 -0.16549671939E+03  0.27773985730E+03  0.00000000000E+00 0.  1.
<mgrwt>
<rscale>  3 0.25568587E+03</rscale>
<asrwt>0</asrwt>
<pdfrwt beam="1">  1       21 0.12106444E-01 0.25568587E+03</pdfrwt>
<pdfrwt beam="2">  1       21 0.14549957E+00 0.25568587E+03</pdfrwt>
<totfact> 0.17995919E+04</totfact>
</mgrwt>
</event>
<event>
 4    0  0.1018176E-001  0.2446117E+03  0.7546771E-02  0.1116758E+00
         21   -1    0    0  502  501  0.00000000000E+00  0.00000000000E+00  0.60338314121E+02  0.60338314121E+02  0.00000000000E+00 0. -1.
         21   -1    0    0  503  502 -0.00000000000E+00 -0.00000000000E+00 -0.15657608443E+04  0.15657608443E+04  0.00000000000E+00 0. -1.
         25    1    1    2    0    0 -0.53592528734E+02  0.20331682944E+03 -0.13298884080E+04  0.13521974967E+04  0.12500000000E+03 0.  0.
         21    1    1    2  503  501  0.53592528734E+02 -0.20331682944E+03 -0.17553412222E+03  0.27390166180E+03  0.00000000000E+00 0. -1.
<mgrwt>
<rscale>  3 0.24461172E+03</rscale>
<asrwt>0</asrwt>
<pdfrwt beam="1">  1       21 0.92828183E-02 0.24461172E+03</pdfrwt>
<pdfrwt beam="2">  1       21 0.24088627E+00 0.24461172E+03</pdfrwt>
<totfact> 0.66505295E+03</totfact>
</mgrwt>
</event>
<event>
 4    0  0.1198517E-001  0.3413603E+03  0.7546771E-02  0.1066218E+00
         21   -1    0    0  502  501  0.00000000000E+00  0.00000000000E+00  0.64600071342E+03  0.64600071342E+03  0.00000000000E+00 0. -1.
         21   -1    0    0  503  502 -0.00000000000E+00 -0.00000000000E+00 -0.27658090660E+03  0.27658090660E+03  0.00000000000E+00 0.  1.
         25    1    1    2    0    0 -0.64841253158E+01  0.31758434290E+03 -0.10007234770E+03  0.35572648694E+03  0.12500000000E+03 0.  0.
         21    1    1    2  503  501  0.64841253158E+01 -0.31758434290E+03  0.46949215453E+03  0.56685513308E+03  0.00000000000E+00 0. -1.
<mgrwt>
<rscale>  3 0.34136031E+03</rscale>
<asrwt>0</asrwt>
<pdfrwt beam="1">  1       21 0.99384725E-01 0.34136031E+03</pdfrwt>
<pdfrwt beam="2">  1       21 0.42550909E-01 0.34136031E+03</pdfrwt>
<totfact> 0.40388985E+03</totfact>
</mgrwt>
</event>
<event>
 4    0  0.1535676E-001  0.3122139E+03  0.7546771E-02  0.1079290E+00
         21   -1    0    0  502  501  0.00000000000E+00  0.00000000000E+00  0.28433184812E+03  0.28433184812E+03  0.00000000000E+00 0.  1.
         21   -1    0    0  503  502 -0.00000000000E+00 -0.00000000000E+00 -0.37497058223E+03  0.37497058223E+03  0.00000000000E+00 0.  1.
         25    1    1    2    0    0 -0.26604957474E+03 -0.10521462523E+03 -0.17897792691E+03  0.35987580066E+03  0.12500000000E+03 0.  0.
         21    1    1    2  503  501  0.26604957474E+03  0.10521462523E+03  0.88339192794E+02  0.29942662968E+03  0.00000000000E+00 0.  1.
<mgrwt>
<rscale>  3 0.31221386E+03</rscale>
<asrwt>0</asrwt>
<pdfrwt beam="1">  1       21 0.43743361E-01 0.31221386E+03</pdfrwt>
<pdfrwt beam="2">  1       21 0.57687782E-01 0.31221386E+03</pdfrwt>
<totfact> 0.13299037E+04</totfact>
</mgrwt>
</event>
<event>
 4    0  0.1185660E-001  0.2617734E+03  0.7546771E-02  0.1106082E+00
         21   -1    0    0  502  501  0.00000000000E+00  0.00000000000E+00  0.12988537803E+03  0.12988537803E+03  0.00000000000E+00 0.  1.
         21   -1    0    0  503  502 -0.00000000000E+00 -0.00000000000E+00 -0.50995645661E+03  0.50995645661E+03  0.00000000000E+00 0.  1.
         25    1    1    2    0    0  0.22413609448E+03  0.51607616237E+02 -0.10695427189E+03  0.28278004027E+03  0.12500000000E+03 0.  0.
         21    1    1    2  503  501 -0.22413609448E+03 -0.51607616237E+02 -0.27311680669E+03  0.35706179437E+03  0.00000000000E+00 0.  1.
<mgrwt>
<rscale>  3 0.26177344E+03</rscale>
<asrwt>0</asrwt>
<pdfrwt beam="1">  1       21 0.19982366E-01 0.26177344E+03</pdfrwt>
<pdfrwt beam="2">  1       21 0.78454839E-01 0.26177344E+03</pdfrwt>
<totfact> 0.32125517E+04</totfact>
</mgrwt>
</event>
<event>
 4    0  0.1032774E-001  0.3574042E+03  0.7546771E-02  0.1059616E+00
         21   -1    0    0  503  501  0.00000000000E+00  0.00000000000E+00  0.76378237460E+03  0.76378237460E+03  0.00000000000E+00 0. -1.
         21   -1    0    0  501  502 -0.00000000000E+00 -0.00000000000E+00 -0.49995566554E+03  0.49995566554E+03  0.00000000000E+00 0. -1.
         25    1    1    2    0    0  0.27199383162E+03  0.19527453859E+03 -0.39010132900E+03  0.52907167449E+03  0.12500000000E+03 0.  0.
         21    1    1    2  503  502 -0.27199383162E+03 -0.19527453859E+03  0.65392803806E+03  0.73466636565E+03  0.00000000000E+00 0. -1.
<mgrwt>
<rscale>  3 0.35740424E+03</rscale>
<asrwt>0</asrwt>
<pdfrwt beam="1">  1       21 0.11750498E+00 0.35740424E+03</pdfrwt>
<pdfrwt beam="2">  1       21 0.76916257E-01 0.35740424E+03</pdfrwt>
<totfact> 0.73707302E+02</totfact>
</mgrwt>
</event>
<event>
 4    0  0.1245137E-001  0.3280259E+03  0.7546771E-02  0.1072014E+00
         21   -1    0    0  502  501  0.00000000000E+00  0.00000000000E+00  0.29431092853E+03  0.29431092853E+03  0.00000000000E+00 0. -1.
         21   -1    0    0  503  502 -0.00000000000E+00 -0.00000000000E+00 -0.57057959581E+03  0.57057959581E+03  0.00000000000E+00 0. -1.
         25    1    1    2    0    0  0.22891224296E+03  0.19893518683E+03 -0.41699754563E+03  0.53055440493E+03  0.12500000000E+03 0.  0.
         21    1    1    2  503  501 -0.22891224296E+03 -0.19893518683E+03  0.14072887834E+03  0.33433611940E+03  0.00000000000E+00 0. -1.
<mgrwt>
<rscale>  3 0.32802595E+03</rscale>
<asrwt>0</asrwt>
<pdfrwt beam="1">  1       21 0.45278605E-01 0.32802595E+03</pdfrwt>
<pdfrwt beam="2">  1       21 0.87781475E-01 0.32802595E+03</pdfrwt>
<totfact> 0.47948565E+03</totfact>
</mgrwt>
</event>
<event>
 4    0  0.1444434E-001  0.2374023E+03  0.7546771E-02  0.1121536E+00
         21   -1    0    0  503  501  0.00000000000E+00  0.00000000000E+00  0.30454667287E+03  0.30454667287E+03  0.00000000000E+00 0.  1.
         21   -1    0    0  501  502 -0.00000000000E+00 -0.00000000000E+00 -0.16270937330E+03  0.16270937330E+03  0.00000000000E+00 0.  1.
         25    1    1    2    0    0  0.19094293805E+03  0.65388334601E+02  0.38476645256E+02  0.24050008758E+03  0.12500000000E+03 0.  0.
         21    1    1    2  503  502 -0.19094293805E+03 -0.65388334601E+02  0.10336065431E+03  0.22675595859E+03  0.00000000000E+00 0.  1.
<mgrwt>
<rscale>  3 0.23740227E+03</rscale>
<asrwt>0</asrwt>
<pdfrwt beam="1">  1       21 0.46853334E-01 0.23740227E+03</pdfrwt>
<pdfrwt beam="2">  1       21 0.25032211E-01 0.23740227E+03</pdfrwt>
<totfact> 0.64638150E+04</totfact>
</mgrwt>
</event>
<event>
 4    0  0.1528795E-001  0.3195776E+03  0.7546771E-02  0.1075844E+00
         21   -1    0    0  503  501  0.00000000000E+00  0.00000000000E+00  0.22946040221E+03  0.22946040221E+03  0.00000000000E+00 0.  1.
         21   -1    0    0  501  502 -0.00000000000E+00 -0.00000000000E+00 -0.46608334863E+03  0.46608334863E+03  0.00000000000E+00 0.  1.
         25    1    1    2    0    0  0.23124419105E+03  0.18174415444E+03 -0.24281932341E+03  0.40136147970E+03  0.12500000000E+03 0.  0.
         21    1    1    2  503  502 -0.23124419105E+03 -0.18174415444E+03  0.61963769990E+01  0.29418227114E+03  0.00000000000E+00 0.  1.
<mgrwt>
<rscale>  3 0.31957755E+03</rscale>
<asrwt>0</asrwt>
<pdfrwt beam="1">  1       21 0.35301601E-01 0.31957755E+03</pdfrwt>
<pdfrwt beam="2">  1       21 0.71705129E-01 0.31957755E+03</pdfrwt>
<totfact> 0.12722030E+04</totfact>
</mgrwt>
</event>
<event>
 4    0  0.1005289E-001  0.2456711E+03  0.7546771E-02  0.1116072E+00
         21   -1    0    0  502  501  0.00000000000E+00  0.00000000000E+00  0.74557812695E+03  0.74557812695E+03  0.00000000000E+00 0.  1.
         21   -1    0    0  503  502 -0.00000000000E+00 -0.00000000000E+00 -0.70665093959E+02  0.70665093959E+02  0.00000000000E+00 0. -1.
         25    1    1    2    0    0 -0.16067433366E+03 -0.13752478917E+03  0.32542824235E+03  0.40774728700E+03  0.12500000000E+03 0.  0.
         21    1    1    2  503  501  0.16067433366E+03  0.13752478917E+03  0.34948479064E+03  0.40849593391E+03  0.00000000000E+00 0.  1.
<mgrwt>
<rscale>  3 0.24567114E+03</rscale>
<asrwt>0</asrwt>
<pdfrwt beam="1">  1       21 0.11470432E+00 0.24567114E+03</pdfrwt>
<pdfrwt beam="2">  1       21 0.10871553E-01 0.24567114E+03</pdfrwt>
<totfact> 0.40189717E+04</totfact>
</mgrwt>
</event>
<event>
 4    0  0.1109597E-001  0.3155884E+03  0.7546771E-02  0.1077698E+00
         21   -1    0    0  503  501  0.00000000000E+00  0.00000000000E+00  0.47986101967E+03  0.47986101967E+03  0.00000000000E+00 0.  1.
         21   -1    0    0  501  502 -0.00000000000E+00 -0.00000000000E+00 -0.26403059069E+03  0.26403059069E+03  0.00000000000E+00 0. -1.
         25    1    1    2    0    0  0.26237467968E+03 -0.12300645201E+03 -0.84346896953E+02  0.32666566823E+03  0.12500000000E+03 0.  0.
         21    1    1    2  503  502 -0.26237467968E+03  0.12300645201E+03  0.30017732594E+03  0.41722594212E+03  0.00000000000E+00 0.  1.
<mgrwt>
<rscale>  3 0.31558843E+03</rscale>
<asrwt>0</asrwt>
<pdfrwt beam="1">  1       21 0.73824772E-01 0.31558843E+03</pdfrwt>
<pdfrwt beam="2">  1       21 0.40620091E-01 0.31558843E+03</pdfrwt>
<totfact> 0.89778959E+03</totfact>
</mgrwt>
</event>
<event>
 4    0  0.1444324E-001  0.2744014E+03  0.7546771E-02  0.1098787E+00
         21   -1    0    0  502  501  0.00000000000E+00  0.00000000000E+00  0.10656019735E+04  0.10656019735E+04  0.00000000000E+00 0. -1.
         21   -1    0    0  503  502 -0.00000000000E+00 -0.00000000000E+00 -0.64243934721E+02  0.64243934721E+02  0.00000000000E+00 0. -1.
         25    1    1    2    0    0 -0.22142349836E+03 -0.10316381636E+03  0.45452512888E+03  0.53093241699E+03  0.12500000000E+03 0.  0.
         21    1    1    2  503  501  0.22142349836E+03  0.10316381636E+03  0.54683290993E+03  0.59891349126E+03  0.00000000000E+00 0. -1.
<mgrwt>
<rscale>  3 0.27440142E+03</rscale>
<asrwt>0</asrwt>
<pdfrwt beam="1">  1       21 0.16393875E+00 0.27440142E+03</pdfrwt>
<pdfrwt beam="2">  1       21 0.98836831E-02 0.27440142E+03</pdfrwt>
<totfact> 0.18577412E+04</totfact>
</mgrwt>
</event>
<event>
 4    0  0.1020208E-001  0.2399398E+03  0.7546771E-02  0.1119833E+00
         21   -1    0    0  502  501  0.00000000000E+00  0.00000000000E+00  0.20057132166E+04  0.20057132166E+04  0.00000000000E+00 0. -1.
         21   -1    0    0  503  502 -0.00000000000E+00 -0.00000000000E+00 -0.25060722541E+02  0.25060722541E+02  0.00000000000E+00 0. -1.
         25    1    1    2    0    0 -0.89947763111E+02  0.18399863855E+03  0.93842357366E+03  0.96861235935E+03  0.12500000000E+03 0.  0.
         21    1    1    2  503  501  0.89947763111E+02 -0.18399863855E+03  0.10422289204E+04  0.10621615798E+04  0.00000000000E+00 0. -1.
<mgrwt>
<rscale>  3 0.23993978E+03</rscale>
<asrwt>0</asrwt>
<pdfrwt beam="1">  1       21 0.30857114E+00 0.23993978E+03</pdfrwt>
<pdfrwt beam="2">  1       21 0.38554974E-02 0.23993978E+03</pdfrwt>
<totfact> 0.12124674E+04</totfact>
</mgrwt>
</event>
<event>
 4    0  0.1144247E-001  0.2525602E+03  0.7546771E-02  0.1111697E+00
         21   -1    0    0  502  501  0.00000000000E+00  0.00000000000E+00  0.39559077426E+02  0.39559077426E+02  0.00000000000E+00 0.  1.
         21   -1    0    0  503  502 -0.00000000000E+00 -0.00000000000E+00 -0.14092860270E+04  0.14092860270E+04  0.00000000000E+00 0.  1.
         25    1    1    2    0    0  0.19519286565E+03 -0.10030650010E+03 -0.75445908494E+03  0.79560992931E+03  0.12500000000E+03 0.  0.
         21    1    1    2  503  501 -0.19519286565E+03  0.10030650010E+03 -0.61526786465E+03  0.65323517513E+03  0.00000000000E+00 0.  1.
<mgrwt>
<rscale>  3 0.25256019E+03</rscale>
<asrwt>0</asrwt>
<pdfrwt beam="1">  1       21 0.60860123E-02 0.25256019E+03</pdfrwt>
<pdfrwt beam="2">  1       21 0.21681322E+00 0.25256019E+03</pdfrwt>
<totfact> 0.19403256E+04</totfact>
</mgrwt>
</event>
<event>
 4    0  0.1005289E-001  0.2965099E+03  0.7546771E-02  0.1086998E+00
         21   -1    0    0  502  501  0.00000000000E+00  0.00000000000E+00  0.38628274120E+02  0.38628274120E+02  0.00000000000E+00 0. -1.
         21   -1    0    0  503  502 -0.00000000000E+00 -0.00000000000E+00 -0.21236043405E+04  0.21236043405E+04  0.00000000000E+00 0. -1.
         25    1    1    2    0    0 -0.24220734605E+03 -0.11674215637E+03 -0.91867650846E+03  0.96534173055E+03  0.12500000000E+03 0.  0.
         21    1    1    2  503  501  0.24220734605E+03  0.11674215637E+03 -0.11662995579E+04  0.11968908840E+04  0.00000000000E+00 0. -1.
<mgrwt>
<rscale>  3 0.29650991E+03</rscale>
<asrwt>0</asrwt>
<pdfrwt beam="1">  1       21 0.59428121E-02 0.29650991E+03</pdfrwt>
<pdfrwt beam="2">  1       21 0.32670832E+00 0.29650991E+03</pdfrwt>
<totfact> 0.43298055E+03</totfact>
</mgrwt>
</event>
<event>
 4    0  0.1492138E-001  0.2455451E+03  0.7546771E-02  0.1116153E+00
         21   -1    0    0  502  501  0.00000000000E+00  0.00000000000E+00  0.12794737481E+03  0.12794737481E+03  0.00000000000E+00 0. -1.
         21   -1    0    0  503  502 -0.00000000000E+00 -0.00000000000E+00 -0.42699247647E+03  0.42699247647E+03  0.00000000000E+00 0. -1.
         25    1    1    2    0    0 -0.17040198834E+03 -0.12502229898E+03 -0.21875547987E+03  0.32885615828E+03  0.12500000000E+03 0.  0.
         21    1    1    2  503  501  0.17040198834E+03  0.12502229898E+03 -0.80289621790E+02  0.22608369299E+03  0.00000000000E+00 0. -1.
<mgrwt>
<rscale>  3 0.24554513E+03</rscale>
<asrwt>0</asrwt>
<pdfrwt beam="1">  1       21 0.19684212E-01 0.24554513E+03</pdfrwt>
<pdfrwt beam="2">  1       21 0.65691150E-01 0.24554513E+03</pdfrwt>
<totfact> 0.49442362E+04</totfact>
</mgrwt>
</event>
<event>
 4    0  0.1326380E-001  0.2686592E+03  0.7546771E-02  0.1102049E+00
         21   -1    0    0  502  501  0.00000000000E+00  0.00000000000E+00  0.19624467544E+03  0.19624467544E+03  0.00000000000E+00 0.  1.
         21   -1    0    0  503  502 -0.00000000000E+00 -0.00000000000E+00 -0.54334019813E+03  0.54334019813E+03  0.00000000000E+00 0.  1.
         25    1    1    2    0    0  0.77552813773E+02  0.22480733906E+03 -0.41310851604E+03  0.49278435917E+03  0.12500000000E+03 0.  0.
         21    1    1    2  503  501 -0.77552813773E+02 -0.22480733906E+03  0.66012993355E+02  0.24680051440E+03  0.00000000000E+00 0.  1.
<mgrwt>
<rscale>  3 0.26865922E+03</rscale>
<asrwt>0</asrwt>
<pdfrwt beam="1">  1       21 0.30191489E-01 0.26865922E+03</pdfrwt>
<pdfrwt beam="2">  1       21 0.83590798E-01 0.26865922E+03</pdfrwt>
<totfact> 0.12536052E+04</totfact>
</mgrwt>
</event>
<event>
 4    0  0.1903356E-001  0.2423502E+03  0.7546771E-02  0.1118237E+00
         21   -1    0    0  503  501  0.00000000000E+00  0.00000000000E+00  0.54281536713E+03  0.54281536713E+03  0.00000000000E+00 0. -1.
         21   -1    0    0  501  502 -0.00000000000E+00 -0.00000000000E+00 -0.38687188446E+03  0.38687188446E+03  0.00000000000E+00 0.  1.
         25    1    1    2    0    0  0.19376039679E+03  0.74602564478E+02 -0.32524940975E+03  0.40561165236E+03  0.12500000000E+03 0.  0.
         21    1    1    2  503  502 -0.19376039679E+03 -0.74602564478E+02  0.48119289241E+03  0.52407559922E+03  0.00000000000E+00 0. -1.
<mgrwt>
<rscale>  3 0.24235023E+03</rscale>
<asrwt>0</asrwt>
<pdfrwt beam="1">  1       21 0.83510056E-01 0.24235023E+03</pdfrwt>
<pdfrwt beam="2">  1       21 0.59518752E-01 0.24235023E+03</pdfrwt>
<totfact> 0.31655960E+03</totfact>
</mgrwt>
</event>
<event>
 4    0  0.1005289E-001  0.2860183E+03  0.7546771E-02  0.1092447E+00
         21   -1    0    0  502  501  0.00000000000E+00  0.00000000000E+00  0.31456373302E+02  0.31456373302E+02  0.00000000000E+00 0. -1.
         21   -1    0    0  503  502 -0.00000000000E+00 -0.00000000000E+00 -0.23584759294E+04  0.23584759294E+04  0.00000000000E+00 0. -1.
         25    1    1    2    0    0  0.12465556227E+03 -0.22503878481E+03 -0.11369392308E+04  0.11723639701E+04  0.12500000000E+03 0.  0.
         21    1    1    2  503  501 -0.12465556227E+03  0.22503878481E+03 -0.11900803253E+04  0.12175683326E+04  0.00000000000E+00 0. -1.
<mgrwt>
<rscale>  3 0.28601829E+03</rscale>
<asrwt>0</asrwt>
<pdfrwt beam="1">  1       21 0.48394411E-02 0.28601829E+03</pdfrwt>
<pdfrwt beam="2">  1       21 0.36284253E+00 0.28601829E+03</pdfrwt>
<totfact> 0.37705184E+03</totfact>
</mgrwt>
</event>
<event>
 4    0  0.1005289E-001  0.5077668E+03  0.7546771E-02  0.1011771E+00
         21   -1    0    0  503  501  0.00000000000E+00  0.00000000000E+00  0.17827374322E+03  0.17827374322E+03  0.00000000000E+00 0. -1.
         21   -1    0    0  501  502 -0.00000000000E+00 -0.00000000000E+00 -0.20866668877E+04  0.20866668877E+04  0.00000000000E+00 0. -1.
         25    1    1    2    0    0 -0.44912123265E+03 -0.20122675095E+03 -0.16128206310E+04  0.16908629379E+04  0.12500000000E+03 0.  0.
         21    1    1    2  503  502  0.44912123265E+03  0.20122675095E+03 -0.29557251347E+03  0.57407769303E+03  0.00000000000E+00 0. -1.
<mgrwt>
<rscale>  3 0.50776676E+03</rscale>
<asrwt>0</asrwt>
<pdfrwt beam="1">  1       21 0.27426730E-01 0.50776676E+03</pdfrwt>
<pdfrwt beam="2">  1       21 0.32102567E+00 0.50776676E+03</pdfrwt>
<totfact> 0.24752975E+02</totfact>
</mgrwt>
</event>
<event>
 4    0  0.1089319E-001  0.3037320E+03  0.7546771E-02  0.1083390E+00
         21   -1    0    0  503  501  0.00000000000E+00  0.00000000000E+00  0.20416483481E+03  0.20416483481E+03  0.00000000000E+00 0.  1.
         21   -1    0    0  501  502 -0.00000000000E+00 -0.00000000000E+00 -0.14453526901E+04  0.14453526901E+04  0.00000000000E+00 0.  1.
         25    1    1    2    0    0 -0.83769043210E+02 -0.26383870395E+03 -0.13257293744E+04  0.13600777509E+04  0.12500000000E+03 0.  0.
         21    1    1    2  503  502  0.83769043210E+02  0.26383870395E+03  0.84541519157E+02  0.28943977398E+03  0.00000000000E+00 0.  1.
<mgrwt>
<rscale>  3 0.30373198E+03</rscale>
<asrwt>0</asrwt>
<pdfrwt beam="1">  1       21 0.31409974E-01 0.30373198E+03</pdfrwt>
<pdfrwt beam="2">  1       21 0.22236195E+00 0.30373198E+03</pdfrwt>
<totfact> 0.85363776E+02</totfact>
</mgrwt>
</event>
<event>
 4    0  0.1162746E-001  0.2544716E+03  0.7546771E-02  0.1110511E+00
         21   -1    0    0  503  501  0.00000000000E+00  0.00000000000E+00  0.84431479948E+02  0.84431479948E+02  0.00000000000E+00 0.  1.
         21   -1    0    0  501  502 -0.00000000000E+00 -0.00000000000E+00 -0.10177590644E+04  0.10177590644E+04  0.00000000000E+00 0.  1.
         25    1    1    2    0    0  0.10845337485E+03  0.19330969241E+03 -0.80893614959E+03  0.84801737353E+03  0.12500000000E+03 0.  0.
         21    1    1    2  503  502 -0.10845337485E+03 -0.19330969241E+03 -0.12439143486E+03  0.25417317082E+03  0.00000000000E+00 0.  1.
<mgrwt>
<rscale>  3 0.25447155E+03</rscale>
<asrwt>0</asrwt>
<pdfrwt beam="1">  1       21 0.12989459E-01 0.25447155E+03</pdfrwt>
<pdfrwt beam="2">  1       21 0.15657831E+00 0.25447155E+03</pdfrwt>
<totfact> 0.13038369E+04</totfact>
</mgrwt>
</event>
<event>
 4    0  0.1206742E-001  0.2573011E+03  0.7546771E-02  0.1108776E+00
         21   -1    0    0  502  501  0.00000000000E+00  0.00000000000E+00  0.87063974900E+02  0.87063974900E+02  0.00000000000E+00 0. -1.
         21   -1    0    0  503  502 -0.00000000000E+00 -0.00000000000E+00 -0.75201063284E+03  0.75201063284E+03  0.00000000000E+00 0. -1.
         25    1    1    2    0    0  0.31993828864E+02  0.22261010827E+03 -0.21208018568E+03  0.33343945559E+03  0.12500000000E+03 0.  0.
         21    1    1    2  503  501 -0.31993828864E+02 -0.22261010827E+03 -0.45286647226E+03  0.50563515215E+03  0.00000000000E+00 0. -1.
<mgrwt>
<rscale>  3 0.25730112E+03</rscale>
<asrwt>0</asrwt>
<pdfrwt beam="1">  1       21 0.13394458E-01 0.25730112E+03</pdfrwt>
<pdfrwt beam="2">  1       21 0.11569394E+00 0.25730112E+03</pdfrwt>
<totfact> 0.26877506E+04</totfact>
</mgrwt>
</event>
<event>
 4    0  0.1135481E-001  0.3374414E+03  0.7546771E-02  0.1067891E+00
         21   -1    0    0  503  501  0.00000000000E+00  0.00000000000E+00  0.79973071342E+03  0.79973071342E+03  0.00000000000E+00 0. -1.
         21   -1    0    0  501  502 -0.00000000000E+00 -0.00000000000E+00 -0.35201517527E+03  0.35201517527E+03  0.00000000000E+00 0. -1.
         25    1    1    2    0    0  0.79534536584E+01 -0.31333442990E+03 -0.22774561530E+03  0.40710537662E+03  0.12500000000E+03 0.  0.
         21    1    1    2  503  502 -0.79534536584E+01  0.31333442990E+03  0.67546115346E+03  0.74464051207E+03  0.00000000000E+00 0. -1.
<mgrwt>
<rscale>  3 0.33744144E+03</rscale>
<asrwt>0</asrwt>
<pdfrwt beam="1">  1       21 0.12303549E+00 0.33744144E+03</pdfrwt>
<pdfrwt beam="2">  1       21 0.54156181E-01 0.33744144E+03</pdfrwt>
<totfact> 0.14392433E+03</totfact>
</mgrwt>
</event>
<event>
 4    0  0.1672133E-001  0.2584334E+03  0.7546771E-02  0.1108088E+00
         21   -1    0    0  503  501  0.00000000000E+00  0.00000000000E+00  0.15405733998E+03  0.15405733998E+03  0.00000000000E+00 0. -1.
         21   -1    0    0  501  502 -0.00000000000E+00 -0.00000000000E+00 -0.41522773488E+03  0.41522773488E+03  0.00000000000E+00 0. -1.
         25    1    1    2    0    0  0.35318308828E+02 -0.22341761011E+03 -0.21996483286E+03  0.33937050423E+03  0.12500000000E+03 0.  0.
         21    1    1    2  503  502 -0.35318308828E+02  0.22341761011E+03 -0.41205562037E+02  0.22991457063E+03  0.00000000000E+00 0. -1.
<mgrwt>
<rscale>  3 0.25843338E+03</rscale>
<asrwt>0</asrwt>
<pdfrwt beam="1">  1       21 0.23701129E-01 0.25843338E+03</pdfrwt>
<pdfrwt beam="2">  1       21 0.63881190E-01 0.25843338E+03</pdfrwt>
<totfact> 0.36784548E+04</totfact>
</mgrwt>
</event>
<event>
 4    0  0.1172846E-001  0.2461421E+03  0.7546771E-02  0.1115767E+00
         21   -1    0    0  502  501  0.00000000000E+00  0.00000000000E+00  0.22519283957E+03  0.22519283957E+03  0.00000000000E+00 0.  1.
         21   -1    0    0  503  502 -0.00000000000E+00 -0.00000000000E+00 -0.41824390582E+03  0.41824390582E+03  0.00000000000E+00 0.  1.
         25    1    1    2    0    0 -0.21047079223E+03 -0.25748048897E+02 -0.31427351431E+03  0.39919138041E+03  0.12500000000E+03 0.  0.
         21    1    1    2  503  501  0.21047079223E+03  0.25748048897E+02  0.12122244805E+03  0.24424536498E+03  0.00000000000E+00 0.  1.
<mgrwt>
<rscale>  3 0.24614207E+03</rscale>
<asrwt>0</asrwt>
<pdfrwt beam="1">  1       21 0.34645052E-01 0.24614207E+03</pdfrwt>
<pdfrwt beam="2">  1       21 0.64345216E-01 0.24614207E+03</pdfrwt>
<totfact> 0.17356227E+04</totfact>
</mgrwt>
</event>
<event>
 4    0  0.1315991E-001  0.4521621E+03  0.7546771E-02  0.1027079E+00
         21   -1    0    0  503  501  0.00000000000E+00  0.00000000000E+00  0.16224946955E+03  0.16224946955E+03  0.00000000000E+00 0.  1.
         21   -1    0    0  501  502 -0.00000000000E+00 -0.00000000000E+00 -0.12114718370E+04  0.12114718370E+04  0.00000000000E+00 0.  1.
         25    1    1    2    0    0  0.24563462763E+03 -0.35845383435E+03 -0.53584205541E+03  0.70112568773E+03  0.12500000000E+03 0.  0.
         21    1    1    2  503  502 -0.24563462763E+03  0.35845383435E+03 -0.51338031204E+03  0.67259561881E+03  0.00000000000E+00 0.  1.
<mgrwt>
<rscale>  3 0.45216205E+03</rscale>
<asrwt>0</asrwt>
<pdfrwt beam="1">  1       21 0.24961457E-01 0.45216205E+03</pdfrwt>
<pdfrwt beam="2">  1       21 0.18638028E+00 0.45216205E+03</pdfrwt>
<totfact> 0.21258308E+03</totfact>
</mgrwt>
</event>
<event>
 4    0  0.1038526E-001  0.2629674E+03  0.7546771E-02  0.1105373E+00
         21   -1    0    0  503  501  0.00000000000E+00  0.00000000000E+00  0.32606281407E+02  0.32606281407E+02  0.00000000000E+00 0.  1.
         21   -1    0    0  501  502 -0.00000000000E+00 -0.00000000000E+00 -0.20176146870E+04  0.20176146870E+04  0.00000000000E+00 0.  1.
         25    1    1    2    0    0  0.20175482217E+03 -0.11323353704E+03 -0.13248381519E+04  0.13506842603E+04  0.12500000000E+03 0.  0.
         21    1    1    2  503  502 -0.20175482217E+03  0.11323353704E+03 -0.66017025364E+03  0.69953670809E+03  0.00000000000E+00 0.  1.
<mgrwt>
<rscale>  3 0.26296738E+03</rscale>
<asrwt>0</asrwt>
<pdfrwt beam="1">  1       21 0.50163506E-02 0.26296738E+03</pdfrwt>
<pdfrwt beam="2">  1       21 0.31040229E+00 0.26296738E+03</pdfrwt>
<totfact> 0.74274151E+03</totfact>
</mgrwt>
</event>
<event>
 4    0  0.1005289E-001  0.3731526E+03  0.7546771E-02  0.1053494E+00
         21   -1    0    0  502  501  0.00000000000E+00  0.00000000000E+00  0.14684065315E+03  0.14684065315E+03  0.00000000000E+00 0. -1.
         21   -1    0    0  503  502 -0.00000000000E+00 -0.00000000000E+00 -0.20070712048E+04  0.20070712048E+04  0.00000000000E+00 0. -1.
         25    1    1    2    0    0  0.31879320606E+03  0.14828609343E+03 -0.17441969882E+04  0.17836664507E+04  0.12500000000E+03 0.  0.
         21    1    1    2  503  501 -0.31879320606E+03 -0.14828609343E+03 -0.11603356343E+03  0.37024540724E+03  0.00000000000E+00 0. -1.
<mgrwt>
<rscale>  3 0.37315261E+03</rscale>
<asrwt>0</asrwt>
<pdfrwt beam="1">  1       21 0.22590870E-01 0.37315261E+03</pdfrwt>
<pdfrwt beam="2">  1       21 0.30878018E+00 0.37315261E+03</pdfrwt>
<totfact> 0.46491651E+02</totfact>
</mgrwt>
</event>
<event>
 4    0  0.1324812E-001  0.2472856E+03  0.7546771E-02  0.1115032E+00
         21   -1    0    0  502  501  0.00000000000E+00  0.00000000000E+00  0.25764061571E+02  0.25764061571E+02  0.00000000000E+00 0.  1.
         21   -1    0    0  503  502 -0.00000000000E+00 -0.00000000000E+00 -0.24714783046E+04  0.24714783046E+04  0.00000000000E+00 0.  1.
         25    1    1    2    0    0 -0.38060545300E+02 -0.20994414887E+03 -0.18067751481E+04  0.18236190903E+04  0.12500000000E+03 0.  0.
         21    1    1    2  503  501  0.38060545300E+02  0.20994414887E+03 -0.63893909495E+03  0.67362327588E+03  0.00000000000E+00 0.  1.
<mgrwt>
<rscale>  3 0.24728557E+03</rscale>
<asrwt>0</asrwt>
<pdfrwt beam="1">  1       21 0.39637007E-02 0.24728557E+03</pdfrwt>
<pdfrwt beam="2">  1       21 0.38022754E+00 0.24728557E+03</pdfrwt>
<totfact> 0.42983720E+03</totfact>
</mgrwt>
</event>
