<event>
 5    0  0.2213064E+000  0.2393628E+03  0.7546771E-02  0.1120218E+00
         21   -1    0    0  502  501  0.00000000000E+00  0.00000000000E+00  0.10810597944E+03  0.10810597944E+03  0.00000000000E+00 0. -1.
         21   -1    0    0  503  502 -0.00000000000E+00 -0.00000000000E+00 -0.46500496059E+03  0.46500496059E+03  0.00000000000E+00 0. -1.
         25    1    1    2    0    0 -0.17893102784E+00 -0.20413111779E+03 -0.17156503243E+03  0.29449805707E+03  0.12500000000E+03 0.  0.
         21    1    1    2  503  504  0.10486828242E+02  0.18610669342E+03 -0.15846920461E+03  0.24465928086E+03  0.00000000000E+00 0. -1.
         21    1    1    2  504  501 -0.10307897214E+02  0.18024424369E+02 -0.26864744111E+02  0.33953602091E+02  0.00000000000E+00 0. -1.
<mgrwt>
<rscale>  4 0.23936279E+03</rscale>
<asrwt>0</asrwt>
<pdfrwt beam="1">  1       21 0.16631689E-01 0.23936279E+03</pdfrwt>
<pdfrwt beam="2">  1       21 0.71539226E-01 0.23936279E+03</pdfrwt>
<totfact> 0.56165427E+04</totfact>
</mgrwt>
</event>
<event>
 5    0  0.2213064E+000  0.2631581E+03  0.7546771E-02  0.1105261E+00
         21   -1    0    0  502  501  0.00000000000E+00  0.00000000000E+00  0.23555619102E+03  0.23555619102E+03  0.00000000000E+00 0.  1.
         21   -1    0    0  503  502 -0.00000000000E+00 -0.00000000000E+00 -0.69728915534E+03  0.69728915534E+03  0.00000000000E+00 0.  1.
         25    1    1    2    0    0 -0.21493636410E+03  0.86194778068E+02  0.12908288046E+03  0.29311187354E+03  0.12500000000E+03 0.  0.
         21    1    1    2  503  504  0.14297142245E+03 -0.54532636261E+02 -0.48043428437E+03  0.50421398003E+03  0.00000000000E+00 0.  1.
         21    1    1    2  504  501  0.71964941659E+02 -0.31662141807E+02 -0.11038156040E+03  0.13551949280E+03  0.00000000000E+00 0.  1.
<mgrwt>
<rscale>  4 0.26315809E+03</rscale>
<asrwt>0</asrwt>
<pdfrwt beam="1">  1       21 0.36239415E-01 0.26315809E+03</pdfrwt>
<pdfrwt beam="2">  1       21 0.10727525E+00 0.26315809E+03</pdfrwt>
<totfact> 0.48495923E+03</totfact>
</mgrwt>
</event>
<event>
 5    0  0.2213064E+000  0.2608671E+03  0.7546771E-02  0.1106623E+00
         21   -1    0    0  502  501  0.00000000000E+00  0.00000000000E+00  0.29081383618E+03  0.29081383618E+03  0.00000000000E+00 0.  1.
         21   -1    0    0  503  502 -0.00000000000E+00 -0.00000000000E+00 -0.68822682356E+03  0.68822682356E+03  0.00000000000E+00 0.  1.
         25    1    1    2    0    0  0.48476948001E+02  0.22819943895E+03  0.19726241754E+03  0.33009462250E+03  0.12500000000E+03 0.  0.
         21    1    1    2  503  504 -0.48904630829E+02 -0.18501983647E+03 -0.56505171684E+03  0.59657978972E+03  0.00000000000E+00 0.  1.
         21    1    1    2  504  501  0.42768282793E+00 -0.43179602483E+02 -0.29623688094E+02  0.52366247522E+02  0.00000000000E+00 0. -1.
<mgrwt>
<rscale>  4 0.26086707E+03</rscale>
<asrwt>0</asrwt>
<pdfrwt beam="1">  1       21 0.44740591E-01 0.26086707E+03</pdfrwt>
<pdfrwt beam="2">  1       21 0.10588105E+00 0.26086707E+03</pdfrwt>
<totfact> 0.32634323E+03</totfact>
</mgrwt>
</event>
<event>
 5    0  0.2213064E+000  0.4424645E+03  0.7546771E-02  0.1029993E+00
         21   -1    0    0  502  501  0.00000000000E+00  0.00000000000E+00  0.16149570368E+04  0.16149570368E+04  0.00000000000E+00 0. -1.
         21   -1    0    0  503  502 -0.00000000000E+00 -0.00000000000E+00 -0.19251386286E+03  0.19251386286E+03  0.00000000000E+00 0. -1.
         25    1    1    2    0    0  0.29975828779E+03  0.28653672811E+03  0.11962012271E+04  0.12721952300E+04  0.12500000000E+03 0.  0.
         21    1    1    2  503  504 -0.45669193850E+01  0.21820876377E+02  0.81554144617E+02  0.84546353575E+02  0.00000000000E+00 0.  1.
         21    1    1    2  504  501 -0.29519136841E+03 -0.30835760449E+03  0.14468780223E+03  0.45072931605E+03  0.00000000000E+00 0. -1.
<mgrwt>
<rscale>  4 0.44246451E+03</rscale>
<asrwt>0</asrwt>
<pdfrwt beam="1">  1       21 0.24845492E+00 0.44246451E+03</pdfrwt>
<pdfrwt beam="2">  1       21 0.29617518E-01 0.44246451E+03</pdfrwt>
<totfact> 0.60627747E+02</totfact>
</mgrwt>
</event>
<event>
 5    0  0.2213064E+000  0.2597714E+03  0.7546771E-02  0.1107281E+00
         21   -1    0    0  502  501  0.00000000000E+00  0.00000000000E+00  0.14149507942E+03  0.14149507942E+03  0.00000000000E+00 0. -1.
         21   -1    0    0  503  502 -0.00000000000E+00 -0.00000000000E+00 -0.83760683599E+03  0.83760683599E+03  0.00000000000E+00 0. -1.
         25    1    1    2    0    0  0.91821476778E+02  0.27506889396E+03 -0.21357907005E+03  0.38122840815E+03  0.12500000000E+03 0.  0.
         21    1    1    2  503  504 -0.13408465299E+03 -0.90801292608E+02 -0.25467456581E+03  0.30179911096E+03  0.00000000000E+00 0. -1.
         21    1    1    2  504  501  0.42263176217E+02 -0.18426760135E+03 -0.22785812071E+03  0.29607439630E+03  0.00000000000E+00 0. -1.
<mgrwt>
<rscale>  4 0.25977138E+03</rscale>
<asrwt>0</asrwt>
<pdfrwt beam="1">  1       21 0.21768473E-01 0.25977138E+03</pdfrwt>
<pdfrwt beam="2">  1       21 0.12886259E+00 0.25977138E+03</pdfrwt>
<totfact> 0.83221362E+03</totfact>
</mgrwt>
</event>
<event>
 5    0  0.2213064E+000  0.2402128E+03  0.7546771E-02  0.1119651E+00
         21   -1    0    0  502  501  0.00000000000E+00  0.00000000000E+00  0.13336399642E+03  0.13336399642E+03  0.00000000000E+00 0. -1.
         21   -1    0    0  503  502 -0.00000000000E+00 -0.00000000000E+00 -0.43930526793E+03  0.43930526793E+03  0.00000000000E+00 0. -1.
         25    1    1    2    0    0 -0.51464250212E+02 -0.19856636381E+03 -0.56180322439E+02  0.24669495033E+03  0.12500000000E+03 0.  0.
         21    1    1    2  503  504  0.78727631026E+01  0.91889811855E+02 -0.13366242771E+03  0.16239261837E+03  0.00000000000E+00 0. -1.
         21    1    1    2  504  501  0.43591487109E+02  0.10667655196E+03 -0.11609852137E+03  0.16358169565E+03  0.00000000000E+00 0. -1.
<mgrwt>
<rscale>  4 0.24021276E+03</rscale>
<asrwt>0</asrwt>
<pdfrwt beam="1">  1       21 0.20517538E-01 0.24021276E+03</pdfrwt>
<pdfrwt beam="2">  1       21 0.67585426E-01 0.24021276E+03</pdfrwt>
<totfact> 0.43060581E+04</totfact>
</mgrwt>
</event>
<event>
 5    0  0.2213064E+000  0.3715129E+03  0.7546771E-02  0.1054116E+00
         21   -1    0    0  502  501  0.00000000000E+00  0.00000000000E+00  0.28545151957E+03  0.28545151957E+03  0.00000000000E+00 0.  1.
         21   -1    0    0  503  502 -0.00000000000E+00 -0.00000000000E+00 -0.50900783287E+03  0.50900783287E+03  0.00000000000E+00 0.  1.
         25    1    1    2    0    0 -0.46739656409E+02 -0.34671639122E+03 -0.61733743485E+01  0.37156420976E+03  0.12500000000E+03 0.  0.
         21    1    1    2  503  504 -0.18587259332E+02  0.14315138443E+03 -0.12110668052E+03  0.18842673149E+03  0.00000000000E+00 0.  1.
         21    1    1    2  504  501  0.65326915740E+02  0.20356500680E+03 -0.96276258425E+02  0.23446841120E+03  0.00000000000E+00 0.  1.
<mgrwt>
<rscale>  4 0.37151292E+03</rscale>
<asrwt>0</asrwt>
<pdfrwt beam="1">  1       21 0.43915619E-01 0.37151292E+03</pdfrwt>
<pdfrwt beam="2">  1       21 0.78308897E-01 0.37151292E+03</pdfrwt>
<totfact> 0.65323721E+03</totfact>
</mgrwt>
</event>
<event>
 5    0  0.2213064E+000  0.2884708E+03  0.7546771E-02  0.1091150E+00
         21   -1    0    0  502  501  0.00000000000E+00  0.00000000000E+00  0.10688860155E+04  0.10688860155E+04  0.00000000000E+00 0.  1.
         21   -1    0    0  503  502 -0.00000000000E+00 -0.00000000000E+00 -0.70566124201E+03  0.70566124201E+03  0.00000000000E+00 0.  1.
         25    1    1    2    0    0 -0.87931719689E+02 -0.24465984300E+03  0.10212630984E+04  0.10612227580E+04  0.12500000000E+03 0.  0.
         21    1    1    2  503  504  0.41184990324E+02  0.21478039994E+03 -0.54973318683E+03  0.59163620607E+03  0.00000000000E+00 0.  1.
         21    1    1    2  504  501  0.46746729364E+02  0.29879443062E+02 -0.10830513804E+03  0.12168829340E+03  0.00000000000E+00 0.  1.
<mgrwt>
<rscale>  4 0.28847084E+03</rscale>
<asrwt>0</asrwt>
<pdfrwt beam="1">  1       21 0.16444400E+00 0.28847084E+03</pdfrwt>
<pdfrwt beam="2">  1       21 0.10856327E+00 0.28847084E+03</pdfrwt>
<totfact> 0.14189252E+02</totfact>
</mgrwt>
</event>
<event>
 5    0  0.2213064E+000  0.2510015E+03  0.7546771E-02  0.1112674E+00
         21   -1    0    0  502  501  0.00000000000E+00  0.00000000000E+00  0.38325933755E+03  0.38325933755E+03  0.00000000000E+00 0.  1.
         21   -1    0    0  503  502 -0.00000000000E+00 -0.00000000000E+00 -0.18471506844E+03  0.18471506844E+03  0.00000000000E+00 0.  1.
         25    1    1    2    0    0 -0.21757094705E+03 -0.62967581204E+01  0.23190527057E+03  0.34173355218E+03  0.12500000000E+03 0.  0.
         21    1    1    2  503  504  0.30493401482E+02  0.49287874451E+01  0.12978079671E+02  0.33504791174E+02  0.00000000000E+00 0.  1.
         21    1    1    2  504  501  0.18707754557E+03  0.13679706753E+01 -0.46339081135E+02  0.19273606264E+03  0.00000000000E+00 0.  1.
<mgrwt>
<rscale>  4 0.25100153E+03</rscale>
<asrwt>0</asrwt>
<pdfrwt beam="1">  1       21 0.58962975E-01 0.25100153E+03</pdfrwt>
<pdfrwt beam="2">  1       21 0.28417703E-01 0.25100153E+03</pdfrwt>
<totfact> 0.30935321E+04</totfact>
</mgrwt>
</event>
<event>
 5    0  0.2213064E+000  0.2687762E+03  0.7546771E-02  0.1101982E+00
         21   -1    0    0  502  501  0.00000000000E+00  0.00000000000E+00  0.53399705331E+02  0.53399705331E+02  0.00000000000E+00 0.  1.
         21   -1    0    0  503  502 -0.00000000000E+00 -0.00000000000E+00 -0.14718502423E+04  0.14718502423E+04  0.00000000000E+00 0.  1.
         25    1    1    2    0    0  0.22569049627E+03  0.67217860947E+02 -0.49810554472E+03  0.56496776423E+03  0.12500000000E+03 0.  0.
         21    1    1    2  503  504 -0.23829492031E+03 -0.44050814221E+02 -0.75758663519E+03  0.79540081286E+03  0.00000000000E+00 0.  1.
         21    1    1    2  504  501  0.12604424044E+02 -0.23167046726E+02 -0.16275835709E+03  0.16488137057E+03  0.00000000000E+00 0.  1.
<mgrwt>
<rscale>  4 0.26877622E+03</rscale>
<asrwt>0</asrwt>
<pdfrwt beam="1">  1       21 0.82153379E-02 0.26877622E+03</pdfrwt>
<pdfrwt beam="2">  1       21 0.22643854E+00 0.26877622E+03</pdfrwt>
<totfact> 0.99272607E+03</totfact>
</mgrwt>
</event>
<event>
 5    0  0.2213064E+000  0.2999259E+03  0.7546771E-02  0.1085278E+00
         21   -1    0    0  502  501  0.00000000000E+00  0.00000000000E+00  0.93226715675E+03  0.93226715675E+03  0.00000000000E+00 0. -1.
         21   -1    0    0  503  502 -0.00000000000E+00 -0.00000000000E+00 -0.35398467754E+03  0.35398467754E+03  0.00000000000E+00 0.  1.
         25    1    1    2    0    0 -0.82955016328E+02 -0.25970950201E+03  0.84875288332E+03  0.90018721226E+03  0.12500000000E+03 0.  0.
         21    1    1    2  503  504  0.77717843621E+02  0.23054825331E+03 -0.25572604266E+03  0.35297077672E+03  0.00000000000E+00 0.  1.
         21    1    1    2  504  501  0.52371727067E+01  0.29161248693E+02 -0.14744361452E+02  0.33093845317E+02  0.00000000000E+00 0.  1.
<mgrwt>
<rscale>  4 0.29992592E+03</rscale>
<asrwt>0</asrwt>
<pdfrwt beam="1">  1       21 0.14342572E+00 0.29992592E+03</pdfrwt>
<pdfrwt beam="2">  1       21 0.54459182E-01 0.29992592E+03</pdfrwt>
<totfact> 0.97865381E+02</totfact>
</mgrwt>
</event>
<event>
 5    0  0.2213064E+000  0.4040138E+03  0.7546771E-02  0.1042399E+00
         21   -1    0    0  502  501  0.00000000000E+00  0.00000000000E+00  0.53743261928E+03  0.53743261928E+03  0.00000000000E+00 0.  1.
         21   -1    0    0  503  502 -0.00000000000E+00 -0.00000000000E+00 -0.29711902488E+03  0.29711902488E+03  0.00000000000E+00 0.  1.
         25    1    1    2    0    0 -0.31833435101E+03 -0.21509384076E+03  0.17538055607E+03  0.44043780357E+03  0.12500000000E+03 0.  0.
         21    1    1    2  503  504  0.28657707860E+03  0.17497281695E+03  0.43265047769E+02  0.33854655959E+03  0.00000000000E+00 0.  1.
         21    1    1    2  504  501  0.31757272411E+02  0.40121023811E+02  0.21667990571E+02  0.55567281002E+02  0.00000000000E+00 0.  1.
<mgrwt>
<rscale>  4 0.40401376E+03</rscale>
<asrwt>0</asrwt>
<pdfrwt beam="1">  1       21 0.82681941E-01 0.40401376E+03</pdfrwt>
<pdfrwt beam="2">  1       21 0.45710619E-01 0.40401376E+03</pdfrwt>
<totfact> 0.52363462E+03</totfact>
</mgrwt>
</event>
<event>
 5    0  0.2213064E+000  0.2366953E+03  0.7546771E-02  0.1122014E+00
         21   -1    0    0  502  501  0.00000000000E+00  0.00000000000E+00  0.50103883106E+03  0.50103883106E+03  0.00000000000E+00 0.  1.
         21   -1    0    0  503  502 -0.00000000000E+00 -0.00000000000E+00 -0.17237796377E+03  0.17237796377E+03  0.00000000000E+00 0.  1.
         25    1    1    2    0    0 -0.19930442339E+03 -0.26027169563E+02  0.39337751175E+03  0.45909752068E+03  0.12500000000E+03 0.  0.
         21    1    1    2  503  504  0.30457446559E+02  0.13477291765E+02 -0.21279111180E+02  0.39523335093E+02  0.00000000000E+00 0.  1.
         21    1    1    2  504  501  0.16884697683E+03  0.12549877798E+02 -0.43437533283E+02  0.17479593907E+03  0.00000000000E+00 0.  1.
<mgrwt>
<rscale>  4 0.23669530E+03</rscale>
<asrwt>0</asrwt>
<pdfrwt beam="1">  1       21 0.77082897E-01 0.23669530E+03</pdfrwt>
<pdfrwt beam="2">  1       21 0.26519687E-01 0.23669530E+03</pdfrwt>
<totfact> 0.19728221E+04</totfact>
</mgrwt>
</event>
<event>
 5    0  0.2213064E+000  0.2299581E+03  0.7546771E-02  0.1126669E+00
         21   -1    0    0  502  501  0.00000000000E+00  0.00000000000E+00  0.18388215087E+03  0.18388215087E+03  0.00000000000E+00 0.  1.
         21   -1    0    0  503  502 -0.00000000000E+00 -0.00000000000E+00 -0.37333816993E+03  0.37333816993E+03  0.00000000000E+00 0.  1.
         25    1    1    2    0    0  0.21111351428E+03 -0.40050520158E+02 -0.24079009639E+02  0.24975539790E+03  0.12500000000E+03 0.  0.
         21    1    1    2  503  504 -0.17076870015E+03  0.38324063456E+02 -0.45305996214E+02  0.18078527618E+03  0.00000000000E+00 0.  1.
         21    1    1    2  504  501 -0.40344814134E+02  0.17264567018E+01 -0.12007101321E+03  0.12667964672E+03  0.00000000000E+00 0.  1.
<mgrwt>
<rscale>  4 0.22995809E+03</rscale>
<asrwt>0</asrwt>
<pdfrwt beam="1">  1       21 0.28289562E-01 0.22995809E+03</pdfrwt>
<pdfrwt beam="2">  1       21 0.57436642E-01 0.22995809E+03</pdfrwt>
<totfact> 0.33334760E+04</totfact>
</mgrwt>
</event>
<event>
 5    0  0.2213064E+000  0.3671965E+03  0.7546771E-02  0.1055770E+00
         21   -1    0    0  502  501  0.00000000000E+00  0.00000000000E+00  0.47214016179E+03  0.47214016179E+03  0.00000000000E+00 0. -1.
         21   -1    0    0  503  502 -0.00000000000E+00 -0.00000000000E+00 -0.37421095094E+03  0.37421095094E+03  0.00000000000E+00 0. -1.
         25    1    1    2    0    0 -0.28675980055E+03  0.22550773405E+03  0.22016430236E+03  0.44405207055E+03  0.12500000000E+03 0.  0.
         21    1    1    2  503  504  0.23248903682E+02 -0.12747185012E+02  0.21738216757E+02  0.34286328411E+02  0.00000000000E+00 0. -1.
         21    1    1    2  504  501  0.26351089687E+03 -0.21276054904E+03 -0.14397330828E+03  0.36801271376E+03  0.00000000000E+00 0. -1.
<mgrwt>
<rscale>  4 0.36719654E+03</rscale>
<asrwt>0</asrwt>
<pdfrwt beam="1">  1       21 0.72636948E-01 0.36719654E+03</pdfrwt>
<pdfrwt beam="2">  1       21 0.57570916E-01 0.36719654E+03</pdfrwt>
<totfact> 0.43723563E+03</totfact>
</mgrwt>
</event>
<event>
 5    0  0.2213064E+000  0.3272435E+03  0.7546771E-02  0.1072363E+00
         21   -1    0    0  502  501  0.00000000000E+00  0.00000000000E+00  0.28073334156E+03  0.28073334156E+03  0.00000000000E+00 0. -1.
         21   -1    0    0  503  502 -0.00000000000E+00 -0.00000000000E+00 -0.39946204577E+03  0.39946204577E+03  0.00000000000E+00 0. -1.
         25    1    1    2    0    0 -0.13140769689E+03 -0.27238821478E+03  0.48447171572E+02  0.33081029425E+03  0.12500000000E+03 0.  0.
         21    1    1    2  503  504  0.95622186882E+02  0.21531146990E+03 -0.15187812655E+03  0.28030268821E+03  0.00000000000E+00 0. -1.
         21    1    1    2  504  501  0.35785510004E+02  0.57076744875E+02 -0.15297749236E+02  0.69082404876E+02  0.00000000000E+00 0.  1.
<mgrwt>
<rscale>  4 0.32724352E+03</rscale>
<asrwt>0</asrwt>
<pdfrwt beam="1">  1       21 0.43189745E-01 0.32724352E+03</pdfrwt>
<pdfrwt beam="2">  1       21 0.61455699E-01 0.32724352E+03</pdfrwt>
<totfact> 0.11828465E+04</totfact>
</mgrwt>
</event>
<event>
 5    0  0.2213064E+000  0.2878397E+03  0.7546771E-02  0.1091482E+00
         21   -1    0    0  502  501  0.00000000000E+00  0.00000000000E+00  0.28022000613E+03  0.28022000613E+03  0.00000000000E+00 0.  1.
         21   -1    0    0  503  502 -0.00000000000E+00 -0.00000000000E+00 -0.52653379561E+03  0.52653379561E+03  0.00000000000E+00 0. -1.
         25    1    1    2    0    0 -0.25630337272E+03  0.39182455612E+02  0.15438287996E+03  0.32662785754E+03  0.12500000000E+03 0.  0.
         21    1    1    2  503  504  0.16759371977E+03 -0.28629077385E+02 -0.30516335725E+03  0.34933072237E+03  0.00000000000E+00 0. -1.
         21    1    1    2  504  501  0.88709652945E+02 -0.10553378227E+02 -0.95533312182E+02  0.13079522183E+03  0.00000000000E+00 0. -1.
<mgrwt>
<rscale>  4 0.28783968E+03</rscale>
<asrwt>0</asrwt>
<pdfrwt beam="1">  1       21 0.43110771E-01 0.28783968E+03</pdfrwt>
<pdfrwt beam="2">  1       21 0.81005199E-01 0.28783968E+03</pdfrwt>
<totfact> 0.65183879E+03</totfact>
</mgrwt>
</event>
<event>
 5    0  0.2213064E+000  0.2899500E+03  0.7546771E-02  0.1090375E+00
         21   -1    0    0  502  501  0.00000000000E+00  0.00000000000E+00  0.10190375225E+03  0.10190375225E+03  0.00000000000E+00 0.  1.
         21   -1    0    0  503  502 -0.00000000000E+00 -0.00000000000E+00 -0.17304671339E+04  0.17304671339E+04  0.00000000000E+00 0.  1.
         25    1    1    2    0    0 -0.20766699065E+03  0.22492517072E+03 -0.27590822618E+03  0.43065910034E+03  0.12500000000E+03 0.  0.
         21    1    1    2  503  504  0.13546542299E+03 -0.14977142195E+03 -0.45218525965E+03  0.49523112655E+03  0.00000000000E+00 0.  1.
         21    1    1    2  504  501  0.72201567665E+02 -0.75153748764E+02 -0.90046989585E+03  0.90648065928E+03  0.00000000000E+00 0.  1.
<mgrwt>
<rscale>  4 0.28995004E+03</rscale>
<asrwt>0</asrwt>
<pdfrwt beam="1">  1       21 0.15677501E-01 0.28995004E+03</pdfrwt>
<pdfrwt beam="2">  1       21 0.26622571E+00 0.28995004E+03</pdfrwt>
<totfact> 0.17595788E+03</totfact>
</mgrwt>
</event>
<event>
 5    0  0.2213064E+000  0.3217530E+03  0.7546771E-02  0.1074845E+00
         21   -1    0    0  502  501  0.00000000000E+00  0.00000000000E+00  0.12938787183E+04  0.12938787183E+04  0.00000000000E+00 0.  1.
         21   -1    0    0  503  502 -0.00000000000E+00 -0.00000000000E+00 -0.31773417750E+03  0.31773417750E+03  0.00000000000E+00 0.  1.
         25    1    1    2    0    0  0.21552707957E+03 -0.20447445174E+03  0.11874542401E+04  0.12304203736E+04  0.12500000000E+03 0.  0.
         21    1    1    2  503  504 -0.19267539812E+03  0.21671205764E+03 -0.18343459246E+03  0.34312705326E+03  0.00000000000E+00 0.  1.
         21    1    1    2  504  501 -0.22851681445E+02 -0.12237605895E+02 -0.27875106850E+02  0.38065468930E+02  0.00000000000E+00 0.  1.
<mgrwt>
<rscale>  4 0.32175297E+03</rscale>
<asrwt>0</asrwt>
<pdfrwt beam="1">  1       21 0.19905826E+00 0.32175297E+03</pdfrwt>
<pdfrwt beam="2">  1       21 0.48882182E-01 0.32175297E+03</pdfrwt>
<totfact> 0.48220073E+02</totfact>
</mgrwt>
</event>
<event>
 5    0  0.2213064E+000  0.3260869E+03  0.7546771E-02  0.1072882E+00
         21   -1    0    0  502  501  0.00000000000E+00  0.00000000000E+00  0.36946935127E+03  0.36946935127E+03  0.00000000000E+00 0.  1.
         21   -1    0    0  503  502 -0.00000000000E+00 -0.00000000000E+00 -0.15242995004E+04  0.15242995004E+04  0.00000000000E+00 0. -1.
         25    1    1    2    0    0 -0.27066863999E+03  0.14040802796E+03  0.27161150896E+03  0.42705238413E+03  0.12500000000E+03 0.  0.
         21    1    1    2  503  504  0.81343378115E+02  0.24036868093E+02 -0.25509617682E+03  0.26882815258E+03  0.00000000000E+00 0. -1.
         21    1    1    2  504  501  0.18932526188E+03 -0.16444489605E+03 -0.11713454812E+04  0.11978883149E+04  0.00000000000E+00 0. -1.
<mgrwt>
<rscale>  4 0.32608688E+03</rscale>
<asrwt>0</asrwt>
<pdfrwt beam="1">  1       21 0.56841439E-01 0.32608688E+03</pdfrwt>
<pdfrwt beam="2">  1       21 0.23450761E+00 0.32608688E+03</pdfrwt>
<totfact> 0.20760416E+02</totfact>
</mgrwt>
</event>
<event>
 5    0  0.2213064E+000  0.2751323E+03  0.7546771E-02  0.1098378E+00
         21   -1    0    0  502  501  0.00000000000E+00  0.00000000000E+00  0.11386769475E+03  0.11386769475E+03  0.00000000000E+00 0. -1.
         21   -1    0    0  503  502 -0.00000000000E+00 -0.00000000000E+00 -0.74837840563E+03  0.74837840563E+03  0.00000000000E+00 0. -1.
         25    1    1    2    0    0 -0.20744368339E+03  0.15909421261E+03 -0.26546753129E+03  0.39299091648E+03  0.12500000000E+03 0.  0.
         21    1    1    2  503  504  0.26053981739E+02 -0.15380358765E+02 -0.14152970601E+03  0.14472740958E+03  0.00000000000E+00 0. -1.
         21    1    1    2  504  501  0.18138970165E+03 -0.14371385384E+03 -0.22751347357E+03  0.32452777432E+03  0.00000000000E+00 0. -1.
<mgrwt>
<rscale>  4 0.27513230E+03</rscale>
<asrwt>0</asrwt>
<pdfrwt beam="1">  1       21 0.17518107E-01 0.27513230E+03</pdfrwt>
<pdfrwt beam="2">  1       21 0.11513514E+00 0.27513230E+03</pdfrwt>
<totfact> 0.16469573E+04</totfact>
</mgrwt>
</event>
<event>
 5    0  0.2213064E+000  0.2756239E+03  0.7546771E-02  0.1098103E+00
         21   -1    0    0  502  501  0.00000000000E+00  0.00000000000E+00  0.24560314422E+03  0.24560314422E+03  0.00000000000E+00 0.  1.
         21   -1    0    0  503  502 -0.00000000000E+00 -0.00000000000E+00 -0.52017192803E+03  0.52017192803E+03  0.00000000000E+00 0.  1.
         25    1    1    2    0    0 -0.24054069399E+03  0.49836650396E+02 -0.39713224546E+03  0.48340721712E+03  0.12500000000E+03 0.  0.
         21    1    1    2  503  504  0.15640753433E+03 -0.33547273681E+02  0.11361404459E+03  0.19620623715E+03  0.00000000000E+00 0.  1.
         21    1    1    2  504  501  0.84133159660E+02 -0.16289376714E+02  0.89494170571E+01  0.86161617985E+02  0.00000000000E+00 0.  1.
<mgrwt>
<rscale>  4 0.27562387E+03</rscale>
<asrwt>0</asrwt>
<pdfrwt beam="1">  1       21 0.37785100E-01 0.27562387E+03</pdfrwt>
<pdfrwt beam="2">  1       21 0.80026449E-01 0.27562387E+03</pdfrwt>
<totfact> 0.88269398E+03</totfact>
</mgrwt>
</event>
<event>
 5    0  0.2213064E+000  0.3060640E+03  0.7546771E-02  0.1082248E+00
         21   -1    0    0  502  501  0.00000000000E+00  0.00000000000E+00  0.42556089760E+03  0.42556089760E+03  0.00000000000E+00 0.  1.
         21   -1    0    0  503  502 -0.00000000000E+00 -0.00000000000E+00 -0.36445965299E+03  0.36445965299E+03  0.00000000000E+00 0.  1.
         25    1    1    2    0    0  0.25666084795E+03  0.11034197563E+03  0.28907953560E+03  0.42100133059E+03  0.12500000000E+03 0.  0.
         21    1    1    2  503  504 -0.38167530097E+02 -0.13290612020E+02 -0.26688050378E+01  0.40503373216E+02  0.00000000000E+00 0.  1.
         21    1    1    2  504  501 -0.21849331785E+03 -0.97051363609E+02 -0.22530948596E+03  0.32851584678E+03  0.00000000000E+00 0.  1.
<mgrwt>
<rscale>  4 0.30606395E+03</rscale>
<asrwt>0</asrwt>
<pdfrwt beam="1">  1       21 0.65470907E-01 0.30606395E+03</pdfrwt>
<pdfrwt beam="2">  1       21 0.56070716E-01 0.30606395E+03</pdfrwt>
<totfact> 0.59969627E+03</totfact>
</mgrwt>
</event>
<event>
 5    0  0.2213064E+000  0.2692452E+03  0.7546771E-02  0.1101712E+00
         21   -1    0    0  502  501  0.00000000000E+00  0.00000000000E+00  0.91896225636E+02  0.91896225636E+02  0.00000000000E+00 0. -1.
         21   -1    0    0  503  502 -0.00000000000E+00 -0.00000000000E+00 -0.73500467551E+03  0.73500467551E+03  0.00000000000E+00 0. -1.
         25    1    1    2    0    0  0.21889085837E+03 -0.94629648477E+02 -0.28170249279E+03  0.38967842216E+03  0.12500000000E+03 0.  0.
         21    1    1    2  503  504 -0.53670272858E+02  0.20281264870E+02 -0.13889682982E+03  0.15028026227E+03  0.00000000000E+00 0. -1.
         21    1    1    2  504  501 -0.16522058551E+03  0.74348383607E+02 -0.22250912727E+03  0.28694221672E+03  0.00000000000E+00 0. -1.
<mgrwt>
<rscale>  4 0.26924520E+03</rscale>
<asrwt>0</asrwt>
<pdfrwt beam="1">  1       21 0.14137881E-01 0.26924520E+03</pdfrwt>
<pdfrwt beam="2">  1       21 0.11307764E+00 0.26924520E+03</pdfrwt>
<totfact> 0.25627707E+04</totfact>
</mgrwt>
</event>
<event>
 5    0  0.2213064E+000  0.3850019E+03  0.7546771E-02  0.1050658E+00
         21   -1    0    0  502  501  0.00000000000E+00  0.00000000000E+00  0.35902157026E+03  0.35902157026E+03  0.00000000000E+00 0. -1.
         21   -1    0    0  503  502 -0.00000000000E+00 -0.00000000000E+00 -0.71199161667E+03  0.71199161667E+03  0.00000000000E+00 0. -1.
         25    1    1    2    0    0  0.30446839658E+03 -0.16519396076E+03  0.18289949297E+03  0.41117791005E+03  0.12500000000E+03 0.  0.
         21    1    1    2  503  504 -0.22129847017E+03  0.61575835891E+02 -0.43879398179E+03  0.49528250011E+03  0.00000000000E+00 0. -1.
         21    1    1    2  504  501 -0.83169926406E+02  0.10361812487E+03 -0.97075557599E+02  0.16455277677E+03  0.00000000000E+00 0. -1.
<mgrwt>
<rscale>  4 0.38074622E+03</rscale>
<asrwt>0</asrwt>
<pdfrwt beam="1">  1       21 0.55234087E-01 0.38500186E+03</pdfrwt>
<pdfrwt beam="2">  1       21 0.10953717E+00 0.38500186E+03</pdfrwt>
<totfact> 0.18012952E+03</totfact>
</mgrwt>
</event>
<event>
 5    0  0.2213064E+000  0.2603892E+03  0.7546771E-02  0.1106910E+00
         21   -1    0    0  502  501  0.00000000000E+00  0.00000000000E+00  0.62472476443E+02  0.62472476443E+02  0.00000000000E+00 0.  1.
         21   -1    0    0  503  502 -0.00000000000E+00 -0.00000000000E+00 -0.21872233714E+04  0.21872233714E+04  0.00000000000E+00 0.  1.
         25    1    1    2    0    0  0.23464388498E+03  0.60680306242E+02 -0.30275935702E+03  0.40746543484E+03  0.12500000000E+03 0.  0.
         21    1    1    2  503  504 -0.79129676691E+02  0.73030309391E+01 -0.28419128347E+03  0.29509240179E+03  0.00000000000E+00 0.  1.
         21    1    1    2  504  501 -0.15551420829E+03 -0.67983337181E+02 -0.15378002545E+04  0.15471380112E+04  0.00000000000E+00 0.  1.
<mgrwt>
<rscale>  4 0.26038917E+03</rscale>
<asrwt>0</asrwt>
<pdfrwt beam="1">  1       21 0.96111501E-02 0.26038917E+03</pdfrwt>
<pdfrwt beam="2">  1       21 0.33649591E+00 0.26038917E+03</pdfrwt>
<totfact> 0.16869641E+03</totfact>
</mgrwt>
</event>
<event>
 5    0  0.2213064E+000  0.2485138E+03  0.7546771E-02  0.1114248E+00
         21   -1    0    0  502  501  0.00000000000E+00  0.00000000000E+00  0.20573206587E+03  0.20573206587E+03  0.00000000000E+00 0.  1.
         21   -1    0    0  503  502 -0.00000000000E+00 -0.00000000000E+00 -0.28451081144E+03  0.28451081144E+03  0.00000000000E+00 0.  1.
         25    1    1    2    0    0 -0.19401297931E+03 -0.92157800238E+02 -0.97405274250E+02  0.26692111895E+03  0.12500000000E+03 0.  0.
         21    1    1    2  503  504  0.41448030934E+02  0.47712395950E+02  0.11617110539E+02  0.64260168479E+02  0.00000000000E+00 0.  1.
         21    1    1    2  504  501  0.15256494838E+03  0.44445404288E+02  0.70094181408E+01  0.15906158989E+03  0.00000000000E+00 0.  1.
<mgrwt>
<rscale>  4 0.24851377E+03</rscale>
<asrwt>0</asrwt>
<pdfrwt beam="1">  1       21 0.31651087E-01 0.24851377E+03</pdfrwt>
<pdfrwt beam="2">  1       21 0.43770894E-01 0.24851377E+03</pdfrwt>
<totfact> 0.46929638E+04</totfact>
</mgrwt>
</event>
<event>
 5    0  0.2213064E+000  0.2049579E+03  0.7546771E-02  0.1145622E+00
         21   -1    0    0  502  501  0.00000000000E+00  0.00000000000E+00  0.22404075412E+03  0.22404075412E+03  0.00000000000E+00 0.  1.
         21   -1    0    0  503  502 -0.00000000000E+00 -0.00000000000E+00 -0.29189515762E+03  0.29189515762E+03  0.00000000000E+00 0.  1.
         25    1    1    2    0    0  0.11343060606E+03 -0.17818128247E+03  0.48038859603E+02  0.25009558942E+03  0.12500000000E+03 0.  0.
         21    1    1    2  503  504 -0.99178693208E+02  0.11440340451E+03 -0.12932684434E+03  0.19912303940E+03  0.00000000000E+00 0.  1.
         21    1    1    2  504  501 -0.14251912856E+02  0.63777877958E+02  0.13433581236E+02  0.66717282931E+02  0.00000000000E+00 0.  1.
<mgrwt>
<rscale>  4 0.20495795E+03</rscale>
<asrwt>0</asrwt>
<pdfrwt beam="1">  1       21 0.34467808E-01 0.20495795E+03</pdfrwt>
<pdfrwt beam="2">  1       21 0.44906947E-01 0.20495795E+03</pdfrwt>
<totfact> 0.38358585E+04</totfact>
</mgrwt>
</event>
<event>
 5    0  0.2213064E+000  0.3504635E+03  0.7546771E-02  0.1062644E+00
         21   -1    0    0  502  501  0.00000000000E+00  0.00000000000E+00  0.73783463161E+03  0.73783463161E+03  0.00000000000E+00 0. -1.
         21   -1    0    0  503  502 -0.00000000000E+00 -0.00000000000E+00 -0.45271159235E+03  0.45271159235E+03  0.00000000000E+00 0. -1.
         25    1    1    2    0    0 -0.27418482156E+03 -0.17473026177E+03  0.61657937961E+03  0.70816884435E+03  0.12500000000E+03 0.  0.
         21    1    1    2  503  504  0.91655024735E+02  0.32470429295E+02 -0.18359260854E+03  0.20775278157E+03  0.00000000000E+00 0. -1.
         21    1    1    2  504  501  0.18252979683E+03  0.14225983248E+03 -0.14786373181E+03  0.27462459804E+03  0.00000000000E+00 0. -1.
<mgrwt>
<rscale>  4 0.34992858E+03</rscale>
<asrwt>0</asrwt>
<pdfrwt beam="1">  1       21 0.11351302E+00 0.35046345E+03</pdfrwt>
<pdfrwt beam="2">  1       21 0.69647937E-01 0.35046345E+03</pdfrwt>
<totfact> 0.10088033E+03</totfact>
</mgrwt>
</event>
<event>
 5    0  0.2213064E+000  0.2573551E+03  0.7546771E-02  0.1108743E+00
         21   -1    0    0  502  501  0.00000000000E+00  0.00000000000E+00  0.10266375692E+03  0.10266375692E+03  0.00000000000E+00 0. -1.
         21   -1    0    0  503  502 -0.00000000000E+00 -0.00000000000E+00 -0.81199216835E+03  0.81199216835E+03  0.00000000000E+00 0. -1.
         25    1    1    2    0    0  0.22042542506E+03  0.44936481119E+02 -0.12254175617E+03  0.28504058896E+03  0.12500000000E+03 0.  0.
         21    1    1    2  503  504 -0.19009860970E+03 -0.34071865691E+02 -0.53311133708E+03  0.56701505374E+03  0.00000000000E+00 0. -1.
         21    1    1    2  504  501 -0.30326815355E+02 -0.10864615428E+02 -0.53675318172E+02  0.62600282578E+02  0.00000000000E+00 0.  1.
<mgrwt>
<rscale>  4 0.25735512E+03</rscale>
<asrwt>0</asrwt>
<pdfrwt beam="1">  1       21 0.15794424E-01 0.25735512E+03</pdfrwt>
<pdfrwt beam="2">  1       21 0.12492188E+00 0.25735512E+03</pdfrwt>
<totfact> 0.16413714E+04</totfact>
</mgrwt>
</event>
<event>
 5    0  0.2213064E+000  0.2623778E+03  0.7546771E-02  0.1105723E+00
         21   -1    0    0  502  501  0.00000000000E+00  0.00000000000E+00  0.97170350799E+03  0.97170350799E+03  0.00000000000E+00 0.  1.
         21   -1    0    0  503  502 -0.00000000000E+00 -0.00000000000E+00 -0.18271538157E+03  0.18271538157E+03  0.00000000000E+00 0.  1.
         25    1    1    2    0    0  0.22530848884E+03  0.59438638858E+02  0.85854903694E+03  0.89834754731E+03  0.12500000000E+03 0.  0.
         21    1    1    2  503  504 -0.21441913786E+02 -0.13993232499E+00  0.16419386349E+02  0.27006878679E+02  0.00000000000E+00 0.  1.
         21    1    1    2  504  501 -0.20386657506E+03 -0.59298706533E+02 -0.85980296872E+02  0.22906446357E+03  0.00000000000E+00 0.  1.
<mgrwt>
<rscale>  4 0.26237779E+03</rscale>
<asrwt>0</asrwt>
<pdfrwt beam="1">  1       21 0.14949284E+00 0.26237779E+03</pdfrwt>
<pdfrwt beam="2">  1       21 0.28110059E-01 0.26237779E+03</pdfrwt>
<totfact> 0.34547172E+03</totfact>
</mgrwt>
</event>
<event>
 5    0  0.2213064E+000  0.2238438E+03  0.7546771E-02  0.1131049E+00
         21   -1    0    0  502  501  0.00000000000E+00  0.00000000000E+00  0.13773123276E+03  0.13773123276E+03  0.00000000000E+00 0. -1.
         21   -1    0    0  503  502 -0.00000000000E+00 -0.00000000000E+00 -0.80966210583E+03  0.80966210583E+03  0.00000000000E+00 0. -1.
         25    1    1    2    0    0 -0.21467811761E+03  0.67718709739E+02 -0.40498886418E+02  0.26064857113E+03  0.12500000000E+03 0.  0.
         21    1    1    2  503  504  0.18049558805E+03 -0.16710094340E+02 -0.57660498920E+03  0.60442633805E+03  0.00000000000E+00 0. -1.
         21    1    1    2  504  501  0.34182529560E+02 -0.51008615399E+02 -0.54826997449E+02  0.82318429415E+02  0.00000000000E+00 0. -1.
<mgrwt>
<rscale>  4 0.22384383E+03</rscale>
<asrwt>0</asrwt>
<pdfrwt beam="1">  1       21 0.21189420E-01 0.22384383E+03</pdfrwt>
<pdfrwt beam="2">  1       21 0.12456340E+00 0.22384383E+03</pdfrwt>
<totfact> 0.97536913E+03</totfact>
</mgrwt>
</event>
<event>
 5    0  0.2213064E+000  0.2639337E+03  0.7546771E-02  0.1104803E+00
         21   -1    0    0  502  501  0.00000000000E+00  0.00000000000E+00  0.52895688259E+03  0.52895688259E+03  0.00000000000E+00 0.  1.
         21   -1    0    0  503  502 -0.00000000000E+00 -0.00000000000E+00 -0.33172166695E+03  0.33172166695E+03  0.00000000000E+00 0. -1.
         25    1    1    2    0    0  0.20532499674E+03 -0.73358870991E+02  0.33684709166E+03  0.42027472134E+03  0.12500000000E+03 0.  0.
         21    1    1    2  503  504 -0.30815673891E+03  0.50944926275E+02 -0.10866042315E+03  0.33070084488E+03  0.00000000000E+00 0. -1.
         21    1    1    2  504  501  0.10283174217E+03  0.22413944715E+02 -0.30951452864E+02  0.10970298332E+03  0.00000000000E+00 0.  1.
<mgrwt>
<rscale>  4 0.26393365E+03</rscale>
<asrwt>0</asrwt>
<pdfrwt beam="1">  1       21 0.81377982E-01 0.26393365E+03</pdfrwt>
<pdfrwt beam="2">  1       21 0.51034103E-01 0.26393365E+03</pdfrwt>
<totfact> 0.45981290E+03</totfact>
</mgrwt>
</event>
<event>
 5    0  0.2213064E+000  0.2614034E+03  0.7546771E-02  0.1106303E+00
         21   -1    0    0  502  501  0.00000000000E+00  0.00000000000E+00  0.30754285716E+03  0.30754285716E+03  0.00000000000E+00 0. -1.
         21   -1    0    0  503  502 -0.00000000000E+00 -0.00000000000E+00 -0.20298239364E+03  0.20298239364E+03  0.00000000000E+00 0. -1.
         25    1    1    2    0    0 -0.22770331345E+03  0.29290463811E+02  0.37720704464E+02  0.26411092702E+03  0.12500000000E+03 0.  0.
         21    1    1    2  503  504  0.48512993367E+02  0.17540645631E+02  0.88581505416E+01  0.52341681341E+02  0.00000000000E+00 0. -1.
         21    1    1    2  504  501  0.17919032008E+03 -0.46831109442E+02  0.57981608512E+02  0.19407264245E+03  0.00000000000E+00 0. -1.
<mgrwt>
<rscale>  4 0.26140339E+03</rscale>
<asrwt>0</asrwt>
<pdfrwt beam="1">  1       21 0.47314286E-01 0.26140339E+03</pdfrwt>
<pdfrwt beam="2">  1       21 0.31228061E-01 0.26140339E+03</pdfrwt>
<totfact> 0.40806438E+04</totfact>
</mgrwt>
</event>
<event>
 5    0  0.2213064E+000  0.3444509E+03  0.7546771E-02  0.1064916E+00
         21   -1    0    0  502  501  0.00000000000E+00  0.00000000000E+00  0.16311807025E+03  0.16311807025E+03  0.00000000000E+00 0. -1.
         21   -1    0    0  503  502 -0.00000000000E+00 -0.00000000000E+00 -0.74507882892E+03  0.74507882892E+03  0.00000000000E+00 0. -1.
         25    1    1    2    0    0 -0.27359466985E+03 -0.16783141082E+03 -0.18618364504E+03  0.39154919935E+03  0.12500000000E+03 0.  0.
         21    1    1    2  503  504  0.10131677532E+03  0.46322226384E+02 -0.20005633366E+03  0.22898334930E+03  0.00000000000E+00 0.  1.
         21    1    1    2  504  501  0.17227789453E+03  0.12150918444E+03 -0.19572077998E+03  0.28766435052E+03  0.00000000000E+00 0. -1.
<mgrwt>
<rscale>  4 0.34445090E+03</rscale>
<asrwt>0</asrwt>
<pdfrwt beam="1">  1       21 0.25095088E-01 0.34445090E+03</pdfrwt>
<pdfrwt beam="2">  1       21 0.11462751E+00 0.34445090E+03</pdfrwt>
<totfact> 0.81635438E+03</totfact>
</mgrwt>
</event>
<event>
 5    0  0.2213064E+000  0.2696260E+03  0.7546771E-02  0.1101494E+00
         21   -1    0    0  502  501  0.00000000000E+00  0.00000000000E+00  0.15669535843E+04  0.15669535843E+04  0.00000000000E+00 0. -1.
         21   -1    0    0  503  502 -0.00000000000E+00 -0.00000000000E+00 -0.24363293082E+03  0.24363293082E+03  0.00000000000E+00 0.  1.
         25    1    1    2    0    0  0.52017622043E+02 -0.23196937180E+03  0.14629817709E+04  0.14874327832E+04  0.12500000000E+03 0.  0.
         21    1    1    2  503  504 -0.48647064405E+02  0.25570015392E+03 -0.14589629974E+03  0.29838705714E+03  0.00000000000E+00 0.  1.
         21    1    1    2  504  501 -0.33705576383E+01 -0.23730782119E+02  0.62351822256E+01  0.24766674709E+02  0.00000000000E+00 0.  1.
<mgrwt>
<rscale>  4 0.26962604E+03</rscale>
<asrwt>0</asrwt>
<pdfrwt beam="1">  1       21 0.24106978E+00 0.26962604E+03</pdfrwt>
<pdfrwt beam="2">  1       21 0.37481990E-01 0.26962604E+03</pdfrwt>
<totfact> 0.47335197E+02</totfact>
</mgrwt>
</event>
<event>
 5    0  0.2213064E+000  0.2524313E+03  0.7546771E-02  0.1111778E+00
         21   -1    0    0  502  501  0.00000000000E+00  0.00000000000E+00  0.30748746881E+03  0.30748746881E+03  0.00000000000E+00 0.  1.
         21   -1    0    0  503  502 -0.00000000000E+00 -0.00000000000E+00 -0.15403830939E+04  0.15403830939E+04  0.00000000000E+00 0. -1.
         25    1    1    2    0    0 -0.86957452916E+02 -0.20133296783E+03  0.24584031929E+03  0.35236206541E+03  0.12500000000E+03 0.  0.
         21    1    1    2  503  504  0.70373327802E+02  0.14746284534E+03 -0.97074828108E+03  0.98440333260E+03  0.00000000000E+00 0. -1.
         21    1    1    2  504  501  0.16584125114E+02  0.53870122491E+02 -0.50798766331E+03  0.51110516469E+03  0.00000000000E+00 0. -1.
<mgrwt>
<rscale>  4 0.25243130E+03</rscale>
<asrwt>0</asrwt>
<pdfrwt beam="1">  1       21 0.47305764E-01 0.25243130E+03</pdfrwt>
<pdfrwt beam="2">  1       21 0.23698202E+00 0.25243130E+03</pdfrwt>
<totfact> 0.31625274E+02</totfact>
</mgrwt>
</event>
<event>
 5    0  0.2213064E+000  0.2784832E+03  0.7546771E-02  0.1096520E+00
         21   -1    0    0  502  501  0.00000000000E+00  0.00000000000E+00  0.18534104409E+03  0.18534104409E+03  0.00000000000E+00 0.  1.
         21   -1    0    0  503  502 -0.00000000000E+00 -0.00000000000E+00 -0.65004869872E+03  0.65004869872E+03  0.00000000000E+00 0.  1.
         25    1    1    2    0    0  0.57536357952E+02  0.26030824638E+03 -0.97478898803E+01  0.29460284618E+03  0.12500000000E+03 0.  0.
         21    1    1    2  503  504 -0.76928080047E+02 -0.20069733972E+03 -0.26766924534E+03  0.34328439605E+03  0.00000000000E+00 0.  1.
         21    1    1    2  504  501  0.19391722095E+02 -0.59610906656E+02 -0.18729051941E+03  0.19750250058E+03  0.00000000000E+00 0.  1.
<mgrwt>
<rscale>  4 0.27848324E+03</rscale>
<asrwt>0</asrwt>
<pdfrwt beam="1">  1       21 0.28514006E-01 0.27848324E+03</pdfrwt>
<pdfrwt beam="2">  1       21 0.10000749E+00 0.27848324E+03</pdfrwt>
<totfact> 0.91618039E+03</totfact>
</mgrwt>
</event>
<event>
 5    0  0.2213064E+000  0.2850782E+03  0.7546771E-02  0.1092947E+00
         21   -1    0    0  502  501  0.00000000000E+00  0.00000000000E+00  0.39669697674E+03  0.39669697674E+03  0.00000000000E+00 0. -1.
         21   -1    0    0  503  502 -0.00000000000E+00 -0.00000000000E+00 -0.20139854646E+03  0.20139854646E+03  0.00000000000E+00 0.  1.
         25    1    1    2    0    0  0.13613027933E+03 -0.21705553506E+03  0.17152231972E+03  0.33270026212E+03  0.12500000000E+03 0.  0.
         21    1    1    2  503  504 -0.37821501287E+02  0.18829924762E+02  0.11517487118E+02  0.43791375129E+02  0.00000000000E+00 0. -1.
         21    1    1    2  504  501 -0.98308778047E+02  0.19822561029E+03  0.12258623440E+02  0.22160388594E+03  0.00000000000E+00 0.  1.
<mgrwt>
<rscale>  4 0.28507816E+03</rscale>
<asrwt>0</asrwt>
<pdfrwt beam="1">  1       21 0.61030304E-01 0.28507816E+03</pdfrwt>
<pdfrwt beam="2">  1       21 0.30984392E-01 0.28507816E+03</pdfrwt>
<totfact> 0.23884639E+04</totfact>
</mgrwt>
</event>
