<LesHouchesEvents version="3.0">
  <!--
  <scalesfunctionalform>
    muR  H_T/2 := sum_i mT(i)/2, i=final state
    muF1 H_T/2 := sum_i mT(i)/2, i=final state
    muF2 H_T/2 := sum_i mT(i)/2, i=final state
    QES  H_T/2 := sum_i mT(i)/2, i=final state
  </scalesfunctionalform>
HERWIG6   
  -->
  <header>
      165
  </header>
  <init>
   2212   2212 0.65000000D+04 0.65000000D+04 -1 -1   247000   247000 -3   1
 0.26043569D-01 0.76382254D-03 0.38225901D-03     66
  </init>
  <event>
  5     66 0.38225901E-03 0.12685377E+03 0.75467711E-02 0.10865967E+00
       21 -1    0    0  501  502 0.00000000E+00 0.00000000E+00 0.19178758E+03 0.19178905E+03 0.75000000E+00 0.0000E+00 0.9000E+01
        2 -1    0    0  502    0 0.00000000E+00 0.00000000E+00 -.37388608E+03 0.37388622E+03 0.32000000E+00 0.0000E+00 0.9000E+01
       25  1    1    2    0    0 -.22543382E+02 0.16768434E+03 -.35717799E+02 0.21337058E+03 0.12500000E+03 0.0000E+00 0.9000E+01
       23  1    1    2    0    0 -.99881999E+02 -.13446035E+03 -.64519467E+02 0.20133061E+03 0.91188000E+02 0.0000E+00 0.9000E+01
        2  1    1    2  501    0 0.12242538E+03 -.33223988E+02 -.81861234E+02 0.15097408E+03 0.32000000E+00 0.0000E+00 0.9000E+01
#aMCatNLO 1  0  0  2  1 0.63446505D+02 0.00000000D+00  -5  6  0 0.00000000D+00 0.00000000D+00 0.00000000D+00 0.00000000D+00 0.00000000D+00
  <mgrwgt>
 0.1562744718D+00    9    2    0
 0.267781926114004D+03 0.000000000000000D+00 0.000000000000000D+00 0.267781926114004D+03
 0.267781926114004D+03 0.000000000000000D+00 0.000000000000000D+00 -.267781926114004D+03
 0.213222622974130D+03 -.225435265052829D+02 0.167684382249069D+03 0.348227556408406D+02
 0.190712777106613D+03 -.998821280876020D+02 -.134460319911255D+03 0.308002875895781D+00
 0.131628452147264D+03 0.122425654592885D+03 -.332240623378142D+02 -.351307585167364D+02
 0.000000000000000D+00 0.000000000000000D+00 -.000000000000000D+00 -.000000000000000D+00
 0.279664851194353D+03 0.000000000000000D+00 0.000000000000000D+00 0.279664851194353D+03
 0.370186406845196D+03 0.000000000000000D+00 0.000000000000000D+00 -.370186406845196D+03
 0.218734320843554D+03 -.479811506914930D+02 0.169425169271833D+03 0.348227556408406D+02
 0.202763941495176D+03 -.123053680338513D+03 -.132874608244143D+03 0.308002875895781D+00
 0.117810646184442D+03 0.107736371016077D+03 -.322188224601820D+02 -.351307585167364D+02
 0.110542349516377D+03 0.632984600139290D+02 -.433173856750753D+01 -.905215556508430D+02
0.126194692124D-04 0.000000000000D+00 0.000000000000D+00 0.323185632837D-07 0.000000000000D+00  6 21 2 25 23 2 21 2 0.29505905D-01 0.57521059D-01 0.69676502D+05 0.69676502D+05 0.69676502D+05 0.11782674D+01  1  2  2  2  6  2        2 0.203623140075D-01 0.100000000000D+01
-.110612849551D-05 0.665947686216D-06 -.254750725095D-07 0.323185632837D-07 0.000000000000D+00  6 21 2 25 23 2 21 4 0.29505905D-01 0.57521059D-01 0.69676502D+05 0.69676502D+05 0.69676502D+05 0.11782674D+01  1  2  3  2  6  2        2 -.247787474036D-02 0.100000000000D+01
0.133031240208D-05 0.000000000000D+00 0.000000000000D+00 0.323185632837D-07 0.000000000000D+00  6 21 2 25 23 2 21 4 0.29505905D-01 0.57521059D-01 0.69676502D+05 0.69676502D+05 0.69676502D+05 0.11782674D+01  1  2 15  2  6  2        2 0.298007646605D-02 0.100000000000D+01
0.803707946470D-04 0.000000000000D+00 0.000000000000D+00 0.317864898162D-07 0.000000000000D+00  6 21 2 25 23 2 21 4 0.29505905D-01 0.80425257D-01 0.88388959D+05 0.88388959D+05 0.88388959D+05 0.11685280D+01  1  2 12  2  6  2        2 0.119383271770D+00 0.100000000000D+01
-.268354807810D-04 0.000000000000D+00 0.000000000000D+00 0.323185632837D-07 0.000000000000D+00  6 21 2 25 23 2 21 4 0.29505905D-01 0.57521059D-01 0.69676502D+05 0.69676502D+05 0.69676502D+05 0.11782674D+01  1  2  4  2  6  2        2 -.601150411031D-01 0.100000000000D+01
-.104632343384D-03 0.000000000000D+00 -.186973870005D-04 0.323185632837D-07 0.000000000000D+00  6 21 2 25 23 2 21 4 0.29505905D-01 0.81716343D-01 0.69676502D+05 0.69676502D+05 0.69676502D+05 0.11782674D+01  1  2  5  2  6  2        2 -.158863350516D+00 0.100000000000D+01
0.105710291614D-03 0.000000000000D+00 0.176013109396D-04 0.323185632837D-07 0.000000000000D+00  6 21 2 25 23 2 21 4 0.29505905D-01 0.57521059D-01 0.69676502D+05 0.69676502D+05 0.69676502D+05 0.11782674D+01  1  2  6  2  6  2        2 0.236805093124D+00 0.100000000000D+01
0.336527975638D-05 0.000000000000D+00 0.000000000000D+00 0.317864898162D-07 0.000000000000D+00  6 21 21 25 23 2 -2 4 0.29505905D-01 0.80425257D-01 0.88388959D+05 0.88388959D+05 0.88388959D+05 0.11685280D+01  1  2 12 10  6  2        2 0.887305109350D-02 0.100000000000D+01
-.399905645905D-05 0.000000000000D+00 -.809538702797D-06 0.323185632837D-07 0.000000000000D+00  6 21 21 25 23 2 -2 4 0.29505905D-01 0.81716343D-01 0.69676502D+05 0.69676502D+05 0.69676502D+05 0.11782674D+01  1  2  5 10  6  2        2 -.106730682982D-01 0.100000000000D+01
  </mgrwgt>
  </event>
  <event>
  5     66 0.38225901E-03 0.36569569E+02 0.75467711E-02 0.10015417E+00
       21 -1    0    0  501  502 0.00000000E+00 0.00000000E+00 0.16626622E+02 0.16643529E+02 0.75000000E+00 0.0000E+00 0.9000E+01
        2 -1    0    0  502    0 0.00000000E+00 0.00000000E+00 -.23666544E+04 0.23666544E+04 0.32000000E+00 0.0000E+00 0.9000E+01
       25  1    1    2    0    0 0.10737659E+03 -.45407036E+02 -.15057624E+04 0.15154329E+04 0.12500000E+03 0.0000E+00 0.9000E+01
       23  1    1    2    0    0 -.10814710E+03 0.81967541E+02 -.72008016E+03 0.73840718E+03 0.91188000E+02 0.0000E+00 0.9000E+01
        2  1    1    2  501    0 0.77051023E+00 -.36560505E+02 -.12418519E+03 0.12945782E+03 0.32000000E+00 0.0000E+00 0.9000E+01
#aMCatNLO 1  0  0  1  1 0.21023578D+02 0.00000000D+00  -5  6  0 0.00000000D+00 0.00000000D+00 0.00000000D+00 0.00000000D+00 0.00000000D+00
  <mgrwgt>
 0.1563578773D+00   12    2    0
 0.198417845036797D+03 0.000000000000000D+00 0.000000000000000D+00 0.198417845036797D+03
 0.198417845036797D+03 0.000000000000000D+00 0.000000000000000D+00 -.198417845036797D+03
 0.184319859891765D+03 0.107376582634105D+03 -.454065450266944D+02 -.689733711013155D+02
 0.170438294098334D+03 -.108147112787142D+03 0.819679954499916D+02 0.481602581893572D+02
 0.420775360834957D+02 0.770530153036600D+00 -.365614504232971D+02 0.208131129119584D+02
 0.000000000000000D+00 -.000000000000000D+00 -.000000000000000D+00 0.000000000000000D+00
 0.727423236188625D+03 0.000000000000000D+00 0.000000000000000D+00 0.727423236188625D+03
 0.458657488645062D+03 0.000000000000000D+00 0.000000000000000D+00 -.458657488645062D+03
 0.370510282930399D+03 0.326343273244112D+03 0.101958873299008D+03 -.689733711013155D+02
 0.216089473448566D+03 0.443981430601902D+02 0.184631534725842D+03 0.481602581893572D+02
 0.423755706986907D+02 0.341004015435247D+02 -.141303197955382D+02 0.208131129119584D+02
 0.557105397756033D+03 -.404841817847827D+03 -.272460088229311D+03 0.268765747543563D+03
0.585422172558D-05 0.000000000000D+00 0.000000000000D+00 0.178031437055D-06 0.000000000000D+00  6 21 2 25 23 2 21 2 0.25592441D-02 0.36410198D+00 0.34408466D+05 0.34408466D+05 0.34408466D+05 0.12086983D+01  1  2  2  1  6  1       21 0.435834333287D-01 0.100000000000D+01
0.261181367888D-06 0.308935767990D-06 -.118179869879D-07 0.178031437055D-06 0.000000000000D+00  6 21 2 25 23 2 21 4 0.25592441D-02 0.36410198D+00 0.34408466D+05 0.34408466D+05 0.34408466D+05 0.12086983D+01  1  2  3  1  6  1       21 0.284073197343D-02 0.100000000000D+01
0.616999495649D-06 0.000000000000D+00 0.000000000000D+00 0.178031437055D-06 0.000000000000D+00  6 21 2 25 23 2 21 4 0.25592441D-02 0.36410198D+00 0.34408466D+05 0.34408466D+05 0.34408466D+05 0.12086983D+01  1  2 15  1  6  1       21 0.671077806605D-02 0.100000000000D+01
0.199906785062D-02 0.000000000000D+00 -.913578072177D-03 0.178031437055D-06 0.000000000000D+00  6 21 2 25 23 2 21 4 0.59174226D-01 0.36410198D+00 0.34408466D+05 0.34408466D+05 0.34408466D+05 0.12086983D+01  1  2  5  1  6  1       21 0.709503435030D-01 0.100000000000D+01
0.885927945757D-03 0.000000000000D+00 -.404847063550D-03 0.178031437055D-06 0.000000000000D+00  6 -1 2 25 23 2 -1 4 0.59174226D-01 0.36410198D+00 0.34408466D+05 0.34408466D+05 0.34408466D+05 0.12086983D+01  1  2  5  4  6  1       21 0.325728009162D-02 0.100000000000D+01
0.885927945757D-03 0.000000000000D+00 -.404847063550D-03 0.178031437055D-06 0.000000000000D+00  6 -3 2 25 23 2 -3 4 0.59174226D-01 0.36410198D+00 0.34408466D+05 0.34408466D+05 0.34408466D+05 0.12086983D+01  1  2  5  4  6  1       21 0.164144956619D-02 0.100000000000D+01
0.885927945757D-03 0.000000000000D+00 -.404847063550D-03 0.178031437055D-06 0.000000000000D+00  6 1 2 25 23 2 1 4 0.59174226D-01 0.36410198D+00 0.34408466D+05 0.34408466D+05 0.34408466D+05 0.12086983D+01  1  2  5  5  6  1       21 0.823272598830D-02 0.100000000000D+01
0.885927945757D-03 0.000000000000D+00 -.404847063550D-03 0.178031437055D-06 0.000000000000D+00  6 3 2 25 23 2 3 4 0.59174226D-01 0.36410198D+00 0.34408466D+05 0.34408466D+05 0.34408466D+05 0.12086983D+01  1  2  5  5  6  1       21 0.164253086772D-02 0.100000000000D+01
0.885927945757D-03 0.000000000000D+00 -.404847063550D-03 0.178031437055D-06 0.000000000000D+00  6 -2 2 25 23 2 -2 4 0.59174226D-01 0.36410198D+00 0.34408466D+05 0.34408466D+05 0.34408466D+05 0.12086983D+01  1  2  5  6  6  1       21 0.260258062612D-02 0.100000000000D+01
0.885927945757D-03 0.000000000000D+00 -.404847063550D-03 0.178031437055D-06 0.000000000000D+00  6 2 2 25 23 2 2 4 0.59174226D-01 0.36410198D+00 0.34408466D+05 0.34408466D+05 0.34408466D+05 0.12086983D+01  1  2  5  7  6  1       21 0.122021144775D-01 0.100000000000D+01
0.885927945757D-03 0.000000000000D+00 -.404847063550D-03 0.178031437055D-06 0.000000000000D+00  6 -4 2 25 23 2 -4 4 0.59174226D-01 0.36410198D+00 0.34408466D+05 0.34408466D+05 0.34408466D+05 0.12086983D+01  1  2  5  8  6  1       21 0.134695441972D-02 0.100000000000D+01
0.885927945757D-03 0.000000000000D+00 -.404847063550D-03 0.178031437055D-06 0.000000000000D+00  6 4 2 25 23 2 4 4 0.59174226D-01 0.36410198D+00 0.34408466D+05 0.34408466D+05 0.34408466D+05 0.12086983D+01  1  2  5  9  6  1       21 0.134695441972D-02 0.100000000000D+01
  </mgrwgt>
  </event>
  <event>
  6     66 0.38225901E-03 0.75940093E+02 0.75467711E-02 0.11430999E+00
       21 -1    0    0  503  502 0.00000000E+00 0.00000000E+00 0.31276201E+02 0.31285192E+02 0.75000000E+00 0.0000E+00 0.9000E+01
        2 -1    0    0  502    0 0.00000000E+00 0.00000000E+00 -.22542531E+04 0.22542532E+04 0.32000000E+00 0.0000E+00 0.9000E+01
       25  1    1    2    0    0 -.12279480E+02 0.26049375E+02 -.71758191E+03 0.72895689E+03 0.12500000E+03 0.0000E+00 0.9000E+01
       23  1    1    2    0    0 -.18849464E+01 0.49169958E+02 -.61801543E+03 0.62664149E+03 0.91188000E+02 0.0000E+00 0.9000E+01
        2  1    1    2  501    0 0.86279239E+02 -.71484839E+02 -.83047320E+03 0.83799762E+03 0.32000000E+00 0.0000E+00 0.9000E+01
       21  1    1    2  503  501 -.72114813E+02 -.37344945E+01 -.56906397E+02 0.91942336E+02 0.75000000E+00 0.0000E+00 0.9000E+01
#aMCatNLO 2  0  0  1  2 0.72211444D+02 0.00000000D+00  -5  6  0 0.00000000D+00 0.00000000D+00 0.00000000D+00 0.00000000D+00 0.00000000D+00
  <mgrwgt>
 0.1408325365D-01    3    2    0
 0.169401451976141D+03 0.000000000000000D+00 0.000000000000000D+00 0.169401451976141D+03
 0.169401451976141D+03 0.000000000000000D+00 0.000000000000000D+00 -.169401451976141D+03
 0.134273285013210D+03 -.399925789383545D+02 0.246143995471115D+02 0.141081548415539D+02
 0.105918813270280D+03 -.239492672175790D+02 0.480274734824919D+02 0.483094723774996D+01
 0.986108056687926D+02 0.639418461559335D+02 -.726418730296034D+02 -.189391020793038D+02
 0.000000000000000D+00 -.000000000000000D+00 -.000000000000000D+00 0.000000000000000D+00
 0.393671818486765D+03 0.000000000000000D+00 0.000000000000000D+00 0.393671818486765D+03
 0.179119504242185D+03 0.000000000000000D+00 0.000000000000000D+00 -.179119504242185D+03
 0.129048078230407D+03 -.122796006279219D+02 0.260495272576423D+02 0.141081548415539D+02
 0.103729645617494D+03 -.188503694623074D+01 0.491700785074460D+02 0.483094723774996D+01
 0.113635180664764D+03 0.862794504554237D+02 -.714851112208229D+02 -.189391020793038D+02
 0.226378418216285D+03 -.721148128812710D+02 -.373449454426538D+01 0.214552314244580D+03
-.581370654532D-05 0.000000000000D+00 0.000000000000D+00 0.150286960472D-06 0.000000000000D+00  6 21 2 25 23 2 21 4 0.47892238D-02 0.32799180D+00 0.43294982D+05 0.43294982D+05 0.43294982D+05 0.11985248D+01  1  2 13  1  6  1       21 -.284002008630D-01 0.100000000000D+01
-.572354936824D-05 0.000000000000D+00 0.000000000000D+00 0.150286960472D-06 0.000000000000D+00  6 21 2 25 23 2 21 4 0.49374434D-02 0.32799180D+00 0.43294982D+05 0.43294982D+05 0.43294982D+05 0.11985248D+01  1  2 13  1  6  1       21 -.265512345078D-01 0.100000000000D+01
0.165257402410D-04 0.000000000000D+00 0.000000000000D+00 0.155123806945D-06 0.167145004328D-08  6 21 2 25 23 2 21 4 0.48124004D-02 0.34680770D+00 0.43294982D+05 0.43294982D+05 0.43294982D+05 0.11985248D+01  1  2  1  1  6  1       21 0.690346890211D-01 0.100000000000D+01
  </mgrwgt>
  </event>
  <event>
  5     66 -.38225901E-03 0.23880157E+02 0.75467711E-02 0.11444911E+00
       21 -1    0    0  501  502 0.00000000E+00 0.00000000E+00 0.22792284E+03 0.22792407E+03 0.75000000E+00 0.0000E+00 0.9000E+01
        2 -1    0    0  502    0 0.00000000E+00 0.00000000E+00 -.26292900E+03 0.26292920E+03 0.32000000E+00 0.0000E+00 0.9000E+01
       25  1    1    2    0    0 0.61622056E+02 0.94298983E+02 -.12422694E+03 0.20915762E+03 0.12500000E+03 0.0000E+00 0.9000E+01
       23  1    1    2    0    0 -.51148633E+02 -.11575980E+03 -.31075409E+02 0.15905171E+03 0.91188000E+02 0.0000E+00 0.9000E+01
        2  1    1    2  501    0 -.10473423E+02 0.21460821E+02 0.12029619E+03 0.12264393E+03 0.32000000E+00 0.0000E+00 0.9000E+01
#aMCatNLO 1  0  0  1  1 0.61599092D+02 0.00000000D+00  -5  6  0 0.00000000D+00 0.00000000D+00 0.00000000D+00 0.00000000D+00 0.00000000D+00
  <mgrwgt>
 -.2566835089D+00   12    2    0
 0.244801703768399D+03 0.000000000000000D+00 0.000000000000000D+00 0.244801703768399D+03
 0.244801703768399D+03 0.000000000000000D+00 0.000000000000000D+00 -.244801703768399D+03
 0.200809527780087D+03 0.616220688832800D+02 0.942989566779174D+02 -.109589661206074D+03
 0.157235905153533D+03 -.511486234088836D+02 -.115759824196288D+03 -.197828195885070D+02
 0.131557974603179D+03 -.104734454743964D+02 0.214608675183707D+02 0.129372480794581D+03
 0.000000000000000D+00 -.000000000000000D+00 0.000000000000000D+00 0.000000000000000D+00
 0.142899203183489D+04 0.000000000000000D+00 0.000000000000000D+00 0.142899203183489D+04
 0.247533979086096D+03 0.000000000000000D+00 0.000000000000000D+00 -.247533979086096D+03
 0.209162778374885D+03 0.872271963831451D+02 0.922257568436016D+02 -.109589661206074D+03
 0.153236638029591D+03 -.317578281428097D+02 -.117329861038834D+03 -.197828195885070D+02
 0.131063798834386D+03 0.592879412119138D+01 0.201328085031536D+02 0.129372480794581D+03
 0.118306279568212D+04 -.613981623615268D+02 0.497129569207892D+01 0.118145805274879D+04
0.162051132787D-05 0.000000000000D+00 0.000000000000D+00 0.182061924528D-05 0.000000000000D+00  6 21 2 25 23 2 21 2 0.35065162D-01 0.40450725D-01 0.30299659D+05 0.30299659D+05 0.30299659D+05 0.12144456D+01  1  2  2  1  6  1       21 0.293707472788D-02 0.100000000000D+01
0.432025977471D-06 0.855167322112D-07 -.327134548096D-08 0.182061924528D-05 0.000000000000D+00  6 21 2 25 23 2 21 4 0.35065162D-01 0.40450725D-01 0.30299659D+05 0.30299659D+05 0.30299659D+05 0.12144456D+01  1  2  3  1  6  1       21 0.115485893547D-02 0.100000000000D+01
0.136087459762D-06 0.000000000000D+00 0.000000000000D+00 0.182061924528D-05 0.000000000000D+00  6 21 2 25 23 2 21 4 0.35065162D-01 0.40450725D-01 0.30299659D+05 0.30299659D+05 0.30299659D+05 0.12144456D+01  1  2 15  1  6  1       21 0.363778631627D-03 0.100000000000D+01
-.266854492937D-02 0.000000000000D+00 -.144674951190D-04 0.182061924528D-05 0.000000000000D+00  6 21 2 25 23 2 21 4 0.20499494D+00 0.40450725D-01 0.30299659D+05 0.30299659D+05 0.30299659D+05 0.12144456D+01  1  2  5  1  6  1       21 -.115107059823D+00 0.100000000000D+01
-.114516243359D-02 0.000000000000D+00 -.610490130095D-05 0.182061924528D-05 0.000000000000D+00  6 -1 2 25 23 2 -1 4 0.20499494D+00 0.40450725D-01 0.30299659D+05 0.30299659D+05 0.30299659D+05 0.12144456D+01  1  2  5  4  6  1       21 -.578474272644D-02 0.100000000000D+01
-.114516243359D-02 0.000000000000D+00 -.610490130095D-05 0.182061924528D-05 0.000000000000D+00  6 -3 2 25 23 2 -3 4 0.20499494D+00 0.40450725D-01 0.30299659D+05 0.30299659D+05 0.30299659D+05 0.12144456D+01  1  2  5  4  6  1       21 -.288827869150D-02 0.100000000000D+01
-.114516243359D-02 0.000000000000D+00 -.610490130095D-05 0.182061924528D-05 0.000000000000D+00  6 1 2 25 23 2 1 4 0.20499494D+00 0.40450725D-01 0.30299659D+05 0.30299659D+05 0.30299659D+05 0.12144456D+01  1  2  5  5  6  1       21 -.411677547865D-01 0.100000000000D+01
-.114516243359D-02 0.000000000000D+00 -.610490130095D-05 0.182061924528D-05 0.000000000000D+00  6 3 2 25 23 2 3 4 0.20499494D+00 0.40450725D-01 0.30299659D+05 0.30299659D+05 0.30299659D+05 0.12144456D+01  1  2  5  5  6  1       21 -.290750213970D-02 0.100000000000D+01
-.114516243359D-02 0.000000000000D+00 -.610490130095D-05 0.182061924528D-05 0.000000000000D+00  6 -2 2 25 23 2 -2 4 0.20499494D+00 0.40450725D-01 0.30299659D+05 0.30299659D+05 0.30299659D+05 0.12144456D+01  1  2  5  6  6  1       21 -.437109204562D-02 0.100000000000D+01
-.114516243359D-02 0.000000000000D+00 -.610490130095D-05 0.182061924528D-05 0.000000000000D+00  6 2 2 25 23 2 2 4 0.20499494D+00 0.40450725D-01 0.30299659D+05 0.30299659D+05 0.30299659D+05 0.12144456D+01  1  2  5  7  6  1       21 -.844807331307D-01 0.100000000000D+01
-.114516243359D-02 0.000000000000D+00 -.610490130095D-05 0.182061924528D-05 0.000000000000D+00  6 -4 2 25 23 2 -4 4 0.20499494D+00 0.40450725D-01 0.30299659D+05 0.30299659D+05 0.30299659D+05 0.12144456D+01  1  2  5  8  6  1       21 -.221602894879D-02 0.100000000000D+01
-.114516243359D-02 0.000000000000D+00 -.610490130095D-05 0.182061924528D-05 0.000000000000D+00  6 4 2 25 23 2 4 4 0.20499494D+00 0.40450725D-01 0.30299659D+05 0.30299659D+05 0.30299659D+05 0.12144456D+01  1  2  5  9  6  1       21 -.221602894879D-02 0.100000000000D+01
  </mgrwgt>
  </event>
  <event>
  5     66 0.38225901E-03 0.77232484E+02 0.75467711E-02 0.11843097E+00
       21 -1    0    0  501  502 0.00000000E+00 0.00000000E+00 0.24875038E+02 0.24886341E+02 0.75000000E+00 0.0000E+00 0.9000E+01
        2 -1    0    0  502    0 0.00000000E+00 0.00000000E+00 -.23718108E+04 0.23718108E+04 0.32000000E+00 0.0000E+00 0.9000E+01
       25  1    1    2    0    0 -.93743041E+02 -.19552037E+02 -.40715785E+03 0.43654617E+03 0.12500000E+03 0.0000E+00 0.9000E+01
       23  1    1    2    0    0 0.17314998E+02 0.84359669E+01 -.17824841E+04 0.17849190E+04 0.91188000E+02 0.0000E+00 0.9000E+01
        2  1    1    2  501    0 0.76428043E+02 0.11116070E+02 -.15729385E+03 0.17523205E+03 0.32000000E+00 0.0000E+00 0.9000E+01
#aMCatNLO 1  0  0  1  1 0.61599092D+02 0.00000000D+00  -5  6  0 0.00000000D+00 0.00000000D+00 0.00000000D+00 0.00000000D+00 0.00000000D+00
  <mgrwgt>
 0.5206962246D-02    1    2    0
 0.242924792588301D+03 0.000000000000000D+00 0.000000000000000D+00 0.242924792588301D+03
 0.242924792588301D+03 0.000000000000000D+00 0.000000000000000D+00 -.242924792588301D+03
 0.186674316824982D+03 -.937431787097298D+02 -.195520567484881D+02 0.100260830259745D+03
 0.194575945509330D+03 0.173148552088498D+02 0.843594606136860D+01 -.170802745381905D+03
 0.104599322842289D+03 0.764283235008800D+02 0.111161106871196D+02 0.705419151221599D+02
 0.000000000000000D+00 0.000000000000000D+00 0.000000000000000D+00 -.000000000000000D+00
 0.245852108769335D+03 0.000000000000000D+00 0.000000000000000D+00 0.245852108769335D+03
 0.250652393289607D+03 0.000000000000000D+00 0.000000000000000D+00 -.250652393289607D+03
 0.187456322988037D+03 -.944944867310437D+02 -.230961235114968D+02 0.100260830259745D+03
 0.194383051324152D+03 0.165337697184200D+02 0.475141315719463D+01 -.170802745381905D+03
 0.104101332417106D+03 0.760092226316537D+02 0.913912998301950D+01 0.705419151221599D+02
 0.105637953296469D+02 0.195149438096995D+01 0.920558037128267D+01 -.480028452027259D+01
0.897321845587D-06 0.000000000000D+00 0.000000000000D+00 0.668853564316D-07 0.000000000000D+00  6 21 2 25 23 2 21 4 0.38278000D-02 0.36489484D+00 0.26879090D+05 0.26879090D+05 0.26879090D+05 0.12199375D+01  1  2 14  1  6  1       21 0.520696224630D-02 0.100000000000D+01
  </mgrwgt>
  </event>
  <event>
  6     66 0.38225901E-03 0.14078183E+02 0.75467711E-02 0.12147439E+00
        2 -1    0    0  501    0 0.00000000E+00 0.00000000E+00 0.15352774E+04 0.15352774E+04 0.32000000E+00 0.0000E+00 0.9000E+01
        2 -1    0    0  502    0 0.00000000E+00 0.00000000E+00 -.25107868E+03 0.25107888E+03 0.32000000E+00 0.0000E+00 0.9000E+01
       25  1    1    2    0    0 0.27244380E+02 0.44950535E+02 -.21257134E+03 0.25213961E+03 0.12500000E+03 0.0000E+00 0.9000E+01
       23  1    1    2    0    0 -.25775672E+02 -.38635864E+02 0.14282144E+03 0.17569954E+03 0.91188000E+02 0.0000E+00 0.9000E+01
        2  1    1    2  501    0 0.58788610E+01 -.21934735E+02 0.55678997E+02 0.60132742E+02 0.32000000E+00 0.0000E+00 0.9000E+01
        2  1    1    2  502    0 -.73475690E+01 0.15620064E+02 0.12982696E+04 0.12983844E+04 0.32000000E+00 0.0000E+00 0.9000E+01
#aMCatNLO 2  0  0  1  5 0.17261899D+02 0.00000000D+00  -5  6  0 0.00000000D+00 0.00000000D+00 0.00000000D+00 0.00000000D+00 0.00000000D+00
  <mgrwgt>
 0.1515272954D+00    3    2    0
 0.243731719784719D+03 0.000000000000000D+00 0.000000000000000D+00 0.243731719784719D+03
 0.243731719784719D+03 0.000000000000000D+00 0.000000000000000D+00 -.243731719784719D+03
 0.247296691024625D+03 0.235269192495088D+02 0.528534828723038D+02 -.205386578944737D+03
 0.179155662986037D+03 -.284808307449932D+02 -.328849676954800D+02 0.147949050066937D+03
 0.610110855587762D+02 0.495391149548435D+01 -.199685151768237D+02 0.574375288778006D+02
 0.000000000000000D+00 -.000000000000000D+00 0.000000000000000D+00 0.000000000000000D+00
 0.158020495803723D+04 0.000000000000000D+00 0.000000000000000D+00 0.158020495803723D+04
 0.243940235193707D+03 0.000000000000000D+00 0.000000000000000D+00 -.243940235193707D+03
 0.246112704981818D+03 0.272443506084251D+02 0.449506629847651D+02 -.205386578944737D+03
 0.179892415180200D+03 -.257757006928764D+02 -.386357545991766D+02 0.147949050066937D+03
 0.617638600682295D+02 0.587891907875524D+01 -.219349720174225D+02 0.574375288778006D+02
 0.133637621300069D+04 -.734756899430390D+01 0.156200636318340D+02 0.133626472284352D+04
-.944806872277D-03 0.000000000000D+00 0.000000000000D+00 0.329781622656D-06 0.000000000000D+00  6 2 2 25 23 2 2 4 0.23607557D+00 0.38594486D-01 0.19308112D+05 0.19308112D+05 0.19308112D+05 0.12355129D+01  1  2 13  7  6  1       21 -.622724775924D-01 0.100000000000D+01
-.946803047418D-03 0.000000000000D+00 0.000000000000D+00 0.329781622656D-06 0.000000000000D+00  6 2 2 25 23 2 2 4 0.23967729D+00 0.38594486D-01 0.19308112D+05 0.19308112D+05 0.19308112D+05 0.12355129D+01  1  2 13  7  6  1       21 -.606834877937D-01 0.100000000000D+01
0.417221855089D-02 0.000000000000D+00 0.000000000000D+00 0.333364495178D-06 0.159930019234D-06  6 2 2 25 23 2 2 4 0.23619652D+00 0.38627504D-01 0.19308112D+05 0.19308112D+05 0.19308112D+05 0.12355129D+01  1  2  1  7  6  1       21 0.274483260769D+00 0.100000000000D+01
  </mgrwgt>
  </event>
  <event>
  6     66 -.38225901E-03 0.24116802E+03 0.75467711E-02 0.10819858E+00
       21 -1    0    0  503  502 0.00000000E+00 0.00000000E+00 0.33841813E+02 0.33850123E+02 0.75000000E+00 0.0000E+00 0.9000E+01
        2 -1    0    0  502    0 0.00000000E+00 0.00000000E+00 -.31297146E+04 0.31297146E+04 0.32000000E+00 0.0000E+00 0.9000E+01
       25  1    1    2    0    0 -.19691326E+03 -.10786661E+03 -.16630635E+04 0.16827998E+04 0.12500000E+03 0.0000E+00 0.9000E+01
       23  1    1    2    0    0 -.41520185E+02 0.24934639E+02 -.60499089E+03 0.61373845E+03 0.91188000E+02 0.0000E+00 0.9000E+01
        2  1    1    2  501    0 0.19857410E+03 0.75451570E+02 -.62270641E+03 0.65794224E+03 0.32000000E+00 0.0000E+00 0.9000E+01
       21  1    1    2  503  501 0.39859337E+02 0.74804034E+01 -.20511196E+03 0.20908420E+03 0.75000000E+00 0.0000E+00 0.9000E+01
#aMCatNLO 2  0  0  1  2 0.40555187D+02 0.00000000D+00  -5  6  0 0.00000000D+00 0.00000000D+00 0.00000000D+00 0.00000000D+00 0.00000000D+00
  <mgrwgt>
 -.1836388582D-01    2    2    0
 0.304471833627610D+03 0.000000000000000D+00 0.000000000000000D+00 0.304471833627610D+03
 0.304471833627610D+03 0.000000000000000D+00 0.000000000000000D+00 -.304471833627610D+03
 0.255565248798301D+03 -.179758228699432D+03 -.104647141179275D+03 -.801532996899380D+02
 0.103336185653990D+03 -.346924774120998D+02 0.262159898597272D+02 -.217317695598295D+02
 0.250042232802929D+03 0.214450706111532D+03 0.784311513195483D+02 0.101885069249768D+03
 0.000000000000000D+00 0.000000000000000D+00 0.000000000000000D+00 -.000000000000000D+00
 0.324165461858792D+03 0.000000000000000D+00 0.000000000000000D+00 0.324165461858792D+03
 0.326765639548625D+03 0.000000000000000D+00 0.000000000000000D+00 -.326765639548625D+03
 0.269183254914364D+03 -.196913334094892D+03 -.107866640490652D+03 -.801532996899380D+02
 0.105513909638168D+03 -.415202155976111D+02 0.249346279630914D+02 -.217317695598295D+02
 0.235595480880924D+03 0.198574212699330D+03 0.754516091698867D+02 0.101885069249768D+03
 0.406384559739609D+02 0.398593369931732D+02 0.748040335767400D+01 -.260017768983362D+01
-.155728417142D-04 0.000000000000D+00 0.000000000000D+00 0.961259433154D-07 0.000000000000D+00  6 21 2 25 23 2 21 4 0.53742255D-02 0.44864009D+00 0.94005235D+05 0.94005235D+05 0.94005235D+05 0.11660461D+01  1  2 13  1  6  1       21 -.200023713705D-01 0.100000000000D+01
0.162122509783D-05 0.000000000000D+00 0.000000000000D+00 0.970552449508D-07 0.109104548983D-08  6 21 2 25 23 2 21 4 0.52070179D-02 0.48149007D+00 0.94005235D+05 0.94005235D+05 0.94005235D+05 0.11660461D+01  1  2  1  1  6  1       21 0.163848554886D-02 0.100000000000D+01
  </mgrwgt>
  </event>
  <event>
  5     66 -.38225901E-03 0.21982089E+02 0.75467711E-02 0.11654082E+00
       21 -1    0    0  501  502 0.00000000E+00 0.00000000E+00 0.92989487E+03 0.92989517E+03 0.75000000E+00 0.0000E+00 0.9000E+01
        2 -1    0    0  502    0 0.00000000E+00 0.00000000E+00 -.51360052E+02 0.51361049E+02 0.32000000E+00 0.0000E+00 0.9000E+01
       25  1    1    2    0    0 -.11248194E+03 -.55947094E+02 0.33241511E+03 0.37670555E+03 0.12500000E+03 0.0000E+00 0.9000E+01
       23  1    1    2    0    0 0.11451185E+03 0.77835117E+02 0.20926842E+03 0.26698276E+03 0.91188000E+02 0.0000E+00 0.9000E+01
        2  1    1    2  501    0 -.20299116E+01 -.21888022E+02 0.33685128E+03 0.33756791E+03 0.32000000E+00 0.0000E+00 0.9000E+01
#aMCatNLO 1  0  0  5  1 0.87528995D+02 0.00000000D+00  -5  6  0 0.00000000D+00 0.00000000D+00 0.00000000D+00 0.00000000D+00 0.00000000D+00
  <mgrwgt>
 -.2334316402D-01    1    2    0
 0.218540812096523D+03 0.000000000000000D+00 0.000000000000000D+00 0.218540812096523D+03
 0.218540812096523D+03 -.000000000000000D+00 -.000000000000000D+00 -.218540812096523D+03
 0.177555874261495D+03 -.112481935569650D+03 -.559470245481528D+02 -.109010595575422D+02
 0.178751404839147D+03 0.114511860114191D+03 0.778351868188718D+02 -.668246284989879D+02
 0.807743450924046D+02 -.202992454454101D+01 -.218881622707189D+02 0.777256880565300D+02
 0.000000000000000D+00 0.000000000000000D+00 0.000000000000000D+00 0.000000000000000D+00
 0.218540812096523D+03 0.000000000000000D+00 0.000000000000000D+00 0.218540812096523D+03
 0.218540812096523D+03 -.000000000000000D+00 -.000000000000000D+00 -.218540812096523D+03
 0.179324301625003D+03 -.112952368724225D+03 -.610195861133335D+02 0.711179748300596D+01
 0.170451937330309D+03 0.114051546426448D+03 0.728717409017055D+02 -.491992452314664D+02
 0.412832723625382D+02 -.367646073393921D+02 -.135061461649180D+02 0.130482274624449D+02
 0.460221128751959D+02 0.356654296371690D+02 0.165399137654603D+01 0.290392202860155D+02
-.307630201805D-04 0.000000000000D+00 0.000000000000D+00 0.112240515220D-05 0.000000000000D+00  6 21 2 25 23 2 21 4 0.14306085D+00 0.79016465D-02 0.33305090D+05 0.33305090D+05 0.33305090D+05 0.12101633D+01  1  2 14  3  6  5        2 -.233431640150D-01 0.100000000000D+01
  </mgrwgt>
  </event>
  <event>
  5     66 -.38225901E-03 0.28527937E+02 0.75467711E-02 0.11443800E+00
       21 -1    0    0  501  502 0.00000000E+00 0.00000000E+00 0.21368257E+02 0.21381415E+02 0.75000000E+00 0.0000E+00 0.9000E+01
        2 -1    0    0  502    0 0.00000000E+00 0.00000000E+00 -.38005267E+04 0.38005267E+04 0.32000000E+00 0.0000E+00 0.9000E+01
       25  1    1    2    0    0 0.13751682E+03 0.97275100E+02 -.29532274E+04 0.29606672E+04 0.12500000E+03 0.0000E+00 0.9000E+01
       23  1    1    2    0    0 -.10927242E+03 -.10128653E+03 -.80988224E+03 0.82850704E+03 0.91188000E+02 0.0000E+00 0.9000E+01
        2  1    1    2  501    0 -.28244405E+02 0.40114329E+01 -.16048758E+02 0.32733820E+02 0.32000000E+00 0.0000E+00 0.9000E+01
#aMCatNLO 1  0  0  1  2 0.40555187D+02 0.00000000D+00  -5  6  0 0.00000000D+00 0.00000000D+00 0.00000000D+00 0.00000000D+00 0.00000000D+00
  <mgrwgt>
 -.6233646649D-02    1    2    0
 0.285018949797824D+03 0.000000000000000D+00 0.000000000000000D+00 0.285018949797824D+03
 0.285018949797824D+03 0.000000000000000D+00 0.000000000000000D+00 -.285018949797824D+03
 0.271357307087807D+03 0.137516878356319D+03 0.972750922651920D+02 -.172152411257810D+03
 0.185609505019409D+03 -.109272383121762D+03 -.101286538038947D+03 0.627393059295826D+02
 0.113071087488431D+03 -.282444952345562D+02 0.401144577375519D+01 0.109413105328228D+03
 0.000000000000000D+00 0.000000000000000D+00 0.000000000000000D+00 -.000000000000000D+00
 0.315127424881673D+03 0.000000000000000D+00 0.000000000000000D+00 0.315127424881673D+03
 0.315848492397423D+03 0.000000000000000D+00 0.000000000000000D+00 -.315848492397423D+03
 0.257348284086299D+03 0.111047951911709D+03 0.929249105272589D+02 -.172152411257810D+03
 0.199207966063760D+03 -.128537746504967D+03 -.104452810465585D+03 0.627393059295826D+02
 0.116423855288275D+03 -.397338474584978D+02 0.212316479908612D+01 0.109413105328228D+03
 0.579958118407616D+02 0.572236420517561D+02 0.940473513923958D+01 -.721067515749705D+00
-.665928516305D-05 0.000000000000D+00 0.000000000000D+00 0.502705434410D-06 0.000000000000D+00  6 21 2 25 23 2 21 4 0.32884374D-02 0.58469742D+00 0.42636101D+05 0.42636101D+05 0.42636101D+05 0.11991957D+01  1  2 14  1  6  1       21 -.623364664900D-02 0.100000000000D+01
  </mgrwgt>
  </event>
  <event>
  5     66 -.38225901E-03 0.53681784E+02 0.75467711E-02 0.11937016E+00
       21 -1    0    0  501  502 0.00000000E+00 0.00000000E+00 0.76768457E+02 0.76772120E+02 0.75000000E+00 0.0000E+00 0.9000E+01
        2 -1    0    0  502    0 -.00000000E+00 -.00000000E+00 -.37105674E+03 0.37105688E+03 0.32000000E+00 0.0000E+00 0.9000E+01
       25  1    1    2    0    0 0.81663812E+02 0.47034817E+02 -.16439731E+03 0.22700821E+03 0.12500000E+03 0.0000E+00 0.9000E+01
       23  1    1    2    0    0 -.43110805E+02 -.96803337E+01 -.13281971E+03 0.16705861E+03 0.91188000E+02 0.0000E+00 0.9000E+01
        2  1    1    2  501    0 -.38553007E+02 -.37354483E+02 0.29287447E+01 0.53762177E+02 0.32000000E+00 0.0000E+00 0.9000E+01
#aMCatNLO 1  0  0  5  1 0.31903773D+01 0.00000000D+00  -5  6  0 0.00000000D+00 0.00000000D+00 0.00000000D+00 0.00000000D+00 0.00000000D+00
  <mgrwgt>
 -.6332675729D-01    8    2    0
 0.168778862231114D+03 0.000000000000000D+00 0.000000000000000D+00 0.168778862231114D+03
 0.168778862231114D+03 -.000000000000000D+00 -.000000000000000D+00 -.168778862231114D+03
 0.157841782820260D+03 0.816639811647859D+02 0.470349806655973D+02 -.201924039673980D+02
 0.105837893409845D+03 -.431106920138658D+02 -.968022378655171D+01 -.305641921038592D+02
 0.738780482321225D+02 -.385532891509201D+02 -.373547568790455D+02 0.507565960712572D+02
 0.000000000000000D+00 0.000000000000000D+00 0.000000000000000D+00 0.000000000000000D+00
 0.168778862231114D+03 0.000000000000000D+00 0.000000000000000D+00 0.168778862231114D+03
 0.168778862231114D+03 -.000000000000000D+00 -.000000000000000D+00 -.168778862231114D+03
 0.157717342165580D+03 0.815361427106807D+02 0.469111164122985D+02 -.200241006936620D+02
 0.105847947391665D+03 -.431964496057124D+02 -.976331537392376D+01 -.304512895851568D+02
 0.622544448129855D+02 -.346428245693794D+02 -.321543364221281D+02 0.405165306273978D+02
 0.117379900919977D+02 -.369686853558894D+01 -.499346461624662D+01 0.995885965142097D+01
0.408630817720D-06 0.000000000000D+00 0.000000000000D+00 0.304852129990D-06 0.000000000000D+00  6 21 2 25 23 2 21 2 0.11810824D-01 0.57085945D-01 0.24266672D+05 0.24266672D+05 0.24266672D+05 0.12246863D+01  1  2  2  3  6  5        2 0.398818591305D-02 0.100000000000D+01
0.101486395032D-08 0.215640406896D-07 -.824907889219D-09 0.304852129990D-06 0.000000000000D+00  6 21 2 25 23 2 21 4 0.11810824D-01 0.57085945D-01 0.24266672D+05 0.24266672D+05 0.24266672D+05 0.12246863D+01  1  2  3  3  6  5        2 0.148559979156D-04 0.100000000000D+01
0.362660551782D-07 0.000000000000D+00 0.000000000000D+00 0.304852129990D-06 0.000000000000D+00  6 21 2 25 23 2 21 4 0.11810824D-01 0.57085945D-01 0.24266672D+05 0.24266672D+05 0.24266672D+05 0.12246863D+01  1  2 15  3  6  5        2 0.530877503298D-03 0.100000000000D+01
0.160147115442D-06 0.000000000000D+00 0.000000000000D+00 0.304891370353D-06 0.000000000000D+00  6 21 2 25 23 2 21 4 0.11810824D-01 0.57085945D-01 0.24225777D+05 0.24225777D+05 0.24225777D+05 0.12247651D+01  1  2 12  3  6  5        2 0.234487217646D-02 0.100000000000D+01
-.279614639869D-04 0.000000000000D+00 0.000000000000D+00 0.304852129990D-06 0.000000000000D+00  6 21 2 25 23 2 21 4 0.11810824D-01 0.57085945D-01 0.24266672D+05 0.24266672D+05 0.24266672D+05 0.12246863D+01  1  2  4  3  6  5        2 -.409311465417D+00 0.100000000000D+01
-.807460110419D-05 0.000000000000D+00 0.000000000000D+00 0.304852129990D-06 0.000000000000D+00  6 21 2 25 23 2 21 4 0.11810824D-01 0.57085945D-01 0.24266672D+05 0.24266672D+05 0.24266672D+05 0.12246863D+01  1  2  5  3  6  5        2 -.118199347937D+00 0.100000000000D+01
0.965817066389D-05 0.000000000000D+00 -.000000000000D+00 0.304852129990D-06 0.000000000000D+00  6 21 2 25 23 2 21 4 0.11810824D-01 0.57085945D-01 0.24266672D+05 0.24266672D+05 0.24266672D+05 0.12246863D+01  1  2  6  3  6  5        2 0.141380293591D+00 0.100000000000D+01
0.215766442585D-04 0.000000000000D+00 0.000000000000D+00 0.304852129990D-06 0.485286242275D-06  6 21 2 25 23 2 21 4 0.11810824D-01 0.57085945D-01 0.24225777D+05 0.24225777D+05 0.24225777D+05 0.12247651D+01  1  2 11  3  6  5        2 0.315924970884D+00 0.100000000000D+01
  </mgrwgt>
  </event>
  <event>
  5     66 -.38225901E-03 0.27863187E+02 0.75467711E-02 0.11524142E+00
       21 -1    0    0  501  502 0.00000000E+00 0.00000000E+00 0.60226139E+02 0.60230809E+02 0.75000000E+00 0.0000E+00 0.9000E+01
        2 -1    0    0  502    0 -.00000000E+00 -.00000000E+00 -.19100626E+04 0.19100626E+04 0.32000000E+00 0.0000E+00 0.9000E+01
       25  1    1    2    0    0 0.10001324E+03 -.92501568E+02 -.12599172E+03 0.22373668E+03 0.12500000E+03 0.0000E+00 0.9000E+01
       23  1    1    2    0    0 -.12780384E+03 0.90502128E+02 -.17007179E+04 0.17103453E+04 0.91188000E+02 0.0000E+00 0.9000E+01
        2  1    1    2  501    0 0.27790599E+02 0.19994393E+01 -.23126824E+02 0.36211428E+02 0.32000000E+00 0.0000E+00 0.9000E+01
#aMCatNLO 1  0  0  5  1 0.39965521D+01 0.00000000D+00  -5  6  0 0.00000000D+00 0.00000000D+00 0.00000000D+00 0.00000000D+00 0.00000000D+00
  <mgrwgt>
 -.6738705236D+00    8    2    0
 0.339175943923150D+03 0.000000000000000D+00 0.000000000000000D+00 0.339175943923150D+03
 0.339175943923150D+03 -.000000000000000D+00 -.000000000000000D+00 -.339175943923150D+03
 0.306275455148122D+03 0.100012876853294D+03 -.925015938489103D+02 0.244173164015066D+03
 0.329965183650181D+03 -.127804228159702D+03 0.905021004024288D+02 -.275748472642278D+03
 0.421112490479963D+02 0.277913513064077D+02 0.199949344648151D+01 0.315753086272118D+02
 0.000000000000000D+00 0.000000000000000D+00 0.000000000000000D+00 0.000000000000000D+00
 0.339175943923150D+03 0.000000000000000D+00 0.000000000000000D+00 0.339175943923150D+03
 0.339175943923150D+03 -.000000000000000D+00 -.000000000000000D+00 -.339175943923150D+03
 0.306562408568891D+03 0.100249848440924D+03 -.924845445470882D+02 0.244442400689915D+03
 0.329629319320188D+03 -.127549176757341D+03 0.905204504855865D+02 -.275458694478685D+03
 0.170914032921239D+02 0.133999058274645D+02 0.299115563885876D+01 0.101789772695113D+02
 0.250687566650968D+02 0.138994224889524D+02 -.102706157735706D+01 0.208373165192583D+02
0.175256178513D-04 0.000000000000D+00 0.000000000000D+00 0.716747774071D-07 0.000000000000D+00  6 21 2 25 23 2 21 2 0.92659212D-02 0.29385614D+00 0.38803134D+05 0.38803134D+05 0.38803134D+05 0.12033423D+01  1  2  2  3  6  5        2 0.252246291223D-01 0.100000000000D+01
0.129552198373D-05 0.924852262894D-06 -.353791730875D-07 0.716747774071D-07 0.000000000000D+00  6 21 2 25 23 2 21 4 0.92659212D-02 0.29385614D+00 0.38803134D+05 0.38803134D+05 0.38803134D+05 0.12033423D+01  1  2  3  3  6  5        2 0.270006754713D-02 0.100000000000D+01
0.224475595969D-05 0.000000000000D+00 0.000000000000D+00 0.716747774071D-07 0.000000000000D+00  6 21 2 25 23 2 21 4 0.92659212D-02 0.29385614D+00 0.38803134D+05 0.38803134D+05 0.38803134D+05 0.12033423D+01  1  2 15  3  6  5        2 0.467841749820D-02 0.100000000000D+01
0.399417926159D-05 0.000000000000D+00 0.000000000000D+00 0.716813910137D-07 0.000000000000D+00  6 21 2 25 23 2 21 4 0.92659212D-02 0.29385614D+00 0.38754491D+05 0.38754491D+05 0.38754491D+05 0.12033978D+01  1  2 12  3  6  5        2 0.832645719103D-02 0.100000000000D+01
-.534452665197D-03 0.000000000000D+00 0.000000000000D+00 0.716747774071D-07 0.000000000000D+00  6 21 2 25 23 2 21 4 0.92659212D-02 0.29385614D+00 0.38803134D+05 0.38803134D+05 0.38803134D+05 0.12033423D+01  1  2  4  3  6  5        2 -.111388175183D+01 0.100000000000D+01
-.430211612463D-04 0.000000000000D+00 0.000000000000D+00 0.716747774071D-07 0.000000000000D+00  6 21 2 25 23 2 21 4 0.92659212D-02 0.29385614D+00 0.38803134D+05 0.38803134D+05 0.38803134D+05 0.12033423D+01  1  2  5  3  6  5        2 -.896627326898D-01 0.100000000000D+01
0.135299896294D-03 0.000000000000D+00 -.000000000000D+00 0.716747774071D-07 0.000000000000D+00  6 21 2 25 23 2 21 4 0.92659212D-02 0.29385614D+00 0.38803134D+05 0.38803134D+05 0.38803134D+05 0.12033423D+01  1  2  6  3  6  5        2 0.281985843314D+00 0.100000000000D+01
0.991815220809D-04 0.000000000000D+00 0.000000000000D+00 0.716747774071D-07 0.209967253447D-07  6 21 2 25 23 2 21 4 0.92659212D-02 0.29385614D+00 0.38754491D+05 0.38754491D+05 0.38754491D+05 0.12033978D+01  1  2 11  3  6  5        2 0.206758546290D+00 0.100000000000D+01
  </mgrwgt>
  </event>
  <event>
  5     66 0.38225901E-03 0.36767017E+02 0.75467711E-02 0.12044560E+00
       21 -1    0    0  501  502 0.00000000E+00 0.00000000E+00 0.24904191E+02 0.24915482E+02 0.75000000E+00 0.0000E+00 0.9000E+01
        2 -1    0    0  502    0 -.00000000E+00 -.00000000E+00 -.12601738E+04 0.12601739E+04 0.32000000E+00 0.0000E+00 0.9000E+01
       25  1    1    2    0    0 -.51223419E+02 -.13938983E+02 -.81198878E+03 0.82326721E+03 0.12500000E+03 0.0000E+00 0.9000E+01
       23  1    1    2    0    0 0.76118638E+02 -.13116972E+02 -.40189626E+03 0.41928744E+03 0.91188000E+02 0.0000E+00 0.9000E+01
        2  1    1    2  501    0 -.24895219E+02 0.27055955E+02 -.21384595E+02 0.42534691E+02 0.32000000E+00 0.0000E+00 0.9000E+01
#aMCatNLO 1  0  0  5  1 0.24422185D+01 0.00000000D+00  -5  6  0 0.00000000D+00 0.00000000D+00 0.00000000D+00 0.00000000D+00 0.00000000D+00
  <mgrwgt>
 0.3146311937D-01    8    2    0
 0.177174746571508D+03 0.000000000000000D+00 0.000000000000000D+00 0.177174746571508D+03
 0.177174746571508D+03 -.000000000000000D+00 -.000000000000000D+00 -.177174746571508D+03
 0.155064099267795D+03 -.512233314703132D+02 -.139390784442240D+02 -.748448213769046D+02
 0.119575710340585D+03 0.761187058258365D+02 -.131170455050721D+02 0.412127408372656D+01
 0.797096835346353D+02 -.248953743555233D+02 0.270561239492961D+02 0.707235472931781D+02
 0.000000000000000D+00 0.000000000000000D+00 0.000000000000000D+00 0.000000000000000D+00
 0.177174746571508D+03 0.000000000000000D+00 0.000000000000000D+00 0.177174746571508D+03
 0.177174746571508D+03 -.000000000000000D+00 -.000000000000000D+00 -.177174746571508D+03
 0.154924667583305D+03 -.513461796557369D+02 -.138055678697573D+02 -.744958304628649D+02
 0.119513744490534D+03 0.760239549547701D+02 -.130140709012253D+02 0.439044528056179D+01
 0.760093498430038D+02 -.260215804960212D+02 0.258569976459600D+02 0.665711220033286D+02
 0.390173122617275D+01 0.134380519698799D+01 0.962641125022563D+00 0.353426317897450D+01
0.101831745770D-05 0.000000000000D+00 0.000000000000D+00 0.662454042776D-06 0.000000000000D+00  6 21 2 25 23 2 21 2 0.38322857D-02 0.19387377D+00 0.21327267D+05 0.21327267D+05 0.21327267D+05 0.12307657D+01  1  2  2  3  6  5        2 0.153763019827D-01 0.100000000000D+01
0.705338006838D-07 0.537380886132D-07 -.205568955682D-08 0.662454042776D-06 0.000000000000D+00  6 21 2 25 23 2 21 4 0.38322857D-02 0.19387377D+00 0.21327267D+05 0.21327267D+05 0.21327267D+05 0.12307657D+01  1  2  3  3  6  5        2 0.161330607379D-02 0.100000000000D+01
0.853775770150D-07 0.000000000000D+00 0.000000000000D+00 0.662454042776D-06 0.000000000000D+00  6 21 2 25 23 2 21 4 0.38322857D-02 0.19387377D+00 0.21327267D+05 0.21327267D+05 0.21327267D+05 0.12307657D+01  1  2 15  3  6  5        2 0.195282491838D-02 0.100000000000D+01
0.369833869758D-08 0.000000000000D+00 0.000000000000D+00 0.661920415759D-06 0.000000000000D+00  6 21 2 25 23 2 21 4 0.38322857D-02 0.19387377D+00 0.21551444D+05 0.21551444D+05 0.21551444D+05 0.12302699D+01  1  2 12  3  6  5        2 0.844556069427D-04 0.100000000000D+01
-.311775874552D-04 0.000000000000D+00 0.000000000000D+00 0.662454042776D-06 0.000000000000D+00  6 21 2 25 23 2 21 4 0.38322857D-02 0.19387377D+00 0.21327267D+05 0.21327267D+05 0.21327267D+05 0.12307657D+01  1  2  4  3  6  5        2 -.713118968777D+00 0.100000000000D+01
-.160238178445D-04 0.000000000000D+00 0.000000000000D+00 0.662454042776D-06 0.000000000000D+00  6 21 2 25 23 2 21 4 0.38322857D-02 0.19387377D+00 0.21327267D+05 0.21327267D+05 0.21327267D+05 0.12307657D+01  1  2  5  3  6  5        2 -.366509707447D+00 0.100000000000D+01
0.169143245864D-04 0.000000000000D+00 -.000000000000D+00 0.662454042776D-06 0.000000000000D+00  6 21 2 25 23 2 21 4 0.38322857D-02 0.19387377D+00 0.21327267D+05 0.21327267D+05 0.21327267D+05 0.12307657D+01  1  2  6  3  6  5        2 0.386878097091D+00 0.100000000000D+01
0.308803614416D-04 0.000000000000D+00 0.000000000000D+00 0.662454042776D-06 0.304940546289D-05  6 21 2 25 23 2 21 4 0.38322857D-02 0.19387377D+00 0.21551444D+05 0.21551444D+05 0.21551444D+05 0.12302699D+01  1  2 11  3  6  5        2 0.705186809924D+00 0.100000000000D+01
  </mgrwgt>
  </event>
  <event>
  6     66 -.38225901E-03 0.10904731E+03 0.75467711E-02 0.10930744E+00
       21 -1    0    0  501  502 0.00000000E+00 0.00000000E+00 0.51219794E+02 0.51225285E+02 0.75000000E+00 0.0000E+00 0.9000E+01
        2 -1    0    0  503    0 0.00000000E+00 0.00000000E+00 -.17074341E+04 0.17074341E+04 0.32000000E+00 0.0000E+00 0.9000E+01
       25  1    1    2    0    0 0.96139897E+02 -.18852930E+03 -.65363889E+03 0.69832297E+03 0.12500000E+03 0.0000E+00 0.9000E+01
       23  1    1    2    0    0 -.15484042E+03 0.84443247E+02 -.43875482E+03 0.48158827E+03 0.91188000E+02 0.0000E+00 0.9000E+01
        2  1    1    2  501    0 0.64253421E+02 0.94747289E+02 -.44721327E+03 0.46163336E+03 0.32000000E+00 0.0000E+00 0.9000E+01
       21  1    1    2  503  502 -.55528970E+01 0.93387667E+01 -.11660728E+03 0.11711477E+03 0.75000000E+00 0.0000E+00 0.9000E+01
#aMCatNLO 2  0  0  2  1 0.10864954D+02 0.00000000D+00  -5  6  0 0.00000000D+00 0.00000000D+00 0.00000000D+00 0.00000000D+00 0.00000000D+00
  <mgrwgt>
 -.8027071573D-01    3    2    0
 0.284675691336679D+03 0.000000000000000D+00 0.000000000000000D+00 0.284675691336679D+03
 0.284675691336679D+03 0.000000000000000D+00 0.000000000000000D+00 -.284675691336679D+03
 0.241831098136915D+03 0.937620041355125D+02 -.184530498221007D+03 0.380287166561401D+01
 0.204947358368007D+03 -.156824875394536D+03 0.877804205493198D+02 0.372655951743292D+02
 0.122572926168437D+03 0.630628712590236D+02 0.967500776716872D+02 -.410684668399433D+02
 0.000000000000000D+00 -.000000000000000D+00 0.000000000000000D+00 -.000000000000000D+00
 0.286138725709244D+03 0.000000000000000D+00 0.000000000000000D+00 0.286138725709244D+03
 0.305640008215854D+03 0.000000000000000D+00 0.000000000000000D+00 -.305640008215854D+03
 0.245816345199741D+03 0.961398060047065D+02 -.188529444479717D+03 0.380287166561401D+01
 0.202015340076126D+03 -.154840497790849D+03 0.844431284490223D+02 0.372655951743292D+02
 0.121623356128139D+03 0.642535888244065D+02 0.947475493639429D+02 -.410684668399433D+02
 0.223236925210912D+02 -.555289703826446D+01 0.933876666675183D+01 -.195012825066102D+02
-.109796626313D-03 0.000000000000D+00 0.000000000000D+00 0.261706366385D-07 0.000000000000D+00  6 21 2 25 23 2 21 4 0.78399286D-02 0.26327849D+00 0.81133850D+05 0.81133850D+05 0.81133850D+05 0.11720059D+01  1  2 13  2  6  2        2 -.341067025998D+00 0.100000000000D+01
-.116446567172D-04 0.000000000000D+00 0.000000000000D+00 0.262409592125D-07 0.000000000000D+00  6 21 2 25 23 2 21 4 0.78399286D-02 0.24465942D+00 0.78069999D+05 0.78069999D+05 0.78069999D+05 0.11735795D+01  1  2  8  2  6  2        2 -.422070350942D-01 0.100000000000D+01
0.979570646710D-04 0.000000000000D+00 0.000000000000D+00 0.262409592125D-07 0.186937526389D-08  6 21 2 25 23 2 21 4 0.78802203D-02 0.26267683D+00 0.81133850D+05 0.81133850D+05 0.81133850D+05 0.11720059D+01  1  2  1  2  6  2        2 0.303003345367D+00 0.100000000000D+01
  </mgrwgt>
  </event>
  <event>
  6     66 0.38225901E-03 0.42255820E+02 0.75467711E-02 0.11852005E+00
       21 -1    0    0  501  502 0.00000000E+00 0.00000000E+00 0.27256836E+02 0.27267152E+02 0.75000000E+00 0.0000E+00 0.9000E+01
        2 -1    0    0  502    0 -.00000000E+00 -.00000000E+00 -.16274079E+04 0.16274079E+04 0.32000000E+00 0.0000E+00 0.9000E+01
       25  1    1    2    0    0 0.34295363E+02 0.15706600E+02 -.50721047E+03 0.52374644E+03 0.12500000E+03 0.0000E+00 0.9000E+01
       23  1    1    2    0    0 -.27377192E+02 -.74332252E+02 -.19176677E+03 0.22663746E+03 0.91188000E+02 0.0000E+00 0.9000E+01
        2  1    1    2  503    0 -.25141417E+02 0.46892453E+02 -.61571715E+03 0.61801190E+03 0.32000000E+00 0.0000E+00 0.9000E+01
       21  1    1    2  501  503 0.18223246E+02 0.11733199E+02 -.28545668E+03 0.28627929E+03 0.75000000E+00 0.0000E+00 0.9000E+01
#aMCatNLO 2  0  0  5  1 0.21246584D+02 0.00000000D+00  -5  6  0 0.00000000D+00 0.00000000D+00 0.00000000D+00 0.00000000D+00 0.00000000D+00
  <mgrwgt>
 0.4235140643D-01    2    2    0
 0.210633689051541D+03 0.000000000000000D+00 0.000000000000000D+00 0.210633689051541D+03
 0.210633689051541D+03 -.000000000000000D+00 -.000000000000000D+00 -.210633689051541D+03
 0.130457840444625D+03 0.344502573812727D+02 0.143939995083785D+02 -.490589433409475D+00
 0.164471465723676D+03 -.271836099338905D+02 -.759726921675323D+02 0.110565876693823D+03
 0.126338071934780D+03 -.726664744738222D+01 0.615786926591538D+02 -.110075287260414D+03
 0.000000000000000D+00 0.000000000000000D+00 0.000000000000000D+00 -.000000000000000D+00
 0.210633689051541D+03 0.000000000000000D+00 0.000000000000000D+00 0.210633689051541D+03
 0.210633689051541D+03 -.000000000000000D+00 -.000000000000000D+00 -.210633689051541D+03
 0.130598757678146D+03 0.342949464531418D+02 0.157101282980618D+02 -.284324176070029D+01
 0.161779827823158D+03 -.273777072735824D+02 -.743278813364862D+02 0.107625687207850D+03
 0.884813080484457D+02 -.251993357240104D+02 0.467890010313052D+02 -.707440791552556D+02
 0.404074845533310D+02 0.182820965444510D+02 0.118287520071192D+02 -.340383662918937D+02
-.409540756873D-05 0.000000000000D+00 0.000000000000D+00 0.589140542327D-07 0.000000000000D+00  6 21 2 25 23 2 21 4 0.41941553D-02 0.25037124D+00 0.26613509D+05 0.26613509D+05 0.26613509D+05 0.12203962D+01  1  2 13  3  6  5        2 -.497207024100D-01 0.100000000000D+01
0.758381907620D-05 0.000000000000D+00 0.000000000000D+00 0.592518309811D-07 0.175423595800D-08  6 21 2 25 23 2 21 4 0.41941553D-02 0.25037124D+00 0.26613509D+05 0.26613509D+05 0.26613509D+05 0.12203962D+01  1  2  1  3  6  5        2 0.920721088417D-01 0.100000000000D+01
  </mgrwgt>
  </event>
  <event>
  5     66 0.38225901E-03 0.24274775E+02 0.75467711E-02 0.10577490E+00
       21 -1    0    0  501  502 0.00000000E+00 0.00000000E+00 0.20201234E+03 0.20201373E+03 0.75000000E+00 0.0000E+00 0.9000E+01
        2 -1    0    0  502    0 -.00000000E+00 -.00000000E+00 -.10882161E+04 0.10882162E+04 0.32000000E+00 0.0000E+00 0.9000E+01
       25  1    1    2    0    0 -.81545291E+02 0.23465913E+03 -.57483448E+03 0.63857202E+03 0.12500000E+03 0.0000E+00 0.9000E+01
       23  1    1    2    0    0 0.59515880E+02 -.22446259E+03 -.44805687E+03 0.51283117E+03 0.91188000E+02 0.0000E+00 0.9000E+01
        2  1    1    2  501    0 0.22029411E+02 -.10196537E+02 0.13668757E+03 0.13882672E+03 0.32000000E+00 0.0000E+00 0.9000E+01
#aMCatNLO 1  0  0  5  1 0.21246584D+02 0.00000000D+00  -5  6  0 0.00000000D+00 0.00000000D+00 0.00000000D+00 0.00000000D+00 0.00000000D+00
  <mgrwgt>
 0.1462139228D+01    6    2    0
 0.468864602289417D+03 0.000000000000000D+00 0.000000000000000D+00 0.468864602289417D+03
 0.468864602289417D+03 -.000000000000000D+00 -.000000000000000D+00 -.468864602289417D+03
 0.335367878272515D+03 -.815452947100687D+02 0.234659131305151D+03 -.187435510997164D+03
 0.282171475400193D+03 0.595158767011736D+02 -.224462590571197D+03 -.131832833695099D+03
 0.320189850906126D+03 0.220294180088952D+02 -.101965407339540D+02 0.319268344692263D+03
 0.000000000000000D+00 0.000000000000000D+00 -.000000000000000D+00 0.000000000000000D+00
 0.468864602289417D+03 0.000000000000000D+00 0.000000000000000D+00 0.468864602289417D+03
 0.468864602289417D+03 -.000000000000000D+00 -.000000000000000D+00 -.468864602289417D+03
 0.322266393295538D+03 -.799733727233445D+02 0.233931551186523D+03 -.164653931815900D+03
 0.274490718349057D+03 0.608464483872358D+02 -.225078459242394D+03 -.112549100482904D+03
 0.138688174151899D+03 -.326713932134205D+02 0.842187446630501D+02 0.105233990528067D+03
 0.202283918782340D+03 0.517983175495293D+02 -.930718366071786D+02 0.171969041770736D+03
0.228608595349D-02 0.000000000000D+00 0.000000000000D+00 0.293121018477D-05 0.000000000000D+00  6 21 2 25 23 2 21 2 0.31078932D-01 0.16741798D+00 0.76136208D+05 0.76136208D+05 0.76136208D+05 0.11746083D+01  1  2  2  3  6  5        2 0.897377120333D+00 0.100000000000D+01
0.117723264474D-02 0.120640070165D-03 -.461494888954D-05 0.293121018477D-05 0.000000000000D+00  6 21 2 25 23 2 21 4 0.31078932D-01 0.16741798D+00 0.76136208D+05 0.76136208D+05 0.76136208D+05 0.11746083D+01  1  2  3  3  6  5        2 0.637574358655D+00 0.100000000000D+01
0.286473466002D-03 0.000000000000D+00 0.000000000000D+00 0.293121018477D-05 0.000000000000D+00  6 21 2 25 23 2 21 4 0.31078932D-01 0.16741798D+00 0.76136208D+05 0.76136208D+05 0.76136208D+05 0.11746083D+01  1  2 15  3  6  5        2 0.155150417527D+00 0.100000000000D+01
-.859138877738D-03 0.000000000000D+00 0.000000000000D+00 0.293121018477D-05 0.000000000000D+00  6 21 2 25 23 2 21 4 0.31078932D-01 0.16741798D+00 0.76136208D+05 0.76136208D+05 0.76136208D+05 0.11746083D+01  1  2  4  3  6  5        2 -.465298784753D+00 0.100000000000D+01
-.575711551898D-03 0.000000000000D+00 0.000000000000D+00 0.293121018477D-05 0.000000000000D+00  6 21 2 25 23 2 21 4 0.31078932D-01 0.16741798D+00 0.76136208D+05 0.76136208D+05 0.76136208D+05 0.11746083D+01  1  2  5  3  6  5        2 -.311798118334D+00 0.100000000000D+01
0.101393467088D-02 0.000000000000D+00 -.000000000000D+00 0.293121018477D-05 0.000000000000D+00  6 21 2 25 23 2 21 4 0.31078932D-01 0.16741798D+00 0.76136208D+05 0.76136208D+05 0.76136208D+05 0.11746083D+01  1  2  6  3  6  5        2 0.549134234759D+00 0.100000000000D+01
  </mgrwgt>
  </event>
  <event>
  5     66 -.38225901E-03 0.23363976E+02 0.75467711E-02 0.12052248E+00
       21 -1    0    0  501  502 0.00000000E+00 0.00000000E+00 0.78453844E+03 0.78453880E+03 0.75000000E+00 0.0000E+00 0.9000E+01
        2 -1    0    0  502    0 0.00000000E+00 0.00000000E+00 -.47262612E+02 0.47263696E+02 0.32000000E+00 0.0000E+00 0.9000E+01
       25  1    1    2    0    0 0.46159840E+02 -.23817382E+02 0.10958671E+03 0.17416155E+03 0.12500000E+03 0.0000E+00 0.9000E+01
       23  1    1    2    0    0 -.68867464E+02 0.29316034E+02 0.22303996E+03 0.25231773E+03 0.91188000E+02 0.0000E+00 0.9000E+01
        2  1    1    2  501    0 0.22707623E+02 -.54986520E+01 0.40464915E+03 0.40532322E+03 0.32000000E+00 0.0000E+00 0.9000E+01
#aMCatNLO 1  0  0  5  2 0.14589727D+02 0.00000000D+00  -5  6  0 0.00000000D+00 0.00000000D+00 0.00000000D+00 0.00000000D+00 0.00000000D+00
  <mgrwgt>
 -.8818636159D-02    6    2    0
 0.192561511379752D+03 0.000000000000000D+00 0.000000000000000D+00 0.192561511379752D+03
 0.192561511379752D+03 -.000000000000000D+00 -.000000000000000D+00 -.192561511379752D+03
 0.166368713021803D+03 0.461597910206921D+02 -.238173703251921D+02 -.967241192063781D+02
 0.117979309003276D+03 -.688674988049929D+02 0.293160427695274D+02 -.130508757178708D+01
 0.100775000734426D+03 0.227077077843008D+02 -.549867244433529D+01 0.980292067781651D+02
 0.000000000000000D+00 0.000000000000000D+00 -.000000000000000D+00 0.000000000000000D+00
 0.192561511379752D+03 0.000000000000000D+00 0.000000000000000D+00 0.192561511379752D+03
 0.192561511379752D+03 -.000000000000000D+00 -.000000000000000D+00 -.192561511379752D+03
 0.164468632747410D+03 0.470403062230583D+02 -.240305871203905D+02 -.929229338263307D+02
 0.117577816425883D+03 -.682405694917867D+02 0.291642318086053D+02 0.140136716434757D+01
 0.854518085867864D+02 0.223815477619351D+02 0.959166414737351D+01 0.819089609836249D+02
 0.176247649994249D+02 -.118128449320665D+01 -.147253088355884D+02 0.961260567835821D+01
0.101221638653D-04 0.000000000000D+00 0.000000000000D+00 0.216263324024D-05 0.000000000000D+00  6 21 2 25 23 2 21 2 0.12069833D+00 0.72712820D-02 0.19140518D+05 0.19140518D+05 0.19140518D+05 0.12359317D+01  1  2  2  3  6  5        2 0.947287898118D-02 0.100000000000D+01
0.199610041607D-05 0.534161262426D-06 -.204337325194D-07 0.216263324024D-05 0.000000000000D+00  6 21 2 25 23 2 21 4 0.12069833D+00 0.72712820D-02 0.19140518D+05 0.19140518D+05 0.19140518D+05 0.12359317D+01  1  2  3  3  6  5        2 0.285351375838D-02 0.100000000000D+01
0.877778779722D-06 0.000000000000D+00 0.000000000000D+00 0.216263324024D-05 0.000000000000D+00  6 21 2 25 23 2 21 4 0.12069833D+00 0.72712820D-02 0.19140518D+05 0.19140518D+05 0.19140518D+05 0.12359317D+01  1  2 15  3  6  5        2 0.125482355727D-02 0.100000000000D+01
-.187240955848D-04 0.000000000000D+00 0.000000000000D+00 0.216263324024D-05 0.000000000000D+00  6 21 2 25 23 2 21 4 0.12069833D+00 0.72712820D-02 0.19140518D+05 0.19140518D+05 0.19140518D+05 0.12359317D+01  1  2  4  3  6  5        2 -.267669221118D-01 0.100000000000D+01
-.160860815036D-04 0.000000000000D+00 0.000000000000D+00 0.216263324024D-05 0.000000000000D+00  6 21 2 25 23 2 21 4 0.12069833D+00 0.72712820D-02 0.19140518D+05 0.19140518D+05 0.19140518D+05 0.12359317D+01  1  2  5  3  6  5        2 -.229957644011D-01 0.100000000000D+01
0.191409500957D-04 0.000000000000D+00 -.000000000000D+00 0.216263324024D-05 0.000000000000D+00  6 21 2 25 23 2 21 4 0.12069833D+00 0.72712820D-02 0.19140518D+05 0.19140518D+05 0.19140518D+05 0.12359317D+01  1  2  6  3  6  5        2 0.273628340573D-01 0.100000000000D+01
  </mgrwgt>
  </event>
  <event>
  5     66 0.38225901E-03 0.61326387E+02 0.75467711E-02 0.11994479E+00
       21 -1    0    0  501  502 0.00000000E+00 0.00000000E+00 0.45454699E+03 0.45454761E+03 0.75000000E+00 0.0000E+00 0.9000E+01
        2 -1    0    0  502    0 0.00000000E+00 0.00000000E+00 -.51805318E+02 0.51806307E+02 0.32000000E+00 0.0000E+00 0.9000E+01
       25  1    1    2    0    0 -.36441403E+02 -.43073237E+02 0.16995783E+03 0.21838943E+03 0.12500000E+03 0.0000E+00 0.9000E+01
       23  1    1    2    0    0 -.15916545E+02 0.23267456E+01 0.83840896E+02 0.12491316E+03 0.91188000E+02 0.0000E+00 0.9000E+01
        2  1    1    2  501    0 0.52357948E+02 0.40746491E+02 0.14894295E+03 0.16305133E+03 0.32000000E+00 0.0000E+00 0.9000E+01
#aMCatNLO 1  0  0  1  2 0.54875085D+01 0.00000000D+00  -5  6  0 0.00000000D+00 0.00000000D+00 0.00000000D+00 0.00000000D+00 0.00000000D+00
  <mgrwgt>
 0.1551836550D+00   41    2    0
 0.153454743867404D+03 0.000000000000000D+00 0.000000000000000D+00 0.153454743867404D+03
 0.153454743867404D+03 0.000000000000000D+00 0.000000000000000D+00 -.153454743867404D+03
 0.137282427262453D+03 -.364416247041718D+02 -.430734091287018D+02 -.617691266106175D+01
 0.960676046070698D+02 -.159166998158451D+02 0.232662494908103D+01 -.255925534923519D+02
 0.735594558652856D+02 0.523583245200169D+02 0.407467841796208D+02 0.317694661534137D+02
 0.000000000000000D+00 0.000000000000000D+00 -.000000000000000D+00 0.000000000000000D+00
 0.159800391469330D+03 0.000000000000000D+00 0.000000000000000D+00 0.159800391469330D+03
 0.154670228631752D+03 0.000000000000000D+00 0.000000000000000D+00 -.154670228631752D+03
 0.136744402069175D+03 -.371189241278491D+02 -.407193162863135D+02 -.617691266106175D+01
 0.962016248072334D+02 -.163919227660607D+02 0.397835962732295D+01 -.255925534923519D+02
 0.740125149670319D+02 0.519935777138759D+02 0.420145363961495D+02 0.317694661534137D+02
 0.751207825764092D+01 0.151726918003392D+01 -.527357973715893D+01 0.513016283757810D+01
0.540814868987D-05 0.000000000000D+00 0.000000000000D+00 0.274645622013D-06 0.000000000000D+00  6 21 2 25 23 2 21 2 0.69930430D-01 0.79701726D-02 0.21916521D+05 0.21916521D+05 0.21916521D+05 0.12294747D+01  1  2  2  1  6  1       21 0.157020648857D-01 0.100000000000D+01
-.218081955120D-06 0.285395847172D-06 -.109174940481D-07 0.274645622013D-06 0.000000000000D+00  6 21 2 25 23 2 21 4 0.69930430D-01 0.79701726D-02 0.21916521D+05 0.21916521D+05 0.21916521D+05 0.12294747D+01  1  2  3  1  6  1       21 -.957121471110D-03 0.100000000000D+01
0.570471021367D-06 0.000000000000D+00 0.000000000000D+00 0.274645622013D-06 0.000000000000D+00  6 21 2 25 23 2 21 4 0.69930430D-01 0.79701726D-02 0.21916521D+05 0.21916521D+05 0.21916521D+05 0.12294747D+01  1  2 15  1  6  1       21 0.250369207712D-02 0.100000000000D+01
0.151739420600D-04 0.000000000000D+00 0.000000000000D+00 0.273857574324D-06 0.000000000000D+00  6 21 2 25 23 2 21 4 0.73092047D-01 0.79701726D-02 0.22751881D+05 0.22751881D+05 0.22751881D+05 0.12277095D+01  1  2 12  1  6  1       21 0.600710186587D-01 0.100000000000D+01
0.962152329219D-05 0.000000000000D+00 0.000000000000D+00 0.273857574324D-06 0.000000000000D+00  6 21 2 25 23 2 21 4 0.74829879D-01 0.79701726D-02 0.22751881D+05 0.22751881D+05 0.22751881D+05 0.12277095D+01  1  2 12  1  6  1       21 0.361608995509D-01 0.100000000000D+01
-.363982331304D-04 0.000000000000D+00 0.000000000000D+00 0.274645622013D-06 0.000000000000D+00  6 21 2 25 23 2 21 4 0.69930430D-01 0.79701726D-02 0.21916521D+05 0.21916521D+05 0.21916521D+05 0.12294747D+01  1  2  4  1  6  1       21 -.159745130772D+00 0.100000000000D+01
-.289679371646D-03 0.000000000000D+00 -.342252990324D-04 0.274645622013D-06 0.000000000000D+00  6 21 2 25 23 2 21 4 0.73223150D-01 0.79701726D-02 0.21916521D+05 0.21916521D+05 0.21916521D+05 0.12294747D+01  1  2  5  1  6  1       21 -.114909016006D+01 0.100000000000D+01
0.289933535343D-03 0.000000000000D+00 0.340808234337D-04 0.274645622013D-06 0.000000000000D+00  6 21 2 25 23 2 21 4 0.69930430D-01 0.79701726D-02 0.21916521D+05 0.21916521D+05 0.21916521D+05 0.12294747D+01  1  2  6  1  6  1       21 0.127246480214D+01 0.100000000000D+01
0.216638067505D-04 0.000000000000D+00 0.000000000000D+00 0.274645622013D-06 0.120723267201D-06  6 21 2 25 23 2 21 4 0.72822187D-01 0.80333027D-02 0.22751881D+05 0.22751881D+05 0.22751881D+05 0.12277095D+01  1  2 11  1  6  1       21 0.856114130325D-01 0.100000000000D+01
0.357111170532D-06 0.000000000000D+00 0.000000000000D+00 0.273857574324D-06 0.000000000000D+00  6 -1 2 25 23 2 -1 4 0.73092047D-01 0.79701726D-02 0.22751881D+05 0.22751881D+05 0.22751881D+05 0.12277095D+01  1  2 12  4  6  1       21 0.151805107596D-03 0.100000000000D+01
0.357111170532D-06 0.000000000000D+00 0.000000000000D+00 0.273857574324D-06 0.000000000000D+00  6 -3 2 25 23 2 -3 4 0.73092047D-01 0.79701726D-02 0.22751881D+05 0.22751881D+05 0.22751881D+05 0.12277095D+01  1  2 12  4  6  1       21 0.733801499884D-04 0.100000000000D+01
0.358227860886D-06 0.000000000000D+00 0.000000000000D+00 0.273857574324D-06 0.000000000000D+00  6 -1 2 25 23 2 -1 4 0.74829879D-01 0.79701726D-02 0.22751881D+05 0.22751881D+05 0.22751881D+05 0.12277095D+01  1  2 12  4  6  1       21 0.145264810138D-03 0.100000000000D+01
0.358227860886D-06 0.000000000000D+00 0.000000000000D+00 0.273857574324D-06 0.000000000000D+00  6 -3 2 25 23 2 -3 4 0.74829879D-01 0.79701726D-02 0.22751881D+05 0.22751881D+05 0.22751881D+05 0.12277095D+01  1  2 12  4  6  1       21 0.699931804408D-04 0.100000000000D+01
-.286585541886D-05 0.000000000000D+00 -.374149907551D-06 0.274645622013D-06 0.000000000000D+00  6 -1 2 25 23 2 -1 4 0.73223150D-01 0.79701726D-02 0.21916521D+05 0.21916521D+05 0.21916521D+05 0.12294747D+01  1  2  5  4  6  1       21 -.122003049586D-02 0.100000000000D+01
-.286585541886D-05 0.000000000000D+00 -.374149907551D-06 0.274645622013D-06 0.000000000000D+00  6 -3 2 25 23 2 -3 4 0.73223150D-01 0.79701726D-02 0.21916521D+05 0.21916521D+05 0.21916521D+05 0.12294747D+01  1  2  5  4  6  1       21 -.589043011303D-03 0.100000000000D+01
0.467385696557D-06 0.000000000000D+00 0.000000000000D+00 0.274645622013D-06 0.153912653183D-08  6 -1 2 25 23 2 -1 4 0.72822187D-01 0.80333027D-02 0.22751881D+05 0.22751881D+05 0.22751881D+05 0.12277095D+01  1  2 11  4  6  1       21 0.198178597479D-03 0.100000000000D+01
0.467385696557D-06 0.000000000000D+00 0.000000000000D+00 0.274645622013D-06 0.153912653183D-08  6 -3 2 25 23 2 -3 4 0.72822187D-01 0.80333027D-02 0.22751881D+05 0.22751881D+05 0.22751881D+05 0.12277095D+01  1  2 11  4  6  1       21 0.958455448354D-04 0.100000000000D+01
0.357111170532D-06 0.000000000000D+00 0.000000000000D+00 0.273857574324D-06 0.000000000000D+00  6 1 2 25 23 2 1 4 0.73092047D-01 0.79701726D-02 0.22751881D+05 0.22751881D+05 0.22751881D+05 0.12277095D+01  1  2 12  5  6  1       21 0.441790287656D-03 0.100000000000D+01
0.357111170532D-06 0.000000000000D+00 0.000000000000D+00 0.273857574324D-06 0.000000000000D+00  6 3 2 25 23 2 3 4 0.73092047D-01 0.79701726D-02 0.22751881D+05 0.22751881D+05 0.22751881D+05 0.12277095D+01  1  2 12  5  6  1       21 0.734577846905D-04 0.100000000000D+01
0.358227860886D-06 0.000000000000D+00 0.000000000000D+00 0.273857574324D-06 0.000000000000D+00  6 1 2 25 23 2 1 4 0.74829879D-01 0.79701726D-02 0.22751881D+05 0.22751881D+05 0.22751881D+05 0.12277095D+01  1  2 12  5  6  1       21 0.429845812552D-03 0.100000000000D+01
0.358227860886D-06 0.000000000000D+00 0.000000000000D+00 0.273857574324D-06 0.000000000000D+00  6 3 2 25 23 2 3 4 0.74829879D-01 0.79701726D-02 0.22751881D+05 0.22751881D+05 0.22751881D+05 0.12277095D+01  1  2 12  5  6  1       21 0.700710214962D-04 0.100000000000D+01
-.286585541886D-05 0.000000000000D+00 -.374149907551D-06 0.274645622013D-06 0.000000000000D+00  6 1 2 25 23 2 1 4 0.73223150D-01 0.79701726D-02 0.21916521D+05 0.21916521D+05 0.21916521D+05 0.12294747D+01  1  2  5  5  6  1       21 -.355477281926D-02 0.100000000000D+01
-.286585541886D-05 0.000000000000D+00 -.374149907551D-06 0.274645622013D-06 0.000000000000D+00  6 3 2 25 23 2 3 4 0.73223150D-01 0.79701726D-02 0.21916521D+05 0.21916521D+05 0.21916521D+05 0.12294747D+01  1  2  5  5  6  1       21 -.589668270125D-03 0.100000000000D+01
0.475800017880D-06 0.000000000000D+00 0.000000000000D+00 0.274645622013D-06 0.156683534982D-08  6 1 2 25 23 2 1 4 0.72822187D-01 0.80333027D-02 0.22751881D+05 0.22751881D+05 0.22751881D+05 0.12277095D+01  1  2 11  5  6  1       21 0.585605877604D-03 0.100000000000D+01
0.475800017880D-06 0.000000000000D+00 0.000000000000D+00 0.274645622013D-06 0.156683534982D-08  6 3 2 25 23 2 3 4 0.72822187D-01 0.80333027D-02 0.22751881D+05 0.22751881D+05 0.22751881D+05 0.12277095D+01  1  2 11  5  6  1       21 0.976734611414D-04 0.100000000000D+01
0.357111170532D-06 0.000000000000D+00 0.000000000000D+00 0.273857574324D-06 0.000000000000D+00  6 -2 2 25 23 2 -2 4 0.73092047D-01 0.79701726D-02 0.22751881D+05 0.22751881D+05 0.22751881D+05 0.12277095D+01  1  2 12  6  6  1       21 0.117294736855D-03 0.100000000000D+01
0.358227860886D-06 0.000000000000D+00 0.000000000000D+00 0.273857574324D-06 0.000000000000D+00  6 -2 2 25 23 2 -2 4 0.74829879D-01 0.79701726D-02 0.22751881D+05 0.22751881D+05 0.22751881D+05 0.12277095D+01  1  2 12  6  6  1       21 0.111854042718D-03 0.100000000000D+01
-.286585541886D-05 0.000000000000D+00 -.374149907551D-06 0.274645622013D-06 0.000000000000D+00  6 -2 2 25 23 2 -2 4 0.73223150D-01 0.79701726D-02 0.21916521D+05 0.21916521D+05 0.21916521D+05 0.12294747D+01  1  2  5  6  6  1       21 -.942254608054D-03 0.100000000000D+01
0.137640779969D-05 0.000000000000D+00 0.000000000000D+00 0.274645622013D-06 0.723779552753D-08  6 -2 2 25 23 2 -2 4 0.72822187D-01 0.80333027D-02 0.22751881D+05 0.22751881D+05 0.22751881D+05 0.12277095D+01  1  2 11  6  6  1       21 0.451188705824D-03 0.100000000000D+01
0.357111170532D-06 0.000000000000D+00 0.000000000000D+00 0.273857574324D-06 0.000000000000D+00  6 2 2 25 23 2 2 4 0.73092047D-01 0.79701726D-02 0.22751881D+05 0.22751881D+05 0.22751881D+05 0.12277095D+01  1  2 12  7  6  1       21 0.681482039053D-03 0.100000000000D+01
0.358227860886D-06 0.000000000000D+00 0.000000000000D+00 0.273857574324D-06 0.000000000000D+00  6 2 2 25 23 2 2 4 0.74829879D-01 0.79701726D-02 0.22751881D+05 0.22751881D+05 0.22751881D+05 0.12277095D+01  1  2 12  7  6  1       21 0.666236544448D-03 0.100000000000D+01
-.286585541886D-05 0.000000000000D+00 -.374149907551D-06 0.274645622013D-06 0.000000000000D+00  6 2 2 25 23 2 2 4 0.73223150D-01 0.79701726D-02 0.21916521D+05 0.21916521D+05 0.21916521D+05 0.12294747D+01  1  2  5  7  6  1       21 -.548452013114D-02 0.100000000000D+01
0.495773636277D-06 0.000000000000D+00 0.000000000000D+00 0.274645622013D-06 0.897055132734D-09  6 2 2 25 23 2 2 4 0.72822187D-01 0.80333027D-02 0.22751881D+05 0.22751881D+05 0.22751881D+05 0.12277095D+01  1  2 11  7  6  1       21 0.940539764159D-03 0.100000000000D+01
0.357111170532D-06 0.000000000000D+00 0.000000000000D+00 0.273857574324D-06 0.000000000000D+00  6 -4 2 25 23 2 -4 4 0.73092047D-01 0.79701726D-02 0.22751881D+05 0.22751881D+05 0.22751881D+05 0.12277095D+01  1  2 12  8  6  1       21 0.594379689937D-04 0.100000000000D+01
0.358227860886D-06 0.000000000000D+00 0.000000000000D+00 0.273857574324D-06 0.000000000000D+00  6 -4 2 25 23 2 -4 4 0.74829879D-01 0.79701726D-02 0.22751881D+05 0.22751881D+05 0.22751881D+05 0.12277095D+01  1  2 12  8  6  1       21 0.566408390177D-04 0.100000000000D+01
-.286585541886D-05 0.000000000000D+00 -.374149907551D-06 0.274645622013D-06 0.000000000000D+00  6 -4 2 25 23 2 -4 4 0.73223150D-01 0.79701726D-02 0.21916521D+05 0.21916521D+05 0.21916521D+05 0.12294747D+01  1  2  5  8  6  1       21 -.476891433179D-03 0.100000000000D+01
0.491764793970D-06 0.000000000000D+00 0.000000000000D+00 0.274645622013D-06 0.161940822621D-08  6 -4 2 25 23 2 -4 4 0.72822187D-01 0.80333027D-02 0.22751881D+05 0.22751881D+05 0.22751881D+05 0.12277095D+01  1  2 11  8  6  1       21 0.816966260227D-04 0.100000000000D+01
0.357111170532D-06 0.000000000000D+00 0.000000000000D+00 0.273857574324D-06 0.000000000000D+00  6 4 2 25 23 2 4 4 0.73092047D-01 0.79701726D-02 0.22751881D+05 0.22751881D+05 0.22751881D+05 0.12277095D+01  1  2 12  9  6  1       21 0.594379689937D-04 0.100000000000D+01
0.358227860886D-06 0.000000000000D+00 0.000000000000D+00 0.273857574324D-06 0.000000000000D+00  6 4 2 25 23 2 4 4 0.74829879D-01 0.79701726D-02 0.22751881D+05 0.22751881D+05 0.22751881D+05 0.12277095D+01  1  2 12  9  6  1       21 0.566408390177D-04 0.100000000000D+01
-.286585541886D-05 0.000000000000D+00 -.374149907551D-06 0.274645622013D-06 0.000000000000D+00  6 4 2 25 23 2 4 4 0.73223150D-01 0.79701726D-02 0.21916521D+05 0.21916521D+05 0.21916521D+05 0.12294747D+01  1  2  5  9  6  1       21 -.476891433179D-03 0.100000000000D+01
0.486893894517D-06 0.000000000000D+00 0.000000000000D+00 0.274645622013D-06 0.160336808926D-08  6 4 2 25 23 2 4 4 0.72822187D-01 0.80333027D-02 0.22751881D+05 0.22751881D+05 0.22751881D+05 0.12277095D+01  1  2 11  9  6  1       21 0.808874260640D-04 0.100000000000D+01
  </mgrwgt>
  </event>
  <event>
  5     66 0.38225901E-03 0.28685801E+02 0.75467711E-02 0.11844206E+00
       21 -1    0    0  501  502 0.00000000E+00 0.00000000E+00 0.24786160E+02 0.24797504E+02 0.75000000E+00 0.0000E+00 0.9000E+01
        2 -1    0    0  502    0 0.00000000E+00 0.00000000E+00 -.74539907E+03 0.74539914E+03 0.32000000E+00 0.0000E+00 0.9000E+01
       25  1    1    2    0    0 -.13542638E+02 -.64027576E+01 -.25285588E+03 0.28246326E+03 0.12500000E+03 0.0000E+00 0.9000E+01
       23  1    1    2    0    0 -.30444789E+01 -.17000527E+02 -.22650331E+03 0.24478008E+03 0.91188000E+02 0.0000E+00 0.9000E+01
        2  1    1    2  501    0 0.16587117E+02 0.23403284E+02 -.24125373E+03 0.24295331E+03 0.32000000E+00 0.0000E+00 0.9000E+01
#aMCatNLO 1  0  0  1  5 0.14364018D+01 0.00000000D+00  -5  6  0 0.00000000D+00 0.00000000D+00 0.00000000D+00 0.00000000D+00 0.00000000D+00
  <mgrwgt>
 0.8803163227D-01    4    2    0
 0.135941073731732D+03 0.000000000000000D+00 0.000000000000000D+00 0.135941073731732D+03
 0.135941073731732D+03 0.000000000000000D+00 0.000000000000000D+00 -.135941073731732D+03
 0.129986762581936D+03 -.135428081999106D+02 -.640299804528117D+01 0.323597343719796D+02
 0.930829859843884D+02 -.304460092567815D+01 -.170006988375857D+02 0.713425399091755D+01
 0.488123988971392D+02 0.165874091255888D+02 0.234036968828669D+02 -.394939883628972D+02
 0.000000000000000D+00 0.000000000000000D+00 -.000000000000000D+00 -.000000000000000D+00
 0.154769486496011D+03 0.000000000000000D+00 0.000000000000000D+00 0.154769486496011D+03
 0.219569125295659D+03 0.000000000000000D+00 0.000000000000000D+00 -.219569125295659D+03
 0.132882934263183D+03 -.179788205943869D+02 0.257387610386219D+02 0.323597343719796D+02
 0.918457609058910D+02 -.616533421348496D+01 0.561101830430139D+01 0.713425399091755D+01
 0.555660681663223D+02 0.148259882422880D+02 0.361663225569764D+02 -.394939883628972D+02
 0.940438484562732D+02 0.931816656558392D+01 -.675161018998996D+02 -.647996387996482D+02
0.301471181433D-05 0.000000000000D+00 0.000000000000D+00 0.203449081562D-06 0.000000000000D+00  6 21 2 25 23 2 21 2 0.38141332D-02 0.11467766D+00 0.15300380D+05 0.15300380D+05 0.15300380D+05 0.12468421D+01  1  2  2  1  6  1       21 0.962193218138D-01 0.100000000000D+01
-.275414286918D-06 0.159090713213D-06 -.608583457615D-08 0.203449081562D-06 0.000000000000D+00  6 21 2 25 23 2 21 4 0.38141332D-02 0.11467766D+00 0.15300380D+05 0.15300380D+05 0.15300380D+05 0.12468421D+01  1  2  3  1  6  1       21 -.136655101286D-01 0.100000000000D+01
0.318463843163D-06 0.000000000000D+00 0.000000000000D+00 0.203449081562D-06 0.000000000000D+00  6 21 2 25 23 2 21 4 0.38141332D-02 0.11467766D+00 0.15300380D+05 0.15300380D+05 0.15300380D+05 0.12468421D+01  1  2 15  1  6  1       21 0.158015436419D-01 0.100000000000D+01
-.208064009043D-06 0.000000000000D+00 0.000000000000D+00 0.203449081562D-06 0.000000000000D+00  6 21 2 25 23 2 21 4 0.38141332D-02 0.11467766D+00 0.15300380D+05 0.15300380D+05 0.15300380D+05 0.12468421D+01  1  2  4  1  6  1       21 -.103237230530D-01 0.100000000000D+01
  </mgrwgt>
  </event>
  <event>
  5     66 0.38225901E-03 0.22012143E+02 0.75467711E-02 0.12119155E+00
       21 -1    0    0  501  502 0.00000000E+00 0.00000000E+00 0.15160541E+02 0.15179081E+02 0.75000000E+00 0.0000E+00 0.9000E+01
        2 -1    0    0  502    0 0.00000000E+00 0.00000000E+00 -.14159738E+04 0.14159738E+04 0.32000000E+00 0.0000E+00 0.9000E+01
       25  1    1    2    0    0 0.31338632E+02 -.42991535E+02 -.69928231E+03 0.71235605E+03 0.12500000E+03 0.0000E+00 0.9000E+01
       23  1    1    2    0    0 -.52364880E+02 0.49503253E+02 -.67193012E+03 0.68190761E+03 0.91188000E+02 0.0000E+00 0.9000E+01
        2  1    1    2  501    0 0.21026248E+02 -.65117183E+01 -.29600779E+02 0.36889214E+02 0.32000000E+00 0.0000E+00 0.9000E+01
#aMCatNLO 1  0  0  1  2 0.78210000D+01 0.00000000D+00  -5  6  0 0.00000000D+00 0.00000000D+00 0.00000000D+00 0.00000000D+00 0.00000000D+00
  <mgrwgt>
 0.1195707769D+00   32    2    0
 0.146561321842033D+03 0.000000000000000D+00 0.000000000000000D+00 0.146561321842033D+03
 0.146561321842033D+03 0.000000000000000D+00 0.000000000000000D+00 -.146561321842033D+03
 0.136210816734075D+03 0.313382970142296D+02 -.429914309983461D+02 -.990124216076980D+01
 0.118262846737701D+03 -.523651711870360D+02 0.495033430652365D+02 -.218668115284966D+02
 0.386489802122909D+02 0.210268741728064D+02 -.651191206689038D+01 0.317680536892664D+02
 0.000000000000000D+00 0.000000000000000D+00 0.000000000000000D+00 0.000000000000000D+00
 0.165494053394139D+03 0.000000000000000D+00 0.000000000000000D+00 0.165494053394139D+03
 0.147423415537065D+03 0.000000000000000D+00 0.000000000000000D+00 -.147423415537065D+03
 0.137360566926356D+03 0.311453849208761D+02 -.466353486974669D+02 -.990124216076980D+01
 0.117059816054190D+03 -.525311117429717D+02 0.463688908996696D+02 -.218668115284966D+02
 0.388065807886631D+02 0.209722554688519D+02 -.754360509651307D+01 0.317680536892664D+02
 0.196905051619949D+02 0.413471353243685D+00 0.781006289431037D+01 0.180706378570739D+02
0.331924468944D-06 0.000000000000D+00 0.000000000000D+00 0.104791867731D-05 0.000000000000D+00  6 21 2 25 23 2 21 2 0.23338199D-02 0.21784354D+00 0.18780825D+05 0.18780825D+05 0.18780825D+05 0.12368446D+01  1  2  2  1  6  1       21 0.943195499627D-02 0.100000000000D+01
0.340714048337D-07 0.175161354548D-07 -.670059871119D-09 0.104791867731D-05 0.000000000000D+00  6 21 2 25 23 2 21 4 0.23338199D-02 0.21784354D+00 0.18780825D+05 0.18780825D+05 0.18780825D+05 0.12368446D+01  1  2  3  1  6  1       21 0.148109450469D-02 0.100000000000D+01
0.379108863770D-07 0.000000000000D+00 0.000000000000D+00 0.104791867731D-05 0.000000000000D+00  6 21 2 25 23 2 21 4 0.23338199D-02 0.21784354D+00 0.18780825D+05 0.18780825D+05 0.18780825D+05 0.12368446D+01  1  2 15  1  6  1       21 0.164799795473D-02 0.100000000000D+01
0.479347121372D-05 0.000000000000D+00 0.000000000000D+00 0.104322867979D-05 0.000000000000D+00  6 21 2 25 23 2 21 4 0.26416259D-02 0.21784354D+00 0.19896692D+05 0.19896692D+05 0.19896692D+05 0.12340737D+01  1  2 12  1  6  1       21 0.168797401474D+00 0.100000000000D+01
-.332665253082D-05 0.000000000000D+00 0.000000000000D+00 0.104791867731D-05 0.000000000000D+00  6 21 2 25 23 2 21 4 0.23338199D-02 0.21784354D+00 0.18780825D+05 0.18780825D+05 0.18780825D+05 0.12368446D+01  1  2  4  1  6  1       21 -.144610614280D+00 0.100000000000D+01
-.124334501305D-04 0.000000000000D+00 -.871336171043D-06 0.104791867731D-05 0.000000000000D+00  6 21 2 25 23 2 21 4 0.26508265D-02 0.21784354D+00 0.18780825D+05 0.18780825D+05 0.18780825D+05 0.12368446D+01  1  2  5  1  6  1       21 -.439184797866D+00 0.100000000000D+01
0.120674014061D-04 0.000000000000D+00 0.843703627975D-06 0.104791867731D-05 0.000000000000D+00  6 21 2 25 23 2 21 4 0.23338199D-02 0.21784354D+00 0.18780825D+05 0.18780825D+05 0.18780825D+05 0.12368446D+01  1  2  6  1  6  1       21 0.524573670962D+00 0.100000000000D+01
0.241543248354D-07 0.000000000000D+00 0.000000000000D+00 0.104791867731D-05 0.230992520362D-06  6 21 2 25 23 2 21 4 0.26353018D-02 0.21912493D+00 0.19896692D+05 0.19896692D+05 0.19896692D+05 0.12340737D+01  1  2 11  1  6  1       21 0.845312462866D-03 0.100000000000D+01
0.156461219549D-06 0.000000000000D+00 0.000000000000D+00 0.104322867979D-05 0.000000000000D+00  6 -1 2 25 23 2 -1 4 0.26416259D-02 0.21784354D+00 0.19896692D+05 0.19896692D+05 0.19896692D+05 0.12340737D+01  1  2 12  4  6  1       21 0.278958721872D-03 0.100000000000D+01
0.156461219549D-06 0.000000000000D+00 0.000000000000D+00 0.104322867979D-05 0.000000000000D+00  6 -3 2 25 23 2 -3 4 0.26416259D-02 0.21784354D+00 0.19896692D+05 0.19896692D+05 0.19896692D+05 0.12340737D+01  1  2 12  4  6  1       21 0.210813965704D-03 0.100000000000D+01
-.429843758030D-06 0.000000000000D+00 -.293399418519D-07 0.104791867731D-05 0.000000000000D+00  6 -1 2 25 23 2 -1 4 0.26508265D-02 0.21784354D+00 0.18780825D+05 0.18780825D+05 0.18780825D+05 0.12368446D+01  1  2  5  4  6  1       21 -.768584987489D-03 0.100000000000D+01
-.429843758030D-06 0.000000000000D+00 -.293399418519D-07 0.104791867731D-05 0.000000000000D+00  6 -3 2 25 23 2 -3 4 0.26508265D-02 0.21784354D+00 0.18780825D+05 0.18780825D+05 0.18780825D+05 0.12368446D+01  1  2  5  4  6  1       21 -.579951978127D-03 0.100000000000D+01
0.207000856684D-08 0.000000000000D+00 0.000000000000D+00 0.104791867731D-05 0.864508316274D-08  6 -1 2 25 23 2 -1 4 0.26353018D-02 0.21912493D+00 0.19896692D+05 0.19896692D+05 0.19896692D+05 0.12340737D+01  1  2 11  4  6  1       21 0.366625809739D-05 0.100000000000D+01
0.207000856684D-08 0.000000000000D+00 0.000000000000D+00 0.104791867731D-05 0.864508316274D-08  6 -3 2 25 23 2 -3 4 0.26353018D-02 0.21912493D+00 0.19896692D+05 0.19896692D+05 0.19896692D+05 0.12340737D+01  1  2 11  4  6  1       21 0.277122749816D-05 0.100000000000D+01
0.156461219549D-06 0.000000000000D+00 0.000000000000D+00 0.104322867979D-05 0.000000000000D+00  6 1 2 25 23 2 1 4 0.26416259D-02 0.21784354D+00 0.19896692D+05 0.19896692D+05 0.19896692D+05 0.12340737D+01  1  2 12  5  6  1       21 0.297715982942D-03 0.100000000000D+01
0.156461219549D-06 0.000000000000D+00 0.000000000000D+00 0.104322867979D-05 0.000000000000D+00  6 3 2 25 23 2 3 4 0.26416259D-02 0.21784354D+00 0.19896692D+05 0.19896692D+05 0.19896692D+05 0.12340737D+01  1  2 12  5  6  1       21 0.210799541982D-03 0.100000000000D+01
-.429843758030D-06 0.000000000000D+00 -.293399418519D-07 0.104791867731D-05 0.000000000000D+00  6 1 2 25 23 2 1 4 0.26508265D-02 0.21784354D+00 0.18780825D+05 0.18780825D+05 0.18780825D+05 0.12368446D+01  1  2  5  5  6  1       21 -.820505183182D-03 0.100000000000D+01
-.429843758030D-06 0.000000000000D+00 -.293399418519D-07 0.104791867731D-05 0.000000000000D+00  6 3 2 25 23 2 3 4 0.26508265D-02 0.21784354D+00 0.18780825D+05 0.18780825D+05 0.18780825D+05 0.12368446D+01  1  2  5  5  6  1       21 -.579912021326D-03 0.100000000000D+01
0.209496797050D-08 0.000000000000D+00 0.000000000000D+00 0.104791867731D-05 0.874932240299D-08  6 1 2 25 23 2 1 4 0.26353018D-02 0.21912493D+00 0.19896692D+05 0.19896692D+05 0.19896692D+05 0.12340737D+01  1  2 11  5  6  1       21 0.395936213477D-05 0.100000000000D+01
0.209496797050D-08 0.000000000000D+00 0.000000000000D+00 0.104791867731D-05 0.874932240299D-08  6 3 2 25 23 2 3 4 0.26353018D-02 0.21912493D+00 0.19896692D+05 0.19896692D+05 0.19896692D+05 0.12340737D+01  1  2 11  5  6  1       21 0.280445034158D-05 0.100000000000D+01
0.156461219549D-06 0.000000000000D+00 0.000000000000D+00 0.104322867979D-05 0.000000000000D+00  6 -2 2 25 23 2 -2 4 0.26416259D-02 0.21784354D+00 0.19896692D+05 0.19896692D+05 0.19896692D+05 0.12340737D+01  1  2 12  6  6  1       21 0.275592906027D-03 0.100000000000D+01
-.429843758030D-06 0.000000000000D+00 -.293399418519D-07 0.104791867731D-05 0.000000000000D+00  6 -2 2 25 23 2 -2 4 0.26508265D-02 0.21784354D+00 0.18780825D+05 0.18780825D+05 0.18780825D+05 0.12368446D+01  1  2  5  6  6  1       21 -.759267368917D-03 0.100000000000D+01
0.734574057490D-08 0.000000000000D+00 0.000000000000D+00 0.104791867731D-05 0.666790919893D-07  6 -2 2 25 23 2 -2 4 0.26353018D-02 0.21912493D+00 0.19896692D+05 0.19896692D+05 0.19896692D+05 0.12340737D+01  1  2 11  6  6  1       21 0.128536685641D-04 0.100000000000D+01
0.156461219549D-06 0.000000000000D+00 0.000000000000D+00 0.104322867979D-05 0.000000000000D+00  6 2 2 25 23 2 2 4 0.26416259D-02 0.21784354D+00 0.19896692D+05 0.19896692D+05 0.19896692D+05 0.12340737D+01  1  2 12  7  6  1       21 0.310514648434D-03 0.100000000000D+01
-.429843758030D-06 0.000000000000D+00 -.293399418519D-07 0.104791867731D-05 0.000000000000D+00  6 2 2 25 23 2 2 4 0.26508265D-02 0.21784354D+00 0.18780825D+05 0.18780825D+05 0.18780825D+05 0.12368446D+01  1  2  5  7  6  1       21 -.855923979701D-03 0.100000000000D+01
0.212832491269D-08 0.000000000000D+00 0.000000000000D+00 0.104791867731D-05 0.497975098954D-08  6 2 2 25 23 2 2 4 0.26353018D-02 0.21912493D+00 0.19896692D+05 0.19896692D+05 0.19896692D+05 0.12340737D+01  1  2 11  7  6  1       21 0.419495151232D-05 0.100000000000D+01
0.156461219549D-06 0.000000000000D+00 0.000000000000D+00 0.104322867979D-05 0.000000000000D+00  6 -4 2 25 23 2 -4 4 0.26416259D-02 0.21784354D+00 0.19896692D+05 0.19896692D+05 0.19896692D+05 0.12340737D+01  1  2 12  8  6  1       21 0.190627863408D-03 0.100000000000D+01
-.429843758030D-06 0.000000000000D+00 -.293399418519D-07 0.104791867731D-05 0.000000000000D+00  6 -4 2 25 23 2 -4 4 0.26508265D-02 0.21784354D+00 0.18780825D+05 0.18780825D+05 0.18780825D+05 0.12368446D+01  1  2  5  8  6  1       21 -.524089810965D-03 0.100000000000D+01
0.214679643964D-08 0.000000000000D+00 0.000000000000D+00 0.104791867731D-05 0.896577630231D-08  6 -4 2 25 23 2 -4 4 0.26353018D-02 0.21912493D+00 0.19896692D+05 0.19896692D+05 0.19896692D+05 0.12340737D+01  1  2 11  8  6  1       21 0.259895376892D-05 0.100000000000D+01
0.156461219549D-06 0.000000000000D+00 0.000000000000D+00 0.104322867979D-05 0.000000000000D+00  6 4 2 25 23 2 4 4 0.26416259D-02 0.21784354D+00 0.19896692D+05 0.19896692D+05 0.19896692D+05 0.12340737D+01  1  2 12  9  6  1       21 0.190627863408D-03 0.100000000000D+01
-.429843758030D-06 0.000000000000D+00 -.293399418519D-07 0.104791867731D-05 0.000000000000D+00  6 4 2 25 23 2 4 4 0.26508265D-02 0.21784354D+00 0.18780825D+05 0.18780825D+05 0.18780825D+05 0.12368446D+01  1  2  5  9  6  1       21 -.524089810965D-03 0.100000000000D+01
0.213234788925D-08 0.000000000000D+00 0.000000000000D+00 0.104791867731D-05 0.890543407876D-08  6 4 2 25 23 2 4 4 0.26353018D-02 0.21912493D+00 0.19896692D+05 0.19896692D+05 0.19896692D+05 0.12340737D+01  1  2 11  9  6  1       21 0.258146207116D-05 0.100000000000D+01
  </mgrwgt>
  </event>
  <event>
  6     66 -.38225901E-03 0.62821971E+02 0.75467711E-02 0.11813638E+00
       21 -1    0    0  501  503 0.00000000E+00 0.00000000E+00 0.20483805E+02 0.20497531E+02 0.75000000E+00 0.0000E+00 0.9000E+01
        2 -1    0    0  502    0 0.00000000E+00 0.00000000E+00 -.14662522E+04 0.14662523E+04 0.32000000E+00 0.0000E+00 0.9000E+01
       25  1    1    2    0    0 -.28144361E+02 0.95273596E+02 -.76506399E+03 0.78154787E+03 0.12500000E+03 0.0000E+00 0.9000E+01
       23  1    1    2    0    0 0.15201108E+02 -.34938989E+02 -.35620581E+03 0.36966151E+03 0.91188000E+02 0.0000E+00 0.9000E+01
        2  1    1    2  501    0 0.76860906E+01 -.66385870E+02 -.31866692E+03 0.32559925E+03 0.32000000E+00 0.0000E+00 0.9000E+01
       21  1    1    2  502  503 0.52571620E+01 0.60512622E+01 -.58317093E+01 0.99411699E+01 0.75000000E+00 0.0000E+00 0.9000E+01
#aMCatNLO 2  0  0  1  5 0.80159545D+01 0.00000000D+00  -5  6  0 0.00000000D+00 0.00000000D+00 0.00000000D+00 0.00000000D+00 0.00000000D+00
  <mgrwgt>
 -.3002492510D-01    3    2    0
 0.163922023067229D+03 0.000000000000000D+00 0.000000000000000D+00 0.163922023067229D+03
 0.163922023067229D+03 0.000000000000000D+00 0.000000000000000D+00 -.163922023067229D+03
 0.161605952955175D+03 -.255642242770683D+02 0.982439016994400D+02 -.136414898941757D+02
 0.100273154597970D+03 0.168117481297627D+02 -.330847890534940D+02 0.190319743362474D+02
 0.659649385813134D+02 0.875247614730561D+01 -.651591126459460D+02 -.539048444207175D+01
 0.000000000000000D+00 0.000000000000000D+00 0.000000000000000D+00 0.000000000000000D+00
 0.182237890455786D+03 0.000000000000000D+00 0.000000000000000D+00 0.182237890455786D+03
 0.164850413792660D+03 0.000000000000000D+00 0.000000000000000D+00 -.164850413792660D+03
 0.160250827543507D+03 -.281444151336237D+02 0.952739701000871D+02 -.136414898941757D+02
 0.100644208038289D+03 0.152010778770059D+02 -.349387528669254D+02 0.190319743362474D+02
 0.670469930038343D+02 0.768617526292770D+01 -.663864794831263D+02 -.539048444207175D+01
 0.191462756628149D+02 0.525716199369011D+01 0.605126224996455D+01 0.173874766631260D+02
-.506043260825D-05 0.000000000000D+00 0.000000000000D+00 0.133207853804D-06 0.000000000000D+00  6 21 2 25 23 2 21 4 0.31597646D-02 0.22429799D+00 0.27779454D+05 0.27779454D+05 0.27779454D+05 0.12184193D+01  1  2 13  1  6  1       21 -.119855849481D+00 0.100000000000D+01
-.460917096165D-05 0.000000000000D+00 0.000000000000D+00 0.133207853804D-06 0.000000000000D+00  6 21 2 25 23 2 21 4 0.31897135D-02 0.22429799D+00 0.27779454D+05 0.27779454D+05 0.27779454D+05 0.12184193D+01  1  2 13  1  6  1       21 -.107477713079D+00 0.100000000000D+01
0.838169422672D-05 0.000000000000D+00 0.000000000000D+00 0.133705698737D-06 0.333074962045D-07  6 21 2 25 23 2 21 4 0.31522735D-02 0.22556833D+00 0.27779454D+05 0.27779454D+05 0.27779454D+05 0.12184193D+01  1  2  1  1  6  1       21 0.197308637465D+00 0.100000000000D+01
  </mgrwgt>
  </event>
  <event>
  6     66 -.38225901E-03 0.27963313E+02 0.75467711E-02 0.12045415E+00
       21 -1    0    0  503  502 0.00000000E+00 0.00000000E+00 0.56560180E+02 0.56565152E+02 0.75000000E+00 0.0000E+00 0.9000E+01
        2 -1    0    0  502    0 0.00000000E+00 0.00000000E+00 -.63366237E+03 0.63366245E+03 0.32000000E+00 0.0000E+00 0.9000E+01
       25  1    1    2    0    0 -.47607132E+02 -.61684576E+02 -.36375902E+03 0.39245006E+03 0.12500000E+03 0.0000E+00 0.9000E+01
       23  1    1    2    0    0 0.92835456E+01 0.41441315E+02 -.22281387E+03 0.24446848E+03 0.91188000E+02 0.0000E+00 0.9000E+01
        2  1    1    2  501    0 0.32270054E+02 0.10176359E+02 0.18416106E+02 0.38524927E+02 0.32000000E+00 0.0000E+00 0.9000E+01
       21  1    1    2  503  501 0.60535328E+01 0.10066902E+02 -.89454103E+01 0.14784135E+02 0.75000000E+00 0.0000E+00 0.9000E+01
#aMCatNLO 2  0  0  1  2 0.11746820D+02 0.00000000D+00  -5  6  0 0.00000000D+00 0.00000000D+00 0.00000000D+00 0.00000000D+00 0.00000000D+00
  <mgrwgt>
 -.1563930901D+00    3    2    0
 0.182540244308763D+03 0.000000000000000D+00 0.000000000000000D+00 0.182540244308763D+03
 0.182540244308763D+03 0.000000000000000D+00 0.000000000000000D+00 -.182540244308763D+03
 0.157490074983807D+03 -.449765279218333D+02 -.573098397061606D+02 -.622158977059383D+02
 0.106838967633527D+03 0.110433728181771D+02 0.443679361704080D+02 -.317623018337011D+02
 0.100751446000193D+03 0.339331551036562D+02 0.129419035357525D+02 0.939781995396394D+02
 0.000000000000000D+00 0.000000000000000D+00 0.000000000000000D+00 0.000000000000000D+00
 0.192563253005395D+03 0.000000000000000D+00 0.000000000000000D+00 0.192563253005395D+03
 0.186109233900261D+03 0.000000000000000D+00 0.000000000000000D+00 -.186109233900261D+03
 0.159897638935894D+03 -.476072079735839D+02 -.616846071469831D+02 -.622158977059383D+02
 0.105487721512450D+03 0.928349503748936D+01 0.414412952017899D+02 -.317623018337011D+02
 0.998840619573548D+02 0.322701801197212D+02 0.101764099479710D+02 0.939781995396394D+02
 0.134030644999578D+02 0.605353281637334D+01 0.100669019972222D+02 0.645401910513467D+01
-.127009330079D-04 0.000000000000D+00 0.000000000000D+00 0.115137032912D-05 0.000000000000D+00  6 21 2 25 23 2 21 4 0.87790074D-02 0.95612077D-01 0.21531596D+05 0.21531596D+05 0.21531596D+05 0.12303136D+01  1  2 13  1  6  1       21 -.180766695238D+00 0.100000000000D+01
-.397835066446D-06 0.000000000000D+00 0.000000000000D+00 0.115785045784D-05 0.000000000000D+00  6 21 2 25 23 2 21 4 0.82485534D-02 0.95612077D-01 0.20023074D+05 0.20023074D+05 0.20023074D+05 0.12337709D+01  1  2  8  1  6  1       21 -.637809982787D-02 0.100000000000D+01
0.217567351526D-05 0.000000000000D+00 0.000000000000D+00 0.115785045784D-05 0.733747669877D-07  6 21 2 25 23 2 21 4 0.87014690D-02 0.97481464D-01 0.21531596D+05 0.21531596D+05 0.21531596D+05 0.12303136D+01  1  2  1  1  6  1       21 0.307517049383D-01 0.100000000000D+01
  </mgrwgt>
  </event>
  <event>
  5     66 0.38225901E-03 0.82154145E+02 0.75467711E-02 0.11508825E+00
       21 -1    0    0  501  502 0.00000000E+00 0.00000000E+00 0.11747293E+03 0.11747532E+03 0.75000000E+00 0.0000E+00 0.9000E+01
        2 -1    0    0  502    0 0.00000000E+00 0.00000000E+00 -.14646842E+04 0.14646842E+04 0.32000000E+00 0.0000E+00 0.9000E+01
       25  1    1    2    0    0 0.67592453E+02 0.12503293E+03 -.66363303E+03 0.69009838E+03 0.12500000E+03 0.0000E+00 0.9000E+01
       23  1    1    2    0    0 -.58707124E+02 -.43360713E+02 -.76649141E+03 0.77533929E+03 0.91188000E+02 0.0000E+00 0.9000E+01
        2  1    1    2  501    0 -.88853296E+01 -.81672219E+02 0.82913178E+02 0.11672188E+03 0.32000000E+00 0.0000E+00 0.9000E+01
#aMCatNLO 1  0  0  1  5 0.67521192D+01 0.00000000D+00  -5  6  0 0.00000000D+00 0.00000000D+00 0.00000000D+00 0.00000000D+00 0.00000000D+00
  <mgrwgt>
 0.3299550312D+00   41    2    0
 0.414804369310416D+03 0.000000000000000D+00 0.000000000000000D+00 0.414804369310416D+03
 0.414804369310416D+03 0.000000000000000D+00 0.000000000000000D+00 -.414804369310416D+03
 0.238415851138525D+03 0.675924543102370D+02 0.125032941661716D+03 -.144966001855068D+03
 0.233947181094999D+03 -.587071226563896D+02 -.433607038825939D+02 -.202705094426632D+03
 0.357245706387309D+03 -.888533165384735D+01 -.816722377791223D+02 0.347671096281700D+03
 0.000000000000000D+00 0.000000000000000D+00 0.000000000000000D+00 0.000000000000000D+00
 0.465953772692353D+03 0.000000000000000D+00 0.000000000000000D+00 0.465953772692353D+03
 0.415041000759065D+03 0.000000000000000D+00 0.000000000000000D+00 -.415041000759065D+03
 0.237267911939563D+03 0.666026434713164D+02 0.123369397440976D+03 -.144966001855068D+03
 0.234502535155738D+03 -.596818807680264D+02 -.449989494538403D+02 -.202705094426632D+03
 0.357865768549879D+03 -.103733477348443D+02 -.841731000192357D+02 0.347671096281700D+03
 0.513585578062391D+02 0.345258503155440D+01 0.580265203210028D+01 0.509127719332885D+02
0.440642681509D-05 0.000000000000D+00 0.000000000000D+00 0.131114734705D-05 0.000000000000D+00  6 21 2 25 23 2 21 2 0.18072945D-01 0.22533622D+00 0.37681208D+05 0.37681208D+05 0.37681208D+05 0.12046429D+01  1  2  2  1  6  1       21 0.326300190106D-02 0.100000000000D+01
0.459686572037D-06 0.232533531530D-06 -.889530619182D-08 0.131114734705D-05 0.000000000000D+00  6 21 2 25 23 2 21 4 0.18072945D-01 0.22533622D+00 0.37681208D+05 0.37681208D+05 0.37681208D+05 0.12046429D+01  1  2  3  1  6  1       21 0.493979857331D-03 0.100000000000D+01
0.542175819022D-06 0.000000000000D+00 0.000000000000D+00 0.131114734705D-05 0.000000000000D+00  6 21 2 25 23 2 21 4 0.18072945D-01 0.22533622D+00 0.37681208D+05 0.37681208D+05 0.37681208D+05 0.12046429D+01  1  2 15  1  6  1       21 0.582622921836D-03 0.100000000000D+01
0.588537381359D-03 0.000000000000D+00 0.000000000000D+00 0.130669936916D-05 0.000000000000D+00  6 21 2 25 23 2 21 4 0.20306295D-01 0.22533622D+00 0.39462074D+05 0.39462074D+05 0.39462074D+05 0.12025978D+01  1  2 12  1  6  1       21 0.504635198207D+00 0.100000000000D+01
0.482864095345D-03 0.000000000000D+00 0.000000000000D+00 0.130669936916D-05 0.000000000000D+00  6 21 2 25 23 2 21 4 0.20762935D-01 0.22533622D+00 0.39462074D+05 0.39462074D+05 0.39462074D+05 0.12025978D+01  1  2 12  1  6  1       21 0.397127962337D+00 0.100000000000D+01
-.802157599741D-03 0.000000000000D+00 0.000000000000D+00 0.131114734705D-05 0.000000000000D+00  6 21 2 25 23 2 21 4 0.18072945D-01 0.22533622D+00 0.37681208D+05 0.37681208D+05 0.37681208D+05 0.12046429D+01  1  2  4  1  6  1       21 -.861999720639D+00 0.100000000000D+01
-.128576116305D-02 0.000000000000D+00 -.123100519732D-04 0.131114734705D-05 0.000000000000D+00  6 21 2 25 23 2 21 4 0.20307262D-01 0.22533622D+00 0.37681208D+05 0.37681208D+05 0.37681208D+05 0.12046429D+01  1  2  5  1  6  1       21 -.111230829040D+01 0.100000000000D+01
0.125662922136D-02 0.000000000000D+00 0.119818753684D-04 0.131114734705D-05 0.000000000000D+00  6 21 2 25 23 2 21 4 0.18072945D-01 0.22533622D+00 0.37681208D+05 0.37681208D+05 0.37681208D+05 0.12046429D+01  1  2  6  1  6  1       21 0.135037558469D+01 0.100000000000D+01
0.565107312140D-04 0.000000000000D+00 0.000000000000D+00 0.131114734705D-05 0.362161521856D-06  6 21 2 25 23 2 21 4 0.20301515D-01 0.22546476D+00 0.39462074D+05 0.39462074D+05 0.39462074D+05 0.12025978D+01  1  2 11  1  6  1       21 0.484262999256D-01 0.100000000000D+01
0.171448584685D-04 0.000000000000D+00 0.000000000000D+00 0.130669936916D-05 0.000000000000D+00  6 -1 2 25 23 2 -1 4 0.20306295D-01 0.22533622D+00 0.39462074D+05 0.39462074D+05 0.39462074D+05 0.12025978D+01  1  2 12  4  6  1       21 0.116984830126D-02 0.100000000000D+01
0.171448584685D-04 0.000000000000D+00 0.000000000000D+00 0.130669936916D-05 0.000000000000D+00  6 -3 2 25 23 2 -3 4 0.20306295D-01 0.22533622D+00 0.39462074D+05 0.39462074D+05 0.39462074D+05 0.12025978D+01  1  2 12  4  6  1       21 0.707264079654D-03 0.100000000000D+01
0.170942817854D-04 0.000000000000D+00 0.000000000000D+00 0.130669936916D-05 0.000000000000D+00  6 -1 2 25 23 2 -1 4 0.20762935D-01 0.22533622D+00 0.39462074D+05 0.39462074D+05 0.39462074D+05 0.12025978D+01  1  2 12  4  6  1       21 0.112500375941D-02 0.100000000000D+01
0.170942817854D-04 0.000000000000D+00 0.000000000000D+00 0.130669936916D-05 0.000000000000D+00  6 -3 2 25 23 2 -3 4 0.20762935D-01 0.22533622D+00 0.39462074D+05 0.39462074D+05 0.39462074D+05 0.12025978D+01  1  2 12  4  6  1       21 0.677800828564D-03 0.100000000000D+01
-.372123832646D-04 0.000000000000D+00 -.374348712294D-06 0.131114734705D-05 0.000000000000D+00  6 -1 2 25 23 2 -1 4 0.20307262D-01 0.22533622D+00 0.37681208D+05 0.37681208D+05 0.37681208D+05 0.12046429D+01  1  2  5  4  6  1       21 -.255900435221D-02 0.100000000000D+01
-.372123832646D-04 0.000000000000D+00 -.374348712294D-06 0.131114734705D-05 0.000000000000D+00  6 -3 2 25 23 2 -3 4 0.20307262D-01 0.22533622D+00 0.37681208D+05 0.37681208D+05 0.37681208D+05 0.12046429D+01  1  2  5  4  6  1       21 -.154560023638D-02 0.100000000000D+01
0.252264406299D-05 0.000000000000D+00 0.000000000000D+00 0.131114734705D-05 0.149523467736D-07  6 -1 2 25 23 2 -1 4 0.20301515D-01 0.22546476D+00 0.39462074D+05 0.39462074D+05 0.39462074D+05 0.12025978D+01  1  2 11  4  6  1       21 0.172017666981D-03 0.100000000000D+01
0.252264406299D-05 0.000000000000D+00 0.000000000000D+00 0.131114734705D-05 0.149523467736D-07  6 -3 2 25 23 2 -3 4 0.20301515D-01 0.22546476D+00 0.39462074D+05 0.39462074D+05 0.39462074D+05 0.12025978D+01  1  2 11  4  6  1       21 0.104001830453D-03 0.100000000000D+01
0.171448584685D-04 0.000000000000D+00 0.000000000000D+00 0.130669936916D-05 0.000000000000D+00  6 1 2 25 23 2 1 4 0.20306295D-01 0.22533622D+00 0.39462074D+05 0.39462074D+05 0.39462074D+05 0.12025978D+01  1  2 12  5  6  1       21 0.176783858994D-02 0.100000000000D+01
0.171448584685D-04 0.000000000000D+00 0.000000000000D+00 0.130669936916D-05 0.000000000000D+00  6 3 2 25 23 2 3 4 0.20306295D-01 0.22533622D+00 0.39462074D+05 0.39462074D+05 0.39462074D+05 0.12025978D+01  1  2 12  5  6  1       21 0.707207565564D-03 0.100000000000D+01
0.170942817854D-04 0.000000000000D+00 0.000000000000D+00 0.130669936916D-05 0.000000000000D+00  6 1 2 25 23 2 1 4 0.20762935D-01 0.22533622D+00 0.39462074D+05 0.39462074D+05 0.39462074D+05 0.12025978D+01  1  2 12  5  6  1       21 0.171305267846D-02 0.100000000000D+01
0.170942817854D-04 0.000000000000D+00 0.000000000000D+00 0.130669936916D-05 0.000000000000D+00  6 3 2 25 23 2 3 4 0.20762935D-01 0.22533622D+00 0.39462074D+05 0.39462074D+05 0.39462074D+05 0.12025978D+01  1  2 12  5  6  1       21 0.677749290743D-03 0.100000000000D+01
-.372123832646D-04 0.000000000000D+00 -.374348712294D-06 0.131114734705D-05 0.000000000000D+00  6 1 2 25 23 2 1 4 0.20307262D-01 0.22533622D+00 0.37681208D+05 0.37681208D+05 0.37681208D+05 0.12046429D+01  1  2  5  5  6  1       21 -.386723215760D-02 0.100000000000D+01
-.372123832646D-04 0.000000000000D+00 -.374348712294D-06 0.131114734705D-05 0.000000000000D+00  6 3 2 25 23 2 3 4 0.20307262D-01 0.22533622D+00 0.37681208D+05 0.37681208D+05 0.37681208D+05 0.12046429D+01  1  2  5  5  6  1       21 -.154547565835D-02 0.100000000000D+01
0.251366660941D-05 0.000000000000D+00 0.000000000000D+00 0.131114734705D-05 0.148991351450D-07  6 1 2 25 23 2 1 4 0.20301515D-01 0.22546476D+00 0.39462074D+05 0.39462074D+05 0.39462074D+05 0.12025978D+01  1  2 11  5  6  1       21 0.259001989086D-03 0.100000000000D+01
0.251366660941D-05 0.000000000000D+00 0.000000000000D+00 0.131114734705D-05 0.148991351450D-07  6 3 2 25 23 2 3 4 0.20301515D-01 0.22546476D+00 0.39462074D+05 0.39462074D+05 0.39462074D+05 0.12025978D+01  1  2 11  5  6  1       21 0.103623429358D-03 0.100000000000D+01
0.171448584685D-04 0.000000000000D+00 0.000000000000D+00 0.130669936916D-05 0.000000000000D+00  6 -2 2 25 23 2 -2 4 0.20306295D-01 0.22533622D+00 0.39462074D+05 0.39462074D+05 0.39462074D+05 0.12025978D+01  1  2 12  6  6  1       21 0.106917395787D-02 0.100000000000D+01
0.170942817854D-04 0.000000000000D+00 0.000000000000D+00 0.130669936916D-05 0.000000000000D+00  6 -2 2 25 23 2 -2 4 0.20762935D-01 0.22533622D+00 0.39462074D+05 0.39462074D+05 0.39462074D+05 0.12025978D+01  1  2 12  6  6  1       21 0.102618534647D-02 0.100000000000D+01
-.372123832646D-04 0.000000000000D+00 -.374348712294D-06 0.131114734705D-05 0.000000000000D+00  6 -2 2 25 23 2 -2 4 0.20307262D-01 0.22533622D+00 0.37681208D+05 0.37681208D+05 0.37681208D+05 0.12046429D+01  1  2  5  6  6  1       21 -.233867245149D-02 0.100000000000D+01
0.284819662281D-05 0.000000000000D+00 0.000000000000D+00 0.131114734705D-05 0.180934745375D-07  6 -2 2 25 23 2 -2 4 0.20301515D-01 0.22546476D+00 0.39462074D+05 0.39462074D+05 0.39462074D+05 0.12025978D+01  1  2 11  6  6  1       21 0.177506700256D-03 0.100000000000D+01
0.171448584685D-04 0.000000000000D+00 0.000000000000D+00 0.130669936916D-05 0.000000000000D+00  6 2 2 25 23 2 2 4 0.20306295D-01 0.22533622D+00 0.39462074D+05 0.39462074D+05 0.39462074D+05 0.12025978D+01  1  2 12  7  6  1       21 0.219040677376D-02 0.100000000000D+01
0.170942817854D-04 0.000000000000D+00 0.000000000000D+00 0.130669936916D-05 0.000000000000D+00  6 2 2 25 23 2 2 4 0.20762935D-01 0.22533622D+00 0.39462074D+05 0.39462074D+05 0.39462074D+05 0.12025978D+01  1  2 12  7  6  1       21 0.212930673139D-02 0.100000000000D+01
-.372123832646D-04 0.000000000000D+00 -.374348712294D-06 0.131114734705D-05 0.000000000000D+00  6 2 2 25 23 2 2 4 0.20307262D-01 0.22533622D+00 0.37681208D+05 0.37681208D+05 0.37681208D+05 0.12046429D+01  1  2  5  7  6  1       21 -.479136565566D-02 0.100000000000D+01
0.253465811186D-05 0.000000000000D+00 0.000000000000D+00 0.131114734705D-05 0.758303529186D-08  6 2 2 25 23 2 2 4 0.20301515D-01 0.22546476D+00 0.39462074D+05 0.39462074D+05 0.39462074D+05 0.12025978D+01  1  2 11  7  6  1       21 0.323580521020D-03 0.100000000000D+01
0.171448584685D-04 0.000000000000D+00 0.000000000000D+00 0.130669936916D-05 0.000000000000D+00  6 -4 2 25 23 2 -4 4 0.20306295D-01 0.22533622D+00 0.39462074D+05 0.39462074D+05 0.39462074D+05 0.12025978D+01  1  2 12  8  6  1       21 0.606749502637D-03 0.100000000000D+01
0.170942817854D-04 0.000000000000D+00 0.000000000000D+00 0.130669936916D-05 0.000000000000D+00  6 -4 2 25 23 2 -4 4 0.20762935D-01 0.22533622D+00 0.39462074D+05 0.39462074D+05 0.39462074D+05 0.12025978D+01  1  2 12  8  6  1       21 0.580984961308D-03 0.100000000000D+01
-.372123832646D-04 0.000000000000D+00 -.374348712294D-06 0.131114734705D-05 0.000000000000D+00  6 -4 2 25 23 2 -4 4 0.20307262D-01 0.22533622D+00 0.37681208D+05 0.37681208D+05 0.37681208D+05 0.12046429D+01  1  2  5  8  6  1       21 -.132536664005D-02 0.100000000000D+01
0.254821962147D-05 0.000000000000D+00 0.000000000000D+00 0.131114734705D-05 0.151039395508D-07  6 -4 2 25 23 2 -4 4 0.20301515D-01 0.22546476D+00 0.39462074D+05 0.39462074D+05 0.39462074D+05 0.12025978D+01  1  2 11  8  6  1       21 0.901267155847D-04 0.100000000000D+01
0.171448584685D-04 0.000000000000D+00 0.000000000000D+00 0.130669936916D-05 0.000000000000D+00  6 4 2 25 23 2 4 4 0.20306295D-01 0.22533622D+00 0.39462074D+05 0.39462074D+05 0.39462074D+05 0.12025978D+01  1  2 12  9  6  1       21 0.606749502637D-03 0.100000000000D+01
0.170942817854D-04 0.000000000000D+00 0.000000000000D+00 0.130669936916D-05 0.000000000000D+00  6 4 2 25 23 2 4 4 0.20762935D-01 0.22533622D+00 0.39462074D+05 0.39462074D+05 0.39462074D+05 0.12025978D+01  1  2 12  9  6  1       21 0.580984961308D-03 0.100000000000D+01
-.372123832646D-04 0.000000000000D+00 -.374348712294D-06 0.131114734705D-05 0.000000000000D+00  6 4 2 25 23 2 4 4 0.20307262D-01 0.22533622D+00 0.37681208D+05 0.37681208D+05 0.37681208D+05 0.12046429D+01  1  2  5  9  6  1       21 -.132536664005D-02 0.100000000000D+01
0.255341650807D-05 0.000000000000D+00 0.000000000000D+00 0.131114734705D-05 0.151347428067D-07  6 4 2 25 23 2 4 4 0.20301515D-01 0.22546476D+00 0.39462074D+05 0.39462074D+05 0.39462074D+05 0.12025978D+01  1  2 11  9  6  1       21 0.903105216886D-04 0.100000000000D+01
  </mgrwgt>
  </event>
  <event>
  5     66 0.38225901E-03 0.10985006E+03 0.75467711E-02 0.11293193E+00
       21 -1    0    0  501  502 0.00000000E+00 0.00000000E+00 0.25945405E+02 0.25956243E+02 0.75000000E+00 0.0000E+00 0.9000E+01
        2 -1    0    0  502    0 0.00000000E+00 0.00000000E+00 -.17490692E+04 0.17490693E+04 0.32000000E+00 0.0000E+00 0.9000E+01
       25  1    1    2    0    0 0.41360153E+02 0.48324306E+02 -.53415742E+03 0.55226357E+03 0.12500000E+03 0.0000E+00 0.9000E+01
       23  1    1    2    0    0 -.13307179E+03 0.30820945E+02 -.66698259E+03 0.68690542E+03 0.91188000E+02 0.0000E+00 0.9000E+01
        2  1    1    2  501    0 0.91711638E+02 -.79145251E+02 -.52198381E+03 0.53585651E+03 0.32000000E+00 0.0000E+00 0.9000E+01
#aMCatNLO 1  0  0  2  1 0.26027945D+02 0.00000000D+00  -5  6  0 0.00000000D+00 0.00000000D+00 0.00000000D+00 0.00000000D+00 0.00000000D+00
  <mgrwgt>
 0.1374052339D-01    9    2    0
 0.213049184377647D+03 0.000000000000000D+00 0.000000000000000D+00 0.213049184377647D+03
 0.213049184377647D+03 0.000000000000000D+00 0.000000000000000D+00 -.213049184377647D+03
 0.140489962294524D+03 0.413600479255561D+02 0.483243968328701D+02 0.815650733168342D+01
 0.164236961768905D+03 -.133071913699716D+03 0.308210511783130D+02 -.675910970312962D+00
 0.121371444691864D+03 0.917118657741602D+02 -.791454480111830D+02 -.748059636137045D+01
 0.000000000000000D+00 -.000000000000000D+00 0.000000000000000D+00 -.000000000000000D+00
 0.217291837078889D+03 0.000000000000000D+00 0.000000000000000D+00 0.217291837078889D+03
 0.257487736203330D+03 0.000000000000000D+00 0.000000000000000D+00 -.257487736203330D+03
 0.143219883603487D+03 0.500154310253995D+02 0.481545751397305D+02 0.815650733168342D+01
 0.156379104949554D+03 -.123290600412440D+03 0.306291383346627D+02 -.675910970312962D+00
 0.127293590200122D+03 0.992981063352290D+02 -.792942927476648D+02 -.748059636137045D+01
 0.478869945290562D+02 -.260229369481881D+02 0.510579273271527D+00 -.401958991244405D+02
0.664899778562D-06 0.000000000000D+00 0.000000000000D+00 0.696167056055D-07 0.000000000000D+00  6 21 2 25 23 2 21 2 0.39924368D-02 0.26908841D+00 0.45290066D+05 0.45290066D+05 0.45290066D+05 0.11965606D+01  1  2  2  2  6  2        2 0.484478873479D-02 0.100000000000D+01
-.576698816169D-07 0.350877252955D-07 -.134224108680D-08 0.696167056055D-07 0.000000000000D+00  6 21 2 25 23 2 21 4 0.39924368D-02 0.26908841D+00 0.45290066D+05 0.45290066D+05 0.45290066D+05 0.11965606D+01  1  2  3  2  6  2        2 -.601640589835D-03 0.100000000000D+01
0.750341825320D-07 0.000000000000D+00 0.000000000000D+00 0.696167056055D-07 0.000000000000D+00  6 21 2 25 23 2 21 4 0.39924368D-02 0.26908841D+00 0.45290066D+05 0.45290066D+05 0.45290066D+05 0.11965606D+01  1  2 15  2  6  2        2 0.782793523597D-03 0.100000000000D+01
0.675097642545D-05 0.000000000000D+00 0.000000000000D+00 0.690034311525D-07 0.000000000000D+00  6 21 2 25 23 2 21 4 0.39924368D-02 0.32751979D+00 0.51181511D+05 0.51181511D+05 0.51181511D+05 0.11912785D+01  1  2 12  2  6  2        2 0.436859611654D-01 0.100000000000D+01
-.692273904188D-05 0.000000000000D+00 0.000000000000D+00 0.696167056055D-07 0.000000000000D+00  6 21 2 25 23 2 21 4 0.39924368D-02 0.26908841D+00 0.45290066D+05 0.45290066D+05 0.45290066D+05 0.11965606D+01  1  2  4  2  6  2        2 -.722214210200D-01 0.100000000000D+01
-.959603238413D-05 0.000000000000D+00 -.121885473365D-05 0.696167056055D-07 0.000000000000D+00  6 21 2 25 23 2 21 4 0.39924368D-02 0.32739114D+00 0.45290066D+05 0.45290066D+05 0.45290066D+05 0.11965606D+01  1  2  5  2  6  2        2 -.635126589547D-01 0.100000000000D+01
0.967155111419D-05 0.000000000000D+00 0.119578519042D-05 0.696167056055D-07 0.000000000000D+00  6 21 2 25 23 2 21 4 0.39924368D-02 0.26908841D+00 0.45290066D+05 0.45290066D+05 0.45290066D+05 0.11965606D+01  1  2  6  2  6  2        2 0.100898381509D+00 0.100000000000D+01
0.190595157691D-06 0.000000000000D+00 0.000000000000D+00 0.690034311525D-07 0.000000000000D+00  6 21 21 25 23 2 -2 4 0.39924368D-02 0.32751979D+00 0.51181511D+05 0.51181511D+05 0.51181511D+05 0.11912785D+01  1  2 12 10  6  2        2 0.344483881022D-03 0.100000000000D+01
-.256929827203D-06 0.000000000000D+00 -.343580304925D-07 0.696167056055D-07 0.000000000000D+00  6 21 21 25 23 2 -2 4 0.39924368D-02 0.32739114D+00 0.45290066D+05 0.45290066D+05 0.45290066D+05 0.11965606D+01  1  2  5 10  6  2        2 -.480164856644D-03 0.100000000000D+01
  </mgrwgt>
  </event>
  <event>
  5     66 0.38225901E-03 0.11883989E+03 0.75467711E-02 0.11477515E+00
       21 -1    0    0  501  502 0.00000000E+00 0.00000000E+00 0.30845787E+04 0.30845788E+04 0.75000000E+00 0.0000E+00 0.9000E+01
        2 -1    0    0  502    0 0.00000000E+00 0.00000000E+00 -.31807833E+03 0.31807849E+03 0.32000000E+00 0.0000E+00 0.9000E+01
       25  1    1    2    0    0 -.61263833E+02 -.52962377E+02 -.27147595E+03 0.30964894E+03 0.12500000E+03 0.0000E+00 0.9000E+01
       23  1    1    2    0    0 0.18110260E+02 -.68377681E+02 0.10144663E+03 0.15365598E+03 0.91188000E+02 0.0000E+00 0.9000E+01
        2  1    1    2  501    0 0.43153573E+02 0.12134006E+03 0.29365297E+04 0.29393524E+04 0.32000000E+00 0.0000E+00 0.9000E+01
#aMCatNLO 1  0  0  1  2 0.15248593D+02 0.00000000D+00  -5  6  0 0.00000000D+00 0.00000000D+00 0.00000000D+00 0.00000000D+00 0.00000000D+00
  <mgrwgt>
 0.2927489192D-01   23    2    0
 0.990524138998085D+03 0.000000000000000D+00 0.000000000000000D+00 0.990524138998085D+03
 0.990524138998085D+03 0.000000000000000D+00 0.000000000000000D+00 -.990524138998085D+03
 0.910965972304255D+03 -.612638340906894D+02 -.529623798947947D+02 -.898707812164012D+03
 0.122251682744549D+03 0.181102596888992D+02 -.683776814027454D+02 -.403327877769331D+02
 0.947830622947366D+03 0.431535744017902D+02 0.121340061297540D+03 0.939040599940945D+03
 0.000000000000000D+00 -.000000000000000D+00 0.000000000000000D+00 0.000000000000000D+00
 0.100161877792485D+04 0.000000000000000D+00 0.000000000000000D+00 0.100161877792485D+04
 0.995806833288940D+03 0.000000000000000D+00 0.000000000000000D+00 -.995806833288940D+03
 0.911342605570100D+03 -.604426919262871D+02 -.599274067132653D+02 -.898707812164012D+03
 0.122794324647358D+03 0.182206787536674D+02 -.693142692199605D+02 -.403327877769331D+02
 0.946970032903594D+03 0.440073818911185D+02 0.114097963255587D+03 0.939040599940945D+03
 0.163186480927432D+02 -.178536871849879D+01 0.151437126776385D+02 0.581194463591397D+01
0.561338865468D-02 0.000000000000D+00 0.000000000000D+00 0.887915317802D-06 0.000000000000D+00  6 21 2 25 23 2 21 2 0.47455059D+00 0.48935147D-01 0.38638309D+05 0.38638309D+05 0.38638309D+05 0.12035308D+01  1  2  2  1  6  1       21 0.292421128609D-02 0.100000000000D+01
0.100091299330D-02 0.296226657675D-03 -.113318144048D-04 0.887915317802D-06 0.000000000000D+00  6 21 2 25 23 2 21 4 0.47455059D+00 0.48935147D-01 0.38638309D+05 0.38638309D+05 0.38638309D+05 0.12035308D+01  1  2  3  1  6  1       21 0.755256292742D-03 0.100000000000D+01
0.645086607859D-03 0.000000000000D+00 0.000000000000D+00 0.887915317802D-06 0.000000000000D+00  6 21 2 25 23 2 21 4 0.47455059D+00 0.48935147D-01 0.38638309D+05 0.38638309D+05 0.38638309D+05 0.12035308D+01  1  2 15  1  6  1       21 0.486761310137D-03 0.100000000000D+01
0.238773931190D-02 0.000000000000D+00 0.000000000000D+00 0.884127460911D-06 0.000000000000D+00  6 21 2 25 23 2 21 4 0.48112086D+00 0.48935147D-01 0.40955186D+05 0.40955186D+05 0.40955186D+05 0.12009609D+01  1  2 12  1  6  1       21 0.159391328321D-02 0.100000000000D+01
-.948714207903D-03 0.000000000000D+00 0.000000000000D+00 0.887915317802D-06 0.000000000000D+00  6 21 2 25 23 2 21 4 0.47455059D+00 0.48935147D-01 0.38638309D+05 0.38638309D+05 0.38638309D+05 0.12035308D+01  1  2  4  1  6  1       21 -.715868792125D-03 0.100000000000D+01
-.448986719408D+00 0.000000000000D+00 -.708192297026D-01 0.887915317802D-06 0.000000000000D+00  6 21 2 25 23 2 21 4 0.48065199D+00 0.48935147D-01 0.38638309D+05 0.38638309D+05 0.38638309D+05 0.12035308D+01  1  2  5  1  6  1       21 -.307644224456D+00 0.100000000000D+01
0.449745641799D+00 0.000000000000D+00 0.707961185828D-01 0.887915317802D-06 0.000000000000D+00  6 21 2 25 23 2 21 4 0.47455059D+00 0.48935147D-01 0.38638309D+05 0.38638309D+05 0.38638309D+05 0.12035308D+01  1  2  6  1  6  1       21 0.339363389603D+00 0.100000000000D+01
0.203143303658D-03 0.000000000000D+00 0.000000000000D+00 0.884127460911D-06 0.000000000000D+00  6 -1 2 25 23 2 -1 4 0.48112086D+00 0.48935147D-01 0.40955186D+05 0.40955186D+05 0.40955186D+05 0.12009609D+01  1  2 12  4  6  1       21 0.128663442364D-04 0.100000000000D+01
0.203143303658D-03 0.000000000000D+00 0.000000000000D+00 0.884127460911D-06 0.000000000000D+00  6 -3 2 25 23 2 -3 4 0.48112086D+00 0.48935147D-01 0.40955186D+05 0.40955186D+05 0.40955186D+05 0.12009609D+01  1  2 12  4  6  1       21 0.131035040501D-04 0.100000000000D+01
-.109895395906D-02 0.000000000000D+00 -.204909600791D-03 0.887915317802D-06 0.000000000000D+00  6 -1 2 25 23 2 -1 4 0.48065199D+00 0.48935147D-01 0.38638309D+05 0.38638309D+05 0.38638309D+05 0.12035308D+01  1  2  5  4  6  1       21 -.710514455276D-04 0.100000000000D+01
-.109895395906D-02 0.000000000000D+00 -.204909600791D-03 0.887915317802D-06 0.000000000000D+00  6 -3 2 25 23 2 -3 4 0.48065199D+00 0.48935147D-01 0.38638309D+05 0.38638309D+05 0.38638309D+05 0.12035308D+01  1  2  5  4  6  1       21 -.722002465047D-04 0.100000000000D+01
0.203143303658D-03 0.000000000000D+00 0.000000000000D+00 0.884127460911D-06 0.000000000000D+00  6 1 2 25 23 2 1 4 0.48112086D+00 0.48935147D-01 0.40955186D+05 0.40955186D+05 0.40955186D+05 0.12009609D+01  1  2 12  5  6  1       21 0.365750344360D-03 0.100000000000D+01
0.203143303658D-03 0.000000000000D+00 0.000000000000D+00 0.884127460911D-06 0.000000000000D+00  6 3 2 25 23 2 3 4 0.48112086D+00 0.48935147D-01 0.40955186D+05 0.40955186D+05 0.40955186D+05 0.12009609D+01  1  2 12  5  6  1       21 0.144040291508D-04 0.100000000000D+01
-.109895395906D-02 0.000000000000D+00 -.204909600791D-03 0.887915317802D-06 0.000000000000D+00  6 1 2 25 23 2 1 4 0.48065199D+00 0.48935147D-01 0.38638309D+05 0.38638309D+05 0.38638309D+05 0.12035308D+01  1  2  5  5  6  1       21 -.201484500432D-02 0.100000000000D+01
-.109895395906D-02 0.000000000000D+00 -.204909600791D-03 0.887915317802D-06 0.000000000000D+00  6 3 2 25 23 2 3 4 0.48065199D+00 0.48935147D-01 0.38638309D+05 0.38638309D+05 0.38638309D+05 0.12035308D+01  1  2  5  5  6  1       21 -.793259036036D-04 0.100000000000D+01
0.203143303658D-03 0.000000000000D+00 0.000000000000D+00 0.884127460911D-06 0.000000000000D+00  6 -2 2 25 23 2 -2 4 0.48112086D+00 0.48935147D-01 0.40955186D+05 0.40955186D+05 0.40955186D+05 0.12009609D+01  1  2 12  6  6  1       21 0.121905571886D-04 0.100000000000D+01
-.109895395906D-02 0.000000000000D+00 -.204909600791D-03 0.887915317802D-06 0.000000000000D+00  6 -2 2 25 23 2 -2 4 0.48065199D+00 0.48935147D-01 0.38638309D+05 0.38638309D+05 0.38638309D+05 0.12035308D+01  1  2  5  6  6  1       21 -.672896657382D-04 0.100000000000D+01
0.203143303658D-03 0.000000000000D+00 0.000000000000D+00 0.884127460911D-06 0.000000000000D+00  6 2 2 25 23 2 2 4 0.48112086D+00 0.48935147D-01 0.40955186D+05 0.40955186D+05 0.40955186D+05 0.12009609D+01  1  2 12  7  6  1       21 0.123330471337D-02 0.100000000000D+01
-.109895395906D-02 0.000000000000D+00 -.204909600791D-03 0.887915317802D-06 0.000000000000D+00  6 2 2 25 23 2 2 4 0.48065199D+00 0.48935147D-01 0.38638309D+05 0.38638309D+05 0.38638309D+05 0.12035308D+01  1  2  5  7  6  1       21 -.678741396175D-02 0.100000000000D+01
0.203143303658D-03 0.000000000000D+00 0.000000000000D+00 0.884127460911D-06 0.000000000000D+00  6 -4 2 25 23 2 -4 4 0.48112086D+00 0.48935147D-01 0.40955186D+05 0.40955186D+05 0.40955186D+05 0.12009609D+01  1  2 12  8  6  1       21 0.530648167178D-05 0.100000000000D+01
-.109895395906D-02 0.000000000000D+00 -.204909600791D-03 0.887915317802D-06 0.000000000000D+00  6 -4 2 25 23 2 -4 4 0.48065199D+00 0.48935147D-01 0.38638309D+05 0.38638309D+05 0.38638309D+05 0.12035308D+01  1  2  5  8  6  1       21 -.293264190328D-04 0.100000000000D+01
0.203143303658D-03 0.000000000000D+00 0.000000000000D+00 0.884127460911D-06 0.000000000000D+00  6 4 2 25 23 2 4 4 0.48112086D+00 0.48935147D-01 0.40955186D+05 0.40955186D+05 0.40955186D+05 0.12009609D+01  1  2 12  9  6  1       21 0.530648167178D-05 0.100000000000D+01
-.109895395906D-02 0.000000000000D+00 -.204909600791D-03 0.887915317802D-06 0.000000000000D+00  6 4 2 25 23 2 4 4 0.48065199D+00 0.48935147D-01 0.38638309D+05 0.38638309D+05 0.38638309D+05 0.12035308D+01  1  2  5  9  6  1       21 -.293264190328D-04 0.100000000000D+01
  </mgrwgt>
  </event>
  <event>
  6     66 0.38225901E-03 0.32341677E+02 0.75467711E-02 0.11846279E+00
       21 -1    0    0  501  502 0.00000000E+00 0.00000000E+00 0.16842656E+03 0.16842823E+03 0.75000000E+00 0.0000E+00 0.9000E+01
        2 -1    0    0  502    0 -.00000000E+00 -.00000000E+00 -.19441116E+03 0.19441143E+03 0.32000000E+00 0.0000E+00 0.9000E+01
       25  1    1    2    0    0 0.36446711E+01 0.47900525E+02 -.86828594E+02 0.15959934E+03 0.12500000E+03 0.0000E+00 0.9000E+01
       23  1    1    2    0    0 0.30210185E+02 -.81779651E+02 0.44288827E+02 0.13370609E+03 0.91188000E+02 0.0000E+00 0.9000E+01
        2  1    1    2  503    0 -.42394369E+02 0.12530720E+02 0.14077854E+02 0.46396011E+02 0.32000000E+00 0.0000E+00 0.9000E+01
       21  1    1    2  501  503 0.85395127E+01 0.21348405E+02 0.24773147E+01 0.23138221E+02 0.75000000E+00 0.0000E+00 0.9000E+01
#aMCatNLO 2  0  0  5  1 0.21329390D+02 0.00000000D+00  -5  6  0 0.00000000D+00 0.00000000D+00 0.00000000D+00 0.00000000D+00 0.00000000D+00
  <mgrwgt>
 0.4200246203D-01    2    2    0
 0.180954012787930D+03 0.000000000000000D+00 0.000000000000000D+00 0.180954012787930D+03
 0.180954012787930D+03 -.000000000000000D+00 -.000000000000000D+00 -.180954012787930D+03
 0.154116107921955D+03 0.880991413243543D+01 0.427315793110995D+02 -.788870855309672D+02
 0.140022041917167D+03 0.348614093244583D+02 -.864342089590221D+02 0.510365608186281D+02
 0.677698757367367D+02 -.436713234568937D+02 0.437026296479227D+02 0.278505247123391D+02
 0.000000000000000D+00 0.000000000000000D+00 0.000000000000000D+00 0.000000000000000D+00
 0.180954012787930D+03 0.000000000000000D+00 0.000000000000000D+00 0.180954012787930D+03
 0.180954012787930D+03 -.000000000000000D+00 -.000000000000000D+00 -.180954012787930D+03
 0.153775023217201D+03 0.360645382093024D+01 0.479387697711238D+02 -.755686814038678D+02
 0.137210890042794D+03 0.301760825560042D+02 -.817455234708583D+02 0.540245355036411D+02
 0.472544286080923D+02 -.422757482553659D+02 0.121310250440205D+02 0.172794781144446D+02
 0.236676837077725D+02 0.849321187843141D+01 0.216757286557140D+02 0.426466778578210D+01
-.497338933493D-05 0.000000000000D+00 0.000000000000D+00 0.128480501607D-06 0.000000000000D+00  6 21 2 25 23 2 21 4 0.25911928D-01 0.29909558D-01 0.26783873D+05 0.26783873D+05 0.26783873D+05 0.12201014D+01  1  2 13  3  6  5        2 -.338190932578D-01 0.100000000000D+01
0.111502136246D-04 0.000000000000D+00 0.000000000000D+00 0.128644715958D-06 0.348217032880D-08  6 21 2 25 23 2 21 4 0.25911928D-01 0.29909558D-01 0.26783873D+05 0.26783873D+05 0.26783873D+05 0.12201014D+01  1  2  1  3  6  5        2 0.758215552858D-01 0.100000000000D+01
  </mgrwgt>
  </event>
  <event>
  5     66 0.38225901E-03 0.22124611E+02 0.75467711E-02 0.11830043E+00
       21 -1    0    0  501  502 0.00000000E+00 0.00000000E+00 0.11064787E+03 0.11065041E+03 0.75000000E+00 0.0000E+00 0.9000E+01
        2 -1    0    0  502    0 0.00000000E+00 0.00000000E+00 -.54933253E+03 0.54933263E+03 0.32000000E+00 0.0000E+00 0.9000E+01
       25  1    1    2    0    0 -.22797267E+02 -.58861718E+02 -.19600692E+03 0.24089029E+03 0.12500000E+03 0.0000E+00 0.9000E+01
       23  1    1    2    0    0 0.43664361E+02 0.51509047E+02 -.31955090E+03 0.33909849E+03 0.91188000E+02 0.0000E+00 0.9000E+01
        2  1    1    2  501    0 -.20867094E+02 0.73526711E+01 0.76873159E+02 0.79994264E+02 0.32000000E+00 0.0000E+00 0.9000E+01
#aMCatNLO 1  0  0  1  2 0.11445569D+02 0.00000000D+00  -5  6  0 0.00000000D+00 0.00000000D+00 0.00000000D+00 0.00000000D+00 0.00000000D+00
  <mgrwgt>
 0.5934624207D-01   14    2    0
 0.246542787193092D+03 0.000000000000000D+00 0.000000000000000D+00 0.246542787193092D+03
 0.246542787193092D+03 0.000000000000000D+00 0.000000000000000D+00 -.246542787193092D+03
 0.148043853986257D+03 -.227972568939902D+02 -.588617219715536D+02 -.480371259314838D+02
 0.169579515247242D+03 0.436643729599542D+02 0.515090429671589D+02 -.126024607415024D+03
 0.175462205152684D+03 -.208671160659640D+02 0.735267900439471D+01 0.174061733346507D+03
 0.000000000000000D+00 0.000000000000000D+00 0.000000000000000D+00 0.000000000000000D+00
 0.447759575351609D+03 0.000000000000000D+00 0.000000000000000D+00 0.447759575351609D+03
 0.249830049815239D+03 0.000000000000000D+00 0.000000000000000D+00 -.249830049815239D+03
 0.151962423802383D+03 -.354304288898280D+02 -.624875786762510D+02 -.480371259314838D+02
 0.165299791158810D+03 0.295627084652697D+02 0.474617130667750D+02 -.126024607415024D+03
 0.177719753530633D+03 -.357394996132732D+02 0.308414441802086D+01 0.174061733346507D+03
 0.202607656675022D+03 0.416072200378315D+02 0.119417211914552D+02 0.197929525536370D+03
0.616525510355D-05 0.000000000000D+00 0.000000000000D+00 0.631098903550D-05 0.000000000000D+00  6 21 2 25 23 2 21 2 0.17022952D-01 0.84512900D-01 0.18992470D+05 0.18992470D+05 0.18992470D+05 0.12363051D+01  1  2  2  1  6  1       21 0.207196471570D-01 0.100000000000D+01
0.188781619292D-05 0.325349450286D-06 -.124458737653D-07 0.631098903550D-05 0.000000000000D+00  6 21 2 25 23 2 21 4 0.17022952D-01 0.84512900D-01 0.18992470D+05 0.18992470D+05 0.18992470D+05 0.12363051D+01  1  2  3  1  6  1       21 0.969711045973D-02 0.100000000000D+01
0.580555605493D-06 0.000000000000D+00 0.000000000000D+00 0.631098903550D-05 0.000000000000D+00  6 21 2 25 23 2 21 4 0.17022952D-01 0.84512900D-01 0.18992470D+05 0.18992470D+05 0.18992470D+05 0.12363051D+01  1  2 15  1  6  1       21 0.298212922190D-02 0.100000000000D+01
-.322201780004D-04 0.000000000000D+00 0.000000000000D+00 0.631098903550D-05 0.000000000000D+00  6 21 2 25 23 2 21 4 0.17022952D-01 0.84512900D-01 0.18992470D+05 0.18992470D+05 0.18992470D+05 0.12363051D+01  1  2  4  1  6  1       21 -.165504791343D+00 0.100000000000D+01
-.166987210615D-03 0.000000000000D+00 -.770974626848D-05 0.631098903550D-05 0.000000000000D+00  6 21 2 25 23 2 21 4 0.31130298D-01 0.84512900D-01 0.18992470D+05 0.18992470D+05 0.18992470D+05 0.12363051D+01  1  2  5  1  6  1       21 -.275899168435D+00 0.100000000000D+01
0.982482383459D-04 0.000000000000D+00 0.407459792745D-05 0.631098903550D-05 0.000000000000D+00  6 21 2 25 23 2 21 4 0.17022952D-01 0.84512900D-01 0.18992470D+05 0.18992470D+05 0.18992470D+05 0.12363051D+01  1  2  6  1  6  1       21 0.504669905518D+00 0.100000000000D+01
-.321368979519D-04 0.000000000000D+00 -.165405232825D-05 0.631098903550D-05 0.000000000000D+00  6 -1 2 25 23 2 -1 4 0.31130298D-01 0.84512900D-01 0.18992470D+05 0.18992470D+05 0.18992470D+05 0.12363051D+01  1  2  5  4  6  1       21 -.463208084363D-02 0.100000000000D+01
-.321368979519D-04 0.000000000000D+00 -.165405232825D-05 0.631098903550D-05 0.000000000000D+00  6 -3 2 25 23 2 -3 4 0.31130298D-01 0.84512900D-01 0.18992470D+05 0.18992470D+05 0.18992470D+05 0.12363051D+01  1  2  5  4  6  1       21 -.256812476892D-02 0.100000000000D+01
-.321368979519D-04 0.000000000000D+00 -.165405232825D-05 0.631098903550D-05 0.000000000000D+00  6 1 2 25 23 2 1 4 0.31130298D-01 0.84512900D-01 0.18992470D+05 0.18992470D+05 0.18992470D+05 0.12363051D+01  1  2  5  5  6  1       21 -.827381100542D-02 0.100000000000D+01
-.321368979519D-04 0.000000000000D+00 -.165405232825D-05 0.631098903550D-05 0.000000000000D+00  6 3 2 25 23 2 3 4 0.31130298D-01 0.84512900D-01 0.18992470D+05 0.18992470D+05 0.18992470D+05 0.12363051D+01  1  2  5  5  6  1       21 -.256821722855D-02 0.100000000000D+01
-.321368979519D-04 0.000000000000D+00 -.165405232825D-05 0.631098903550D-05 0.000000000000D+00  6 -2 2 25 23 2 -2 4 0.31130298D-01 0.84512900D-01 0.18992470D+05 0.18992470D+05 0.18992470D+05 0.12363051D+01  1  2  5  6  6  1       21 -.404619133079D-02 0.100000000000D+01
-.321368979519D-04 0.000000000000D+00 -.165405232825D-05 0.631098903550D-05 0.000000000000D+00  6 2 2 25 23 2 2 4 0.31130298D-01 0.84512900D-01 0.18992470D+05 0.18992470D+05 0.18992470D+05 0.12363051D+01  1  2  5  7  6  1       21 -.109302463046D-01 0.100000000000D+01
-.321368979519D-04 0.000000000000D+00 -.165405232825D-05 0.631098903550D-05 0.000000000000D+00  6 -4 2 25 23 2 -4 4 0.31130298D-01 0.84512900D-01 0.18992470D+05 0.18992470D+05 0.18992470D+05 0.12363051D+01  1  2  5  8  6  1       21 -.214995951420D-02 0.100000000000D+01
-.321368979519D-04 0.000000000000D+00 -.165405232825D-05 0.631098903550D-05 0.000000000000D+00  6 4 2 25 23 2 4 4 0.31130298D-01 0.84512900D-01 0.18992470D+05 0.18992470D+05 0.18992470D+05 0.12363051D+01  1  2  5  9  6  1       21 -.214995951420D-02 0.100000000000D+01
  </mgrwgt>
  </event>
  <event>
  5     66 0.38225901E-03 0.74751199E+02 0.75467711E-02 0.11550180E+00
       21 -1    0    0  501  502 0.00000000E+00 0.00000000E+00 0.45452285E+02 0.45458472E+02 0.75000000E+00 0.0000E+00 0.9000E+01
        2 -1    0    0  502    0 -.00000000E+00 -.00000000E+00 -.10715566E+04 0.10715566E+04 0.32000000E+00 0.0000E+00 0.9000E+01
       25  1    1    2    0    0 -.49417007E+02 0.10275822E+02 -.54552181E+03 0.56193120E+03 0.12500000E+03 0.0000E+00 0.9000E+01
       23  1    1    2    0    0 -.19276683E+02 -.10201767E+03 -.37346535E+03 0.39820951E+03 0.91188000E+02 0.0000E+00 0.9000E+01
        2  1    1    2  501    0 0.68693691E+02 0.91741848E+02 -.10711714E+03 0.15687439E+03 0.32000000E+00 0.0000E+00 0.9000E+01
#aMCatNLO 1  0  0  5  1 0.57229455D+01 0.00000000D+00  -5  6  0 0.00000000D+00 0.00000000D+00 0.00000000D+00 0.00000000D+00 0.00000000D+00
  <mgrwgt>
 0.2102885655D-01    8    2    0
 0.220699291511600D+03 0.000000000000000D+00 0.000000000000000D+00 0.220699291511600D+03
 0.220699291511600D+03 -.000000000000000D+00 -.000000000000000D+00 -.220699291511600D+03
 0.153882210790493D+03 -.494170632945768D+02 0.102757473705007D+02 -.742098219179057D+02
 0.139537525766070D+03 -.192767341693945D+02 -.102017738212527D+03 -.193973803045546D+02
 0.147978846466636D+03 0.686937974639714D+02 0.917419908420261D+02 0.936072022224604D+02
 0.000000000000000D+00 0.000000000000000D+00 0.000000000000000D+00 0.000000000000000D+00
 0.220699291511600D+03 0.000000000000000D+00 0.000000000000000D+00 0.220699291511600D+03
 0.220699291511600D+03 -.000000000000000D+00 -.000000000000000D+00 -.220699291511600D+03
 0.153799100331842D+03 -.493234633469611D+02 0.104007520412859D+02 -.740822757703941D+02
 0.139426939745610D+03 -.191918701935382D+02 -.101904400613162D+03 -.192817384323237D+02
 0.109772781781389D+03 0.458272994954502D+02 0.695971345688022D+02 0.714574075991488D+02
 0.383997611643575D+02 0.226880340450491D+02 0.219065140030736D+02 0.219066066035690D+02
0.398625682978D-06 0.000000000000D+00 0.000000000000D+00 0.182663880762D-06 0.000000000000D+00  6 21 2 25 23 2 21 2 0.69931388D-02 0.16485534D+00 0.37558158D+05 0.37558158D+05 0.37558158D+05 0.12047882D+01  1  2  2  3  6  5        2 0.265288093802D-02 0.100000000000D+01
-.171512644106D-07 0.210360552237D-07 -.804710404782D-09 0.182663880762D-06 0.000000000000D+00  6 21 2 25 23 2 21 4 0.69931388D-02 0.16485534D+00 0.37558158D+05 0.37558158D+05 0.37558158D+05 0.12047882D+01  1  2  3  3  6  5        2 -.165679973386D-03 0.100000000000D+01
0.399926781975D-07 0.000000000000D+00 0.000000000000D+00 0.182663880762D-06 0.000000000000D+00  6 21 2 25 23 2 21 4 0.69931388D-02 0.16485534D+00 0.37558158D+05 0.37558158D+05 0.37558158D+05 0.12047882D+01  1  2 15  3  6  5        2 0.386326378091D-03 0.100000000000D+01
0.783353722462D-05 0.000000000000D+00 0.000000000000D+00 0.182654294992D-06 0.000000000000D+00  6 21 2 25 23 2 21 4 0.69931388D-02 0.16485534D+00 0.37584899D+05 0.37584899D+05 0.37584899D+05 0.12047566D+01  1  2 12  3  6  5        2 0.756626684579D-01 0.100000000000D+01
-.123528446359D-04 0.000000000000D+00 0.000000000000D+00 0.182663880762D-06 0.000000000000D+00  6 21 2 25 23 2 21 4 0.69931388D-02 0.16485534D+00 0.37558158D+05 0.37558158D+05 0.37558158D+05 0.12047882D+01  1  2  4  3  6  5        2 -.119327585508D+00 0.100000000000D+01
-.114126290332D-04 0.000000000000D+00 0.000000000000D+00 0.182663880762D-06 0.000000000000D+00  6 21 2 25 23 2 21 4 0.69931388D-02 0.16485534D+00 0.37558158D+05 0.37558158D+05 0.37558158D+05 0.12047882D+01  1  2  5  3  6  5        2 -.110245170807D+00 0.100000000000D+01
0.147416870986D-04 0.000000000000D+00 -.000000000000D+00 0.182663880762D-06 0.000000000000D+00  6 21 2 25 23 2 21 4 0.69931388D-02 0.16485534D+00 0.37558158D+05 0.37558158D+05 0.37558158D+05 0.12047882D+01  1  2  6  3  6  5        2 0.142403630875D+00 0.100000000000D+01
0.307095574357D-05 0.000000000000D+00 0.000000000000D+00 0.182663880762D-06 0.214712341702D-07  6 21 2 25 23 2 21 4 0.69931388D-02 0.16485534D+00 0.37584899D+05 0.37584899D+05 0.37584899D+05 0.12047566D+01  1  2 11  3  6  5        2 0.296617861908D-01 0.100000000000D+01
  </mgrwgt>
  </event>
  <event>
  5     66 0.38225901E-03 0.69125826E+02 0.75467711E-02 0.11766970E+00
       21 -1    0    0  501  502 0.00000000E+00 0.00000000E+00 0.28227035E+02 0.28236997E+02 0.75000000E+00 0.0000E+00 0.9000E+01
        2 -1    0    0  502    0 0.00000000E+00 0.00000000E+00 -.18209847E+04 0.18209848E+04 0.32000000E+00 0.0000E+00 0.9000E+01
       25  1    1    2    0    0 0.14226157E+02 0.23910118E+02 -.11499453E+04 0.11570537E+04 0.12500000E+03 0.0000E+00 0.9000E+01
       23  1    1    2    0    0 0.26515627E+02 0.51171164E+02 -.56941496E+03 0.57954311E+03 0.91188000E+02 0.0000E+00 0.9000E+01
        2  1    1    2  501    0 -.40741784E+02 -.75081282E+02 -.73397428E+02 0.11262494E+03 0.32000000E+00 0.0000E+00 0.9000E+01
#aMCatNLO 1  0  0  1  2 0.20054061D+02 0.00000000D+00  -5  6  0 0.00000000D+00 0.00000000D+00 0.00000000D+00 0.00000000D+00 0.00000000D+00
  <mgrwgt>
 0.3421676067D-01   23    2    0
 0.226738257662152D+03 0.000000000000000D+00 0.000000000000000D+00 0.226738257662152D+03
 0.226738257662152D+03 0.000000000000000D+00 0.000000000000000D+00 -.226738257662152D+03
 0.172171272462367D+03 0.142261847375835D+02 0.239101694140447D+02 -.115081999147193D+03
 0.112201378708652D+03 0.265156448110195D+02 0.511711968330076D+02 -.308597996600072D+02
 0.169103864153285D+03 -.407418295486030D+02 -.750813662470523D+02 0.145941798807200D+03
 0.000000000000000D+00 -.000000000000000D+00 0.000000000000000D+00 0.000000000000000D+00
 0.238311902368289D+03 0.000000000000000D+00 0.000000000000000D+00 0.238311902368289D+03
 0.235816537611057D+03 0.000000000000000D+00 0.000000000000000D+00 -.235816537611057D+03
 0.172339456312817D+03 0.207692166960551D+02 0.200165259801754D+02 -.115081999147193D+03
 0.112161480857285D+03 0.307767990736259D+02 0.486354587500200D+02 -.308597996600072D+02
 0.169418786271717D+03 -.343125246376296D+02 -.789073327118107D+02 0.145941798807200D+03
 0.202087165375278D+02 -.172334911320515D+02 0.102553479816153D+02 0.249536475723151D+01
0.945767924751D-06 0.000000000000D+00 0.000000000000D+00 0.633414075874D-06 0.000000000000D+00  6 21 2 25 23 2 21 2 0.43433893D-02 0.28015227D+00 0.25817438D+05 0.25817438D+05 0.25817438D+05 0.12218024D+01  1  2  2  1  6  1       21 0.579341090417D-02 0.100000000000D+01
0.164700416117D-08 0.499095445764D-07 -.190923295226D-08 0.633414075874D-06 0.000000000000D+00  6 21 2 25 23 2 21 4 0.43433893D-02 0.28015227D+00 0.25817438D+05 0.25817438D+05 0.25817438D+05 0.12218024D+01  1  2  3  1  6  1       21 0.150607424428D-04 0.100000000000D+01
0.919956251283D-07 0.000000000000D+00 0.000000000000D+00 0.633414075874D-06 0.000000000000D+00  6 21 2 25 23 2 21 4 0.43433893D-02 0.28015227D+00 0.25817438D+05 0.25817438D+05 0.25817438D+05 0.12218024D+01  1  2 15  1  6  1       21 0.841237957126D-03 0.100000000000D+01
0.220005376931D-05 0.000000000000D+00 0.000000000000D+00 0.627422807755D-06 0.000000000000D+00  6 21 2 25 23 2 21 4 0.46481173D-02 0.28015227D+00 0.29278023D+05 0.29278023D+05 0.29278023D+05 0.12160103D+01  1  2 12  1  6  1       21 0.175648526068D-01 0.100000000000D+01
-.970253650763D-06 0.000000000000D+00 0.000000000000D+00 0.633414075874D-06 0.000000000000D+00  6 21 2 25 23 2 21 4 0.43433893D-02 0.28015227D+00 0.25817438D+05 0.25817438D+05 0.25817438D+05 0.12218024D+01  1  2  4  1  6  1       21 -.887231537287D-02 0.100000000000D+01
-.143999897149D-04 0.000000000000D+00 -.322449291325D-05 0.633414075874D-06 0.000000000000D+00  6 21 2 25 23 2 21 4 0.47760608D-02 0.28015227D+00 0.25817438D+05 0.25817438D+05 0.25817438D+05 0.12218024D+01  1  2  5  1  6  1       21 -.112254205215D+00 0.100000000000D+01
0.144260660939D-04 0.000000000000D+00 0.316707316918D-05 0.633414075874D-06 0.000000000000D+00  6 21 2 25 23 2 21 4 0.43433893D-02 0.28015227D+00 0.25817438D+05 0.25817438D+05 0.25817438D+05 0.12218024D+01  1  2  6  1  6  1       21 0.131916646615D+00 0.100000000000D+01
0.376317947865D-07 0.000000000000D+00 0.000000000000D+00 0.627422807755D-06 0.000000000000D+00  6 -1 2 25 23 2 -1 4 0.46481173D-02 0.28015227D+00 0.29278023D+05 0.29278023D+05 0.29278023D+05 0.12160103D+01  1  2 12  4  6  1       21 0.170485580584D-04 0.100000000000D+01
0.376317947865D-07 0.000000000000D+00 0.000000000000D+00 0.627422807755D-06 0.000000000000D+00  6 -3 2 25 23 2 -3 4 0.46481173D-02 0.28015227D+00 0.29278023D+05 0.29278023D+05 0.29278023D+05 0.12160103D+01  1  2 12  4  6  1       21 0.123259579222D-04 0.100000000000D+01
-.291160430322D-06 0.000000000000D+00 -.777259135754D-07 0.633414075874D-06 0.000000000000D+00  6 -1 2 25 23 2 -1 4 0.47760608D-02 0.28015227D+00 0.25817438D+05 0.25817438D+05 0.25817438D+05 0.12218024D+01  1  2  5  4  6  1       21 -.129200362601D-03 0.100000000000D+01
-.291160430322D-06 0.000000000000D+00 -.777259135754D-07 0.633414075874D-06 0.000000000000D+00  6 -3 2 25 23 2 -3 4 0.47760608D-02 0.28015227D+00 0.25817438D+05 0.25817438D+05 0.25817438D+05 0.12218024D+01  1  2  5  4  6  1       21 -.929136108847D-04 0.100000000000D+01
0.376317947865D-07 0.000000000000D+00 0.000000000000D+00 0.627422807755D-06 0.000000000000D+00  6 1 2 25 23 2 1 4 0.46481173D-02 0.28015227D+00 0.29278023D+05 0.29278023D+05 0.29278023D+05 0.12160103D+01  1  2 12  5  6  1       21 0.190522805535D-04 0.100000000000D+01
0.376317947865D-07 0.000000000000D+00 0.000000000000D+00 0.627422807755D-06 0.000000000000D+00  6 3 2 25 23 2 3 4 0.46481173D-02 0.28015227D+00 0.29278023D+05 0.29278023D+05 0.29278023D+05 0.12160103D+01  1  2 12  5  6  1       21 0.123248218763D-04 0.100000000000D+01
-.291160430322D-06 0.000000000000D+00 -.777259135754D-07 0.633414075874D-06 0.000000000000D+00  6 1 2 25 23 2 1 4 0.47760608D-02 0.28015227D+00 0.25817438D+05 0.25817438D+05 0.25817438D+05 0.12218024D+01  1  2  5  5  6  1       21 -.144830379839D-03 0.100000000000D+01
-.291160430322D-06 0.000000000000D+00 -.777259135754D-07 0.633414075874D-06 0.000000000000D+00  6 3 2 25 23 2 3 4 0.47760608D-02 0.28015227D+00 0.25817438D+05 0.25817438D+05 0.25817438D+05 0.12218024D+01  1  2  5  5  6  1       21 -.929048377617D-04 0.100000000000D+01
0.376317947865D-07 0.000000000000D+00 0.000000000000D+00 0.627422807755D-06 0.000000000000D+00  6 -2 2 25 23 2 -2 4 0.46481173D-02 0.28015227D+00 0.29278023D+05 0.29278023D+05 0.29278023D+05 0.12160103D+01  1  2 12  6  6  1       21 0.166946843562D-04 0.100000000000D+01
-.291160430322D-06 0.000000000000D+00 -.777259135754D-07 0.633414075874D-06 0.000000000000D+00  6 -2 2 25 23 2 -2 4 0.47760608D-02 0.28015227D+00 0.25817438D+05 0.25817438D+05 0.25817438D+05 0.12218024D+01  1  2  5  6  6  1       21 -.126441376069D-03 0.100000000000D+01
0.376317947865D-07 0.000000000000D+00 0.000000000000D+00 0.627422807755D-06 0.000000000000D+00  6 2 2 25 23 2 2 4 0.46481173D-02 0.28015227D+00 0.29278023D+05 0.29278023D+05 0.29278023D+05 0.12160103D+01  1  2 12  7  6  1       21 0.204021345111D-04 0.100000000000D+01
-.291160430322D-06 0.000000000000D+00 -.777259135754D-07 0.633414075874D-06 0.000000000000D+00  6 2 2 25 23 2 2 4 0.47760608D-02 0.28015227D+00 0.25817438D+05 0.25817438D+05 0.25817438D+05 0.12218024D+01  1  2  5  7  6  1       21 -.155350209764D-03 0.100000000000D+01
0.376317947865D-07 0.000000000000D+00 0.000000000000D+00 0.627422807755D-06 0.000000000000D+00  6 -4 2 25 23 2 -4 4 0.46481173D-02 0.28015227D+00 0.29278023D+05 0.29278023D+05 0.29278023D+05 0.12160103D+01  1  2 12  8  6  1       21 0.110461771766D-04 0.100000000000D+01
-.291160430322D-06 0.000000000000D+00 -.777259135754D-07 0.633414075874D-06 0.000000000000D+00  6 -4 2 25 23 2 -4 4 0.47760608D-02 0.28015227D+00 0.25817438D+05 0.25817438D+05 0.25817438D+05 0.12218024D+01  1  2  5  8  6  1       21 -.831137886343D-04 0.100000000000D+01
0.376317947865D-07 0.000000000000D+00 0.000000000000D+00 0.627422807755D-06 0.000000000000D+00  6 4 2 25 23 2 4 4 0.46481173D-02 0.28015227D+00 0.29278023D+05 0.29278023D+05 0.29278023D+05 0.12160103D+01  1  2 12  9  6  1       21 0.110461771766D-04 0.100000000000D+01
-.291160430322D-06 0.000000000000D+00 -.777259135754D-07 0.633414075874D-06 0.000000000000D+00  6 4 2 25 23 2 4 4 0.47760608D-02 0.28015227D+00 0.25817438D+05 0.25817438D+05 0.25817438D+05 0.12218024D+01  1  2  5  9  6  1       21 -.831137886343D-04 0.100000000000D+01
  </mgrwgt>
  </event>
  <event>
  5     66 0.38225901E-03 0.30893633E+02 0.75467711E-02 0.11500379E+00
       21 -1    0    0  501  502 0.00000000E+00 0.00000000E+00 0.49171751E+02 0.49177470E+02 0.75000000E+00 0.0000E+00 0.9000E+01
        2 -1    0    0  502    0 0.00000000E+00 0.00000000E+00 -.81797964E+03 0.81797971E+03 0.32000000E+00 0.0000E+00 0.9000E+01
       25  1    1    2    0    0 -.10759380E+03 -.12185362E+03 -.39606482E+03 0.44600120E+03 0.12500000E+03 0.0000E+00 0.9000E+01
       23  1    1    2    0    0 0.81485893E+02 0.10533950E+03 -.27748421E+03 0.32101262E+03 0.91188000E+02 0.0000E+00 0.9000E+01
        2  1    1    2  501    0 0.26107906E+02 0.16514116E+02 -.95258859E+02 0.10014335E+03 0.32000000E+00 0.0000E+00 0.9000E+01
#aMCatNLO 1  0  0  1  1 0.19341101D+01 0.00000000D+00  -5  6  0 0.00000000D+00 0.00000000D+00 0.00000000D+00 0.00000000D+00 0.00000000D+00
  <mgrwgt>
 0.1406416234D+00   21    2    0
 0.200559213522600D+03 0.000000000000000D+00 0.000000000000000D+00 0.200559213522600D+03
 0.200559213522600D+03 0.000000000000000D+00 0.000000000000000D+00 -.200559213522600D+03
 0.205065615244774D+03 -.107594392917952D+03 -.121853996919053D+03 -.139878632615303D+01
 0.162137106102296D+03 0.814854228512106D+02 0.105339207788148D+03 0.153937323788525D+02
 0.339157056981310D+02 0.261089700667416D+02 0.165147891309050D+02 -.139949460526995D+02
 0.000000000000000D+00 0.000000000000000D+00 -.000000000000000D+00 -.000000000000000D+00
 0.201432956392875D+03 0.000000000000000D+00 0.000000000000000D+00 0.201432956392875D+03
 0.201634741253264D+03 0.000000000000000D+00 0.000000000000000D+00 -.201634741253264D+03
 0.205152814807601D+03 -.108402223769549D+03 -.121283464256725D+03 -.139878632615303D+01
 0.162111069136022D+03 0.808468906441179D+02 0.105790172837794D+03 0.153937323788525D+02
 0.338592060139965D+02 0.259755029657186D+02 0.166090506218216D+02 -.139949460526995D+02
 0.194460768852078D+01 0.157983015971232D+01 -.111575920289069D+01 -.201784860389016D+00
0.143663669215D-04 0.000000000000D+00 0.000000000000D+00 0.989486062766D-07 0.000000000000D+00  6 21 2 25 23 2 21 2 0.75653295D-02 0.12584347D+00 0.39473577D+05 0.39473577D+05 0.39473577D+05 0.12025850D+01  1  2  2  1  6  1       21 0.119804874652D+00 0.100000000000D+01
0.348741908278D-06 0.758134011004D-06 -.290015556807D-07 0.989486062766D-07 0.000000000000D+00  6 21 2 25 23 2 21 4 0.75653295D-02 0.12584347D+00 0.39473577D+05 0.39473577D+05 0.39473577D+05 0.12025850D+01  1  2  3  1  6  1       21 0.420594137011D-02 0.100000000000D+01
0.141526559210D-05 0.000000000000D+00 0.000000000000D+00 0.989486062766D-07 0.000000000000D+00  6 21 2 25 23 2 21 4 0.75653295D-02 0.12584347D+00 0.39473577D+05 0.39473577D+05 0.39473577D+05 0.12025850D+01  1  2 15  1  6  1       21 0.170685654984D-01 0.100000000000D+01
-.238596746895D-04 0.000000000000D+00 0.000000000000D+00 0.989486062766D-07 0.000000000000D+00  6 21 2 25 23 2 21 4 0.75653295D-02 0.12584347D+00 0.39473577D+05 0.39473577D+05 0.39473577D+05 0.12025850D+01  1  2  4  1  6  1       21 -.287755473237D+00 0.100000000000D+01
0.233510435169D-04 0.000000000000D+00 0.000000000000D+00 0.989486062766D-07 0.443611713652D-06  6 21 2 25 23 2 21 4 0.75982881D-02 0.12651832D+00 0.39858583D+05 0.39858583D+05 0.39858583D+05 0.12021565D+01  1  2 11  1  6  1       21 0.277182609296D+00 0.100000000000D+01
0.435385706096D-09 0.000000000000D+00 0.000000000000D+00 0.988781088646D-07 0.000000000000D+00  6 -1 2 25 23 2 -1 4 0.76184750D-02 0.12584347D+00 0.39858583D+05 0.39858583D+05 0.39858583D+05 0.12021565D+01  1  2 12  4  6  1       21 0.327789357633D-06 0.100000000000D+01
0.435385706096D-09 0.000000000000D+00 0.000000000000D+00 0.988781088646D-07 0.000000000000D+00  6 -3 2 25 23 2 -3 4 0.76184750D-02 0.12584347D+00 0.39858583D+05 0.39858583D+05 0.39858583D+05 0.12021565D+01  1  2 12  4  6  1       21 0.226203940019D-06 0.100000000000D+01
0.871349621821D-06 0.000000000000D+00 0.000000000000D+00 0.988781088646D-07 0.460315710108D-09  6 -1 2 25 23 2 -1 4 0.75982881D-02 0.12651832D+00 0.39858583D+05 0.39858583D+05 0.39858583D+05 0.12021565D+01  1  2 11  4  6  1       21 0.654183376052D-03 0.100000000000D+01
0.871349621821D-06 0.000000000000D+00 0.000000000000D+00 0.988781088646D-07 0.460315710108D-09  6 -3 2 25 23 2 -3 4 0.75982881D-02 0.12651832D+00 0.39858583D+05 0.39858583D+05 0.39858583D+05 0.12021565D+01  1  2 11  4  6  1       21 0.451582857931D-03 0.100000000000D+01
0.435385706096D-09 0.000000000000D+00 0.000000000000D+00 0.988781088646D-07 0.000000000000D+00  6 1 2 25 23 2 1 4 0.76184750D-02 0.12584347D+00 0.39858583D+05 0.39858583D+05 0.39858583D+05 0.12021565D+01  1  2 12  5  6  1       21 0.390740332859D-06 0.100000000000D+01
0.435385706096D-09 0.000000000000D+00 0.000000000000D+00 0.988781088646D-07 0.000000000000D+00  6 3 2 25 23 2 3 4 0.76184750D-02 0.12584347D+00 0.39858583D+05 0.39858583D+05 0.39858583D+05 0.12021565D+01  1  2 12  5  6  1       21 0.226178749755D-06 0.100000000000D+01
0.843031543141D-06 0.000000000000D+00 0.000000000000D+00 0.988781088646D-07 0.445355863716D-09  6 1 2 25 23 2 1 4 0.75982881D-02 0.12651832D+00 0.39858583D+05 0.39858583D+05 0.39858583D+05 0.12021565D+01  1  2 11  5  6  1       21 0.754152091955D-03 0.100000000000D+01
0.843031543141D-06 0.000000000000D+00 0.000000000000D+00 0.988781088646D-07 0.445355863716D-09  6 3 2 25 23 2 3 4 0.75982881D-02 0.12651832D+00 0.39858583D+05 0.39858583D+05 0.39858583D+05 0.12021565D+01  1  2 11  5  6  1       21 0.436858208866D-03 0.100000000000D+01
0.435385706096D-09 0.000000000000D+00 0.000000000000D+00 0.988781088646D-07 0.000000000000D+00  6 -2 2 25 23 2 -2 4 0.76184750D-02 0.12584347D+00 0.39858583D+05 0.39858583D+05 0.39858583D+05 0.12021565D+01  1  2 12  6  6  1       21 0.316829011425D-06 0.100000000000D+01
0.838303102063D-05 0.000000000000D+00 0.000000000000D+00 0.988781088646D-07 0.153531173262D-06  6 -2 2 25 23 2 -2 4 0.75982881D-02 0.12651832D+00 0.39858583D+05 0.39858583D+05 0.39858583D+05 0.12021565D+01  1  2 11  6  6  1       21 0.608383161275D-02 0.100000000000D+01
0.435385706096D-09 0.000000000000D+00 0.000000000000D+00 0.988781088646D-07 0.000000000000D+00  6 2 2 25 23 2 2 4 0.76184750D-02 0.12584347D+00 0.39858583D+05 0.39858583D+05 0.39858583D+05 0.12021565D+01  1  2 12  7  6  1       21 0.433205402511D-06 0.100000000000D+01
0.108805436747D-05 0.000000000000D+00 0.000000000000D+00 0.988781088646D-07 0.668808565602D-09  6 2 2 25 23 2 2 4 0.75982881D-02 0.12651832D+00 0.39858583D+05 0.39858583D+05 0.39858583D+05 0.12021565D+01  1  2 11  7  6  1       21 0.107888437952D-02 0.100000000000D+01
0.435385706096D-09 0.000000000000D+00 0.000000000000D+00 0.988781088646D-07 0.000000000000D+00  6 -4 2 25 23 2 -4 4 0.76184750D-02 0.12584347D+00 0.39858583D+05 0.39858583D+05 0.39858583D+05 0.12021565D+01  1  2 12  8  6  1       21 0.200580466409D-06 0.100000000000D+01
0.724300336894D-06 0.000000000000D+00 0.000000000000D+00 0.988781088646D-07 0.382632660369D-09  6 -4 2 25 23 2 -4 4 0.75982881D-02 0.12651832D+00 0.39858583D+05 0.39858583D+05 0.39858583D+05 0.12021565D+01  1  2 11  8  6  1       21 0.332878620360D-03 0.100000000000D+01
0.435385706096D-09 0.000000000000D+00 0.000000000000D+00 0.988781088646D-07 0.000000000000D+00  6 4 2 25 23 2 4 4 0.76184750D-02 0.12584347D+00 0.39858583D+05 0.39858583D+05 0.39858583D+05 0.12021565D+01  1  2 12  9  6  1       21 0.200580466409D-06 0.100000000000D+01
0.740693163915D-06 0.000000000000D+00 0.000000000000D+00 0.988781088646D-07 0.391292646696D-09  6 4 2 25 23 2 4 4 0.75982881D-02 0.12651832D+00 0.39858583D+05 0.39858583D+05 0.39858583D+05 0.12021565D+01  1  2 11  9  6  1       21 0.340412541531D-03 0.100000000000D+01
  </mgrwgt>
  </event>
  <event>
  6     66 0.38225901E-03 0.55687784E+02 0.75467711E-02 0.11351519E+00
       21 -1    0    0  503  502 0.00000000E+00 0.00000000E+00 0.55074370E+03 0.55074421E+03 0.75000000E+00 0.0000E+00 0.9000E+01
        2 -1    0    0  502    0 0.00000000E+00 0.00000000E+00 -.59507144E+03 0.59507153E+03 0.32000000E+00 0.0000E+00 0.9000E+01
       25  1    1    2    0    0 0.55743876E+02 -.59906749E+01 -.29974592E+03 0.32956924E+03 0.12500000E+03 0.0000E+00 0.9000E+01
       23  1    1    2    0    0 -.10363547E+02 0.29014903E+02 -.22088046E+03 0.24094128E+03 0.91188000E+02 0.0000E+00 0.9000E+01
        2  1    1    2  501    0 -.78388486E+02 0.69727730E+02 0.17870801E+02 0.10642452E+03 0.32000000E+00 0.0000E+00 0.9000E+01
       21  1    1    2  503  501 0.33008157E+02 -.92751958E+02 0.45842784E+03 0.46888070E+03 0.75000000E+00 0.0000E+00 0.9000E+01
#aMCatNLO 2  0  0  1  5 0.85885679D+00 0.00000000D+00  -5  6  0 0.00000000D+00 0.00000000D+00 0.00000000D+00 0.00000000D+00 0.00000000D+00
  <mgrwgt>
 0.1243858815D+00    1    2    0
 0.221238223886981D+03 0.000000000000000D+00 0.000000000000000D+00 0.221238223886981D+03
 0.221238223886981D+03 0.000000000000000D+00 0.000000000000000D+00 -.221238223886981D+03
 0.169034343457366D+03 0.678579178567318D+02 -.400306677886226D+02 -.821002916475250D+02
 0.110784318758662D+03 -.204984865489289D+01 0.565372644957220D+01 -.626238567683774D+02
 0.162657785557933D+03 -.658080692018389D+02 0.343769413390504D+02 0.144724148415902D+03
 0.000000000000000D+00 0.000000000000000D+00 -.000000000000000D+00 0.000000000000000D+00
 0.143329356312680D+04 0.000000000000000D+00 0.000000000000000D+00 0.143329356312680D+04
 0.228656477833881D+03 0.000000000000000D+00 0.000000000000000D+00 -.228656477833881D+03
 0.159714528832253D+03 0.557439191773879D+02 -.599068495622922D+01 -.821002916475250D+02
 0.114831464928103D+03 -.103635176466235D+02 0.290148937440067D+02 -.626238567683774D+02
 0.178750676141317D+03 -.783885584529109D+02 0.697277490669567D+02 0.144724148415902D+03
 0.120865337105900D+04 0.330081569221465D+02 -.927519578547342D+02 0.120463708529292D+04
0.802579608371D-03 0.000000000000D+00 0.000000000000D+00 0.799875817020D-06 0.564422310842D-07  6 21 2 25 23 2 21 4 0.84729803D-01 0.91549453D-01 0.47657720D+05 0.47657720D+05 0.47657720D+05 0.11943509D+01  1  2  1  1  6  1       21 0.124385881541D+00 0.100000000000D+01
  </mgrwgt>
  </event>
  <event>
  5     66 0.38225901E-03 0.31914428E+02 0.75467711E-02 0.11893782E+00
       21 -1    0    0  501  502 0.00000000E+00 0.00000000E+00 0.35467679E+02 0.35475608E+02 0.75000000E+00 0.0000E+00 0.9000E+01
        2 -1    0    0  502    0 0.00000000E+00 0.00000000E+00 -.59396092E+03 0.59396100E+03 0.32000000E+00 0.0000E+00 0.9000E+01
       25  1    1    2    0    0 -.42026180E+02 -.21814654E+02 -.39320668E+03 0.41530539E+03 0.12500000E+03 0.0000E+00 0.9000E+01
       23  1    1    2    0    0 0.19673334E+02 0.44592194E+02 -.13577992E+03 0.17066617E+03 0.91188000E+02 0.0000E+00 0.9000E+01
        2  1    1    2  501    0 0.22352847E+02 -.22777540E+02 -.29506639E+02 0.43465046E+02 0.32000000E+00 0.0000E+00 0.9000E+01
#aMCatNLO 1  0  0  1  5 0.85885679D+00 0.00000000D+00  -5  6  0 0.00000000D+00 0.00000000D+00 0.00000000D+00 0.00000000D+00 0.00000000D+00
  <mgrwgt>
 0.9715818970D-01    4    2    0
 0.145151430345352D+03 0.000000000000000D+00 0.000000000000000D+00 0.145151430345352D+03
 0.145151430345352D+03 0.000000000000000D+00 0.000000000000000D+00 -.145151430345352D+03
 0.144005483379755D+03 -.420265845965632D+02 -.218142425564783D+02 -.535769003608091D+02
 0.108822095188222D+03 0.196730282470369D+02 0.445925053093437D+02 0.339334272802173D+02
 0.374752821227267D+02 0.223535563495263D+02 -.227782627528654D+02 0.196434730805918D+02
 0.000000000000000D+00 -.000000000000000D+00 -.000000000000000D+00 -.000000000000000D+00
 0.159536637969196D+03 0.000000000000000D+00 0.000000000000000D+00 0.159536637969196D+03
 0.188602012066268D+03 0.000000000000000D+00 0.000000000000000D+00 -.188602012066268D+03
 0.138999553881941D+03 -.198642928817922D+02 -.207557605356454D+02 -.535769003608091D+02
 0.113604024133188D+03 0.370913490977263D+02 0.454244129338275D+02 0.339334272802173D+02
 0.412900683546042D+02 0.285217174931762D+02 -.224836683239056D+02 0.196434730805918D+02
 0.542450036657293D+02 -.457487737091102D+02 -.218498407427656D+01 -.290653740970725D+02
0.425662245043D-05 0.000000000000D+00 0.000000000000D+00 0.416413919254D-06 0.000000000000D+00  6 21 2 25 23 2 21 2 0.54571826D-02 0.91379219D-01 0.18087354D+05 0.18087354D+05 0.18087354D+05 0.12386612D+01  1  2  2  1  6  1       21 0.963251766394D-01 0.100000000000D+01
0.989886405383D-07 0.224628138019D-06 -.859289434014D-08 0.416413919254D-06 0.000000000000D+00  6 21 2 25 23 2 21 4 0.54571826D-02 0.91379219D-01 0.18087354D+05 0.18087354D+05 0.18087354D+05 0.12386612D+01  1  2  3  1  6  1       21 0.343688598293D-02 0.100000000000D+01
0.395840832996D-06 0.000000000000D+00 0.000000000000D+00 0.416413919254D-06 0.000000000000D+00  6 21 2 25 23 2 21 4 0.54571826D-02 0.91379219D-01 0.18087354D+05 0.18087354D+05 0.18087354D+05 0.12386612D+01  1  2 15  1  6  1       21 0.137435952549D-01 0.100000000000D+01
-.470837164588D-06 0.000000000000D+00 0.000000000000D+00 0.416413919254D-06 0.000000000000D+00  6 21 2 25 23 2 21 4 0.54571826D-02 0.91379219D-01 0.18087354D+05 0.18087354D+05 0.18087354D+05 0.12386612D+01  1  2  4  1  6  1       21 -.163474681783D-01 0.100000000000D+01
  </mgrwgt>
  </event>
  <event>
  6     66 -.38225901E-03 0.82304550E+02 0.75467711E-02 0.11564767E+00
       21 -1    0    0  501  502 0.00000000E+00 0.00000000E+00 0.53344858E+03 0.53344910E+03 0.75000000E+00 0.0000E+00 0.9000E+01
        2 -1    0    0  503    0 0.00000000E+00 0.00000000E+00 -.12348081E+03 0.12348122E+03 0.32000000E+00 0.0000E+00 0.9000E+01
       25  1    1    2    0    0 -.30005437E+02 0.32729544E+02 0.56930308E+02 0.14435238E+03 0.12500000E+03 0.0000E+00 0.9000E+01
       23  1    1    2    0    0 0.14718318E+02 0.83735770E+02 0.38568310E+01 0.12473345E+03 0.91188000E+02 0.0000E+00 0.9000E+01
        2  1    1    2  501    0 -.73356887E+01 -.96961972E+02 0.34405125E+03 0.35752874E+03 0.32000000E+00 0.0000E+00 0.9000E+01
       21  1    1    2  503  502 0.22622808E+02 -.19503342E+02 0.51293756E+01 0.30315751E+02 0.75000000E+00 0.0000E+00 0.9000E+01
#aMCatNLO 2  0  0  2  1 0.29869245D+02 0.00000000D+00  -5  6  0 0.00000000D+00 0.00000000D+00 0.00000000D+00 0.00000000D+00 0.00000000D+00
  <mgrwgt>
 -.2842531138D-01    2    2    0
 0.238673172476415D+03 0.000000000000000D+00 0.000000000000000D+00 0.238673172476415D+03
 0.238673172476415D+03 0.000000000000000D+00 0.000000000000000D+00 -.238673172476415D+03
 0.138450003474122D+03 -.233915117993860D+02 0.270276613690995D+02 -.475998546073515D+02
 0.157743504581385D+03 0.222439903039191D+02 0.772478686459253D+02 -.100527277783885D+03
 0.181152836897322D+03 0.114752149546687D+01 -.104275530015025D+03 0.148127132391237D+03
 0.000000000000000D+00 0.000000000000000D+00 -.000000000000000D+00 -.000000000000000D+00
 0.247353936183533D+03 0.000000000000000D+00 0.000000000000000D+00 0.247353936183533D+03
 0.266294089392132D+03 0.000000000000000D+00 0.000000000000000D+00 -.266294089392132D+03
 0.140933668028592D+03 -.300054393727996D+02 0.327295926249886D+02 -.475998546073515D+02
 0.160153996072669D+03 0.147183141117989D+02 0.837358272492281D+02 -.100527277783885D+03
 0.177192279896753D+03 -.733568239406119D+01 -.969620774755355D+02 0.148127132391237D+03
 0.353680815776507D+02 0.226228076550619D+02 -.195033423986812D+02 -.189401532085996D+02
-.583029765883D-04 0.000000000000D+00 0.000000000000D+00 0.413174588970D-06 0.000000000000D+00  6 21 2 25 23 2 21 4 0.79187660D-01 0.19281178D-01 0.36947426D+05 0.36947426D+05 0.36947426D+05 0.12055171D+01  1  2 13  2  6  2        2 -.613900161178D-01 0.100000000000D+01
0.333698288047D-04 0.000000000000D+00 0.000000000000D+00 0.417943383127D-06 0.367712178533D-08  6 21 2 25 23 2 21 4 0.82067788D-01 0.18996820D-01 0.36947426D+05 0.36947426D+05 0.36947426D+05 0.12055171D+01  1  2  1  2  6  2        2 0.329647047385D-01 0.100000000000D+01
  </mgrwgt>
  </event>
  <event>
  5     66 0.38225901E-03 0.55652302E+02 0.75467711E-02 0.11541838E+00
       21 -1    0    0  501  502 0.00000000E+00 0.00000000E+00 0.33783511E+02 0.33791835E+02 0.75000000E+00 0.0000E+00 0.9000E+01
        2 -1    0    0  502    0 0.00000000E+00 0.00000000E+00 -.13351895E+04 0.13351895E+04 0.32000000E+00 0.0000E+00 0.9000E+01
       25  1    1    2    0    0 -.69440864E+02 0.12514450E+03 -.75314501E+03 0.77674679E+03 0.12500000E+03 0.0000E+00 0.9000E+01
       23  1    1    2    0    0 0.60862740E+02 -.70157523E+02 -.50567356E+03 0.52215644E+03 0.91188000E+02 0.0000E+00 0.9000E+01
        2  1    1    2  501    0 0.85781245E+01 -.54986975E+02 -.42587375E+02 0.70078089E+02 0.32000000E+00 0.0000E+00 0.9000E+01
#aMCatNLO 1  0  0  2  1 0.14509097D+02 0.00000000D+00  -5  6  0 0.00000000D+00 0.00000000D+00 0.00000000D+00 0.00000000D+00 0.00000000D+00
  <mgrwgt>
 0.1954118838D+00    9    2    0
 0.212398472750320D+03 0.000000000000000D+00 0.000000000000000D+00 0.212398472750320D+03
 0.212398472750320D+03 0.000000000000000D+00 0.000000000000000D+00 -.212398472750320D+03
 0.195868946734239D+03 -.694408865361062D+02 0.125144640878609D+03 -.475018571344706D+02
 0.133559890077958D+03 0.608627246067187D+02 -.701574254322680D+02 -.299442365706438D+02
 0.953681086884422D+02 0.857816192938753D+01 -.549872154463415D+02 0.774460937051144D+02
 0.000000000000000D+00 -.000000000000000D+00 -.000000000000000D+00 -.000000000000000D+00
 0.216947864679596D+03 0.000000000000000D+00 0.000000000000000D+00 0.216947864679596D+03
 0.224414324490106D+03 0.000000000000000D+00 0.000000000000000D+00 -.224414324490106D+03
 0.198262865817358D+03 -.657586932899001D+02 0.130776648480120D+03 -.475018571344706D+02
 0.132769693509076D+03 0.633509200852825D+02 -.663516675829880D+02 -.299442365706438D+02
 0.940120957436695D+02 0.103474545556552D+02 -.522810376728902D+02 0.774460937051144D+02
 0.163175340995993D+02 -.793968135103764D+01 -.121439432242414D+02 -.746645981051081D+01
0.190358858723D-05 0.000000000000D+00 0.000000000000D+00 0.236176479102D-06 0.000000000000D+00  6 21 2 25 23 2 21 2 0.51981065D-02 0.20541440D+00 0.35312757D+05 0.35312757D+05 0.35312757D+05 0.12075361D+01  1  2  2  2  6  2        2 0.150414465136D-01 0.100000000000D+01
0.675060091400D-07 0.100455129597D-06 -.384279690944D-08 0.236176479102D-06 0.000000000000D+00  6 21 2 25 23 2 21 4 0.51981065D-02 0.20541440D+00 0.35312757D+05 0.35312757D+05 0.35312757D+05 0.12075361D+01  1  2  3  2  6  2        2 0.777784327953D-03 0.100000000000D+01
0.219679396403D-06 0.000000000000D+00 0.000000000000D+00 0.236176479102D-06 0.000000000000D+00  6 21 2 25 23 2 21 4 0.51981065D-02 0.20541440D+00 0.35312757D+05 0.35312757D+05 0.35312757D+05 0.12075361D+01  1  2 15  2  6  2        2 0.253108121593D-02 0.100000000000D+01
0.188741433341D-04 0.000000000000D+00 0.000000000000D+00 0.234920675732D-06 0.000000000000D+00  6 21 2 25 23 2 21 4 0.51981065D-02 0.21914665D+00 0.37955114D+05 0.37955114D+05 0.37955114D+05 0.12043214D+01  1  2 12  2  6  2        2 0.192406547048D+00 0.100000000000D+01
-.864224161451D-05 0.000000000000D+00 0.000000000000D+00 0.236176479102D-06 0.000000000000D+00  6 21 2 25 23 2 21 4 0.51981065D-02 0.20541440D+00 0.35312757D+05 0.35312757D+05 0.35312757D+05 0.12075361D+01  1  2  4  2  6  2        2 -.995733590503D-01 0.100000000000D+01
-.650151110062D-04 0.000000000000D+00 -.103465143825D-04 0.236176479102D-06 0.000000000000D+00  6 21 2 25 23 2 21 4 0.51981065D-02 0.21950653D+00 0.35312757D+05 0.35312757D+05 0.35312757D+05 0.12075361D+01  1  2  5  2  6  2        2 -.668722421300D+00 0.100000000000D+01
0.655799470190D-04 0.000000000000D+00 0.103237799802D-04 0.236176479102D-06 0.000000000000D+00  6 21 2 25 23 2 21 4 0.51981065D-02 0.20541440D+00 0.35312757D+05 0.35312757D+05 0.35312757D+05 0.12075361D+01  1  2  6  2  6  2        2 0.755592808243D+00 0.100000000000D+01
0.235743244348D-06 0.000000000000D+00 0.000000000000D+00 0.234920675732D-06 0.000000000000D+00  6 21 21 25 23 2 -2 4 0.51981065D-02 0.21914665D+00 0.37955114D+05 0.37955114D+05 0.37955114D+05 0.12043214D+01  1  2 12 10  6  2        2 0.126943177161D-02 0.100000000000D+01
-.718496558413D-06 0.000000000000D+00 -.116840056991D-06 0.236176479102D-06 0.000000000000D+00  6 21 21 25 23 2 -2 4 0.51981065D-02 0.21950653D+00 0.35312757D+05 0.35312757D+05 0.35312757D+05 0.12075361D+01  1  2  5 10  6  2        2 -.391143498208D-02 0.100000000000D+01
  </mgrwgt>
  </event>
  <event>
  5     66 0.38225901E-03 0.51789713E+02 0.75467711E-02 0.11392994E+00
       21 -1    0    0  501  502 0.00000000E+00 0.00000000E+00 0.13626840E+02 0.13647464E+02 0.75000000E+00 0.0000E+00 0.9000E+01
        2 -1    0    0  502    0 0.00000000E+00 0.00000000E+00 -.24498091E+04 0.24498091E+04 0.32000000E+00 0.0000E+00 0.9000E+01
       25  1    1    2    0    0 -.13016358E+02 0.89441669E+02 -.10162642E+04 0.10279042E+04 0.12500000E+03 0.0000E+00 0.9000E+01
       23  1    1    2    0    0 -.30704453E+02 -.11720126E+03 -.12039220E+04 0.12134341E+04 0.91188000E+02 0.0000E+00 0.9000E+01
        2  1    1    2  501    0 0.43720811E+02 0.27759589E+02 -.21599607E+03 0.22211823E+03 0.32000000E+00 0.0000E+00 0.9000E+01
#aMCatNLO 1  0  0  2  5 0.62932543D+02 0.00000000D+00  -5  6  0 0.00000000D+00 0.00000000D+00 0.00000000D+00 0.00000000D+00 0.00000000D+00
  <mgrwgt>
 0.2068133025D+00    7    2    0
 0.182780158213313D+03 0.000000000000000D+00 0.000000000000000D+00 0.182780158213313D+03
 0.182780158213313D+03 0.000000000000000D+00 0.000000000000000D+00 -.182780158213313D+03
 0.154263642032173D+03 -.130166451519947D+02 0.894414870679090D+02 0.174888338624271D+01
 0.153925089939284D+03 -.307047389671536D+02 -.117201439713365D+03 -.264333785750125D+02
 0.573715844551681D+02 0.437213841191483D+02 0.277599526454562D+02 0.246844951887698D+02
 0.000000000000000D+00 0.000000000000000D+00 -.000000000000000D+00 -.000000000000000D+00
 0.196100407342862D+03 0.000000000000000D+00 0.000000000000000D+00 0.196100407342862D+03
 0.278600201420649D+03 0.000000000000000D+00 0.000000000000000D+00 -.278600201420649D+03
 0.169479871705229D+03 -.315155126924447D+02 0.110009730387155D+03 0.174888338624271D+01
 0.144722401844716D+03 -.477696071648869D+02 -.982276100703149D+02 -.264333785750125D+02
 0.567355242768010D+02 0.372012464166565D+02 0.350094655384266D+02 0.246844951887698D+02
 0.103762810936765D+03 0.420838734406751D+02 -.467915858552671D+02 -.824997940777869D+02
0.758745741430D-05 0.000000000000D+00 0.000000000000D+00 0.164160510358D-06 0.000000000000D+00  6 21 2 25 23 2 21 2 0.20980250D-02 0.37689530D+00 0.31984078D+05 0.31984078D+05 0.31984078D+05 0.12119902D+01  1  2  2  2  6  2        2 0.710878613596D-01 0.100000000000D+01
-.429687812561D-08 0.400401128153D-06 -.153168904761D-07 0.164160510358D-06 0.000000000000D+00  6 21 2 25 23 2 21 4 0.20980250D-02 0.37689530D+00 0.31984078D+05 0.31984078D+05 0.31984078D+05 0.12119902D+01  1  2  3  2  6  2        2 -.591357903526D-04 0.100000000000D+01
0.759557750351D-06 0.000000000000D+00 0.000000000000D+00 0.164160510358D-06 0.000000000000D+00  6 21 2 25 23 2 21 4 0.20980250D-02 0.37689530D+00 0.31984078D+05 0.31984078D+05 0.31984078D+05 0.12119902D+01  1  2 15  2  6  2        2 0.104534144494D-01 0.100000000000D+01
-.154335210388D-04 0.000000000000D+00 0.000000000000D+00 0.164160510358D-06 0.000000000000D+00  6 21 2 25 23 2 21 4 0.20980250D-02 0.37689530D+00 0.31984078D+05 0.31984078D+05 0.31984078D+05 0.12119902D+01  1  2  4  2  6  2        2 -.212403851790D+00 0.100000000000D+01
-.283759284760D-04 0.000000000000D+00 -.643773628892D-05 0.164160510358D-06 0.000000000000D+00  6 21 2 25 23 2 21 4 0.20980250D-02 0.58227511D+00 0.31984078D+05 0.31984078D+05 0.31984078D+05 0.12119902D+01  1  2  5  2  6  2        2 -.606552142755D-01 0.100000000000D+01
0.289577074365D-04 0.000000000000D+00 0.587329546458D-05 0.164160510358D-06 0.000000000000D+00  6 21 2 25 23 2 21 4 0.20980250D-02 0.37689530D+00 0.31984078D+05 0.31984078D+05 0.31984078D+05 0.12119902D+01  1  2  6  2  6  2        2 0.398530483295D+00 0.100000000000D+01
-.119186205168D-05 0.000000000000D+00 -.326081571424D-06 0.164160510358D-06 0.000000000000D+00  6 21 21 25 23 2 -2 4 0.20980250D-02 0.58227511D+00 0.31984078D+05 0.31984078D+05 0.31984078D+05 0.12119902D+01  1  2  5 10  6  2        2 -.140254734598D-03 0.100000000000D+01
  </mgrwgt>
  </event>
  <event>
  6     66 0.38225901E-03 0.14767329E+02 0.75467711E-02 0.11645844E+00
       21 -1    0    0  501  502 0.00000000E+00 0.00000000E+00 0.13677965E+02 0.13698512E+02 0.75000000E+00 0.0000E+00 0.9000E+01
        2 -1    0    0  503    0 0.00000000E+00 0.00000000E+00 -.33123466E+04 0.33123466E+04 0.32000000E+00 0.0000E+00 0.9000E+01
       25  1    1    2    0    0 -.83644201E+02 0.90326347E+02 -.13124663E+04 0.13241405E+04 0.12500000E+03 0.0000E+00 0.9000E+01
       23  1    1    2    0    0 0.95509877E+02 -.86554463E+02 -.13319571E+04 0.13412825E+04 0.91188000E+02 0.0000E+00 0.9000E+01
        2  1    1    2  501    0 0.15944983E+01 0.12318802E+02 -.97740184E+01 0.15809148E+02 0.32000000E+00 0.0000E+00 0.9000E+01
       21  1    1    2  503  502 -.13460175E+02 -.16090686E+02 -.64447128E+03 0.64481305E+03 0.75000000E+00 0.0000E+00 0.9000E+01
#aMCatNLO 2  0  0  2  1 0.44299021D+03 0.00000000D+00  -5  6  0 0.00000000D+00 0.00000000D+00 0.00000000D+00 0.00000000D+00 0.00000000D+00
  <mgrwgt>
 0.6744457772D-01    1    2    0
 0.189605990090143D+03 0.000000000000000D+00 0.000000000000000D+00 0.189605990090143D+03
 0.189605990090143D+03 0.000000000000000D+00 0.000000000000000D+00 -.189605990090143D+03
 0.175246992398951D+03 -.898704138555218D+02 0.828832160577101D+02 -.118401669855681D+02
 0.161176022207525D+03 0.898026571167158D+02 -.933771650014953D+02 -.296419739845683D+02
 0.427889655738099D+02 0.677567388059902D-01 0.104939489437853D+02 0.414821409701363D+02
 0.000000000000000D+00 -.000000000000000D+00 -.000000000000000D+00 -.000000000000000D+00
 0.192293720538975D+03 0.000000000000000D+00 0.000000000000000D+00 0.192293720538975D+03
 0.235779923315195D+03 0.000000000000000D+00 0.000000000000000D+00 -.235779923315195D+03
 0.175841879356259D+03 -.836442030496408D+02 0.903262103571578D+02 -.118401669855681D+02
 0.160647848172404D+03 0.955098823253435D+02 -.865545812474477D+02 -.296419739845683D+02
 0.433020738485270D+02 0.159449541685391D+01 0.123190569640154D+02 0.414821409701363D+02
 0.482818424769791D+02 -.134601746925566D+02 -.160906860737256D+02 -.434862027762197D+02
0.155818646453D-04 0.000000000000D+00 0.000000000000D+00 0.277619058049D-05 0.406653934920D-07  6 21 2 25 23 2 21 4 0.21058525D-02 0.50958574D+00 0.33623150D+05 0.33623150D+05 0.33623150D+05 0.12097355D+01  1  2  1  2  6  2        2 0.674445777207D-01 0.100000000000D+01
  </mgrwgt>
  </event>
  <event>
  5     66 0.38225901E-03 0.60633883E+02 0.75467711E-02 0.11240922E+00
       21 -1    0    0  501  502 0.00000000E+00 0.00000000E+00 0.23822707E+02 0.23834510E+02 0.75000000E+00 0.0000E+00 0.9000E+01
        2 -1    0    0  502    0 0.00000000E+00 0.00000000E+00 -.23779058E+04 0.23779059E+04 0.32000000E+00 0.0000E+00 0.9000E+01
       25  1    1    2    0    0 0.12434313E+03 -.11881427E+03 -.82936411E+03 0.85618215E+03 0.12500000E+03 0.0000E+00 0.9000E+01
       23  1    1    2    0    0 -.15486992E+03 0.65584270E+02 -.11230166E+04 0.11391960E+04 0.91188000E+02 0.0000E+00 0.9000E+01
        2  1    1    2  501    0 0.30526797E+02 0.53229999E+02 -.40170241E+03 0.40636221E+03 0.32000000E+00 0.0000E+00 0.9000E+01
#aMCatNLO 1  0  0  1  1 0.20233200D+01 0.00000000D+00  -5  6  0 0.00000000D+00 0.00000000D+00 0.00000000D+00 0.00000000D+00 0.00000000D+00
  <mgrwgt>
 0.1633667529D+00   31    2    0
 0.238038555551772D+03 0.000000000000000D+00 0.000000000000000D+00 0.238038555551772D+03
 0.238038555551772D+03 0.000000000000000D+00 0.000000000000000D+00 -.238038555551772D+03
 0.218315916330585D+03 0.124342950122095D+03 -.118814577530482D+03 0.495859480543666D+02
 0.194041245659904D+03 -.154870080943089D+03 0.655839968808644D+02 -.324152904515573D+02
 0.637199491130558D+02 0.305271308209943D+02 0.532305806496173D+02 -.171706576028094D+02
 0.000000000000000D+00 0.000000000000000D+00 0.000000000000000D+00 0.000000000000000D+00
 0.239435910221231D+03 0.000000000000000D+00 0.000000000000000D+00 0.239435910221231D+03
 0.238774257762866D+03 0.000000000000000D+00 0.000000000000000D+00 -.238774257762866D+03
 0.218651268044948D+03 0.124078275501262D+03 -.119704604430433D+03 0.495859480543666D+02
 0.193963443266862D+03 -.155105098577354D+03 0.647936981518068D+02 -.324152904515573D+02
 0.634666993110212D+02 0.304500928210016D+02 0.529715233509010D+02 -.171706576028094D+02
 0.212875736126681D+01 0.576730255090572D+00 0.193938292772476D+01 0.661652458365077D+00
0.516580014451D-05 0.000000000000D+00 0.000000000000D+00 0.483566231009D-07 0.000000000000D+00  6 21 2 25 23 2 21 2 0.36659414D-02 0.36583258D+00 0.54123125D+05 0.54123125D+05 0.54123125D+05 0.11888886D+01  1  2  2  1  6  1       21 0.199261095558D-01 0.100000000000D+01
-.160868450362D-06 0.272606763074D-06 -.104282621588D-07 0.483566231009D-07 0.000000000000D+00  6 21 2 25 23 2 21 4 0.36659414D-02 0.36583258D+00 0.54123125D+05 0.54123125D+05 0.54123125D+05 0.11888886D+01  1  2  3  1  6  1       21 -.877077819073D-03 0.100000000000D+01
0.651423304245D-06 0.000000000000D+00 0.000000000000D+00 0.483566231009D-07 0.000000000000D+00  6 21 2 25 23 2 21 4 0.36659414D-02 0.36583258D+00 0.54123125D+05 0.54123125D+05 0.54123125D+05 0.11888886D+01  1  2 15  1  6  1       21 0.355165310349D-02 0.100000000000D+01
-.184585011683D-04 0.000000000000D+00 0.000000000000D+00 0.483566231009D-07 0.000000000000D+00  6 21 2 25 23 2 21 4 0.36659414D-02 0.36583258D+00 0.54123125D+05 0.54123125D+05 0.54123125D+05 0.11888886D+01  1  2  4  1  6  1       21 -.100638390633D+00 0.100000000000D+01
-.162952315984D-02 0.000000000000D+00 -.163137608669D-03 0.483566231009D-07 0.000000000000D+00  6 21 2 25 23 2 21 4 0.37015294D-02 0.36583258D+00 0.54123125D+05 0.54123125D+05 0.54123125D+05 0.11888886D+01  1  2  5  1  6  1       21 -.874161811896D+01 0.100000000000D+01
0.163080348144D-02 0.000000000000D+00 0.163107160387D-03 0.483566231009D-07 0.000000000000D+00  6 21 2 25 23 2 21 4 0.36659414D-02 0.36583258D+00 0.54123125D+05 0.54123125D+05 0.54123125D+05 0.11888886D+01  1  2  6  1  6  1       21 0.889137402404D+01 0.100000000000D+01
0.181505467677D-04 0.000000000000D+00 0.000000000000D+00 0.483566231009D-07 0.509604274137D-06  6 21 2 25 23 2 21 4 0.36874616D-02 0.36696325D+00 0.54595423D+05 0.54595423D+05 0.54595423D+05 0.11885184D+01  1  2 11  1  6  1       21 0.969538450722D-01 0.100000000000D+01
0.313948856919D-09 0.000000000000D+00 0.000000000000D+00 0.483265089717D-07 0.000000000000D+00  6 -1 2 25 23 2 -1 4 0.36931013D-02 0.36583258D+00 0.54595423D+05 0.54595423D+05 0.54595423D+05 0.11885184D+01  1  2 12  4  6  1       21 0.926773618986D-07 0.100000000000D+01
0.313948856919D-09 0.000000000000D+00 0.000000000000D+00 0.483265089717D-07 0.000000000000D+00  6 -3 2 25 23 2 -3 4 0.36931013D-02 0.36583258D+00 0.54595423D+05 0.54595423D+05 0.54595423D+05 0.11885184D+01  1  2 12  4  6  1       21 0.693340785172D-07 0.100000000000D+01
-.319678763102D-05 0.000000000000D+00 -.355315316600D-06 0.483566231009D-07 0.000000000000D+00  6 -1 2 25 23 2 -1 4 0.37015294D-02 0.36583258D+00 0.54123125D+05 0.54123125D+05 0.54123125D+05 0.11888886D+01  1  2  5  4  6  1       21 -.941798160582D-03 0.100000000000D+01
-.319678763102D-05 0.000000000000D+00 -.355315316600D-06 0.483566231009D-07 0.000000000000D+00  6 -3 2 25 23 2 -3 4 0.37015294D-02 0.36583258D+00 0.54123125D+05 0.54123125D+05 0.54123125D+05 0.11888886D+01  1  2  5  4  6  1       21 -.704322236358D-03 0.100000000000D+01
0.500334967249D-06 0.000000000000D+00 0.000000000000D+00 0.483566231009D-07 0.279439136032D-09  6 -1 2 25 23 2 -1 4 0.36874616D-02 0.36696325D+00 0.54595423D+05 0.54595423D+05 0.54595423D+05 0.11885184D+01  1  2 11  4  6  1       21 0.146692299052D-03 0.100000000000D+01
0.500334967249D-06 0.000000000000D+00 0.000000000000D+00 0.483566231009D-07 0.279439136032D-09  6 -3 2 25 23 2 -3 4 0.36874616D-02 0.36696325D+00 0.54595423D+05 0.54595423D+05 0.54595423D+05 0.11885184D+01  1  2 11  4  6  1       21 0.109759371433D-03 0.100000000000D+01
0.313948856919D-09 0.000000000000D+00 0.000000000000D+00 0.483265089717D-07 0.000000000000D+00  6 1 2 25 23 2 1 4 0.36931013D-02 0.36583258D+00 0.54595423D+05 0.54595423D+05 0.54595423D+05 0.11885184D+01  1  2 12  5  6  1       21 0.101246979869D-06 0.100000000000D+01
0.313948856919D-09 0.000000000000D+00 0.000000000000D+00 0.483265089717D-07 0.000000000000D+00  6 3 2 25 23 2 3 4 0.36931013D-02 0.36583258D+00 0.54595423D+05 0.54595423D+05 0.54595423D+05 0.11885184D+01  1  2 12  5  6  1       21 0.693287077344D-07 0.100000000000D+01
-.319678763102D-05 0.000000000000D+00 -.355315316600D-06 0.483566231009D-07 0.000000000000D+00  6 1 2 25 23 2 1 4 0.37015294D-02 0.36583258D+00 0.54123125D+05 0.54123125D+05 0.54123125D+05 0.11888886D+01  1  2  5  5  6  1       21 -.102909466877D-02 0.100000000000D+01
-.319678763102D-05 0.000000000000D+00 -.355315316600D-06 0.483566231009D-07 0.000000000000D+00  6 3 2 25 23 2 3 4 0.37015294D-02 0.36583258D+00 0.54123125D+05 0.54123125D+05 0.54123125D+05 0.11888886D+01  1  2  5  5  6  1       21 -.704267571880D-03 0.100000000000D+01
0.480755440386D-06 0.000000000000D+00 0.000000000000D+00 0.483566231009D-07 0.268503889790D-09  6 1 2 25 23 2 1 4 0.36874616D-02 0.36696325D+00 0.54595423D+05 0.54595423D+05 0.54595423D+05 0.11885184D+01  1  2 11  5  6  1       21 0.153965175440D-03 0.100000000000D+01
0.480755440386D-06 0.000000000000D+00 0.000000000000D+00 0.483566231009D-07 0.268503889790D-09  6 3 2 25 23 2 3 4 0.36874616D-02 0.36696325D+00 0.54595423D+05 0.54595423D+05 0.54595423D+05 0.11885184D+01  1  2 11  5  6  1       21 0.105456013449D-03 0.100000000000D+01
0.313948856919D-09 0.000000000000D+00 0.000000000000D+00 0.483265089717D-07 0.000000000000D+00  6 -2 2 25 23 2 -2 4 0.36931013D-02 0.36583258D+00 0.54595423D+05 0.54595423D+05 0.54595423D+05 0.11885184D+01  1  2 12  6  6  1       21 0.911554580083D-07 0.100000000000D+01
-.319678763102D-05 0.000000000000D+00 -.355315316600D-06 0.483566231009D-07 0.000000000000D+00  6 -2 2 25 23 2 -2 4 0.37015294D-02 0.36583258D+00 0.54123125D+05 0.54123125D+05 0.54123125D+05 0.11888886D+01  1  2  5  6  6  1       21 -.926295608739D-03 0.100000000000D+01
0.176552435267D-05 0.000000000000D+00 0.000000000000D+00 0.483566231009D-07 0.491975835877D-07  6 -2 2 25 23 2 -2 4 0.36874616D-02 0.36696325D+00 0.54595423D+05 0.54595423D+05 0.54595423D+05 0.11885184D+01  1  2 11  6  6  1       21 0.509143269221D-03 0.100000000000D+01
0.313948856919D-09 0.000000000000D+00 0.000000000000D+00 0.483265089717D-07 0.000000000000D+00  6 2 2 25 23 2 2 4 0.36931013D-02 0.36583258D+00 0.54595423D+05 0.54595423D+05 0.54595423D+05 0.11885184D+01  1  2 12  7  6  1       21 0.107057892475D-06 0.100000000000D+01
-.319678763102D-05 0.000000000000D+00 -.355315316600D-06 0.483566231009D-07 0.000000000000D+00  6 2 2 25 23 2 2 4 0.37015294D-02 0.36583258D+00 0.54123125D+05 0.54123125D+05 0.54123125D+05 0.11888886D+01  1  2  5  7  6  1       21 -.108828438933D-02 0.100000000000D+01
0.518095166603D-06 0.000000000000D+00 0.000000000000D+00 0.483566231009D-07 0.200106005793D-09  6 2 2 25 23 2 2 4 0.36874616D-02 0.36696325D+00 0.54595423D+05 0.54595423D+05 0.54595423D+05 0.11885184D+01  1  2 11  7  6  1       21 0.175433289296D-03 0.100000000000D+01
0.313948856919D-09 0.000000000000D+00 0.000000000000D+00 0.483265089717D-07 0.000000000000D+00  6 -4 2 25 23 2 -4 4 0.36931013D-02 0.36583258D+00 0.54595423D+05 0.54595423D+05 0.54595423D+05 0.11885184D+01  1  2 12  8  6  1       21 0.628058538221D-07 0.100000000000D+01
-.319678763102D-05 0.000000000000D+00 -.355315316600D-06 0.483566231009D-07 0.000000000000D+00  6 -4 2 25 23 2 -4 4 0.37015294D-02 0.36583258D+00 0.54123125D+05 0.54123125D+05 0.54123125D+05 0.11888886D+01  1  2  5  8  6  1       21 -.637929853165D-03 0.100000000000D+01
0.405771848366D-06 0.000000000000D+00 0.000000000000D+00 0.483566231009D-07 0.226625245397D-09  6 -4 2 25 23 2 -4 4 0.36874616D-02 0.36696325D+00 0.54595423D+05 0.54595423D+05 0.54595423D+05 0.11885184D+01  1  2 11  8  6  1       21 0.806363542652D-04 0.100000000000D+01
0.313948856919D-09 0.000000000000D+00 0.000000000000D+00 0.483265089717D-07 0.000000000000D+00  6 4 2 25 23 2 4 4 0.36931013D-02 0.36583258D+00 0.54595423D+05 0.54595423D+05 0.54595423D+05 0.11885184D+01  1  2 12  9  6  1       21 0.628058538221D-07 0.100000000000D+01
-.319678763102D-05 0.000000000000D+00 -.355315316600D-06 0.483566231009D-07 0.000000000000D+00  6 4 2 25 23 2 4 4 0.37015294D-02 0.36583258D+00 0.54123125D+05 0.54123125D+05 0.54123125D+05 0.11888886D+01  1  2  5  9  6  1       21 -.637929853165D-03 0.100000000000D+01
0.417106084726D-06 0.000000000000D+00 0.000000000000D+00 0.483566231009D-07 0.232955462998D-09  6 4 2 25 23 2 4 4 0.36874616D-02 0.36696325D+00 0.54595423D+05 0.54595423D+05 0.54595423D+05 0.11885184D+01  1  2 11  9  6  1       21 0.828887320538D-04 0.100000000000D+01
  </mgrwgt>
  </event>
  <event>
  5     66 -.38225901E-03 0.35732436E+02 0.75467711E-02 0.12203293E+00
       21 -1    0    0  501  502 0.00000000E+00 0.00000000E+00 0.70212414E+02 0.70216419E+02 0.75000000E+00 0.0000E+00 0.9000E+01
        2 -1    0    0  502    0 -.00000000E+00 -.00000000E+00 -.17897233E+04 0.17897233E+04 0.32000000E+00 0.0000E+00 0.9000E+01
       25  1    1    2    0    0 -.29934760E+02 -.41009848E+02 -.10435631E+04 0.10522485E+04 0.12500000E+03 0.0000E+00 0.9000E+01
       23  1    1    2    0    0 0.19064037E+02 0.69711402E+01 -.73378379E+03 0.73970665E+03 0.91188000E+02 0.0000E+00 0.9000E+01
        2  1    1    2  501    0 0.10870723E+02 0.34038708E+02 0.57835992E+02 0.67984635E+02 0.32000000E+00 0.0000E+00 0.9000E+01
#aMCatNLO 1  0  0  5  5 0.24956962D+02 0.00000000D+00  -5  6  0 0.00000000D+00 0.00000000D+00 0.00000000D+00 0.00000000D+00 0.00000000D+00
  <mgrwgt>
 -.1015524565D+00    6    2    0
 0.354491954255252D+03 0.000000000000000D+00 0.000000000000000D+00 0.354491954255252D+03
 0.354491954255252D+03 -.000000000000000D+00 -.000000000000000D+00 -.354491954255252D+03
 0.229484296064898D+03 -.299347620108695D+02 -.410098538041380D+02 -.185634436607860D+03
 0.160878991042815D+03 0.190640356624475D+02 0.697113631328429D+01 -.130976197141759D+03
 0.318620621402790D+03 0.108707263484220D+02 0.340387174908538D+02 0.316610633749619D+03
 0.000000000000000D+00 0.000000000000000D+00 0.000000000000000D+00 0.000000000000000D+00
 0.354491954255252D+03 0.000000000000000D+00 0.000000000000000D+00 0.354491954255252D+03
 0.354491954255252D+03 -.000000000000000D+00 -.000000000000000D+00 -.354491954255252D+03
 0.226735789221875D+03 -.298211024643182D+02 -.406539599042093D+02 -.182324094693999D+03
 0.159015691469478D+03 0.191437320320970D+02 0.722068377907419D+01 -.128655035032300D+03
 0.284728332094706D+03 -.694870865389081D+01 0.118640112280422D+02 0.284396173995111D+03
 0.385040957244437D+02 0.176260790861121D+02 0.215692648970930D+02 0.265829557311876D+02
0.319181759099D-04 0.000000000000D+00 0.000000000000D+00 0.158088593133D-04 0.000000000000D+00  6 21 2 25 23 2 21 2 0.10802220D-01 0.27534236D+00 0.17433306D+05 0.17433306D+05 0.17433306D+05 0.12404476D+01  1  2  2  3  6  5        2 0.442777469917D-01 0.100000000000D+01
0.813913387526D-05 0.168436841818D-05 -.644336011280D-07 0.158088593133D-04 0.000000000000D+00  6 21 2 25 23 2 21 4 0.10802220D-01 0.27534236D+00 0.17433306D+05 0.17433306D+05 0.17433306D+05 0.12404476D+01  1  2  3  3  6  5        2 0.173733058996D-01 0.100000000000D+01
0.361704039841D-05 0.000000000000D+00 0.000000000000D+00 0.158088593133D-04 0.000000000000D+00  6 21 2 25 23 2 21 4 0.10802220D-01 0.27534236D+00 0.17433306D+05 0.17433306D+05 0.17433306D+05 0.12404476D+01  1  2 15  3  6  5        2 0.772071700206D-02 0.100000000000D+01
-.996476957888D-04 0.000000000000D+00 0.000000000000D+00 0.158088593133D-04 0.000000000000D+00  6 21 2 25 23 2 21 4 0.10802220D-01 0.27534236D+00 0.17433306D+05 0.17433306D+05 0.17433306D+05 0.12404476D+01  1  2  4  3  6  5        2 -.212701981275D+00 0.100000000000D+01
-.152803210390D-03 0.000000000000D+00 0.000000000000D+00 0.158088593133D-04 0.000000000000D+00  6 21 2 25 23 2 21 4 0.10802220D-01 0.27534236D+00 0.17433306D+05 0.17433306D+05 0.17433306D+05 0.12404476D+01  1  2  5  3  6  5        2 -.326164547388D+00 0.100000000000D+01
0.172375463463D-03 0.000000000000D+00 -.000000000000D+00 0.158088593133D-04 0.000000000000D+00  6 21 2 25 23 2 21 4 0.10802220D-01 0.27534236D+00 0.17433306D+05 0.17433306D+05 0.17433306D+05 0.12404476D+01  1  2  6  3  6  5        2 0.367942302244D+00 0.100000000000D+01
  </mgrwgt>
  </event>
  <event>
  5     66 -.38225901E-03 0.25244647E+02 0.75467711E-02 0.10874095E+00
       21 -1    0    0  501  502 0.00000000E+00 0.00000000E+00 0.20738759E+03 0.20738895E+03 0.75000000E+00 0.0000E+00 0.9000E+01
        2 -1    0    0  502    0 0.00000000E+00 0.00000000E+00 -.30309336E+03 0.30309353E+03 0.32000000E+00 0.0000E+00 0.9000E+01
       25  1    1    2    0    0 0.16922684E+03 0.61438469E+02 -.41873060E+02 0.22313843E+03 0.12500000E+03 0.0000E+00 0.9000E+01
       23  1    1    2    0    0 -.15831493E+03 -.84202725E+02 -.10745976E+03 0.22807141E+03 0.91188000E+02 0.0000E+00 0.9000E+01
        2  1    1    2  501    0 -.10911902E+02 0.22764256E+02 0.53627058E+02 0.59272630E+02 0.32000000E+00 0.0000E+00 0.9000E+01
#aMCatNLO 1  0  0  1  5 0.72690873D+01 0.00000000D+00  -5  6  0 0.00000000D+00 0.00000000D+00 0.00000000D+00 0.00000000D+00 0.00000000D+00
  <mgrwgt>
 -.7984041354D-01   12    2    0
 0.250715359522129D+03 0.000000000000000D+00 0.000000000000000D+00 0.250715359522129D+03
 0.250715359522129D+03 0.000000000000000D+00 0.000000000000000D+00 -.250715359522129D+03
 0.219174389933009D+03 0.169226885299196D+03 0.614383667359182D+02 -.398404598610540D-01
 0.211678270750905D+03 -.158314887039548D+03 -.842028233609244D+02 -.658689611562032D+02
 0.705780583603436D+02 -.109119982596480D+02 0.227644566250062D+02 0.659088016160643D+02
 0.000000000000000D+00 0.000000000000000D+00 0.000000000000000D+00 0.000000000000000D+00
 0.508413051575467D+03 0.000000000000000D+00 0.000000000000000D+00 0.508413051575467D+03
 0.273745486574443D+03 0.000000000000000D+00 0.000000000000000D+00 -.273745486574443D+03
 0.181184085751984D+03 0.123074774819103D+03 0.453350983868703D+02 -.398404598610540D-01
 0.262013151074473D+03 -.212920597075167D+03 -.103255698580426D+03 -.658689611562032D+02
 0.734089493375846D+02 -.275103836831187D+02 0.169729933126108D+02 0.659088016160643D+02
 0.265552351985868D+03 0.117356205939183D+03 0.409476068809450D+02 0.234667565001024D+03
0.226272821160D-04 0.000000000000D+00 0.000000000000D+00 0.558348149682D-06 0.000000000000D+00  6 21 2 25 23 2 21 2 0.31905901D-01 0.46629865D-01 0.49637176D+05 0.49637176D+05 0.49637176D+05 0.11925951D+01  1  2  2  1  6  1       21 0.405434977132D-01 0.100000000000D+01
0.430439149075D-05 0.119407448260D-05 -.456779633832D-07 0.558348149682D-06 0.000000000000D+00  6 21 2 25 23 2 21 4 0.31905901D-01 0.46629865D-01 0.49637176D+05 0.49637176D+05 0.49637176D+05 0.11925951D+01  1  2  3  1  6  1       21 0.109694953484D-01 0.100000000000D+01
0.233036234792D-05 0.000000000000D+00 0.000000000000D+00 0.558348149682D-06 0.000000000000D+00  6 21 2 25 23 2 21 4 0.31905901D-01 0.46629865D-01 0.49637176D+05 0.49637176D+05 0.49637176D+05 0.11925951D+01  1  2 15  1  6  1       21 0.593879506328D-02 0.100000000000D+01
-.195191411946D-03 0.000000000000D+00 -.325849895348D-04 0.558348149682D-06 0.000000000000D+00  6 21 2 25 23 2 21 4 0.68658281D-01 0.46629865D-01 0.49637176D+05 0.49637176D+05 0.49637176D+05 0.11925951D+01  1  2  5  1  6  1       21 -.101228351237D+00 0.100000000000D+01
-.603432188961D-04 0.000000000000D+00 -.883602412019D-05 0.558348149682D-06 0.000000000000D+00  6 -1 2 25 23 2 -1 4 0.68658281D-01 0.46629865D-01 0.49637176D+05 0.49637176D+05 0.49637176D+05 0.11925951D+01  1  2  5  4  6  1       21 -.338750863207D-02 0.100000000000D+01
-.603432188961D-04 0.000000000000D+00 -.883602412019D-05 0.558348149682D-06 0.000000000000D+00  6 -3 2 25 23 2 -3 4 0.68658281D-01 0.46629865D-01 0.49637176D+05 0.49637176D+05 0.49637176D+05 0.11925951D+01  1  2  5  4  6  1       21 -.168246128830D-02 0.100000000000D+01
-.603432188961D-04 0.000000000000D+00 -.883602412019D-05 0.558348149682D-06 0.000000000000D+00  6 1 2 25 23 2 1 4 0.68658281D-01 0.46629865D-01 0.49637176D+05 0.49637176D+05 0.49637176D+05 0.11925951D+01  1  2  5  5  6  1       21 -.945581241340D-02 0.100000000000D+01
-.603432188961D-04 0.000000000000D+00 -.883602412019D-05 0.558348149682D-06 0.000000000000D+00  6 3 2 25 23 2 3 4 0.68658281D-01 0.46629865D-01 0.49637176D+05 0.49637176D+05 0.49637176D+05 0.11925951D+01  1  2  5  5  6  1       21 -.168403513185D-02 0.100000000000D+01
-.603432188961D-04 0.000000000000D+00 -.883602412019D-05 0.558348149682D-06 0.000000000000D+00  6 -2 2 25 23 2 -2 4 0.68658281D-01 0.46629865D-01 0.49637176D+05 0.49637176D+05 0.49637176D+05 0.11925951D+01  1  2  5  6  6  1       21 -.265085723466D-02 0.100000000000D+01
-.603432188961D-04 0.000000000000D+00 -.883602412019D-05 0.558348149682D-06 0.000000000000D+00  6 2 2 25 23 2 2 4 0.68658281D-01 0.46629865D-01 0.49637176D+05 0.49637176D+05 0.49637176D+05 0.11925951D+01  1  2  5  7  6  1       21 -.144488557607D-01 0.100000000000D+01
-.603432188961D-04 0.000000000000D+00 -.883602412019D-05 0.558348149682D-06 0.000000000000D+00  6 -4 2 25 23 2 -4 4 0.68658281D-01 0.46629865D-01 0.49637176D+05 0.49637176D+05 0.49637176D+05 0.11925951D+01  1  2  5  8  6  1       21 -.137715998178D-02 0.100000000000D+01
-.603432188961D-04 0.000000000000D+00 -.883602412019D-05 0.558348149682D-06 0.000000000000D+00  6 4 2 25 23 2 4 4 0.68658281D-01 0.46629865D-01 0.49637176D+05 0.49637176D+05 0.49637176D+05 0.11925951D+01  1  2  5  9  6  1       21 -.137715998178D-02 0.100000000000D+01
  </mgrwgt>
  </event>
  <event>
  5     66 0.38225901E-03 0.25121946E+03 0.75467711E-02 0.10456731E+00
       21 -1    0    0  501  502 0.00000000E+00 0.00000000E+00 0.20010183E+03 0.20010323E+03 0.75000000E+00 0.0000E+00 0.9000E+01
        2 -1    0    0  502    0 -.00000000E+00 -.00000000E+00 -.80614813E+03 0.80614820E+03 0.32000000E+00 0.0000E+00 0.9000E+01
       25  1    1    2    0    0 -.13436626E+03 0.33739153E+03 -.22709962E+03 0.44619118E+03 0.12500000E+03 0.0000E+00 0.9000E+01
       23  1    1    2    0    0 0.83789107E+02 -.91316121E+02 -.94539033E+02 0.18058828E+03 0.91188000E+02 0.0000E+00 0.9000E+01
        2  1    1    2  501    0 0.50577152E+02 -.24607541E+03 -.28440765E+03 0.37947196E+03 0.32000000E+00 0.0000E+00 0.9000E+01
#aMCatNLO 1  0  0  5  1 0.62989811D-02 0.00000000D+00  -5  6  0 0.00000000D+00 0.00000000D+00 0.00000000D+00 0.00000000D+00 0.00000000D+00
  <mgrwgt>
 0.2360917676D-02    7    2    0
 0.401637214838678D+03 0.000000000000000D+00 0.000000000000000D+00 0.401637214838678D+03
 0.401637214838678D+03 -.000000000000000D+00 -.000000000000000D+00 -.401637214838678D+03
 0.387598169098244D+03 -.134366278117889D+03 0.337391615720188D+03 0.521530596875966D+02
 0.154893724679911D+03 0.837890999294097D+02 -.913160853811284D+02 0.178206028209459D+02
 0.260782535899201D+03 0.505771781884791D+02 -.246075530339060D+03 -.699736625085425D+02
 0.000000000000000D+00 0.000000000000000D+00 0.000000000000000D+00 -.000000000000000D+00
 0.401637214838678D+03 0.000000000000000D+00 0.000000000000000D+00 0.401637214838678D+03
 0.401637214838678D+03 -.000000000000000D+00 -.000000000000000D+00 -.401637214838678D+03
 0.387598164508183D+03 -.134366277155197D+03 0.337391611036361D+03 0.521530583557105D+02
 0.154893725930270D+03 0.837891003141247D+02 -.913160872529006D+02 0.178206022886916D+02
 0.258839567874864D+03 0.502037414844141D+02 -.244242933020582D+03 -.694470727109225D+02
 0.194297136403889D+01 0.373435356658653D+00 -.183259076287805D+01 -.526587933479698D+00
0.387368316010D-07 0.000000000000D+00 0.000000000000D+00 0.979089460560D-08 0.000000000000D+00  6 21 2 25 23 2 21 2 0.30785009D-01 0.12402290D+00 0.15569261D+06 0.15569261D+06 0.15569261D+06 0.11463121D+01  1  2  2  3  6  5        2 0.216823298774D-04 0.100000000000D+01
-.410420366650D-08 0.204419876477D-08 -.781985024265D-10 0.979089460560D-08 0.000000000000D+00  6 21 2 25 23 2 21 4 0.30785009D-01 0.12402290D+00 0.15569261D+06 0.15569261D+06 0.15569261D+06 0.11463121D+01  1  2  3  3  6  5        2 -.301867630419D-05 0.100000000000D+01
0.459272411332D-08 0.000000000000D+00 0.000000000000D+00 0.979089460560D-08 0.000000000000D+00  6 21 2 25 23 2 21 4 0.30785009D-01 0.12402290D+00 0.15569261D+06 0.15569261D+06 0.15569261D+06 0.11463121D+01  1  2 15  3  6  5        2 0.337798720022D-05 0.100000000000D+01
-.189172240572D+00 0.000000000000D+00 0.000000000000D+00 0.979089460560D-08 0.000000000000D+00  6 21 2 25 23 2 21 4 0.30785009D-01 0.12402290D+00 0.15569261D+06 0.15569261D+06 0.15569261D+06 0.11463121D+01  1  2  4  3  6  5        2 -.139137773470D+03 0.100000000000D+01
-.188306860580D+00 0.000000000000D+00 0.000000000000D+00 0.979089460560D-08 0.000000000000D+00  6 21 2 25 23 2 21 4 0.30785009D-01 0.12402290D+00 0.15569261D+06 0.15569261D+06 0.15569261D+06 0.11463121D+01  1  2  5  3  6  5        2 -.138501279210D+03 0.100000000000D+01
0.189715075211D+00 0.000000000000D+00 -.000000000000D+00 0.979089460560D-08 0.000000000000D+00  6 21 2 25 23 2 21 4 0.30785009D-01 0.12402290D+00 0.15569261D+06 0.15569261D+06 0.15569261D+06 0.11463121D+01  1  2  6  3  6  5        2 0.139537032911D+03 0.100000000000D+01
0.187767205302D+00 0.000000000000D+00 0.000000000000D+00 0.979089460560D-08 0.169885070228D-02  6 21 2 25 23 2 21 4 0.30785009D-01 0.12402290D+00 0.15569261D+06 0.15569261D+06 0.15569261D+06 0.11463121D+01  1  2 11  3  6  5        2 0.138104358645D+03 0.100000000000D+01
  </mgrwgt>
  </event>
  <event>
  6     66 0.38225901E-03 0.47827207E+02 0.75467711E-02 0.11782432E+00
        3 -1    0    0  501    0 0.00000000E+00 0.00000000E+00 0.19121136E+03 0.19121202E+03 0.50000000E+00 0.0000E+00 0.9000E+01
        2 -1    0    0  502    0 0.00000000E+00 0.00000000E+00 -.34012180E+03 0.34012195E+03 0.32000000E+00 0.0000E+00 0.9000E+01
       25  1    1    2    0    0 0.20052887E+02 -.18891131E+02 -.98158917E+02 0.16130458E+03 0.12500000E+03 0.0000E+00 0.9000E+01
       23  1    1    2    0    0 0.19482244E+01 0.55945703E+02 -.11617003E+03 0.15793810E+03 0.91188000E+02 0.0000E+00 0.9000E+01
        2  1    1    2  501    0 0.37085692E+02 -.62545838E+01 -.59570168E+02 0.70449809E+02 0.32000000E+00 0.0000E+00 0.9000E+01
        3  1    1    2  502    0 -.59086804E+02 -.30799987E+02 0.12498868E+03 0.14164148E+03 0.50000000E+00 0.0000E+00 0.9000E+01
#aMCatNLO 2  0  0  1  5 0.10814073D+01 0.00000000D+00  -5  6  0 0.00000000D+00 0.00000000D+00 0.00000000D+00 0.00000000D+00 0.00000000D+00
  <mgrwgt>
 0.9185834330D-03    1    2    0
 0.134535888059319D+03 0.000000000000000D+00 0.000000000000000D+00 0.134535888059319D+03
 0.134535888059319D+03 0.000000000000000D+00 0.000000000000000D+00 -.134535888059319D+03
 0.131453902158334D+03 -.820326349994344D+01 -.336195689988502D+02 0.213906390959924D+02
 0.103653478194123D+03 -.208639182249863D+02 0.440549281538018D+02 -.725619868829204D+01
 0.339643957661807D+02 0.290671817249297D+02 -.104353591549516D+02 -.141344404077004D+02
 0.000000000000000D+00 -.000000000000000D+00 -.000000000000000D+00 0.000000000000000D+00
 0.457743950157731D+03 0.000000000000000D+00 0.000000000000000D+00 0.457743950157731D+03
 0.142077667258623D+03 0.000000000000000D+00 0.000000000000000D+00 -.142077667258623D+03
 0.129774876733937D+03 0.200522515065004D+02 -.188909078631365D+02 0.213906390959924D+02
 0.107245701964150D+03 0.194775273668154D+01 0.559458942698744D+02 -.725619868829204D+01
 0.401788265989756D+02 0.370867993989408D+02 -.625499892681378D+01 -.141344404077004D+02
 0.322622212119293D+03 -.590868036421227D+02 -.307999874799242D+02 0.315666282899108D+03
0.648440162840D-05 0.000000000000D+00 0.000000000000D+00 0.253265483241D-06 0.234390413136D-08  6 3 2 25 23 2 3 4 0.29417155D-01 0.52326423D-01 0.28771430D+05 0.28771430D+05 0.28771430D+05 0.12168090D+01  1  2  1  5  6  1       21 0.918583433027D-03 0.100000000000D+01
  </mgrwgt>
  </event>
  <event>
  6     66 -.38225901E-03 0.37343090E+03 0.75467711E-02 0.10070442E+00
       21 -1    0    0  503  502 0.00000000E+00 0.00000000E+00 0.51356821E+03 0.51356876E+03 0.75000000E+00 0.0000E+00 0.9000E+01
        2 -1    0    0  502    0 0.00000000E+00 0.00000000E+00 -.86631019E+03 0.86631025E+03 0.32000000E+00 0.0000E+00 0.9000E+01
       25  1    1    2    0    0 0.10086500E+03 -.95078738E+02 0.14462203E+03 0.23612337E+03 0.12500000E+03 0.0000E+00 0.9000E+01
       23  1    1    2    0    0 0.29167559E+03 0.62272504E+01 -.48151072E+03 0.57033434E+03 0.91188000E+02 0.0000E+00 0.9000E+01
        2  1    1    2  501    0 -.38021547E+03 0.21329976E+03 -.61532758E+02 0.44028056E+03 0.32000000E+00 0.0000E+00 0.9000E+01
       21  1    1    2  503  501 -.12325121E+02 -.12444827E+03 0.45679472E+02 0.13314074E+03 0.75000000E+00 0.0000E+00 0.9000E+01
#aMCatNLO 2  0  0  1  5 0.12505711D+03 0.00000000D+00  -5  6  0 0.00000000D+00 0.00000000D+00 0.00000000D+00 0.00000000D+00 0.00000000D+00
  <mgrwgt>
 -.3162532177D-01    3    2    0
 0.587362191136576D+03 0.000000000000000D+00 0.000000000000000D+00 0.587362191136576D+03
 0.587362191136576D+03 0.000000000000000D+00 0.000000000000000D+00 -.587362191136576D+03
 0.308662859144706D+03 0.976916456346242D+02 -.127120774290951D+03 0.232259363066922D+03
 0.438267548243255D+03 0.287083843954544D+03 -.401365763340922D+02 -.315808667201543D+03
 0.427793974885192D+03 -.384775489589168D+03 0.167257350625043D+03 0.835493041346207D+02
 0.000000000000000D+00 -.000000000000000D+00 -.000000000000000D+00 0.000000000000000D+00
 0.715192209612881D+03 0.000000000000000D+00 0.000000000000000D+00 0.715192209612881D+03
 0.622082477406741D+03 0.000000000000000D+00 0.000000000000000D+00 -.622082477406741D+03
 0.297964987810248D+03 0.100865027195713D+03 -.950787490310886D+02 0.232259363066922D+03
 0.439504057113444D+03 0.291675628260637D+03 0.622723649185945D+01 -.315808667201543D+03
 0.443893158103115D+03 -.380215534274309D+03 0.213299782198388D+03 0.835493041346207D+02
 0.155912483992815D+03 -.123251211820417D+02 -.124448269659158D+03 0.931097322061400D+02
-.642843286886D-03 0.000000000000D+00 0.000000000000D+00 0.784537848684D-08 0.000000000000D+00  6 21 2 25 23 2 21 4 0.80624589D-01 0.12583969D+00 0.27737549D+06 0.27737549D+06 0.27737549D+06 0.11249396D+01  1  2 13  1  6  1       21 -.534632441160D-01 0.100000000000D+01
-.498598321793D-03 0.000000000000D+00 0.000000000000D+00 0.784537848684D-08 0.000000000000D+00  6 21 2 25 23 2 21 4 0.85211630D-01 0.12583969D+00 0.27737549D+06 0.27737549D+06 0.27737549D+06 0.11249396D+01  1  2 13  1  6  1       21 -.364382705990D-01 0.100000000000D+01
0.722015212971D-03 0.000000000000D+00 0.000000000000D+00 0.797599002035D-08 0.613093389904D-11  6 21 2 25 23 2 21 4 0.79010430D-01 0.13327835D+00 0.27737549D+06 0.27737549D+06 0.27737549D+06 0.11249396D+01  1  2  1  1  6  1       21 0.582761929405D-01 0.100000000000D+01
  </mgrwgt>
  </event>
  <event>
  6     66 -.38225901E-03 0.44991944E+03 0.75467711E-02 0.10169421E+00
       21 -1    0    0  501  503 0.00000000E+00 0.00000000E+00 0.37383412E+03 0.37383487E+03 0.75000000E+00 0.0000E+00 0.9000E+01
        2 -1    0    0  502    0 0.00000000E+00 0.00000000E+00 -.15143941E+04 0.15143942E+04 0.32000000E+00 0.0000E+00 0.9000E+01
       25  1    1    2    0    0 0.18347313E+03 0.24658155E+03 -.94803543E+03 0.10044207E+04 0.12500000E+03 0.0000E+00 0.9000E+01
       23  1    1    2    0    0 0.10592903E+03 0.85042640E+02 -.34061376E+03 0.37787061E+03 0.91188000E+02 0.0000E+00 0.9000E+01
        2  1    1    2  501    0 -.29911858E+03 -.34971329E+03 0.12908187E+03 0.47794722E+03 0.32000000E+00 0.0000E+00 0.9000E+01
       21  1    1    2  502  503 0.97164167E+01 0.18089106E+02 0.19007321E+02 0.27990450E+02 0.75000000E+00 0.0000E+00 0.9000E+01
#aMCatNLO 2  0  0  1  5 0.20533497D+02 0.00000000D+00  -5  6  0 0.00000000D+00 0.00000000D+00 0.00000000D+00 0.00000000D+00 0.00000000D+00
  <mgrwgt>
 -.3080172946D-01    6    2    0
 0.727232689846701D+03 0.000000000000000D+00 0.000000000000000D+00 0.727232689846701D+03
 0.727232689846701D+03 0.000000000000000D+00 0.000000000000000D+00 -.727232689846701D+03
 0.533113051634646D+03 0.187019860347970D+03 0.253184506526325D+03 -.411710703423717D+03
 0.213502850496650D+03 0.107349286085643D+03 0.876867281803313D+02 -.134370325236364D+03
 0.707849477562106D+03 -.294369146433613D+03 -.340871234706656D+03 0.546081028660081D+03
 0.000000000000000D+00 0.000000000000000D+00 0.000000000000000D+00 0.000000000000000D+00
 0.776086477773634D+03 0.000000000000000D+00 0.000000000000000D+00 0.776086477773634D+03
 0.729465945673687D+03 0.000000000000000D+00 0.000000000000000D+00 -.729465945673687D+03
 0.528767965058586D+03 0.183473139840790D+03 0.246581557533218D+03 -.411710703423717D+03
 0.211716433919395D+03 0.105929038494455D+03 0.850426454613202D+02 -.134370325236364D+03
 0.714125914900188D+03 -.299118595012003D+03 -.349713309137104D+03 0.546081028660081D+03
 0.509421095691525D+02 0.971641667675786D+01 0.180891061425659D+02 0.466205320999466D+02
-.803998387585D-03 0.000000000000D+00 0.000000000000D+00 0.309590262579D-06 0.000000000000D+00  6 21 2 25 23 2 21 4 0.57592370D-01 0.23226962D+00 0.23820662D+06 0.23820662D+06 0.23820662D+06 0.11304544D+01  1  2 13  1  6  1       21 -.563071217917D-01 0.100000000000D+01
-.674783601539D-03 0.000000000000D+00 0.000000000000D+00 0.309590262579D-06 0.000000000000D+00  6 21 2 25 23 2 21 4 0.58265272D-01 0.23226962D+00 0.23820662D+06 0.23820662D+06 0.23820662D+06 0.11304544D+01  1  2 13  1  6  1       21 -.460744069708D-01 0.100000000000D+01
-.281426735203D-03 0.000000000000D+00 0.000000000000D+00 0.310468580792D-06 0.000000000000D+00  6 21 2 25 23 2 21 4 0.53892418D-01 0.23226962D+00 0.22799676D+06 0.22799676D+06 0.22799676D+06 0.11320568D+01  1  2  8  1  6  1       21 -.229589893050D-01 0.100000000000D+01
-.516552263239D-05 0.000000000000D+00 0.000000000000D+00 0.310468580792D-06 0.000000000000D+00  6 21 2 25 23 2 21 4 0.57611157D-01 0.23226962D+00 0.22799676D+06 0.22799676D+06 0.22799676D+06 0.11320568D+01  1  2  9  1  6  1       21 -.364691173420D-03 0.100000000000D+01
0.512047426032D-05 0.000000000000D+00 0.000000000000D+00 0.310468580792D-06 0.000000000000D+00  6 21 2 25 23 2 21 4 0.53892418D-01 0.23226962D+00 0.22799676D+06 0.22799676D+06 0.22799676D+06 0.11320568D+01  1  2 10  1  6  1       21 0.417731860814D-03 0.100000000000D+01
0.135297007245D-02 0.000000000000D+00 0.000000000000D+00 0.310468580792D-06 0.794724961347D-08  6 21 2 25 23 2 21 4 0.57512784D-01 0.23298289D+00 0.23820662D+06 0.23820662D+06 0.23820662D+06 0.11304544D+01  1  2  1  1  6  1       21 0.944857479197D-01 0.100000000000D+01
  </mgrwgt>
  </event>
  <event>
  5     66 -.38225901E-03 0.70085526E+02 0.75467711E-02 0.11186464E+00
       21 -1    0    0  501  502 0.00000000E+00 0.00000000E+00 0.93462434E+02 0.93465443E+02 0.75000000E+00 0.0000E+00 0.9000E+01
        2 -1    0    0  502    0 0.00000000E+00 0.00000000E+00 -.46296431E+03 0.46296442E+03 0.32000000E+00 0.0000E+00 0.9000E+01
       25  1    1    2    0    0 0.60726851E+02 0.98076674E+02 -.19988390E+03 0.26246021E+03 0.12500000E+03 0.0000E+00 0.9000E+01
       23  1    1    2    0    0 -.44691846E+02 -.29850327E+02 -.19297191E+03 0.22009501E+03 0.91188000E+02 0.0000E+00 0.9000E+01
        2  1    1    2  501    0 -.16035005E+02 -.68226347E+02 0.23353934E+02 0.73874654E+02 0.32000000E+00 0.0000E+00 0.9000E+01
#aMCatNLO 1  0  0  1  5 0.20533497D+02 0.00000000D+00  -5  6  0 0.00000000D+00 0.00000000D+00 0.00000000D+00 0.00000000D+00 0.00000000D+00
  <mgrwgt>
 -.2301955802D-01   12    2    0
 0.208015959524332D+03 0.000000000000000D+00 0.000000000000000D+00 0.208015959524332D+03
 0.208015959524332D+03 0.000000000000000D+00 0.000000000000000D+00 -.208015959524332D+03
 0.173504135327399D+03 0.607268750268385D+02 0.980767761130756D+02 -.342326980013079D+02
 0.122980862518922D+03 -.446918288028796D+02 -.298502547074432D+02 -.626150455885233D+02
 0.119546921202344D+03 -.160350462239589D+02 -.682265214056324D+02 0.968477435898312D+02
 0.000000000000000D+00 0.000000000000000D+00 0.000000000000000D+00 0.000000000000000D+00
 0.469090841023604D+03 0.000000000000000D+00 0.000000000000000D+00 0.469090841023604D+03
 0.227498474598278D+03 0.000000000000000D+00 0.000000000000000D+00 -.227498474598278D+03
 0.151396588980327D+03 0.255108516053075D+02 0.739813895030444D+02 -.342326980013079D+02
 0.141661365351323D+03 -.733764275056443D+02 -.494767323259847D+02 -.626150455885233D+02
 0.137577677981544D+03 -.439048083687035D+02 -.872954743526781D+02 0.968477435898312D+02
 0.265953683308689D+03 0.917703842690403D+02 0.627908171756184D+02 0.241592366425326D+03
0.313020185991D-05 0.000000000000D+00 0.000000000000D+00 0.289284440707D-06 0.000000000000D+00  6 21 2 25 23 2 21 2 0.14379076D-01 0.71225519D-01 0.29933557D+05 0.29933557D+05 0.29933557D+05 0.12149995D+01  1  2  2  1  6  1       21 0.166350346205D-01 0.100000000000D+01
0.241796121109D-07 0.165185290357D-06 -.631897570402D-08 0.289284440707D-06 0.000000000000D+00  6 21 2 25 23 2 21 4 0.14379076D-01 0.71225519D-01 0.29933557D+05 0.29933557D+05 0.29933557D+05 0.12149995D+01  1  2  3  1  6  1       21 0.189693685141D-03 0.100000000000D+01
0.325401233919D-06 0.000000000000D+00 0.000000000000D+00 0.289284440707D-06 0.000000000000D+00  6 21 2 25 23 2 21 4 0.14379076D-01 0.71225519D-01 0.29933557D+05 0.29933557D+05 0.29933557D+05 0.12149995D+01  1  2 15  1  6  1       21 0.255283496395D-02 0.100000000000D+01
-.235870261850D-04 0.000000000000D+00 -.539173578647D-05 0.289284440707D-06 0.000000000000D+00  6 21 2 25 23 2 21 4 0.34831688D-01 0.71225519D-01 0.29933557D+05 0.29933557D+05 0.29933557D+05 0.12149995D+01  1  2  5  1  6  1       21 -.348604085503D-01 0.100000000000D+01
-.678104888125D-05 0.000000000000D+00 -.164839806707D-05 0.289284440707D-06 0.000000000000D+00  6 -1 2 25 23 2 -1 4 0.34831688D-01 0.71225519D-01 0.29933557D+05 0.29933557D+05 0.29933557D+05 0.12149995D+01  1  2  5  4  6  1       21 -.908144516674D-03 0.100000000000D+01
-.678104888125D-05 0.000000000000D+00 -.164839806707D-05 0.289284440707D-06 0.000000000000D+00  6 -3 2 25 23 2 -3 4 0.34831688D-01 0.71225519D-01 0.29933557D+05 0.29933557D+05 0.29933557D+05 0.12149995D+01  1  2  5  4  6  1       21 -.499236576676D-03 0.100000000000D+01
-.678104888125D-05 0.000000000000D+00 -.164839806707D-05 0.289284440707D-06 0.000000000000D+00  6 1 2 25 23 2 1 4 0.34831688D-01 0.71225519D-01 0.29933557D+05 0.29933557D+05 0.29933557D+05 0.12149995D+01  1  2  5  5  6  1       21 -.170880573319D-02 0.100000000000D+01
-.678104888125D-05 0.000000000000D+00 -.164839806707D-05 0.289284440707D-06 0.000000000000D+00  6 3 2 25 23 2 3 4 0.34831688D-01 0.71225519D-01 0.29933557D+05 0.29933557D+05 0.29933557D+05 0.12149995D+01  1  2  5  5  6  1       21 -.499289047262D-03 0.100000000000D+01
-.678104888125D-05 0.000000000000D+00 -.164839806707D-05 0.289284440707D-06 0.000000000000D+00  6 -2 2 25 23 2 -2 4 0.34831688D-01 0.71225519D-01 0.29933557D+05 0.29933557D+05 0.29933557D+05 0.12149995D+01  1  2  5  6  6  1       21 -.782858758252D-03 0.100000000000D+01
-.678104888125D-05 0.000000000000D+00 -.164839806707D-05 0.289284440707D-06 0.000000000000D+00  6 2 2 25 23 2 2 4 0.34831688D-01 0.71225519D-01 0.29933557D+05 0.29933557D+05 0.29933557D+05 0.12149995D+01  1  2  5  7  6  1       21 -.230218343278D-02 0.100000000000D+01
-.678104888125D-05 0.000000000000D+00 -.164839806707D-05 0.289284440707D-06 0.000000000000D+00  6 -4 2 25 23 2 -4 4 0.34831688D-01 0.71225519D-01 0.29933557D+05 0.29933557D+05 0.29933557D+05 0.12149995D+01  1  2  5  8  6  1       21 -.418097338565D-03 0.100000000000D+01
-.678104888125D-05 0.000000000000D+00 -.164839806707D-05 0.289284440707D-06 0.000000000000D+00  6 4 2 25 23 2 4 4 0.34831688D-01 0.71225519D-01 0.29933557D+05 0.29933557D+05 0.29933557D+05 0.12149995D+01  1  2  5  9  6  1       21 -.418097338565D-03 0.100000000000D+01
  </mgrwgt>
  </event>
  <event>
  6     66 0.38225901E-03 0.36164050E+02 0.75467711E-02 0.11838518E+00
       21 -1    0    0  503  502 0.00000000E+00 0.00000000E+00 0.17208215E+03 0.17208379E+03 0.75000000E+00 0.0000E+00 0.9000E+01
        2 -1    0    0  502    0 0.00000000E+00 0.00000000E+00 -.62893317E+03 0.62893326E+03 0.32000000E+00 0.0000E+00 0.9000E+01
       25  1    1    2    0    0 0.31636587E+02 -.59350220E+02 -.33931639E+03 0.36780964E+03 0.12500000E+03 0.0000E+00 0.9000E+01
       23  1    1    2    0    0 -.59501761E+02 0.58900619E+02 -.23499694E+03 0.26560978E+03 0.91188000E+02 0.0000E+00 0.9000E+01
        2  1    1    2  501    0 -.16927258E+02 0.57793427E+01 -.17663028E+02 0.25139965E+02 0.32000000E+00 0.0000E+00 0.9000E+01
       21  1    1    2  503  501 0.44792432E+02 -.53297417E+01 0.13512533E+03 0.14245766E+03 0.75000000E+00 0.0000E+00 0.9000E+01
#aMCatNLO 2  0  0  1  1 0.97692095D+01 0.00000000D+00  -5  6  0 0.00000000D+00 0.00000000D+00 0.00000000D+00 0.00000000D+00 0.00000000D+00
  <mgrwgt>
 0.4776775457D+00    1    2    0
 0.142504117714706D+03 0.000000000000000D+00 0.000000000000000D+00 0.142504117714706D+03
 0.142504117714706D+03 0.000000000000000D+00 0.000000000000000D+00 -.142504117714706D+03
 0.151191454463841D+03 0.546378376023501D+02 -.620873773058271D+02 -.198423835341115D+02
 0.115182237880432D+03 -.408148762068117D+02 0.566768883281965D+02 0.857745817828610D+01
 0.186345430851396D+02 -.138229613955384D+02 0.541048897763063D+01 0.112649253558254D+02
 0.000000000000000D+00 0.000000000000000D+00 -.000000000000000D+00 0.000000000000000D+00
 0.745767687994928D+03 0.000000000000000D+00 0.000000000000000D+00 0.745767687994928D+03
 0.145123631095888D+03 0.000000000000000D+00 0.000000000000000D+00 -.145123631095888D+03
 0.143325343035503D+03 0.316375756710419D+02 -.593506324952723D+02 -.198423835341115D+02
 0.124090365314581D+03 -.595008479177581D+02 0.589002863165688D+02 0.857745817828610D+01
 0.211401135488914D+02 -.169291595091200D+02 0.578008788016870D+01 0.112649253558254D+02
 0.602335497191841D+03 0.447924317558363D+02 -.532974170146522D+01 0.600644056899040D+03
0.262625424559D-03 0.000000000000D+00 0.000000000000D+00 0.962151308250D-06 0.111717739581D-06  6 21 2 25 23 2 21 4 0.26474267D-01 0.96758927D-01 0.27016815D+05 0.27016815D+05 0.27016815D+05 0.12197016D+01  1  2  1  1  6  1       21 0.477677545702D+00 0.100000000000D+01
  </mgrwgt>
  </event>
  <event>
  5     66 0.38225901E-03 0.20119735E+02 0.75467711E-02 0.11913966E+00
       21 -1    0    0  501  502 0.00000000E+00 0.00000000E+00 0.95517099E+01 0.95811096E+01 0.75000000E+00 0.0000E+00 0.9000E+01
        2 -1    0    0  502    0 0.00000000E+00 0.00000000E+00 -.27503933E+04 0.27503934E+04 0.32000000E+00 0.0000E+00 0.9000E+01
       25  1    1    2    0    0 0.94561994E+02 -.45974014E+02 -.15236833E+04 0.15324136E+04 0.12500000E+03 0.0000E+00 0.9000E+01
       23  1    1    2    0    0 -.91520299E+02 0.26086707E+02 -.11478085E+04 0.11553511E+04 0.91188000E+02 0.0000E+00 0.9000E+01
        2  1    1    2  501    0 -.30416949E+01 0.19887307E+02 -.69349781E+02 0.72209774E+02 0.32000000E+00 0.0000E+00 0.9000E+01
#aMCatNLO 1  0  0  2  1 0.14588633D+02 0.00000000D+00  -5  6  0 0.00000000D+00 0.00000000D+00 0.00000000D+00 0.00000000D+00 0.00000000D+00
  <mgrwgt>
 0.4497813876D+00    9    2    0
 0.162208371944352D+03 0.000000000000000D+00 0.000000000000000D+00 0.162208371944352D+03
 0.162208371944352D+03 0.000000000000000D+00 0.000000000000000D+00 -.162208371944352D+03
 0.164134043183624D+03 0.945620917928386D+02 -.459746519849681D+02 -.161036114715789D+02
 0.131861498680424D+03 -.915202209605376D+02 0.260861945212444D+02 -.397027719204552D+01
 0.284212020246565D+02 -.304187083230101D+01 0.198884574637237D+02 0.200738886636244D+02
 0.000000000000000D+00 -.000000000000000D+00 0.000000000000000D+00 -.000000000000000D+00
 0.164654243174580D+03 0.000000000000000D+00 0.000000000000000D+00 0.164654243174580D+03
 0.185688826673581D+03 0.000000000000000D+00 0.000000000000000D+00 -.185688826673581D+03
 0.168542272563412D+03 0.991513429013901D+02 -.518766087872248D+02 -.161036114715789D+02
 0.128542397943464D+03 -.879279638184301D+02 0.214664110372222D+02 -.397027719204552D+01
 0.276599244149309D+02 -.226823483989873D+01 0.188935312546694D+02 0.200738886636244D+02
 0.255984749263543D+02 -.895514424306124D+01 0.115166664953332D+02 -.210345834990005D+02
0.317480309126D-05 0.000000000000D+00 0.000000000000D+00 0.688783888819D-06 0.000000000000D+00  6 21 2 25 23 2 21 2 0.14717568D-02 0.42313970D+00 0.24847784D+05 0.24847784D+05 0.24847784D+05 0.12235821D+01  1  2  2  2  6  2        2 0.370566323282D-01 0.100000000000D+01
0.380369182313D-06 0.167538961999D-06 -.640901273994D-08 0.688783888819D-06 0.000000000000D+00  6 21 2 25 23 2 21 4 0.14717568D-02 0.42313970D+00 0.24847784D+05 0.24847784D+05 0.24847784D+05 0.12235821D+01  1  2  3  2  6  2        2 0.664692400646D-02 0.100000000000D+01
0.215880460214D-06 0.000000000000D+00 0.000000000000D+00 0.688783888819D-06 0.000000000000D+00  6 21 2 25 23 2 21 4 0.14717568D-02 0.42313970D+00 0.24847784D+05 0.24847784D+05 0.24847784D+05 0.12235821D+01  1  2 15  2  6  2        2 0.377249546032D-02 0.100000000000D+01
0.328142958941D-04 0.000000000000D+00 0.000000000000D+00 0.684065450840D-06 0.000000000000D+00  6 21 2 25 23 2 21 4 0.14717568D-02 0.48728576D+00 0.27203569D+05 0.27203569D+05 0.27203569D+05 0.12193839D+01  1  2 12  2  6  2        2 0.323808890277D+00 0.100000000000D+01
-.174716968631D-04 0.000000000000D+00 0.000000000000D+00 0.688783888819D-06 0.000000000000D+00  6 21 2 25 23 2 21 4 0.14717568D-02 0.42313970D+00 0.24847784D+05 0.24847784D+05 0.24847784D+05 0.12235821D+01  1  2  4  2  6  2        2 -.305316641603D+00 0.100000000000D+01
-.512899009345D-04 0.000000000000D+00 -.624340195362D-05 0.688783888819D-06 0.000000000000D+00  6 21 2 25 23 2 21 4 0.14717568D-02 0.48624367D+00 0.24847784D+05 0.24847784D+05 0.24847784D+05 0.12235821D+01  1  2  5  2  6  2        2 -.519511350606D+00 0.100000000000D+01
0.517171471233D-04 0.000000000000D+00 0.618356293455D-05 0.688783888819D-06 0.000000000000D+00  6 21 2 25 23 2 21 4 0.14717568D-02 0.42313970D+00 0.24847784D+05 0.24847784D+05 0.24847784D+05 0.12235821D+01  1  2  6  2  6  2        2 0.903753413116D+00 0.100000000000D+01
0.712371334112D-06 0.000000000000D+00 0.000000000000D+00 0.684065450840D-06 0.000000000000D+00  6 21 21 25 23 2 -2 4 0.14717568D-02 0.48728576D+00 0.27203569D+05 0.27203569D+05 0.27203569D+05 0.12193839D+01  1  2 12 10  6  2        2 0.772420753946D-03 0.100000000000D+01
-.106183192568D-05 0.000000000000D+00 -.133852264283D-06 0.688783888819D-06 0.000000000000D+00  6 21 21 25 23 2 -2 4 0.14717568D-02 0.48624367D+00 0.24847784D+05 0.24847784D+05 0.24847784D+05 0.12235821D+01  1  2  5 10  6  2        2 -.120139612184D-02 0.100000000000D+01
  </mgrwgt>
  </event>
  <event>
  6     66 -.38225901E-03 0.34232491E+02 0.75467711E-02 0.11434109E+00
       21 -1    0    0  503  502 0.00000000E+00 0.00000000E+00 0.77426962E+02 0.77430595E+02 0.75000000E+00 0.0000E+00 0.9000E+01
        2 -1    0    0  502    0 0.00000000E+00 0.00000000E+00 -.68502247E+03 0.68502254E+03 0.32000000E+00 0.0000E+00 0.9000E+01
       25  1    1    2    0    0 0.12952754E+03 0.41100122E+02 -.17690816E+03 0.25571097E+03 0.12500000E+03 0.0000E+00 0.9000E+01
       23  1    1    2    0    0 -.15028214E+03 -.22073524E+02 -.41444277E+03 0.45072166E+03 0.91188000E+02 0.0000E+00 0.9000E+01
        2  1    1    2  501    0 0.27373040E+02 -.30089945E+02 -.11661330E+02 0.42317575E+02 0.32000000E+00 0.0000E+00 0.9000E+01
       21  1    1    2  503  501 -.66184467E+01 0.11063347E+02 -.45832503E+01 0.13702926E+02 0.75000000E+00 0.0000E+00 0.9000E+01
#aMCatNLO 2  0  0  1  2 0.12891916D+02 0.00000000D+00  -5  6  0 0.00000000D+00 0.00000000D+00 0.00000000D+00 0.00000000D+00 0.00000000D+00
  <mgrwgt>
 -.6501745285D-01    3    2    0
 0.221831522237137D+03 0.000000000000000D+00 0.000000000000000D+00 0.221831522237137D+03
 0.221831522237137D+03 0.000000000000000D+00 0.000000000000000D+00 -.221831522237137D+03
 0.190196644436247D+03 0.126684473831782D+03 0.458524580865836D+02 0.489730510810881D+02
 0.199057417775649D+03 -.153237961992102D+03 -.171327074631653D+02 -.867940180369470D+02
 0.544089822623782D+02 0.265534881603205D+02 -.287197506234182D+02 0.378209669558589D+02
 0.000000000000000D+00 -.000000000000000D+00 0.000000000000000D+00 0.000000000000000D+00
 0.235803649891766D+03 0.000000000000000D+00 0.000000000000000D+00 0.235803649891766D+03
 0.224919022915598D+03 0.000000000000000D+00 0.000000000000000D+00 -.224919022915598D+03
 0.191023375969144D+03 0.129527343053576D+03 0.411003386353365D+02 0.489730510810881D+02
 0.197282702869681D+03 -.150282337759286D+03 -.220733073682423D+02 -.867940180369470D+02
 0.555442321024987D+02 0.273734414477235D+02 -.300903785567436D+02 0.378209669558589D+02
 0.168723618660399D+02 -.661844674201309D+01 0.110633472896494D+02 0.108846269761687D+02
-.169440042361D-04 0.000000000000D+00 0.000000000000D+00 0.185327584990D-06 0.000000000000D+00  6 21 2 25 23 2 21 4 0.11986508D-01 0.10393786D+00 0.43133869D+05 0.43133869D+05 0.43133869D+05 0.11986878D+01  1  2 13  1  6  1       21 -.113301854878D+00 0.100000000000D+01
-.124181635914D-05 0.000000000000D+00 0.000000000000D+00 0.186214496105D-06 0.000000000000D+00  6 21 2 25 23 2 21 4 0.11205882D-01 0.10393786D+00 0.40408299D+05 0.40408299D+05 0.40408299D+05 0.12015526D+01  1  2  8  1  6  1       21 -.946356873067D-02 0.100000000000D+01
0.868218807171D-05 0.000000000000D+00 0.000000000000D+00 0.186214496105D-06 0.111393414884D-07  6 21 2 25 23 2 21 4 0.11911688D-01 0.10538449D+00 0.43133869D+05 0.43133869D+05 0.43133869D+05 0.11986878D+01  1  2  1  1  6  1       21 0.577479707622D-01 0.100000000000D+01
  </mgrwgt>
  </event>
  <event>
  6     66 0.38225901E-03 0.90222673E+02 0.75467711E-02 0.11081010E+00
       21 -1    0    0  501  502 0.00000000E+00 0.00000000E+00 0.18232520E+03 0.18232674E+03 0.75000000E+00 0.0000E+00 0.9000E+01
        2 -1    0    0  503    0 0.00000000E+00 0.00000000E+00 -.60365689E+03 0.60365697E+03 0.32000000E+00 0.0000E+00 0.9000E+01
       25  1    1    2    0    0 -.25116186E+02 0.76807954E+02 -.10579906E+03 0.18261633E+03 0.12500000E+03 0.0000E+00 0.9000E+01
       23  1    1    2    0    0 -.20148658E+02 0.22412716E+01 -.22602736E+02 0.96109972E+02 0.91188000E+02 0.0000E+00 0.9000E+01
        2  1    1    2  501    0 -.62448180E+02 -.13821665E+03 -.34262502E+03 0.37469404E+03 0.32000000E+00 0.0000E+00 0.9000E+01
       21  1    1    2  503  502 0.10771302E+03 0.59167421E+02 0.49695119E+02 0.13256337E+03 0.75000000E+00 0.0000E+00 0.9000E+01
#aMCatNLO 2  0  0  2  1 0.17495236D+03 0.00000000D+00  -5  6  0 0.00000000D+00 0.00000000D+00 0.00000000D+00 0.00000000D+00 0.00000000D+00
  <mgrwgt>
 0.9423366977D-02    1    2    0
 0.217938643190321D+03 0.000000000000000D+00 0.000000000000000D+00 0.217938643190321D+03
 0.217938643190321D+03 0.000000000000000D+00 0.000000000000000D+00 -.217938643190321D+03
 0.163647561040098D+03 0.133143630794933D+02 0.979181693767912D+02 0.372865133266453D+02
 0.114977481766500D+03 0.774347458527340D+01 0.175626468767890D+02 0.673510356668281D+02
 0.157252243574044D+03 -.210578376647667D+02 -.115480816253580D+03 -.104637548993473D+03
 0.000000000000000D+00 0.000000000000000D+00 0.000000000000000D+00 0.000000000000000D+00
 0.452702046888513D+03 0.000000000000000D+00 0.000000000000000D+00 0.452702046888513D+03
 0.243122393033087D+03 0.000000000000000D+00 0.000000000000000D+00 -.243122393033087D+03
 0.153445694006655D+03 -.251161854137036D+02 0.768080344976386D+02 0.372865133266453D+02
 0.115162516609691D+03 -.201486556541932D+02 0.224132947414343D+01 0.673510356668281D+02
 0.184262508279078D+03 -.624481826921258D+02 -.138216785436453D+03 -.104637548993473D+03
 0.242953721026177D+03 0.107713023760023D+03 0.591674214646709D+02 0.209579653855426D+03
0.646750961698D-05 0.000000000000D+00 0.000000000000D+00 0.995356117158D-07 0.266310933954D-09  6 21 2 25 23 2 21 4 0.28050092D-01 0.92870207D-01 0.66776826D+05 0.66776826D+05 0.66776826D+05 0.11800342D+01  1  2  1  2  6  2        2 0.942336697686D-02 0.100000000000D+01
  </mgrwgt>
  </event>
  <event>
  6     66 -.38225901E-03 0.79940971E+02 0.75467711E-02 0.10251699E+00
       21 -1    0    0  503  502 0.00000000E+00 0.00000000E+00 0.54264492E+02 0.54269675E+02 0.75000000E+00 0.0000E+00 0.9000E+01
        2 -1    0    0  502    0 0.00000000E+00 0.00000000E+00 -.43242597E+04 0.43242597E+04 0.32000000E+00 0.0000E+00 0.9000E+01
       25  1    1    2    0    0 -.29692874E+03 -.25998026E+03 -.16419778E+04 0.16933613E+04 0.12500000E+03 0.0000E+00 0.9000E+01
       23  1    1    2    0    0 0.20241800E+03 0.18148426E+03 -.19961534E+04 0.20166440E+04 0.91188000E+02 0.0000E+00 0.9000E+01
        2  1    1    2  501    0 0.12528177E+03 -.72514592E+01 -.32366265E+03 0.34713934E+03 0.32000000E+00 0.0000E+00 0.9000E+01
       21  1    1    2  503  501 -.30771042E+02 0.85747455E+02 -.30820147E+03 0.32138480E+03 0.75000000E+00 0.0000E+00 0.9000E+01
#aMCatNLO 2  0  0  1  2 0.91101499D+02 0.00000000D+00  -5  6  0 0.00000000D+00 0.00000000D+00 0.00000000D+00 0.00000000D+00 0.00000000D+00
  <mgrwgt>
 -.2971954007D-01    2    2    0
 0.434831309971812D+03 0.000000000000000D+00 0.000000000000000D+00 0.434831309971812D+03
 0.434831309971812D+03 0.000000000000000D+00 0.000000000000000D+00 -.434831309971812D+03
 0.404614988711756D+03 -.311432796181694D+03 -.219563249696190D+03 0.537576221155142D+02
 0.325185429625737D+03 0.191162865260100D+03 0.212847815301529D+03 -.124831401353147D+03
 0.139862201606130D+03 0.120269930921594D+03 0.671543439466072D+01 0.710737792376327D+02
 0.000000000000000D+00 -.000000000000000D+00 0.000000000000000D+00 0.000000000000000D+00
 0.497658416651956D+03 0.000000000000000D+00 0.000000000000000D+00 0.497658416651956D+03
 0.471535645125133D+03 0.000000000000000D+00 0.000000000000000D+00 -.471535645125133D+03
 0.417458244080681D+03 -.296928878239260D+03 -.259980277873122D+03 0.537576221155142D+02
 0.312742173516344D+03 0.202417883961728D+03 0.181484261687874D+03 -.124831401353147D+03
 0.144220851354566D+03 0.125282035834659D+03 -.725143899093738D+01 0.710737792376327D+02
 0.947727928254983D+02 -.307710415571277D+02 0.857474551761846D+02 0.261227715268223D+02
-.380318602669D-03 0.000000000000D+00 0.000000000000D+00 0.178367878621D-07 0.000000000000D+00  6 21 2 25 23 2 21 4 0.86207109D-02 0.61348453D+00 0.21037100D+06 0.21037100D+06 0.21037100D+06 0.11350183D+01  1  2 13  1  6  1       21 -.349193418421D-01 0.100000000000D+01
0.101185133030D-03 0.000000000000D+00 0.000000000000D+00 0.180961491947D-07 0.180960090703D-10  6 21 2 25 23 2 21 4 0.83487572D-02 0.66526908D+00 0.21037100D+06 0.21037100D+06 0.21037100D+06 0.11350183D+01  1  2  1  1  6  1       21 0.519980177609D-02 0.100000000000D+01
  </mgrwgt>
  </event>
  <event>
  5     66 0.38225901E-03 0.32408201E+02 0.75467711E-02 0.11974904E+00
       21 -1    0    0  501  502 0.00000000E+00 0.00000000E+00 0.22682630E+02 0.22695026E+02 0.75000000E+00 0.0000E+00 0.9000E+01
        2 -1    0    0  502    0 0.00000000E+00 0.00000000E+00 -.85854539E+03 0.85854545E+03 0.32000000E+00 0.0000E+00 0.9000E+01
       25  1    1    2    0    0 -.52034316E+02 -.31574034E+02 -.49477072E+03 0.51393342E+03 0.12500000E+03 0.0000E+00 0.9000E+01
       23  1    1    2    0    0 0.21758232E+02 0.43131299E+02 -.27426109E+03 0.29303264E+03 0.91188000E+02 0.0000E+00 0.9000E+01
        2  1    1    2  501    0 0.30276084E+02 -.11557265E+02 -.66830949E+02 0.74274422E+02 0.32000000E+00 0.0000E+00 0.9000E+01
#aMCatNLO 1  0  0  1  2 0.28665480D+02 0.00000000D+00  -5  6  0 0.00000000D+00 0.00000000D+00 0.00000000D+00 0.00000000D+00 0.00000000D+00
  <mgrwgt>
 0.6653276814D-01   23    2    0
 0.139569177809149D+03 0.000000000000000D+00 0.000000000000000D+00 0.139569177809149D+03
 0.139569177809149D+03 0.000000000000000D+00 0.000000000000000D+00 -.139569177809149D+03
 0.140928576741667D+03 -.520349786690953D+02 -.315737807342442D+02 -.230504036295366D+02
 0.103846624527557D+03 0.217577432330477D+02 0.431314849623286D+02 0.116252181104944D+02
 0.343631543490737D+02 0.302772354360476D+02 -.115577042280844D+02 0.114251855190422D+02
 0.000000000000000D+00 -.000000000000000D+00 0.000000000000000D+00 0.000000000000000D+00
 0.175778399059265D+03 0.000000000000000D+00 0.000000000000000D+00 0.175778399059265D+03
 0.146093912591573D+03 0.000000000000000D+00 0.000000000000000D+00 -.146093912591573D+03
 0.142881697036785D+03 -.470477348978702D+02 -.452257546272785D+02 -.230504036295366D+02
 0.100999073198562D+03 0.253573854040156D+02 0.332779018618084D+02 0.116252181104944D+02
 0.367255933897491D+02 0.315264393836164D+02 -.149772482611397D+02 0.114251855190422D+02
 0.412659480257418D+02 -.983608988976173D+01 0.269251010266099D+02 0.296844864676923D+02
0.539409477908D-06 0.000000000000D+00 0.000000000000D+00 0.393350732176D-06 0.000000000000D+00  6 21 2 25 23 2 21 2 0.34905935D-02 0.13208486D+00 0.18855794D+05 0.18855794D+05 0.18855794D+05 0.12366527D+01  1  2  2  1  6  1       21 0.165119314948D-01 0.100000000000D+01
0.934633026833D-08 0.284654201925D-07 -.108891232514D-08 0.393350732176D-06 0.000000000000D+00  6 21 2 25 23 2 21 4 0.34905935D-02 0.13208486D+00 0.18855794D+05 0.18855794D+05 0.18855794D+05 0.12366527D+01  1  2  3  1  6  1       21 0.437538174714D-03 0.100000000000D+01
0.526043771014D-07 0.000000000000D+00 0.000000000000D+00 0.393350732176D-06 0.000000000000D+00  6 21 2 25 23 2 21 4 0.34905935D-02 0.13208486D+00 0.18855794D+05 0.18855794D+05 0.18855794D+05 0.12366527D+01  1  2 15  1  6  1       21 0.246261607263D-02 0.100000000000D+01
0.121473516216D-05 0.000000000000D+00 0.000000000000D+00 0.387049343679D-06 0.000000000000D+00  6 21 2 25 23 2 21 4 0.44625514D-02 0.13208486D+00 0.23242013D+05 0.23242013D+05 0.23242013D+05 0.12267073D+01  1  2 12  1  6  1       21 0.366705382969D-01 0.100000000000D+01
-.801110423014D-06 0.000000000000D+00 0.000000000000D+00 0.393350732176D-06 0.000000000000D+00  6 21 2 25 23 2 21 4 0.34905935D-02 0.13208486D+00 0.18855794D+05 0.18855794D+05 0.18855794D+05 0.12366527D+01  1  2  4  1  6  1       21 -.375031035890D-01 0.100000000000D+01
-.384463041386D-05 0.000000000000D+00 -.786565865745D-06 0.393350732176D-06 0.000000000000D+00  6 21 2 25 23 2 21 4 0.46016869D-02 0.13208486D+00 0.18855794D+05 0.18855794D+05 0.18855794D+05 0.12366527D+01  1  2  5  1  6  1       21 -.113638637919D+00 0.100000000000D+01
0.350155576350D-05 0.000000000000D+00 0.678295328654D-06 0.393350732176D-06 0.000000000000D+00  6 21 2 25 23 2 21 4 0.34905935D-02 0.13208486D+00 0.18855794D+05 0.18855794D+05 0.18855794D+05 0.12366527D+01  1  2  6  1  6  1       21 0.163921482918D+00 0.100000000000D+01
0.894720850682D-07 0.000000000000D+00 0.000000000000D+00 0.387049343679D-06 0.000000000000D+00  6 -1 2 25 23 2 -1 4 0.44625514D-02 0.13208486D+00 0.23242013D+05 0.23242013D+05 0.23242013D+05 0.12267073D+01  1  2 12  4  6  1       21 0.151437498497D-03 0.100000000000D+01
0.894720850682D-07 0.000000000000D+00 0.000000000000D+00 0.387049343679D-06 0.000000000000D+00  6 -3 2 25 23 2 -3 4 0.44625514D-02 0.13208486D+00 0.23242013D+05 0.23242013D+05 0.23242013D+05 0.12267073D+01  1  2 12  4  6  1       21 0.109397491001D-03 0.100000000000D+01
-.291343847279D-06 0.000000000000D+00 -.669397558593D-07 0.393350732176D-06 0.000000000000D+00  6 -1 2 25 23 2 -1 4 0.46016869D-02 0.13208486D+00 0.18855794D+05 0.18855794D+05 0.18855794D+05 0.12366527D+01  1  2  5  4  6  1       21 -.484287953926D-03 0.100000000000D+01
-.291343847279D-06 0.000000000000D+00 -.669397558593D-07 0.393350732176D-06 0.000000000000D+00  6 -3 2 25 23 2 -3 4 0.46016869D-02 0.13208486D+00 0.18855794D+05 0.18855794D+05 0.18855794D+05 0.12366527D+01  1  2  5  4  6  1       21 -.347178373293D-03 0.100000000000D+01
0.894720850682D-07 0.000000000000D+00 0.000000000000D+00 0.387049343679D-06 0.000000000000D+00  6 1 2 25 23 2 1 4 0.44625514D-02 0.13208486D+00 0.23242013D+05 0.23242013D+05 0.23242013D+05 0.12267073D+01  1  2 12  5  6  1       21 0.168580544539D-03 0.100000000000D+01
0.894720850682D-07 0.000000000000D+00 0.000000000000D+00 0.387049343679D-06 0.000000000000D+00  6 3 2 25 23 2 3 4 0.44625514D-02 0.13208486D+00 0.23242013D+05 0.23242013D+05 0.23242013D+05 0.12267073D+01  1  2 12  5  6  1       21 0.109387435860D-03 0.100000000000D+01
-.291343847279D-06 0.000000000000D+00 -.669397558593D-07 0.393350732176D-06 0.000000000000D+00  6 1 2 25 23 2 1 4 0.46016869D-02 0.13208486D+00 0.18855794D+05 0.18855794D+05 0.18855794D+05 0.12366527D+01  1  2  5  5  6  1       21 -.540991537265D-03 0.100000000000D+01
-.291343847279D-06 0.000000000000D+00 -.669397558593D-07 0.393350732176D-06 0.000000000000D+00  6 3 2 25 23 2 3 4 0.46016869D-02 0.13208486D+00 0.18855794D+05 0.18855794D+05 0.18855794D+05 0.12366527D+01  1  2  5  5  6  1       21 -.347145373672D-03 0.100000000000D+01
0.894720850682D-07 0.000000000000D+00 0.000000000000D+00 0.387049343679D-06 0.000000000000D+00  6 -2 2 25 23 2 -2 4 0.44625514D-02 0.13208486D+00 0.23242013D+05 0.23242013D+05 0.23242013D+05 0.12267073D+01  1  2 12  6  6  1       21 0.148403759435D-03 0.100000000000D+01
-.291343847279D-06 0.000000000000D+00 -.669397558593D-07 0.393350732176D-06 0.000000000000D+00  6 -2 2 25 23 2 -2 4 0.46016869D-02 0.13208486D+00 0.18855794D+05 0.18855794D+05 0.18855794D+05 0.12366527D+01  1  2  5  6  6  1       21 -.474257133940D-03 0.100000000000D+01
0.894720850682D-07 0.000000000000D+00 0.000000000000D+00 0.387049343679D-06 0.000000000000D+00  6 2 2 25 23 2 2 4 0.44625514D-02 0.13208486D+00 0.23242013D+05 0.23242013D+05 0.23242013D+05 0.12267073D+01  1  2 12  7  6  1       21 0.180126752522D-03 0.100000000000D+01
-.291343847279D-06 0.000000000000D+00 -.669397558593D-07 0.393350732176D-06 0.000000000000D+00  6 2 2 25 23 2 2 4 0.46016869D-02 0.13208486D+00 0.18855794D+05 0.18855794D+05 0.18855794D+05 0.12366527D+01  1  2  5  7  6  1       21 -.579130065732D-03 0.100000000000D+01
0.894720850682D-07 0.000000000000D+00 0.000000000000D+00 0.387049343679D-06 0.000000000000D+00  6 -4 2 25 23 2 -4 4 0.44625514D-02 0.13208486D+00 0.23242013D+05 0.23242013D+05 0.23242013D+05 0.12267073D+01  1  2 12  8  6  1       21 0.979254752625D-04 0.100000000000D+01
-.291343847279D-06 0.000000000000D+00 -.669397558593D-07 0.393350732176D-06 0.000000000000D+00  6 -4 2 25 23 2 -4 4 0.46016869D-02 0.13208486D+00 0.18855794D+05 0.18855794D+05 0.18855794D+05 0.12366527D+01  1  2  5  8  6  1       21 -.309895653234D-03 0.100000000000D+01
0.894720850682D-07 0.000000000000D+00 0.000000000000D+00 0.387049343679D-06 0.000000000000D+00  6 4 2 25 23 2 4 4 0.44625514D-02 0.13208486D+00 0.23242013D+05 0.23242013D+05 0.23242013D+05 0.12267073D+01  1  2 12  9  6  1       21 0.979254752625D-04 0.100000000000D+01
-.291343847279D-06 0.000000000000D+00 -.669397558593D-07 0.393350732176D-06 0.000000000000D+00  6 4 2 25 23 2 4 4 0.46016869D-02 0.13208486D+00 0.18855794D+05 0.18855794D+05 0.18855794D+05 0.12366527D+01  1  2  5  9  6  1       21 -.309895653234D-03 0.100000000000D+01
  </mgrwgt>
  </event>
  <event>
  5     66 0.38225901E-03 0.23100531E+02 0.75467711E-02 0.11575262E+00
       21 -1    0    0  501  502 0.00000000E+00 0.00000000E+00 0.90577754E+01 0.90887730E+01 0.75000000E+00 0.0000E+00 0.9000E+01
        2 -1    0    0  502    0 0.00000000E+00 0.00000000E+00 -.22713167E+04 0.22713167E+04 0.32000000E+00 0.0000E+00 0.9000E+01
       25  1    1    2    0    0 0.36358550E+02 0.24048426E+02 -.68575869E+03 0.69841983E+03 0.12500000E+03 0.0000E+00 0.9000E+01
       23  1    1    2    0    0 -.31116428E+02 -.46544233E+02 -.13773189E+04 0.13814692E+04 0.91188000E+02 0.0000E+00 0.9000E+01
        2  1    1    2  501    0 -.52421216E+01 0.22495807E+02 -.19918132E+03 0.20051644E+03 0.32000000E+00 0.0000E+00 0.9000E+01
#aMCatNLO 1  0  0  2  1 0.10035180D+03 0.00000000D+00  -5  6  0 0.00000000D+00 0.00000000D+00 0.00000000D+00 0.00000000D+00 0.00000000D+00
  <mgrwgt>
 0.5020391321D+00    6    2    0
 0.143556418876674D+03 0.000000000000000D+00 0.000000000000000D+00 0.143556418876674D+03
 0.143556418876674D+03 0.000000000000000D+00 0.000000000000000D+00 -.143556418876674D+03
 0.143903937424147D+03 0.363587999293254D+02 0.240473527399574D+02 0.564190189570168D+02
 0.120015870859145D+03 -.311162196281759D+02 -.465451278690912D+02 -.543496997395583D+02
 0.231930294700545D+02 -.524258030114948D+01 0.224977751291338D+02 -.206931921745844D+01
 0.000000000000000D+00 -.000000000000000D+00 0.000000000000000D+00 -.000000000000000D+00
 0.190401789946508D+03 0.000000000000000D+00 0.000000000000000D+00 0.190401789946508D+03
 0.217756691315794D+03 0.000000000000000D+00 0.000000000000000D+00 -.217756691315794D+03
 0.152853098953027D+03 0.652708370752503D+02 -.171954059843867D+02 0.564190189570168D+02
 0.134213857618664D+03 -.634747465389763D+01 -.818775178948473D+02 -.543496997395583D+02
 0.170781833655694D+02 -.131909186215872D+01 0.169009544613153D+02 -.206931921745844D+01
 0.104013341325042D+03 -.576042705591939D+02 0.821719694179188D+02 -.273549013692865D+02
0.612075392711D-05 0.000000000000D+00 0.000000000000D+00 0.297418233211D-06 0.000000000000D+00  6 21 2 25 23 2 21 2 0.13958901D-02 0.34943572D+00 0.17224954D+05 0.17224954D+05 0.17224954D+05 0.12410325D+01  1  2  2  2  6  2        2 0.145304540513D+00 0.100000000000D+01
0.207898091715D-06 0.323001058686D-06 -.123560387115D-07 0.297418233211D-06 0.000000000000D+00  6 21 2 25 23 2 21 4 0.13958901D-02 0.34943572D+00 0.17224954D+05 0.17224954D+05 0.17224954D+05 0.12410325D+01  1  2  3  2  6  2        2 0.760135552076D-02 0.100000000000D+01
0.642015205395D-06 0.000000000000D+00 0.000000000000D+00 0.297418233211D-06 0.000000000000D+00  6 21 2 25 23 2 21 4 0.13958901D-02 0.34943572D+00 0.17224954D+05 0.17224954D+05 0.17224954D+05 0.12410325D+01  1  2 15  2  6  2        2 0.234739327604D-01 0.100000000000D+01
-.827715550093D-05 0.000000000000D+00 -.502311808373D-05 0.297418233211D-06 0.000000000000D+00  6 21 2 25 23 2 21 4 0.13958901D-02 0.57372781D+00 0.17224954D+05 0.17224954D+05 0.17224954D+05 0.12410325D+01  1  2  5  2  6  2        2 -.422688016896D-01 0.100000000000D+01
0.100649605484D-04 0.000000000000D+00 0.446314663453D-05 0.297418233211D-06 0.000000000000D+00  6 21 2 25 23 2 21 4 0.13958901D-02 0.34943572D+00 0.17224954D+05 0.17224954D+05 0.17224954D+05 0.12410325D+01  1  2  6  2  6  2        2 0.368004067762D+00 0.100000000000D+01
-.239181936543D-06 0.000000000000D+00 -.281349043867D-06 0.297418233211D-06 0.000000000000D+00  6 21 21 25 23 2 -2 4 0.13958901D-02 0.57372781D+00 0.17224954D+05 0.17224954D+05 0.17224954D+05 0.12410325D+01  1  2  5 10  6  2        2 -.759628128190D-04 0.100000000000D+01
  </mgrwgt>
  </event>
  <event>
  5     66 0.38225901E-03 0.61811396E+02 0.75467711E-02 0.10615473E+00
       21 -1    0    0  501  502 0.00000000E+00 0.00000000E+00 0.17655074E+03 0.17655234E+03 0.75000000E+00 0.0000E+00 0.9000E+01
        2 -1    0    0  502    0 0.00000000E+00 0.00000000E+00 -.25364323E+03 0.25364343E+03 0.32000000E+00 0.0000E+00 0.9000E+01
       25  1    1    2    0    0 0.14980616E+03 0.24059391E+02 -.46063050E+02 0.20190974E+03 0.12500000E+03 0.0000E+00 0.9000E+01
       23  1    1    2    0    0 -.89621924E+02 -.38146853E+02 0.34897408E+02 0.13791429E+03 0.91188000E+02 0.0000E+00 0.9000E+01
        2  1    1    2  501    0 -.60184237E+02 0.14087461E+02 -.65926844E+02 0.90371733E+02 0.32000000E+00 0.0000E+00 0.9000E+01
#aMCatNLO 1  0  0  1  2 0.24493842D+03 0.00000000D+00  -5  6  0 0.00000000D+00 0.00000000D+00 0.00000000D+00 0.00000000D+00 0.00000000D+00
  <mgrwgt>
 0.6200706170D-01    3    2    0
 0.211615895323876D+03 0.000000000000000D+00 0.000000000000000D+00 0.211615895323876D+03
 0.211615895323876D+03 0.000000000000000D+00 0.000000000000000D+00 -.211615895323876D+03
 0.196841707229040D+03 0.149806385616552D+03 0.240593387451129D+02 -.100425471119558D+02
 0.146540170458789D+03 -.896217568002702D+02 -.381468917015747D+02 0.605931149193752D+02
 0.798499129599230D+02 -.601846288162823D+02 0.140875529564618D+02 -.505505678074193D+02
 0.000000000000000D+00 -.000000000000000D+00 0.000000000000000D+00 -.000000000000000D+00
 0.347696454387537D+03 0.000000000000000D+00 0.000000000000000D+00 0.347696454387537D+03
 0.389840052625118D+03 0.000000000000000D+00 0.000000000000000D+00 -.389840052625118D+03
 0.225911817317960D+03 0.165866215262243D+03 -.883102207334278D+02 -.100425471119558D+02
 0.183827996696468D+03 -.770715208429055D+02 -.125960057656249D+03 0.605931149193752D+02
 0.792591426884331D+02 -.541402928606273D+02 -.282042635610009D+02 -.505505678074193D+02
 0.248537550309795D+03 -.346544015587101D+02 0.242474541950678D+03 -.421435982375809D+02
0.193901131908D-04 0.000000000000D+00 0.000000000000D+00 0.518655603582D-07 0.000000000000D+00  6 21 2 25 23 2 21 2 0.27161791D-01 0.39022174D-01 0.38381268D+05 0.38381268D+05 0.38381268D+05 0.12038264D+01  1  2  2  1  6  1       21 0.589229125593D-01 0.100000000000D+01
-.165924770039D-05 0.102324438513D-05 -.391430519929D-07 0.518655603582D-07 0.000000000000D+00  6 21 2 25 23 2 21 4 0.27161791D-01 0.39022174D-01 0.38381268D+05 0.38381268D+05 0.38381268D+05 0.12038264D+01  1  2  3  1  6  1       21 -.730706237422D-02 0.100000000000D+01
0.235957939432D-05 0.000000000000D+00 0.000000000000D+00 0.518655603582D-07 0.000000000000D+00  6 21 2 25 23 2 21 4 0.27161791D-01 0.39022174D-01 0.38381268D+05 0.38381268D+05 0.38381268D+05 0.12038264D+01  1  2 15  1  6  1       21 0.103912115154D-01 0.100000000000D+01
  </mgrwgt>
  </event>
  <event>
  6     66 0.38225901E-03 0.15622924E+02 0.75467711E-02 0.12009482E+00
       21 -1    0    0  501  502 0.00000000E+00 0.00000000E+00 0.69388481E+02 0.69392534E+02 0.75000000E+00 0.0000E+00 0.9000E+01
        2 -1    0    0  502    0 -.00000000E+00 -.00000000E+00 -.38985319E+03 0.38985332E+03 0.32000000E+00 0.0000E+00 0.9000E+01
       25  1    1    2    0    0 -.51705540E+02 0.13543493E+02 -.23750436E+03 0.27366076E+03 0.12500000E+03 0.0000E+00 0.9000E+01
       23  1    1    2    0    0 0.53083885E+02 0.91882230E+01 -.68846674E+02 0.12632275E+03 0.91188000E+02 0.0000E+00 0.9000E+01
        2  1    1    2  503    0 -.26953342E+02 -.12256948E+02 -.42820189E+01 0.29919116E+02 0.32000000E+00 0.0000E+00 0.9000E+01
       21  1    1    2  501  503 0.25574996E+02 -.10474767E+02 -.98316588E+01 0.29343231E+02 0.75000000E+00 0.0000E+00 0.9000E+01
#aMCatNLO 2  0  0  5  1 0.26258707D+02 0.00000000D+00  -5  6  0 0.00000000D+00 0.00000000D+00 0.00000000D+00 0.00000000D+00 0.00000000D+00
  <mgrwgt>
 0.3483693892D-01    1    2    0
 0.164475778233763D+03 0.000000000000000D+00 0.000000000000000D+00 0.164475778233763D+03
 0.164475778233763D+03 -.000000000000000D+00 -.000000000000000D+00 -.164475778233763D+03
 0.155900321028130D+03 -.513343123769354D+02 0.196657870652567D+02 -.752193810700750D+02
 0.108312365293016D+03 0.533473709651732D+02 0.135336364020833D+02 0.196778003904947D+02
 0.647388701463793D+02 -.201305858823784D+01 -.331994234673400D+02 0.555415806795802D+02
 0.000000000000000D+00 0.000000000000000D+00 0.000000000000000D+00 -.000000000000000D+00
 0.164475778233763D+03 0.000000000000000D+00 0.000000000000000D+00 0.164475778233763D+03
 0.164475778233763D+03 -.000000000000000D+00 -.000000000000000D+00 -.164475778233763D+03
 0.150666708303062D+03 -.517064155073461D+02 0.135290509204618D+02 -.649528164705202D+02
 0.109290569096812D+03 0.530832501520197D+02 0.917774791793440D+01 0.269650634332284D+02
 0.371948089606956D+02 -.270293008690423D+02 -.119133070736215D+02 0.226040665085517D+02
 0.317994701069559D+02 0.256524662243688D+02 -.107934917647747D+02 0.153836865287401D+02
0.207350102100D-05 0.000000000000D+00 0.000000000000D+00 0.663099021875D-06 0.658242401019D-08  6 21 2 25 23 2 21 4 0.10675473D-01 0.59977736D-01 0.22384322D+05 0.22384322D+05 0.22384322D+05 0.12284771D+01  1  2  1  3  6  5        2 0.348369389159D-01 0.100000000000D+01
  </mgrwgt>
  </event>
  <event>
  5     66 0.38225901E-03 0.43522059E+02 0.75467711E-02 0.11666128E+00
       21 -1    0    0  501  502 0.00000000E+00 0.00000000E+00 0.16675370E+03 0.16675539E+03 0.75000000E+00 0.0000E+00 0.9000E+01
        2 -1    0    0  502    0 -.00000000E+00 -.00000000E+00 -.42208665E+03 0.42208677E+03 0.32000000E+00 0.0000E+00 0.9000E+01
       25  1    1    2    0    0 -.10306803E+02 -.12013308E+03 -.33019158E+03 0.37308132E+03 0.12500000E+03 0.0000E+00 0.9000E+01
       23  1    1    2    0    0 -.32096810E+02 0.11033067E+03 0.23700001E+02 0.14859342E+03 0.91188000E+02 0.0000E+00 0.9000E+01
        2  1    1    2  501    0 0.42403613E+02 0.98024082E+01 0.51158640E+02 0.67167421E+02 0.32000000E+00 0.0000E+00 0.9000E+01
#aMCatNLO 1  0  0  5  1 0.98097918D+01 0.00000000D+00  -5  6  0 0.00000000D+00 0.00000000D+00 0.00000000D+00 0.00000000D+00 0.00000000D+00
  <mgrwgt>
 0.3521326350D-01    8    2    0
 0.265301796459302D+03 0.000000000000000D+00 0.000000000000000D+00 0.265301796459302D+03
 0.265301796459302D+03 -.000000000000000D+00 -.000000000000000D+00 -.265301796459302D+03
 0.255138327657891D+03 -.103069087291838D+02 -.120133105754421D+03 -.186902035233196D+03
 0.176307543176137D+03 -.320968838505431D+02 0.110330656085048D+03 0.978061082536936D+02
 0.991577220845752D+02 0.424037925797269D+02 0.980244966937307D+01 0.890959269795020D+02
 0.000000000000000D+00 0.000000000000000D+00 0.000000000000000D+00 0.000000000000000D+00
 0.265301796459302D+03 0.000000000000000D+00 0.000000000000000D+00 0.265301796459302D+03
 0.265301796459302D+03 -.000000000000000D+00 -.000000000000000D+00 -.265301796459302D+03
 0.253934246123546D+03 -.959221358138366D+01 -.119967890268045D+03 -.185400367037331D+03
 0.176869860032966D+03 -.316010524320260D+02 0.110445277024092D+03 0.988479150631973D+02
 0.816583844641111D+02 0.261097510729449D+02 0.590180980467423D+01 0.771462331758776D+02
 0.181411022979803D+02 0.150835149404647D+02 0.362080343927879D+01 0.940621879825625D+01
0.700009661687D-05 0.000000000000D+00 0.000000000000D+00 0.172460041687D-06 0.000000000000D+00  6 21 2 25 23 2 21 2 0.25654555D-01 0.64936546D-01 0.33103770D+05 0.33103770D+05 0.33103770D+05 0.12104364D+01  1  2  2  3  6  5        2 0.139119649628D-01 0.100000000000D+01
0.381170944788D-06 0.369405247308D-06 -.141311782522D-07 0.172460041687D-06 0.000000000000D+00  6 21 2 25 23 2 21 4 0.25654555D-01 0.64936546D-01 0.33103770D+05 0.33103770D+05 0.33103770D+05 0.12104364D+01  1  2  3  3  6  5        2 0.110991111276D-02 0.100000000000D+01
0.632127047780D-06 0.000000000000D+00 0.000000000000D+00 0.172460041687D-06 0.000000000000D+00  6 21 2 25 23 2 21 4 0.25654555D-01 0.64936546D-01 0.33103770D+05 0.33103770D+05 0.33103770D+05 0.12104364D+01  1  2 15  3  6  5        2 0.184065665183D-02 0.100000000000D+01
0.163935618425D-04 0.000000000000D+00 0.000000000000D+00 0.172560393448D-06 0.000000000000D+00  6 21 2 25 23 2 21 4 0.25654555D-01 0.64936546D-01 0.32846239D+05 0.32846239D+05 0.32846239D+05 0.12107885D+01  1  2 12  3  6  5        2 0.477974351766D-01 0.100000000000D+01
-.172228205841D-04 0.000000000000D+00 0.000000000000D+00 0.172460041687D-06 0.000000000000D+00  6 21 2 25 23 2 21 4 0.25654555D-01 0.64936546D-01 0.33103770D+05 0.33103770D+05 0.33103770D+05 0.12104364D+01  1  2  4  3  6  5        2 -.501502022143D-01 0.100000000000D+01
-.270133872136D-04 0.000000000000D+00 0.000000000000D+00 0.172460041687D-06 0.000000000000D+00  6 21 2 25 23 2 21 4 0.25654555D-01 0.64936546D-01 0.33103770D+05 0.33103770D+05 0.33103770D+05 0.12104364D+01  1  2  5  3  6  5        2 -.786588250537D-01 0.100000000000D+01
0.341234756861D-04 0.000000000000D+00 -.000000000000D+00 0.172460041687D-06 0.000000000000D+00  6 21 2 25 23 2 21 4 0.25654555D-01 0.64936546D-01 0.33103770D+05 0.33103770D+05 0.33103770D+05 0.12104364D+01  1  2  6  3  6  5        2 0.993623081398D-01 0.100000000000D+01
0.505139797711D-11 0.000000000000D+00 0.000000000000D+00 0.172460041687D-06 0.117097949477D-07  6 21 2 25 23 2 21 4 0.25654555D-01 0.64936546D-01 0.32846239D+05 0.32846239D+05 0.32846239D+05 0.12107885D+01  1  2 11  3  6  5        2 0.147279688015D-07 0.100000000000D+01
  </mgrwgt>
  </event>
  <event>
  5     66 0.38225901E-03 0.38333670E+02 0.75467711E-02 0.10605400E+00
       21 -1    0    0  501  502 0.00000000E+00 0.00000000E+00 0.20679374E+03 0.20679510E+03 0.75000000E+00 0.0000E+00 0.9000E+01
        2 -1    0    0  502    0 0.00000000E+00 0.00000000E+00 -.35164936E+03 0.35164950E+03 0.32000000E+00 0.0000E+00 0.9000E+01
       25  1    1    2    0    0 -.15588688E+03 -.10871320E+03 -.43586726E+02 0.23161192E+03 0.12500000E+03 0.0000E+00 0.9000E+01
       23  1    1    2    0    0 0.18881944E+03 0.89094568E+02 -.14392547E+03 0.26948175E+03 0.91188000E+02 0.0000E+00 0.9000E+01
        2  1    1    2  501    0 -.32932561E+02 0.19618629E+02 0.42656573E+02 0.57350936E+02 0.32000000E+00 0.0000E+00 0.9000E+01
#aMCatNLO 1  0  0  2  5 0.18924848D+03 0.00000000D+00  -5  6  0 0.00000000D+00 0.00000000D+00 0.00000000D+00 0.00000000D+00 0.00000000D+00
  <mgrwgt>
 0.1199506864D+00    6    2    0
 0.269665174455842D+03 0.000000000000000D+00 0.000000000000000D+00 0.269665174455842D+03
 0.269665174455842D+03 0.000000000000000D+00 0.000000000000000D+00 -.269665174455842D+03
 0.228113628006039D+03 -.155886735283910D+03 -.108713282052025D+03 0.170755775913591D+02
 0.240376439357428D+03 0.188819588147005D+03 0.890944791999790D+02 -.766480147312048D+02
 0.708402815482167D+02 -.329328528630956D+02 0.196188028520457D+02 0.595724371398457D+02
 0.000000000000000D+00 -.000000000000000D+00 0.000000000000000D+00 -.000000000000000D+00
 0.342879013353064D+03 0.000000000000000D+00 0.000000000000000D+00 0.342879013353064D+03
 0.442609529366056D+03 0.000000000000000D+00 0.000000000000000D+00 -.442609529366056D+03
 0.269595779915566D+03 -.140856435090781D+03 -.192158200167779D+03 0.170755775913591D+02
 0.235722907779197D+03 0.203197287252792D+03 0.927265866682654D+01 -.766480147312048D+02
 0.662512661250926D+02 -.287928324361661D+02 -.336567923305730D+01 0.595724371398457D+02
 0.213918588899264D+03 -.335480197258447D+02 0.186251220734010D+03 -.997305160129923D+02
0.272157106361D-04 0.000000000000D+00 0.000000000000D+00 0.208533313949D-06 0.000000000000D+00  6 21 2 25 23 2 21 2 0.31814537D-01 0.54100017D-01 0.60919124D+05 0.60919124D+05 0.60919124D+05 0.11838784D+01  1  2  2  2  6  2        2 0.409850499443D-01 0.100000000000D+01
0.295251581276D-05 0.143621250798D-05 -.549406785805D-07 0.208533313949D-06 0.000000000000D+00  6 21 2 25 23 2 21 4 0.31814537D-01 0.54100017D-01 0.60919124D+05 0.60919124D+05 0.60919124D+05 0.11838784D+01  1  2  3  2  6  2        2 0.623178140705D-02 0.100000000000D+01
0.314096911330D-05 0.000000000000D+00 0.000000000000D+00 0.208533313949D-06 0.000000000000D+00  6 21 2 25 23 2 21 4 0.31814537D-01 0.54100017D-01 0.60919124D+05 0.60919124D+05 0.60919124D+05 0.11838784D+01  1  2 15  2  6  2        2 0.662954380661D-02 0.100000000000D+01
-.344335072491D-04 0.000000000000D+00 -.282999060735D-04 0.208533313949D-06 0.000000000000D+00  6 21 2 25 23 2 21 4 0.31814537D-01 0.10727974D+00 0.60919124D+05 0.60919124D+05 0.60919124D+05 0.11838784D+01  1  2  5  2  6  2        2 -.335467223012D-01 0.100000000000D+01
0.477244213369D-04 0.000000000000D+00 0.227557217497D-04 0.208533313949D-06 0.000000000000D+00  6 21 2 25 23 2 21 4 0.31814537D-01 0.54100017D-01 0.60919124D+05 0.60919124D+05 0.60919124D+05 0.11838784D+01  1  2  6  2  6  2        2 0.100730421244D+00 0.100000000000D+01
-.865710908528D-06 0.000000000000D+00 -.209721293603D-05 0.208533313949D-06 0.000000000000D+00  6 21 21 25 23 2 -2 4 0.31814537D-01 0.10727974D+00 0.60919124D+05 0.60919124D+05 0.60919124D+05 0.11838784D+01  1  2  5 10  6  2        2 -.107938767583D-02 0.100000000000D+01
  </mgrwgt>
  </event>
  <event>
  6     66 -.38225901E-03 0.23880919E+02 0.75467711E-02 0.11996991E+00
       21 -1    0    0  501  502 0.00000000E+00 0.00000000E+00 0.43423198E+02 0.43429675E+02 0.75000000E+00 0.0000E+00 0.9000E+01
        2 -1    0    0  503    0 0.00000000E+00 0.00000000E+00 -.11120346E+04 0.11120346E+04 0.32000000E+00 0.0000E+00 0.9000E+01
       25  1    1    2    0    0 -.33060292E+02 0.77541904E+02 -.71448186E+03 0.73021576E+03 0.12500000E+03 0.0000E+00 0.9000E+01
       23  1    1    2    0    0 0.12136205E+02 -.73837868E+02 -.34330289E+03 0.36300336E+03 0.91188000E+02 0.0000E+00 0.9000E+01
        2  1    1    2  501    0 0.25959056E+02 -.65221478E+01 0.18376142E+02 0.32468385E+02 0.32000000E+00 0.0000E+00 0.9000E+01
       21  1    1    2  503  502 -.50349698E+01 0.28181118E+01 -.29202778E+02 0.29776793E+02 0.75000000E+00 0.0000E+00 0.9000E+01
#aMCatNLO 2  0  0  2  1 0.57699805D+01 0.00000000D+00  -5  6  0 0.00000000D+00 0.00000000D+00 0.00000000D+00 0.00000000D+00 0.00000000D+00
  <mgrwgt>
 -.4204372402D+00    3    2    0
 0.216083795520646D+03 0.000000000000000D+00 0.000000000000000D+00 0.216083795520646D+03
 0.216083795520646D+03 0.000000000000000D+00 0.000000000000000D+00 -.216083795520646D+03
 0.184514512102302D+03 -.352046298308614D+02 0.787420964265657D+02 -.104789891999047D+03
 0.119229658653747D+03 0.107435947352223D+02 -.730584202916372D+02 -.211542561992836D+02
 0.128423420285242D+03 0.244610350956392D+02 -.568367613492848D+01 0.125944148198331D+03
 0.000000000000000D+00 -.000000000000000D+00 0.000000000000000D+00 -.000000000000000D+00
 0.217521618540499D+03 0.000000000000000D+00 0.000000000000000D+00 0.217521618540499D+03
 0.221970370513858D+03 0.000000000000000D+00 0.000000000000000D+00 -.221970370513858D+03
 0.183607337603817D+03 -.330603230309246D+02 0.775419112343831D+02 -.104789891999047D+03
 0.119841858149080D+03 0.121361843887861D+02 -.738378635508963D+02 -.211542561992836D+02
 0.128756911817679D+03 0.259591084519981D+02 -.652215944298792D+01 0.125944148198331D+03
 0.728588148378099D+01 -.503496980985965D+01 0.281811175950114D+01 -.444875197335903D+01
-.158811834031D-04 0.000000000000D+00 0.000000000000D+00 0.248544198063D-05 0.000000000000D+00  6 21 2 25 23 2 21 4 0.66362473D-02 0.17161211D+00 0.22689859D+05 0.22689859D+05 0.22689859D+05 0.12278381D+01  1  2 13  2  6  2        2 -.171635299460D+00 0.100000000000D+01
-.552503713310D-04 0.000000000000D+00 0.000000000000D+00 0.249436464039D-05 0.000000000000D+00  6 21 2 25 23 2 21 4 0.66362473D-02 0.16653101D+00 0.21656257D+05 0.21656257D+05 0.21656257D+05 0.12300401D+01  1  2  8  2  6  2        2 -.628464829255D+00 0.100000000000D+01
0.353656530994D-04 0.000000000000D+00 0.000000000000D+00 0.249436464039D-05 0.554648557568D-06  6 21 2 25 23 2 21 4 0.66804050D-02 0.17106767D+00 0.22689859D+05 0.22689859D+05 0.22689859D+05 0.12278381D+01  1  2  1  2  6  2        2 0.379662888468D+00 0.100000000000D+01
  </mgrwgt>
  </event>
  <event>
  5     66 0.38225901E-03 0.23418890E+02 0.75467711E-02 0.12165984E+00
       21 -1    0    0  501  502 0.00000000E+00 0.00000000E+00 0.13958734E+02 0.13978868E+02 0.75000000E+00 0.0000E+00 0.9000E+01
        2 -1    0    0  502    0 -.00000000E+00 -.00000000E+00 -.20405824E+04 0.20405825E+04 0.32000000E+00 0.0000E+00 0.9000E+01
       25  1    1    2    0    0 -.85150483E+01 0.48731754E+02 -.14098287E+04 0.14162236E+04 0.12500000E+03 0.0000E+00 0.9000E+01
       23  1    1    2    0    0 0.12207937E+02 -.25605981E+02 -.60428610E+03 0.61178561E+03 0.91188000E+02 0.0000E+00 0.9000E+01
        2  1    1    2  501    0 -.36928885E+01 -.23125774E+02 -.12508854E+02 0.26552074E+02 0.32000000E+00 0.0000E+00 0.9000E+01
#aMCatNLO 1  0  0  5  1 0.23450970D+02 0.00000000D+00  -5  6  0 0.00000000D+00 0.00000000D+00 0.00000000D+00 0.00000000D+00 0.00000000D+00
  <mgrwgt>
 0.4544104778D-01    6    2    0
 0.168833218832185D+03 0.000000000000000D+00 0.000000000000000D+00 0.168833218832185D+03
 0.168833218832185D+03 -.000000000000000D+00 -.000000000000000D+00 -.168833218832185D+03
 0.155555915337895D+03 -.851503666253700D+01 0.487318269998073D+02 -.782645895952105D+02
 0.956285073002618D+02 0.122079440170424D+02 -.256059357259399D+02 -.498620326019955D+01
 0.864820150262128D+02 -.369290735450537D+01 -.231258912738674D+02 0.832507928554101D+02
 0.000000000000000D+00 0.000000000000000D+00 -.000000000000000D+00 0.000000000000000D+00
 0.168833218832185D+03 0.000000000000000D+00 0.000000000000000D+00 0.168833218832185D+03
 0.168833218832185D+03 -.000000000000000D+00 -.000000000000000D+00 -.168833218832185D+03
 0.151866873143710D+03 -.880105186567348D+01 0.469407296731067D+02 -.718168263171082D+02
 0.957858681457786D+02 0.120298589058284D+02 -.267211483549281D+02 -.971554290948777D+00
 0.555439376103150D+02 -.171241359584168D+02 0.408564513362608D+01 0.526801715712686D+02
 0.344697587645659D+02 0.138953289182618D+02 -.243052264518047D+02 0.201082090367884D+02
0.418438978286D-05 0.000000000000D+00 0.000000000000D+00 0.240105832912D-05 0.000000000000D+00  6 21 2 25 23 2 21 2 0.21490482D-02 0.31393731D+00 0.16046626D+05 0.16046626D+05 0.16046626D+05 0.12444969D+01  1  2  2  3  6  5        2 0.657392715968D-01 0.100000000000D+01
0.699295950194D-06 0.220816315427D-06 -.844707739545D-08 0.240105832912D-05 0.000000000000D+00  6 21 2 25 23 2 21 4 0.21490482D-02 0.31393731D+00 0.16046626D+05 0.16046626D+05 0.16046626D+05 0.12444969D+01  1  2  3  3  6  5        2 0.170153710705D-01 0.100000000000D+01
0.504516168060D-06 0.000000000000D+00 0.000000000000D+00 0.240105832912D-05 0.000000000000D+00  6 21 2 25 23 2 21 4 0.21490482D-02 0.31393731D+00 0.16046626D+05 0.16046626D+05 0.16046626D+05 0.12444969D+01  1  2 15  3  6  5        2 0.122759609979D-01 0.100000000000D+01
-.308504384352D-05 0.000000000000D+00 0.000000000000D+00 0.240105832912D-05 0.000000000000D+00  6 21 2 25 23 2 21 4 0.21490482D-02 0.31393731D+00 0.16046626D+05 0.16046626D+05 0.16046626D+05 0.12444969D+01  1  2  4  3  6  5        2 -.750657368337D-01 0.100000000000D+01
-.223367453639D-05 0.000000000000D+00 0.000000000000D+00 0.240105832912D-05 0.000000000000D+00  6 21 2 25 23 2 21 4 0.21490482D-02 0.31393731D+00 0.16046626D+05 0.16046626D+05 0.16046626D+05 0.12444969D+01  1  2  5  3  6  5        2 -.543500946584D-01 0.100000000000D+01
0.328069197078D-05 0.000000000000D+00 -.000000000000D+00 0.240105832912D-05 0.000000000000D+00  6 21 2 25 23 2 21 4 0.21490482D-02 0.31393731D+00 0.16046626D+05 0.16046626D+05 0.16046626D+05 0.12444969D+01  1  2  6  3  6  5        2 0.798262756065D-01 0.100000000000D+01
  </mgrwgt>
  </event>
  <event>
  5     66 0.38225901E-03 0.52649766E+02 0.75467711E-02 0.11408923E+00
       21 -1    0    0  501  502 0.00000000E+00 0.00000000E+00 0.69924076E+02 0.69928098E+02 0.75000000E+00 0.0000E+00 0.9000E+01
        2 -1    0    0  502    0 -.00000000E+00 -.00000000E+00 -.70761303E+03 0.70761310E+03 0.32000000E+00 0.0000E+00 0.9000E+01
       25  1    1    2    0    0 -.98697000E+02 0.10687566E+03 -.25956789E+03 0.32274447E+03 0.12500000E+03 0.0000E+00 0.9000E+01
       23  1    1    2    0    0 0.13471433E+03 -.68473852E+02 -.35665624E+03 0.39793912E+03 0.91188000E+02 0.0000E+00 0.9000E+01
        2  1    1    2  501    0 -.36017328E+02 -.38401809E+02 -.21464829E+02 0.56857613E+02 0.32000000E+00 0.0000E+00 0.9000E+01
#aMCatNLO 1  0  0  5  1 0.30172835D+01 0.00000000D+00  -5  6  0 0.00000000D+00 0.00000000D+00 0.00000000D+00 0.00000000D+00 0.00000000D+00
  <mgrwgt>
 0.2012617398D-01    8    2    0
 0.222442754902884D+03 0.000000000000000D+00 0.000000000000000D+00 0.222442754902884D+03
 0.222442754902884D+03 -.000000000000000D+00 -.000000000000000D+00 -.222442754902884D+03
 0.192012434426626D+03 -.986968307700020D+02 0.106875841344174D+03 0.895907960518602D+01
 0.184268456069375D+03 0.134714490065641D+03 -.684736785646718D+02 -.529431210674931D+02
 0.686046193097671D+02 -.360176592956395D+02 -.384021627795019D+02 0.439840414623070D+02
 0.000000000000000D+00 -.000000000000000D+00 0.000000000000000D+00 0.000000000000000D+00
 0.222442754902884D+03 0.000000000000000D+00 0.000000000000000D+00 0.222442754902884D+03
 0.222442754902884D+03 -.000000000000000D+00 -.000000000000000D+00 -.222442754902884D+03
 0.192002458503632D+03 -.992876094483387D+02 0.106245950912207D+03 0.968052665064004D+01
 0.183882824084171D+03 0.134148116389200D+03 -.690775482925237D+02 -.522514769197357D+02
 0.659361487525363D+02 -.323498141561243D+02 -.389009200209132D+02 0.422821907888809D+02
 0.306407846542952D+01 -.251069278473730D+01 0.173251740122952D+01 0.288759480214718D+00
0.248181900430D-05 0.000000000000D+00 0.000000000000D+00 0.142608802287D-06 0.000000000000D+00  6 21 2 25 23 2 21 2 0.10757865D-01 0.10886386D+00 0.44300158D+05 0.44300158D+05 0.44300158D+05 0.11975229D+01  1  2  2  3  6  5        2 0.132202865893D-01 0.100000000000D+01
0.698999046902D-07 0.130969187032D-06 -.501007752593D-08 0.142608802287D-06 0.000000000000D+00  6 21 2 25 23 2 21 4 0.10757865D-01 0.10886386D+00 0.44300158D+05 0.44300158D+05 0.44300158D+05 0.11975229D+01  1  2  3  3  6  5        2 0.533967717731D-03 0.100000000000D+01
0.230889365446D-06 0.000000000000D+00 0.000000000000D+00 0.142608802287D-06 0.000000000000D+00  6 21 2 25 23 2 21 4 0.10757865D-01 0.10886386D+00 0.44300158D+05 0.44300158D+05 0.44300158D+05 0.11975229D+01  1  2 15  3  6  5        2 0.176377161116D-02 0.100000000000D+01
0.525677154333D-08 0.000000000000D+00 0.000000000000D+00 0.142571655753D-06 0.000000000000D+00  6 21 2 25 23 2 21 4 0.10757865D-01 0.10886386D+00 0.44458964D+05 0.44458964D+05 0.44458964D+05 0.11973669D+01  1  2 12  3  6  5        2 0.401339521260D-04 0.100000000000D+01
-.215166584577D-04 0.000000000000D+00 0.000000000000D+00 0.142608802287D-06 0.000000000000D+00  6 21 2 25 23 2 21 4 0.10757865D-01 0.10886386D+00 0.44300158D+05 0.44300158D+05 0.44300158D+05 0.11975229D+01  1  2  4  3  6  5        2 -.164366476046D+00 0.100000000000D+01
-.118736410996D-04 0.000000000000D+00 0.000000000000D+00 0.142608802287D-06 0.000000000000D+00  6 21 2 25 23 2 21 4 0.10757865D-01 0.10886386D+00 0.44300158D+05 0.44300158D+05 0.44300158D+05 0.11975229D+01  1  2  5  3  6  5        2 -.907031428324D-01 0.100000000000D+01
0.126837076023D-04 0.000000000000D+00 -.000000000000D+00 0.142608802287D-06 0.000000000000D+00  6 21 2 25 23 2 21 4 0.10757865D-01 0.10886386D+00 0.44300158D+05 0.44300158D+05 0.44300158D+05 0.11975229D+01  1  2  6  3  6  5        2 0.968912680326D-01 0.100000000000D+01
0.213166263165D-04 0.000000000000D+00 0.000000000000D+00 0.142608802287D-06 0.153186798594D-06  6 21 2 25 23 2 21 4 0.10757865D-01 0.10886386D+00 0.44458964D+05 0.44458964D+05 0.44458964D+05 0.11973669D+01  1  2 11  3  6  5        2 0.162746364955D+00 0.100000000000D+01
  </mgrwgt>
  </event>
  <event>
  6     66 0.38225901E-03 0.21652985E+02 0.75467711E-02 0.12247632E+00
       21 -1    0    0  503  502 0.00000000E+00 0.00000000E+00 0.31880481E+03 0.31880570E+03 0.75000000E+00 0.0000E+00 0.9000E+01
        2 -1    0    0  502    0 0.00000000E+00 0.00000000E+00 -.13695517E+03 0.13695554E+03 0.32000000E+00 0.0000E+00 0.9000E+01
       25  1    1    2    0    0 -.36593962E+02 0.15915988E+02 0.63745390E+02 0.14587978E+03 0.12500000E+03 0.0000E+00 0.9000E+01
       23  1    1    2    0    0 0.19966433E+02 -.19044425E+02 -.68999492E+02 0.11763303E+03 0.91188000E+02 0.0000E+00 0.9000E+01
        2  1    1    2  501    0 -.87858558E+01 -.54666349E+01 0.16030754E+02 0.19083051E+02 0.32000000E+00 0.0000E+00 0.9000E+01
       21  1    1    2  503  501 0.25413385E+02 0.85950715E+01 0.17107299E+03 0.17316537E+03 0.75000000E+00 0.0000E+00 0.9000E+01
#aMCatNLO 2  0  0  1  1 0.51622906D+02 0.00000000D+00  -5  6  0 0.00000000D+00 0.00000000D+00 0.00000000D+00 0.00000000D+00 0.00000000D+00
  <mgrwgt>
 0.3762163979D-01    1    2    0
 0.140556546930222D+03 0.000000000000000D+00 0.000000000000000D+00 0.140556546930222D+03
 0.140556546930222D+03 0.000000000000000D+00 0.000000000000000D+00 -.140556546930222D+03
 0.141383402711678D+03 -.237430092823081D+02 0.202625218270139D+02 0.582234169536843D+02
 0.122122123807129D+03 0.309022222979790D+02 -.153456481361640D+02 -.735399586584809D+02
 0.176075673416374D+02 -.715921301567089D+01 -.491687369084990D+01 0.153165417047965D+02
 0.000000000000000D+00 0.000000000000000D+00 0.000000000000000D+00 0.000000000000000D+00
 0.306869364460353D+03 0.000000000000000D+00 0.000000000000000D+00 0.306869364460353D+03
 0.142281194987865D+03 0.000000000000000D+00 0.000000000000000D+00 -.142281194987865D+03
 0.143552670303796D+03 -.365933135797314D+02 0.159164151379407D+02 0.582234169536843D+02
 0.120352526966272D+03 0.199668815604079D+02 -.190440942139259D+02 -.735399586584809D+02
 0.184851123109430D+02 -.878695327171031D+01 -.546739239072731D+01 0.153165417047965D+02
 0.166760249867207D+03 0.254133852910339D+02 0.859507146671247D+01 0.164588169472489D+03
0.123920045704D-04 0.000000000000D+00 0.000000000000D+00 0.241096528590D-05 0.797384327244D-07  6 21 2 25 23 2 21 4 0.49046703D-01 0.21069999D-01 0.17379530D+05 0.17379530D+05 0.17379530D+05 0.12405978D+01  1  2  1  1  6  1       21 0.376216397912D-01 0.100000000000D+01
  </mgrwgt>
  </event>
  <event>
  5     66 0.38225901E-03 0.37984531E+02 0.75467711E-02 0.11927067E+00
       21 -1    0    0  501  502 0.00000000E+00 0.00000000E+00 0.90838444E+02 0.90841540E+02 0.75000000E+00 0.0000E+00 0.9000E+01
        2 -1    0    0  502    0 -.00000000E+00 -.00000000E+00 -.48603843E+03 0.48603853E+03 0.32000000E+00 0.0000E+00 0.9000E+01
       25  1    1    2    0    0 -.16131248E+02 -.16331531E+02 -.14039458E+03 0.18937417E+03 0.12500000E+03 0.0000E+00 0.9000E+01
       23  1    1    2    0    0 0.36322526E+02 0.48504987E+02 -.30528866E+03 0.32432773E+03 0.91188000E+02 0.0000E+00 0.9000E+01
        2  1    1    2  501    0 -.20191278E+02 -.32173456E+02 0.50483264E+02 0.63178171E+02 0.32000000E+00 0.0000E+00 0.9000E+01
#aMCatNLO 1  0  0  5  2 0.30699936D+02 0.00000000D+00  -5  6  0 0.00000000D+00 0.00000000D+00 0.00000000D+00 0.00000000D+00 0.00000000D+00
  <mgrwgt>
 0.1625814867D-01    4    2    0
 0.210123530182500D+03 0.000000000000000D+00 0.000000000000000D+00 0.210123530182500D+03
 0.210123530182500D+03 -.000000000000000D+00 -.000000000000000D+00 -.210123530182500D+03
 0.127930101740307D+03 -.161312304541011D+02 -.163315033338021D+02 -.146347645754858D+02
 0.158116942950806D+03 0.363225476925857D+02 0.485050217049640D+02 -.114077393477540D+03
 0.134200015673887D+03 -.201913172384846D+02 -.321735183711619D+02 0.128712158053025D+03
 0.000000000000000D+00 0.000000000000000D+00 0.000000000000000D+00 0.000000000000000D+00
 0.210123530182500D+03 0.000000000000000D+00 0.000000000000000D+00 0.210123530182500D+03
 0.210123530182500D+03 -.000000000000000D+00 -.000000000000000D+00 -.210123530182500D+03
 0.127895979317638D+03 -.183576703094690D+02 -.198791868624643D+02 -.442036326263048D+00
 0.144494340819679D+03 0.336889388748905D+02 0.443085415705687D+02 -.972891141201657D+02
 0.115680534505642D+03 -.448436107497740D+02 -.143594657831748D+02 0.105663817746926D+03
 0.321762057220413D+02 0.295123421843526D+02 -.100698889249296D+02 -.793266730049759D+01
0.552604884887D-05 0.000000000000D+00 0.000000000000D+00 0.135440709263D-05 0.000000000000D+00  6 21 2 25 23 2 21 2 0.13975391D-01 0.74775389D-01 0.18845990D+05 0.18845990D+05 0.18845990D+05 0.12366778D+01  1  2  2  3  6  5        2 0.304032858900D-01 0.100000000000D+01
0.628982272259D-06 0.291617609497D-06 -.111555005006D-07 0.135440709263D-05 0.000000000000D+00  6 21 2 25 23 2 21 4 0.13975391D-01 0.74775389D-01 0.18845990D+05 0.18845990D+05 0.18845990D+05 0.12366778D+01  1  2  3  3  6  5        2 0.529245678933D-02 0.100000000000D+01
0.536792883928D-06 0.000000000000D+00 0.000000000000D+00 0.135440709263D-05 0.000000000000D+00  6 21 2 25 23 2 21 4 0.13975391D-01 0.74775389D-01 0.18845990D+05 0.18845990D+05 0.18845990D+05 0.12366778D+01  1  2 15  3  6  5        2 0.451674596934D-02 0.100000000000D+01
-.284685464413D-05 0.000000000000D+00 0.000000000000D+00 0.135440709263D-05 0.000000000000D+00  6 21 2 25 23 2 21 4 0.13975391D-01 0.74775389D-01 0.18845990D+05 0.18845990D+05 0.18845990D+05 0.12366778D+01  1  2  4  3  6  5        2 -.239543399776D-01 0.100000000000D+01
  </mgrwgt>
  </event>
  <event>
  5     66 0.38225901E-03 0.32372137E+02 0.75467711E-02 0.11688876E+00
       21 -1    0    0  501  502 0.00000000E+00 0.00000000E+00 0.16487827E+03 0.16487998E+03 0.75000000E+00 0.0000E+00 0.9000E+01
        2 -1    0    0  502    0 0.00000000E+00 0.00000000E+00 -.44190411E+03 0.44190422E+03 0.32000000E+00 0.0000E+00 0.9000E+01
       25  1    1    2    0    0 -.72420212E+02 -.82897066E+02 -.15984462E+03 0.23085041E+03 0.12500000E+03 0.0000E+00 0.9000E+01
       23  1    1    2    0    0 0.84568947E+02 0.52891043E+02 -.22549095E+03 0.26288931E+03 0.91188000E+02 0.0000E+00 0.9000E+01
        2  1    1    2  501    0 -.12148735E+02 0.30006022E+02 0.10830973E+03 0.11304448E+03 0.32000000E+00 0.0000E+00 0.9000E+01
#aMCatNLO 1  0  0  1  2 0.30473786D+02 0.00000000D+00  -5  6  0 0.00000000D+00 0.00000000D+00 0.00000000D+00 0.00000000D+00 0.00000000D+00
  <mgrwgt>
 0.2586876108D+00   23    2    0
 0.269927652408905D+03 0.000000000000000D+00 0.000000000000000D+00 0.269927652408905D+03
 0.269927652408905D+03 0.000000000000000D+00 0.000000000000000D+00 -.269927652408905D+03
 0.177446275305195D+03 -.724202060748804D+02 -.828970808493172D+02 -.612010486709239D+02
 0.179770932249130D+03 0.845689534304079D+02 0.528910280834219D+02 -.118545215009655D+03
 0.182638097263485D+03 -.121487473555274D+02 0.300060527658953D+02 0.179746263680579D+03
 0.000000000000000D+00 0.000000000000000D+00 0.000000000000000D+00 0.000000000000000D+00
 0.297911665008227D+03 0.000000000000000D+00 0.000000000000000D+00 0.297911665008227D+03
 0.278783005043628D+03 0.000000000000000D+00 0.000000000000000D+00 -.278783005043628D+03
 0.183056462935626D+03 -.742154560882876D+02 -.929040706411126D+02 -.612010486709239D+02
 0.176275481049600D+03 0.827958952523557D+02 0.430077388727150D+02 -.118545215009655D+03
 0.181382769849419D+03 -.139615171274129D+02 0.199014052423419D+02 0.179746263680579D+03
 0.359799562172098D+02 0.538107796334479D+01 0.299949265260557D+02 0.191286599645991D+02
0.182575476113D-04 0.000000000000D+00 0.000000000000D+00 0.214263483376D-05 0.000000000000D+00  6 21 2 25 23 2 21 2 0.25366028D-01 0.67985387D-01 0.27901849D+05 0.27901849D+05 0.27901849D+05 0.12182172D+01  1  2  2  1  6  1       21 0.358346101716D-01 0.100000000000D+01
0.413468673007D-05 0.963477257492D-06 -.368567283946D-07 0.214263483376D-05 0.000000000000D+00  6 21 2 25 23 2 21 4 0.25366028D-01 0.67985387D-01 0.27901849D+05 0.27901849D+05 0.27901849D+05 0.12182172D+01  1  2  3  1  6  1       21 0.120434878376D-01 0.100000000000D+01
0.198211183905D-05 0.000000000000D+00 0.000000000000D+00 0.214263483376D-05 0.000000000000D+00  6 21 2 25 23 2 21 4 0.25366028D-01 0.67985387D-01 0.27901849D+05 0.27901849D+05 0.27901849D+05 0.12182172D+01  1  2 15  1  6  1       21 0.577348210029D-02 0.100000000000D+01
0.522334932734D-04 0.000000000000D+00 0.000000000000D+00 0.212071025365D-05 0.000000000000D+00  6 21 2 25 23 2 21 4 0.28381597D-01 0.67985387D-01 0.31999457D+05 0.31999457D+05 0.31999457D+05 0.12119684D+01  1  2 12  1  6  1       21 0.119836717420D+00 0.100000000000D+01
-.137312672348D-04 0.000000000000D+00 0.000000000000D+00 0.214263483376D-05 0.000000000000D+00  6 21 2 25 23 2 21 4 0.25366028D-01 0.67985387D-01 0.27901849D+05 0.27901849D+05 0.27901849D+05 0.12182172D+01  1  2  4  1  6  1       21 -.399963433104D-01 0.100000000000D+01
-.209345370583D-03 0.000000000000D+00 -.467309935278D-04 0.214263483376D-05 0.000000000000D+00  6 21 2 25 23 2 21 4 0.28819675D-01 0.67985387D-01 0.27901849D+05 0.27901849D+05 0.27901849D+05 0.12182172D+01  1  2  5  1  6  1       21 -.477302440606D+00 0.100000000000D+01
0.209038937910D-03 0.000000000000D+00 0.452425908288D-04 0.214263483376D-05 0.000000000000D+00  6 21 2 25 23 2 21 4 0.25366028D-01 0.67985387D-01 0.27901849D+05 0.27901849D+05 0.27901849D+05 0.12182172D+01  1  2  6  1  6  1       21 0.608887219435D+00 0.100000000000D+01
0.152268633348D-05 0.000000000000D+00 0.000000000000D+00 0.212071025365D-05 0.000000000000D+00  6 -1 2 25 23 2 -1 4 0.28381597D-01 0.67985387D-01 0.31999457D+05 0.31999457D+05 0.31999457D+05 0.12119684D+01  1  2 12  4  6  1       21 0.300984297442D-03 0.100000000000D+01
0.152268633348D-05 0.000000000000D+00 0.000000000000D+00 0.212071025365D-05 0.000000000000D+00  6 -3 2 25 23 2 -3 4 0.28381597D-01 0.67985387D-01 0.31999457D+05 0.31999457D+05 0.31999457D+05 0.12119684D+01  1  2 12  4  6  1       21 0.171586939027D-03 0.100000000000D+01
-.561371689221D-05 0.000000000000D+00 -.157757316054D-05 0.214263483376D-05 0.000000000000D+00  6 -1 2 25 23 2 -1 4 0.28819675D-01 0.67985387D-01 0.27901849D+05 0.27901849D+05 0.27901849D+05 0.12182172D+01  1  2  5  4  6  1       21 -.110362178126D-02 0.100000000000D+01
-.561371689221D-05 0.000000000000D+00 -.157757316054D-05 0.214263483376D-05 0.000000000000D+00  6 -3 2 25 23 2 -3 4 0.28819675D-01 0.67985387D-01 0.27901849D+05 0.27901849D+05 0.27901849D+05 0.12182172D+01  1  2  5  4  6  1       21 -.625603752282D-03 0.100000000000D+01
0.152268633348D-05 0.000000000000D+00 0.000000000000D+00 0.212071025365D-05 0.000000000000D+00  6 1 2 25 23 2 1 4 0.28381597D-01 0.67985387D-01 0.31999457D+05 0.31999457D+05 0.31999457D+05 0.12119684D+01  1  2 12  5  6  1       21 0.516505842766D-03 0.100000000000D+01
0.152268633348D-05 0.000000000000D+00 0.000000000000D+00 0.212071025365D-05 0.000000000000D+00  6 3 2 25 23 2 3 4 0.28381597D-01 0.67985387D-01 0.31999457D+05 0.31999457D+05 0.31999457D+05 0.12119684D+01  1  2 12  5  6  1       21 0.171587958901D-03 0.100000000000D+01
-.561371689221D-05 0.000000000000D+00 -.157757316054D-05 0.214263483376D-05 0.000000000000D+00  6 1 2 25 23 2 1 4 0.28819675D-01 0.67985387D-01 0.27901849D+05 0.27901849D+05 0.27901849D+05 0.12182172D+01  1  2  5  5  6  1       21 -.190619844759D-02 0.100000000000D+01
-.561371689221D-05 0.000000000000D+00 -.157757316054D-05 0.214263483376D-05 0.000000000000D+00  6 3 2 25 23 2 3 4 0.28819675D-01 0.67985387D-01 0.27901849D+05 0.27901849D+05 0.27901849D+05 0.12182172D+01  1  2  5  5  6  1       21 -.625609735108D-03 0.100000000000D+01
0.152268633348D-05 0.000000000000D+00 0.000000000000D+00 0.212071025365D-05 0.000000000000D+00  6 -2 2 25 23 2 -2 4 0.28381597D-01 0.67985387D-01 0.31999457D+05 0.31999457D+05 0.31999457D+05 0.12119684D+01  1  2 12  6  6  1       21 0.265996473863D-03 0.100000000000D+01
-.561371689221D-05 0.000000000000D+00 -.157757316054D-05 0.214263483376D-05 0.000000000000D+00  6 -2 2 25 23 2 -2 4 0.28819675D-01 0.67985387D-01 0.27901849D+05 0.27901849D+05 0.27901849D+05 0.12182172D+01  1  2  5  6  6  1       21 -.973438716701D-03 0.100000000000D+01
0.152268633348D-05 0.000000000000D+00 0.000000000000D+00 0.212071025365D-05 0.000000000000D+00  6 2 2 25 23 2 2 4 0.28381597D-01 0.67985387D-01 0.31999457D+05 0.31999457D+05 0.31999457D+05 0.12119684D+01  1  2 12  7  6  1       21 0.672993068816D-03 0.100000000000D+01
-.561371689221D-05 0.000000000000D+00 -.157757316054D-05 0.214263483376D-05 0.000000000000D+00  6 2 2 25 23 2 2 4 0.28819675D-01 0.67985387D-01 0.27901849D+05 0.27901849D+05 0.27901849D+05 0.12182172D+01  1  2  5  7  6  1       21 -.248912785645D-02 0.100000000000D+01
0.152268633348D-05 0.000000000000D+00 0.000000000000D+00 0.212071025365D-05 0.000000000000D+00  6 -4 2 25 23 2 -4 4 0.28381597D-01 0.67985387D-01 0.31999457D+05 0.31999457D+05 0.31999457D+05 0.12119684D+01  1  2 12  8  6  1       21 0.144994755395D-03 0.100000000000D+01
-.561371689221D-05 0.000000000000D+00 -.157757316054D-05 0.214263483376D-05 0.000000000000D+00  6 -4 2 25 23 2 -4 4 0.28819675D-01 0.67985387D-01 0.27901849D+05 0.27901849D+05 0.27901849D+05 0.12182172D+01  1  2  5  8  6  1       21 -.527583034103D-03 0.100000000000D+01
0.152268633348D-05 0.000000000000D+00 0.000000000000D+00 0.212071025365D-05 0.000000000000D+00  6 4 2 25 23 2 4 4 0.28381597D-01 0.67985387D-01 0.31999457D+05 0.31999457D+05 0.31999457D+05 0.12119684D+01  1  2 12  9  6  1       21 0.144994755395D-03 0.100000000000D+01
-.561371689221D-05 0.000000000000D+00 -.157757316054D-05 0.214263483376D-05 0.000000000000D+00  6 4 2 25 23 2 4 4 0.28819675D-01 0.67985387D-01 0.27901849D+05 0.27901849D+05 0.27901849D+05 0.12182172D+01  1  2  5  9  6  1       21 -.527583034103D-03 0.100000000000D+01
  </mgrwgt>
  </event>
  <event>
  5     66 0.38225901E-03 0.59529145E+02 0.75467711E-02 0.11158680E+00
       21 -1    0    0  501  502 0.00000000E+00 0.00000000E+00 0.15660845E+03 0.15661024E+03 0.75000000E+00 0.0000E+00 0.9000E+01
        2 -1    0    0  502    0 0.00000000E+00 0.00000000E+00 -.37991248E+03 0.37991261E+03 0.32000000E+00 0.0000E+00 0.9000E+01
       25  1    1    2    0    0 -.14245246E+03 -.15758110E+03 -.13811094E+03 0.28253166E+03 0.12500000E+03 0.0000E+00 0.9000E+01
       23  1    1    2    0    0 0.11119986E+03 0.10622108E+03 -.69831484E+02 0.19193752E+03 0.91188000E+02 0.0000E+00 0.9000E+01
        2  1    1    2  501    0 0.31252601E+02 0.51360024E+02 -.15361607E+02 0.62053674E+02 0.32000000E+00 0.0000E+00 0.9000E+01
#aMCatNLO 1  0  0  1  2 0.65446338D+01 0.00000000D+00  -5  6  0 0.00000000D+00 0.00000000D+00 0.00000000D+00 0.00000000D+00 0.00000000D+00
  <mgrwgt>
 0.2673567174D+00   41    2    0
 0.243922162058306D+03 0.000000000000000D+00 0.000000000000000D+00 0.243922162058306D+03
 0.243922162058306D+03 0.000000000000000D+00 0.000000000000000D+00 -.243922162058306D+03
 0.247505467396749D+03 -.142452673297090D+03 -.157581457905154D+03 -.225671528173546D+02
 0.179124954706909D+03 0.111199699026161D+03 0.106220820053336D+03 0.110572319519995D+02
 0.612139020129551D+02 0.312529742709291D+02 0.513606378518178D+02 0.115099208653551D+02
 0.000000000000000D+00 0.000000000000000D+00 -.000000000000000D+00 0.000000000000000D+00
 0.253162897847022D+03 0.000000000000000D+00 0.000000000000000D+00 0.253162897847022D+03
 0.245105658178340D+03 0.000000000000000D+00 0.000000000000000D+00 -.245105658178340D+03
 0.246958959482832D+03 -.144419569518217D+03 -.154911068754736D+03 -.225671528173546D+02
 0.179403722994552D+03 0.109773532323357D+03 0.108157078839614D+03 0.110572319519995D+02
 0.615255391512023D+02 0.307647374435955D+02 0.520235006467848D+02 0.115099208653551D+02
 0.103803343967752D+02 0.388129975126391D+01 -.526951073166344D+01 0.805723966868284D+01
0.904549558189D-05 0.000000000000D+00 0.000000000000D+00 0.642382021253D-07 0.000000000000D+00  6 21 2 25 23 2 21 2 0.24093756D-01 0.58448222D-01 0.58898418D+05 0.58898418D+05 0.58898418D+05 0.11853006D+01  1  2  2  1  6  1       21 0.215596315381D-01 0.100000000000D+01
0.423682022784D-07 0.477343916140D-06 -.182602494570D-07 0.642382021253D-07 0.000000000000D+00  6 21 2 25 23 2 21 4 0.24093756D-01 0.58448222D-01 0.58898418D+05 0.58898418D+05 0.58898418D+05 0.11853006D+01  1  2  3  1  6  1       21 0.141875038995D-03 0.100000000000D+01
0.883479365366D-06 0.000000000000D+00 0.000000000000D+00 0.642382021253D-07 0.000000000000D+00  6 21 2 25 23 2 21 4 0.24093756D-01 0.58448222D-01 0.58898418D+05 0.58898418D+05 0.58898418D+05 0.11853006D+01  1  2 15  1  6  1       21 0.295843728722D-02 0.100000000000D+01
0.456104027609D-04 0.000000000000D+00 0.000000000000D+00 0.641149180681D-07 0.000000000000D+00  6 21 2 25 23 2 21 4 0.25063671D-01 0.58448222D-01 0.60509193D+05 0.60509193D+05 0.60509193D+05 0.11841626D+01  1  2 12  1  6  1       21 0.140992423997D+00 0.100000000000D+01
0.293876767005D-04 0.000000000000D+00 0.000000000000D+00 0.641149180681D-07 0.000000000000D+00  6 21 2 25 23 2 21 4 0.25575603D-01 0.58448222D-01 0.60509193D+05 0.60509193D+05 0.60509193D+05 0.11841626D+01  1  2 12  1  6  1       21 0.873802370333D-01 0.100000000000D+01
-.582138912991D-04 0.000000000000D+00 0.000000000000D+00 0.642382021253D-07 0.000000000000D+00  6 21 2 25 23 2 21 4 0.24093756D-01 0.58448222D-01 0.58898418D+05 0.58898418D+05 0.58898418D+05 0.11853006D+01  1  2  4  1  6  1       21 -.194936241190D+00 0.100000000000D+01
-.670341472631D-03 0.000000000000D+00 -.669067746318D-04 0.642382021253D-07 0.000000000000D+00  6 21 2 25 23 2 21 4 0.25106452D-01 0.58448222D-01 0.58898418D+05 0.58898418D+05 0.58898418D+05 0.11853006D+01  1  2  5  1  6  1       21 -.207441313025D+01 0.100000000000D+01
0.670789980632D-03 0.000000000000D+00 0.666804844335D-04 0.642382021253D-07 0.000000000000D+00  6 21 2 25 23 2 21 4 0.24093756D-01 0.58448222D-01 0.58898418D+05 0.58898418D+05 0.58898418D+05 0.11853006D+01  1  2  6  1  6  1       21 0.224622121172D+01 0.100000000000D+01
0.140992647036D-04 0.000000000000D+00 0.000000000000D+00 0.642382021253D-07 0.205414890102D-07  6 21 2 25 23 2 21 4 0.25006522D-01 0.58731810D-01 0.60509193D+05 0.60509193D+05 0.60509193D+05 0.11841626D+01  1  2 11  1  6  1       21 0.435460355400D-01 0.100000000000D+01
0.129022133983D-05 0.000000000000D+00 0.000000000000D+00 0.641149180681D-07 0.000000000000D+00  6 -1 2 25 23 2 -1 4 0.25063671D-01 0.58448222D-01 0.60509193D+05 0.60509193D+05 0.60509193D+05 0.11841626D+01  1  2 12  4  6  1       21 0.338105295833D-03 0.100000000000D+01
0.129022133983D-05 0.000000000000D+00 0.000000000000D+00 0.641149180681D-07 0.000000000000D+00  6 -3 2 25 23 2 -3 4 0.25063671D-01 0.58448222D-01 0.60509193D+05 0.60509193D+05 0.60509193D+05 0.11841626D+01  1  2 12  4  6  1       21 0.199434159522D-03 0.100000000000D+01
0.129325501188D-05 0.000000000000D+00 0.000000000000D+00 0.641149180681D-07 0.000000000000D+00  6 -1 2 25 23 2 -1 4 0.25575603D-01 0.58448222D-01 0.60509193D+05 0.60509193D+05 0.60509193D+05 0.11841626D+01  1  2 12  4  6  1       21 0.327656571344D-03 0.100000000000D+01
0.129325501188D-05 0.000000000000D+00 0.000000000000D+00 0.641149180681D-07 0.000000000000D+00  6 -3 2 25 23 2 -3 4 0.25575603D-01 0.58448222D-01 0.60509193D+05 0.60509193D+05 0.60509193D+05 0.11841626D+01  1  2 12  4  6  1       21 0.192634153741D-03 0.100000000000D+01
-.592813735051D-05 0.000000000000D+00 -.650051903589D-06 0.642382021253D-07 0.000000000000D+00  6 -1 2 25 23 2 -1 4 0.25106452D-01 0.58448222D-01 0.58898418D+05 0.58898418D+05 0.58898418D+05 0.11853006D+01  1  2  5  4  6  1       21 -.155481724814D-02 0.100000000000D+01
-.592813735051D-05 0.000000000000D+00 -.650051903589D-06 0.642382021253D-07 0.000000000000D+00  6 -3 2 25 23 2 -3 4 0.25106452D-01 0.58448222D-01 0.58898418D+05 0.58898418D+05 0.58898418D+05 0.11853006D+01  1  2  5  4  6  1       21 -.916373444468D-03 0.100000000000D+01
0.246046126613D-06 0.000000000000D+00 0.000000000000D+00 0.642382021253D-07 0.197483015049D-09  6 -1 2 25 23 2 -1 4 0.25006522D-01 0.58731810D-01 0.60509193D+05 0.60509193D+05 0.60509193D+05 0.11841626D+01  1  2 11  4  6  1       21 0.643832437348D-04 0.100000000000D+01
0.246046126613D-06 0.000000000000D+00 0.000000000000D+00 0.642382021253D-07 0.197483015049D-09  6 -3 2 25 23 2 -3 4 0.25006522D-01 0.58731810D-01 0.60509193D+05 0.60509193D+05 0.60509193D+05 0.11841626D+01  1  2 11  4  6  1       21 0.379910979860D-04 0.100000000000D+01
0.129022133983D-05 0.000000000000D+00 0.000000000000D+00 0.641149180681D-07 0.000000000000D+00  6 1 2 25 23 2 1 4 0.25063671D-01 0.58448222D-01 0.60509193D+05 0.60509193D+05 0.60509193D+05 0.11841626D+01  1  2 12  5  6  1       21 0.551656342159D-03 0.100000000000D+01
0.129022133983D-05 0.000000000000D+00 0.000000000000D+00 0.641149180681D-07 0.000000000000D+00  6 3 2 25 23 2 3 4 0.25063671D-01 0.58448222D-01 0.60509193D+05 0.60509193D+05 0.60509193D+05 0.11841626D+01  1  2 12  5  6  1       21 0.199429079413D-03 0.100000000000D+01
0.129325501188D-05 0.000000000000D+00 0.000000000000D+00 0.641149180681D-07 0.000000000000D+00  6 1 2 25 23 2 1 4 0.25575603D-01 0.58448222D-01 0.60509193D+05 0.60509193D+05 0.60509193D+05 0.11841626D+01  1  2 12  5  6  1       21 0.538876057289D-03 0.100000000000D+01
0.129325501188D-05 0.000000000000D+00 0.000000000000D+00 0.641149180681D-07 0.000000000000D+00  6 3 2 25 23 2 3 4 0.25575603D-01 0.58448222D-01 0.60509193D+05 0.60509193D+05 0.60509193D+05 0.11841626D+01  1  2 12  5  6  1       21 0.192630414579D-03 0.100000000000D+01
-.592813735051D-05 0.000000000000D+00 -.650051903589D-06 0.642382021253D-07 0.000000000000D+00  6 1 2 25 23 2 1 4 0.25106452D-01 0.58448222D-01 0.58898418D+05 0.58898418D+05 0.58898418D+05 0.11853006D+01  1  2  5  5  6  1       21 -.253854217141D-02 0.100000000000D+01
-.592813735051D-05 0.000000000000D+00 -.650051903589D-06 0.642382021253D-07 0.000000000000D+00  6 3 2 25 23 2 3 4 0.25106452D-01 0.58448222D-01 0.58898418D+05 0.58898418D+05 0.58898418D+05 0.11853006D+01  1  2  5  5  6  1       21 -.916350172711D-03 0.100000000000D+01
0.254113814827D-06 0.000000000000D+00 0.000000000000D+00 0.642382021253D-07 0.203958351259D-09  6 1 2 25 23 2 1 4 0.25006522D-01 0.58731810D-01 0.60509193D+05 0.60509193D+05 0.60509193D+05 0.11841626D+01  1  2 11  5  6  1       21 0.108396223329D-03 0.100000000000D+01
0.254113814827D-06 0.000000000000D+00 0.000000000000D+00 0.642382021253D-07 0.203958351259D-09  6 3 2 25 23 2 3 4 0.25006522D-01 0.58731810D-01 0.60509193D+05 0.60509193D+05 0.60509193D+05 0.11841626D+01  1  2 11  5  6  1       21 0.392357751108D-04 0.100000000000D+01
0.129022133983D-05 0.000000000000D+00 0.000000000000D+00 0.641149180681D-07 0.000000000000D+00  6 -2 2 25 23 2 -2 4 0.25063671D-01 0.58448222D-01 0.60509193D+05 0.60509193D+05 0.60509193D+05 0.11841626D+01  1  2 12  6  6  1       21 0.303064336550D-03 0.100000000000D+01
0.129325501188D-05 0.000000000000D+00 0.000000000000D+00 0.641149180681D-07 0.000000000000D+00  6 -2 2 25 23 2 -2 4 0.25575603D-01 0.58448222D-01 0.60509193D+05 0.60509193D+05 0.60509193D+05 0.11841626D+01  1  2 12  6  6  1       21 0.293088992681D-03 0.100000000000D+01
-.592813735051D-05 0.000000000000D+00 -.650051903589D-06 0.642382021253D-07 0.000000000000D+00  6 -2 2 25 23 2 -2 4 0.25106452D-01 0.58448222D-01 0.58898418D+05 0.58898418D+05 0.58898418D+05 0.11853006D+01  1  2  5  6  6  1       21 -.139339254160D-02 0.100000000000D+01
0.153073587278D-05 0.000000000000D+00 0.000000000000D+00 0.642382021253D-07 0.216786654177D-08  6 -2 2 25 23 2 -2 4 0.25006522D-01 0.58731810D-01 0.60509193D+05 0.60509193D+05 0.60509193D+05 0.11841626D+01  1  2 11  6  6  1       21 0.359120713753D-03 0.100000000000D+01
0.129022133983D-05 0.000000000000D+00 0.000000000000D+00 0.641149180681D-07 0.000000000000D+00  6 2 2 25 23 2 2 4 0.25063671D-01 0.58448222D-01 0.60509193D+05 0.60509193D+05 0.60509193D+05 0.11841626D+01  1  2 12  7  6  1       21 0.705720425922D-03 0.100000000000D+01
0.129325501188D-05 0.000000000000D+00 0.000000000000D+00 0.641149180681D-07 0.000000000000D+00  6 2 2 25 23 2 2 4 0.25575603D-01 0.58448222D-01 0.60509193D+05 0.60509193D+05 0.60509193D+05 0.11841626D+01  1  2 12  7  6  1       21 0.691536198964D-03 0.100000000000D+01
-.592813735051D-05 0.000000000000D+00 -.650051903589D-06 0.642382021253D-07 0.000000000000D+00  6 2 2 25 23 2 2 4 0.25106452D-01 0.58448222D-01 0.58898418D+05 0.58898418D+05 0.58898418D+05 0.11853006D+01  1  2  5  7  6  1       21 -.324820108961D-02 0.100000000000D+01
0.281138002917D-06 0.000000000000D+00 0.000000000000D+00 0.642382021253D-07 0.119212533448D-09  6 2 2 25 23 2 2 4 0.25006522D-01 0.58731810D-01 0.60509193D+05 0.60509193D+05 0.60509193D+05 0.11841626D+01  1  2 11  7  6  1       21 0.153361478584D-03 0.100000000000D+01
0.129022133983D-05 0.000000000000D+00 0.000000000000D+00 0.641149180681D-07 0.000000000000D+00  6 -4 2 25 23 2 -4 4 0.25063671D-01 0.58448222D-01 0.60509193D+05 0.60509193D+05 0.60509193D+05 0.11841626D+01  1  2 12  8  6  1       21 0.170382616433D-03 0.100000000000D+01
0.129325501188D-05 0.000000000000D+00 0.000000000000D+00 0.641149180681D-07 0.000000000000D+00  6 -4 2 25 23 2 -4 4 0.25575603D-01 0.58448222D-01 0.60509193D+05 0.60509193D+05 0.60509193D+05 0.11841626D+01  1  2 12  8  6  1       21 0.164443429894D-03 0.100000000000D+01
-.592813735051D-05 0.000000000000D+00 -.650051903589D-06 0.642382021253D-07 0.000000000000D+00  6 -4 2 25 23 2 -4 4 0.25106452D-01 0.58448222D-01 0.58898418D+05 0.58898418D+05 0.58898418D+05 0.11853006D+01  1  2  5  8  6  1       21 -.782647836808D-03 0.100000000000D+01
0.279901902420D-06 0.000000000000D+00 0.000000000000D+00 0.642382021253D-07 0.224656540498D-09  6 -4 2 25 23 2 -4 4 0.25006522D-01 0.58731810D-01 0.60509193D+05 0.60509193D+05 0.60509193D+05 0.11841626D+01  1  2 11  8  6  1       21 0.369262746411D-04 0.100000000000D+01
0.129022133983D-05 0.000000000000D+00 0.000000000000D+00 0.641149180681D-07 0.000000000000D+00  6 4 2 25 23 2 4 4 0.25063671D-01 0.58448222D-01 0.60509193D+05 0.60509193D+05 0.60509193D+05 0.11841626D+01  1  2 12  9  6  1       21 0.170382616433D-03 0.100000000000D+01
0.129325501188D-05 0.000000000000D+00 0.000000000000D+00 0.641149180681D-07 0.000000000000D+00  6 4 2 25 23 2 4 4 0.25575603D-01 0.58448222D-01 0.60509193D+05 0.60509193D+05 0.60509193D+05 0.11841626D+01  1  2 12  9  6  1       21 0.164443429894D-03 0.100000000000D+01
-.592813735051D-05 0.000000000000D+00 -.650051903589D-06 0.642382021253D-07 0.000000000000D+00  6 4 2 25 23 2 4 4 0.25106452D-01 0.58448222D-01 0.58898418D+05 0.58898418D+05 0.58898418D+05 0.11853006D+01  1  2  5  9  6  1       21 -.782647836808D-03 0.100000000000D+01
0.275231662646D-06 0.000000000000D+00 0.000000000000D+00 0.642382021253D-07 0.220908084694D-09  6 4 2 25 23 2 4 4 0.25006522D-01 0.58731810D-01 0.60509193D+05 0.60509193D+05 0.60509193D+05 0.11841626D+01  1  2 11  9  6  1       21 0.363101496522D-04 0.100000000000D+01
  </mgrwgt>
  </event>
  <event>
  6     66 -.38225901E-03 0.85831145E+02 0.75467711E-02 0.10693705E+00
       21 -1    0    0  503  502 0.00000000E+00 0.00000000E+00 0.12955234E+03 0.12955451E+03 0.75000000E+00 0.0000E+00 0.9000E+01
        2 -1    0    0  502    0 0.00000000E+00 0.00000000E+00 -.12017192E+04 0.12017192E+04 0.32000000E+00 0.0000E+00 0.9000E+01
       25  1    1    2    0    0 -.68551462E+02 0.18393346E+03 -.54208269E+03 0.58992327E+03 0.12500000E+03 0.0000E+00 0.9000E+01
       23  1    1    2    0    0 0.11918323E+03 -.27911160E+03 -.53571494E+03 0.62242564E+03 0.91188000E+02 0.0000E+00 0.9000E+01
        2  1    1    2  501    0 -.29097696E+02 0.92217592E+02 0.10884845E+01 0.96705984E+02 0.32000000E+00 0.0000E+00 0.9000E+01
       21  1    1    2  503  501 -.21534071E+02 0.29605483E+01 0.45423107E+01 0.22218824E+02 0.75000000E+00 0.0000E+00 0.9000E+01
#aMCatNLO 2  0  0  1  2 0.21736629D+02 0.00000000D+00  -5  6  0 0.00000000D+00 0.00000000D+00 0.00000000D+00 0.00000000D+00 0.00000000D+00
  <mgrwgt>
 -.1351593877D+00    2    2    0
 0.372105379345508D+03 0.000000000000000D+00 0.000000000000000D+00 0.372105379345508D+03
 0.372105379345508D+03 0.000000000000000D+00 0.000000000000000D+00 -.372105379345508D+03
 0.256106591924684D+03 -.759195835580456D+02 0.184946396099504D+03 -.999831677306470D+02
 0.315216342686440D+03 0.110000303026601D+03 -.277849180494288D+03 -.417834606671586D+02
 0.172887824079891D+03 -.340807194685557D+02 0.929027843947831D+02 0.141766628397806D+03
 0.000000000000000D+00 -.000000000000000D+00 0.000000000000000D+00 0.000000000000000D+00
 0.415137330848707D+03 0.000000000000000D+00 0.000000000000000D+00 0.415137330848707D+03
 0.375019167323426D+03 0.000000000000000D+00 0.000000000000000D+00 -.375019167323426D+03
 0.253283305833473D+03 -.685514424527713D+02 0.183933408934109D+03 -.999831677306470D+02
 0.319638988305178D+03 0.119183256361107D+03 -.279111671770631D+03 -.417834606671586D+02
 0.171605834549944D+03 -.290977429748563D+02 0.922177145567516D+02 0.141766628397806D+03
 0.456283694835377D+02 -.215340709334797D+02 0.296054827977029D+01 0.401181635252818D+02
-.276818409363D-03 0.000000000000D+00 0.000000000000D+00 0.540648411728D-07 0.000000000000D+00  6 21 2 25 23 2 21 4 0.19996155D-01 0.18344208D+00 0.11157147D+06 0.11157147D+06 0.11157147D+06 0.11592284D+01  1  2 13  1  6  1       21 -.284864548980D+00 0.100000000000D+01
0.146382491064D-03 0.000000000000D+00 0.000000000000D+00 0.542994009933D-07 0.173021201752D-08  6 21 2 25 23 2 21 4 0.19931136D-01 0.18487853D+00 0.11157147D+06 0.11157147D+06 0.11157147D+06 0.11592284D+01  1  2  1  1  6  1       21 0.149705161309D+00 0.100000000000D+01
  </mgrwgt>
  </event>
  <event>
  6     66 0.38225901E-03 0.63180676E+02 0.75467711E-02 0.11727169E+00
       21 -1    0    0  501  502 0.00000000E+00 0.00000000E+00 0.73920972E+02 0.73924777E+02 0.75000000E+00 0.0000E+00 0.9000E+01
        2 -1    0    0  503    0 0.00000000E+00 0.00000000E+00 -.96839722E+03 0.96839727E+03 0.32000000E+00 0.0000E+00 0.9000E+01
       25  1    1    2    0    0 -.27246652E+02 0.86400616E+02 -.13908773E+03 0.20779279E+03 0.12500000E+03 0.0000E+00 0.9000E+01
       23  1    1    2    0    0 0.24782388E+02 -.33689588E+02 -.47465148E+02 0.11098354E+03 0.91188000E+02 0.0000E+00 0.9000E+01
        2  1    1    2  501    0 -.52153283E+01 0.20786296E+02 -.13782354E+02 0.25481865E+02 0.32000000E+00 0.0000E+00 0.9000E+01
       21  1    1    2  503  502 0.76795919E+01 -.73497324E+02 -.69414101E+03 0.69806385E+03 0.75000000E+00 0.0000E+00 0.9000E+01
#aMCatNLO 2  0  0  2  2 0.17626375D+03 0.00000000D+00  -5  6  0 0.00000000D+00 0.00000000D+00 0.00000000D+00 0.00000000D+00 0.00000000D+00
  <mgrwgt>
 0.6285209036D-01    1    2    0
 0.135017283724163D+03 0.000000000000000D+00 0.000000000000000D+00 0.135017283724163D+03
 0.135017283724163D+03 0.000000000000000D+00 0.000000000000000D+00 -.135017283724163D+03
 0.137429017900107D+03 -.231492633101741D+02 0.471894738302044D+02 -.223383107869104D+02
 0.116150583089155D+03 0.278358552774886D+02 -.629103392501700D+02 0.210513891311246D+02
 0.164549664590632D+02 -.468659196731456D+01 0.157208654199655D+02 0.128692165578582D+01
 0.000000000000000D+00 0.000000000000000D+00 -.000000000000000D+00 -.000000000000000D+00
 0.143796730107012D+03 0.000000000000000D+00 0.000000000000000D+00 0.143796730107012D+03
 0.497831188373046D+03 0.000000000000000D+00 0.000000000000000D+00 -.497831188373046D+03
 0.155984366059078D+03 -.272461786148546D+02 0.863988893269306D+02 -.223383107869104D+02
 0.102506881983997D+03 0.247827528489183D+02 -.336907062401546D+02 0.210513891311246D+02
 0.214721430461016D+02 -.521616615816202D+01 0.207891406810038D+02 0.128692165578582D+01
 0.361664527390883D+03 0.767959192409829D+01 -.734973237677798D+02 -.354034458266034D+03
0.127920276032D-04 0.000000000000D+00 0.000000000000D+00 0.560782927353D-06 0.117871963427D-08  6 21 2 25 23 2 21 4 0.11372724D-01 0.14898409D+00 0.30630168D+05 0.30630168D+05 0.30630168D+05 0.12139520D+01  1  2  1  2  6  2        2 0.628520903645D-01 0.100000000000D+01
  </mgrwgt>
  </event>
  <event>
  5     66 0.38225901E-03 0.46808987E+02 0.75467711E-02 0.12116651E+00
       21 -1    0    0  501  502 0.00000000E+00 0.00000000E+00 0.93426744E+02 0.93429755E+02 0.75000000E+00 0.0000E+00 0.9000E+01
        2 -1    0    0  502    0 0.00000000E+00 0.00000000E+00 -.22732715E+03 0.22732737E+03 0.32000000E+00 0.0000E+00 0.9000E+01
       25  1    1    2    0    0 -.43822483E+02 0.36953446E+02 -.75965160E+02 0.15710402E+03 0.12500000E+03 0.0000E+00 0.9000E+01
       23  1    1    2    0    0 0.30431736E+01 -.13973535E+02 -.69373612E+02 0.11546632E+03 0.91188000E+02 0.0000E+00 0.9000E+01
        2  1    1    2  501    0 0.40779309E+02 -.22979911E+02 0.11438369E+02 0.48186793E+02 0.32000000E+00 0.0000E+00 0.9000E+01
#aMCatNLO 1  0  0  1  2 0.59156885D+01 0.00000000D+00  -5  6  0 0.00000000D+00 0.00000000D+00 0.00000000D+00 0.00000000D+00 0.00000000D+00
  <mgrwgt>
 0.7994175277D-01   32    2    0
 0.145735905704245D+03 0.000000000000000D+00 0.000000000000000D+00 0.145735905704245D+03
 0.145735905704245D+03 0.000000000000000D+00 0.000000000000000D+00 -.145735905704245D+03
 0.137991093407697D+03 -.438227738084177D+02 0.369536102717668D+02 -.114252808924032D+02
 0.951978660432402D+02 0.304297284372376D+01 -.139734217030504D+02 -.232994883499143D+02
 0.582828519575527D+02 0.407798009646939D+02 -.229801885687164D+02 0.347247692423174D+02
 0.000000000000000D+00 0.000000000000000D+00 0.000000000000000D+00 0.000000000000000D+00
 0.149076059443670D+03 0.000000000000000D+00 0.000000000000000D+00 0.149076059443670D+03
 0.148408961137402D+03 0.000000000000000D+00 0.000000000000000D+00 -.148408961137402D+03
 0.138440575554126D+03 -.462844472183052D+02 0.356090699398807D+02 -.114252808924032D+02
 0.952992142566687D+02 0.134656230220845D+01 -.148999834408270D+02 -.232994883499143D+02
 0.577920475854458D+02 0.397461332419127D+02 -.235447670938228D+02 0.347247692423174D+02
 0.595318318483222D+01 0.519175167418407D+01 0.283568059476917D+01 0.667098306267993D+00
0.843198664651D-06 0.000000000000D+00 0.000000000000D+00 0.412264326787D-06 0.000000000000D+00  6 21 2 25 23 2 21 2 0.14373594D-01 0.34973656D-01 0.19130882D+05 0.19130882D+05 0.19130882D+05 0.12359559D+01  1  2  2  1  6  1       21 0.991863969128D-02 0.100000000000D+01
-.393849626393D-08 0.444968160146D-07 -.170217516763D-08 0.412264326787D-06 0.000000000000D+00  6 21 2 25 23 2 21 4 0.14373594D-01 0.34973656D-01 0.19130882D+05 0.19130882D+05 0.19130882D+05 0.12359559D+01  1  2  3  1  6  1       21 -.707715344228D-04 0.100000000000D+01
0.977909064739D-07 0.000000000000D+00 0.000000000000D+00 0.412264326787D-06 0.000000000000D+00  6 21 2 25 23 2 21 4 0.14373594D-01 0.34973656D-01 0.19130882D+05 0.19130882D+05 0.19130882D+05 0.12359559D+01  1  2 15  1  6  1       21 0.175722205633D-02 0.100000000000D+01
0.106791521007D-05 0.000000000000D+00 0.000000000000D+00 0.410924698213D-06 0.000000000000D+00  6 21 2 25 23 2 21 4 0.14832136D-01 0.34973656D-01 0.19949805D+05 0.19949805D+05 0.19949805D+05 0.12339462D+01  1  2 12  1  6  1       21 0.180245453815D-01 0.100000000000D+01
-.368896173897D-06 0.000000000000D+00 0.000000000000D+00 0.412264326787D-06 0.000000000000D+00  6 21 2 25 23 2 21 4 0.14373594D-01 0.34973656D-01 0.19130882D+05 0.19130882D+05 0.19130882D+05 0.12359559D+01  1  2  4  1  6  1       21 -.662876045067D-02 0.100000000000D+01
-.434372163162D-04 0.000000000000D+00 -.643512193543D-05 0.412264326787D-06 0.000000000000D+00  6 21 2 25 23 2 21 4 0.14964344D-01 0.34973656D-01 0.19130882D+05 0.19130882D+05 0.19130882D+05 0.12359559D+01  1  2  5  1  6  1       21 -.725864510797D+00 0.100000000000D+01
0.435516370056D-04 0.000000000000D+00 0.641429069899D-05 0.412264326787D-06 0.000000000000D+00  6 21 2 25 23 2 21 4 0.14373594D-01 0.34973656D-01 0.19130882D+05 0.19130882D+05 0.19130882D+05 0.12359559D+01  1  2  6  1  6  1       21 0.782587051243D+00 0.100000000000D+01
0.179721056302D-06 0.000000000000D+00 0.000000000000D+00 0.412264326787D-06 0.132303018742D-06  6 21 2 25 23 2 21 4 0.14703026D-01 0.35615135D-01 0.19949805D+05 0.19949805D+05 0.19949805D+05 0.12339462D+01  1  2 11  1  6  1       21 0.302216179968D-02 0.100000000000D+01
0.253442250645D-07 0.000000000000D+00 0.000000000000D+00 0.410924698213D-06 0.000000000000D+00  6 -1 2 25 23 2 -1 4 0.14832136D-01 0.34973656D-01 0.19949805D+05 0.19949805D+05 0.19949805D+05 0.12339462D+01  1  2 12  4  6  1       21 0.311119563636D-04 0.100000000000D+01
0.253442250645D-07 0.000000000000D+00 0.000000000000D+00 0.410924698213D-06 0.000000000000D+00  6 -3 2 25 23 2 -3 4 0.14832136D-01 0.34973656D-01 0.19949805D+05 0.19949805D+05 0.19949805D+05 0.12339462D+01  1  2 12  4  6  1       21 0.194098541042D-04 0.100000000000D+01
-.357511054535D-06 0.000000000000D+00 -.610861845747D-07 0.412264326787D-06 0.000000000000D+00  6 -1 2 25 23 2 -1 4 0.14964344D-01 0.34973656D-01 0.19130882D+05 0.19130882D+05 0.19130882D+05 0.12359559D+01  1  2  5  4  6  1       21 -.435119908264D-03 0.100000000000D+01
-.357511054535D-06 0.000000000000D+00 -.610861845747D-07 0.412264326787D-06 0.000000000000D+00  6 -3 2 25 23 2 -3 4 0.14964344D-01 0.34973656D-01 0.19130882D+05 0.19130882D+05 0.19130882D+05 0.12359559D+01  1  2  5  4  6  1       21 -.270846869810D-03 0.100000000000D+01
0.129680839894D-07 0.000000000000D+00 0.000000000000D+00 0.412264326787D-06 0.888671689097D-09  6 -1 2 25 23 2 -1 4 0.14703026D-01 0.35615135D-01 0.19949805D+05 0.19949805D+05 0.19949805D+05 0.12339462D+01  1  2 11  4  6  1       21 0.158274876699D-04 0.100000000000D+01
0.129680839894D-07 0.000000000000D+00 0.000000000000D+00 0.412264326787D-06 0.888671689097D-09  6 -3 2 25 23 2 -3 4 0.14703026D-01 0.35615135D-01 0.19949805D+05 0.19949805D+05 0.19949805D+05 0.12339462D+01  1  2 11  4  6  1       21 0.988662093003D-05 0.100000000000D+01
0.253442250645D-07 0.000000000000D+00 0.000000000000D+00 0.410924698213D-06 0.000000000000D+00  6 1 2 25 23 2 1 4 0.14832136D-01 0.34973656D-01 0.19949805D+05 0.19949805D+05 0.19949805D+05 0.12339462D+01  1  2 12  5  6  1       21 0.427606367434D-04 0.100000000000D+01
0.253442250645D-07 0.000000000000D+00 0.000000000000D+00 0.410924698213D-06 0.000000000000D+00  6 3 2 25 23 2 3 4 0.14832136D-01 0.34973656D-01 0.19949805D+05 0.19949805D+05 0.19949805D+05 0.12339462D+01  1  2 12  5  6  1       21 0.194074739728D-04 0.100000000000D+01
-.357511054535D-06 0.000000000000D+00 -.610861845747D-07 0.412264326787D-06 0.000000000000D+00  6 1 2 25 23 2 1 4 0.14964344D-01 0.34973656D-01 0.19130882D+05 0.19130882D+05 0.19130882D+05 0.12359559D+01  1  2  5  5  6  1       21 -.599506074612D-03 0.100000000000D+01
-.357511054535D-06 0.000000000000D+00 -.610861845747D-07 0.412264326787D-06 0.000000000000D+00  6 3 2 25 23 2 3 4 0.14964344D-01 0.34973656D-01 0.19130882D+05 0.19130882D+05 0.19130882D+05 0.12359559D+01  1  2  5  5  6  1       21 -.270813608628D-03 0.100000000000D+01
0.130429611199D-07 0.000000000000D+00 0.000000000000D+00 0.412264326787D-06 0.893802839243D-09  6 1 2 25 23 2 1 4 0.14703026D-01 0.35615135D-01 0.19949805D+05 0.19949805D+05 0.19949805D+05 0.12339462D+01  1  2 11  5  6  1       21 0.218275527294D-04 0.100000000000D+01
0.130429611199D-07 0.000000000000D+00 0.000000000000D+00 0.412264326787D-06 0.893802839243D-09  6 3 2 25 23 2 3 4 0.14703026D-01 0.35615135D-01 0.19949805D+05 0.19949805D+05 0.19949805D+05 0.12339462D+01  1  2 11  5  6  1       21 0.994248226891D-05 0.100000000000D+01
0.253442250645D-07 0.000000000000D+00 0.000000000000D+00 0.410924698213D-06 0.000000000000D+00  6 -2 2 25 23 2 -2 4 0.14832136D-01 0.34973656D-01 0.19949805D+05 0.19949805D+05 0.19949805D+05 0.12339462D+01  1  2 12  6  6  1       21 0.291056463614D-04 0.100000000000D+01
-.357511054535D-06 0.000000000000D+00 -.610861845747D-07 0.412264326787D-06 0.000000000000D+00  6 -2 2 25 23 2 -2 4 0.14964344D-01 0.34973656D-01 0.19130882D+05 0.19130882D+05 0.19130882D+05 0.12359559D+01  1  2  5  6  6  1       21 -.406807699524D-03 0.100000000000D+01
0.368483485717D-07 0.000000000000D+00 0.000000000000D+00 0.412264326787D-06 0.250979816649D-07  6 -2 2 25 23 2 -2 4 0.14703026D-01 0.35615135D-01 0.19949805D+05 0.19949805D+05 0.19949805D+05 0.12339462D+01  1  2 11  6  6  1       21 0.420972917562D-04 0.100000000000D+01
0.253442250645D-07 0.000000000000D+00 0.000000000000D+00 0.410924698213D-06 0.000000000000D+00  6 2 2 25 23 2 2 4 0.14832136D-01 0.34973656D-01 0.19949805D+05 0.19949805D+05 0.19949805D+05 0.12339462D+01  1  2 12  7  6  1       21 0.507787914763D-04 0.100000000000D+01
-.357511054535D-06 0.000000000000D+00 -.610861845747D-07 0.412264326787D-06 0.000000000000D+00  6 2 2 25 23 2 2 4 0.14964344D-01 0.34973656D-01 0.19130882D+05 0.19130882D+05 0.19130882D+05 0.12359559D+01  1  2  5  7  6  1       21 -.712680250801D-03 0.100000000000D+01
0.868747804714D-08 0.000000000000D+00 0.000000000000D+00 0.412264326787D-06 0.540791725796D-09  6 2 2 25 23 2 2 4 0.14703026D-01 0.35615135D-01 0.19949805D+05 0.19949805D+05 0.19949805D+05 0.12339462D+01  1  2 11  7  6  1       21 0.172462250068D-04 0.100000000000D+01
0.253442250645D-07 0.000000000000D+00 0.000000000000D+00 0.410924698213D-06 0.000000000000D+00  6 -4 2 25 23 2 -4 4 0.14832136D-01 0.34973656D-01 0.19949805D+05 0.19949805D+05 0.19949805D+05 0.12339462D+01  1  2 12  8  6  1       21 0.167283230142D-04 0.100000000000D+01
-.357511054535D-06 0.000000000000D+00 -.610861845747D-07 0.412264326787D-06 0.000000000000D+00  6 -4 2 25 23 2 -4 4 0.14964344D-01 0.34973656D-01 0.19130882D+05 0.19130882D+05 0.19130882D+05 0.12359559D+01  1  2  5  8  6  1       21 -.233249512939D-03 0.100000000000D+01
0.118816230728D-07 0.000000000000D+00 0.000000000000D+00 0.412264326787D-06 0.814219128594D-09  6 -4 2 25 23 2 -4 4 0.14703026D-01 0.35615135D-01 0.19949805D+05 0.19949805D+05 0.19949805D+05 0.12339462D+01  1  2 11  8  6  1       21 0.780932165438D-05 0.100000000000D+01
0.253442250645D-07 0.000000000000D+00 0.000000000000D+00 0.410924698213D-06 0.000000000000D+00  6 4 2 25 23 2 4 4 0.14832136D-01 0.34973656D-01 0.19949805D+05 0.19949805D+05 0.19949805D+05 0.12339462D+01  1  2 12  9  6  1       21 0.167283230142D-04 0.100000000000D+01
-.357511054535D-06 0.000000000000D+00 -.610861845747D-07 0.412264326787D-06 0.000000000000D+00  6 4 2 25 23 2 4 4 0.14964344D-01 0.34973656D-01 0.19130882D+05 0.19130882D+05 0.19130882D+05 0.12359559D+01  1  2  5  9  6  1       21 -.233249512939D-03 0.100000000000D+01
0.118382780471D-07 0.000000000000D+00 0.000000000000D+00 0.412264326787D-06 0.811248797955D-09  6 4 2 25 23 2 4 4 0.14703026D-01 0.35615135D-01 0.19949805D+05 0.19949805D+05 0.19949805D+05 0.12339462D+01  1  2 11  9  6  1       21 0.778083268062D-05 0.100000000000D+01
  </mgrwgt>
  </event>
  <event>
  5     66 0.38225901E-03 0.82862900E+02 0.75467711E-02 0.11416711E+00
       21 -1    0    0  501  502 0.00000000E+00 0.00000000E+00 0.99866768E+03 0.99866796E+03 0.75000000E+00 0.0000E+00 0.9000E+01
        2 -1    0    0  502    0 0.00000000E+00 0.00000000E+00 -.20197423E+03 0.20197448E+03 0.32000000E+00 0.0000E+00 0.9000E+01
       25  1    1    2    0    0 0.80590203E+02 0.75259989E+02 -.10690129E+02 0.16702732E+03 0.12500000E+03 0.0000E+00 0.9000E+01
       23  1    1    2    0    0 -.59917683E+02 0.42470153E+02 -.77683626E+02 0.14051277E+03 0.91188000E+02 0.0000E+00 0.9000E+01
        2  1    1    2  501    0 -.20672520E+02 -.11773014E+03 0.88506721E+03 0.89310235E+03 0.32000000E+00 0.0000E+00 0.9000E+01
#aMCatNLO 1  0  0  1  2 0.13578659D+02 0.00000000D+00  -5  6  0 0.00000000D+00 0.00000000D+00 0.00000000D+00 0.00000000D+00 0.00000000D+00
  <mgrwgt>
 0.9470913031D-01   23    2    0
 0.449116303896440D+03 0.000000000000000D+00 0.000000000000000D+00 0.449116303896440D+03
 0.449116303896440D+03 0.000000000000000D+00 0.000000000000000D+00 -.449116303896440D+03
 0.232742461046708D+03 0.805902044585438D+02 0.752599980431296D+02 -.162435232674308D+03
 0.256721548453826D+03 -.599176813849362D+02 0.424701630551879D+02 -.228466318751910D+03
 0.408768598292345D+03 -.206725230736076D+02 -.117730161098317D+03 0.390901551426218D+03
 0.000000000000000D+00 -.000000000000000D+00 0.000000000000000D+00 0.000000000000000D+00
 0.458456091455101D+03 0.000000000000000D+00 0.000000000000000D+00 0.458456091455101D+03
 0.454130220471199D+03 0.000000000000000D+00 0.000000000000000D+00 -.454130220471199D+03
 0.231916652421720D+03 0.813375476443640D+02 0.718284915596949D+02 -.162435232674308D+03
 0.255930810178386D+03 -.590931473645904D+02 0.386842265666870D+02 -.228466318751910D+03
 0.410487774204480D+03 -.193548567464478D+02 -.123780367523482D+03 0.390901551426218D+03
 0.142510751217138D+02 -.288954353332585D+01 0.132676493971004D+02 0.432587098390204D+01
0.152103948834D-03 0.000000000000D+00 0.000000000000D+00 0.121060301540D-05 0.000000000000D+00  6 21 2 25 23 2 21 2 0.15364122D+00 0.31072999D-01 0.40663140D+05 0.40663140D+05 0.40663140D+05 0.12012758D+01  1  2  2  1  6  1       21 0.127235619848D-01 0.100000000000D+01
0.811386397330D-05 0.802674590237D-05 -.307054049606D-06 0.121060301540D-05 0.000000000000D+00  6 21 2 25 23 2 21 4 0.15364122D+00 0.31072999D-01 0.40663140D+05 0.40663140D+05 0.40663140D+05 0.12012758D+01  1  2  3  1  6  1       21 0.979447999995D-03 0.100000000000D+01
0.186119439638D-04 0.000000000000D+00 0.000000000000D+00 0.121060301540D-05 0.000000000000D+00  6 21 2 25 23 2 21 4 0.15364122D+00 0.31072999D-01 0.40663140D+05 0.40663140D+05 0.40663140D+05 0.12012758D+01  1  2 15  1  6  1       21 0.224670161483D-02 0.100000000000D+01
0.208841943516D-03 0.000000000000D+00 0.000000000000D+00 0.120355839509D-05 0.000000000000D+00  6 21 2 25 23 2 21 4 0.15768018D+00 0.31072999D-01 0.44044303D+05 0.44044303D+05 0.44044303D+05 0.11977755D+01  1  2 12  1  6  1       21 0.231270576345D-01 0.100000000000D+01
-.120647225474D-03 0.000000000000D+00 0.000000000000D+00 0.121060301540D-05 0.000000000000D+00  6 21 2 25 23 2 21 4 0.15364122D+00 0.31072999D-01 0.40663140D+05 0.40663140D+05 0.40663140D+05 0.12012758D+01  1  2  4  1  6  1       21 -.145636757141D-01 0.100000000000D+01
-.897018728355D-02 0.000000000000D+00 -.142643893219D-02 0.121060301540D-05 0.000000000000D+00  6 21 2 25 23 2 21 4 0.15799241D+00 0.31072999D-01 0.40663140D+05 0.40663140D+05 0.40663140D+05 0.12012758D+01  1  2  5  1  6  1       21 -.100487819250D+01 0.100000000000D+01
0.899617738586D-02 0.000000000000D+00 0.142421640790D-02 0.121060301540D-05 0.000000000000D+00  6 21 2 25 23 2 21 4 0.15364122D+00 0.31072999D-01 0.40663140D+05 0.40663140D+05 0.40663140D+05 0.12012758D+01  1  2  6  1  6  1       21 0.108595460525D+01 0.100000000000D+01
0.734221409104D-05 0.000000000000D+00 0.000000000000D+00 0.120355839509D-05 0.000000000000D+00  6 -1 2 25 23 2 -1 4 0.15768018D+00 0.31072999D-01 0.44044303D+05 0.44044303D+05 0.44044303D+05 0.11977755D+01  1  2 12  4  6  1       21 0.980814506005D-04 0.100000000000D+01
0.734221409104D-05 0.000000000000D+00 0.000000000000D+00 0.120355839509D-05 0.000000000000D+00  6 -3 2 25 23 2 -3 4 0.15768018D+00 0.31072999D-01 0.44044303D+05 0.44044303D+05 0.44044303D+05 0.11977755D+01  1  2 12  4  6  1       21 0.468614476918D-04 0.100000000000D+01
-.492046641874D-04 0.000000000000D+00 -.922403721456D-05 0.121060301540D-05 0.000000000000D+00  6 -1 2 25 23 2 -1 4 0.15799241D+00 0.31072999D-01 0.40663140D+05 0.40663140D+05 0.40663140D+05 0.12012758D+01  1  2  5  4  6  1       21 -.662857403539D-03 0.100000000000D+01
-.492046641874D-04 0.000000000000D+00 -.922403721456D-05 0.121060301540D-05 0.000000000000D+00  6 -3 2 25 23 2 -3 4 0.15799241D+00 0.31072999D-01 0.40663140D+05 0.40663140D+05 0.40663140D+05 0.12012758D+01  1  2  5  4  6  1       21 -.316226827406D-03 0.100000000000D+01
0.734221409104D-05 0.000000000000D+00 0.000000000000D+00 0.120355839509D-05 0.000000000000D+00  6 1 2 25 23 2 1 4 0.15768018D+00 0.31072999D-01 0.44044303D+05 0.44044303D+05 0.44044303D+05 0.11977755D+01  1  2 12  5  6  1       21 0.538908854268D-03 0.100000000000D+01
0.734221409104D-05 0.000000000000D+00 0.000000000000D+00 0.120355839509D-05 0.000000000000D+00  6 3 2 25 23 2 3 4 0.15768018D+00 0.31072999D-01 0.44044303D+05 0.44044303D+05 0.44044303D+05 0.11977755D+01  1  2 12  5  6  1       21 0.470608904229D-04 0.100000000000D+01
-.492046641874D-04 0.000000000000D+00 -.922403721456D-05 0.121060301540D-05 0.000000000000D+00  6 1 2 25 23 2 1 4 0.15799241D+00 0.31072999D-01 0.40663140D+05 0.40663140D+05 0.40663140D+05 0.12012758D+01  1  2  5  5  6  1       21 -.364818969430D-02 0.100000000000D+01
-.492046641874D-04 0.000000000000D+00 -.922403721456D-05 0.121060301540D-05 0.000000000000D+00  6 3 2 25 23 2 3 4 0.15799241D+00 0.31072999D-01 0.40663140D+05 0.40663140D+05 0.40663140D+05 0.12012758D+01  1  2  5  5  6  1       21 -.317576248216D-03 0.100000000000D+01
0.734221409104D-05 0.000000000000D+00 0.000000000000D+00 0.120355839509D-05 0.000000000000D+00  6 -2 2 25 23 2 -2 4 0.15768018D+00 0.31072999D-01 0.44044303D+05 0.44044303D+05 0.44044303D+05 0.11977755D+01  1  2 12  6  6  1       21 0.721203470587D-04 0.100000000000D+01
-.492046641874D-04 0.000000000000D+00 -.922403721456D-05 0.121060301540D-05 0.000000000000D+00  6 -2 2 25 23 2 -2 4 0.15799241D+00 0.31072999D-01 0.40663140D+05 0.40663140D+05 0.40663140D+05 0.12012758D+01  1  2  5  6  6  1       21 -.487168729669D-03 0.100000000000D+01
0.734221409104D-05 0.000000000000D+00 0.000000000000D+00 0.120355839509D-05 0.000000000000D+00  6 2 2 25 23 2 2 4 0.15768018D+00 0.31072999D-01 0.44044303D+05 0.44044303D+05 0.44044303D+05 0.11977755D+01  1  2 12  7  6  1       21 0.100991463628D-02 0.100000000000D+01
-.492046641874D-04 0.000000000000D+00 -.922403721456D-05 0.121060301540D-05 0.000000000000D+00  6 2 2 25 23 2 2 4 0.15799241D+00 0.31072999D-01 0.40663140D+05 0.40663140D+05 0.40663140D+05 0.12012758D+01  1  2  5  7  6  1       21 -.683783122652D-02 0.100000000000D+01
0.734221409104D-05 0.000000000000D+00 0.000000000000D+00 0.120355839509D-05 0.000000000000D+00  6 -4 2 25 23 2 -4 4 0.15768018D+00 0.31072999D-01 0.44044303D+05 0.44044303D+05 0.44044303D+05 0.11977755D+01  1  2 12  8  6  1       21 0.368683533851D-04 0.100000000000D+01
-.492046641874D-04 0.000000000000D+00 -.922403721456D-05 0.121060301540D-05 0.000000000000D+00  6 -4 2 25 23 2 -4 4 0.15799241D+00 0.31072999D-01 0.40663140D+05 0.40663140D+05 0.40663140D+05 0.12012758D+01  1  2  5  8  6  1       21 -.248605083278D-03 0.100000000000D+01
0.734221409104D-05 0.000000000000D+00 0.000000000000D+00 0.120355839509D-05 0.000000000000D+00  6 4 2 25 23 2 4 4 0.15768018D+00 0.31072999D-01 0.44044303D+05 0.44044303D+05 0.44044303D+05 0.11977755D+01  1  2 12  9  6  1       21 0.368683533851D-04 0.100000000000D+01
-.492046641874D-04 0.000000000000D+00 -.922403721456D-05 0.121060301540D-05 0.000000000000D+00  6 4 2 25 23 2 4 4 0.15799241D+00 0.31072999D-01 0.40663140D+05 0.40663140D+05 0.40663140D+05 0.12012758D+01  1  2  5  9  6  1       21 -.248605083278D-03 0.100000000000D+01
  </mgrwgt>
  </event>
  <event>
  5     66 -.38225901E-03 0.68437140E+02 0.75467711E-02 0.11926275E+00
       21 -1    0    0  501  502 0.00000000E+00 0.00000000E+00 0.17933122E+03 0.17933279E+03 0.75000000E+00 0.0000E+00 0.9000E+01
        2 -1    0    0  502    0 0.00000000E+00 0.00000000E+00 -.15652967E+03 0.15652999E+03 0.32000000E+00 0.0000E+00 0.9000E+01
       25  1    1    2    0    0 -.14500670E+02 0.35230949E+01 0.97360569E+01 0.12626350E+03 0.12500000E+03 0.0000E+00 0.9000E+01
       23  1    1    2    0    0 0.65112414E+02 0.42542493E+02 -.36283845E+02 0.12522483E+03 0.91188000E+02 0.0000E+00 0.9000E+01
        2  1    1    2  501    0 -.50611744E+02 -.46065588E+02 0.49349346E+02 0.84374448E+02 0.32000000E+00 0.0000E+00 0.9000E+01
#aMCatNLO 1  0  0  5  1 0.81267354D+01 0.00000000D+00  -5  6  0 0.00000000D+00 0.00000000D+00 0.00000000D+00 0.00000000D+00 0.00000000D+00
  <mgrwgt>
 -.1729247489D+00    8    2    0
 0.167543948942055D+03 0.000000000000000D+00 0.000000000000000D+00 0.167543948942055D+03
 0.167543948942055D+03 -.000000000000000D+00 -.000000000000000D+00 -.167543948942055D+03
 0.125892967885179D+03 -.145005218867163D+02 0.352322925551971D+01 0.116665486099126D+01
 0.127983570325859D+03 0.651125636072910D+02 0.425426299722276D+02 -.448889922462822D+02
 0.812113596730718D+02 -.506120417205747D+02 -.460658592277473D+02 0.437223373852909D+02
 0.000000000000000D+00 0.000000000000000D+00 0.000000000000000D+00 0.000000000000000D+00
 0.167543948942055D+03 0.000000000000000D+00 0.000000000000000D+00 0.167543948942055D+03
 0.167543948942055D+03 -.000000000000000D+00 -.000000000000000D+00 -.167543948942055D+03
 0.125955495157300D+03 -.151026368845632D+02 0.297519871206003D+01 0.168680528736506D+01
 0.127305417717279D+03 0.645022230611190D+02 0.419871127331450D+02 -.443617359971274D+02
 0.646831726343077D+02 -.455709923566207D+02 -.358549253972952D+02 0.286639460372584D+02
 0.171438123752229D+02 -.382859381993507D+01 -.910738604790977D+01 0.140109846725039D+02
0.199895266694D-05 0.000000000000D+00 0.000000000000D+00 0.229738542862D-06 0.000000000000D+00  6 21 2 25 23 2 21 2 0.27589565D-01 0.24081633D-01 0.24676927D+05 0.24676927D+05 0.24676927D+05 0.12239037D+01  1  2  2  3  6  5        2 0.103438469533D-01 0.100000000000D+01
-.622699246769D-07 0.105487630343D-06 -.403530951076D-08 0.229738542862D-06 0.000000000000D+00  6 21 2 25 23 2 21 4 0.27589565D-01 0.24081633D-01 0.24676927D+05 0.24676927D+05 0.24676927D+05 0.12239037D+01  1  2  3  3  6  5        2 -.482672371975D-03 0.100000000000D+01
0.214480544849D-06 0.000000000000D+00 0.000000000000D+00 0.229738542862D-06 0.000000000000D+00  6 21 2 25 23 2 21 4 0.27589565D-01 0.24081633D-01 0.24676927D+05 0.24676927D+05 0.24676927D+05 0.12239037D+01  1  2 15  3  6  5        2 0.166250134173D-02 0.100000000000D+01
0.805055356598D-05 0.000000000000D+00 0.000000000000D+00 0.229855025492D-06 0.000000000000D+00  6 21 2 25 23 2 21 4 0.27589565D-01 0.24081633D-01 0.24513369D+05 0.24513369D+05 0.24513369D+05 0.12242140D+01  1  2 12  3  6  5        2 0.624644502183D-01 0.100000000000D+01
-.338950930772D-04 0.000000000000D+00 0.000000000000D+00 0.229738542862D-06 0.000000000000D+00  6 21 2 25 23 2 21 4 0.27589565D-01 0.24081633D-01 0.24676927D+05 0.24676927D+05 0.24676927D+05 0.12239037D+01  1  2  4  3  6  5        2 -.262730765435D+00 0.100000000000D+01
-.803698664308D-05 0.000000000000D+00 0.000000000000D+00 0.229738542862D-06 0.000000000000D+00  6 21 2 25 23 2 21 4 0.27589565D-01 0.24081633D-01 0.24676927D+05 0.24676927D+05 0.24676927D+05 0.12239037D+01  1  2  5  3  6  5        2 -.622970306562D-01 0.100000000000D+01
0.997269226982D-05 0.000000000000D+00 -.000000000000D+00 0.229738542862D-06 0.000000000000D+00  6 21 2 25 23 2 21 4 0.27589565D-01 0.24081633D-01 0.24676927D+05 0.24676927D+05 0.24676927D+05 0.12239037D+01  1  2  6  3  6  5        2 0.773012502879D-01 0.100000000000D+01
0.104867654420D-06 0.000000000000D+00 0.000000000000D+00 0.229738542862D-06 0.768748743874D-07  6 21 2 25 23 2 21 4 0.27589565D-01 0.24081633D-01 0.24513369D+05 0.24513369D+05 0.24513369D+05 0.12242140D+01  1  2 11  3  6  5        2 0.813670802302D-03 0.100000000000D+01
  </mgrwgt>
  </event>
  <event>
  5     66 0.38225901E-03 0.41136652E+02 0.75467711E-02 0.12239040E+00
       21 -1    0    0  501  502 0.00000000E+00 0.00000000E+00 0.11535125E+02 0.11559481E+02 0.75000000E+00 0.0000E+00 0.9000E+01
        2 -1    0    0  502    0 -.00000000E+00 -.00000000E+00 -.15711317E+04 0.15711318E+04 0.32000000E+00 0.0000E+00 0.9000E+01
       25  1    1    2    0    0 0.29410566E+02 -.15719280E+01 -.82841268E+03 0.83830784E+03 0.12500000E+03 0.0000E+00 0.9000E+01
       23  1    1    2    0    0 -.45652501E+01 0.34356898E+02 -.55040326E+03 0.55898143E+03 0.91188000E+02 0.0000E+00 0.9000E+01
        2  1    1    2  501    0 -.24845316E+02 -.32784970E+02 -.18078068E+03 0.18540200E+03 0.32000000E+00 0.0000E+00 0.9000E+01
#aMCatNLO 1  0  0  5  1 0.17359938D+02 0.00000000D+00  -5  6  0 0.00000000D+00 0.00000000D+00 0.00000000D+00 0.00000000D+00 0.00000000D+00
  <mgrwgt>
 0.5011888702D+00    5    2    0
 0.134694099274880D+03 0.000000000000000D+00 0.000000000000000D+00 0.134694099274880D+03
 0.134694099274880D+03 -.000000000000000D+00 -.000000000000000D+00 -.134694099274880D+03
 0.129155192705720D+03 0.294109011279075D+02 -.157148553385914D+01 -.137329214267358D+02
 0.975840257286315D+02 -.456499671031173D+01 0.343572326149991D+02 0.247630884178358D+01
 0.426489801154083D+02 -.248459044175958D+02 -.327857470811400D+02 0.112566125849523D+02
 0.000000000000000D+00 0.000000000000000D+00 0.000000000000000D+00 -.000000000000000D+00
 0.134694099274880D+03 0.000000000000000D+00 0.000000000000000D+00 0.134694099274880D+03
 0.134694099274880D+03 -.000000000000000D+00 -.000000000000000D+00 -.134694099274880D+03
 0.127828278839468D+03 0.217618580301454D+02 -.116648831498608D+02 -.102674683947209D+02
 0.957283318652783D+02 -.103188864281017D+02 0.267646101107189D+02 0.508314924175840D+01
 0.282679632067458D+02 0.904464176412469D+00 -.256079573550132D+02 0.119370100324725D+02
 0.175636246382677D+02 -.123474357784563D+02 0.105082303941551D+02 -.675269087951002D+01
0.166252970481D-04 0.000000000000D+00 0.000000000000D+00 0.361319074446D-06 0.000000000000D+00  6 21 2 25 23 2 21 2 0.17765106D-02 0.24171445D+00 0.17837241D+05 0.17837241D+05 0.17837241D+05 0.12393357D+01  1  2  2  3  6  5        2 0.611767700184D+00 0.100000000000D+01
-.264426633399D-06 0.877341028814D-06 -.335616847798D-07 0.361319074446D-06 0.000000000000D+00  6 21 2 25 23 2 21 4 0.17765106D-02 0.24171445D+00 0.17837241D+05 0.17837241D+05 0.17837241D+05 0.12393357D+01  1  2  3  3  6  5        2 -.149451477120D-01 0.100000000000D+01
0.171513687960D-05 0.000000000000D+00 0.000000000000D+00 0.361319074446D-06 0.000000000000D+00  6 21 2 25 23 2 21 4 0.17765106D-02 0.24171445D+00 0.17837241D+05 0.17837241D+05 0.17837241D+05 0.12393357D+01  1  2 15  3  6  5        2 0.969379433622D-01 0.100000000000D+01
0.916044245754D-05 0.000000000000D+00 0.000000000000D+00 0.361801381768D-06 0.000000000000D+00  6 21 2 25 23 2 21 4 0.17765106D-02 0.24171445D+00 0.17535864D+05 0.17535864D+05 0.17535864D+05 0.12401625D+01  1  2 12  3  6  5        2 0.519059195587D+00 0.100000000000D+01
-.125909857775D-04 0.000000000000D+00 0.000000000000D+00 0.361319074446D-06 0.000000000000D+00  6 21 2 25 23 2 21 4 0.17765106D-02 0.24171445D+00 0.17837241D+05 0.17837241D+05 0.17837241D+05 0.12393357D+01  1  2  4  3  6  5        2 -.711630821240D+00 0.100000000000D+01
  </mgrwgt>
  </event>
  <event>
  5     66 0.38225901E-03 0.73925277E+02 0.75467711E-02 0.11638079E+00
       21 -1    0    0  501  502 0.00000000E+00 0.00000000E+00 0.91940762E+02 0.91943821E+02 0.75000000E+00 0.0000E+00 0.9000E+01
        2 -1    0    0  502    0 0.00000000E+00 0.00000000E+00 -.46715381E+03 0.46715392E+03 0.32000000E+00 0.0000E+00 0.9000E+01
       25  1    1    2    0    0 -.39518979E+02 0.83365054E+02 -.74477026E+02 0.17228845E+03 0.12500000E+03 0.0000E+00 0.9000E+01
       23  1    1    2    0    0 0.25081191E+02 0.68826360E+00 -.28474153E+03 0.30003755E+03 0.91188000E+02 0.0000E+00 0.9000E+01
        2  1    1    2  501    0 0.14437788E+02 -.84053318E+02 -.15994496E+02 0.86771748E+02 0.32000000E+00 0.0000E+00 0.9000E+01
#aMCatNLO 1  0  0  1  5 0.31474469D+02 0.00000000D+00  -5  6  0 0.00000000D+00 0.00000000D+00 0.00000000D+00 0.00000000D+00 0.00000000D+00
  <mgrwgt>
 0.5641792230D-01   32    2    0
 0.207247106983023D+03 0.000000000000000D+00 0.000000000000000D+00 0.207247106983023D+03
 0.207247106983023D+03 0.000000000000000D+00 0.000000000000000D+00 -.207247106983023D+03
 0.164975407916128D+03 -.395190067310687D+02 0.833652170763515D+02 0.555011162581013D+02
 0.146954059782967D+03 0.250811656125752D+02 0.688408646626982D+00 -.112475355379503D+03
 0.102564746266951D+03 0.144378411184935D+02 -.840536257229785D+02 0.569742391214019D+02
 0.000000000000000D+00 0.000000000000000D+00 0.000000000000000D+00 0.000000000000000D+00
 0.271734902079449D+03 0.000000000000000D+00 0.000000000000000D+00 0.271734902079449D+03
 0.211720037502124D+03 0.000000000000000D+00 0.000000000000000D+00 -.211720037502124D+03
 0.161314135267973D+03 -.454122493835184D+02 0.724886469544551D+02 0.555011162581013D+02
 0.146423857885617D+03 0.197823526600686D+02 -.909108187151659D+01 -.112475355379503D+03
 0.107949504418353D+03 0.106356611620640D+02 -.910709300070613D+02 0.569742391214019D+02
 0.677674420096303D+02 0.149942355613858D+02 0.276733649241227D+02 0.600148645773246D+02
0.194448099949D-05 0.000000000000D+00 0.000000000000D+00 0.104658587662D-06 0.000000000000D+00  6 21 2 25 23 2 21 2 0.14144976D-01 0.71870061D-01 0.28093246D+05 0.28093246D+05 0.28093246D+05 0.12179030D+01  1  2  2  1  6  1       21 0.105945399337D-01 0.100000000000D+01
-.939421906704D-07 0.102613081479D-06 -.392534690817D-08 0.104658587662D-06 0.000000000000D+00  6 21 2 25 23 2 21 4 0.14144976D-01 0.71870061D-01 0.28093246D+05 0.28093246D+05 0.28093246D+05 0.12179030D+01  1  2  3  1  6  1       21 -.759214538661D-03 0.100000000000D+01
0.227944443111D-06 0.000000000000D+00 0.000000000000D+00 0.104658587662D-06 0.000000000000D+00  6 21 2 25 23 2 21 4 0.14144976D-01 0.71870061D-01 0.28093246D+05 0.28093246D+05 0.28093246D+05 0.12179030D+01  1  2 15  1  6  1       21 0.184218330424D-02 0.100000000000D+01
0.951279252012D-05 0.000000000000D+00 0.000000000000D+00 0.103190713977D-06 0.000000000000D+00  6 21 2 25 23 2 21 4 0.18664987D-01 0.71870061D-01 0.33926149D+05 0.33926149D+05 0.33926149D+05 0.12093321D+01  1  2 12  1  6  1       21 0.449365216058D-01 0.100000000000D+01
0.751544664466D-05 0.000000000000D+00 0.000000000000D+00 0.103190713977D-06 0.000000000000D+00  6 21 2 25 23 2 21 4 0.19954543D-01 0.71870061D-01 0.33926149D+05 0.33926149D+05 0.33926149D+05 0.12093321D+01  1  2 12  1  6  1       21 0.313538732634D-01 0.100000000000D+01
-.104461416306D-04 0.000000000000D+00 0.000000000000D+00 0.104658587662D-06 0.000000000000D+00  6 21 2 25 23 2 21 4 0.14144976D-01 0.71870061D-01 0.28093246D+05 0.28093246D+05 0.28093246D+05 0.12179030D+01  1  2  4  1  6  1       21 -.844227981305D-01 0.100000000000D+01
-.225990357354D-04 0.000000000000D+00 -.273861119963D-05 0.104658587662D-06 0.000000000000D+00  6 21 2 25 23 2 21 4 0.18871811D-01 0.71870061D-01 0.28093246D+05 0.28093246D+05 0.28093246D+05 0.12179030D+01  1  2  5  1  6  1       21 -.107829493964D+00 0.100000000000D+01
0.199897775125D-04 0.000000000000D+00 0.233191281120D-05 0.104658587662D-06 0.000000000000D+00  6 21 2 25 23 2 21 4 0.14144976D-01 0.71870061D-01 0.28093246D+05 0.28093246D+05 0.28093246D+05 0.12179030D+01  1  2  6  1  6  1       21 0.161551796948D+00 0.100000000000D+01
0.812956741898D-06 0.000000000000D+00 0.000000000000D+00 0.103190713977D-06 0.000000000000D+00  6 -1 2 25 23 2 -1 4 0.18664987D-01 0.71870061D-01 0.33926149D+05 0.33926149D+05 0.33926149D+05 0.12093321D+01  1  2 12  4  6  1       21 0.298290231902D-03 0.100000000000D+01
0.812956741898D-06 0.000000000000D+00 0.000000000000D+00 0.103190713977D-06 0.000000000000D+00  6 -3 2 25 23 2 -3 4 0.18664987D-01 0.71870061D-01 0.33926149D+05 0.33926149D+05 0.33926149D+05 0.12093321D+01  1  2 12  4  6  1       21 0.182091693606D-03 0.100000000000D+01
0.837434808125D-06 0.000000000000D+00 0.000000000000D+00 0.103190713977D-06 0.000000000000D+00  6 -1 2 25 23 2 -1 4 0.19954543D-01 0.71870061D-01 0.33926149D+05 0.33926149D+05 0.33926149D+05 0.12093321D+01  1  2 12  4  6  1       21 0.275890367460D-03 0.100000000000D+01
0.837434808125D-06 0.000000000000D+00 0.000000000000D+00 0.103190713977D-06 0.000000000000D+00  6 -3 2 25 23 2 -3 4 0.19954543D-01 0.71870061D-01 0.33926149D+05 0.33926149D+05 0.33926149D+05 0.12093321D+01  1  2 12  4  6  1       21 0.166701418376D-03 0.100000000000D+01
-.186527595077D-05 0.000000000000D+00 -.245529965610D-06 0.104658587662D-06 0.000000000000D+00  6 -1 2 25 23 2 -1 4 0.18871811D-01 0.71870061D-01 0.28093246D+05 0.28093246D+05 0.28093246D+05 0.12179030D+01  1  2  5  4  6  1       21 -.690439251052D-03 0.100000000000D+01
-.186527595077D-05 0.000000000000D+00 -.245529965610D-06 0.104658587662D-06 0.000000000000D+00  6 -3 2 25 23 2 -3 4 0.18871811D-01 0.71870061D-01 0.28093246D+05 0.28093246D+05 0.28093246D+05 0.12179030D+01  1  2  5  4  6  1       21 -.419014868220D-03 0.100000000000D+01
0.812956741898D-06 0.000000000000D+00 0.000000000000D+00 0.103190713977D-06 0.000000000000D+00  6 1 2 25 23 2 1 4 0.18664987D-01 0.71870061D-01 0.33926149D+05 0.33926149D+05 0.33926149D+05 0.12093321D+01  1  2 12  5  6  1       21 0.438452185032D-03 0.100000000000D+01
0.812956741898D-06 0.000000000000D+00 0.000000000000D+00 0.103190713977D-06 0.000000000000D+00  6 3 2 25 23 2 3 4 0.18664987D-01 0.71870061D-01 0.33926149D+05 0.33926149D+05 0.33926149D+05 0.12093321D+01  1  2 12  5  6  1       21 0.182074435786D-03 0.100000000000D+01
0.837434808125D-06 0.000000000000D+00 0.000000000000D+00 0.103190713977D-06 0.000000000000D+00  6 1 2 25 23 2 1 4 0.19954543D-01 0.71870061D-01 0.33926149D+05 0.33926149D+05 0.33926149D+05 0.12093321D+01  1  2 12  5  6  1       21 0.414501029073D-03 0.100000000000D+01
0.837434808125D-06 0.000000000000D+00 0.000000000000D+00 0.103190713977D-06 0.000000000000D+00  6 3 2 25 23 2 3 4 0.19954543D-01 0.71870061D-01 0.33926149D+05 0.33926149D+05 0.33926149D+05 0.12093321D+01  1  2 12  5  6  1       21 0.166687228185D-03 0.100000000000D+01
-.186527595077D-05 0.000000000000D+00 -.245529965610D-06 0.104658587662D-06 0.000000000000D+00  6 1 2 25 23 2 1 4 0.18871811D-01 0.71870061D-01 0.28093246D+05 0.28093246D+05 0.28093246D+05 0.12179030D+01  1  2  5  5  6  1       21 -.101860109180D-02 0.100000000000D+01
-.186527595077D-05 0.000000000000D+00 -.245529965610D-06 0.104658587662D-06 0.000000000000D+00  6 3 2 25 23 2 3 4 0.18871811D-01 0.71870061D-01 0.28093246D+05 0.28093246D+05 0.28093246D+05 0.12179030D+01  1  2  5  5  6  1       21 -.418974536629D-03 0.100000000000D+01
0.812956741898D-06 0.000000000000D+00 0.000000000000D+00 0.103190713977D-06 0.000000000000D+00  6 -2 2 25 23 2 -2 4 0.18664987D-01 0.71870061D-01 0.33926149D+05 0.33926149D+05 0.33926149D+05 0.12093321D+01  1  2 12  6  6  1       21 0.274517556729D-03 0.100000000000D+01
0.837434808125D-06 0.000000000000D+00 0.000000000000D+00 0.103190713977D-06 0.000000000000D+00  6 -2 2 25 23 2 -2 4 0.19954543D-01 0.71870061D-01 0.33926149D+05 0.33926149D+05 0.33926149D+05 0.12093321D+01  1  2 12  6  6  1       21 0.252492320509D-03 0.100000000000D+01
-.186527595077D-05 0.000000000000D+00 -.245529965610D-06 0.104658587662D-06 0.000000000000D+00  6 -2 2 25 23 2 -2 4 0.18871811D-01 0.71870061D-01 0.28093246D+05 0.28093246D+05 0.28093246D+05 0.12179030D+01  1  2  5  6  6  1       21 -.634736329332D-03 0.100000000000D+01
0.812956741898D-06 0.000000000000D+00 0.000000000000D+00 0.103190713977D-06 0.000000000000D+00  6 2 2 25 23 2 2 4 0.18664987D-01 0.71870061D-01 0.33926149D+05 0.33926149D+05 0.33926149D+05 0.12093321D+01  1  2 12  7  6  1       21 0.536770289592D-03 0.100000000000D+01
0.837434808125D-06 0.000000000000D+00 0.000000000000D+00 0.103190713977D-06 0.000000000000D+00  6 2 2 25 23 2 2 4 0.19954543D-01 0.71870061D-01 0.33926149D+05 0.33926149D+05 0.33926149D+05 0.12093321D+01  1  2 12  7  6  1       21 0.512206726028D-03 0.100000000000D+01
-.186527595077D-05 0.000000000000D+00 -.245529965610D-06 0.104658587662D-06 0.000000000000D+00  6 2 2 25 23 2 2 4 0.18871811D-01 0.71870061D-01 0.28093246D+05 0.28093246D+05 0.28093246D+05 0.12179030D+01  1  2  5  7  6  1       21 -.124864120815D-02 0.100000000000D+01
0.812956741898D-06 0.000000000000D+00 0.000000000000D+00 0.103190713977D-06 0.000000000000D+00  6 -4 2 25 23 2 -4 4 0.18664987D-01 0.71870061D-01 0.33926149D+05 0.33926149D+05 0.33926149D+05 0.12093321D+01  1  2 12  8  6  1       21 0.156477768326D-03 0.100000000000D+01
0.837434808125D-06 0.000000000000D+00 0.000000000000D+00 0.103190713977D-06 0.000000000000D+00  6 -4 2 25 23 2 -4 4 0.19954543D-01 0.71870061D-01 0.33926149D+05 0.33926149D+05 0.33926149D+05 0.12093321D+01  1  2 12  8  6  1       21 0.142894651477D-03 0.100000000000D+01
-.186527595077D-05 0.000000000000D+00 -.245529965610D-06 0.104658587662D-06 0.000000000000D+00  6 -4 2 25 23 2 -4 4 0.18871811D-01 0.71870061D-01 0.28093246D+05 0.28093246D+05 0.28093246D+05 0.12179030D+01  1  2  5  8  6  1       21 -.359249579011D-03 0.100000000000D+01
0.812956741898D-06 0.000000000000D+00 0.000000000000D+00 0.103190713977D-06 0.000000000000D+00  6 4 2 25 23 2 4 4 0.18664987D-01 0.71870061D-01 0.33926149D+05 0.33926149D+05 0.33926149D+05 0.12093321D+01  1  2 12  9  6  1       21 0.156477768326D-03 0.100000000000D+01
0.837434808125D-06 0.000000000000D+00 0.000000000000D+00 0.103190713977D-06 0.000000000000D+00  6 4 2 25 23 2 4 4 0.19954543D-01 0.71870061D-01 0.33926149D+05 0.33926149D+05 0.33926149D+05 0.12093321D+01  1  2 12  9  6  1       21 0.142894651477D-03 0.100000000000D+01
-.186527595077D-05 0.000000000000D+00 -.245529965610D-06 0.104658587662D-06 0.000000000000D+00  6 4 2 25 23 2 4 4 0.18871811D-01 0.71870061D-01 0.28093246D+05 0.28093246D+05 0.28093246D+05 0.12179030D+01  1  2  5  9  6  1       21 -.359249579011D-03 0.100000000000D+01
  </mgrwgt>
  </event>
  <event>
  5     66 0.38225901E-03 0.24919550E+02 0.75467711E-02 0.11994194E+00
       21 -1    0    0  501  502 0.00000000E+00 0.00000000E+00 0.10133286E+04 0.10133289E+04 0.75000000E+00 0.0000E+00 0.9000E+01
        4 -1    0    0  502    0 0.00000000E+00 0.00000000E+00 -.25005545E+02 0.25053539E+02 0.15500000E+01 0.0000E+00 0.9000E+01
       25  1    1    2    0    0 -.16690632E+02 0.69115122E+02 0.26057545E+03 0.29762399E+03 0.12500000E+03 0.0000E+00 0.9000E+01
       23  1    1    2    0    0 0.36213580E+02 -.53666176E+02 0.54861926E+03 0.55990162E+03 0.91188000E+02 0.0000E+00 0.9000E+01
        4  1    1    2  501    0 -.19522948E+02 -.15448946E+02 0.17912835E+03 0.18085680E+03 0.15500000E+01 0.0000E+00 0.9000E+01
#aMCatNLO 1  0  0  1  2 0.20358039D+02 0.00000000D+00  -5  6  0 0.00000000D+00 0.00000000D+00 0.00000000D+00 0.00000000D+00 0.00000000D+00
  <mgrwgt>
 0.7445290130D-01   23    2    0
 0.159260464219736D+03 0.000000000000000D+00 0.000000000000000D+00 0.159260464219736D+03
 0.159260464219736D+03 0.000000000000000D+00 0.000000000000000D+00 -.159260464219736D+03
 0.161739320921199D+03 -.166801835290427D+02 0.691233904638946D+02 -.740157841292242D+02
 0.122998438709486D+03 0.362215263975455D+02 -.536598878477897D+02 0.512052931108278D+02
 0.337831688087871D+02 -.195413428685028D+02 -.154635026161049D+02 0.228104910183964D+02
 0.000000000000000D+00 -.000000000000000D+00 0.000000000000000D+00 0.000000000000000D+00
 0.187746178180221D+03 0.000000000000000D+00 0.000000000000000D+00 0.187746178180221D+03
 0.163264745750203D+03 0.000000000000000D+00 0.000000000000000D+00 -.163264745750203D+03
 0.157560512117260D+03 -.155519198861685D+02 0.589925119506152D+02 -.740157841292242D+02
 0.126914212536127D+03 0.371046065908909D+02 -.615892208656241D+02 0.512052931108278D+02
 0.346961255436015D+02 -.192993674895236D+02 -.176362422795033D+02 0.228104910183964D+02
 0.318400737334356D+02 -.225331921519876D+01 0.202329511945122D+02 0.244814324300177D+02
0.172189493947D-04 0.000000000000D+00 0.000000000000D+00 0.484544907101D-06 0.000000000000D+00  6 21 4 25 23 4 21 2 0.15590042D+00 0.38507201D-02 0.19678823D+05 0.19678823D+05 0.19678823D+05 0.12346008D+01  1  2  2  1  6  1       21 0.107958151395D-01 0.100000000000D+01
0.109339482251D-05 0.908668923830D-06 -.347600978288D-07 0.484544907101D-06 0.000000000000D+00  6 21 4 25 23 4 21 4 0.15590042D+00 0.38507201D-02 0.19678823D+05 0.19678823D+05 0.19678823D+05 0.12346008D+01  1  2  3  1  6  1       21 0.104491011905D-02 0.100000000000D+01
0.138580484220D-05 0.000000000000D+00 0.000000000000D+00 0.484544907101D-06 0.000000000000D+00  6 21 4 25 23 4 21 4 0.15590042D+00 0.38507201D-02 0.19678823D+05 0.19678823D+05 0.19678823D+05 0.12346008D+01  1  2 15  1  6  1       21 0.132435372185D-02 0.100000000000D+01
0.586630822711D-04 0.000000000000D+00 0.000000000000D+00 0.479139347202D-06 0.000000000000D+00  6 21 4 25 23 4 21 4 0.18550984D+00 0.38507201D-02 0.22758934D+05 0.22758934D+05 0.22758934D+05 0.12276949D+01  1  2 12  1  6  1       21 0.341618591358D-01 0.100000000000D+01
-.260052801324D-04 0.000000000000D+00 0.000000000000D+00 0.484544907101D-06 0.000000000000D+00  6 21 4 25 23 4 21 4 0.15590042D+00 0.38507201D-02 0.19678823D+05 0.19678823D+05 0.19678823D+05 0.12346008D+01  1  2  4  1  6  1       21 -.248521209352D-01 0.100000000000D+01
-.185919548018D-03 0.000000000000D+00 -.291329836291D-04 0.484544907101D-06 0.000000000000D+00  6 21 4 25 23 4 21 4 0.18595644D+00 0.38507201D-02 0.19678823D+05 0.19678823D+05 0.19678823D+05 0.12346008D+01  1  2  5  1  6  1       21 -.109983818725D+00 0.100000000000D+01
0.178800827747D-03 0.000000000000D+00 0.273988556106D-04 0.484544907101D-06 0.000000000000D+00  6 21 4 25 23 4 21 4 0.15590042D+00 0.38507201D-02 0.19678823D+05 0.19678823D+05 0.19678823D+05 0.12346008D+01  1  2  6  1  6  1       21 0.170872214099D+00 0.100000000000D+01
0.284603803248D-05 0.000000000000D+00 0.000000000000D+00 0.479139347202D-06 0.000000000000D+00  6 -1 4 25 23 4 -1 4 0.18550984D+00 0.38507201D-02 0.22758934D+05 0.22758934D+05 0.22758934D+05 0.12276949D+01  1  2 12  4  6  1       21 0.193676961630D-03 0.100000000000D+01
0.284603803248D-05 0.000000000000D+00 0.000000000000D+00 0.479139347202D-06 0.000000000000D+00  6 -3 4 25 23 4 -3 4 0.18550984D+00 0.38507201D-02 0.22758934D+05 0.22758934D+05 0.22758934D+05 0.12276949D+01  1  2 12  4  6  1       21 0.936965707547D-04 0.100000000000D+01
-.855525800851D-05 0.000000000000D+00 -.143670610115D-05 0.484544907101D-06 0.000000000000D+00  6 -1 4 25 23 4 -1 4 0.18595644D+00 0.38507201D-02 0.19678823D+05 0.19678823D+05 0.19678823D+05 0.12346008D+01  1  2  5  4  6  1       21 -.587885791100D-03 0.100000000000D+01
-.855525800851D-05 0.000000000000D+00 -.143670610115D-05 0.484544907101D-06 0.000000000000D+00  6 -3 4 25 23 4 -3 4 0.18595644D+00 0.38507201D-02 0.19678823D+05 0.19678823D+05 0.19678823D+05 0.12346008D+01  1  2  5  4  6  1       21 -.283590345288D-03 0.100000000000D+01
0.284603803248D-05 0.000000000000D+00 0.000000000000D+00 0.479139347202D-06 0.000000000000D+00  6 1 4 25 23 4 1 4 0.18550984D+00 0.38507201D-02 0.22758934D+05 0.22758934D+05 0.22758934D+05 0.12276949D+01  1  2 12  5  6  1       21 0.124416002230D-02 0.100000000000D+01
0.284603803248D-05 0.000000000000D+00 0.000000000000D+00 0.479139347202D-06 0.000000000000D+00  6 3 4 25 23 4 3 4 0.18550984D+00 0.38507201D-02 0.22758934D+05 0.22758934D+05 0.22758934D+05 0.12276949D+01  1  2 12  5  6  1       21 0.942166734740D-04 0.100000000000D+01
-.855525800851D-05 0.000000000000D+00 -.143670610115D-05 0.484544907101D-06 0.000000000000D+00  6 1 4 25 23 4 1 4 0.18595644D+00 0.38507201D-02 0.19678823D+05 0.19678823D+05 0.19678823D+05 0.12346008D+01  1  2  5  5  6  1       21 -.378448974841D-02 0.100000000000D+01
-.855525800851D-05 0.000000000000D+00 -.143670610115D-05 0.484544907101D-06 0.000000000000D+00  6 3 4 25 23 4 3 4 0.18595644D+00 0.38507201D-02 0.19678823D+05 0.19678823D+05 0.19678823D+05 0.12346008D+01  1  2  5  5  6  1       21 -.285168399827D-03 0.100000000000D+01
0.284603803248D-05 0.000000000000D+00 0.000000000000D+00 0.479139347202D-06 0.000000000000D+00  6 -4 4 25 23 4 -4 4 0.18550984D+00 0.38507201D-02 0.22758934D+05 0.22758934D+05 0.22758934D+05 0.12276949D+01  1  2 12  6  6  1       21 0.724388624834D-04 0.100000000000D+01
-.855525800851D-05 0.000000000000D+00 -.143670610115D-05 0.484544907101D-06 0.000000000000D+00  6 -4 4 25 23 4 -4 4 0.18595644D+00 0.38507201D-02 0.19678823D+05 0.19678823D+05 0.19678823D+05 0.12346008D+01  1  2  5  6  6  1       21 -.218936383826D-03 0.100000000000D+01
0.284603803248D-05 0.000000000000D+00 0.000000000000D+00 0.479139347202D-06 0.000000000000D+00  6 4 4 25 23 4 4 4 0.18550984D+00 0.38507201D-02 0.22758934D+05 0.22758934D+05 0.22758934D+05 0.12276949D+01  1  2 12  7  6  1       21 0.724388624834D-04 0.100000000000D+01
-.855525800851D-05 0.000000000000D+00 -.143670610115D-05 0.484544907101D-06 0.000000000000D+00  6 4 4 25 23 4 4 4 0.18595644D+00 0.38507201D-02 0.19678823D+05 0.19678823D+05 0.19678823D+05 0.12346008D+01  1  2  5  7  6  1       21 -.218936383826D-03 0.100000000000D+01
0.284603803248D-05 0.000000000000D+00 0.000000000000D+00 0.479139347202D-06 0.000000000000D+00  6 -2 4 25 23 4 -2 4 0.18550984D+00 0.38507201D-02 0.22758934D+05 0.22758934D+05 0.22758934D+05 0.12276949D+01  1  2 12  8  6  1       21 0.143818887691D-03 0.100000000000D+01
-.855525800851D-05 0.000000000000D+00 -.143670610115D-05 0.484544907101D-06 0.000000000000D+00  6 -2 4 25 23 4 -2 4 0.18595644D+00 0.38507201D-02 0.19678823D+05 0.19678823D+05 0.19678823D+05 0.12346008D+01  1  2  5  8  6  1       21 -.436156329078D-03 0.100000000000D+01
0.284603803248D-05 0.000000000000D+00 0.000000000000D+00 0.479139347202D-06 0.000000000000D+00  6 2 4 25 23 4 2 4 0.18550984D+00 0.38507201D-02 0.22758934D+05 0.22758934D+05 0.22758934D+05 0.12276949D+01  1  2 12  9  6  1       21 0.245378401604D-02 0.100000000000D+01
-.855525800851D-05 0.000000000000D+00 -.143670610115D-05 0.484544907101D-06 0.000000000000D+00  6 2 4 25 23 4 2 4 0.18595644D+00 0.38507201D-02 0.19678823D+05 0.19678823D+05 0.19678823D+05 0.12346008D+01  1  2  5  9  6  1       21 -.746337873218D-02 0.100000000000D+01
  </mgrwgt>
  </event>
  <event>
  5     66 -.38225901E-03 0.30441189E+02 0.75467711E-02 0.12200806E+00
       21 -1    0    0  501  502 0.00000000E+00 0.00000000E+00 0.22119557E+03 0.22119684E+03 0.75000000E+00 0.0000E+00 0.9000E+01
        2 -1    0    0  502    0 0.00000000E+00 0.00000000E+00 -.82005051E+02 0.82005675E+02 0.32000000E+00 0.0000E+00 0.9000E+01
       25  1    1    2    0    0 -.16444011E+02 -.15104366E+02 0.62879882E+02 0.14169484E+03 0.12500000E+03 0.0000E+00 0.9000E+01
       23  1    1    2    0    0 0.40534680E+02 0.33711928E+02 0.36682152E+02 0.11153648E+03 0.91188000E+02 0.0000E+00 0.9000E+01
        2  1    1    2  501    0 -.24090669E+02 -.18607562E+02 0.39628485E+02 0.49971201E+02 0.32000000E+00 0.0000E+00 0.9000E+01
#aMCatNLO 1  0  0  1  2 0.74374606D+01 0.00000000D+00  -5  6  0 0.00000000D+00 0.00000000D+00 0.00000000D+00 0.00000000D+00 0.00000000D+00
  <mgrwgt>
 -.4189432101D-01   41    2    0
 0.134682743203515D+03 0.000000000000000D+00 0.000000000000000D+00 0.134682743203515D+03
 0.134682743203515D+03 0.000000000000000D+00 0.000000000000000D+00 -.134682743203515D+03
 0.127001877725468D+03 -.164435569395190D+02 -.151040151666566D+02 -.244030875442058D+01
 0.106592755947885D+03 0.405350614793267D+02 0.337122225450367D+02 -.163450028604032D+02
 0.357708527336770D+02 -.240915045398078D+02 -.186082073783802D+02 0.187853116148237D+02
 0.000000000000000D+00 -.000000000000000D+00 0.000000000000000D+00 0.000000000000000D+00
 0.192227639446640D+03 0.000000000000000D+00 0.000000000000000D+00 0.192227639446640D+03
 0.134974602901901D+03 0.000000000000000D+00 0.000000000000000D+00 -.134974602901901D+03
 0.126638112514136D+03 -.129585604691458D+02 -.154380097452227D+02 -.244030875442058D+01
 0.107658688241737D+03 0.434788619662603D+02 0.334300950274410D+02 -.163450028604032D+02
 0.351713440922529D+02 -.231167635090053D+02 -.187016244657608D+02 0.187853116148237D+02
 0.577340975004162D+02 -.740353798810923D+01 0.709539183542530D+00 0.572530365447389D+02
0.550914620395D-06 0.000000000000D+00 0.000000000000D+00 0.564037486612D-06 0.000000000000D+00  6 21 2 25 23 2 21 2 0.34030234D-01 0.12616307D-01 0.17259620D+05 0.17259620D+05 0.17259620D+05 0.12409346D+01  1  2  2  1  6  1       21 0.410050456970D-02 0.100000000000D+01
0.163985209345D-07 0.290725632418D-07 -.111213789304D-08 0.564037486612D-06 0.000000000000D+00  6 21 2 25 23 2 21 4 0.34030234D-01 0.12616307D-01 0.17259620D+05 0.17259620D+05 0.17259620D+05 0.12409346D+01  1  2  3  1  6  1       21 0.187955683553D-03 0.100000000000D+01
0.621259660945D-07 0.000000000000D+00 0.000000000000D+00 0.564037486612D-06 0.000000000000D+00  6 21 2 25 23 2 21 4 0.34030234D-01 0.12616307D-01 0.17259620D+05 0.17259620D+05 0.17259620D+05 0.12409346D+01  1  2 15  1  6  1       21 0.712072050299D-03 0.100000000000D+01
0.284586452937D-04 0.000000000000D+00 0.000000000000D+00 0.561576034944D-06 0.000000000000D+00  6 21 2 25 23 2 21 4 0.48594907D-01 0.12616307D-01 0.18251626D+05 0.18251626D+05 0.18251626D+05 0.12382239D+01  1  2 12  1  6  1       21 0.158259550540D+00 0.100000000000D+01
0.273768797450D-04 0.000000000000D+00 0.000000000000D+00 0.561576034944D-06 0.000000000000D+00  6 21 2 25 23 2 21 4 0.49229894D-01 0.12616307D-01 0.18251626D+05 0.18251626D+05 0.18251626D+05 0.12382239D+01  1  2 12  1  6  1       21 0.148228182635D+00 0.100000000000D+01
-.490204801507D-04 0.000000000000D+00 0.000000000000D+00 0.564037486612D-06 0.000000000000D+00  6 21 2 25 23 2 21 4 0.34030234D-01 0.12616307D-01 0.17259620D+05 0.17259620D+05 0.17259620D+05 0.12409346D+01  1  2  4  1  6  1       21 -.561860297745D+00 0.100000000000D+01
-.587823028958D-04 0.000000000000D+00 -.688404902992D-06 0.564037486612D-06 0.000000000000D+00  6 21 2 25 23 2 21 4 0.48613877D-01 0.12616307D-01 0.17259620D+05 0.17259620D+05 0.17259620D+05 0.12409346D+01  1  2  5  1  6  1       21 -.329516596214D+00 0.100000000000D+01
0.465278310163D-04 0.000000000000D+00 0.540498402358D-06 0.564037486612D-06 0.000000000000D+00  6 21 2 25 23 2 21 4 0.34030234D-01 0.12616307D-01 0.17259620D+05 0.17259620D+05 0.17259620D+05 0.12409346D+01  1  2  6  1  6  1       21 0.533290186222D+00 0.100000000000D+01
0.100556842899D-05 0.000000000000D+00 0.000000000000D+00 0.564037486612D-06 0.233984130088D-06  6 21 2 25 23 2 21 4 0.48570079D-01 0.12643647D-01 0.18251626D+05 0.18251626D+05 0.18251626D+05 0.12382239D+01  1  2 11  1  6  1       21 0.558342327831D-02 0.100000000000D+01
0.327222578920D-05 0.000000000000D+00 0.000000000000D+00 0.561576034944D-06 0.000000000000D+00  6 -1 2 25 23 2 -1 4 0.48594907D-01 0.12616307D-01 0.18251626D+05 0.18251626D+05 0.18251626D+05 0.12382239D+01  1  2 12  4  6  1       21 0.177197016333D-02 0.100000000000D+01
0.327222578920D-05 0.000000000000D+00 0.000000000000D+00 0.561576034944D-06 0.000000000000D+00  6 -3 2 25 23 2 -3 4 0.48594907D-01 0.12616307D-01 0.18251626D+05 0.18251626D+05 0.18251626D+05 0.12382239D+01  1  2 12  4  6  1       21 0.908796138544D-03 0.100000000000D+01
0.328810083783D-05 0.000000000000D+00 0.000000000000D+00 0.561576034944D-06 0.000000000000D+00  6 -1 2 25 23 2 -1 4 0.49229894D-01 0.12616307D-01 0.18251626D+05 0.18251626D+05 0.18251626D+05 0.12382239D+01  1  2 12  4  6  1       21 0.173905029561D-02 0.100000000000D+01
0.328810083783D-05 0.000000000000D+00 0.000000000000D+00 0.561576034944D-06 0.000000000000D+00  6 -3 2 25 23 2 -3 4 0.49229894D-01 0.12616307D-01 0.18251626D+05 0.18251626D+05 0.18251626D+05 0.12382239D+01  1  2 12  4  6  1       21 0.889934185273D-03 0.100000000000D+01
-.673170086069D-05 0.000000000000D+00 -.801497699816D-07 0.564037486612D-06 0.000000000000D+00  6 -1 2 25 23 2 -1 4 0.48613877D-01 0.12616307D-01 0.17259620D+05 0.17259620D+05 0.17259620D+05 0.12409346D+01  1  2  5  4  6  1       21 -.367046400687D-02 0.100000000000D+01
-.673170086069D-05 0.000000000000D+00 -.801497699816D-07 0.564037486612D-06 0.000000000000D+00  6 -3 2 25 23 2 -3 4 0.48613877D-01 0.12616307D-01 0.17259620D+05 0.17259620D+05 0.17259620D+05 0.12409346D+01  1  2  5  4  6  1       21 -.187971303753D-02 0.100000000000D+01
0.103368804734D-06 0.000000000000D+00 0.000000000000D+00 0.564037486612D-06 0.230499473410D-07  6 -1 2 25 23 2 -1 4 0.48570079D-01 0.12643647D-01 0.18251626D+05 0.18251626D+05 0.18251626D+05 0.12382239D+01  1  2 11  4  6  1       21 0.558833113374D-04 0.100000000000D+01
0.103368804734D-06 0.000000000000D+00 0.000000000000D+00 0.564037486612D-06 0.230499473410D-07  6 -3 2 25 23 2 -3 4 0.48570079D-01 0.12643647D-01 0.18251626D+05 0.18251626D+05 0.18251626D+05 0.12382239D+01  1  2 11  4  6  1       21 0.286635647692D-04 0.100000000000D+01
0.327222578920D-05 0.000000000000D+00 0.000000000000D+00 0.561576034944D-06 0.000000000000D+00  6 1 2 25 23 2 1 4 0.48594907D-01 0.12616307D-01 0.18251626D+05 0.18251626D+05 0.18251626D+05 0.12382239D+01  1  2 12  5  6  1       21 0.397059291113D-02 0.100000000000D+01
0.327222578920D-05 0.000000000000D+00 0.000000000000D+00 0.561576034944D-06 0.000000000000D+00  6 3 2 25 23 2 3 4 0.48594907D-01 0.12616307D-01 0.18251626D+05 0.18251626D+05 0.18251626D+05 0.12382239D+01  1  2 12  5  6  1       21 0.909140128625D-03 0.100000000000D+01
0.328810083783D-05 0.000000000000D+00 0.000000000000D+00 0.561576034944D-06 0.000000000000D+00  6 1 2 25 23 2 1 4 0.49229894D-01 0.12616307D-01 0.18251626D+05 0.18251626D+05 0.18251626D+05 0.12382239D+01  1  2 12  5  6  1       21 0.392612159368D-02 0.100000000000D+01
0.328810083783D-05 0.000000000000D+00 0.000000000000D+00 0.561576034944D-06 0.000000000000D+00  6 3 2 25 23 2 3 4 0.49229894D-01 0.12616307D-01 0.18251626D+05 0.18251626D+05 0.18251626D+05 0.12382239D+01  1  2 12  5  6  1       21 0.890284397142D-03 0.100000000000D+01
-.673170086069D-05 0.000000000000D+00 -.801497699816D-07 0.564037486612D-06 0.000000000000D+00  6 1 2 25 23 2 1 4 0.48613877D-01 0.12616307D-01 0.17259620D+05 0.17259620D+05 0.17259620D+05 0.12409346D+01  1  2  5  5  6  1       21 -.822591312199D-02 0.100000000000D+01
-.673170086069D-05 0.000000000000D+00 -.801497699816D-07 0.564037486612D-06 0.000000000000D+00  6 3 2 25 23 2 3 4 0.48613877D-01 0.12616307D-01 0.17259620D+05 0.17259620D+05 0.17259620D+05 0.12409346D+01  1  2  5  5  6  1       21 -.188042328068D-02 0.100000000000D+01
0.101777657645D-06 0.000000000000D+00 0.000000000000D+00 0.564037486612D-06 0.226951414912D-07  6 1 2 25 23 2 1 4 0.48570079D-01 0.12643647D-01 0.18251626D+05 0.18251626D+05 0.18251626D+05 0.12382239D+01  1  2 11  5  6  1       21 0.123258377881D-03 0.100000000000D+01
0.101777657645D-06 0.000000000000D+00 0.000000000000D+00 0.564037486612D-06 0.226951414912D-07  6 3 2 25 23 2 3 4 0.48570079D-01 0.12643647D-01 0.18251626D+05 0.18251626D+05 0.18251626D+05 0.12382239D+01  1  2 11  5  6  1       21 0.282330150018D-04 0.100000000000D+01
0.327222578920D-05 0.000000000000D+00 0.000000000000D+00 0.561576034944D-06 0.000000000000D+00  6 -2 2 25 23 2 -2 4 0.48594907D-01 0.12616307D-01 0.18251626D+05 0.18251626D+05 0.18251626D+05 0.12382239D+01  1  2 12  6  6  1       21 0.145596853967D-02 0.100000000000D+01
0.328810083783D-05 0.000000000000D+00 0.000000000000D+00 0.561576034944D-06 0.000000000000D+00  6 -2 2 25 23 2 -2 4 0.49229894D-01 0.12616307D-01 0.18251626D+05 0.18251626D+05 0.18251626D+05 0.12382239D+01  1  2 12  6  6  1       21 0.142611684754D-02 0.100000000000D+01
-.673170086069D-05 0.000000000000D+00 -.801497699816D-07 0.564037486612D-06 0.000000000000D+00  6 -2 2 25 23 2 -2 4 0.48613877D-01 0.12616307D-01 0.17259620D+05 0.17259620D+05 0.17259620D+05 0.12409346D+01  1  2  5  6  6  1       21 -.301519835327D-02 0.100000000000D+01
0.990427667777D-07 0.000000000000D+00 0.000000000000D+00 0.564037486612D-06 0.229565809595D-07  6 -2 2 25 23 2 -2 4 0.48570079D-01 0.12643647D-01 0.18251626D+05 0.18251626D+05 0.18251626D+05 0.12382239D+01  1  2 11  6  6  1       21 0.439991694690D-04 0.100000000000D+01
0.327222578920D-05 0.000000000000D+00 0.000000000000D+00 0.561576034944D-06 0.000000000000D+00  6 2 2 25 23 2 2 4 0.48594907D-01 0.12616307D-01 0.18251626D+05 0.18251626D+05 0.18251626D+05 0.12382239D+01  1  2 12  7  6  1       21 0.566128987650D-02 0.100000000000D+01
0.328810083783D-05 0.000000000000D+00 0.000000000000D+00 0.561576034944D-06 0.000000000000D+00  6 2 2 25 23 2 2 4 0.49229894D-01 0.12616307D-01 0.18251626D+05 0.18251626D+05 0.18251626D+05 0.12382239D+01  1  2 12  7  6  1       21 0.561103804089D-02 0.100000000000D+01
-.673170086069D-05 0.000000000000D+00 -.801497699816D-07 0.564037486612D-06 0.000000000000D+00  6 2 2 25 23 2 2 4 0.48613877D-01 0.12616307D-01 0.17259620D+05 0.17259620D+05 0.17259620D+05 0.12409346D+01  1  2  5  7  6  1       21 -.117272299562D-01 0.100000000000D+01
0.969309203636D-07 0.000000000000D+00 0.000000000000D+00 0.564037486612D-06 0.108664383284D-07  6 2 2 25 23 2 2 4 0.48570079D-01 0.12643647D-01 0.18251626D+05 0.18251626D+05 0.18251626D+05 0.12382239D+01  1  2 11  7  6  1       21 0.167357929019D-03 0.100000000000D+01
0.327222578920D-05 0.000000000000D+00 0.000000000000D+00 0.561576034944D-06 0.000000000000D+00  6 -4 2 25 23 2 -4 4 0.48594907D-01 0.12616307D-01 0.18251626D+05 0.18251626D+05 0.18251626D+05 0.12382239D+01  1  2 12  8  6  1       21 0.746645478707D-03 0.100000000000D+01
0.328810083783D-05 0.000000000000D+00 0.000000000000D+00 0.561576034944D-06 0.000000000000D+00  6 -4 2 25 23 2 -4 4 0.49229894D-01 0.12616307D-01 0.18251626D+05 0.18251626D+05 0.18251626D+05 0.12382239D+01  1  2 12  8  6  1       21 0.730756932262D-03 0.100000000000D+01
-.673170086069D-05 0.000000000000D+00 -.801497699816D-07 0.564037486612D-06 0.000000000000D+00  6 -4 2 25 23 2 -4 4 0.48613877D-01 0.12616307D-01 0.17259620D+05 0.17259620D+05 0.17259620D+05 0.12409346D+01  1  2  5  8  6  1       21 -.154330011254D-02 0.100000000000D+01
0.955276050320D-07 0.000000000000D+00 0.000000000000D+00 0.564037486612D-06 0.213014581263D-07  6 -4 2 25 23 2 -4 4 0.48570079D-01 0.12643647D-01 0.18251626D+05 0.18251626D+05 0.18251626D+05 0.12382239D+01  1  2 11  8  6  1       21 0.217633994199D-04 0.100000000000D+01
0.327222578920D-05 0.000000000000D+00 0.000000000000D+00 0.561576034944D-06 0.000000000000D+00  6 4 2 25 23 2 4 4 0.48594907D-01 0.12616307D-01 0.18251626D+05 0.18251626D+05 0.18251626D+05 0.12382239D+01  1  2 12  9  6  1       21 0.746645478707D-03 0.100000000000D+01
0.328810083783D-05 0.000000000000D+00 0.000000000000D+00 0.561576034944D-06 0.000000000000D+00  6 4 2 25 23 2 4 4 0.49229894D-01 0.12616307D-01 0.18251626D+05 0.18251626D+05 0.18251626D+05 0.12382239D+01  1  2 12  9  6  1       21 0.730756932262D-03 0.100000000000D+01
-.673170086069D-05 0.000000000000D+00 -.801497699816D-07 0.564037486612D-06 0.000000000000D+00  6 4 2 25 23 2 4 4 0.48613877D-01 0.12616307D-01 0.17259620D+05 0.17259620D+05 0.17259620D+05 0.12409346D+01  1  2  5  9  6  1       21 -.154330011254D-02 0.100000000000D+01
0.964486914973D-07 0.000000000000D+00 0.000000000000D+00 0.564037486612D-06 0.215068488587D-07  6 4 2 25 23 2 4 4 0.48570079D-01 0.12643647D-01 0.18251626D+05 0.18251626D+05 0.18251626D+05 0.12382239D+01  1  2 11  9  6  1       21 0.219732442353D-04 0.100000000000D+01
  </mgrwgt>
  </event>
  <event>
  6     66 -.38225901E-03 0.58948266E+02 0.75467711E-02 0.11871382E+00
       21 -1    0    0  501  502 0.00000000E+00 0.00000000E+00 0.13043824E+03 0.13044039E+03 0.75000000E+00 0.0000E+00 0.9000E+01
        4 -1    0    0  503    0 0.00000000E+00 0.00000000E+00 -.37684002E+03 0.37684321E+03 0.15500000E+01 0.0000E+00 0.9000E+01
       25  1    1    2    0    0 -.17869975E+02 -.75785939E+02 -.19161152E+03 0.24166675E+03 0.12500000E+03 0.0000E+00 0.9000E+01
       23  1    1    2    0    0 -.26526330E+02 0.33457376E+02 -.90313927E+02 0.13525864E+03 0.91188000E+02 0.0000E+00 0.9000E+01
        4  1    1    2  501    0 0.53043048E+02 0.36231098E+02 0.69566998E+02 0.94700724E+02 0.15500000E+01 0.0000E+00 0.9000E+01
       21  1    1    2  503  502 -.86467424E+01 0.60974652E+01 -.34043334E+02 0.35657486E+02 0.75000000E+00 0.0000E+00 0.9000E+01
#aMCatNLO 2  0  0  2  1 0.10580418D+02 0.00000000D+00  -5  6  0 0.00000000D+00 0.00000000D+00 0.00000000D+00 0.00000000D+00 0.00000000D+00
  <mgrwgt>
 -.3582210809D-02    3    2    0
 0.210489390754552D+03 0.000000000000000D+00 0.000000000000000D+00 0.210489390754552D+03
 0.210489390754552D+03 0.000000000000000D+00 0.000000000000000D+00 -.210489390754552D+03
 0.173356443527294D+03 -.214382347219811D+02 -.732715347408442D+02 -.927315523495557D+02
 0.107003514234377D+03 -.287136421276734D+02 0.349986759622768D+02 -.329411619582231D+02
 0.140618823747433D+03 0.501518768496545D+02 0.382728587785674D+02 0.125672714307779D+03
 0.000000000000000D+00 -.000000000000000D+00 0.000000000000000D+00 -.000000000000000D+00
 0.211860596253605D+03 0.000000000000000D+00 0.000000000000000D+00 0.211860596253605D+03
 0.232005632147010D+03 0.000000000000000D+00 0.000000000000000D+00 -.232005632147010D+03
 0.174032119565202D+03 -.178711841287692D+02 -.757869290645433D+02 -.927315523495557D+02
 0.105940615256412D+03 -.265270920678233D+02 0.334567758783539D+02 -.329411619582231D+02
 0.141138983985390D+03 0.530450185992517D+02 0.362326880143953D+02 0.125672714307779D+03
 0.227545095936116D+02 -.864674240265919D+01 0.609746517179419D+01 -.201450358934050D+02
-.590186368043D-04 0.000000000000D+00 0.000000000000D+00 0.665101008992D-06 0.000000000000D+00  6 21 4 25 23 4 21 4 0.19937371D-01 0.58134941D-01 0.26046180D+05 0.26046180D+05 0.26046180D+05 0.12213934D+01  1  2 13  2  6  2        4 -.361188325907D-01 0.100000000000D+01
-.115924305910D-07 0.000000000000D+00 0.000000000000D+00 0.668754834813D-06 0.000000000000D+00  6 21 4 25 23 4 21 4 0.19937371D-01 0.52597588D-01 0.24236848D+05 0.24236848D+05 0.24236848D+05 0.12247438D+01  1  2  8  2  6  2        4 -.881471325111D-05 0.100000000000D+01
0.535141566820D-04 0.000000000000D+00 0.000000000000D+00 0.668754834813D-06 0.468989624620D-07  6 21 4 25 23 4 21 4 0.20067250D-01 0.57974117D-01 0.26046180D+05 0.26046180D+05 0.26046180D+05 0.12213934D+01  1  2  1  2  6  2        4 0.325454364953D-01 0.100000000000D+01
  </mgrwgt>
  </event>
  <event>
  5     66 -.38225901E-03 0.26417717E+02 0.75467711E-02 0.12033456E+00
       21 -1    0    0  501  502 0.00000000E+00 0.00000000E+00 0.94940672E+02 0.94943634E+02 0.75000000E+00 0.0000E+00 0.9000E+01
        2 -1    0    0  502    0 0.00000000E+00 0.00000000E+00 -.25934514E+03 0.25934533E+03 0.32000000E+00 0.0000E+00 0.9000E+01
       25  1    1    2    0    0 0.14678924E+02 0.30118951E+02 -.35926483E+02 0.13430687E+03 0.12500000E+03 0.0000E+00 0.9000E+01
       23  1    1    2    0    0 0.10139653E+02 -.21068200E+02 -.15576449E+03 0.18200140E+03 0.91188000E+02 0.0000E+00 0.9000E+01
        2  1    1    2  501    0 -.24818577E+02 -.90507512E+01 0.27286509E+02 0.37980703E+02 0.32000000E+00 0.0000E+00 0.9000E+01
#aMCatNLO 1  0  0  1  2 0.30534800D+02 0.00000000D+00  -5  6  0 0.00000000D+00 0.00000000D+00 0.00000000D+00 0.00000000D+00 0.00000000D+00
  <mgrwgt>
 -.3257315543D+00   12    2    0
 0.156917052154390D+03 0.000000000000000D+00 0.000000000000000D+00 0.156917052154390D+03
 0.156917052154390D+03 0.000000000000000D+00 0.000000000000000D+00 -.156917052154390D+03
 0.132799311586192D+03 0.146790886507504D+02 0.301190112546401D+02 0.297997764285699D+02
 0.123864088252019D+03 0.101398065888063D+02 -.210681440588984D+02 -.805007990193822D+02
 0.571707044705686D+02 -.248188952395568D+02 -.905086719574170D+01 0.507010225908122D+02
 0.000000000000000D+00 0.000000000000000D+00 0.000000000000000D+00 0.000000000000000D+00
 0.593829754368238D+03 0.000000000000000D+00 0.000000000000000D+00 0.593829754368238D+03
 0.159060513263679D+03 0.000000000000000D+00 0.000000000000000D+00 -.159060513263679D+03
 0.129701761045115D+03 0.103996101876969D+02 0.141904281455953D+02 0.297997764285699D+02
 0.127081001817936D+03 0.604872194066184D+01 -.362955093527547D+02 -.805007990193822D+02
 0.595391020812738D+02 -.267215811926434D+02 -.161328262699152D+02 0.507010225908122D+02
 0.436568402687592D+03 0.102732490642846D+02 0.382379074770745D+02 0.434769241104558D+03
0.698550434578D-06 0.000000000000D+00 0.000000000000D+00 0.919177940644D-06 0.000000000000D+00  6 21 2 25 23 2 21 2 0.14606500D-01 0.39899495D-01 0.15621025D+05 0.15621025D+05 0.15621025D+05 0.12458190D+01  1  2  2  1  6  1       21 0.703092370294D-02 0.100000000000D+01
0.537171630134D-07 0.368635192007D-07 -.141017206611D-08 0.919177940644D-06 0.000000000000D+00  6 21 2 25 23 2 21 4 0.14606500D-01 0.39899495D-01 0.15621025D+05 0.15621025D+05 0.15621025D+05 0.12458190D+01  1  2  3  1  6  1       21 0.839146141094D-03 0.100000000000D+01
0.734358617090D-07 0.000000000000D+00 0.000000000000D+00 0.919177940644D-06 0.000000000000D+00  6 21 2 25 23 2 21 4 0.14606500D-01 0.39899495D-01 0.15621025D+05 0.15621025D+05 0.15621025D+05 0.12458190D+01  1  2 15  1  6  1       21 0.114718306988D-02 0.100000000000D+01
-.202704112710D-03 0.000000000000D+00 -.267000569266D-05 0.919177940644D-06 0.000000000000D+00  6 21 2 25 23 2 21 4 0.55497371D-01 0.39899495D-01 0.15621025D+05 0.15621025D+05 0.15621025D+05 0.12458190D+01  1  2  5  1  6  1       21 -.242281643784D+00 0.100000000000D+01
-.806106799198D-04 0.000000000000D+00 -.103808606831D-05 0.919177940644D-06 0.000000000000D+00  6 -1 2 25 23 2 -1 4 0.55497371D-01 0.39899495D-01 0.15621025D+05 0.15621025D+05 0.15621025D+05 0.12458190D+01  1  2  5  4  6  1       21 -.964934263322D-02 0.100000000000D+01
-.806106799198D-04 0.000000000000D+00 -.103808606831D-05 0.919177940644D-06 0.000000000000D+00  6 -3 2 25 23 2 -3 4 0.55497371D-01 0.39899495D-01 0.15621025D+05 0.15621025D+05 0.15621025D+05 0.12458190D+01  1  2  5  4  6  1       21 -.481955323409D-02 0.100000000000D+01
-.806106799198D-04 0.000000000000D+00 -.103808606831D-05 0.919177940644D-06 0.000000000000D+00  6 1 2 25 23 2 1 4 0.55497371D-01 0.39899495D-01 0.15621025D+05 0.15621025D+05 0.15621025D+05 0.12458190D+01  1  2  5  5  6  1       21 -.233934351281D-01 0.100000000000D+01
-.806106799198D-04 0.000000000000D+00 -.103808606831D-05 0.919177940644D-06 0.000000000000D+00  6 3 2 25 23 2 3 4 0.55497371D-01 0.39899495D-01 0.15621025D+05 0.15621025D+05 0.15621025D+05 0.12458190D+01  1  2  5  5  6  1       21 -.482218685932D-02 0.100000000000D+01
-.806106799198D-04 0.000000000000D+00 -.103808606831D-05 0.919177940644D-06 0.000000000000D+00  6 -2 2 25 23 2 -2 4 0.55497371D-01 0.39899495D-01 0.15621025D+05 0.15621025D+05 0.15621025D+05 0.12458190D+01  1  2  5  6  6  1       21 -.776384825043D-02 0.100000000000D+01
-.806106799198D-04 0.000000000000D+00 -.103808606831D-05 0.919177940644D-06 0.000000000000D+00  6 2 2 25 23 2 2 4 0.55497371D-01 0.39899495D-01 0.15621025D+05 0.15621025D+05 0.15621025D+05 0.12458190D+01  1  2  5  7  6  1       21 -.341574361555D-01 0.100000000000D+01
-.806106799198D-04 0.000000000000D+00 -.103808606831D-05 0.919177940644D-06 0.000000000000D+00  6 -4 2 25 23 2 -4 4 0.55497371D-01 0.39899495D-01 0.15621025D+05 0.15621025D+05 0.15621025D+05 0.12458190D+01  1  2  5  8  6  1       21 -.393068058552D-02 0.100000000000D+01
-.806106799198D-04 0.000000000000D+00 -.103808606831D-05 0.919177940644D-06 0.000000000000D+00  6 4 2 25 23 2 4 4 0.55497371D-01 0.39899495D-01 0.15621025D+05 0.15621025D+05 0.15621025D+05 0.12458190D+01  1  2  5  9  6  1       21 -.393068058552D-02 0.100000000000D+01
  </mgrwgt>
  </event>
  <event>
  6     66 0.38225901E-03 0.52113319E+02 0.75467711E-02 0.11330613E+00
        1 -1    0    0  501    0 0.00000000E+00 0.00000000E+00 0.53718231E+02 0.53719184E+02 0.32000000E+00 0.0000E+00 0.9000E+01
        2 -1    0    0  502    0 0.00000000E+00 0.00000000E+00 -.12296084E+04 0.12296085E+04 0.32000000E+00 0.0000E+00 0.9000E+01
       25  1    1    2    0    0 -.32061550E+02 0.13062722E+02 -.13544194E+03 0.18753159E+03 0.12500000E+03 0.0000E+00 0.9000E+01
       23  1    1    2    0    0 0.25195173E+02 0.76105860E+02 -.36522912E+03 0.38488240E+03 0.91188000E+02 0.0000E+00 0.9000E+01
        2  1    1    2  501    0 0.86966910E+02 -.31949503E+02 -.51193819E+03 0.52025458E+03 0.32000000E+00 0.0000E+00 0.9000E+01
        1  1    1    2  502    0 -.80100533E+02 -.57219079E+02 -.16328097E+03 0.19065911E+03 0.32000000E+00 0.0000E+00 0.9000E+01
#aMCatNLO 2  0  0  1  2 0.12441341D+02 0.00000000D+00  -5  6  0 0.00000000D+00 0.00000000D+00 0.00000000D+00 0.00000000D+00 0.00000000D+00
  <mgrwgt>
 0.6108791261D-03    1    2    0
 0.199284334851094D+03 0.000000000000000D+00 0.000000000000000D+00 0.199284334851094D+03
 0.199284334851094D+03 0.000000000000000D+00 0.000000000000000D+00 -.199284334851094D+03
 0.174576866608422D+03 -.656839160632404D+02 -.109549390798871D+02 0.102067109468075D+03
 0.111252252740282D+03 0.195217888774052D+01 0.595025462136428D+02 -.227474918940793D+02
 0.112739550353482D+03 0.637317371754999D+02 -.485476071337557D+02 -.793196175739957D+02
 0.000000000000000D+00 -.000000000000000D+00 -.000000000000000D+00 0.000000000000000D+00
 0.275469845043512D+03 0.000000000000000D+00 0.000000000000000D+00 0.275469845043512D+03
 0.239782688060422D+03 0.000000000000000D+00 0.000000000000000D+00 -.239782688060422D+03
 0.165049328924969D+03 -.320616400424332D+02 0.130628243961265D+02 0.102067109468075D+03
 0.123529766684598D+03 0.251951029190517D+02 0.761059151090000D+02 -.227474918940793D+02
 0.121965789648976D+03 0.869670701059487D+02 -.319496608714445D+02 -.793196175739957D+02
 0.104707647845392D+03 -.801005329825673D+02 -.572190786336820D+02 0.356871569830897D+02
0.139154204308D-05 0.000000000000D+00 0.000000000000D+00 0.696114003576D-07 0.954665511925D-10  6 1 2 25 23 2 1 4 0.82644117D-02 0.18917042D+00 0.48887775D+05 0.48887775D+05 0.48887775D+05 0.11932505D+01  1  2  1  5  6  1       21 0.610879126131D-03 0.100000000000D+01
  </mgrwgt>
  </event>
  <event>
  5     66 0.38225901E-03 0.10247205E+03 0.75467711E-02 0.10890286E+00
       21 -1    0    0  501  502 0.00000000E+00 0.00000000E+00 0.16667105E+02 0.16683971E+02 0.75000000E+00 0.0000E+00 0.9000E+01
        2 -1    0    0  502    0 0.00000000E+00 0.00000000E+00 -.22277877E+04 0.22277877E+04 0.32000000E+00 0.0000E+00 0.9000E+01
       25  1    1    2    0    0 -.11304362E+01 0.30380194E+02 -.84217533E+03 0.85194397E+03 0.12500000E+03 0.0000E+00 0.9000E+01
       23  1    1    2    0    0 0.91416198E+02 -.78845967E+02 -.88687573E+03 0.89968740E+03 0.91188000E+02 0.0000E+00 0.9000E+01
        2  1    1    2  501    0 -.90285762E+02 0.48465774E+02 -.48206956E+03 0.49284035E+03 0.32000000E+00 0.0000E+00 0.9000E+01
#aMCatNLO 1  0  0  1  2 0.12441341D+02 0.00000000D+00  -5  6  0 0.00000000D+00 0.00000000D+00 0.00000000D+00 0.00000000D+00 0.00000000D+00
  <mgrwgt>
 0.1550634659D-01   12    2    0
 0.192742640988397D+03 0.000000000000000D+00 0.000000000000000D+00 0.192742640988397D+03
 0.192742640988397D+03 0.000000000000000D+00 0.000000000000000D+00 -.192742640988397D+03
 0.129740085863064D+03 -.113029350873229D+01 0.303801169557325D+02 -.168303538315524D+02
 0.151325546666716D+03 0.914163647927749D+02 -.788460567110216D+02 -.324304165518081D+01
 0.104419649447014D+03 -.902860712840426D+02 0.484659397552892D+02 0.200733954867332D+02
 0.000000000000000D+00 0.000000000000000D+00 0.000000000000000D+00 0.000000000000000D+00
 0.301285294436972D+03 0.000000000000000D+00 0.000000000000000D+00 0.301285294436972D+03
 0.286884025364941D+03 0.000000000000000D+00 0.000000000000000D+00 -.286884025364941D+03
 0.138012326788297D+03 -.542574973276063D+02 0.139737439209884D+02 -.168303538315524D+02
 0.137150992861712D+03 0.341770975132448D+02 -.965222885417992D+02 -.324304165518081D+01
 0.145068268587688D+03 -.139789249763465D+03 0.331787129833359D+02 0.200733954867332D+02
 0.167937731564216D+03 0.159869649577826D+03 0.493698316374749D+02 0.144012690720310D+02
0.194788262759D-05 0.000000000000D+00 0.000000000000D+00 0.100413434155D-06 0.000000000000D+00  6 21 2 25 23 2 21 2 0.25654692D-02 0.34273787D+00 0.36558712D+05 0.36558712D+05 0.36558712D+05 0.12059880D+01  1  2  2  1  6  1       21 0.170051172081D-01 0.100000000000D+01
-.132233505000D-06 0.102792590325D-06 -.393221381524D-08 0.100413434155D-06 0.000000000000D+00  6 21 2 25 23 2 21 4 0.25654692D-02 0.34273787D+00 0.36558712D+05 0.36558712D+05 0.36558712D+05 0.12059880D+01  1  2  3  1  6  1       21 -.167897551096D-02 0.100000000000D+01
0.188595224997D-06 0.000000000000D+00 0.000000000000D+00 0.100413434155D-06 0.000000000000D+00  6 21 2 25 23 2 21 4 0.25654692D-02 0.34273787D+00 0.36558712D+05 0.36558712D+05 0.36558712D+05 0.12059880D+01  1  2 15  1  6  1       21 0.239460312464D-02 0.100000000000D+01
-.890190026477D-06 0.000000000000D+00 -.415704977276D-05 0.100413434155D-06 0.000000000000D+00  6 21 2 25 23 2 21 4 0.70562971D-02 0.34273787D+00 0.36558712D+05 0.36558712D+05 0.36558712D+05 0.12059880D+01  1  2  5  1  6  1       21 -.205937925601D-02 0.100000000000D+01
-.152569241901D-06 0.000000000000D+00 -.139828653338D-05 0.100413434155D-06 0.000000000000D+00  6 -1 2 25 23 2 -1 4 0.70562971D-02 0.34273787D+00 0.36558712D+05 0.36558712D+05 0.36558712D+05 0.12059880D+01  1  2  5  4  6  1       21 -.219298558990D-04 0.100000000000D+01
-.152569241901D-06 0.000000000000D+00 -.139828653338D-05 0.100413434155D-06 0.000000000000D+00  6 -3 2 25 23 2 -3 4 0.70562971D-02 0.34273787D+00 0.36558712D+05 0.36558712D+05 0.36558712D+05 0.12059880D+01  1  2  5  4  6  1       21 -.152394921114D-04 0.100000000000D+01
-.152569241901D-06 0.000000000000D+00 -.139828653338D-05 0.100413434155D-06 0.000000000000D+00  6 1 2 25 23 2 1 4 0.70562971D-02 0.34273787D+00 0.36558712D+05 0.36558712D+05 0.36558712D+05 0.12059880D+01  1  2  5  5  6  1       21 -.258337984172D-04 0.100000000000D+01
-.152569241901D-06 0.000000000000D+00 -.139828653338D-05 0.100413434155D-06 0.000000000000D+00  6 3 2 25 23 2 3 4 0.70562971D-02 0.34273787D+00 0.36558712D+05 0.36558712D+05 0.36558712D+05 0.12059880D+01  1  2  5  5  6  1       21 -.152378274379D-04 0.100000000000D+01
-.152569241901D-06 0.000000000000D+00 -.139828653338D-05 0.100413434155D-06 0.000000000000D+00  6 -2 2 25 23 2 -2 4 0.70562971D-02 0.34273787D+00 0.36558712D+05 0.36558712D+05 0.36558712D+05 0.12059880D+01  1  2  5  6  6  1       21 -.212488487699D-04 0.100000000000D+01
-.152569241901D-06 0.000000000000D+00 -.139828653338D-05 0.100413434155D-06 0.000000000000D+00  6 2 2 25 23 2 2 4 0.70562971D-02 0.34273787D+00 0.36558712D+05 0.36558712D+05 0.36558712D+05 0.12059880D+01  1  2  5  7  6  1       21 -.284633404794D-04 0.100000000000D+01
-.152569241901D-06 0.000000000000D+00 -.139828653338D-05 0.100413434155D-06 0.000000000000D+00  6 -4 2 25 23 2 -4 4 0.70562971D-02 0.34273787D+00 0.36558712D+05 0.36558712D+05 0.36558712D+05 0.12059880D+01  1  2  5  8  6  1       21 -.135329069507D-04 0.100000000000D+01
-.152569241901D-06 0.000000000000D+00 -.139828653338D-05 0.100413434155D-06 0.000000000000D+00  6 4 2 25 23 2 4 4 0.70562971D-02 0.34273787D+00 0.36558712D+05 0.36558712D+05 0.36558712D+05 0.12059880D+01  1  2  5  9  6  1       21 -.135329069507D-04 0.100000000000D+01
  </mgrwgt>
  </event>
  <event>
  6     66 0.38225901E-03 0.28199294E+02 0.75467711E-02 0.11738482E+00
       21 -1    0    0  503  502 0.00000000E+00 0.00000000E+00 0.13669119E+03 0.13669325E+03 0.75000000E+00 0.0000E+00 0.9000E+01
        2 -1    0    0  502    0 0.00000000E+00 0.00000000E+00 -.24726752E+03 0.24726773E+03 0.32000000E+00 0.0000E+00 0.9000E+01
       25  1    1    2    0    0 0.52544212E+02 -.41889450E+02 -.49922861E+02 0.15044239E+03 0.12500000E+03 0.0000E+00 0.9000E+01
       23  1    1    2    0    0 -.47340657E+02 -.14992162E+02 -.60660327E+02 0.12025319E+03 0.91188000E+02 0.0000E+00 0.9000E+01
        2  1    1    2  501    0 -.44324957E+02 0.21405659E+02 -.24564608E+02 0.55012965E+02 0.32000000E+00 0.0000E+00 0.9000E+01
       21  1    1    2  503  501 0.39121402E+02 0.35475954E+02 0.24571465E+02 0.58252440E+02 0.75000000E+00 0.0000E+00 0.9000E+01
#aMCatNLO 2  0  0  1  5 0.37367329D+02 0.00000000D+00  -5  6  0 0.00000000D+00 0.00000000D+00 0.00000000D+00 0.00000000D+00 0.00000000D+00
  <mgrwgt>
 0.2839018367D-01    1    2    0
 0.145801320862843D+03 0.000000000000000D+00 0.000000000000000D+00 0.145801320862843D+03
 0.145801320862843D+03 0.000000000000000D+00 0.000000000000000D+00 -.145801320862843D+03
 0.146854025057370D+03 0.718033060648934D+02 -.244257031256093D+02 0.137395393125651D+02
 0.980288042273430D+02 -.338640649855169D+02 -.277184482209524D+01 -.118295009692571D+02
 0.467198124409724D+02 -.379392410793764D+02 0.271975479477045D+02 -.191003834330806D+01
 0.000000000000000D+00 0.000000000000000D+00 0.000000000000000D+00 0.000000000000000D+00
 0.212571639302360D+03 0.000000000000000D+00 0.000000000000000D+00 0.212571639302360D+03
 0.159000371986889D+03 0.000000000000000D+00 0.000000000000000D+00 -.159000371986889D+03
 0.142581444009116D+03 0.525446248352277D+02 -.418898034863887D+02 0.137395393125651D+02
 0.104503911611503D+03 -.473403435684394D+02 -.149923639145163D+02 -.118295009692571D+02
 0.492609418158086D+02 -.443256827838989D+02 0.214062137672393D+02 -.191003834330806D+01
 0.752257138528217D+02 0.391214015171105D+02 0.354759536336658D+02 0.535712673154708D+02
0.371829153200D-05 0.000000000000D+00 0.000000000000D+00 0.207858878905D-06 0.119234763924D-08  6 21 2 25 23 2 21 4 0.21029353D-01 0.38040905D-01 0.30238649D+05 0.30238649D+05 0.30238649D+05 0.12145374D+01  1  2  1  1  6  1       21 0.283901836740D-01 0.100000000000D+01
  </mgrwgt>
  </event>
  <event>
  6     66 0.38225901E-03 0.26784933E+02 0.75467711E-02 0.12169338E+00
       21 -1    0    0  501  502 0.00000000E+00 0.00000000E+00 0.48879132E+02 0.48884886E+02 0.75000000E+00 0.0000E+00 0.9000E+01
        4 -1    0    0  503    0 0.00000000E+00 0.00000000E+00 -.57059847E+03 0.57060058E+03 0.15500000E+01 0.0000E+00 0.9000E+01
       25  1    1    2    0    0 -.12854558E+02 -.15353268E+01 -.30125057E+03 0.32641156E+03 0.12500000E+03 0.0000E+00 0.9000E+01
       23  1    1    2    0    0 -.97199499E+01 0.42418974E+02 -.13701425E+03 0.17024102E+03 0.91188000E+02 0.0000E+00 0.9000E+01
        4  1    1    2  501    0 0.10775572E+02 -.91498775E+01 0.13821357E+02 0.19830926E+02 0.15500000E+01 0.0000E+00 0.9000E+01
       21  1    1    2  503  502 0.11798936E+02 -.31733770E+02 -.97275871E+02 0.10300196E+03 0.75000000E+00 0.0000E+00 0.9000E+01
#aMCatNLO 2  0  0  2  1 0.72989192D+01 0.00000000D+00  -5  6  0 0.00000000D+00 0.00000000D+00 0.00000000D+00 0.00000000D+00 0.00000000D+00
  <mgrwgt>
 0.7858958973D-03    1    2    0
 0.146164889471835D+03 0.000000000000000D+00 0.000000000000000D+00 0.146164889471835D+03
 0.146164889471835D+03 0.000000000000000D+00 0.000000000000000D+00 -.146164889471835D+03
 0.138954333576443D+03 -.727880028005071D+01 -.165351247446827D+02 -.579388948447790D+02
 0.968467200428301D+02 -.573879715938291D+01 0.317090136230115D+02 0.506364505800280D+01
 0.565287253243959D+02 0.130175974394336D+02 -.151738888783288D+02 0.528752497867762D+02
 0.000000000000000D+00 0.000000000000000D+00 -.000000000000000D+00 -.000000000000000D+00
 0.156292675657764D+03 0.000000000000000D+00 0.000000000000000D+00 0.156292675657764D+03
 0.178457439826255D+03 0.000000000000000D+00 0.000000000000000D+00 -.178457439826255D+03
 0.138381959465590D+03 -.128570435665162D+02 -.153218811854781D+01 -.579388948447790D+02
 0.101167858402168D+03 -.972159176847397D+01 0.424209191542896D+02 0.506364505800280D+01
 0.547339681412412D+02 0.107796993048224D+02 -.915496102504190D+01 0.528752497867762D+02
 0.404663294750195D+02 0.117989360301678D+02 -.317337700106999D+02 -.221647641684916D+02
0.530656368777D-06 0.000000000000D+00 0.000000000000D+00 0.197331402449D-05 0.272475019866D-07  6 21 4 25 23 4 21 4 0.75203090D-02 0.87783094D-01 0.18866233D+05 0.18866233D+05 0.18866233D+05 0.12366261D+01  1  2  1  2  6  2        4 0.785895897318D-03 0.100000000000D+01
  </mgrwgt>
  </event>
  <event>
  5     66 0.38225901E-03 0.71843694E+02 0.75467711E-02 0.10906231E+00
       21 -1    0    0  501  502 0.00000000E+00 0.00000000E+00 0.89680308E+02 0.89683444E+02 0.75000000E+00 0.0000E+00 0.9000E+01
        2 -1    0    0  502    0 0.00000000E+00 0.00000000E+00 -.56132165E+03 0.56132174E+03 0.32000000E+00 0.0000E+00 0.9000E+01
       25  1    1    2    0    0 0.72368261E+02 0.57000020E+02 -.75555938E+02 0.17268430E+03 0.12500000E+03 0.0000E+00 0.9000E+01
       23  1    1    2    0    0 -.82750786E+02 -.12808900E+03 -.35125684E+03 0.39363829E+03 0.91188000E+02 0.0000E+00 0.9000E+01
        2  1    1    2  501    0 0.10382525E+02 0.71088980E+02 -.44828570E+02 0.84682601E+02 0.32000000E+00 0.0000E+00 0.9000E+01
#aMCatNLO 1  0  0  1  1 0.14792294D+03 0.00000000D+00  -5  6  0 0.00000000D+00 0.00000000D+00 0.00000000D+00 0.00000000D+00 0.00000000D+00
  <mgrwgt>
 0.2283890235D+00    3    2    0
 0.224366996552963D+03 0.000000000000000D+00 0.000000000000000D+00 0.224366996552963D+03
 0.224366996552963D+03 0.000000000000000D+00 0.000000000000000D+00 -.224366996552963D+03
 0.171110309554796D+03 0.723682259521453D+02 0.569997782579762D+02 0.718860430613543D+02
 0.201886710449207D+03 -.827508276449192D+02 -.128089285341720D+03 -.958562883525667D+02
 0.757369731019224D+02 0.103826016927740D+02 0.710895070837437D+02 0.239702452912124D+02
 0.000000000000000D+00 0.000000000000000D+00 0.000000000000000D+00 -.000000000000000D+00
 0.248801166269350D+03 0.000000000000000D+00 0.000000000000000D+00 0.248801166269350D+03
 0.671847024648709D+03 0.000000000000000D+00 0.000000000000000D+00 -.671847024648709D+03
 0.150161715901067D+03 0.372321792963987D+02 0.192276509271111D+02 0.718860430613543D+02
 0.262068365265861D+03 -.133491464534684D+03 -.182636736744762D+03 -.958562883525667D+02
 0.602563139076191D+02 -.449035984334345D+01 0.551007021270140D+02 0.239702452912124D+02
 0.448161795843512D+03 0.100749645081628D+03 0.108308383690637D+03 -.423045858379360D+03
0.459013519967D-04 0.000000000000D+00 0.000000000000D+00 0.682488194988D-07 0.000000000000D+00  6 21 2 25 23 2 21 2 0.13797219D-01 0.86357426D-01 0.40965814D+05 0.40965814D+05 0.40965814D+05 0.12009495D+01  1  2  2  1  6  1       21 0.206643592899D+00 0.100000000000D+01
-.141960507105D-05 0.242228089328D-05 -.926616049157D-07 0.682488194988D-07 0.000000000000D+00  6 21 2 25 23 2 21 4 0.13797219D-01 0.86357426D-01 0.40965814D+05 0.40965814D+05 0.40965814D+05 0.12009495D+01  1  2  3  1  6  1       21 -.921750697011D-02 0.100000000000D+01
0.476865853093D-05 0.000000000000D+00 0.000000000000D+00 0.682488194988D-07 0.000000000000D+00  6 21 2 25 23 2 21 4 0.13797219D-01 0.86357426D-01 0.40965814D+05 0.40965814D+05 0.40965814D+05 0.12009495D+01  1  2 15  1  6  1       21 0.309629376109D-01 0.100000000000D+01
  </mgrwgt>
  </event>
  <event>
  5     66 0.38225901E-03 0.25888132E+02 0.75467711E-02 0.12027119E+00
       21 -1    0    0  501  502 0.00000000E+00 0.00000000E+00 0.27331206E+02 0.27341495E+02 0.75000000E+00 0.0000E+00 0.9000E+01
        2 -1    0    0  502    0 0.00000000E+00 0.00000000E+00 -.21071710E+04 0.21071710E+04 0.32000000E+00 0.0000E+00 0.9000E+01
       25  1    1    2    0    0 0.38713975E+02 0.30414276E+02 -.13180419E+04 0.13248710E+04 0.12500000E+03 0.0000E+00 0.9000E+01
       23  1    1    2    0    0 -.17589896E+02 -.45379815E+02 -.77410483E+03 0.78097521E+03 0.91188000E+02 0.0000E+00 0.9000E+01
        2  1    1    2  501    0 -.21124078E+02 0.14965539E+02 0.12306919E+02 0.28666299E+02 0.32000000E+00 0.0000E+00 0.9000E+01
#aMCatNLO 1  0  0  1  2 0.43145244D+02 0.00000000D+00  -5  6  0 0.00000000D+00 0.00000000D+00 0.00000000D+00 0.00000000D+00 0.00000000D+00
  <mgrwgt>
 0.1323041653D+00    4    2    0
 0.240005272670613D+03 0.000000000000000D+00 0.000000000000000D+00 0.240005272670613D+03
 0.240005272670613D+03 0.000000000000000D+00 0.000000000000000D+00 -.240005272670613D+03
 0.180491538614442D+03 0.387139872242088D+02 0.304142667444974D+02 -.120533792286674D+03
 0.118721015410225D+03 -.175898882263958D+02 -.453798206576705D+02 -.584011632186854D+02
 0.180797991316558D+03 -.211240989978131D+02 0.149655539131730D+02 0.178934955505359D+03
 0.000000000000000D+00 -.000000000000000D+00 0.000000000000000D+00 -.000000000000000D+00
 0.252810276428783D+03 0.000000000000000D+00 0.000000000000000D+00 0.252810276428783D+03
 0.280286922581147D+03 0.000000000000000D+00 0.000000000000000D+00 -.280286922581147D+03
 0.183490758631789D+03 0.539588970644910D+02 0.245743941501326D+02 -.120533792286674D+03
 0.119182321816671D+03 -.762562635386640D+01 -.491968337093778D+02 -.584011632186854D+02
 0.179272596720311D+03 -.604302584593382D+01 0.918844229257454D+01 0.178934955505359D+03
 0.511515218411593D+02 -.402902448646908D+02 0.154339972666706D+02 -.274766461523647D+02
0.220376150487D-04 0.000000000000D+00 0.000000000000D+00 0.732178219670D-05 0.000000000000D+00  6 21 2 25 23 2 21 2 0.42055942D-02 0.32418095D+00 0.17370886D+05 0.17370886D+05 0.17370886D+05 0.12406220D+01  1  2  2  1  6  1       21 0.105586547099D+00 0.100000000000D+01
0.572683559501D-05 0.116295689656D-05 -.444875954650D-07 0.732178219670D-05 0.000000000000D+00  6 21 2 25 23 2 21 4 0.42055942D-02 0.32418095D+00 0.17370886D+05 0.17370886D+05 0.17370886D+05 0.12406220D+01  1  2  3  1  6  1       21 0.422316107106D-01 0.100000000000D+01
0.210821377460D-05 0.000000000000D+00 0.000000000000D+00 0.732178219670D-05 0.000000000000D+00  6 21 2 25 23 2 21 4 0.42055942D-02 0.32418095D+00 0.17370886D+05 0.17370886D+05 0.17370886D+05 0.12406220D+01  1  2 15  1  6  1       21 0.155466770342D-01 0.100000000000D+01
-.421199535606D-05 0.000000000000D+00 0.000000000000D+00 0.732178219670D-05 0.000000000000D+00  6 21 2 25 23 2 21 4 0.42055942D-02 0.32418095D+00 0.17370886D+05 0.17370886D+05 0.17370886D+05 0.12406220D+01  1  2  4  1  6  1       21 -.310606695864D-01 0.100000000000D+01
  </mgrwgt>
  </event>
  <event>
  5     66 0.38225901E-03 0.66815471E+02 0.75467711E-02 0.11600598E+00
       21 -1    0    0  501  502 0.00000000E+00 0.00000000E+00 0.10715778E+02 0.10741993E+02 0.75000000E+00 0.0000E+00 0.9000E+01
        2 -1    0    0  502    0 0.00000000E+00 0.00000000E+00 -.27750650E+04 0.27750650E+04 0.32000000E+00 0.0000E+00 0.9000E+01
       25  1    1    2    0    0 -.73624774E+01 0.46997888E+02 -.69252551E+03 0.70532233E+03 0.12500000E+03 0.0000E+00 0.9000E+01
       23  1    1    2    0    0 -.60940348E+02 -.51408557E+02 -.13499601E+04 0.13553834E+04 0.91188000E+02 0.0000E+00 0.9000E+01
        2  1    1    2  501    0 0.68302826E+02 0.44106693E+01 -.72186362E+03 0.72510131E+03 0.32000000E+00 0.0000E+00 0.9000E+01
#aMCatNLO 1  0  0  1  2 0.49694535D+02 0.00000000D+00  -5  6  0 0.00000000D+00 0.00000000D+00 0.00000000D+00 0.00000000D+00 0.00000000D+00
  <mgrwgt>
 0.4437250575D-01   32    2    0
 0.172550053908372D+03 0.000000000000000D+00 0.000000000000000D+00 0.172550053908372D+03
 0.172550053908372D+03 0.000000000000000D+00 0.000000000000000D+00 -.172550053908372D+03
 0.146362031208105D+03 -.736277148176045D+01 0.469978686821255D+02 0.594460605491009D+02
 0.127717692279094D+03 -.609406049069408D+02 -.514085735599213D+02 -.404964049664605D+02
 0.710203843295451D+02 0.683033763887012D+02 0.441070487779582D+01 -.189496555826405D+02
 0.000000000000000D+00 -.000000000000000D+00 0.000000000000000D+00 0.000000000000000D+00
 0.236525419630537D+03 0.000000000000000D+00 0.000000000000000D+00 0.236525419630537D+03
 0.184256425381614D+03 0.000000000000000D+00 0.000000000000000D+00 -.184256425381614D+03
 0.141024037825977D+03 -.362192291912910D+01 0.267549398112389D+02 0.594460605491009D+02
 0.134719990949695D+03 -.575245046297548D+02 -.698941855191100D+02 -.404964049664605D+02
 0.729157354528571D+02 0.701769648636348D+02 -.572788202204811D+01 -.189496555826405D+02
 0.721220807836218D+02 -.903053731475095D+01 0.488671277299192D+02 0.522689942489228D+02
0.180369054665D-05 0.000000000000D+00 0.000000000000D+00 0.102641672703D-06 0.000000000000D+00  6 21 2 25 23 2 21 2 0.16505992D-02 0.42693510D+00 0.26133813D+05 0.26133813D+05 0.26133813D+05 0.12212378D+01  1  2  2  1  6  1       21 0.168787222704D-01 0.100000000000D+01
-.139603251276D-06 0.951833651618D-07 -.364113154740D-08 0.102641672703D-06 0.000000000000D+00  6 21 2 25 23 2 21 4 0.16505992D-02 0.42693510D+00 0.26133813D+05 0.26133813D+05 0.26133813D+05 0.12212378D+01  1  2  3  1  6  1       21 -.194837950884D-02 0.100000000000D+01
0.176236309594D-06 0.000000000000D+00 0.000000000000D+00 0.102641672703D-06 0.000000000000D+00  6 21 2 25 23 2 21 4 0.16505992D-02 0.42693510D+00 0.26133813D+05 0.26133813D+05 0.26133813D+05 0.12212378D+01  1  2 15  1  6  1       21 0.245965055389D-02 0.100000000000D+01
0.292535658002D-05 0.000000000000D+00 0.000000000000D+00 0.100325998430D-06 0.000000000000D+00  6 21 2 25 23 2 21 4 0.23027749D-02 0.42693510D+00 0.35433691D+05 0.35433691D+05 0.35433691D+05 0.12073832D+01  1  2 12  1  6  1       21 0.225153038847D-01 0.100000000000D+01
0.240987275011D-05 0.000000000000D+00 0.000000000000D+00 0.100325998430D-06 0.000000000000D+00  6 21 2 25 23 2 21 4 0.24661704D-02 0.42693510D+00 0.35433691D+05 0.35433691D+05 0.35433691D+05 0.12073832D+01  1  2 12  1  6  1       21 0.165773961076D-01 0.100000000000D+01
-.329494754934D-05 0.000000000000D+00 0.000000000000D+00 0.102641672703D-06 0.000000000000D+00  6 21 2 25 23 2 21 4 0.16505992D-02 0.42693510D+00 0.26133813D+05 0.26133813D+05 0.26133813D+05 0.12212378D+01  1  2  4  1  6  1       21 -.459860943721D-01 0.100000000000D+01
-.893217082198D-05 0.000000000000D+00 -.224439327054D-05 0.102641672703D-06 0.000000000000D+00  6 21 2 25 23 2 21 4 0.24682389D-02 0.42693510D+00 0.26133813D+05 0.26133813D+05 0.26133813D+05 0.12212378D+01  1  2  5  1  6  1       21 -.648950433630D-01 0.100000000000D+01
0.716591032460D-05 0.000000000000D+00 0.165623581874D-05 0.102641672703D-06 0.000000000000D+00  6 21 2 25 23 2 21 4 0.16505992D-02 0.42693510D+00 0.26133813D+05 0.26133813D+05 0.26133813D+05 0.12212378D+01  1  2  6  1  6  1       21 0.100011373023D+00 0.100000000000D+01
0.313093803128D-06 0.000000000000D+00 0.000000000000D+00 0.100325998430D-06 0.000000000000D+00  6 -1 2 25 23 2 -1 4 0.23027749D-02 0.42693510D+00 0.35433691D+05 0.35433691D+05 0.35433691D+05 0.12073832D+01  1  2 12  4  6  1       21 0.120169104536D-03 0.100000000000D+01
0.313093803128D-06 0.000000000000D+00 0.000000000000D+00 0.100325998430D-06 0.000000000000D+00  6 -3 2 25 23 2 -3 4 0.23027749D-02 0.42693510D+00 0.35433691D+05 0.35433691D+05 0.35433691D+05 0.12073832D+01  1  2 12  4  6  1       21 0.929248020366D-04 0.100000000000D+01
0.324039255525D-06 0.000000000000D+00 0.000000000000D+00 0.100325998430D-06 0.000000000000D+00  6 -1 2 25 23 2 -1 4 0.24661704D-02 0.42693510D+00 0.35433691D+05 0.35433691D+05 0.35433691D+05 0.12073832D+01  1  2 12  4  6  1       21 0.112525855545D-03 0.100000000000D+01
0.324039255525D-06 0.000000000000D+00 0.000000000000D+00 0.100325998430D-06 0.000000000000D+00  6 -3 2 25 23 2 -3 4 0.24661704D-02 0.42693510D+00 0.35433691D+05 0.35433691D+05 0.35433691D+05 0.12073832D+01  1  2 12  4  6  1       21 0.865232333208D-04 0.100000000000D+01
-.112073104035D-05 0.000000000000D+00 -.302548696521D-06 0.102641672703D-06 0.000000000000D+00  6 -1 2 25 23 2 -1 4 0.24682389D-02 0.42693510D+00 0.26133813D+05 0.26133813D+05 0.26133813D+05 0.12212378D+01  1  2  5  4  6  1       21 -.408871791160D-03 0.100000000000D+01
-.112073104035D-05 0.000000000000D+00 -.302548696521D-06 0.102641672703D-06 0.000000000000D+00  6 -3 2 25 23 2 -3 4 0.24682389D-02 0.42693510D+00 0.26133813D+05 0.26133813D+05 0.26133813D+05 0.12212378D+01  1  2  5  4  6  1       21 -.312527614256D-03 0.100000000000D+01
0.313093803128D-06 0.000000000000D+00 0.000000000000D+00 0.100325998430D-06 0.000000000000D+00  6 1 2 25 23 2 1 4 0.23027749D-02 0.42693510D+00 0.35433691D+05 0.35433691D+05 0.35433691D+05 0.12073832D+01  1  2 12  5  6  1       21 0.127131696094D-03 0.100000000000D+01
0.313093803128D-06 0.000000000000D+00 0.000000000000D+00 0.100325998430D-06 0.000000000000D+00  6 3 2 25 23 2 3 4 0.23027749D-02 0.42693510D+00 0.35433691D+05 0.35433691D+05 0.35433691D+05 0.12073832D+01  1  2 12  5  6  1       21 0.929192422945D-04 0.100000000000D+01
0.324039255525D-06 0.000000000000D+00 0.000000000000D+00 0.100325998430D-06 0.000000000000D+00  6 1 2 25 23 2 1 4 0.24661704D-02 0.42693510D+00 0.35433691D+05 0.35433691D+05 0.35433691D+05 0.12073832D+01  1  2 12  5  6  1       21 0.119509078164D-03 0.100000000000D+01
0.324039255525D-06 0.000000000000D+00 0.000000000000D+00 0.100325998430D-06 0.000000000000D+00  6 3 2 25 23 2 3 4 0.24661704D-02 0.42693510D+00 0.35433691D+05 0.35433691D+05 0.35433691D+05 0.12073832D+01  1  2 12  5  6  1       21 0.865178216441D-04 0.100000000000D+01
-.112073104035D-05 0.000000000000D+00 -.302548696521D-06 0.102641672703D-06 0.000000000000D+00  6 1 2 25 23 2 1 4 0.24682389D-02 0.42693510D+00 0.26133813D+05 0.26133813D+05 0.26133813D+05 0.12212378D+01  1  2  5  5  6  1       21 -.434421445413D-03 0.100000000000D+01
-.112073104035D-05 0.000000000000D+00 -.302548696521D-06 0.102641672703D-06 0.000000000000D+00  6 3 2 25 23 2 3 4 0.24682389D-02 0.42693510D+00 0.26133813D+05 0.26133813D+05 0.26133813D+05 0.12212378D+01  1  2  5  5  6  1       21 -.312507586455D-03 0.100000000000D+01
0.313093803128D-06 0.000000000000D+00 0.000000000000D+00 0.100325998430D-06 0.000000000000D+00  6 -2 2 25 23 2 -2 4 0.23027749D-02 0.42693510D+00 0.35433691D+05 0.35433691D+05 0.35433691D+05 0.12073832D+01  1  2 12  6  6  1       21 0.118920576020D-03 0.100000000000D+01
0.324039255525D-06 0.000000000000D+00 0.000000000000D+00 0.100325998430D-06 0.000000000000D+00  6 -2 2 25 23 2 -2 4 0.24661704D-02 0.42693510D+00 0.35433691D+05 0.35433691D+05 0.35433691D+05 0.12073832D+01  1  2 12  6  6  1       21 0.111273858508D-03 0.100000000000D+01
-.112073104035D-05 0.000000000000D+00 -.302548696521D-06 0.102641672703D-06 0.000000000000D+00  6 -2 2 25 23 2 -2 4 0.24682389D-02 0.42693510D+00 0.26133813D+05 0.26133813D+05 0.26133813D+05 0.12212378D+01  1  2  5  6  6  1       21 -.404287854063D-03 0.100000000000D+01
0.313093803128D-06 0.000000000000D+00 0.000000000000D+00 0.100325998430D-06 0.000000000000D+00  6 2 2 25 23 2 2 4 0.23027749D-02 0.42693510D+00 0.35433691D+05 0.35433691D+05 0.35433691D+05 0.12073832D+01  1  2 12  7  6  1       21 0.131906696695D-03 0.100000000000D+01
0.324039255525D-06 0.000000000000D+00 0.000000000000D+00 0.100325998430D-06 0.000000000000D+00  6 2 2 25 23 2 2 4 0.24661704D-02 0.42693510D+00 0.35433691D+05 0.35433691D+05 0.35433691D+05 0.12073832D+01  1  2 12  7  6  1       21 0.124289020880D-03 0.100000000000D+01
-.112073104035D-05 0.000000000000D+00 -.302548696521D-06 0.102641672703D-06 0.000000000000D+00  6 2 2 25 23 2 2 4 0.24682389D-02 0.42693510D+00 0.26133813D+05 0.26133813D+05 0.26133813D+05 0.12212378D+01  1  2  5  7  6  1       21 -.451898713171D-03 0.100000000000D+01
0.313093803128D-06 0.000000000000D+00 0.000000000000D+00 0.100325998430D-06 0.000000000000D+00  6 -4 2 25 23 2 -4 4 0.23027749D-02 0.42693510D+00 0.35433691D+05 0.35433691D+05 0.35433691D+05 0.12073832D+01  1  2 12  8  6  1       21 0.846902306668D-04 0.100000000000D+01
0.324039255525D-06 0.000000000000D+00 0.000000000000D+00 0.100325998430D-06 0.000000000000D+00  6 -4 2 25 23 2 -4 4 0.24661704D-02 0.42693510D+00 0.35433691D+05 0.35433691D+05 0.35433691D+05 0.12073832D+01  1  2 12  8  6  1       21 0.787546290003D-04 0.100000000000D+01
-.112073104035D-05 0.000000000000D+00 -.302548696521D-06 0.102641672703D-06 0.000000000000D+00  6 -4 2 25 23 2 -4 4 0.24682389D-02 0.42693510D+00 0.26133813D+05 0.26133813D+05 0.26133813D+05 0.12212378D+01  1  2  5  8  6  1       21 -.283704274849D-03 0.100000000000D+01
0.313093803128D-06 0.000000000000D+00 0.000000000000D+00 0.100325998430D-06 0.000000000000D+00  6 4 2 25 23 2 4 4 0.23027749D-02 0.42693510D+00 0.35433691D+05 0.35433691D+05 0.35433691D+05 0.12073832D+01  1  2 12  9  6  1       21 0.846902306668D-04 0.100000000000D+01
0.324039255525D-06 0.000000000000D+00 0.000000000000D+00 0.100325998430D-06 0.000000000000D+00  6 4 2 25 23 2 4 4 0.24661704D-02 0.42693510D+00 0.35433691D+05 0.35433691D+05 0.35433691D+05 0.12073832D+01  1  2 12  9  6  1       21 0.787546290003D-04 0.100000000000D+01
-.112073104035D-05 0.000000000000D+00 -.302548696521D-06 0.102641672703D-06 0.000000000000D+00  6 4 2 25 23 2 4 4 0.24682389D-02 0.42693510D+00 0.26133813D+05 0.26133813D+05 0.26133813D+05 0.12212378D+01  1  2  5  9  6  1       21 -.283704274849D-03 0.100000000000D+01
  </mgrwgt>
  </event>
  <event>
  5     66 0.38225901E-03 0.34521774E+02 0.75467711E-02 0.11529384E+00
       21 -1    0    0  501  502 0.00000000E+00 0.00000000E+00 0.89149249E+02 0.89152404E+02 0.75000000E+00 0.0000E+00 0.9000E+01
        2 -1    0    0  502    0 0.00000000E+00 0.00000000E+00 -.24131685E+04 0.24131686E+04 0.32000000E+00 0.0000E+00 0.9000E+01
       25  1    1    2    0    0 0.61969510E+02 -.54945781E+02 -.23465934E+03 0.27847668E+03 0.12500000E+03 0.0000E+00 0.9000E+01
       23  1    1    2    0    0 -.94731023E+02 0.65828588E+02 -.21494870E+04 0.21545109E+04 0.91188000E+02 0.0000E+00 0.9000E+01
        2  1    1    2  501    0 0.32761512E+02 -.10882807E+02 0.60127081E+02 0.69333401E+02 0.32000000E+00 0.0000E+00 0.9000E+01
#aMCatNLO 1  0  0  1  2 0.12283331D+03 0.00000000D+00  -5  6  0 0.00000000D+00 0.00000000D+00 0.00000000D+00 0.00000000D+00 0.00000000D+00
  <mgrwgt>
 0.7972387970D-01    4    2    0
 0.463827702368264D+03 0.000000000000000D+00 0.000000000000000D+00 0.463827702368264D+03
 0.463827702368264D+03 0.000000000000000D+00 0.000000000000000D+00 -.463827702368264D+03
 0.163299008656326D+03 0.619695076797163D+02 -.549457801884957D+02 0.646707629887715D+02
 0.426697750429475D+03 -.947310294027261D+02 0.658285899302662D+02 -.400560042557502D+03
 0.337658645650727D+03 0.327615217230098D+02 -.108828097417705D+02 0.335889279568730D+03
 0.000000000000000D+00 -.000000000000000D+00 -.000000000000000D+00 -.000000000000000D+00
 0.479518514456559D+03 0.000000000000000D+00 0.000000000000000D+00 0.479518514456559D+03
 0.507607123086679D+03 0.000000000000000D+00 0.000000000000000D+00 -.507607123086679D+03
 0.162109364792175D+03 0.654698751992717D+02 -.467529037511512D+02 0.646707629887715D+02
 0.428615641949407D+03 -.855305555919391D+02 0.873629987246825D+02 -.400560042557502D+03
 0.338322185702004D+03 0.400329429247251D+02 0.613650468642081D+01 0.335889279568730D+03
 0.580784450996525D+02 -.199722625320577D+02 -.467465996599521D+02 -.280886086301204D+02
0.177834899690D-03 0.000000000000D+00 0.000000000000D+00 0.787633974889D-06 0.000000000000D+00  6 21 2 25 23 2 21 2 0.13715513D-01 0.37125694D+00 0.27475652D+05 0.27475652D+05 0.27475652D+05 0.12189253D+01  1  2  2  1  6  1       21 0.725027544438D-01 0.100000000000D+01
0.479067875298D-04 0.938460548411D-05 -.358997425968D-06 0.787633974889D-06 0.000000000000D+00  6 21 2 25 23 2 21 4 0.13715513D-01 0.37125694D+00 0.27475652D+05 0.27475652D+05 0.27475652D+05 0.12189253D+01  1  2  3  1  6  1       21 0.290194233875D-01 0.100000000000D+01
0.203628192794D-04 0.000000000000D+00 0.000000000000D+00 0.787633974889D-06 0.000000000000D+00  6 21 2 25 23 2 21 4 0.13715513D-01 0.37125694D+00 0.27475652D+05 0.27475652D+05 0.27475652D+05 0.12189253D+01  1  2 15  1  6  1       21 0.123347296803D-01 0.100000000000D+01
-.563485941487D-04 0.000000000000D+00 0.000000000000D+00 0.787633974889D-06 0.000000000000D+00  6 21 2 25 23 2 21 4 0.13715513D-01 0.37125694D+00 0.27475652D+05 0.27475652D+05 0.27475652D+05 0.12189253D+01  1  2  4  1  6  1       21 -.341330278068D-01 0.100000000000D+01
  </mgrwgt>
  </event>
  <event>
  6     66 0.38225901E-03 0.16268613E+02 0.75467711E-02 0.12103023E+00
       21 -1    0    0  501  502 0.00000000E+00 0.00000000E+00 0.75170803E+01 0.75544024E+01 0.75000000E+00 0.0000E+00 0.9000E+01
        2 -1    0    0  503    0 0.00000000E+00 0.00000000E+00 -.35751378E+04 0.35751379E+04 0.32000000E+00 0.0000E+00 0.9000E+01
       25  1    1    2    0    0 -.37557384E+02 0.24799273E+02 -.98031052E+03 0.98927210E+03 0.12500000E+03 0.0000E+00 0.9000E+01
       23  1    1    2    0    0 0.32163903E+02 0.21865460E+02 -.12006264E+04 0.12047122E+04 0.91188000E+02 0.0000E+00 0.9000E+01
        2  1    1    2  501    0 -.92285437E+01 -.22359902E+02 -.17202283E+03 0.17371554E+03 0.32000000E+00 0.0000E+00 0.9000E+01
       21  1    1    2  503  502 0.14622024E+02 -.24304832E+02 -.12146611E+04 0.12149924E+04 0.75000000E+00 0.0000E+00 0.9000E+01
#aMCatNLO 2  0  0  2  1 0.28364211D+02 0.00000000D+00  -5  6  0 0.00000000D+00 0.00000000D+00 0.00000000D+00 0.00000000D+00 0.00000000D+00
  <mgrwgt>
 0.8054495241D-01    1    2    0
 0.131128408946837D+03 0.000000000000000D+00 0.000000000000000D+00 0.131128408946837D+03
 0.131128408946837D+03 0.000000000000000D+00 0.000000000000000D+00 -.131128408946837D+03
 0.131612659803134D+03 -.301402497070575D+02 0.124718392521805D+02 0.251577183726877D+02
 0.104136082005421D+03 0.379429621855275D+02 0.122605587208015D+02 -.306444538518999D+02
 0.265080760851195D+02 -.780271247846996D+01 -.247323979729820D+02 0.548673547921215D+01
 0.000000000000000D+00 0.000000000000000D+00 -.000000000000000D+00 -.000000000000000D+00
 0.134856137614010D+03 0.000000000000000D+00 0.000000000000000D+00 0.134856137614010D+03
 0.199773651650797D+03 0.000000000000000D+00 0.000000000000000D+00 -.199773651650797D+03
 0.135216476056815D+03 -.375570994407057D+02 0.248001791345258D+02 0.251577183726877D+02
 0.103764130860178D+03 0.321641156084919D+02 0.218661982157491D+02 -.306444538518999D+02
 0.248056076251684D+02 -.922904052968741D+01 -.223615454371194D+02 0.548673547921215D+01
 0.708435747226463D+02 0.146220243619012D+02 -.243048319131555D+02 -.649175140367867D+02
0.953662523232D-05 0.000000000000D+00 0.000000000000D+00 0.473812745843D-06 0.546015326700D-08  6 21 2 25 23 2 21 4 0.11593292D-02 0.55001614D+00 0.20241711D+05 0.20241711D+05 0.20241711D+05 0.12332521D+01  1  2  1  2  6  2        2 0.805449524117D-01 0.100000000000D+01
  </mgrwgt>
  </event>
  <event>
  5     66 -.38225901E-03 0.38568667E+02 0.75467711E-02 0.11602367E+00
       21 -1    0    0  501  502 0.00000000E+00 0.00000000E+00 0.14011806E+03 0.14012007E+03 0.75000000E+00 0.0000E+00 0.9000E+01
        2 -1    0    0  502    0 0.00000000E+00 0.00000000E+00 -.41900589E+03 0.41900601E+03 0.32000000E+00 0.0000E+00 0.9000E+01
       25  1    1    2    0    0 0.64838166E+02 0.62266708E+02 0.20421294E+02 0.15531632E+03 0.12500000E+03 0.0000E+00 0.9000E+01
       23  1    1    2    0    0 -.10093479E+03 -.10081391E+03 -.97870760E+02 0.19556383E+03 0.91188000E+02 0.0000E+00 0.9000E+01
        2  1    1    2  501    0 0.36096620E+02 0.38547198E+02 -.20143836E+03 0.20824593E+03 0.32000000E+00 0.0000E+00 0.9000E+01
#aMCatNLO 1  0  0  1  2 0.54512325D+01 0.00000000D+00  -5  6  0 0.00000000D+00 0.00000000D+00 0.00000000D+00 0.00000000D+00 0.00000000D+00
  <mgrwgt>
 -.8094155244D-01    1    2    0
 0.242303299943534D+03 0.000000000000000D+00 0.000000000000000D+00 0.242303299943534D+03
 0.242303299943534D+03 0.000000000000000D+00 0.000000000000000D+00 -.242303299943534D+03
 0.190952172862156D+03 0.648381186441970D+02 0.622666575090866D+02 0.112945181632975D+03
 0.169312385724240D+03 -.100934827628412D+03 -.100813950752161D+03 -.374861304038234D+00
 0.124342041300673D+03 0.360967089842155D+02 0.385472932430747D+02 -.112570320328937D+03
 0.000000000000000D+00 0.000000000000000D+00 -.000000000000000D+00 0.000000000000000D+00
 0.486745342098787D+03 0.000000000000000D+00 0.000000000000000D+00 0.486745342098787D+03
 0.260098450258710D+03 0.000000000000000D+00 0.000000000000000D+00 -.260098450258710D+03
 0.207349676880857D+03 0.593272949312787D+02 0.105321158959760D+03 0.112945181632975D+03
 0.154151872587067D+03 -.105410213585404D+03 -.658490305849799D+02 -.374861304038234D+00
 0.134753759099632D+03 0.325119119723895D+02 0.665542947706742D+02 -.112570320328937D+03
 0.250588483789942D+03 0.135710066817354D+02 -.106026423145454D+03 0.226646891840077D+03
-.200432047047D-04 0.000000000000D+00 0.000000000000D+00 0.380352934048D-07 0.000000000000D+00  6 21 2 25 23 2 21 4 0.21556789D-01 0.64462608D-01 0.35360847D+05 0.35360847D+05 0.35360847D+05 0.12074752D+01  1  2 14  1  6  1       21 -.809415524395D-01 0.100000000000D+01
  </mgrwgt>
  </event>
  <event>
  6     66 0.38225901E-03 0.25878056E+02 0.75467711E-02 0.11972447E+00
       21 -1    0    0  501  502 0.00000000E+00 0.00000000E+00 0.53349450E+02 0.53354722E+02 0.75000000E+00 0.0000E+00 0.9000E+01
        2 -1    0    0  502    0 -.00000000E+00 -.00000000E+00 -.49158199E+03 0.49158209E+03 0.32000000E+00 0.0000E+00 0.9000E+01
       25  1    1    2    0    0 0.45047042E+02 0.66569631E+02 -.17959749E+03 0.23311159E+03 0.12500000E+03 0.0000E+00 0.9000E+01
       23  1    1    2    0    0 -.70756206E+02 -.50782149E+02 -.24561377E+03 0.27609173E+03 0.91188000E+02 0.0000E+00 0.9000E+01
        2  1    1    2  503    0 0.24225580E+02 -.13090413E+02 -.15598949E+02 0.31649127E+02 0.32000000E+00 0.0000E+00 0.9000E+01
       21  1    1    2  501  503 0.14835831E+01 -.26970694E+01 0.25776732E+01 0.40843728E+01 0.75000000E+00 0.0000E+00 0.9000E+01
#aMCatNLO 2  0  0  5  1 0.59575294D+01 0.00000000D+00  -5  6  0 0.00000000D+00 0.00000000D+00 0.00000000D+00 0.00000000D+00 0.00000000D+00
  <mgrwgt>
 0.3246072108D+00    3    2    0
 0.161947810770052D+03 0.000000000000000D+00 0.000000000000000D+00 0.161947810770052D+03
 0.161947810770052D+03 -.000000000000000D+00 -.000000000000000D+00 -.161947810770052D+03
 0.149121028385715D+03 0.443402509358892D+02 0.670036577204705D+02 0.125113191084589D+02
 0.132577075502710D+03 -.713835033639330D+02 -.503969379276229D+02 -.403233641932556D+02
 0.421975176516796D+02 0.270432524280438D+02 -.166067197928476D+02 0.278120450847966D+02
 0.000000000000000D+00 0.000000000000000D+00 0.000000000000000D+00 0.000000000000000D+00
 0.161947810770052D+03 0.000000000000000D+00 0.000000000000000D+00 0.161947810770052D+03
 0.161947810770052D+03 -.000000000000000D+00 -.000000000000000D+00 -.161947810770052D+03
 0.149201908192927D+03 0.450528757682446D+02 0.665660490807613D+02 0.132442026260295D+02
 0.132189447485971D+03 -.707510370801735D+02 -.507853228077613D+02 -.396729179924764D+02
 0.319657673911818D+02 0.241684234558548D+02 -.130241529279600D+02 0.163728138410825D+02
 0.105384984700249D+02 0.152973785607414D+01 -.275657334503997D+01 0.100559015253644D+02
-.232422675443D-05 0.000000000000D+00 0.000000000000D+00 0.414989921484D-06 0.000000000000D+00  6 21 2 25 23 2 21 4 0.82080212D-02 0.75628411D-01 0.23304387D+05 0.23304387D+05 0.23304387D+05 0.12265814D+01  1  2 13  3  6  5        2 -.478210627865D-01 0.100000000000D+01
-.346237293134D-05 0.000000000000D+00 0.000000000000D+00 0.414717857313D-06 0.000000000000D+00  6 21 2 25 23 2 21 4 0.82080212D-02 0.75628411D-01 0.23504956D+05 0.23504956D+05 0.23504956D+05 0.12261793D+01  1  2  8  3  6  5        2 -.711513504631D-01 0.100000000000D+01
0.215591116103D-04 0.000000000000D+00 0.000000000000D+00 0.414717857313D-06 0.954559995289D-06  6 21 2 25 23 2 21 4 0.82080212D-02 0.75628411D-01 0.23304387D+05 0.23304387D+05 0.23304387D+05 0.12265814D+01  1  2  1  3  6  5        2 0.443579624050D+00 0.100000000000D+01
  </mgrwgt>
  </event>
  <event>
  5     66 -.38225901E-03 0.22021766E+02 0.75467711E-02 0.11662849E+00
       21 -1    0    0  501  502 0.00000000E+00 0.00000000E+00 0.11895373E+03 0.11895610E+03 0.75000000E+00 0.0000E+00 0.9000E+01
        2 -1    0    0  502    0 0.00000000E+00 0.00000000E+00 -.30193417E+03 0.30193434E+03 0.32000000E+00 0.0000E+00 0.9000E+01
       25  1    1    2    0    0 0.48597015E+02 -.55456332E+02 -.57029078E+02 0.15593072E+03 0.12500000E+03 0.0000E+00 0.9000E+01
       23  1    1    2    0    0 -.39714492E+02 0.75607086E+02 -.17277574E+03 0.21321440E+03 0.91188000E+02 0.0000E+00 0.9000E+01
        2  1    1    2  501    0 -.88825234E+01 -.20150754E+02 0.46824385E+02 0.51745314E+02 0.32000000E+00 0.0000E+00 0.9000E+01
#aMCatNLO 1  0  0  1  2 0.36686694D+02 0.00000000D+00  -5  6  0 0.00000000D+00 0.00000000D+00 0.00000000D+00 0.00000000D+00 0.00000000D+00
  <mgrwgt>
 -.5268841948D+00   12    2    0
 0.189517098131446D+03 0.000000000000000D+00 0.000000000000000D+00 0.189517098131446D+03
 0.189517098131446D+03 0.000000000000000D+00 0.000000000000000D+00 -.189517098131446D+03
 0.145618872243422D+03 0.485970427173326D+02 -.554562704088647D+02 0.119492872136667D+02
 0.153351299125689D+03 -.397144633971483D+02 0.756071508817553D+02 -.889251917746398D+02
 0.800640248937819D+02 -.888257932018434D+01 -.201508804728906D+02 0.769759045609731D+02
 0.000000000000000D+00 0.000000000000000D+00 -.000000000000000D+00 0.000000000000000D+00
 0.317296663779069D+04 0.000000000000000D+00 0.000000000000000D+00 0.317296663779069D+04
 0.192293767858799D+03 0.000000000000000D+00 0.000000000000000D+00 -.192293767858799D+03
 0.136540689401705D+03 0.281741088724909D+02 -.456266806443237D+02 0.119492872136667D+02
 0.166431709633604D+03 -.628606123155729D+02 0.867474282887917D+02 -.889251917746398D+02
 0.809850738964270D+02 -.205394413849920D+02 -.145404146647256D+02 0.769759045609731D+02
 0.298130293271776D+04 0.552259448280739D+02 -.265803329797424D+02 0.298067286993189D+04
0.390928353872D-06 0.000000000000D+00 0.000000000000D+00 0.144869214373D-05 0.000000000000D+00  6 21 2 25 23 2 21 2 0.18300769D-01 0.46451606D-01 0.21328448D+05 0.21328448D+05 0.21328448D+05 0.12307631D+01  1  2  2  1  6  1       21 0.217358846040D-02 0.100000000000D+01
0.711355998299D-07 0.206298560071D-07 -.789171715016D-09 0.144869214373D-05 0.000000000000D+00  6 21 2 25 23 2 21 4 0.18300769D-01 0.46451606D-01 0.21328448D+05 0.21328448D+05 0.21328448D+05 0.12307631D+01  1  2  3  1  6  1       21 0.599123100281D-03 0.100000000000D+01
0.321391192268D-07 0.000000000000D+00 0.000000000000D+00 0.144869214373D-05 0.000000000000D+00  6 21 2 25 23 2 21 4 0.18300769D-01 0.46451606D-01 0.21328448D+05 0.21328448D+05 0.21328448D+05 0.12307631D+01  1  2 15  1  6  1       21 0.270684281815D-03 0.100000000000D+01
-.168781831595D-01 0.000000000000D+00 -.311036870908D-04 0.144869214373D-05 0.000000000000D+00  6 21 2 25 23 2 21 4 0.30664210D+00 0.46451606D-01 0.21328448D+05 0.21328448D+05 0.21328448D+05 0.12307631D+01  1  2  5  1  6  1       21 -.174865477007D+00 0.100000000000D+01
-.747924698391D-02 0.000000000000D+00 -.137457103761D-04 0.144869214373D-05 0.000000000000D+00  6 -1 2 25 23 2 -1 4 0.30664210D+00 0.46451606D-01 0.21328448D+05 0.21328448D+05 0.21328448D+05 0.12307631D+01  1  2  5  4  6  1       21 -.809479129485D-02 0.100000000000D+01
-.747924698391D-02 0.000000000000D+00 -.137457103761D-04 0.144869214373D-05 0.000000000000D+00  6 -3 2 25 23 2 -3 4 0.30664210D+00 0.46451606D-01 0.21328448D+05 0.21328448D+05 0.21328448D+05 0.12307631D+01  1  2  5  4  6  1       21 -.481120668573D-02 0.100000000000D+01
-.747924698391D-02 0.000000000000D+00 -.137457103761D-04 0.144869214373D-05 0.000000000000D+00  6 1 2 25 23 2 1 4 0.30664210D+00 0.46451606D-01 0.21328448D+05 0.21328448D+05 0.21328448D+05 0.12307631D+01  1  2  5  5  6  1       21 -.930203789778D-01 0.100000000000D+01
-.747924698391D-02 0.000000000000D+00 -.137457103761D-04 0.144869214373D-05 0.000000000000D+00  6 3 2 25 23 2 3 4 0.30664210D+00 0.46451606D-01 0.21328448D+05 0.21328448D+05 0.21328448D+05 0.12307631D+01  1  2  5  5  6  1       21 -.489357578573D-02 0.100000000000D+01
-.747924698391D-02 0.000000000000D+00 -.137457103761D-04 0.144869214373D-05 0.000000000000D+00  6 -2 2 25 23 2 -2 4 0.30664210D+00 0.46451606D-01 0.21328448D+05 0.21328448D+05 0.21328448D+05 0.12307631D+01  1  2  5  6  6  1       21 -.672252457088D-02 0.100000000000D+01
-.747924698391D-02 0.000000000000D+00 -.137457103761D-04 0.144869214373D-05 0.000000000000D+00  6 2 2 25 23 2 2 4 0.30664210D+00 0.46451606D-01 0.21328448D+05 0.21328448D+05 0.21328448D+05 0.12307631D+01  1  2  5  7  6  1       21 -.230785854250D+00 0.100000000000D+01
-.747924698391D-02 0.000000000000D+00 -.137457103761D-04 0.144869214373D-05 0.000000000000D+00  6 -4 2 25 23 2 -4 4 0.30664210D+00 0.46451606D-01 0.21328448D+05 0.21328448D+05 0.21328448D+05 0.12307631D+01  1  2  5  8  6  1       21 -.336689102945D-02 0.100000000000D+01
-.747924698391D-02 0.000000000000D+00 -.137457103761D-04 0.144869214373D-05 0.000000000000D+00  6 4 2 25 23 2 4 4 0.30664210D+00 0.46451606D-01 0.21328448D+05 0.21328448D+05 0.21328448D+05 0.12307631D+01  1  2  5  9  6  1       21 -.336689102945D-02 0.100000000000D+01
  </mgrwgt>
  </event>
  <event>
  5     66 0.38225901E-03 0.20098456E+02 0.75467711E-02 0.12330700E+00
       21 -1    0    0  501  502 0.00000000E+00 0.00000000E+00 0.10440459E+03 0.10440728E+03 0.75000000E+00 0.0000E+00 0.9000E+01
        4 -1    0    0  502    0 0.00000000E+00 0.00000000E+00 -.15970040E+03 0.15970792E+03 0.15500000E+01 0.0000E+00 0.9000E+01
       25  1    1    2    0    0 -.13877324E+02 0.66000951E+01 -.35510837E+02 0.13085168E+03 0.12500000E+03 0.0000E+00 0.9000E+01
       23  1    1    2    0    0 -.13563179E+00 -.20985549E+02 -.42614522E+02 0.10281858E+03 0.91188000E+02 0.0000E+00 0.9000E+01
        4  1    1    2  501    0 0.14012956E+02 0.14385454E+02 0.22829543E+02 0.30444946E+02 0.15500000E+01 0.0000E+00 0.9000E+01
#aMCatNLO 1  0  0  1  2 0.13382897D+02 0.00000000D+00  -5  6  0 0.00000000D+00 0.00000000D+00 0.00000000D+00 0.00000000D+00 0.00000000D+00
  <mgrwgt>
 0.6170997601D-01   23    2    0
 0.129130953438255D+03 0.000000000000000D+00 0.000000000000000D+00 0.129130953438255D+03
 0.129130953438255D+03 0.000000000000000D+00 0.000000000000000D+00 -.129130953438255D+03
 0.126215432240649D+03 -.138836724368797D+02 0.659357760803514D+01 -.831286410848864D+01
 0.960281933180963D+02 -.140462016264829D+00 -.209905077148833D+02 -.215764089744121D+02
 0.360182813177636D+02 0.140241344531445D+02 0.143969301068481D+02 0.298892730829008D+02
 0.000000000000000D+00 0.000000000000000D+00 0.000000000000000D+00 0.000000000000000D+00
 0.171105958387458D+03 0.000000000000000D+00 0.000000000000000D+00 0.171105958387458D+03
 0.130375348516568D+03 0.000000000000000D+00 0.000000000000000D+00 -.130375348516568D+03
 0.126895413375443D+03 -.198367405803553D+02 0.385304414533834D+01 -.831286410848864D+01
 0.966184972151891D+02 -.467143686867865D+01 -.230763713237665D+02 -.215764089744121D+02
 0.350945085795079D+02 0.123515894339823D+02 0.136269631784661D+02 0.298892730829008D+02
 0.428728877338865D+02 0.121565880150516D+02 0.559636399996205D+01 0.407306098708903D+02
0.107019748665D-05 0.000000000000D+00 0.000000000000D+00 0.162499290393D-05 0.000000000000D+00  6 21 4 25 23 4 21 2 0.16063030D-01 0.24570078D-01 0.14353556D+05 0.14353556D+05 0.14353556D+05 0.12500095D+01  1  2  2  1  6  1       21 0.360278627654D-02 0.100000000000D+01
0.105745085491D-06 0.564758729573D-07 -.216042038797D-08 0.162499290393D-05 0.000000000000D+00  6 21 4 25 23 4 21 4 0.16063030D-01 0.24570078D-01 0.14353556D+05 0.14353556D+05 0.14353556D+05 0.12500095D+01  1  2  3  1  6  1       21 0.556238933999D-03 0.100000000000D+01
0.113999234000D-06 0.000000000000D+00 0.000000000000D+00 0.162499290393D-05 0.000000000000D+00  6 21 4 25 23 4 21 4 0.16063030D-01 0.24570078D-01 0.14353556D+05 0.14353556D+05 0.14353556D+05 0.12500095D+01  1  2 15  1  6  1       21 0.599657299463D-03 0.100000000000D+01
0.115616918806D-04 0.000000000000D+00 0.000000000000D+00 0.161147078876D-05 0.000000000000D+00  6 21 4 25 23 4 21 4 0.21343835D-01 0.24570078D-01 0.15948656D+05 0.15948656D+05 0.15948656D+05 0.12447977D+01  1  2 12  1  6  1       21 0.357039645323D-01 0.100000000000D+01
-.330992169536D-05 0.000000000000D+00 0.000000000000D+00 0.162499290393D-05 0.000000000000D+00  6 21 4 25 23 4 21 4 0.16063030D-01 0.24570078D-01 0.14353556D+05 0.14353556D+05 0.14353556D+05 0.12500095D+01  1  2  4  1  6  1       21 -.174108073856D-01 0.100000000000D+01
-.246615145137D-04 0.000000000000D+00 -.150586467150D-05 0.162499290393D-05 0.000000000000D+00  6 21 4 25 23 4 21 4 0.21419472D-01 0.24570078D-01 0.14353556D+05 0.14353556D+05 0.14353556D+05 0.12500095D+01  1  2  5  1  6  1       21 -.765581552990D-01 0.100000000000D+01
0.221912836094D-04 0.000000000000D+00 0.128296817564D-05 0.162499290393D-05 0.000000000000D+00  6 21 4 25 23 4 21 4 0.16063030D-01 0.24570078D-01 0.14353556D+05 0.14353556D+05 0.14353556D+05 0.12500095D+01  1  2  6  1  6  1       21 0.116730303651D+00 0.100000000000D+01
0.981289188383D-06 0.000000000000D+00 0.000000000000D+00 0.161147078876D-05 0.000000000000D+00  6 -1 4 25 23 4 -1 4 0.21343835D-01 0.24570078D-01 0.15948656D+05 0.15948656D+05 0.15948656D+05 0.12447977D+01  1  2 12  4  6  1       21 0.239781737311D-03 0.100000000000D+01
0.981289188383D-06 0.000000000000D+00 0.000000000000D+00 0.161147078876D-05 0.000000000000D+00  6 -3 4 25 23 4 -3 4 0.21343835D-01 0.24570078D-01 0.15948656D+05 0.15948656D+05 0.15948656D+05 0.12447977D+01  1  2 12  4  6  1       21 0.140855330497D-03 0.100000000000D+01
-.179684654936D-05 0.000000000000D+00 -.134703111067D-06 0.162499290393D-05 0.000000000000D+00  6 -1 4 25 23 4 -1 4 0.21419472D-01 0.24570078D-01 0.14353556D+05 0.14353556D+05 0.14353556D+05 0.12500095D+01  1  2  5  4  6  1       21 -.440902789051D-03 0.100000000000D+01
-.179684654936D-05 0.000000000000D+00 -.134703111067D-06 0.162499290393D-05 0.000000000000D+00  6 -3 4 25 23 4 -3 4 0.21419472D-01 0.24570078D-01 0.14353556D+05 0.14353556D+05 0.14353556D+05 0.12500095D+01  1  2  5  4  6  1       21 -.258164186186D-03 0.100000000000D+01
0.981289188383D-06 0.000000000000D+00 0.000000000000D+00 0.161147078876D-05 0.000000000000D+00  6 1 4 25 23 4 1 4 0.21343835D-01 0.24570078D-01 0.15948656D+05 0.15948656D+05 0.15948656D+05 0.12447977D+01  1  2 12  5  6  1       21 0.368826693137D-03 0.100000000000D+01
0.981289188383D-06 0.000000000000D+00 0.000000000000D+00 0.161147078876D-05 0.000000000000D+00  6 3 4 25 23 4 3 4 0.21343835D-01 0.24570078D-01 0.15948656D+05 0.15948656D+05 0.15948656D+05 0.12447977D+01  1  2 12  5  6  1       21 0.140843181898D-03 0.100000000000D+01
-.179684654936D-05 0.000000000000D+00 -.134703111067D-06 0.162499290393D-05 0.000000000000D+00  6 1 4 25 23 4 1 4 0.21419472D-01 0.24570078D-01 0.14353556D+05 0.14353556D+05 0.14353556D+05 0.12500095D+01  1  2  5  5  6  1       21 -.679078776473D-03 0.100000000000D+01
-.179684654936D-05 0.000000000000D+00 -.134703111067D-06 0.162499290393D-05 0.000000000000D+00  6 3 4 25 23 4 3 4 0.21419472D-01 0.24570078D-01 0.14353556D+05 0.14353556D+05 0.14353556D+05 0.12500095D+01  1  2  5  5  6  1       21 -.258141591662D-03 0.100000000000D+01
0.981289188383D-06 0.000000000000D+00 0.000000000000D+00 0.161147078876D-05 0.000000000000D+00  6 -4 4 25 23 4 -4 4 0.21343835D-01 0.24570078D-01 0.15948656D+05 0.15948656D+05 0.15948656D+05 0.12447977D+01  1  2 12  6  6  1       21 0.119463091112D-03 0.100000000000D+01
-.179684654936D-05 0.000000000000D+00 -.134703111067D-06 0.162499290393D-05 0.000000000000D+00  6 -4 4 25 23 4 -4 4 0.21419472D-01 0.24570078D-01 0.14353556D+05 0.14353556D+05 0.14353556D+05 0.12500095D+01  1  2  5  6  6  1       21 -.218654178648D-03 0.100000000000D+01
0.981289188383D-06 0.000000000000D+00 0.000000000000D+00 0.161147078876D-05 0.000000000000D+00  6 4 4 25 23 4 4 4 0.21343835D-01 0.24570078D-01 0.15948656D+05 0.15948656D+05 0.15948656D+05 0.12447977D+01  1  2 12  7  6  1       21 0.119463091112D-03 0.100000000000D+01
-.179684654936D-05 0.000000000000D+00 -.134703111067D-06 0.162499290393D-05 0.000000000000D+00  6 4 4 25 23 4 4 4 0.21419472D-01 0.24570078D-01 0.14353556D+05 0.14353556D+05 0.14353556D+05 0.12500095D+01  1  2  5  7  6  1       21 -.218654178648D-03 0.100000000000D+01
0.981289188383D-06 0.000000000000D+00 0.000000000000D+00 0.161147078876D-05 0.000000000000D+00  6 -2 4 25 23 4 -2 4 0.21343835D-01 0.24570078D-01 0.15948656D+05 0.15948656D+05 0.15948656D+05 0.12447977D+01  1  2 12  8  6  1       21 0.217967513027D-03 0.100000000000D+01
-.179684654936D-05 0.000000000000D+00 -.134703111067D-06 0.162499290393D-05 0.000000000000D+00  6 -2 4 25 23 4 -2 4 0.21419472D-01 0.24570078D-01 0.14353556D+05 0.14353556D+05 0.14353556D+05 0.12500095D+01  1  2  5  8  6  1       21 -.400611933420D-03 0.100000000000D+01
0.981289188383D-06 0.000000000000D+00 0.000000000000D+00 0.161147078876D-05 0.000000000000D+00  6 2 4 25 23 4 2 4 0.21343835D-01 0.24570078D-01 0.15948656D+05 0.15948656D+05 0.15948656D+05 0.12447977D+01  1  2 12  9  6  1       21 0.459706182209D-03 0.100000000000D+01
-.179684654936D-05 0.000000000000D+00 -.134703111067D-06 0.162499290393D-05 0.000000000000D+00  6 2 4 25 23 4 2 4 0.21419472D-01 0.24570078D-01 0.14353556D+05 0.14353556D+05 0.14353556D+05 0.12500095D+01  1  2  5  9  6  1       21 -.846711183075D-03 0.100000000000D+01
  </mgrwgt>
  </event>
  <event>
  5     66 0.38225901E-03 0.24985742E+02 0.75467711E-02 0.12139674E+00
       21 -1    0    0  501  502 0.00000000E+00 0.00000000E+00 0.33842098E+02 0.33850407E+02 0.75000000E+00 0.0000E+00 0.9000E+01
        2 -1    0    0  502    0 -.00000000E+00 -.00000000E+00 -.91985292E+03 0.91985297E+03 0.32000000E+00 0.0000E+00 0.9000E+01
       25  1    1    2    0    0 0.51850844E+02 -.21637831E+02 -.54697366E+03 0.56388109E+03 0.12500000E+03 0.0000E+00 0.9000E+01
       23  1    1    2    0    0 -.59640164E+02 0.45378234E+02 -.34457378E+03 0.36422860E+03 0.91188000E+02 0.0000E+00 0.9000E+01
        2  1    1    2  501    0 0.77893195E+01 -.23740403E+02 0.55366173E+01 0.25593686E+02 0.32000000E+00 0.0000E+00 0.9000E+01
#aMCatNLO 1  0  0  5  2 0.14844473D+01 0.00000000D+00  -5  6  0 0.00000000D+00 0.00000000D+00 0.00000000D+00 0.00000000D+00 0.00000000D+00
  <mgrwgt>
 0.1249429733D+00    5    2    0
 0.176447559871467D+03 0.000000000000000D+00 0.000000000000000D+00 0.176447559871467D+03
 0.176447559871467D+03 -.000000000000000D+00 -.000000000000000D+00 -.176447559871467D+03
 0.150613464287034D+03 0.518508194344443D+02 -.216377558316794D+02 -.624717189701619D+02
 0.119213813304157D+03 -.596401831746888D+02 0.453782930670035D+02 -.167493584275053D+02
 0.830678421517426D+02 0.778936374024446D+01 -.237405372353241D+02 0.792210773976672D+02
 0.000000000000000D+00 -.000000000000000D+00 0.000000000000000D+00 0.000000000000000D+00
 0.176447559871467D+03 0.000000000000000D+00 0.000000000000000D+00 0.176447559871467D+03
 0.176447559871467D+03 -.000000000000000D+00 -.000000000000000D+00 -.176447559871467D+03
 0.149435863929382D+03 0.522060285986339D+02 -.227203675404127D+02 -.588590936483739D+02
 0.118379685518920D+03 -.593589114630156D+02 0.445210290122103D+02 -.138887078296764D+02
 0.451823387145449D+01 0.843652545382075D+00 0.485246726870876D+00 -.441216764344822D+01
 0.805613364231767D+02 0.630923031899958D+01 -.222859081986685D+02 0.771599691214984D+02
0.501559585932D-05 0.000000000000D+00 0.000000000000D+00 0.166307969406D-05 0.000000000000D+00  6 21 2 25 23 2 21 2 0.52071201D-02 0.14151648D+00 0.19608877D+05 0.19608877D+05 0.19608877D+05 0.12347714D+01  1  2  2  3  6  5        2 0.717978534226D-01 0.100000000000D+01
0.798488366441D-06 0.264680265176D-06 -.101250429828D-07 0.166307969406D-05 0.000000000000D+00  6 21 2 25 23 2 21 4 0.52071201D-02 0.14151648D+00 0.19608877D+05 0.19608877D+05 0.19608877D+05 0.12347714D+01  1  2  3  3  6  5        2 0.174273227251D-01 0.100000000000D+01
0.409875644370D-06 0.000000000000D+00 0.000000000000D+00 0.166307969406D-05 0.000000000000D+00  6 21 2 25 23 2 21 4 0.52071201D-02 0.14151648D+00 0.19608877D+05 0.19608877D+05 0.19608877D+05 0.12347714D+01  1  2 15  3  6  5        2 0.894569718458D-02 0.100000000000D+01
-.492485598718D-06 0.000000000000D+00 0.000000000000D+00 0.166307969406D-05 0.000000000000D+00  6 21 2 25 23 2 21 4 0.52071201D-02 0.14151648D+00 0.19608877D+05 0.19608877D+05 0.19608877D+05 0.12347714D+01  1  2  4  3  6  5        2 -.107486919372D-01 0.100000000000D+01
0.171726392594D-05 0.000000000000D+00 0.000000000000D+00 0.166307969406D-05 0.470654999876D-07  6 21 2 25 23 2 21 4 0.52071201D-02 0.14151648D+00 0.19467673D+05 0.19467673D+05 0.19467673D+05 0.12351180D+01  1  2 11  3  6  5        2 0.375207918829D-01 0.100000000000D+01
  </mgrwgt>
  </event>
  <event>
  5     66 0.38225901E-03 0.56556346E+02 0.75467711E-02 0.10671861E+00
       21 -1    0    0  501  502 0.00000000E+00 0.00000000E+00 0.11339248E+03 0.11339496E+03 0.75000000E+00 0.0000E+00 0.9000E+01
        2 -1    0    0  502    0 0.00000000E+00 0.00000000E+00 -.65746481E+03 0.65746488E+03 0.32000000E+00 0.0000E+00 0.9000E+01
       25  1    1    2    0    0 0.49732037E+02 0.36804882E+02 -.50362041E+03 0.52257669E+03 0.12500000E+03 0.0000E+00 0.9000E+01
       23  1    1    2    0    0 -.97026792E+02 -.67818046E+02 -.88847303E+02 0.17384643E+03 0.91188000E+02 0.0000E+00 0.9000E+01
        2  1    1    2  501    0 0.47294755E+02 0.31013164E+02 0.48395394E+02 0.74436731E+02 0.32000000E+00 0.0000E+00 0.9000E+01
#aMCatNLO 1  0  0  1  2 0.43454768D+03 0.00000000D+00  -5  6  0 0.00000000D+00 0.00000000D+00 0.00000000D+00 0.00000000D+00 0.00000000D+00
  <mgrwgt>
 0.8795834642D-01   12    2    0
 0.273043133873475D+03 0.000000000000000D+00 0.000000000000000D+00 0.273043133873475D+03
 0.273043133873475D+03 0.000000000000000D+00 0.000000000000000D+00 -.273043133873475D+03
 0.235910546530353D+03 0.497319923577723D+02 0.368048528370720D+02 -.190265387572248D+03
 0.156883402867344D+03 -.970268219337967D+02 -.678180658837313D+02 0.477876188615266D+02
 0.153292318349252D+03 0.472948295760245D+02 0.310132130466593D+02 0.142477768710721D+03
 0.000000000000000D+00 0.000000000000000D+00 -.000000000000000D+00 0.000000000000000D+00
 0.442895041963408D+03 0.000000000000000D+00 0.000000000000000D+00 0.442895041963408D+03
 0.401725060469388D+03 0.000000000000000D+00 0.000000000000000D+00 -.401725060469388D+03
 0.265037001986882D+03 0.931296395880653D+01 0.135395581229517D+03 -.190265387572248D+03
 0.160191963001698D+03 -.122610095583118D+03 -.541494330361483D+01 0.477876188615266D+02
 0.172612809656794D+03 0.209991252388432D+02 0.951541077412337D+02 0.142477768710721D+03
 0.246778327787421D+03 0.922980063854686D+02 -.225134745667136D+03 0.411699814940198D+02
0.338720256967D-04 0.000000000000D+00 0.000000000000D+00 0.271990333430D-06 0.000000000000D+00  6 21 2 25 23 2 21 2 0.17445194D-01 0.10114863D+00 0.29835298D+05 0.29835298D+05 0.29835298D+05 0.12151494D+01  1  2  2  1  6  1       21 0.851297060766D-01 0.100000000000D+01
0.180246108859D-05 0.178747590414D-05 -.683778609184D-07 0.271990333430D-06 0.000000000000D+00  6 21 2 25 23 2 21 4 0.17445194D-01 0.10114863D+00 0.29835298D+05 0.29835298D+05 0.29835298D+05 0.12151494D+01  1  2  3  1  6  1       21 0.668906200655D-02 0.100000000000D+01
0.312867202728D-05 0.000000000000D+00 0.000000000000D+00 0.271990333430D-06 0.000000000000D+00  6 21 2 25 23 2 21 4 0.17445194D-01 0.10114863D+00 0.29835298D+05 0.29835298D+05 0.29835298D+05 0.12151494D+01  1  2 15  1  6  1       21 0.116107256468D-01 0.100000000000D+01
-.161130102684D-04 0.000000000000D+00 -.558403701386D-04 0.271990333430D-06 0.000000000000D+00  6 21 2 25 23 2 21 4 0.41095835D-01 0.10114863D+00 0.29835298D+05 0.29835298D+05 0.29835298D+05 0.12151494D+01  1  2  5  1  6  1       21 -.115156100704D-01 0.100000000000D+01
-.675160446328D-05 0.000000000000D+00 -.166465818894D-04 0.271990333430D-06 0.000000000000D+00  6 -1 2 25 23 2 -1 4 0.41095835D-01 0.10114863D+00 0.29835298D+05 0.29835298D+05 0.29835298D+05 0.12151494D+01  1  2  5  4  6  1       21 -.455814602105D-03 0.100000000000D+01
-.675160446328D-05 0.000000000000D+00 -.166465818894D-04 0.271990333430D-06 0.000000000000D+00  6 -3 2 25 23 2 -3 4 0.41095835D-01 0.10114863D+00 0.29835298D+05 0.29835298D+05 0.29835298D+05 0.12151494D+01  1  2  5  4  6  1       21 -.243488717109D-03 0.100000000000D+01
-.675160446328D-05 0.000000000000D+00 -.166465818894D-04 0.271990333430D-06 0.000000000000D+00  6 1 2 25 23 2 1 4 0.41095835D-01 0.10114863D+00 0.29835298D+05 0.29835298D+05 0.29835298D+05 0.12151494D+01  1  2  5  5  6  1       21 -.931834275755D-03 0.100000000000D+01
-.675160446328D-05 0.000000000000D+00 -.166465818894D-04 0.271990333430D-06 0.000000000000D+00  6 3 2 25 23 2 3 4 0.41095835D-01 0.10114863D+00 0.29835298D+05 0.29835298D+05 0.29835298D+05 0.12151494D+01  1  2  5  5  6  1       21 -.243543006199D-03 0.100000000000D+01
-.675160446328D-05 0.000000000000D+00 -.166465818894D-04 0.271990333430D-06 0.000000000000D+00  6 -2 2 25 23 2 -2 4 0.41095835D-01 0.10114863D+00 0.29835298D+05 0.29835298D+05 0.29835298D+05 0.12151494D+01  1  2  5  6  6  1       21 -.384278370459D-03 0.100000000000D+01
-.675160446328D-05 0.000000000000D+00 -.166465818894D-04 0.271990333430D-06 0.000000000000D+00  6 2 2 25 23 2 2 4 0.41095835D-01 0.10114863D+00 0.29835298D+05 0.29835298D+05 0.29835298D+05 0.12151494D+01  1  2  5  7  6  1       21 -.129152430023D-02 0.100000000000D+01
-.675160446328D-05 0.000000000000D+00 -.166465818894D-04 0.271990333430D-06 0.000000000000D+00  6 -4 2 25 23 2 -4 4 0.41095835D-01 0.10114863D+00 0.29835298D+05 0.29835298D+05 0.29835298D+05 0.12151494D+01  1  2  5  8  6  1       21 -.202526986298D-03 0.100000000000D+01
-.675160446328D-05 0.000000000000D+00 -.166465818894D-04 0.271990333430D-06 0.000000000000D+00  6 4 2 25 23 2 4 4 0.41095835D-01 0.10114863D+00 0.29835298D+05 0.29835298D+05 0.29835298D+05 0.12151494D+01  1  2  5  9  6  1       21 -.202526986298D-03 0.100000000000D+01
  </mgrwgt>
  </event>
  <event>
  6     66 0.38225901E-03 0.29630218E+02 0.75467711E-02 0.11788567E+00
       21 -1    0    0  501  503 0.00000000E+00 0.00000000E+00 0.28895861E+03 0.28895959E+03 0.75000000E+00 0.0000E+00 0.9000E+01
        2 -1    0    0  502    0 0.00000000E+00 0.00000000E+00 -.48477675E+03 0.48477685E+03 0.32000000E+00 0.0000E+00 0.9000E+01
       25  1    1    2    0    0 -.89811644E+02 0.12922836E+02 -.16106854E+03 0.22316184E+03 0.12500000E+03 0.0000E+00 0.9000E+01
       23  1    1    2    0    0 0.91260242E+02 -.38596294E+02 -.27128607E+03 0.30286877E+03 0.91188000E+02 0.0000E+00 0.9000E+01
        2  1    1    2  501    0 0.95030506E+01 -.86944045E+01 0.57374653E+01 0.14103955E+02 0.32000000E+00 0.0000E+00 0.9000E+01
       21  1    1    2  502  503 -.10951648E+02 0.34367862E+02 0.23079902E+03 0.23360188E+03 0.75000000E+00 0.0000E+00 0.9000E+01
#aMCatNLO 2  0  0  1  2 0.20324914D+01 0.00000000D+00  -5  6  0 0.00000000D+00 0.00000000D+00 0.00000000D+00 0.00000000D+00 0.00000000D+00
  <mgrwgt>
 0.1988322695D+00    1    2    0
 0.164652713154034D+03 0.000000000000000D+00 0.000000000000000D+00 0.164652713154034D+03
 0.164652713154034D+03 0.000000000000000D+00 0.000000000000000D+00 -.164652713154034D+03
 0.161705665085345D+03 -.950862811302505D+02 0.294747945504166D+02 0.247700978545386D+02
 0.138256784889984D+03 0.865729887456585D+02 -.238875396647569D+02 -.522894854872755D+02
 0.293429763327395D+02 0.851329238459204D+01 -.558725488565970D+01 0.275193876327369D+02
 0.000000000000000D+00 -.000000000000000D+00 0.000000000000000D+00 0.000000000000000D+00
 0.843261259283147D+03 0.000000000000000D+00 0.000000000000000D+00 0.843261259283147D+03
 0.166117538989106D+03 0.000000000000000D+00 0.000000000000000D+00 -.166117538989106D+03
 0.156434450868203D+03 -.898118916458747D+02 0.129229946104836D+02 0.247700978545386D+02
 0.144455872259212D+03 0.912600325706673D+02 -.385961636545199D+02 -.522894854872755D+02
 0.303847172283663D+02 0.950350739693181D+01 -.869469335419095D+01 0.275193876327369D+02
 0.678103757916471D+03 -.109516483217244D+02 0.343678623982272D+02 0.677143720294040D+03
0.229132808383D-03 0.000000000000D+00 0.000000000000D+00 0.267103953015D-05 0.296062664132D-06  6 21 2 25 23 2 21 4 0.44455199D-01 0.74581028D-01 0.28573218D+05 0.28573218D+05 0.28573218D+05 0.12171257D+01  1  2  1  1  6  1       21 0.198832269497D+00 0.100000000000D+01
  </mgrwgt>
  </event>
  <event>
  5     66 0.38225901E-03 0.38147429E+02 0.75467711E-02 0.90766560E-01
       21 -1    0    0  501  502 0.00000000E+00 0.00000000E+00 0.34736458E+03 0.34736539E+03 0.75000000E+00 0.0000E+00 0.9000E+01
        2 -1    0    0  502    0 0.00000000E+00 0.00000000E+00 -.42001558E+03 0.42001571E+03 0.32000000E+00 0.0000E+00 0.9000E+01
       25  1    1    2    0    0 0.68250714E+02 -.25981090E+03 -.26128047E+03 0.39503462E+03 0.12500000E+03 0.0000E+00 0.9000E+01
       23  1    1    2    0    0 -.32786376E+02 0.24575772E+03 0.11237225E+03 0.28707939E+03 0.91188000E+02 0.0000E+00 0.9000E+01
        2  1    1    2  501    0 -.35464338E+02 0.14053181E+02 0.76257211E+02 0.85267085E+02 0.32000000E+00 0.0000E+00 0.9000E+01
#aMCatNLO 1  0  0  1  2 0.12122297D+01 0.00000000D+00  -5  6  0 0.00000000D+00 0.00000000D+00 0.00000000D+00 0.00000000D+00 0.00000000D+00
  <mgrwgt>
 0.1279345309D+00   12    2    0
 0.381967138112858D+03 0.000000000000000D+00 0.000000000000000D+00 0.381967138112858D+03
 0.381967138112858D+03 0.000000000000000D+00 0.000000000000000D+00 -.381967138112858D+03
 0.371969116375735D+03 0.682508165222170D+02 -.259810943232923D+03 -.224891359011000D+03
 0.299061276766699D+03 -.327862934965113D+02 0.245757689148672D+03 0.140180644528387D+03
 0.929038830832823D+02 -.354645230257057D+02 0.140532540842517D+02 0.847107144826133D+02
 0.000000000000000D+00 -.000000000000000D+00 0.000000000000000D+00 0.000000000000000D+00
 0.226391475034244D+04 0.000000000000000D+00 0.000000000000000D+00 0.226391475034244D+04
 0.923420205979520D+03 0.000000000000000D+00 0.000000000000000D+00 -.923420205979520D+03
 0.952488530642279D+03 0.715680257599890D+03 -.573441406360779D+03 -.224891359011000D+03
 0.338803034544425D+03 0.279018418028507D+03 0.947119536963866D+02 0.140180644528387D+03
 0.112039776091696D+03 0.647172827200727D+02 -.344772330074897D+02 0.847107144826133D+02
 0.178400361504355D+04 -.105941595834847D+04 0.513206685671882D+03 0.134049454436292D+04
0.191996939297D-03 0.000000000000D+00 0.000000000000D+00 0.134916552391D-06 0.000000000000D+00  6 21 2 25 23 2 21 2 0.53440776D-01 0.64617854D-01 0.89581972D+05 0.89581972D+05 0.89581972D+05 0.11679865D+01  1  2  2  1  6  1       21 0.792178883706D-01 0.100000000000D+01
0.261097874403D-04 0.101319568465D-04 -.387586503671D-06 0.134916552391D-06 0.000000000000D+00  6 21 2 25 23 2 21 4 0.53440776D-01 0.64617854D-01 0.89581972D+05 0.89581972D+05 0.89581972D+05 0.11679865D+01  1  2  3  1  6  1       21 0.146962966366D-01 0.100000000000D+01
0.198175268577D-04 0.000000000000D+00 0.000000000000D+00 0.134916552391D-06 0.000000000000D+00  6 21 2 25 23 2 21 4 0.53440776D-01 0.64617854D-01 0.89581972D+05 0.89581972D+05 0.89581972D+05 0.11679865D+01  1  2 15  1  6  1       21 0.111546007017D-01 0.100000000000D+01
0.821142419232D-02 0.000000000000D+00 -.400465456679D-02 0.134916552391D-06 0.000000000000D+00  6 21 2 25 23 2 21 4 0.47561593D+00 0.64617854D-01 0.89581972D+05 0.89581972D+05 0.89581972D+05 0.11679865D+01  1  2  5  1  6  1       21 0.345058475414D-02 0.100000000000D+01
0.361741461975D-02 0.000000000000D+00 -.174258141367D-02 0.134916552391D-06 0.000000000000D+00  6 -1 2 25 23 2 -1 4 0.47561593D+00 0.64617854D-01 0.89581972D+05 0.89581972D+05 0.89581972D+05 0.11679865D+01  1  2  5  4  6  1       21 0.154869291283D-03 0.100000000000D+01
0.361741461975D-02 0.000000000000D+00 -.174258141367D-02 0.134916552391D-06 0.000000000000D+00  6 -3 2 25 23 2 -3 4 0.47561593D+00 0.64617854D-01 0.89581972D+05 0.89581972D+05 0.89581972D+05 0.11679865D+01  1  2  5  4  6  1       21 0.155525204777D-03 0.100000000000D+01
0.361741461975D-02 0.000000000000D+00 -.174258141367D-02 0.134916552391D-06 0.000000000000D+00  6 1 2 25 23 2 1 4 0.47561593D+00 0.64617854D-01 0.89581972D+05 0.89581972D+05 0.89581972D+05 0.11679865D+01  1  2  5  5  6  1       21 0.428580798679D-02 0.100000000000D+01
0.361741461975D-02 0.000000000000D+00 -.174258141367D-02 0.134916552391D-06 0.000000000000D+00  6 3 2 25 23 2 3 4 0.47561593D+00 0.64617854D-01 0.89581972D+05 0.89581972D+05 0.89581972D+05 0.11679865D+01  1  2  5  5  6  1       21 0.170539775615D-03 0.100000000000D+01
0.361741461975D-02 0.000000000000D+00 -.174258141367D-02 0.134916552391D-06 0.000000000000D+00  6 -2 2 25 23 2 -2 4 0.47561593D+00 0.64617854D-01 0.89581972D+05 0.89581972D+05 0.89581972D+05 0.11679865D+01  1  2  5  6  6  1       21 0.146536460642D-03 0.100000000000D+01
0.361741461975D-02 0.000000000000D+00 -.174258141367D-02 0.134916552391D-06 0.000000000000D+00  6 2 2 25 23 2 2 4 0.47561593D+00 0.64617854D-01 0.89581972D+05 0.89581972D+05 0.89581972D+05 0.11679865D+01  1  2  5  7  6  1       21 0.143727619535D-01 0.100000000000D+01
0.361741461975D-02 0.000000000000D+00 -.174258141367D-02 0.134916552391D-06 0.000000000000D+00  6 -4 2 25 23 2 -4 4 0.47561593D+00 0.64617854D-01 0.89581972D+05 0.89581972D+05 0.89581972D+05 0.11679865D+01  1  2  5  8  6  1       21 0.645598799587D-04 0.100000000000D+01
0.361741461975D-02 0.000000000000D+00 -.174258141367D-02 0.134916552391D-06 0.000000000000D+00  6 4 2 25 23 2 4 4 0.47561593D+00 0.64617854D-01 0.89581972D+05 0.89581972D+05 0.89581972D+05 0.11679865D+01  1  2  5  9  6  1       21 0.645598799587D-04 0.100000000000D+01
  </mgrwgt>
  </event>
  <event>
  5     66 0.38225901E-03 0.61607827E+02 0.75467711E-02 0.11957838E+00
       21 -1    0    0  501  502 0.00000000E+00 0.00000000E+00 0.28023835E+02 0.28033870E+02 0.75000000E+00 0.0000E+00 0.9000E+01
        2 -1    0    0  502    0 0.00000000E+00 0.00000000E+00 -.96699082E+03 0.96699088E+03 0.32000000E+00 0.0000E+00 0.9000E+01
       25  1    1    2    0    0 0.93684868E+01 -.14622823E+01 -.54967289E+03 0.56378647E+03 0.12500000E+03 0.0000E+00 0.9000E+01
       23  1    1    2    0    0 0.56248266E+02 -.26646439E+02 -.27681052E+03 0.29801546E+03 0.91188000E+02 0.0000E+00 0.9000E+01
        2  1    1    2  501    0 -.65616753E+02 0.28108721E+02 -.11248358E+03 0.13322281E+03 0.32000000E+00 0.0000E+00 0.9000E+01
#aMCatNLO 1  0  0  1  5 0.62670932D+00 0.00000000D+00  -5  6  0 0.00000000D+00 0.00000000D+00 0.00000000D+00 0.00000000D+00 0.00000000D+00
  <mgrwgt>
 0.4273606910D-01   39    2    0
 0.164632348301756D+03 0.000000000000000D+00 0.000000000000000D+00 0.164632348301756D+03
 0.164632348301756D+03 0.000000000000000D+00 0.000000000000000D+00 -.164632348301756D+03
 0.136233312613682D+03 0.936869439671946D+01 -.146237122461664D+01 -.533348338461800D+02
 0.111207940593558D+03 0.562484354902452D+02 -.266465118094206D+02 0.133428490342353D+02
 0.818234433962712D+02 -.656171298869647D+02 0.281088830340372D+02 0.399919848119448D+02
 0.000000000000000D+00 -.000000000000000D+00 -.000000000000000D+00 0.000000000000000D+00
 0.165704383370242D+03 0.000000000000000D+00 0.000000000000000D+00 0.165704383370242D+03
 0.164724265219220D+03 0.000000000000000D+00 0.000000000000000D+00 -.164724265219220D+03
 0.136250261244712D+03 0.962095494500598D+01 -.140228877150535D+01 -.533348338461800D+02
 0.111300538684912D+03 0.564544299661191D+02 -.265974488325820D+02 0.133428490342353D+02
 0.817144931001317D+02 -.654657293128234D+02 0.281449430440493D+02 0.399919848119448D+02
 0.116335555970626D+01 -.609655598301638D+00 -.145205439961987D+00 0.980118151022821D+00
0.260215116798D-06 0.000000000000D+00 0.000000000000D+00 0.228779214569D-06 0.000000000000D+00  6 21 2 25 23 2 21 2 0.43121352D-02 0.14876860D+00 0.23584976D+05 0.23584976D+05 0.23584976D+05 0.12260199D+01  1  2  2  1  6  1       21 0.471992114407D-02 0.100000000000D+01
-.105381622304D-07 0.137319289769D-07 -.525299349517D-09 0.228779214569D-06 0.000000000000D+00  6 21 2 25 23 2 21 4 0.43121352D-02 0.14876860D+00 0.23584976D+05 0.23584976D+05 0.23584976D+05 0.12260199D+01  1  2  3  1  6  1       21 -.287317559854D-03 0.100000000000D+01
0.232418559882D-07 0.000000000000D+00 0.000000000000D+00 0.228779214569D-06 0.000000000000D+00  6 21 2 25 23 2 21 4 0.43121352D-02 0.14876860D+00 0.23584976D+05 0.23584976D+05 0.23584976D+05 0.12260199D+01  1  2 15  1  6  1       21 0.633677220283D-03 0.100000000000D+01
-.424478741951D-04 0.000000000000D+00 0.000000000000D+00 0.228779214569D-06 0.000000000000D+00  6 21 2 25 23 2 21 4 0.43121352D-02 0.14876860D+00 0.23584976D+05 0.23584976D+05 0.23584976D+05 0.12260199D+01  1  2  4  1  6  1       21 -.115731940429D+01 0.100000000000D+01
-.173470264876D-03 0.000000000000D+00 -.112667834917D-04 0.228779214569D-06 0.000000000000D+00  6 21 2 25 23 2 21 4 0.43425649D-02 0.14876860D+00 0.23584976D+05 0.23584976D+05 0.23584976D+05 0.12260199D+01  1  2  5  1  6  1       21 -.467420677727D+01 0.100000000000D+01
0.173532928492D-03 0.000000000000D+00 0.112656693155D-04 0.228779214569D-06 0.000000000000D+00  6 21 2 25 23 2 21 4 0.43121352D-02 0.14876860D+00 0.23584976D+05 0.23584976D+05 0.23584976D+05 0.12260199D+01  1  2  6  1  6  1       21 0.473128582373D+01 0.100000000000D+01
0.422951659641D-04 0.000000000000D+00 0.000000000000D+00 0.228779214569D-06 0.166157223452D-04  6 21 2 25 23 2 21 4 0.43402145D-02 0.14885166D+00 0.23679286D+05 0.23679286D+05 0.23679286D+05 0.12258329D+01  1  2 11  1  6  1       21 0.113915837678D+01 0.100000000000D+01
0.187820718038D-14 0.000000000000D+00 0.000000000000D+00 0.228709410042D-06 0.000000000000D+00  6 -1 2 25 23 2 -1 4 0.43414140D-02 0.14876860D+00 0.23679286D+05 0.23679286D+05 0.23679286D+05 0.12258329D+01  1  2 12  4  6  1       21 0.282242028089D-11 0.100000000000D+01
0.187820718038D-14 0.000000000000D+00 0.000000000000D+00 0.228709410042D-06 0.000000000000D+00  6 -3 2 25 23 2 -3 4 0.43414140D-02 0.14876860D+00 0.23679286D+05 0.23679286D+05 0.23679286D+05 0.12258329D+01  1  2 12  4  6  1       21 0.204526352847D-11 0.100000000000D+01
0.187827056119D-14 0.000000000000D+00 0.000000000000D+00 0.228709410042D-06 0.000000000000D+00  6 -1 2 25 23 2 -1 4 0.43496918D-02 0.14876860D+00 0.23679286D+05 0.23679286D+05 0.23679286D+05 0.12258329D+01  1  2 12  4  6  1       21 0.281458530822D-11 0.100000000000D+01
0.187827056119D-14 0.000000000000D+00 0.000000000000D+00 0.228709410042D-06 0.000000000000D+00  6 -3 2 25 23 2 -3 4 0.43496918D-02 0.14876860D+00 0.23679286D+05 0.23679286D+05 0.23679286D+05 0.12258329D+01  1  2 12  4  6  1       21 0.203920435065D-11 0.100000000000D+01
-.256128850635D-06 0.000000000000D+00 -.177920014103D-07 0.228779214569D-06 0.000000000000D+00  6 -1 2 25 23 2 -1 4 0.43425649D-02 0.14876860D+00 0.23584976D+05 0.23584976D+05 0.23584976D+05 0.12260199D+01  1  2  5  4  6  1       21 -.384941819026D-03 0.100000000000D+01
-.256128850635D-06 0.000000000000D+00 -.177920014103D-07 0.228779214569D-06 0.000000000000D+00  6 -3 2 25 23 2 -3 4 0.43425649D-02 0.14876860D+00 0.23584976D+05 0.23584976D+05 0.23584976D+05 0.12260199D+01  1  2  5  4  6  1       21 -.278916315067D-03 0.100000000000D+01
0.111929365576D-06 0.000000000000D+00 0.000000000000D+00 0.228779214569D-06 0.152144073089D-07  6 -1 2 25 23 2 -1 4 0.43402145D-02 0.14885166D+00 0.23679286D+05 0.23679286D+05 0.23679286D+05 0.12258329D+01  1  2 11  4  6  1       21 0.168139543043D-03 0.100000000000D+01
0.111929365576D-06 0.000000000000D+00 0.000000000000D+00 0.228779214569D-06 0.152144073089D-07  6 -3 2 25 23 2 -3 4 0.43402145D-02 0.14885166D+00 0.23679286D+05 0.23679286D+05 0.23679286D+05 0.12258329D+01  1  2 11  4  6  1       21 0.121845427578D-03 0.100000000000D+01
0.187820718038D-14 0.000000000000D+00 0.000000000000D+00 0.228709410042D-06 0.000000000000D+00  6 1 2 25 23 2 1 4 0.43414140D-02 0.14876860D+00 0.23679286D+05 0.23679286D+05 0.23679286D+05 0.12258329D+01  1  2 12  5  6  1       21 0.313316352181D-11 0.100000000000D+01
0.187820718038D-14 0.000000000000D+00 0.000000000000D+00 0.228709410042D-06 0.000000000000D+00  6 3 2 25 23 2 3 4 0.43414140D-02 0.14876860D+00 0.23679286D+05 0.23679286D+05 0.23679286D+05 0.12258329D+01  1  2 12  5  6  1       21 0.204507857868D-11 0.100000000000D+01
0.187827056119D-14 0.000000000000D+00 0.000000000000D+00 0.228709410042D-06 0.000000000000D+00  6 1 2 25 23 2 1 4 0.43496918D-02 0.14876860D+00 0.23679286D+05 0.23679286D+05 0.23679286D+05 0.12258329D+01  1  2 12  5  6  1       21 0.312505701011D-11 0.100000000000D+01
0.187827056119D-14 0.000000000000D+00 0.000000000000D+00 0.228709410042D-06 0.000000000000D+00  6 3 2 25 23 2 3 4 0.43496918D-02 0.14876860D+00 0.23679286D+05 0.23679286D+05 0.23679286D+05 0.12258329D+01  1  2 12  5  6  1       21 0.203901975914D-11 0.100000000000D+01
-.256128850635D-06 0.000000000000D+00 -.177920014103D-07 0.228779214569D-06 0.000000000000D+00  6 1 2 25 23 2 1 4 0.43425649D-02 0.14876860D+00 0.23584976D+05 0.23584976D+05 0.23584976D+05 0.12260199D+01  1  2  5  5  6  1       21 -.427336969973D-03 0.100000000000D+01
-.256128850635D-06 0.000000000000D+00 -.177920014103D-07 0.228779214569D-06 0.000000000000D+00  6 3 2 25 23 2 3 4 0.43425649D-02 0.14876860D+00 0.23584976D+05 0.23584976D+05 0.23584976D+05 0.12260199D+01  1  2  5  5  6  1       21 -.278891081261D-03 0.100000000000D+01
0.111907302523D-06 0.000000000000D+00 0.000000000000D+00 0.228779214569D-06 0.152114083079D-07  6 1 2 25 23 2 1 4 0.43402145D-02 0.14885166D+00 0.23679286D+05 0.23679286D+05 0.23679286D+05 0.12258329D+01  1  2 11  5  6  1       21 0.186609487536D-03 0.100000000000D+01
0.111907302523D-06 0.000000000000D+00 0.000000000000D+00 0.228779214569D-06 0.152114083079D-07  6 3 2 25 23 2 3 4 0.43402145D-02 0.14885166D+00 0.23679286D+05 0.23679286D+05 0.23679286D+05 0.12258329D+01  1  2 11  5  6  1       21 0.121810395448D-03 0.100000000000D+01
0.187820718038D-14 0.000000000000D+00 0.000000000000D+00 0.228709410042D-06 0.000000000000D+00  6 -2 2 25 23 2 -2 4 0.43414140D-02 0.14876860D+00 0.23679286D+05 0.23679286D+05 0.23679286D+05 0.12258329D+01  1  2 12  6  6  1       21 0.276738256317D-11 0.100000000000D+01
0.187827056119D-14 0.000000000000D+00 0.000000000000D+00 0.228709410042D-06 0.000000000000D+00  6 -2 2 25 23 2 -2 4 0.43496918D-02 0.14876860D+00 0.23679286D+05 0.23679286D+05 0.23679286D+05 0.12258329D+01  1  2 12  6  6  1       21 0.275959912511D-11 0.100000000000D+01
-.256128850635D-06 0.000000000000D+00 -.177920014103D-07 0.228779214569D-06 0.000000000000D+00  6 -2 2 25 23 2 -2 4 0.43425649D-02 0.14876860D+00 0.23584976D+05 0.23584976D+05 0.23584976D+05 0.12260199D+01  1  2  5  6  6  1       21 -.377432919407D-03 0.100000000000D+01
0.303274914985D-06 0.000000000000D+00 0.000000000000D+00 0.228779214569D-06 0.118092944302D-06  6 -2 2 25 23 2 -2 4 0.43402145D-02 0.14885166D+00 0.23679286D+05 0.23679286D+05 0.23679286D+05 0.12258329D+01  1  2 11  6  6  1       21 0.446696073761D-03 0.100000000000D+01
0.187820718038D-14 0.000000000000D+00 0.000000000000D+00 0.228709410042D-06 0.000000000000D+00  6 2 2 25 23 2 2 4 0.43414140D-02 0.14876860D+00 0.23679286D+05 0.23679286D+05 0.23679286D+05 0.12258329D+01  1  2 12  7  6  1       21 0.334257934108D-11 0.100000000000D+01
0.187827056119D-14 0.000000000000D+00 0.000000000000D+00 0.228709410042D-06 0.000000000000D+00  6 2 2 25 23 2 2 4 0.43496918D-02 0.14876860D+00 0.23679286D+05 0.23679286D+05 0.23679286D+05 0.12258329D+01  1  2 12  7  6  1       21 0.333428209412D-11 0.100000000000D+01
-.256128850635D-06 0.000000000000D+00 -.177920014103D-07 0.228779214569D-06 0.000000000000D+00  6 2 2 25 23 2 2 4 0.43425649D-02 0.14876860D+00 0.23584976D+05 0.23584976D+05 0.23584976D+05 0.12260199D+01  1  2  5  7  6  1       21 -.455907298646D-03 0.100000000000D+01
0.109144337010D-06 0.000000000000D+00 0.000000000000D+00 0.228779214569D-06 0.760713314806D-08  6 2 2 25 23 2 2 4 0.43402145D-02 0.14885166D+00 0.23679286D+05 0.23679286D+05 0.23679286D+05 0.12258329D+01  1  2 11  7  6  1       21 0.194163921421D-03 0.100000000000D+01
0.187820718038D-14 0.000000000000D+00 0.000000000000D+00 0.228709410042D-06 0.000000000000D+00  6 -4 2 25 23 2 -4 4 0.43414140D-02 0.14876860D+00 0.23679286D+05 0.23679286D+05 0.23679286D+05 0.12258329D+01  1  2 12  8  6  1       21 0.183234902624D-11 0.100000000000D+01
0.187827056119D-14 0.000000000000D+00 0.000000000000D+00 0.228709410042D-06 0.000000000000D+00  6 -4 2 25 23 2 -4 4 0.43496918D-02 0.14876860D+00 0.23679286D+05 0.23679286D+05 0.23679286D+05 0.12258329D+01  1  2 12  8  6  1       21 0.182683595915D-11 0.100000000000D+01
-.256128850635D-06 0.000000000000D+00 -.177920014103D-07 0.228779214569D-06 0.000000000000D+00  6 -4 2 25 23 2 -4 4 0.43425649D-02 0.14876860D+00 0.23584976D+05 0.23584976D+05 0.23584976D+05 0.12260199D+01  1  2  5  8  6  1       21 -.249869534975D-03 0.100000000000D+01
0.110562403640D-06 0.000000000000D+00 0.000000000000D+00 0.228779214569D-06 0.150285980214D-07  6 -4 2 25 23 2 -4 4 0.43402145D-02 0.14885166D+00 0.23679286D+05 0.23679286D+05 0.23679286D+05 0.12258329D+01  1  2 11  8  6  1       21 0.107828735365D-03 0.100000000000D+01
0.187820718038D-14 0.000000000000D+00 0.000000000000D+00 0.228709410042D-06 0.000000000000D+00  6 4 2 25 23 2 4 4 0.43414140D-02 0.14876860D+00 0.23679286D+05 0.23679286D+05 0.23679286D+05 0.12258329D+01  1  2 12  9  6  1       21 0.183234902624D-11 0.100000000000D+01
0.187827056119D-14 0.000000000000D+00 0.000000000000D+00 0.228709410042D-06 0.000000000000D+00  6 4 2 25 23 2 4 4 0.43496918D-02 0.14876860D+00 0.23679286D+05 0.23679286D+05 0.23679286D+05 0.12258329D+01  1  2 12  9  6  1       21 0.182683595915D-11 0.100000000000D+01
-.256128850635D-06 0.000000000000D+00 -.177920014103D-07 0.228779214569D-06 0.000000000000D+00  6 4 2 25 23 2 4 4 0.43425649D-02 0.14876860D+00 0.23584976D+05 0.23584976D+05 0.23584976D+05 0.12260199D+01  1  2  5  9  6  1       21 -.249869534975D-03 0.100000000000D+01
0.110575175545D-06 0.000000000000D+00 0.000000000000D+00 0.228779214569D-06 0.150303340891D-07  6 4 2 25 23 2 4 4 0.43402145D-02 0.14885166D+00 0.23679286D+05 0.23679286D+05 0.23679286D+05 0.12258329D+01  1  2 11  9  6  1       21 0.107841191483D-03 0.100000000000D+01
  </mgrwgt>
  </event>
  <event>
  5     66 0.38225901E-03 0.29163133E+02 0.75467711E-02 0.12136348E+00
       21 -1    0    0  501  502 0.00000000E+00 0.00000000E+00 0.48125060E+02 0.48130904E+02 0.75000000E+00 0.0000E+00 0.9000E+01
        2 -1    0    0  502    0 0.00000000E+00 0.00000000E+00 -.38249580E+03 0.38249594E+03 0.32000000E+00 0.0000E+00 0.9000E+01
       25  1    1    2    0    0 0.40526730E+02 0.27617602E+01 -.14944395E+03 0.19901894E+03 0.12500000E+03 0.0000E+00 0.9000E+01
       23  1    1    2    0    0 -.32703871E+02 0.25331503E+02 -.17342760E+03 0.20025886E+03 0.91188000E+02 0.0000E+00 0.9000E+01
        2  1    1    2  501    0 -.78228595E+01 -.28093263E+02 -.11499194E+02 0.31349042E+02 0.32000000E+00 0.0000E+00 0.9000E+01
#aMCatNLO 1  0  0  1  2 0.18407591D+02 0.00000000D+00  -5  6  0 0.00000000D+00 0.00000000D+00 0.00000000D+00 0.00000000D+00 0.00000000D+00
  <mgrwgt>
 0.1352235092D+00   23    2    0
 0.135679477373056D+03 0.000000000000000D+00 0.000000000000000D+00 0.135679477373056D+03
 0.135679477373056D+03 0.000000000000000D+00 0.000000000000000D+00 -.135679477373056D+03
 0.131682482989884D+03 0.405268836255333D+02 0.276231160229309D+01 0.807574545138070D+01
 0.104097422623390D+03 -.327037492332749D+02 0.253319387412965D+02 -.284566287273629D+02
 0.355790491328370D+02 -.782313439225845D+01 -.280942503435896D+02 0.203808832759822D+02
 0.000000000000000D+00 -.000000000000000D+00 -.000000000000000D+00 0.000000000000000D+00
 0.158908652778144D+03 0.000000000000000D+00 0.000000000000000D+00 0.158908652778144D+03
 0.139687605569499D+03 0.000000000000000D+00 0.000000000000000D+00 -.139687605569499D+03
 0.134737624159062D+03 0.494934874668601D+02 0.379531260912762D+01 0.807574545138070D+01
 0.102329443438395D+03 -.257562708691594D+02 0.261323256293638D+02 -.284566287273629D+02
 0.349155085793884D+02 -.545057783585078D+01 -.278209190628827D+02 0.203808832759822D+02
 0.266136821707974D+02 -.182866387618499D+02 -.210671917560878D+01 0.192210472086448D+02
0.864783293664D-06 0.000000000000D+00 0.000000000000D+00 0.602763207464D-06 0.000000000000D+00  6 21 2 25 23 2 21 2 0.74043152D-02 0.58845968D-01 0.16995050D+05 0.16995050D+05 0.16995050D+05 0.12416871D+01  1  2  2  1  6  1       21 0.188977064193D-01 0.100000000000D+01
0.310397773838D-07 0.456358681813D-07 -.174574831480D-08 0.602763207464D-06 0.000000000000D+00  6 21 2 25 23 2 21 4 0.74043152D-02 0.58845968D-01 0.16995050D+05 0.16995050D+05 0.16995050D+05 0.12416871D+01  1  2  3  1  6  1       21 0.104579064826D-02 0.100000000000D+01
0.799166126954D-07 0.000000000000D+00 0.000000000000D+00 0.602763207464D-06 0.000000000000D+00  6 21 2 25 23 2 21 4 0.74043152D-02 0.58845968D-01 0.16995050D+05 0.16995050D+05 0.16995050D+05 0.12416871D+01  1  2 15  1  6  1       21 0.269254657223D-02 0.100000000000D+01
0.280549140975D-05 0.000000000000D+00 0.000000000000D+00 0.596238838459D-06 0.000000000000D+00  6 21 2 25 23 2 21 4 0.87686518D-02 0.58845968D-01 0.19536479D+05 0.19536479D+05 0.19536479D+05 0.12349488D+01  1  2 12  1  6  1       21 0.692194867078D-01 0.100000000000D+01
-.844309999525D-06 0.000000000000D+00 0.000000000000D+00 0.602763207464D-06 0.000000000000D+00  6 21 2 25 23 2 21 4 0.74043152D-02 0.58845968D-01 0.16995050D+05 0.16995050D+05 0.16995050D+05 0.12416871D+01  1  2  4  1  6  1       21 -.284464508498D-01 0.100000000000D+01
-.966660487292D-05 0.000000000000D+00 -.165139993896D-05 0.602763207464D-06 0.000000000000D+00  6 21 2 25 23 2 21 4 0.89157362D-02 0.58845968D-01 0.16995050D+05 0.16995050D+05 0.16995050D+05 0.12416871D+01  1  2  5  1  6  1       21 -.236343059550D+00 0.100000000000D+01
0.925904006641D-05 0.000000000000D+00 0.154277925509D-05 0.602763207464D-06 0.000000000000D+00  6 21 2 25 23 2 21 4 0.74043152D-02 0.58845968D-01 0.16995050D+05 0.16995050D+05 0.16995050D+05 0.12416871D+01  1  2  6  1  6  1       21 0.311955121121D+00 0.100000000000D+01
0.131679320069D-06 0.000000000000D+00 0.000000000000D+00 0.596238838459D-06 0.000000000000D+00  6 -1 2 25 23 2 -1 4 0.87686518D-02 0.58845968D-01 0.19536479D+05 0.19536479D+05 0.19536479D+05 0.12349488D+01  1  2 12  4  6  1       21 0.209350857768D-03 0.100000000000D+01
0.131679320069D-06 0.000000000000D+00 0.000000000000D+00 0.596238838459D-06 0.000000000000D+00  6 -3 2 25 23 2 -3 4 0.87686518D-02 0.58845968D-01 0.19536479D+05 0.19536479D+05 0.19536479D+05 0.12349488D+01  1  2 12  4  6  1       21 0.139903156606D-03 0.100000000000D+01
-.473797081640D-06 0.000000000000D+00 -.866899853449D-07 0.602763207464D-06 0.000000000000D+00  6 -1 2 25 23 2 -1 4 0.89157362D-02 0.58845968D-01 0.16995050D+05 0.16995050D+05 0.16995050D+05 0.12416871D+01  1  2  5  4  6  1       21 -.747548896990D-03 0.100000000000D+01
-.473797081640D-06 0.000000000000D+00 -.866899853449D-07 0.602763207464D-06 0.000000000000D+00  6 -3 2 25 23 2 -3 4 0.89157362D-02 0.58845968D-01 0.16995050D+05 0.16995050D+05 0.16995050D+05 0.12416871D+01  1  2  5  4  6  1       21 -.496930566820D-03 0.100000000000D+01
0.131679320069D-06 0.000000000000D+00 0.000000000000D+00 0.596238838459D-06 0.000000000000D+00  6 1 2 25 23 2 1 4 0.87686518D-02 0.58845968D-01 0.19536479D+05 0.19536479D+05 0.19536479D+05 0.12349488D+01  1  2 12  5  6  1       21 0.255888378910D-03 0.100000000000D+01
0.131679320069D-06 0.000000000000D+00 0.000000000000D+00 0.596238838459D-06 0.000000000000D+00  6 3 2 25 23 2 3 4 0.87686518D-02 0.58845968D-01 0.19536479D+05 0.19536479D+05 0.19536479D+05 0.12349488D+01  1  2 12  5  6  1       21 0.139885880788D-03 0.100000000000D+01
-.473797081640D-06 0.000000000000D+00 -.866899853449D-07 0.602763207464D-06 0.000000000000D+00  6 1 2 25 23 2 1 4 0.89157362D-02 0.58845968D-01 0.16995050D+05 0.16995050D+05 0.16995050D+05 0.12416871D+01  1  2  5  5  6  1       21 -.916695037957D-03 0.100000000000D+01
-.473797081640D-06 0.000000000000D+00 -.866899853449D-07 0.602763207464D-06 0.000000000000D+00  6 3 2 25 23 2 3 4 0.89157362D-02 0.58845968D-01 0.16995050D+05 0.16995050D+05 0.16995050D+05 0.12416871D+01  1  2  5  5  6  1       21 -.496868146177D-03 0.100000000000D+01
0.131679320069D-06 0.000000000000D+00 0.000000000000D+00 0.596238838459D-06 0.000000000000D+00  6 -2 2 25 23 2 -2 4 0.87686518D-02 0.58845968D-01 0.19536479D+05 0.19536479D+05 0.19536479D+05 0.12349488D+01  1  2 12  6  6  1       21 0.201249218384D-03 0.100000000000D+01
-.473797081640D-06 0.000000000000D+00 -.866899853449D-07 0.602763207464D-06 0.000000000000D+00  6 -2 2 25 23 2 -2 4 0.89157362D-02 0.58845968D-01 0.16995050D+05 0.16995050D+05 0.16995050D+05 0.12416871D+01  1  2  5  6  6  1       21 -.718094865962D-03 0.100000000000D+01
0.131679320069D-06 0.000000000000D+00 0.000000000000D+00 0.596238838459D-06 0.000000000000D+00  6 2 2 25 23 2 2 4 0.87686518D-02 0.58845968D-01 0.19536479D+05 0.19536479D+05 0.19536479D+05 0.12349488D+01  1  2 12  7  6  1       21 0.287234594781D-03 0.100000000000D+01
-.473797081640D-06 0.000000000000D+00 -.866899853449D-07 0.602763207464D-06 0.000000000000D+00  6 2 2 25 23 2 2 4 0.89157362D-02 0.58845968D-01 0.16995050D+05 0.16995050D+05 0.16995050D+05 0.12416871D+01  1  2  5  7  6  1       21 -.103057049873D-02 0.100000000000D+01
0.131679320069D-06 0.000000000000D+00 0.000000000000D+00 0.596238838459D-06 0.000000000000D+00  6 -4 2 25 23 2 -4 4 0.87686518D-02 0.58845968D-01 0.19536479D+05 0.19536479D+05 0.19536479D+05 0.12349488D+01  1  2 12  8  6  1       21 0.122683986217D-03 0.100000000000D+01
-.473797081640D-06 0.000000000000D+00 -.866899853449D-07 0.602763207464D-06 0.000000000000D+00  6 -4 2 25 23 2 -4 4 0.89157362D-02 0.58845968D-01 0.16995050D+05 0.16995050D+05 0.16995050D+05 0.12416871D+01  1  2  5  8  6  1       21 -.434901974750D-03 0.100000000000D+01
0.131679320069D-06 0.000000000000D+00 0.000000000000D+00 0.596238838459D-06 0.000000000000D+00  6 4 2 25 23 2 4 4 0.87686518D-02 0.58845968D-01 0.19536479D+05 0.19536479D+05 0.19536479D+05 0.12349488D+01  1  2 12  9  6  1       21 0.122683986217D-03 0.100000000000D+01
-.473797081640D-06 0.000000000000D+00 -.866899853449D-07 0.602763207464D-06 0.000000000000D+00  6 4 2 25 23 2 4 4 0.89157362D-02 0.58845968D-01 0.16995050D+05 0.16995050D+05 0.16995050D+05 0.12416871D+01  1  2  5  9  6  1       21 -.434901974750D-03 0.100000000000D+01
  </mgrwgt>
  </event>
  <event>
  6     66 -.38225901E-03 0.22258327E+02 0.75467711E-02 0.12002965E+00
       21 -1    0    0  501  502 0.00000000E+00 0.00000000E+00 0.48292170E+02 0.48297994E+02 0.75000000E+00 0.0000E+00 0.9000E+01
        2 -1    0    0  503    0 0.00000000E+00 0.00000000E+00 -.70214532E+03 0.70214539E+03 0.32000000E+00 0.0000E+00 0.9000E+01
       25  1    1    2    0    0 -.60550180E+02 -.36786094E+02 -.10933840E+03 0.18055311E+03 0.12500000E+03 0.0000E+00 0.9000E+01
       23  1    1    2    0    0 0.58031246E+02 0.61349325E+02 -.35906148E+03 0.37996285E+03 0.91188000E+02 0.0000E+00 0.9000E+01
        2  1    1    2  501    0 0.91947507E+01 -.23903661E+02 -.74708890E+02 0.78977522E+02 0.32000000E+00 0.0000E+00 0.9000E+01
       21  1    1    2  503  502 -.66758165E+01 -.65956987E+00 -.11074438E+03 0.11094991E+03 0.75000000E+00 0.0000E+00 0.9000E+01
#aMCatNLO 2  0  0  2  1 0.67083201D+01 0.00000000D+00  -5  6  0 0.00000000D+00 0.00000000D+00 0.00000000D+00 0.00000000D+00 0.00000000D+00
  <mgrwgt>
 -.6633323696D-01    2    2    0
 0.168774831100952D+03 0.000000000000000D+00 0.000000000000000D+00 0.168774831100952D+03
 0.168774831100952D+03 0.000000000000000D+00 0.000000000000000D+00 -.168774831100952D+03
 0.167407757396113D+03 -.638481008744282D+02 -.371111935363062D+02 0.833458851139955D+02
 0.140857651122595D+03 0.552332681441372D+02 0.610735030337163D+02 -.688835238143572D+02
 0.292842536831971D+02 0.861483273029106D+01 -.239623094974101D+02 -.144623612996383D+02
 0.000000000000000D+00 -.000000000000000D+00 -.000000000000000D+00 -.000000000000000D+00
 0.169163731114547D+03 0.000000000000000D+00 0.000000000000000D+00 0.169163731114547D+03
 0.200448261891717D+03 0.000000000000000D+00 0.000000000000000D+00 -.200448261891717D+03
 0.166105556501693D+03 -.605504322009505D+02 -.367853842657618D+02 0.833458851139955D+02
 0.142097166312371D+03 0.580310312275948D+02 0.613499216917544D+02 -.688835238143572D+02
 0.294135919743272D+02 0.919521749683372D+01 -.239049675518887D+02 -.144623612996383D+02
 0.319956782178734D+02 -.667581652347800D+01 -.659569874103948D+00 -.312845307771705D+02
-.448216933516D-04 0.000000000000D+00 0.000000000000D+00 0.126267970786D-06 0.000000000000D+00  6 21 2 25 23 2 21 4 0.74127448D-02 0.10811235D+00 0.22543135D+05 0.22543135D+05 0.22543135D+05 0.12281437D+01  1  2 13  2  6  2        2 -.735240951721D+00 0.100000000000D+01
0.408981831572D-04 0.000000000000D+00 0.000000000000D+00 0.126711744382D-06 0.236898255992D-07  6 21 2 25 23 2 21 4 0.74298256D-02 0.10802001D+00 0.22543135D+05 0.22543135D+05 0.22543135D+05 0.12281437D+01  1  2  1  2  6  2        2 0.668907714759D+00 0.100000000000D+01
  </mgrwgt>
  </event>
  <event>
  5     66 0.38225901E-03 0.11855273E+03 0.75467711E-02 0.10922672E+00
       21 -1    0    0  501  502 0.00000000E+00 0.00000000E+00 0.23204150E+02 0.23216267E+02 0.75000000E+00 0.0000E+00 0.9000E+01
        2 -1    0    0  502    0 0.00000000E+00 0.00000000E+00 -.30310043E+04 0.30310044E+04 0.32000000E+00 0.0000E+00 0.9000E+01
       25  1    1    2    0    0 0.19707568E+03 -.71486075E+02 -.10341686E+04 0.10625812E+04 0.12500000E+03 0.0000E+00 0.9000E+01
       23  1    1    2    0    0 -.11537880E+03 -.14422559E+02 -.11754111E+04 0.11846632E+04 0.91188000E+02 0.0000E+00 0.9000E+01
        2  1    1    2  501    0 -.81696879E+02 0.85908634E+02 -.79822045E+03 0.80697625E+03 0.32000000E+00 0.0000E+00 0.9000E+01
#aMCatNLO 1  0  0  1  2 0.59151383D+02 0.00000000D+00  -5  6  0 0.00000000D+00 0.00000000D+00 0.00000000D+00 0.00000000D+00 0.00000000D+00
  <mgrwgt>
 0.9967769787D-01    4    2    0
 0.265236514686367D+03 0.000000000000000D+00 0.000000000000000D+00 0.265236514686367D+03
 0.265236514686367D+03 0.000000000000000D+00 0.000000000000000D+00 -.265236514686367D+03
 0.254084441160566D+03 0.197075818283760D+03 -.714862208606649D+02 0.706027288050817D+02
 0.156126445854851D+03 -.115378715671048D+03 -.144226485875308D+02 -.503979655252847D+02
 0.120262142357318D+03 -.816971026127117D+02 0.859088694481957D+02 -.202047632797970D+02
 0.000000000000000D+00 -.000000000000000D+00 -.000000000000000D+00 -.000000000000000D+00
 0.283009801217488D+03 0.000000000000000D+00 0.000000000000000D+00 0.283009801217488D+03
 0.321111749206722D+03 0.000000000000000D+00 0.000000000000000D+00 -.321111749206722D+03
 0.257625534944930D+03 0.208988849334739D+03 -.456599583297995D+02 0.706027288050817D+02
 0.150244848743293D+03 -.108246138789405D+03 0.104006634023426D+01 -.503979655252847D+02
 0.125890350128846D+03 -.759664692008297D+02 0.983323108318437D+02 -.202047632797970D+02
 0.703608166071410D+02 -.247762413445044D+02 -.537124188422785D+02 -.381019479892334D+02
0.691784976968D-04 0.000000000000D+00 0.000000000000D+00 0.259943397378D-07 0.000000000000D+00  6 21 2 25 23 2 21 2 0.35708026D-02 0.46630929D+00 0.65126875D+05 0.65126875D+05 0.65126875D+05 0.11810780D+01  1  2  2  1  6  1       21 0.117065814068D+00 0.100000000000D+01
-.545192087941D-05 0.365064961939D-05 -.139651455641D-06 0.259943397378D-07 0.000000000000D+00  6 21 2 25 23 2 21 4 0.35708026D-02 0.46630929D+00 0.65126875D+05 0.65126875D+05 0.65126875D+05 0.11810780D+01  1  2  3  1  6  1       21 -.128696179984D-01 0.100000000000D+01
0.712644411918D-05 0.000000000000D+00 0.000000000000D+00 0.259943397378D-07 0.000000000000D+00  6 21 2 25 23 2 21 4 0.35708026D-02 0.46630929D+00 0.65126875D+05 0.65126875D+05 0.65126875D+05 0.11810780D+01  1  2 15  1  6  1       21 0.168224402975D-01 0.100000000000D+01
-.904060308558D-05 0.000000000000D+00 0.000000000000D+00 0.259943397378D-07 0.000000000000D+00  6 21 2 25 23 2 21 4 0.35708026D-02 0.46630929D+00 0.65126875D+05 0.65126875D+05 0.65126875D+05 0.11810780D+01  1  2  4  1  6  1       21 -.213409384985D-01 0.100000000000D+01
  </mgrwgt>
  </event>
  <event>
  5     66 0.38225901E-03 0.29776343E+02 0.75467711E-02 0.10448790E+00
       21 -1    0    0  501  502 0.00000000E+00 0.00000000E+00 0.22006255E+03 0.22006382E+03 0.75000000E+00 0.0000E+00 0.9000E+01
        2 -1    0    0  502    0 0.00000000E+00 0.00000000E+00 -.10047892E+04 0.10047892E+04 0.32000000E+00 0.0000E+00 0.9000E+01
       25  1    1    2    0    0 0.27594805E+03 -.20930659E+03 -.33050404E+03 0.49478733E+03 0.12500000E+03 0.0000E+00 0.9000E+01
       23  1    1    2    0    0 -.30572207E+03 0.20967529E+03 -.52739353E+03 0.65106750E+03 0.91188000E+02 0.0000E+00 0.9000E+01
        2  1    1    2  501    0 0.29774013E+02 -.36870009E+00 0.73170948E+02 0.78998214E+02 0.32000000E+00 0.0000E+00 0.9000E+01
#aMCatNLO 1  0  0  1  2 0.15587384D+02 0.00000000D+00  -5  6  0 0.00000000D+00 0.00000000D+00 0.00000000D+00 0.00000000D+00 0.00000000D+00
  <mgrwgt>
 0.1443756129D+01   23    2    0
 0.470231087783113D+03 0.000000000000000D+00 0.000000000000000D+00 0.470231087783113D+03
 0.470231087783113D+03 0.000000000000000D+00 0.000000000000000D+00 -.470231087783113D+03
 0.368634102669732D+03 0.275948031010291D+03 -.209306587629636D+03 -.175936979483932D+02
 0.407887038057878D+03 -.305722090836994D+03 0.209675288304017D+03 -.143620545607210D+03
 0.163941034838617D+03 0.297740598267025D+02 -.368700674381374D+00 0.161214243555603D+03
 0.000000000000000D+00 0.000000000000000D+00 -.000000000000000D+00 0.000000000000000D+00
 0.573783833104695D+03 0.000000000000000D+00 0.000000000000000D+00 0.573783833104695D+03
 0.470882613175247D+03 0.000000000000000D+00 0.000000000000000D+00 -.470882613175247D+03
 0.363409001150193D+03 0.270061306877432D+03 -.207842378828610D+03 -.175936979483932D+02
 0.413699152770015D+03 -.312328875644518D+03 0.211318598274611D+03 -.143620545607210D+03
 0.163483186784312D+03 0.271410781661247D+02 0.286202601761388D+00 0.161214243555603D+03
 0.104075105575421D+03 0.151264906009613D+02 -.376242204776248D+01 0.102901219929448D+03
0.430283987147D-04 0.000000000000D+00 0.000000000000D+00 0.407404643485D-06 0.000000000000D+00  6 21 2 25 23 2 21 2 0.33855878D-01 0.15458305D+00 0.15200484D+06 0.15200484D+06 0.15200484D+06 0.11472266D+01  1  2  2  1  6  1       21 0.147818208521D-01 0.100000000000D+01
0.149943592300D-04 0.227067098334D-05 -.868619399738D-07 0.407404643485D-06 0.000000000000D+00  6 21 2 25 23 2 21 4 0.33855878D-01 0.15458305D+00 0.15200484D+06 0.15200484D+06 0.15200484D+06 0.11472266D+01  1  2  3  1  6  1       21 0.677952163995D-02 0.100000000000D+01
0.478315666311D-05 0.000000000000D+00 0.000000000000D+00 0.407404643485D-06 0.000000000000D+00  6 21 2 25 23 2 21 4 0.33855878D-01 0.15458305D+00 0.15200484D+06 0.15200484D+06 0.15200484D+06 0.11472266D+01  1  2 15  1  6  1       21 0.216264754015D-02 0.100000000000D+01
0.267746038628D-02 0.000000000000D+00 0.000000000000D+00 0.406446563122D-06 0.000000000000D+00  6 21 2 25 23 2 21 4 0.41331602D-01 0.15458305D+00 0.15748281D+06 0.15748281D+06 0.15748281D+06 0.11458768D+01  1  2 12  1  6  1       21 0.801329874722D+00 0.100000000000D+01
-.160003673236D-03 0.000000000000D+00 0.000000000000D+00 0.407404643485D-06 0.000000000000D+00  6 21 2 25 23 2 21 4 0.33855878D-01 0.15458305D+00 0.15200484D+06 0.15200484D+06 0.15200484D+06 0.11472266D+01  1  2  4  1  6  1       21 -.723437626465D-01 0.100000000000D+01
-.549864817596D-02 0.000000000000D+00 -.756922193065D-04 0.407404643485D-06 0.000000000000D+00  6 21 2 25 23 2 21 4 0.41337748D-01 0.15458305D+00 0.15200484D+06 0.15200484D+06 0.15200484D+06 0.11472266D+01  1  2  5  1  6  1       21 -.165592661056D+01 0.100000000000D+01
0.526258158695D-02 0.000000000000D+00 0.699819673988D-04 0.407404643485D-06 0.000000000000D+00  6 21 2 25 23 2 21 4 0.33855878D-01 0.15458305D+00 0.15200484D+06 0.15200484D+06 0.15200484D+06 0.11472266D+01  1  2  6  1  6  1       21 0.237941383179D+01 0.100000000000D+01
0.119463616651D-03 0.000000000000D+00 0.000000000000D+00 0.406446563122D-06 0.000000000000D+00  6 -1 2 25 23 2 -1 4 0.41331602D-01 0.15458305D+00 0.15748281D+06 0.15748281D+06 0.15748281D+06 0.11458768D+01  1  2 12  4  6  1       21 0.352887407324D-02 0.100000000000D+01
0.119463616651D-03 0.000000000000D+00 0.000000000000D+00 0.406446563122D-06 0.000000000000D+00  6 -3 2 25 23 2 -3 4 0.41331602D-01 0.15458305D+00 0.15748281D+06 0.15748281D+06 0.15748281D+06 0.11458768D+01  1  2 12  4  6  1       21 0.194804076027D-02 0.100000000000D+01
-.243000487631D-03 0.000000000000D+00 -.433372413500D-05 0.407404643485D-06 0.000000000000D+00  6 -1 2 25 23 2 -1 4 0.41337748D-01 0.15458305D+00 0.15200484D+06 0.15200484D+06 0.15200484D+06 0.11472266D+01  1  2  5  4  6  1       21 -.721668177038D-02 0.100000000000D+01
-.243000487631D-03 0.000000000000D+00 -.433372413500D-05 0.407404643485D-06 0.000000000000D+00  6 -3 2 25 23 2 -3 4 0.41337748D-01 0.15458305D+00 0.15200484D+06 0.15200484D+06 0.15200484D+06 0.11472266D+01  1  2  5  4  6  1       21 -.398115009662D-02 0.100000000000D+01
0.119463616651D-03 0.000000000000D+00 0.000000000000D+00 0.406446563122D-06 0.000000000000D+00  6 1 2 25 23 2 1 4 0.41331602D-01 0.15458305D+00 0.15748281D+06 0.15748281D+06 0.15748281D+06 0.11458768D+01  1  2 12  5  6  1       21 0.725163732730D-02 0.100000000000D+01
0.119463616651D-03 0.000000000000D+00 0.000000000000D+00 0.406446563122D-06 0.000000000000D+00  6 3 2 25 23 2 3 4 0.41331602D-01 0.15458305D+00 0.15748281D+06 0.15748281D+06 0.15748281D+06 0.11458768D+01  1  2 12  5  6  1       21 0.194854160887D-02 0.100000000000D+01
-.243000487631D-03 0.000000000000D+00 -.433372413500D-05 0.407404643485D-06 0.000000000000D+00  6 1 2 25 23 2 1 4 0.41337748D-01 0.15458305D+00 0.15200484D+06 0.15200484D+06 0.15200484D+06 0.11472266D+01  1  2  5  5  6  1       21 -.148302696254D-01 0.100000000000D+01
-.243000487631D-03 0.000000000000D+00 -.433372413500D-05 0.407404643485D-06 0.000000000000D+00  6 3 2 25 23 2 3 4 0.41337748D-01 0.15458305D+00 0.15200484D+06 0.15200484D+06 0.15200484D+06 0.11472266D+01  1  2  5  5  6  1       21 -.398217184528D-02 0.100000000000D+01
0.119463616651D-03 0.000000000000D+00 0.000000000000D+00 0.406446563122D-06 0.000000000000D+00  6 -2 2 25 23 2 -2 4 0.41331602D-01 0.15458305D+00 0.15748281D+06 0.15748281D+06 0.15748281D+06 0.11458768D+01  1  2 12  6  6  1       21 0.298311131017D-02 0.100000000000D+01
-.243000487631D-03 0.000000000000D+00 -.433372413500D-05 0.407404643485D-06 0.000000000000D+00  6 -2 2 25 23 2 -2 4 0.41337748D-01 0.15458305D+00 0.15200484D+06 0.15200484D+06 0.15200484D+06 0.11472266D+01  1  2  5  6  6  1       21 -.610004203671D-02 0.100000000000D+01
0.119463616651D-03 0.000000000000D+00 0.000000000000D+00 0.406446563122D-06 0.000000000000D+00  6 2 2 25 23 2 2 4 0.41331602D-01 0.15458305D+00 0.15748281D+06 0.15748281D+06 0.15748281D+06 0.11458768D+01  1  2 12  7  6  1       21 0.101066364563D-01 0.100000000000D+01
-.243000487631D-03 0.000000000000D+00 -.433372413500D-05 0.407404643485D-06 0.000000000000D+00  6 2 2 25 23 2 2 4 0.41337748D-01 0.15458305D+00 0.15200484D+06 0.15200484D+06 0.15200484D+06 0.11472266D+01  1  2  5  7  6  1       21 -.206676076628D-01 0.100000000000D+01
0.119463616651D-03 0.000000000000D+00 0.000000000000D+00 0.406446563122D-06 0.000000000000D+00  6 -4 2 25 23 2 -4 4 0.41331602D-01 0.15458305D+00 0.15748281D+06 0.15748281D+06 0.15748281D+06 0.11458768D+01  1  2 12  8  6  1       21 0.164420047400D-02 0.100000000000D+01
-.243000487631D-03 0.000000000000D+00 -.433372413500D-05 0.407404643485D-06 0.000000000000D+00  6 -4 2 25 23 2 -4 4 0.41337748D-01 0.15458305D+00 0.15200484D+06 0.15200484D+06 0.15200484D+06 0.11472266D+01  1  2  5  8  6  1       21 -.335925708298D-02 0.100000000000D+01
0.119463616651D-03 0.000000000000D+00 0.000000000000D+00 0.406446563122D-06 0.000000000000D+00  6 4 2 25 23 2 4 4 0.41331602D-01 0.15458305D+00 0.15748281D+06 0.15748281D+06 0.15748281D+06 0.11458768D+01  1  2 12  9  6  1       21 0.164420047400D-02 0.100000000000D+01
-.243000487631D-03 0.000000000000D+00 -.433372413500D-05 0.407404643485D-06 0.000000000000D+00  6 4 2 25 23 2 4 4 0.41337748D-01 0.15458305D+00 0.15200484D+06 0.15200484D+06 0.15200484D+06 0.11472266D+01  1  2  5  9  6  1       21 -.335925708298D-02 0.100000000000D+01
  </mgrwgt>
  </event>
  <event>
  5     66 0.38225901E-03 0.52661981E+02 0.75467711E-02 0.97988244E-01
       21 -1    0    0  501  502 0.00000000E+00 0.00000000E+00 0.32701784E+02 0.32710383E+02 0.75000000E+00 0.0000E+00 0.9000E+01
        2 -1    0    0  502    0 0.00000000E+00 0.00000000E+00 -.23012430E+04 0.23012430E+04 0.32000000E+00 0.0000E+00 0.9000E+01
       25  1    1    2    0    0 -.15480314E+03 -.10816654E+03 -.50098796E+03 0.54979809E+03 0.12500000E+03 0.0000E+00 0.9000E+01
       23  1    1    2    0    0 0.11066188E+03 0.79448106E+02 -.16034769E+04 0.16118348E+04 0.91188000E+02 0.0000E+00 0.9000E+01
        2  1    1    2  501    0 0.44141255E+02 0.28718429E+02 -.16407630E+03 0.17232044E+03 0.32000000E+00 0.0000E+00 0.9000E+01
#aMCatNLO 1  0  0  1  1 0.59815833D+03 0.00000000D+00  -5  6  0 0.00000000D+00 0.00000000D+00 0.00000000D+00 0.00000000D+00 0.00000000D+00
  <mgrwgt>
 0.2271369878D+00   12    2    0
 0.274344329661902D+03 0.000000000000000D+00 0.000000000000000D+00 0.274344329661902D+03
 0.274344329661902D+03 0.000000000000000D+00 0.000000000000000D+00 -.274344329661902D+03
 0.267349129773226D+03 -.154803504421304D+03 -.108166775741397D+03 0.142078783902083D+03
 0.226711151173063D+03 0.110661567181601D+03 0.794479026677062D+02 -.156603777198477D+03
 0.546283783775145D+02 0.441419372397031D+02 0.287188730736904D+02 0.145249932963932D+02
 0.000000000000000D+00 0.000000000000000D+00 0.000000000000000D+00 0.000000000000000D+00
 0.793175478645655D+03 0.000000000000000D+00 0.000000000000000D+00 0.793175478645655D+03
 0.636786362683120D+03 0.000000000000000D+00 0.000000000000000D+00 -.636786362683120D+03
 0.591201980386139D+03 -.381823077277387D+03 -.409779865825329D+03 0.142078783902083D+03
 0.193634760528867D+03 -.487027464860674D+00 -.682216161673853D+02 -.156603777198477D+03
 0.268606379389159D+02 0.225944702832111D+02 0.913939076144565D-01 0.145249932963932D+02
 0.618264462474853D+03 0.359715634459036D+03 0.477910088085100D+03 0.156389115962535D+03
0.247413709191D-04 0.000000000000D+00 0.000000000000D+00 0.401664416386D-07 0.000000000000D+00  6 21 2 25 23 2 21 2 0.50317069D-02 0.35403804D+00 0.49076339D+05 0.49076339D+05 0.49076339D+05 0.11930846D+01  1  2  2  1  6  1       21 0.621108626475D-01 0.100000000000D+01
0.209435716422D-06 0.130563801378D-05 -.499456995807D-07 0.401664416386D-07 0.000000000000D+00  6 21 2 25 23 2 21 4 0.50317069D-02 0.35403804D+00 0.49076339D+05 0.49076339D+05 0.49076339D+05 0.11930846D+01  1  2  3  1  6  1       21 0.748405559469D-03 0.100000000000D+01
0.314917828265D-05 0.000000000000D+00 0.000000000000D+00 0.401664416386D-07 0.000000000000D+00  6 21 2 25 23 2 21 4 0.50317069D-02 0.35403804D+00 0.49076339D+05 0.49076339D+05 0.49076339D+05 0.11930846D+01  1  2 15  1  6  1       21 0.112533935222D-01 0.100000000000D+01
0.569520646065D-02 0.000000000000D+00 -.190388607031D-02 0.401664416386D-07 0.000000000000D+00  6 21 2 25 23 2 21 4 0.82404943D-01 0.35403804D+00 0.49076339D+05 0.49076339D+05 0.49076339D+05 0.11930846D+01  1  2  5  1  6  1       21 0.966053391428D-01 0.100000000000D+01
0.251974721410D-02 0.000000000000D+00 -.841158072323D-03 0.401664416386D-07 0.000000000000D+00  6 -1 2 25 23 2 -1 4 0.82404943D-01 0.35403804D+00 0.49076339D+05 0.49076339D+05 0.49076339D+05 0.11930846D+01  1  2  5  4  6  1       21 0.480345512373D-02 0.100000000000D+01
0.251974721410D-02 0.000000000000D+00 -.841158072323D-03 0.401664416386D-07 0.000000000000D+00  6 -3 2 25 23 2 -3 4 0.82404943D-01 0.35403804D+00 0.49076339D+05 0.49076339D+05 0.49076339D+05 0.11930846D+01  1  2  5  4  6  1       21 0.232795409095D-02 0.100000000000D+01
0.251974721410D-02 0.000000000000D+00 -.841158072323D-03 0.401664416386D-07 0.000000000000D+00  6 1 2 25 23 2 1 4 0.82404943D-01 0.35403804D+00 0.49076339D+05 0.49076339D+05 0.49076339D+05 0.11930846D+01  1  2  5  5  6  1       21 0.152743719980D-01 0.100000000000D+01
0.251974721410D-02 0.000000000000D+00 -.841158072323D-03 0.401664416386D-07 0.000000000000D+00  6 3 2 25 23 2 3 4 0.82404943D-01 0.35403804D+00 0.49076339D+05 0.49076339D+05 0.49076339D+05 0.11930846D+01  1  2  5  5  6  1       21 0.233113356720D-02 0.100000000000D+01
0.251974721410D-02 0.000000000000D+00 -.841158072323D-03 0.401664416386D-07 0.000000000000D+00  6 -2 2 25 23 2 -2 4 0.82404943D-01 0.35403804D+00 0.49076339D+05 0.49076339D+05 0.49076339D+05 0.11930846D+01  1  2  5  6  6  1       21 0.366295040286D-02 0.100000000000D+01
0.251974721410D-02 0.000000000000D+00 -.841158072323D-03 0.401664416386D-07 0.000000000000D+00  6 2 2 25 23 2 2 4 0.82404943D-01 0.35403804D+00 0.49076339D+05 0.49076339D+05 0.49076339D+05 0.11930846D+01  1  2  5  7  6  1       21 0.242368351341D-01 0.100000000000D+01
0.251974721410D-02 0.000000000000D+00 -.841158072323D-03 0.401664416386D-07 0.000000000000D+00  6 -4 2 25 23 2 -4 4 0.82404943D-01 0.35403804D+00 0.49076339D+05 0.49076339D+05 0.49076339D+05 0.11930846D+01  1  2  5  8  6  1       21 0.189114332504D-02 0.100000000000D+01
0.251974721410D-02 0.000000000000D+00 -.841158072323D-03 0.401664416386D-07 0.000000000000D+00  6 4 2 25 23 2 4 4 0.82404943D-01 0.35403804D+00 0.49076339D+05 0.49076339D+05 0.49076339D+05 0.11930846D+01  1  2  5  9  6  1       21 0.189114332504D-02 0.100000000000D+01
  </mgrwgt>
  </event>
  <event>
  5     66 0.38225901E-03 0.88846239E+02 0.75467711E-02 0.11725509E+00
       21 -1    0    0  501  502 0.00000000E+00 0.00000000E+00 0.73774611E+02 0.73778423E+02 0.75000000E+00 0.0000E+00 0.9000E+01
        2 -1    0    0  502    0 -.00000000E+00 -.00000000E+00 -.44700136E+03 0.44700147E+03 0.32000000E+00 0.0000E+00 0.9000E+01
       25  1    1    2    0    0 -.76473615E+02 -.69041175E+02 -.10919933E+03 0.19535709E+03 0.12500000E+03 0.0000E+00 0.9000E+01
       23  1    1    2    0    0 0.38745668E+02 -.11396316E+02 -.11810383E+03 0.15457965E+03 0.91188000E+02 0.0000E+00 0.9000E+01
        2  1    1    2  501    0 0.37727948E+02 0.80437492E+02 -.14592359E+03 0.17084316E+03 0.32000000E+00 0.0000E+00 0.9000E+01
#aMCatNLO 1  0  0  5  1 0.57593731D+01 0.00000000D+00  -5  6  0 0.00000000D+00 0.00000000D+00 0.00000000D+00 0.00000000D+00 0.00000000D+00
  <mgrwgt>
 0.2665005960D-01    6    2    0
 0.181599487055877D+03 0.000000000000000D+00 0.000000000000000D+00 0.181599487055877D+03
 0.181599487055877D+03 -.000000000000000D+00 -.000000000000000D+00 -.181599487055877D+03
 0.167902426598690D+03 -.764737140987713D+02 -.690413862677506D+02 0.441733278336041D+02
 0.100282390927199D+03 0.387456085648331D+02 -.113964423930862D+02 -.104978809193748D+02
 0.950141565858646D+02 0.377281055339381D+02 0.804378286608368D+02 -.336754469142293D+02
 0.000000000000000D+00 -.000000000000000D+00 0.000000000000000D+00 0.000000000000000D+00
 0.181599487055877D+03 0.000000000000000D+00 0.000000000000000D+00 0.181599487055877D+03
 0.181599487055877D+03 -.000000000000000D+00 -.000000000000000D+00 -.181599487055877D+03
 0.165800673004524D+03 -.751187092541904D+02 -.661524617914089D+02 0.429638742162960D+02
 0.100496814231449D+03 0.395608745782581D+02 -.965826267341042D+01 -.112255730991841D+02
 0.910032630693747D+02 0.380763300965639D+02 0.781408055595979D+02 -.269407030745010D+02
 0.589822380640562D+01 -.251849542063155D+01 -.233008109477859D+01 -.479759804261084D+01
0.265206343044D-05 0.000000000000D+00 0.000000000000D+00 0.935123264673D-07 0.000000000000D+00  6 21 2 25 23 2 21 2 0.11350242D-01 0.68769742D-01 0.30723975D+05 0.30723975D+05 0.30723975D+05 0.12138130D+01  1  2  2  3  6  5        2 0.223387956190D-01 0.100000000000D+01
-.258117353702D-06 0.139953232222D-06 -.535375197271D-08 0.935123264673D-07 0.000000000000D+00  6 21 2 25 23 2 21 4 0.11350242D-01 0.68769742D-01 0.30723975D+05 0.30723975D+05 0.30723975D+05 0.12138130D+01  1  2  3  3  6  5        2 -.320329259005D-02 0.100000000000D+01
0.306018814194D-06 0.000000000000D+00 0.000000000000D+00 0.935123264673D-07 0.000000000000D+00  6 21 2 25 23 2 21 4 0.11350242D-01 0.68769742D-01 0.30723975D+05 0.30723975D+05 0.30723975D+05 0.12138130D+01  1  2 15  3  6  5        2 0.379776015004D-02 0.100000000000D+01
0.138558176730D-05 0.000000000000D+00 0.000000000000D+00 0.935205114759D-07 0.000000000000D+00  6 21 2 25 23 2 21 4 0.11350242D-01 0.68769742D-01 0.30688093D+05 0.30688093D+05 0.30688093D+05 0.12138661D+01  1  2 12  3  6  5        2 0.171983763113D-01 0.100000000000D+01
-.337068410361D-05 0.000000000000D+00 0.000000000000D+00 0.935123264673D-07 0.000000000000D+00  6 21 2 25 23 2 21 4 0.11350242D-01 0.68769742D-01 0.30723975D+05 0.30723975D+05 0.30723975D+05 0.12138130D+01  1  2  4  3  6  5        2 -.418309240260D-01 0.100000000000D+01
0.228395597557D-05 0.000000000000D+00 0.000000000000D+00 0.935123264673D-07 0.755468489916D-07  6 21 2 25 23 2 21 4 0.11350242D-01 0.68769742D-01 0.30688093D+05 0.30688093D+05 0.30688093D+05 0.12138661D+01  1  2 11  3  6  5        2 0.283493441336D-01 0.100000000000D+01
  </mgrwgt>
  </event>
  <event>
  5     66 0.38225901E-03 0.46231438E+02 0.75467711E-02 0.11556740E+00
       21 -1    0    0  501  502 0.00000000E+00 0.00000000E+00 0.21876442E+02 0.21889294E+02 0.75000000E+00 0.0000E+00 0.9000E+01
        2 -1    0    0  502    0 0.00000000E+00 0.00000000E+00 -.29416054E+04 0.29416054E+04 0.32000000E+00 0.0000E+00 0.9000E+01
       25  1    1    2    0    0 0.15047660E+02 0.13124239E+03 -.11496521E+04 0.11639484E+04 0.12500000E+03 0.0000E+00 0.9000E+01
       23  1    1    2    0    0 -.22900986E+02 -.54378572E+02 -.16679616E+04 0.16714941E+04 0.91188000E+02 0.0000E+00 0.9000E+01
        2  1    1    2  501    0 0.78533258E+01 -.76863817E+02 -.10211519E+03 0.12805208E+03 0.32000000E+00 0.0000E+00 0.9000E+01
#aMCatNLO 1  0  0  2  1 0.17487228D+02 0.00000000D+00  -5  6  0 0.00000000D+00 0.00000000D+00 0.00000000D+00 0.00000000D+00 0.00000000D+00
  <mgrwgt>
 0.6584959305D-01    9    2    0
 0.253714264876068D+03 0.000000000000000D+00 0.000000000000000D+00 0.253714264876068D+03
 0.253714264876068D+03 0.000000000000000D+00 0.000000000000000D+00 -.253714264876068D+03
 0.182651363677125D+03 0.150476546939605D+02 0.131242444216059D+03 -.168970286594793D+02
 0.164492650908368D+03 -.229009911745736D+02 -.543785220180020D+02 -.123535832069978D+03
 0.160284515166643D+03 0.785333648061306D+01 -.768639221980572D+02 0.140432860729458D+03
 0.000000000000000D+00 -.000000000000000D+00 0.000000000000000D+00 -.000000000000000D+00
 0.260031043303015D+03 0.000000000000000D+00 0.000000000000000D+00 0.260031043303015D+03
 0.266263326906054D+03 0.000000000000000D+00 0.000000000000000D+00 -.266263326906054D+03
 0.182449966425548D+03 0.212327520897858D+02 0.130102463119874D+03 -.168970286594793D+02
 0.164153831902226D+03 -.173334669357347D+02 -.554046776269849D+02 -.123535832069978D+03
 0.161125968332057D+03 0.132982773246240D+02 -.778674843466841D+02 0.140432860729458D+03
 0.185646035492385D+02 -.171975624786751D+02 0.316969885379527D+01 -.623228360303928D+01
0.279625609389D-05 0.000000000000D+00 0.000000000000D+00 0.273833839713D-06 0.000000000000D+00  6 21 2 25 23 2 21 2 0.33665964D-02 0.45255566D+00 0.33809086D+05 0.33809086D+05 0.33809086D+05 0.12094875D+01  1  2  2  2  6  2        2 0.637671216619D-02 0.100000000000D+01
0.518381124410D-07 0.147562488125D-06 -.564483541648D-08 0.273833839713D-06 0.000000000000D+00  6 21 2 25 23 2 21 4 0.33665964D-02 0.45255566D+00 0.33809086D+05 0.33809086D+05 0.33809086D+05 0.12094875D+01  1  2  3  2  6  2        2 0.172930584785D-03 0.100000000000D+01
0.286809110723D-06 0.000000000000D+00 0.000000000000D+00 0.273833839713D-06 0.000000000000D+00  6 21 2 25 23 2 21 4 0.33665964D-02 0.45255566D+00 0.33809086D+05 0.33809086D+05 0.33809086D+05 0.12094875D+01  1  2 15  2  6  2        2 0.956787678092D-03 0.100000000000D+01
0.183948872800D-04 0.000000000000D+00 0.000000000000D+00 0.271850133422D-06 0.000000000000D+00  6 21 2 25 23 2 21 4 0.33665964D-02 0.48036076D+00 0.37296662D+05 0.37296662D+05 0.37296662D+05 0.12050986D+01  1  2 12  2  6  2        2 0.471106007280D-01 0.100000000000D+01
-.121243719560D-04 0.000000000000D+00 0.000000000000D+00 0.273833839713D-06 0.000000000000D+00  6 21 2 25 23 2 21 4 0.33665964D-02 0.45255566D+00 0.33809086D+05 0.33809086D+05 0.33809086D+05 0.12094875D+01  1  2  4  2  6  2        2 -.404465871493D-01 0.100000000000D+01
-.729118730961D-04 0.000000000000D+00 -.123402238950D-04 0.273833839713D-06 0.000000000000D+00  6 21 2 25 23 2 21 4 0.33665964D-02 0.47861189D+00 0.33809086D+05 0.33809086D+05 0.33809086D+05 0.12094875D+01  1  2  5  2  6  2        2 -.193391778467D+00 0.100000000000D+01
0.735067762246D-04 0.000000000000D+00 0.123209139716D-04 0.273833839713D-06 0.000000000000D+00  6 21 2 25 23 2 21 4 0.33665964D-02 0.45255566D+00 0.33809086D+05 0.33809086D+05 0.33809086D+05 0.12094875D+01  1  2  6  2  6  2        2 0.245216679382D+00 0.100000000000D+01
0.222171778429D-06 0.000000000000D+00 0.000000000000D+00 0.271850133422D-06 0.000000000000D+00  6 21 21 25 23 2 -2 4 0.33665964D-02 0.48036076D+00 0.37296662D+05 0.37296662D+05 0.37296662D+05 0.12050986D+01  1  2 12 10  6  2        2 0.634684546469D-04 0.100000000000D+01
-.691467016639D-06 0.000000000000D+00 -.119315832687D-06 0.273833839713D-06 0.000000000000D+00  6 21 21 25 23 2 -2 4 0.33665964D-02 0.47861189D+00 0.33809086D+05 0.33809086D+05 0.33809086D+05 0.12094875D+01  1  2  5 10  6  2        2 -.209220331617D-03 0.100000000000D+01
  </mgrwgt>
  </event>
  <event>
  5     66 0.38225901E-03 0.88599731E+02 0.75467711E-02 0.11318619E+00
       21 -1    0    0  501  502 0.00000000E+00 0.00000000E+00 0.31641662E+02 0.31650549E+02 0.75000000E+00 0.0000E+00 0.9000E+01
        2 -1    0    0  502    0 0.00000000E+00 0.00000000E+00 -.17681194E+04 0.17681194E+04 0.32000000E+00 0.0000E+00 0.9000E+01
       25  1    1    2    0    0 0.63776089E+02 0.78436186E+02 -.54419674E+03 0.56744579E+03 0.12500000E+03 0.0000E+00 0.9000E+01
       23  1    1    2    0    0 0.58676541E+02 -.26635333E+02 -.94491810E+03 0.95149243E+03 0.91188000E+02 0.0000E+00 0.9000E+01
        2  1    1    2  501    0 -.12245263E+03 -.51800853E+02 -.24736290E+03 0.28083177E+03 0.32000000E+00 0.0000E+00 0.9000E+01
#aMCatNLO 1  0  0  1  2 0.39545082D+02 0.00000000D+00  -5  6  0 0.00000000D+00 0.00000000D+00 0.00000000D+00 0.00000000D+00 0.00000000D+00
  <mgrwgt>
 0.2499673659D-01   23    2    0
 0.236546528954963D+03 0.000000000000000D+00 0.000000000000000D+00 0.236546528954963D+03
 0.236546528954963D+03 0.000000000000000D+00 0.000000000000000D+00 -.236546528954963D+03
 0.161250266798451D+03 0.637761717527549D+02 0.784362207139705D+02 0.125302729117919D+02
 0.151425378368496D+03 0.586766192894917D+02 -.266352995275727D+02 -.102283962759930D+03
 0.160417412742979D+03 -.122452791042247D+03 -.518009211863978D+02 0.897536898481381D+02
 0.000000000000000D+00 0.000000000000000D+00 -.000000000000000D+00 0.000000000000000D+00
 0.284225392603442D+03 0.000000000000000D+00 0.000000000000000D+00 0.284225392603442D+03
 0.245715558039662D+03 0.000000000000000D+00 0.000000000000000D+00 -.245715558039662D+03
 0.165502976246581D+03 0.580167937459212D+02 0.907925054763645D+02 0.125302729117919D+02
 0.147863420881002D+03 0.534013316993035D+02 -.153175920267719D+02 -.102283962759930D+03
 0.161376538516787D+03 -.128124756187401D+03 -.396321737256921D+02 0.897536898481381D+02
 0.551980149987336D+02 0.167066307421763D+02 -.358427397239005D+02 0.385098345637801D+02
0.154196834110D-05 0.000000000000D+00 0.000000000000D+00 0.126861187054D-06 0.000000000000D+00  6 21 2 25 23 2 21 2 0.48686339D-02 0.27201906D+00 0.41083231D+05 0.41083231D+05 0.41083231D+05 0.12008236D+01  1  2  2  1  6  1       21 0.793174637111D-02 0.100000000000D+01
-.898189719316D-07 0.813719049267D-07 -.311278981991D-08 0.126861187054D-06 0.000000000000D+00  6 21 2 25 23 2 21 4 0.48686339D-02 0.27201906D+00 0.41083231D+05 0.41083231D+05 0.41083231D+05 0.12008236D+01  1  2  3  1  6  1       21 -.666223381213D-03 0.100000000000D+01
0.177957283777D-06 0.000000000000D+00 0.000000000000D+00 0.126861187054D-06 0.000000000000D+00  6 21 2 25 23 2 21 4 0.48686339D-02 0.27201906D+00 0.41083231D+05 0.41083231D+05 0.41083231D+05 0.12008236D+01  1  2 15  1  6  1       21 0.131998063171D-02 0.100000000000D+01
0.388541464917D-05 0.000000000000D+00 0.000000000000D+00 0.125133513207D-06 0.000000000000D+00  6 21 2 25 23 2 21 4 0.59310500D-02 0.27201906D+00 0.49609899D+05 0.49609899D+05 0.49609899D+05 0.11926188D+01  1  2 12  1  6  1       21 0.199200584121D-01 0.100000000000D+01
-.350876343771D-05 0.000000000000D+00 0.000000000000D+00 0.126861187054D-06 0.000000000000D+00  6 21 2 25 23 2 21 4 0.48686339D-02 0.27201906D+00 0.41083231D+05 0.41083231D+05 0.41083231D+05 0.12008236D+01  1  2  4  1  6  1       21 -.260259073454D-01 0.100000000000D+01
-.127909629703D-04 0.000000000000D+00 -.256581790497D-05 0.126861187054D-06 0.000000000000D+00  6 21 2 25 23 2 21 4 0.60944542D-02 0.27201906D+00 0.41083231D+05 0.41083231D+05 0.41083231D+05 0.12008236D+01  1  2  5  1  6  1       21 -.646972903563D-01 0.100000000000D+01
0.119305090143D-04 0.000000000000D+00 0.232442871956D-05 0.126861187054D-06 0.000000000000D+00  6 21 2 25 23 2 21 4 0.48686339D-02 0.27201906D+00 0.41083231D+05 0.41083231D+05 0.41083231D+05 0.12008236D+01  1  2  6  1  6  1       21 0.884933760001D-01 0.100000000000D+01
0.219405687455D-06 0.000000000000D+00 0.000000000000D+00 0.125133513207D-06 0.000000000000D+00  6 -1 2 25 23 2 -1 4 0.59310500D-02 0.27201906D+00 0.49609899D+05 0.49609899D+05 0.49609899D+05 0.11926188D+01  1  2 12  4  6  1       21 0.677965107023D-04 0.100000000000D+01
0.219405687455D-06 0.000000000000D+00 0.000000000000D+00 0.125133513207D-06 0.000000000000D+00  6 -3 2 25 23 2 -3 4 0.59310500D-02 0.27201906D+00 0.49609899D+05 0.49609899D+05 0.49609899D+05 0.11926188D+01  1  2 12  4  6  1       21 0.483086805633D-04 0.100000000000D+01
-.815320275752D-06 0.000000000000D+00 -.169384975470D-06 0.126861187054D-06 0.000000000000D+00  6 -1 2 25 23 2 -1 4 0.60944542D-02 0.27201906D+00 0.41083231D+05 0.41083231D+05 0.41083231D+05 0.12008236D+01  1  2  5  4  6  1       21 -.248976407650D-03 0.100000000000D+01
-.815320275752D-06 0.000000000000D+00 -.169384975470D-06 0.126861187054D-06 0.000000000000D+00  6 -3 2 25 23 2 -3 4 0.60944542D-02 0.27201906D+00 0.41083231D+05 0.41083231D+05 0.41083231D+05 0.12008236D+01  1  2  5  4  6  1       21 -.176243477658D-03 0.100000000000D+01
0.219405687455D-06 0.000000000000D+00 0.000000000000D+00 0.125133513207D-06 0.000000000000D+00  6 1 2 25 23 2 1 4 0.59310500D-02 0.27201906D+00 0.49609899D+05 0.49609899D+05 0.49609899D+05 0.11926188D+01  1  2 12  5  6  1       21 0.779068131342D-04 0.100000000000D+01
0.219405687455D-06 0.000000000000D+00 0.000000000000D+00 0.125133513207D-06 0.000000000000D+00  6 3 2 25 23 2 3 4 0.59310500D-02 0.27201906D+00 0.49609899D+05 0.49609899D+05 0.49609899D+05 0.11926188D+01  1  2 12  5  6  1       21 0.483038783372D-04 0.100000000000D+01
-.815320275752D-06 0.000000000000D+00 -.169384975470D-06 0.126861187054D-06 0.000000000000D+00  6 1 2 25 23 2 1 4 0.60944542D-02 0.27201906D+00 0.41083231D+05 0.41083231D+05 0.41083231D+05 0.12008236D+01  1  2  5  5  6  1       21 -.287206469028D-03 0.100000000000D+01
-.815320275752D-06 0.000000000000D+00 -.169384975470D-06 0.126861187054D-06 0.000000000000D+00  6 3 2 25 23 2 3 4 0.60944542D-02 0.27201906D+00 0.41083231D+05 0.41083231D+05 0.41083231D+05 0.12008236D+01  1  2  5  5  6  1       21 -.176225486998D-03 0.100000000000D+01
0.219405687455D-06 0.000000000000D+00 0.000000000000D+00 0.125133513207D-06 0.000000000000D+00  6 -2 2 25 23 2 -2 4 0.59310500D-02 0.27201906D+00 0.49609899D+05 0.49609899D+05 0.49609899D+05 0.11926188D+01  1  2 12  6  6  1       21 0.660272195038D-04 0.100000000000D+01
-.815320275752D-06 0.000000000000D+00 -.169384975470D-06 0.126861187054D-06 0.000000000000D+00  6 -2 2 25 23 2 -2 4 0.60944542D-02 0.27201906D+00 0.41083231D+05 0.41083231D+05 0.41083231D+05 0.12008236D+01  1  2  5  6  6  1       21 -.242287480224D-03 0.100000000000D+01
0.219405687455D-06 0.000000000000D+00 0.000000000000D+00 0.125133513207D-06 0.000000000000D+00  6 2 2 25 23 2 2 4 0.59310500D-02 0.27201906D+00 0.49609899D+05 0.49609899D+05 0.49609899D+05 0.11926188D+01  1  2 12  7  6  1       21 0.847209282708D-04 0.100000000000D+01
-.815320275752D-06 0.000000000000D+00 -.169384975470D-06 0.126861187054D-06 0.000000000000D+00  6 2 2 25 23 2 2 4 0.60944542D-02 0.27201906D+00 0.41083231D+05 0.41083231D+05 0.41083231D+05 0.12008236D+01  1  2  5  7  6  1       21 -.312949677459D-03 0.100000000000D+01
0.219405687455D-06 0.000000000000D+00 0.000000000000D+00 0.125133513207D-06 0.000000000000D+00  6 -4 2 25 23 2 -4 4 0.59310500D-02 0.27201906D+00 0.49609899D+05 0.49609899D+05 0.49609899D+05 0.11926188D+01  1  2 12  8  6  1       21 0.432194709230D-04 0.100000000000D+01
-.815320275752D-06 0.000000000000D+00 -.169384975470D-06 0.126861187054D-06 0.000000000000D+00  6 -4 2 25 23 2 -4 4 0.60944542D-02 0.27201906D+00 0.41083231D+05 0.41083231D+05 0.41083231D+05 0.12008236D+01  1  2  5  8  6  1       21 -.157308855788D-03 0.100000000000D+01
0.219405687455D-06 0.000000000000D+00 0.000000000000D+00 0.125133513207D-06 0.000000000000D+00  6 4 2 25 23 2 4 4 0.59310500D-02 0.27201906D+00 0.49609899D+05 0.49609899D+05 0.49609899D+05 0.11926188D+01  1  2 12  9  6  1       21 0.432194709230D-04 0.100000000000D+01
-.815320275752D-06 0.000000000000D+00 -.169384975470D-06 0.126861187054D-06 0.000000000000D+00  6 4 2 25 23 2 4 4 0.60944542D-02 0.27201906D+00 0.41083231D+05 0.41083231D+05 0.41083231D+05 0.12008236D+01  1  2  5  9  6  1       21 -.157308855788D-03 0.100000000000D+01
  </mgrwgt>
  </event>
  <event>
  5     66 0.38225901E-03 0.23868084E+02 0.75467711E-02 0.12145264E+00
       21 -1    0    0  501  502 0.00000000E+00 0.00000000E+00 0.42476718E+03 0.42476784E+03 0.75000000E+00 0.0000E+00 0.9000E+01
        2 -1    0    0  502    0 0.00000000E+00 0.00000000E+00 -.41201824E+02 0.41203067E+02 0.32000000E+00 0.0000E+00 0.9000E+01
       25  1    1    2    0    0 -.30860206E+02 0.33673162E+02 0.23940586E+03 0.27390948E+03 0.12500000E+03 0.0000E+00 0.9000E+01
       23  1    1    2    0    0 0.77985830E+01 -.39818124E+02 0.96858766E+02 0.13907974E+03 0.91188000E+02 0.0000E+00 0.9000E+01
        2  1    1    2  501    0 0.23061623E+02 0.61449622E+01 0.47300731E+02 0.52981700E+02 0.32000000E+00 0.0000E+00 0.9000E+01
#aMCatNLO 1  0  0  2  1 0.20733208D+02 0.00000000D+00  -5  6  0 0.00000000D+00 0.00000000D+00 0.00000000D+00 0.00000000D+00 0.00000000D+00
  <mgrwgt>
 0.1644768287D+00    9    2    0
 0.132293712664110D+03 0.000000000000000D+00 0.000000000000000D+00 0.132293712664110D+03
 0.132293712664110D+03 0.000000000000000D+00 0.000000000000000D+00 -.132293712664110D+03
 0.135327978971942D+03 -.308611930783862D+02 0.336728985991739D+02 0.245435236740484D+02
 0.104522979278997D+03 0.779782056672345D+01 -.398183269515228D+02 -.310402430169034D+02
 0.247364670772809D+02 0.230633725116627D+02 0.614542835234893D+01 0.649671934285507D+01
 0.000000000000000D+00 0.000000000000000D+00 -.000000000000000D+00 -.000000000000000D+00
 0.135048376260526D+03 0.000000000000000D+00 0.000000000000000D+00 0.135048376260526D+03
 0.178446824065012D+03 0.000000000000000D+00 0.000000000000000D+00 -.178446824065012D+03
 0.139275052346634D+03 -.393028204129421D+02 0.403167950041544D+02 0.245435236740484D+02
 0.102433503347358D+03 0.143572946957392D+01 -.348111082609415D+02 -.310402430169034D+02
 0.236899588994245D+02 0.215746859546467D+02 0.731708387234728D+01 0.649671934285507D+01
 0.480966857321219D+02 0.162924049887214D+02 -.128227706155602D+02 -.433984478044862D+02
0.406313780530D-05 0.000000000000D+00 0.000000000000D+00 0.516909051234D-06 0.000000000000D+00  6 21 2 25 23 2 21 2 0.65348944D-01 0.63388887D-02 0.16481348D+05 0.16481348D+05 0.16481348D+05 0.12431865D+01  1  2  2  2  6  2        2 0.186910302549D-01 0.100000000000D+01
0.180284088028D-06 0.214417672779D-06 -.820230458701D-08 0.516909051234D-06 0.000000000000D+00  6 21 2 25 23 2 21 4 0.65348944D-01 0.63388887D-02 0.16481348D+05 0.16481348D+05 0.16481348D+05 0.12431865D+01  1  2  3  2  6  2        2 0.128174509847D-02 0.100000000000D+01
0.396884962372D-06 0.000000000000D+00 0.000000000000D+00 0.516909051234D-06 0.000000000000D+00  6 21 2 25 23 2 21 4 0.65348944D-01 0.63388887D-02 0.16481348D+05 0.16481348D+05 0.16481348D+05 0.12431865D+01  1  2 15  2  6  2        2 0.282168748634D-02 0.100000000000D+01
0.545007912868D-04 0.000000000000D+00 0.000000000000D+00 0.510456074582D-06 0.000000000000D+00  6 21 2 25 23 2 21 4 0.65348944D-01 0.85994457D-02 0.19352649D+05 0.19352649D+05 0.19352649D+05 0.12354023D+01  1  2 12  2  6  2        2 0.256990098428D+00 0.100000000000D+01
-.344174881896D-04 0.000000000000D+00 0.000000000000D+00 0.516909051234D-06 0.000000000000D+00  6 21 2 25 23 2 21 4 0.65348944D-01 0.63388887D-02 0.16481348D+05 0.16481348D+05 0.16481348D+05 0.12431865D+01  1  2  4  2  6  2        2 -.244694067408D+00 0.100000000000D+01
-.638804297712D-04 0.000000000000D+00 -.683046135925D-05 0.516909051234D-06 0.000000000000D+00  6 21 2 25 23 2 21 4 0.65348944D-01 0.87094706D-02 0.16481348D+05 0.16481348D+05 0.16481348D+05 0.12431865D+01  1  2  5  2  6  2        2 -.304173318727D+00 0.100000000000D+01
0.631664624131D-04 0.000000000000D+00 0.649966115059D-05 0.516909051234D-06 0.000000000000D+00  6 21 2 25 23 2 21 4 0.65348944D-01 0.63388887D-02 0.16481348D+05 0.16481348D+05 0.16481348D+05 0.12431865D+01  1  2  6  2  6  2        2 0.449087351363D+00 0.100000000000D+01
0.213201215429D-05 0.000000000000D+00 0.000000000000D+00 0.510456074582D-06 0.000000000000D+00  6 21 21 25 23 2 -2 4 0.65348944D-01 0.85994457D-02 0.19352649D+05 0.19352649D+05 0.19352649D+05 0.12354023D+01  1  2 12 10  6  2        2 0.114817486984D+00 0.100000000000D+01
-.240637757163D-05 0.000000000000D+00 -.275186340537D-06 0.516909051234D-06 0.000000000000D+00  6 21 21 25 23 2 -2 4 0.65348944D-01 0.87094706D-02 0.16481348D+05 0.16481348D+05 0.16481348D+05 0.12431865D+01  1  2  5 10  6  2        2 -.130345184747D+00 0.100000000000D+01
  </mgrwgt>
  </event>
  <event>
  5     66 0.38225901E-03 0.26792995E+02 0.75467711E-02 0.11972393E+00
       21 -1    0    0  501  502 0.00000000E+00 0.00000000E+00 0.39533129E+02 0.39540242E+02 0.75000000E+00 0.0000E+00 0.9000E+01
        2 -1    0    0  502    0 0.00000000E+00 0.00000000E+00 -.54961402E+03 0.54961411E+03 0.32000000E+00 0.0000E+00 0.9000E+01
       25  1    1    2    0    0 -.50374453E+02 0.17924255E+02 -.17615306E+03 0.22251689E+03 0.12500000E+03 0.0000E+00 0.9000E+01
       23  1    1    2    0    0 0.75701260E+02 -.26660886E+02 -.29808457E+03 0.32188685E+03 0.91188000E+02 0.0000E+00 0.9000E+01
        2  1    1    2  501    0 -.25326807E+02 0.87366306E+01 -.35843258E+02 0.44750614E+02 0.32000000E+00 0.0000E+00 0.9000E+01
#aMCatNLO 1  0  0  2  1 0.20474532D+02 0.00000000D+00  -5  6  0 0.00000000D+00 0.00000000D+00 0.00000000D+00 0.00000000D+00 0.00000000D+00
  <mgrwgt>
 0.2560735609D+00    9    2    0
 0.147411277322526D+03 0.000000000000000D+00 0.000000000000000D+00 0.147411277322526D+03
 0.147411277322526D+03 0.000000000000000D+00 0.000000000000000D+00 -.147411277322526D+03
 0.139895580737943D+03 -.503736342412694D+02 0.179239726337944D+02 0.329697086483337D+02
 0.127513852354999D+03 0.757020061065556D+02 -.266611432129130D+02 -.387675239399679D+02
 0.274131215521097D+02 -.253283718652861D+02 0.873717057911860D+01 0.579781529163418D+01
 0.000000000000000D+00 0.000000000000000D+00 0.000000000000000D+00 -.000000000000000D+00
 0.151437978464593D+03 0.000000000000000D+00 0.000000000000000D+00 0.151437978464593D+03
 0.176309747749928D+03 0.000000000000000D+00 0.000000000000000D+00 -.176309747749928D+03
 0.143188349032702D+03 -.597288071810774D+02 0.149456081535912D+02 0.329697086483337D+02
 0.123373134653637D+03 0.674108567159322D+02 -.293007592845746D+02 -.387675239399679D+02
 0.289711628651787D+02 -.271917228942139D+02 0.814394386333086D+01 0.579781529163418D+01
 0.322150796630025D+02 0.195096733593592D+02 0.621120726765261D+01 -.248717692853357D+02
0.165409835606D-05 0.000000000000D+00 0.000000000000D+00 0.343828767699D-06 0.000000000000D+00  6 21 2 25 23 2 21 2 0.60825742D-02 0.84556557D-01 0.20196084D+05 0.20196084D+05 0.20196084D+05 0.12333598D+01  1  2  2  2  6  2        2 0.337525521234D-01 0.100000000000D+01
0.660884217529D-07 0.872891683836D-07 -.333914801402D-08 0.343828767699D-06 0.000000000000D+00  6 21 2 25 23 2 21 4 0.60825742D-02 0.84556557D-01 0.20196084D+05 0.20196084D+05 0.20196084D+05 0.12333598D+01  1  2  3  2  6  2        2 0.205139964049D-02 0.100000000000D+01
0.158576913955D-06 0.000000000000D+00 0.000000000000D+00 0.343828767699D-06 0.000000000000D+00  6 21 2 25 23 2 21 4 0.60825742D-02 0.84556557D-01 0.20196084D+05 0.20196084D+05 0.20196084D+05 0.12333598D+01  1  2 15  2  6  2        2 0.492226347140D-02 0.100000000000D+01
0.154042120231D-04 0.000000000000D+00 0.000000000000D+00 0.340058335518D-06 0.000000000000D+00  6 21 2 25 23 2 21 4 0.60825742D-02 0.10213415D+00 0.23305761D+05 0.23305761D+05 0.23305761D+05 0.12265787D+01  1  2 12  2  6  2        2 0.377464071777D+00 0.100000000000D+01
-.101479997254D-04 0.000000000000D+00 0.000000000000D+00 0.343828767699D-06 0.000000000000D+00  6 21 2 25 23 2 21 4 0.60825742D-02 0.84556557D-01 0.20196084D+05 0.20196084D+05 0.20196084D+05 0.12333598D+01  1  2  4  2  6  2        2 -.314996219250D+00 0.100000000000D+01
-.241185532583D-04 0.000000000000D+00 -.381634871291D-05 0.343828767699D-06 0.000000000000D+00  6 21 2 25 23 2 21 4 0.60825742D-02 0.10276386D+00 0.20196084D+05 0.20196084D+05 0.20196084D+05 0.12333598D+01  1  2  5  2  6  2        2 -.598992316708D+00 0.100000000000D+01
0.244674997632D-04 0.000000000000D+00 0.374491302313D-05 0.343828767699D-06 0.000000000000D+00  6 21 2 25 23 2 21 4 0.60825742D-02 0.84556557D-01 0.20196084D+05 0.20196084D+05 0.20196084D+05 0.12333598D+01  1  2  6  2  6  2        2 0.759476756844D+00 0.100000000000D+01
0.421773000182D-06 0.000000000000D+00 0.000000000000D+00 0.340058335518D-06 0.000000000000D+00  6 21 21 25 23 2 -2 4 0.60825742D-02 0.10213415D+00 0.23305761D+05 0.23305761D+05 0.23305761D+05 0.12265787D+01  1  2 12 10  6  2        2 0.145683808289D-01 0.100000000000D+01
-.634847621968D-06 0.000000000000D+00 -.107112109731D-06 0.343828767699D-06 0.000000000000D+00  6 21 21 25 23 2 -2 4 0.60825742D-02 0.10276386D+00 0.20196084D+05 0.20196084D+05 0.20196084D+05 0.12333598D+01  1  2  5 10  6  2        2 -.221733278431D-01 0.100000000000D+01
  </mgrwgt>
  </event>
  <event>
  5     66 -.38225901E-03 0.25869008E+02 0.75467711E-02 0.12042428E+00
       21 -1    0    0  501  502 0.00000000E+00 0.00000000E+00 0.15368257E+02 0.15386547E+02 0.75000000E+00 0.0000E+00 0.9000E+01
        2 -1    0    0  502    0 -.00000000E+00 -.00000000E+00 -.14815447E+04 0.14815448E+04 0.32000000E+00 0.0000E+00 0.9000E+01
       25  1    1    2    0    0 0.13985111E+02 0.75468481E+02 -.61903130E+03 0.63617280E+03 0.12500000E+03 0.0000E+00 0.9000E+01
       23  1    1    2    0    0 -.39500622E+02 -.71215966E+02 -.76279351E+03 0.77252910E+03 0.91188000E+02 0.0000E+00 0.9000E+01
        2  1    1    2  501    0 0.25515511E+02 -.42525156E+01 -.84351668E+02 0.88229426E+02 0.32000000E+00 0.0000E+00 0.9000E+01
#aMCatNLO 1  0  0  5  1 0.24156839D+01 0.00000000D+00  -5  6  0 0.00000000D+00 0.00000000D+00 0.00000000D+00 0.00000000D+00 0.00000000D+00
  <mgrwgt>
 -.2494858175D+00    8    2    0
 0.150938646335764D+03 0.000000000000000D+00 0.000000000000000D+00 0.150938646335764D+03
 0.150938646335764D+03 -.000000000000000D+00 -.000000000000000D+00 -.150938646335764D+03
 0.148066228512694D+03 0.139842833838077D+02 0.754686192471266D+02 0.201875048767006D+02
 0.125988808972440D+03 -.395013268642053D+02 -.712158482561316D+02 -.304282233365810D+02
 0.278222551863950D+02 0.255170434803976D+02 -.425277099099494D+01 0.102407184598804D+02
 0.000000000000000D+00 0.000000000000000D+00 0.000000000000000D+00 0.000000000000000D+00
 0.150938646335764D+03 0.000000000000000D+00 0.000000000000000D+00 0.150938646335764D+03
 0.150938646335764D+03 -.000000000000000D+00 -.000000000000000D+00 -.150938646335764D+03
 0.148097305970286D+03 0.144544660949910D+02 0.753902567441930D+02 0.203762026297781D+02
 0.125863052923721D+03 -.391014923894796D+02 -.712824862448398D+02 -.302677583403378D+02
 0.242939439432619D+02 0.231160998285345D+02 -.328195023509848D+01 0.671345244191954D+01
 0.362298983426037D+01 0.153092646595411D+01 -.825820264254740D+00 0.317810326864019D+01
0.730148261881D-06 0.000000000000D+00 0.000000000000D+00 0.396929468920D-06 0.000000000000D+00  6 21 2 25 23 2 21 2 0.23657568D-02 0.22793137D+00 0.21728492D+05 0.21728492D+05 0.21728492D+05 0.12298824D+01  1  2  2  3  6  5        2 0.185482888051D-01 0.100000000000D+01
0.417675853801D-07 0.385309823584D-07 -.147395897570D-08 0.396929468920D-06 0.000000000000D+00  6 21 2 25 23 2 21 4 0.23657568D-02 0.22793137D+00 0.21728492D+05 0.21728492D+05 0.21728492D+05 0.12298824D+01  1  2  3  3  6  5        2 0.160494193167D-02 0.100000000000D+01
0.841392767192D-07 0.000000000000D+00 0.000000000000D+00 0.396929468920D-06 0.000000000000D+00  6 21 2 25 23 2 21 4 0.23657568D-02 0.22793137D+00 0.21728492D+05 0.21728492D+05 0.21728492D+05 0.12298824D+01  1  2 15  3  6  5        2 0.323309695971D-02 0.100000000000D+01
0.122818714059D-08 0.000000000000D+00 0.000000000000D+00 0.397109355788D-06 0.000000000000D+00  6 21 2 25 23 2 21 4 0.23657568D-02 0.22793137D+00 0.21601015D+05 0.21601015D+05 0.21601015D+05 0.12301610D+01  1  2 12  3  6  5        2 0.472355655350D-04 0.100000000000D+01
-.303333542329D-04 0.000000000000D+00 0.000000000000D+00 0.396929468920D-06 0.000000000000D+00  6 21 2 25 23 2 21 4 0.23657568D-02 0.22793137D+00 0.21728492D+05 0.21728492D+05 0.21728492D+05 0.12298824D+01  1  2  4  3  6  5        2 -.116557545028D+01 0.100000000000D+01
-.295176814148D-05 0.000000000000D+00 0.000000000000D+00 0.396929468920D-06 0.000000000000D+00  6 21 2 25 23 2 21 4 0.23657568D-02 0.22793137D+00 0.21728492D+05 0.21728492D+05 0.21728492D+05 0.12298824D+01  1  2  5  3  6  5        2 -.113423278356D+00 0.100000000000D+01
0.379766371527D-05 0.000000000000D+00 -.000000000000D+00 0.396929468920D-06 0.000000000000D+00  6 21 2 25 23 2 21 4 0.23657568D-02 0.22793137D+00 0.21728492D+05 0.21728492D+05 0.21728492D+05 0.12298824D+01  1  2  6  3  6  5        2 0.145927270718D+00 0.100000000000D+01
0.223650909675D-04 0.000000000000D+00 0.000000000000D+00 0.396929468920D-06 0.367792575900D-05  6 21 2 25 23 2 21 4 0.23657568D-02 0.22793137D+00 0.21601015D+05 0.21601015D+05 0.21601015D+05 0.12301610D+01  1  2 11  3  6  5        2 0.860152077141D+00 0.100000000000D+01
  </mgrwgt>
  </event>
  <event>
  5     66 -.38225901E-03 0.47277415E+02 0.75467711E-02 0.12161944E+00
       21 -1    0    0  501  502 0.00000000E+00 0.00000000E+00 0.53591177E+02 0.53596425E+02 0.75000000E+00 0.0000E+00 0.9000E+01
        2 -1    0    0  502    0 -.00000000E+00 -.00000000E+00 -.38593074E+03 0.38593088E+03 0.32000000E+00 0.0000E+00 0.9000E+01
       25  1    1    2    0    0 0.35376524E+01 -.20829163E+02 -.10292032E+03 0.16329103E+03 0.12500000E+03 0.0000E+00 0.9000E+01
       23  1    1    2    0    0 -.48160054E+02 0.52108917E+01 -.12892973E+03 0.16518072E+03 0.91188000E+02 0.0000E+00 0.9000E+01
        2  1    1    2  501    0 0.44622402E+02 0.15618271E+02 -.10048952E+03 0.11105555E+03 0.32000000E+00 0.0000E+00 0.9000E+01
#aMCatNLO 1  0  0  5  1 0.11598981D+02 0.00000000D+00  -5  6  0 0.00000000D+00 0.00000000D+00 0.00000000D+00 0.00000000D+00 0.00000000D+00
  <mgrwgt>
 -.1255867243D+00    7    2    0
 0.143818167572311D+03 0.000000000000000D+00 0.000000000000000D+00 0.143818167572311D+03
 0.143818167572311D+03 -.000000000000000D+00 -.000000000000000D+00 -.143818167572311D+03
 0.130603768900159D+03 0.353729121081458D+01 -.208292890896339D+02 0.314002028311383D+02
 0.103439714419048D+03 -.481603403266458D+02 0.521079155619833D+01 -.616055566274401D+01
 0.535928518254147D+02 0.446230491158312D+02 0.156184975334355D+02 -.252396471683943D+02
 0.000000000000000D+00 0.000000000000000D+00 0.000000000000000D+00 0.000000000000000D+00
 0.143818167572311D+03 0.000000000000000D+00 0.000000000000000D+00 0.143818167572311D+03
 0.143818167572311D+03 -.000000000000000D+00 -.000000000000000D+00 -.143818167572311D+03
 0.130231800573467D+03 0.599462292433551D+01 -.199691992914931D+02 0.300102891731993D+02
 0.102658682780524D+03 -.462186874739832D+02 0.589038877985241D+01 -.725879152729688D+01
 0.168809567672560D+02 0.379615472388116D+01 0.913558538124690D+01 -.136783401928841D+02
 0.378648950233748D+02 0.364279098257665D+02 0.494322513039380D+01 -.907315745301839D+01
0.670268805207D-05 0.000000000000D+00 0.000000000000D+00 0.180945391561D-06 0.000000000000D+00  6 21 2 25 23 2 21 2 0.82452104D-02 0.59374374D-01 0.19224714D+05 0.19224714D+05 0.19224714D+05 0.12357208D+01  1  2  2  3  6  5        2 0.119623787814D+00 0.100000000000D+01
-.503577936430D-06 0.353710566157D-06 -.135307960471D-07 0.180945391561D-06 0.000000000000D+00  6 21 2 25 23 2 21 4 0.82452104D-02 0.59374374D-01 0.19224714D+05 0.19224714D+05 0.19224714D+05 0.12357208D+01  1  2  3  3  6  5        2 -.137238499205D-01 0.100000000000D+01
0.746675851794D-06 0.000000000000D+00 0.000000000000D+00 0.180945391561D-06 0.000000000000D+00  6 21 2 25 23 2 21 4 0.82452104D-02 0.59374374D-01 0.19224714D+05 0.19224714D+05 0.19224714D+05 0.12357208D+01  1  2 15  3  6  5        2 0.203489203715D-01 0.100000000000D+01
0.221472621118D-05 0.000000000000D+00 0.000000000000D+00 0.181100499938D-06 0.000000000000D+00  6 21 2 25 23 2 21 4 0.82452104D-02 0.59374374D-01 0.19014109D+05 0.19014109D+05 0.19014109D+05 0.12362503D+01  1  2 12  3  6  5        2 0.604507867319D-01 0.100000000000D+01
-.138243599834D-04 0.000000000000D+00 0.000000000000D+00 0.180945391561D-06 0.000000000000D+00  6 21 2 25 23 2 21 4 0.82452104D-02 0.59374374D-01 0.19224714D+05 0.19224714D+05 0.19224714D+05 0.12357208D+01  1  2  4  3  6  5        2 -.376750901765D+00 0.100000000000D+01
-.193272517237D-05 0.000000000000D+00 0.000000000000D+00 0.180945391561D-06 0.000000000000D+00  6 21 2 25 23 2 21 4 0.82452104D-02 0.59374374D-01 0.19224714D+05 0.19224714D+05 0.19224714D+05 0.12357208D+01  1  2  5  3  6  5        2 -.526719466527D-01 0.100000000000D+01
0.429816317985D-05 0.000000000000D+00 -.000000000000D+00 0.180945391561D-06 0.000000000000D+00  6 21 2 25 23 2 21 4 0.82452104D-02 0.59374374D-01 0.19224714D+05 0.19224714D+05 0.19224714D+05 0.12357208D+01  1  2  6  3  6  5        2 0.117136479076D+00 0.100000000000D+01
  </mgrwgt>
  </event>
  <event>
  5     66 0.38225901E-03 0.23224993E+02 0.75467711E-02 0.11799618E+00
       21 -1    0    0  501  502 0.00000000E+00 0.00000000E+00 0.25126848E+02 0.25138039E+02 0.75000000E+00 0.0000E+00 0.9000E+01
        2 -1    0    0  502    0 0.00000000E+00 0.00000000E+00 -.98514012E+03 0.98514017E+03 0.32000000E+00 0.0000E+00 0.9000E+01
       25  1    1    2    0    0 0.24944012E+02 -.56978320E+02 -.63830850E+03 0.65339993E+03 0.12500000E+03 0.0000E+00 0.9000E+01
       23  1    1    2    0    0 -.42763977E+02 0.71871785E+02 -.30219684E+03 0.32654631E+03 0.91188000E+02 0.0000E+00 0.9000E+01
        2  1    1    2  501    0 0.17819964E+02 -.14893465E+02 -.19507934E+02 0.30331969E+02 0.32000000E+00 0.0000E+00 0.9000E+01
#aMCatNLO 1  0  0  1  5 0.35959077D+02 0.00000000D+00  -5  6  0 0.00000000D+00 0.00000000D+00 0.00000000D+00 0.00000000D+00 0.00000000D+00
  <mgrwgt>
 0.2579074901D+00    4    2    0
 0.157350389917186D+03 0.000000000000000D+00 0.000000000000000D+00 0.157350389917186D+03
 0.157350389917186D+03 0.000000000000000D+00 0.000000000000000D+00 -.157350389917186D+03
 0.150400321018176D+03 0.249437081868677D+02 -.569780662474418D+02 -.559157218585341D+02
 0.126436555141545D+03 -.427642324799328D+02 0.718719987857138D+02 0.260112926055130D+02
 0.378639036746512D+02 0.178205242930651D+02 -.148939325382720D+02 0.299044292530210D+02
 0.000000000000000D+00 -.000000000000000D+00 0.000000000000000D+00 -.000000000000000D+00
 0.164932979826663D+03 0.000000000000000D+00 0.000000000000000D+00 0.164932979826663D+03
 0.238834888228164D+03 0.000000000000000D+00 0.000000000000000D+00 -.238834888228164D+03
 0.160154568238213D+03 0.391664839234412D+02 -.732386804474406D+02 -.559157218585341D+02
 0.116167070790725D+03 -.316534849635233D+02 0.591693040245677D+02 0.260112926055130D+02
 0.414396296831064D+02 0.214524631518157D+02 -.190462553811515D+02 0.299044292530210D+02
 0.860065993427822D+02 -.289654621117337D+02 0.331156318040244D+02 -.739019084015012D+02
0.100449680131D-04 0.000000000000D+00 0.000000000000D+00 0.718592693471D-06 0.000000000000D+00  6 21 2 25 23 2 21 2 0.38665338D-02 0.15156088D+00 0.20531569D+05 0.20531569D+05 0.20531569D+05 0.12325738D+01  1  2  2  1  6  1       21 0.215148205892D+00 0.100000000000D+01
0.915745672665D-06 0.530087525384D-06 -.202778963349D-07 0.718592693471D-06 0.000000000000D+00  6 21 2 25 23 2 21 4 0.38665338D-02 0.15156088D+00 0.20531569D+05 0.20531569D+05 0.20531569D+05 0.12325738D+01  1  2  3  1  6  1       21 0.297981935837D-01 0.100000000000D+01
0.929079391135D-06 0.000000000000D+00 0.000000000000D+00 0.718592693471D-06 0.000000000000D+00  6 21 2 25 23 2 21 4 0.38665338D-02 0.15156088D+00 0.20531569D+05 0.20531569D+05 0.20531569D+05 0.12325738D+01  1  2 15  1  6  1       21 0.302320702986D-01 0.100000000000D+01
-.530764553285D-06 0.000000000000D+00 0.000000000000D+00 0.718592693471D-06 0.000000000000D+00  6 21 2 25 23 2 21 4 0.38665338D-02 0.15156088D+00 0.20531569D+05 0.20531569D+05 0.20531569D+05 0.12325738D+01  1  2  4  1  6  1       21 -.172709796816D-01 0.100000000000D+01
  </mgrwgt>
  </event>
  <event>
  6     66 0.38225901E-03 0.40301967E+02 0.75467711E-02 0.12045249E+00
       21 -1    0    0  503  502 0.00000000E+00 0.00000000E+00 0.24297964E+02 0.24309536E+02 0.75000000E+00 0.0000E+00 0.9000E+01
        2 -1    0    0  502    0 0.00000000E+00 0.00000000E+00 -.10647894E+04 0.10647894E+04 0.32000000E+00 0.0000E+00 0.9000E+01
       25  1    1    2    0    0 0.60480715E+02 -.91211663E+00 -.61334946E+03 0.62887305E+03 0.12500000E+03 0.0000E+00 0.9000E+01
       23  1    1    2    0    0 -.24791311E+02 -.25604607E+01 -.22543592E+03 0.24445402E+03 0.91188000E+02 0.0000E+00 0.9000E+01
        2  1    1    2  501    0 0.11064269E+02 0.71945181E+01 -.12615166E+03 0.12684054E+03 0.32000000E+00 0.0000E+00 0.9000E+01
       21  1    1    2  503  501 -.46753673E+02 -.37219408E+01 -.75554371E+02 0.88931346E+02 0.75000000E+00 0.0000E+00 0.9000E+01
#aMCatNLO 2  0  0  1  5 0.35959077D+02 0.00000000D+00  -5  6  0 0.00000000D+00 0.00000000D+00 0.00000000D+00 0.00000000D+00 0.00000000D+00
  <mgrwgt>
 0.2188448057D-01    1    2    0
 0.129452698218088D+03 0.000000000000000D+00 0.000000000000000D+00 0.129452698218088D+03
 0.129452698218088D+03 0.000000000000000D+00 0.000000000000000D+00 -.129452698218088D+03
 0.132521146133780D+03 0.359709621889624D+02 -.286380234397352D+01 -.251941002606883D+02
 0.108658594831648D+03 -.437015026009949D+02 -.406628476940976D+01 0.395611284644094D+02
 0.177256554707482D+02 0.773054041203248D+01 0.693008711338328D+01 -.143670282037211D+02
 0.000000000000000D+00 -.000000000000000D+00 -.000000000000000D+00 0.000000000000000D+00
 0.181509771792807D+03 0.000000000000000D+00 0.000000000000000D+00 0.181509771792807D+03
 0.142569423688837D+03 0.000000000000000D+00 0.000000000000000D+00 -.142569423688837D+03
 0.141132578509207D+03 0.604799884690888D+02 -.912701205575759D+00 -.251941002606883D+02
 0.102476939162136D+03 -.247917422530472D+02 -.256092692613932D+01 0.395611284644094D+02
 0.195097768021661D+02 0.110654271902750D+02 0.719556895322009D+01 -.143670282037211D+02
 0.609599010081357D+02 -.467536734063166D+02 -.372194082150501D+01 0.389403481039705D+02
0.714046916460D-06 0.000000000000D+00 0.000000000000D+00 0.316751561841D-06 0.203606339730D-08  6 21 2 25 23 2 21 4 0.37389845D-02 0.16381212D+00 0.21535445D+05 0.21535445D+05 0.21535445D+05 0.12303051D+01  1  2  1  1  6  1       21 0.218844805650D-01 0.100000000000D+01
  </mgrwgt>
  </event>
  <event>
  5     66 0.38225901E-03 0.25795512E+02 0.75467711E-02 0.11944235E+00
       21 -1    0    0  501  502 0.00000000E+00 0.00000000E+00 0.61531556E+02 0.61536127E+02 0.75000000E+00 0.0000E+00 0.9000E+01
        2 -1    0    0  502    0 -.00000000E+00 -.00000000E+00 -.44599652E+03 0.44599663E+03 0.32000000E+00 0.0000E+00 0.9000E+01
       25  1    1    2    0    0 -.41066493E+02 0.83789897E+02 -.27851317E+03 0.31922059E+03 0.12500000E+03 0.0000E+00 0.9000E+01
       23  1    1    2    0    0 0.15968281E+02 -.89741544E+02 -.95633044E+02 0.16052869E+03 0.91188000E+02 0.0000E+00 0.9000E+01
        2  1    1    2  501    0 0.25098211E+02 0.59516474E+01 -.10318749E+02 0.27783472E+02 0.32000000E+00 0.0000E+00 0.9000E+01
#aMCatNLO 1  0  0  5  1 0.20148694D+01 0.00000000D+00  -5  6  0 0.00000000D+00 0.00000000D+00 0.00000000D+00 0.00000000D+00 0.00000000D+00
  <mgrwgt>
 0.2499816367D+00    8    2    0
 0.165662454392700D+03 0.000000000000000D+00 0.000000000000000D+00 0.165662454392700D+03
 0.165662454392700D+03 -.000000000000000D+00 -.000000000000000D+00 -.165662454392700D+03
 0.165808344669649D+03 -.410671801330487D+02 0.837897334932706D+02 -.562154288352894D+02
 0.134930957490174D+03 0.159677218681600D+02 -.897416765943466D+02 0.397815948095588D+02
 0.305856066255779D+02 0.250994582648887D+02 0.595194310107598D+01 0.164338340257306D+02
 0.000000000000000D+00 0.000000000000000D+00 0.000000000000000D+00 0.000000000000000D+00
 0.165662454392700D+03 0.000000000000000D+00 0.000000000000000D+00 0.165662454392700D+03
 0.165662454392700D+03 -.000000000000000D+00 -.000000000000000D+00 -.165662454392700D+03
 0.165666617855250D+03 -.406601015796213D+02 0.838862657913823D+02 -.559488947407342D+02
 0.134982487680144D+03 0.162991978082237D+02 -.896630722709459D+02 0.399986282022736D+02
 0.280048853027656D+02 0.238578600477579D+02 0.608182692033931D+01 0.133449427152645D+02
 0.267091794724169D+01 0.503043723639813D+00 -.305020440775673D+00 0.260532382319614D+01
0.252436471831D-05 0.000000000000D+00 0.000000000000D+00 0.376404907133D-06 0.000000000000D+00  6 21 2 25 23 2 21 2 0.94667537D-02 0.68615209D-01 0.24136218D+05 0.24136218D+05 0.24136218D+05 0.12249383D+01  1  2  2  3  6  5        2 0.298744168644D-01 0.100000000000D+01
0.175491037161D-06 0.133214386044D-06 -.509596506456D-08 0.376404907133D-06 0.000000000000D+00  6 21 2 25 23 2 21 4 0.94667537D-02 0.68615209D-01 0.24136218D+05 0.24136218D+05 0.24136218D+05 0.12249383D+01  1  2  3  3  6  5        2 0.311623837913D-02 0.100000000000D+01
0.252495791512D-06 0.000000000000D+00 0.000000000000D+00 0.376404907133D-06 0.000000000000D+00  6 21 2 25 23 2 21 4 0.94667537D-02 0.68615209D-01 0.24136218D+05 0.24136218D+05 0.24136218D+05 0.12249383D+01  1  2 15  3  6  5        2 0.448363112334D-02 0.100000000000D+01
0.678752138477D-09 0.000000000000D+00 0.000000000000D+00 0.376526099381D-06 0.000000000000D+00  6 21 2 25 23 2 21 4 0.94667537D-02 0.68615209D-01 0.24034666D+05 0.24034666D+05 0.24034666D+05 0.12251354D+01  1  2 12  3  6  5        2 0.120600683956D-04 0.100000000000D+01
-.875160350431D-04 0.000000000000D+00 0.000000000000D+00 0.376404907133D-06 0.000000000000D+00  6 21 2 25 23 2 21 4 0.94667537D-02 0.68615209D-01 0.24136218D+05 0.24136218D+05 0.24136218D+05 0.12249383D+01  1  2  4  3  6  5        2 -.155404419282D+01 0.100000000000D+01
-.129069959045D-04 0.000000000000D+00 0.000000000000D+00 0.376404907133D-06 0.000000000000D+00  6 21 2 25 23 2 21 4 0.94667537D-02 0.68615209D-01 0.24136218D+05 0.24136218D+05 0.24136218D+05 0.12249383D+01  1  2  5  3  6  5        2 -.229192764757D+00 0.100000000000D+01
0.153083623158D-04 0.000000000000D+00 -.000000000000D+00 0.376404907133D-06 0.000000000000D+00  6 21 2 25 23 2 21 4 0.94667537D-02 0.68615209D-01 0.24136218D+05 0.24136218D+05 0.24136218D+05 0.12249383D+01  1  2  6  3  6  5        2 0.271834430646D+00 0.100000000000D+01
0.970226114419D-04 0.000000000000D+00 0.000000000000D+00 0.376404907133D-06 0.221110860765D-04  6 21 2 25 23 2 21 4 0.94667537D-02 0.68615209D-01 0.24034666D+05 0.24034666D+05 0.24034666D+05 0.12251354D+01  1  2 11  3  6  5        2 0.172389781715D+01 0.100000000000D+01
  </mgrwgt>
  </event>
  <event>
  6     66 0.38225901E-03 0.43440502E+02 0.75467711E-02 0.11715627E+00
       21 -1    0    0  503  502 0.00000000E+00 0.00000000E+00 0.31684934E+03 0.31685022E+03 0.75000000E+00 0.0000E+00 0.9000E+01
        2 -1    0    0  502    0 0.00000000E+00 0.00000000E+00 -.66591409E+03 0.66591417E+03 0.32000000E+00 0.0000E+00 0.9000E+01
       25  1    1    2    0    0 0.17547582E+01 -.87487151E+02 -.49881732E+03 0.52163282E+03 0.12500000E+03 0.0000E+00 0.9000E+01
       23  1    1    2    0    0 0.37499696E+02 0.10572324E+03 -.10930078E+03 0.18123339E+03 0.91188000E+02 0.0000E+00 0.9000E+01
        2  1    1    2  501    0 0.28821889E+00 0.78226310E+01 -.64841933E+01 0.10169749E+02 0.32000000E+00 0.0000E+00 0.9000E+01
       21  1    1    2  503  501 -.39542674E+02 -.26058722E+02 0.26553754E+03 0.26972843E+03 0.75000000E+00 0.0000E+00 0.9000E+01
#aMCatNLO 2  0  0  1  5 0.13653561D+01 0.00000000D+00  -5  6  0 0.00000000D+00 0.00000000D+00 0.00000000D+00 0.00000000D+00 0.00000000D+00
  <mgrwgt>
 0.2835632635D+00    1    2    0
 0.179193766928092D+03 0.000000000000000D+00 0.000000000000000D+00 0.179193766928092D+03
 0.179193766928092D+03 0.000000000000000D+00 0.000000000000000D+00 -.179193766928092D+03
 0.188566601762308D+03 -.185350730851230D+02 -.100861041300612D+03 -.970353786702054D+02
 0.161308078651874D+03 0.192112128676697D+02 0.936686552009266D+02 0.925319254493394D+02
 0.851285344200275D+01 -.676139782546697D+00 0.719238609968541D+01 0.450345322086594D+01
 0.000000000000000D+00 -.000000000000000D+00 -.000000000000000D+00 0.000000000000000D+00
 0.116364675936552D+04 0.000000000000000D+00 0.000000000000000D+00 0.116364675936552D+04
 0.181321847738584D+03 0.000000000000000D+00 0.000000000000000D+00 -.181321847738584D+03
 0.180826954236958D+03 0.175525069748553D+01 -.874896665894531D+02 -.970353786702054D+02
 0.171640671466375D+03 0.374996692665343D+02 0.105720794241089D+03 0.925319254493394D+02
 0.903521584251980D+01 0.287753609094707D+00 0.782759428361268D+01 0.450345322086594D+01
 0.983465765558247D+03 -.395426735731145D+02 -.260587219352486D+02 0.982324911626932D+03
0.575578206966D-03 0.000000000000D+00 0.000000000000D+00 0.953479432085D-06 0.510216222726D-07  6 21 2 25 23 2 21 4 0.48746088D-01 0.10244832D+00 0.31035622D+05 0.31035622D+05 0.31035622D+05 0.12133545D+01  1  2  1  1  6  1       21 0.283563263506D+00 0.100000000000D+01
  </mgrwgt>
  </event>
  <event>
  6     66 0.38225901E-03 0.47649208E+02 0.75467711E-02 0.11863526E+00
       21 -1    0    0  501  503 0.00000000E+00 0.00000000E+00 0.13639761E+02 0.13660366E+02 0.75000000E+00 0.0000E+00 0.9000E+01
        2 -1    0    0  502    0 0.00000000E+00 0.00000000E+00 -.21332253E+04 0.21332253E+04 0.32000000E+00 0.0000E+00 0.9000E+01
       25  1    1    2    0    0 -.89353933E+01 0.52936869E+02 -.11015301E+04 0.11098990E+04 0.12500000E+03 0.0000E+00 0.9000E+01
       23  1    1    2    0    0 0.60307867E+02 -.68457019E+02 -.71298246E+03 0.72455686E+03 0.91188000E+02 0.0000E+00 0.9000E+01
        2  1    1    2  501    0 -.46468884E+01 -.60992748E+01 -.12235532E+03 0.12259577E+03 0.32000000E+00 0.0000E+00 0.9000E+01
       21  1    1    2  502  503 -.46725585E+02 0.21619425E+02 -.18271761E+03 0.18983406E+03 0.75000000E+00 0.0000E+00 0.9000E+01
#aMCatNLO 2  0  0  1  2 0.22698653D+01 0.00000000D+00  -5  6  0 0.00000000D+00 0.00000000D+00 0.00000000D+00 0.00000000D+00 0.00000000D+00
  <mgrwgt>
 0.4945238435D-02    1    2    0
 0.137788841168408D+03 0.000000000000000D+00 0.000000000000000D+00 0.137788841168408D+03
 0.137788841168408D+03 0.000000000000000D+00 0.000000000000000D+00 -.137788841168408D+03
 0.145778241389554D+03 -.327627003667833D+02 0.639633622819359D+02 -.214846320168019D+02
 0.118821189869163D+03 0.392164483704993D+02 -.586967350624150D+02 0.286354201669927D+02
 0.109782510780987D+02 -.645374800371599D+01 -.526662721952089D+01 -.715078815019079D+01
 0.000000000000000D+00 -.000000000000000D+00 0.000000000000000D+00 0.000000000000000D+00
 0.189592879229605D+03 0.000000000000000D+00 0.000000000000000D+00 0.189592879229605D+03
 0.153581815829905D+03 0.000000000000000D+00 0.000000000000000D+00 -.153581815829905D+03
 0.137727418499351D+03 -.893393721168977D+01 0.529380502048898D+02 -.214846320168019D+02
 0.132131224371284D+03 0.603090983178682D+02 -.684560770260756D+02 0.286354201669927D+02
 0.104871058314584D+02 -.464957624207349D+01 -.610139806277596D+01 -.715078815019079D+01
 0.628289463574168D+02 -.467255848641049D+02 0.216194248839618D+02 0.360110633997001D+02
0.237008532265D-06 0.000000000000D+00 0.000000000000D+00 0.475603802477D-06 0.214755141765D-08  6 21 2 25 23 2 21 4 0.20999825D-02 0.32818554D+00 0.26274495D+05 0.26274495D+05 0.26274495D+05 0.12209892D+01  1  2  1  1  6  1       21 0.494523843481D-02 0.100000000000D+01
  </mgrwgt>
  </event>
  <event>
  5     66 -.38225901E-03 0.40060882E+02 0.75467711E-02 0.11445733E+00
       21 -1    0    0  501  502 0.00000000E+00 0.00000000E+00 0.73142919E+03 0.73142958E+03 0.75000000E+00 0.0000E+00 0.9000E+01
        2 -1    0    0  502    0 0.00000000E+00 0.00000000E+00 -.23051509E+03 0.23051531E+03 0.32000000E+00 0.0000E+00 0.9000E+01
       25  1    1    2    0    0 0.10795582E+03 0.30659858E+02 0.16884243E+02 0.16883294E+03 0.12500000E+03 0.0000E+00 0.9000E+01
       23  1    1    2    0    0 -.10797277E+03 0.94010105E+01 -.12128550E+03 0.18647231E+03 0.91188000E+02 0.0000E+00 0.9000E+01
        2  1    1    2  501    0 0.16952285E-01 -.40060868E+02 0.60531536E+03 0.60663964E+03 0.32000000E+00 0.0000E+00 0.9000E+01
#aMCatNLO 1  0  0  2  2 0.55973722D+00 0.00000000D+00  -5  6  0 0.00000000D+00 0.00000000D+00 0.00000000D+00 0.00000000D+00 0.00000000D+00
  <mgrwgt>
 -.1279392730D+01    7    2    0
 0.410616316304903D+03 0.000000000000000D+00 0.000000000000000D+00 0.410616316304903D+03
 0.410616316304903D+03 0.000000000000000D+00 0.000000000000000D+00 -.410616316304903D+03
 0.187462649637208D+03 0.107955816635732D+03 0.306598616065215D+02 -.832031222357885D+02
 0.292401599934634D+03 -.107972768924745D+03 0.940101680063383D+01 -.255806462690393D+03
 0.341368383037965D+03 0.169522890131157D-01 -.400608784071554D+02 0.339009584926181D+03
 0.000000000000000D+00 -.000000000000000D+00 0.000000000000000D+00 -.000000000000000D+00
 0.415571612674700D+03 0.000000000000000D+00 0.000000000000000D+00 0.415571612674700D+03
 0.586861206563699D+03 0.000000000000000D+00 0.000000000000000D+00 -.586861206563699D+03
 0.192644329818047D+03 0.118298210477685D+03 0.238665384804359D+02 -.832031222357885D+02
 0.286803683407261D+03 -.922130763133463D+02 -.950618025215656D+00 -.255806462690393D+03
 0.343527071642911D+03 0.186523863003142D+02 -.523014222085412D+02 0.339009584926181D+03
 0.179457734370180D+03 -.447375204646534D+02 0.293855017533210D+02 -.171289593888999D+03
0.314280482427D-03 0.000000000000D+00 0.000000000000D+00 0.349035286752D-05 0.000000000000D+00  6 21 2 25 23 2 21 2 0.11252762D+00 0.35463907D-01 0.30570241D+05 0.30570241D+05 0.30570241D+05 0.12140411D+01  1  2  2  2  6  2        2 0.520387203683D-01 0.100000000000D+01
0.830152084324D-04 0.165850367058D-04 -.634441745799D-06 0.349035286752D-05 0.000000000000D+00  6 21 2 25 23 2 21 4 0.11252762D+00 0.35463907D-01 0.30570241D+05 0.30570241D+05 0.30570241D+05 0.12140411D+01  1  2  3  2  6  2        2 0.202597282007D-01 0.100000000000D+01
0.363641624283D-04 0.000000000000D+00 0.000000000000D+00 0.349035286752D-05 0.000000000000D+00  6 21 2 25 23 2 21 4 0.11252762D+00 0.35463907D-01 0.30570241D+05 0.30570241D+05 0.30570241D+05 0.12140411D+01  1  2 15  2  6  2        2 0.887461539825D-02 0.100000000000D+01
-.698809537902D-02 0.000000000000D+00 0.000000000000D+00 0.349035286752D-05 0.000000000000D+00  6 21 2 25 23 2 21 4 0.11252762D+00 0.35463907D-01 0.30570241D+05 0.30570241D+05 0.30570241D+05 0.12140411D+01  1  2  4  2  6  2        2 -.170543344639D+01 0.100000000000D+01
-.709559409354D-02 0.000000000000D+00 -.465142708957D-03 0.349035286752D-05 0.000000000000D+00  6 21 2 25 23 2 21 4 0.11252762D+00 0.50999096D-01 0.30570241D+05 0.30570241D+05 0.30570241D+05 0.12140411D+01  1  2  5  2  6  2        2 -.117355176415D+01 0.100000000000D+01
0.683747572727D-02 0.000000000000D+00 0.436049611955D-03 0.349035286752D-05 0.000000000000D+00  6 21 2 25 23 2 21 4 0.11252762D+00 0.35463907D-01 0.30570241D+05 0.30570241D+05 0.30570241D+05 0.12140411D+01  1  2  6  2  6  2        2 0.166867496244D+01 0.100000000000D+01
-.301005361836D-03 0.000000000000D+00 -.206420462406D-04 0.349035286752D-05 0.000000000000D+00  6 21 21 25 23 2 -2 4 0.11252762D+00 0.50999096D-01 0.30570241D+05 0.30570241D+05 0.30570241D+05 0.12140411D+01  1  2  5 10  6  2        2 -.150255546213D+00 0.100000000000D+01
  </mgrwgt>
  </event>
  <event>
  5     66 0.38225901E-03 0.72342466E+02 0.75467711E-02 0.11835045E+00
       21 -1    0    0  501  502 0.00000000E+00 0.00000000E+00 0.46332188E+02 0.46338258E+02 0.75000000E+00 0.0000E+00 0.9000E+01
        2 -1    0    0  502    0 0.00000000E+00 0.00000000E+00 -.79986479E+03 0.79986485E+03 0.32000000E+00 0.0000E+00 0.9000E+01
       25  1    1    2    0    0 -.54445050E+02 0.37622704E+02 -.55206434E+03 0.56989452E+03 0.12500000E+03 0.0000E+00 0.9000E+01
       23  1    1    2    0    0 -.14561322E+02 0.67707583E+01 -.15880548E+03 0.18382684E+03 0.91188000E+02 0.0000E+00 0.9000E+01
        2  1    1    2  501    0 0.69006371E+02 -.44393462E+02 -.42662783E+02 0.92481751E+02 0.32000000E+00 0.0000E+00 0.9000E+01
#aMCatNLO 1  0  0  2  1 0.13574538D+02 0.00000000D+00  -5  6  0 0.00000000D+00 0.00000000D+00 0.00000000D+00 0.00000000D+00 0.00000000D+00
  <mgrwgt>
 0.3913771286D-01    9    2    0
 0.192515145777542D+03 0.000000000000000D+00 0.000000000000000D+00 0.192515145777542D+03
 0.192515145777542D+03 0.000000000000000D+00 0.000000000000000D+00 -.192515145777542D+03
 0.172059424095276D+03 -.544451598373654D+02 0.376227749241099D+02 -.979780424242677D+02
 0.932127672556099D+02 -.145613812760040D+02 0.677079664794036D+01 0.107466796516682D+02
 0.119758100204198D+03 0.690065411133694D+02 -.443935715720503D+02 0.872313627725996D+02
 0.000000000000000D+00 0.000000000000000D+00 -.000000000000000D+00 -.000000000000000D+00
 0.195003066184270D+03 0.000000000000000D+00 0.000000000000000D+00 0.195003066184270D+03
 0.212086166060624D+03 0.000000000000000D+00 0.000000000000000D+00 -.212086166060624D+03
 0.173815541968936D+03 -.555384817175303D+02 0.436190655697145D+02 -.979780424242677D+02
 0.935976040516691D+02 -.151518948616391D+02 0.100094504733918D+02 0.107466796516682D+02
 0.117856361592709D+03 0.682554341654385D+02 -.402741483285981D+02 0.872313627725996D+02
 0.218197246315796D+02 0.243494241373089D+01 -.133543677145082D+02 -.170830998763537D+02
0.619820414385D-06 0.000000000000D+00 0.000000000000D+00 0.294516328243D-06 0.000000000000D+00  6 21 2 25 23 2 21 2 0.71285008D-02 0.12305659D+00 0.24977008D+05 0.24977008D+05 0.24977008D+05 0.12233405D+01  1  2  2  2  6  2        2 0.610948541298D-02 0.100000000000D+01
-.163827792438D-07 0.327088218912D-07 -.125123883847D-08 0.294516328243D-06 0.000000000000D+00  6 21 2 25 23 2 21 4 0.71285008D-02 0.12305659D+00 0.24977008D+05 0.24977008D+05 0.24977008D+05 0.12233405D+01  1  2  3  2  6  2        2 -.241669049246D-03 0.100000000000D+01
0.511690272293D-07 0.000000000000D+00 0.000000000000D+00 0.294516328243D-06 0.000000000000D+00  6 21 2 25 23 2 21 4 0.71285008D-02 0.12305659D+00 0.24977008D+05 0.24977008D+05 0.24977008D+05 0.12233405D+01  1  2 15  2  6  2        2 0.754815161536D-03 0.100000000000D+01
0.109819086102D-04 0.000000000000D+00 0.000000000000D+00 0.292680946253D-06 0.000000000000D+00  6 21 2 25 23 2 21 4 0.71285008D-02 0.13631110D+00 0.27121811D+05 0.27121811D+05 0.27121811D+05 0.12195227D+01  1  2 12  2  6  2        2 0.140330979785D+00 0.100000000000D+01
-.969191193257D-05 0.000000000000D+00 0.000000000000D+00 0.294516328243D-06 0.000000000000D+00  6 21 2 25 23 2 21 4 0.71285008D-02 0.12305659D+00 0.24977008D+05 0.24977008D+05 0.24977008D+05 0.12233405D+01  1  2  4  2  6  2        2 -.142969340382D+00 0.100000000000D+01
-.187865655705D-04 0.000000000000D+00 -.243433774555D-05 0.294516328243D-06 0.000000000000D+00  6 21 2 25 23 2 21 4 0.71285008D-02 0.13648140D+00 0.24977008D+05 0.24977008D+05 0.24977008D+05 0.12233405D+01  1  2  5  2  6  2        2 -.242769859993D+00 0.100000000000D+01
0.189499429321D-04 0.000000000000D+00 0.242134608165D-05 0.294516328243D-06 0.000000000000D+00  6 21 2 25 23 2 21 4 0.71285008D-02 0.12305659D+00 0.24977008D+05 0.24977008D+05 0.24977008D+05 0.12233405D+01  1  2  6  2  6  2        2 0.279538326404D+00 0.100000000000D+01
0.181897351578D-06 0.000000000000D+00 0.000000000000D+00 0.292680946253D-06 0.000000000000D+00  6 21 21 25 23 2 -2 4 0.71285008D-02 0.13631110D+00 0.27121811D+05 0.27121811D+05 0.27121811D+05 0.12195227D+01  1  2 12 10  6  2        2 0.229501506587D-02 0.100000000000D+01
-.305865809010D-06 0.000000000000D+00 -.407438911366D-07 0.294516328243D-06 0.000000000000D+00  6 21 21 25 23 2 -2 4 0.71285008D-02 0.13648140D+00 0.24977008D+05 0.24977008D+05 0.24977008D+05 0.12233405D+01  1  2  5 10  6  2        2 -.391003954031D-02 0.100000000000D+01
  </mgrwgt>
  </event>
  <event>
  6     66 -.38225901E-03 0.11914367E+03 0.75467711E-02 0.11357377E+00
       21 -1    0    0  501  502 0.00000000E+00 0.00000000E+00 0.53857071E+03 0.53857124E+03 0.75000000E+00 0.0000E+00 0.9000E+01
        4 -1    0    0  502    0 0.00000000E+00 0.00000000E+00 -.97643949E+02 0.97656250E+02 0.15500000E+01 0.0000E+00 0.9000E+01
       25  1    1    2    0    0 -.11577519E+03 0.50160047E+02 0.14853149E+03 0.23153084E+03 0.12500000E+03 0.0000E+00 0.9000E+01
       23  1    1    2    0    0 -.26765873E+01 -.93751565E+02 0.71816005E+02 0.14922905E+03 0.91188000E+02 0.0000E+00 0.9000E+01
        4  1    1    2  503    0 0.90170631E+02 0.37760896E+02 0.18816844E+03 0.21205281E+03 0.15500000E+01 0.0000E+00 0.9000E+01
       21  1    1    2  501  503 0.28281150E+02 0.58306223E+01 0.32410823E+02 0.43414785E+02 0.75000000E+00 0.0000E+00 0.9000E+01
#aMCatNLO 2  0  0  5  1 0.10436316D+02 0.00000000D+00  -5  6  0 0.00000000D+00 0.00000000D+00 0.00000000D+00 0.00000000D+00 0.00000000D+00
  <mgrwgt>
 -.2438204531D-02    2    2    0
 0.229330003870946D+03 0.000000000000000D+00 0.000000000000000D+00 0.229330003870946D+03
 0.229330003870946D+03 -.000000000000000D+00 -.000000000000000D+00 -.229330003870946D+03
 0.178850005674636D+03 -.116568566158925D+03 0.498680778284393D+02 -.169490037219407D+02
 0.138229126226912D+03 -.328998598289683D+01 -.939773026364487D+02 -.441529452569734D+02
 0.141580875840345D+03 0.119858552141822D+03 0.441092248080094D+02 0.611019489789142D+02
 0.000000000000000D+00 0.000000000000000D+00 0.000000000000000D+00 0.000000000000000D+00
 0.229330003870946D+03 0.000000000000000D+00 0.000000000000000D+00 0.229330003870946D+03
 0.229330003870946D+03 -.000000000000000D+00 -.000000000000000D+00 -.229330003870946D+03
 0.178378428844269D+03 -.115776213744947D+03 0.501596719627817D+02 -.165450752920785D+02
 0.137963156109346D+03 -.267737623382691D+01 -.937518557187408D+02 -.438406467270582D+02
 0.112905392748671D+03 0.898319277409906D+02 0.376744013612728D+02 0.570832020137174D+02
 0.294130300396065D+02 0.286216622377831D+02 0.591778239468632D+01 0.330252000541927D+01
-.218953411206D-04 0.000000000000D+00 0.000000000000D+00 0.972425033812D-07 0.000000000000D+00  6 21 4 25 23 4 21 4 0.82858019D-01 0.15023132D-01 0.47319496D+05 0.47319496D+05 0.47319496D+05 0.11946590D+01  1  2 13  3  6  5        4 -.896067465126D-02 0.100000000000D+01
0.159376066852D-04 0.000000000000D+00 0.000000000000D+00 0.971879305340D-07 0.319356683298D-08  6 21 4 25 23 4 21 4 0.82858019D-01 0.15023132D-01 0.47319496D+05 0.47319496D+05 0.47319496D+05 0.11946590D+01  1  2  1  3  6  5        4 0.652247011995D-02 0.100000000000D+01
  </mgrwgt>
  </event>
  <event>
  6     66 0.38225901E-03 0.60098587E+02 0.75467711E-02 0.11843589E+00
       21 -1    0    0  501  502 0.00000000E+00 0.00000000E+00 0.14403828E+02 0.14423341E+02 0.75000000E+00 0.0000E+00 0.9000E+01
        2 -1    0    0  502    0 -.00000000E+00 -.00000000E+00 -.25124679E+04 0.25124679E+04 0.32000000E+00 0.0000E+00 0.9000E+01
       25  1    1    2    0    0 0.82731269E+02 -.10099230E+02 -.17144154E+04 0.17209856E+04 0.12500000E+03 0.0000E+00 0.9000E+01
       23  1    1    2    0    0 -.32883682E+02 0.41049717E+02 -.58216548E+03 0.59160655E+03 0.91188000E+02 0.0000E+00 0.9000E+01
        2  1    1    2  503    0 -.50975423E+02 -.38936489E+02 -.16746441E+03 0.17932924E+03 0.32000000E+00 0.0000E+00 0.9000E+01
       21  1    1    2  501  503 0.11278354E+01 0.79860026E+01 -.34018830E+02 0.34969866E+02 0.75000000E+00 0.0000E+00 0.9000E+01
#aMCatNLO 2  0  0  5  1 0.89159699D+01 0.00000000D+00  -5  6  0 0.00000000D+00 0.00000000D+00 0.00000000D+00 0.00000000D+00 0.00000000D+00
  <mgrwgt>
 0.1889143758D-01    2    2    0
 0.190299329769593D+03 0.000000000000000D+00 0.000000000000000D+00 0.190299329769593D+03
 0.190299329769593D+03 -.000000000000000D+00 -.000000000000000D+00 -.190299329769593D+03
 0.176380096702135D+03 0.852672033073521D+02 -.852466278876114D+01 -.902317719937676D+02
 0.106347647799208D+03 -.313388477033000D+02 0.420089085510939D+02 0.157384584823190D+02
 0.978709150378414D+02 -.539283556040521D+02 -.334842457623327D+02 0.744933135114486D+02
 0.000000000000000D+00 0.000000000000000D+00 0.000000000000000D+00 0.000000000000000D+00
 0.190299329769593D+03 0.000000000000000D+00 0.000000000000000D+00 0.190299329769593D+03
 0.190299329769593D+03 -.000000000000000D+00 -.000000000000000D+00 -.190299329769593D+03
 0.173453740662361D+03 0.827130765478840D+02 -.101105262397089D+02 -.867036583824796D+02
 0.106779252622210D+03 -.328948810579628D+02 0.410427636969014D+02 0.178878672529891D+02
 0.914306420931139D+02 -.509636805960851D+02 -.389908379734891D+02 0.651304853949702D+02
 0.893502416149994D+01 0.114548510616383D+01 0.805860051629662D+01 0.368530573452032D+01
-.235818697122D-05 0.000000000000D+00 0.000000000000D+00 0.264376156085D-06 0.000000000000D+00  6 21 2 25 23 2 21 4 0.22174761D-02 0.38653503D+00 0.25633161D+05 0.25633161D+05 0.25633161D+05 0.12221348D+01  1  2  8  3  6  5        2 -.285278240532D-01 0.100000000000D+01
0.395244831341D-05 0.000000000000D+00 0.000000000000D+00 0.264376156085D-06 0.368355909117D-07  6 21 2 25 23 2 21 4 0.22174761D-02 0.38653503D+00 0.26864361D+05 0.26864361D+05 0.26864361D+05 0.12199628D+01  1  2  1  3  6  5        2 0.474192616313D-01 0.100000000000D+01
  </mgrwgt>
  </event>
  <event>
  5     66 0.38225901E-03 0.20698382E+02 0.75467711E-02 0.12313433E+00
       21 -1    0    0  501  502 0.00000000E+00 0.00000000E+00 0.79398557E+01 0.79751996E+01 0.75000000E+00 0.0000E+00 0.9000E+01
        2 -1    0    0  502    0 0.00000000E+00 0.00000000E+00 -.20083042E+04 0.20083042E+04 0.32000000E+00 0.0000E+00 0.9000E+01
       25  1    1    2    0    0 0.44541679E+02 0.66442850E+01 -.12593906E+04 0.12663798E+04 0.12500000E+03 0.0000E+00 0.9000E+01
       23  1    1    2    0    0 -.24498861E+02 -.14843433E+01 -.62484973E+03 0.63194528E+03 0.91188000E+02 0.0000E+00 0.9000E+01
        2  1    1    2  501    0 -.20042817E+02 -.51599417E+01 -.11612399E+03 0.11795433E+03 0.32000000E+00 0.0000E+00 0.9000E+01
#aMCatNLO 1  0  0  1  1 0.67641587D+01 0.00000000D+00  -5  6  0 0.00000000D+00 0.00000000D+00 0.00000000D+00 0.00000000D+00 0.00000000D+00
  <mgrwgt>
 0.1963883265D+00   13    2    0
 0.126417175481883D+03 0.000000000000000D+00 0.000000000000000D+00 0.126417175481883D+03
 0.126417175481883D+03 0.000000000000000D+00 0.000000000000000D+00 -.126417175481883D+03
 0.135011697310955D+03 0.445428207717646D+02 0.664457901070824D+01 -.239780128086123D+02
 0.959168490697662D+02 -.244980498421716D+02 -.148413436729125D+01 0.168057576616649D+02
 0.219058045830447D+02 -.200447709295930D+02 -.516044464341699D+01 0.717225514694745D+01
 0.000000000000000D+00 -.000000000000000D+00 -.000000000000000D+00 -.000000000000000D+00
 0.126873257444294D+03 0.000000000000000D+00 0.000000000000000D+00 0.126873257444294D+03
 0.154303433385509D+03 0.000000000000000D+00 0.000000000000000D+00 -.154303433385509D+03
 0.136256163990690D+03 0.480410341764004D+02 0.760632384728790D+01 -.239780128086123D+02
 0.953086867539983D+02 -.220320454673168D+02 -.806169160435513D+00 0.168057576616649D+02
 0.213599658916870D+02 -.194868246343321D+02 -.500705149483297D+01 0.717225514694745D+01
 0.282518741934269D+02 -.652216407475149D+01 -.179310319201943D+01 -.274301759412151D+02
0.407913228950D-05 0.000000000000D+00 0.000000000000D+00 0.711697642698D-06 0.000000000000D+00  6 21 2 25 23 2 21 2 0.12242370D-02 0.30897259D+00 0.15375612D+05 0.15375612D+05 0.15375612D+05 0.12465999D+01  1  2  2  1  6  1       21 0.164385585263D+00 0.100000000000D+01
0.256389085808D-06 0.215261724899D-06 -.823459284239D-08 0.711697642698D-06 0.000000000000D+00  6 21 2 25 23 2 21 4 0.12242370D-02 0.30897259D+00 0.15375612D+05 0.15375612D+05 0.15375612D+05 0.12465999D+01  1  2  3  1  6  1       21 0.160564541663D-01 0.100000000000D+01
0.381584510695D-06 0.000000000000D+00 0.000000000000D+00 0.711697642698D-06 0.000000000000D+00  6 21 2 25 23 2 21 4 0.12242370D-02 0.30897259D+00 0.15375612D+05 0.15375612D+05 0.15375612D+05 0.12465999D+01  1  2 15  1  6  1       21 0.238968604581D-01 0.100000000000D+01
-.132360794724D-06 0.000000000000D+00 0.000000000000D+00 0.711697642698D-06 0.000000000000D+00  6 21 2 25 23 2 21 4 0.12242370D-02 0.30897259D+00 0.15375612D+05 0.15375612D+05 0.15375612D+05 0.12465999D+01  1  2  4  1  6  1       21 -.828914002794D-02 0.100000000000D+01
0.910555569208D-08 0.000000000000D+00 0.000000000000D+00 0.711697642698D-06 0.132531131929D-06  6 21 2 25 23 2 21 4 0.12286537D-02 0.37712860D+00 0.16234462D+05 0.16234462D+05 0.16234462D+05 0.12439259D+01  1  2 11  1  6  1       21 0.331332019181D-03 0.100000000000D+01
0.729525078892D-09 0.000000000000D+00 0.000000000000D+00 0.708647686511D-06 0.700978381681D-10  6 -1 2 25 23 2 -1 4 0.12286537D-02 0.37712860D+00 0.16234462D+05 0.16234462D+05 0.16234462D+05 0.12439259D+01  1  2 11  4  6  1       21 0.117677931039D-05 0.100000000000D+01
0.729525078892D-09 0.000000000000D+00 0.000000000000D+00 0.708647686511D-06 0.700978381681D-10  6 -3 2 25 23 2 -3 4 0.12286537D-02 0.37712860D+00 0.16234462D+05 0.16234462D+05 0.16234462D+05 0.12439259D+01  1  2 11  4  6  1       21 0.940412529466D-06 0.100000000000D+01
0.811393732447D-09 0.000000000000D+00 0.000000000000D+00 0.708647686511D-06 0.779643472080D-10  6 1 2 25 23 2 1 4 0.12286537D-02 0.37712860D+00 0.16234462D+05 0.16234462D+05 0.16234462D+05 0.12439259D+01  1  2 11  5  6  1       21 0.135028873962D-05 0.100000000000D+01
0.811393732447D-09 0.000000000000D+00 0.000000000000D+00 0.708647686511D-06 0.779643472080D-10  6 3 2 25 23 2 3 4 0.12286537D-02 0.37712860D+00 0.16234462D+05 0.16234462D+05 0.16234462D+05 0.12439259D+01  1  2 11  5  6  1       21 0.104590398318D-05 0.100000000000D+01
0.891989809599D-09 0.000000000000D+00 0.000000000000D+00 0.708647686511D-06 0.106623705996D-08  6 -2 2 25 23 2 -2 4 0.12286537D-02 0.37712860D+00 0.16234462D+05 0.16234462D+05 0.16234462D+05 0.12439259D+01  1  2 11  6  6  1       21 0.143086763068D-05 0.100000000000D+01
0.493758116741D-09 0.000000000000D+00 0.000000000000D+00 0.708647686511D-06 0.333783390298D-08  6 2 2 25 23 2 2 4 0.12286537D-02 0.37712860D+00 0.16234462D+05 0.16234462D+05 0.16234462D+05 0.12439259D+01  1  2 11  7  6  1       21 0.839238479514D-06 0.100000000000D+01
0.215114738602D-09 0.000000000000D+00 0.000000000000D+00 0.708647686511D-06 0.206697186573D-10  6 -4 2 25 23 2 -4 4 0.12286537D-02 0.37712860D+00 0.16234462D+05 0.16234462D+05 0.16234462D+05 0.12439259D+01  1  2 11  8  6  1       21 0.253495456300D-06 0.100000000000D+01
0.167722445808D-09 0.000000000000D+00 0.000000000000D+00 0.708647686511D-06 0.161159378938D-10  6 4 2 25 23 2 4 4 0.12286537D-02 0.37712860D+00 0.16234462D+05 0.16234462D+05 0.16234462D+05 0.12439259D+01  1  2 11  9  6  1       21 0.197647442514D-06 0.100000000000D+01
  </mgrwgt>
  </event>
  <event>
  5     66 -.38225901E-03 0.34803832E+02 0.75467711E-02 0.11606921E+00
       21 -1    0    0  501  502 0.00000000E+00 0.00000000E+00 0.69619272E+03 0.69619312E+03 0.75000000E+00 0.0000E+00 0.9000E+01
        2 -1    0    0  502    0 0.00000000E+00 0.00000000E+00 -.15095430E+03 0.15095464E+03 0.32000000E+00 0.0000E+00 0.9000E+01
       25  1    1    2    0    0 -.87010737E+01 0.39184276E+02 0.16716913E+02 0.13234641E+03 0.12500000E+03 0.0000E+00 0.9000E+01
       23  1    1    2    0    0 -.25536166E+02 -.32929900E+02 -.65501992E+02 0.11975908E+03 0.91188000E+02 0.0000E+00 0.9000E+01
        2  1    1    2  501    0 0.34237240E+02 -.62543766E+01 0.59402349E+03 0.59504228E+03 0.32000000E+00 0.0000E+00 0.9000E+01
#aMCatNLO 1  0  0  2  1 0.23997783D+02 0.00000000D+00  -5  6  0 0.00000000D+00 0.00000000D+00 0.00000000D+00 0.00000000D+00 0.00000000D+00
  <mgrwgt>
 -.7291598365D-01    7    2    0
 0.324181433908598D+03 0.000000000000000D+00 0.000000000000000D+00 0.324181433908598D+03
 0.324181433908598D+03 0.000000000000000D+00 0.000000000000000D+00 -.324181433908598D+03
 0.158865168734298D+03 -.870107929677028D+01 0.391842773227926D+02 -.894540410866876D+02
 0.211560342147291D+03 -.255361734503894D+02 -.329298983423906D+02 -.186295605600751D+03
 0.277937356935606D+03 0.342372527471597D+02 -.625437898040196D+01 0.275749646687438D+03
 0.000000000000000D+00 -.000000000000000D+00 -.000000000000000D+00 -.000000000000000D+00
 0.347328365528864D+03 0.000000000000000D+00 0.000000000000000D+00 0.347328365528864D+03
 0.404136837653162D+03 0.000000000000000D+00 0.000000000000000D+00 -.404136837653162D+03
 0.160589510929728D+03 0.993355250955677D+01 0.454234530661248D+02 -.894540410866876D+02
 0.208885898659629D+03 -.101043821924089D+01 -.247182860104735D+02 -.186295605600751D+03
 0.283813094851621D+03 0.670056343125892D+02 0.471700449184160D+01 0.275749646687438D+03
 0.981766987410475D+02 -.759287486029050D+02 -.254221715474928D+02 -.568084721242976D+02
0.102778726116D-03 0.000000000000D+00 0.000000000000D+00 0.850534694172D-05 0.000000000000D+00  6 21 2 25 23 2 21 2 0.10710663D+00 0.23223796D-01 0.17735383D+05 0.17735383D+05 0.17735383D+05 0.12396134D+01  1  2  2  2  6  2        2 0.324666267405D-01 0.100000000000D+01
0.245350974400D-04 0.542378238717D-05 -.207480636165D-06 0.850534694172D-05 0.000000000000D+00  6 21 2 25 23 2 21 4 0.10710663D+00 0.23223796D-01 0.17735383D+05 0.17735383D+05 0.17735383D+05 0.12396134D+01  1  2  3  2  6  2        2 0.119095188974D-01 0.100000000000D+01
0.128675755385D-04 0.000000000000D+00 0.000000000000D+00 0.850534694172D-05 0.000000000000D+00  6 21 2 25 23 2 21 4 0.10710663D+00 0.23223796D-01 0.17735383D+05 0.17735383D+05 0.17735383D+05 0.12396134D+01  1  2 15  2  6  2        2 0.624601693207D-02 0.100000000000D+01
-.362661997226D-03 0.000000000000D+00 0.000000000000D+00 0.850534694172D-05 0.000000000000D+00  6 21 2 25 23 2 21 4 0.10710663D+00 0.23223796D-01 0.17735383D+05 0.17735383D+05 0.17735383D+05 0.12396134D+01  1  2  4  2  6  2        2 -.176038832530D+00 0.100000000000D+01
-.393419683423D-03 0.000000000000D+00 -.185755235443D-03 0.850534694172D-05 0.000000000000D+00  6 21 2 25 23 2 21 4 0.10710663D+00 0.30815143D-01 0.17735383D+05 0.17735383D+05 0.17735383D+05 0.12396134D+01  1  2  5  2  6  2        2 -.140113195275D+00 0.100000000000D+01
0.435607240748D-03 0.000000000000D+00 0.178565581474D-03 0.850534694172D-05 0.000000000000D+00  6 21 2 25 23 2 21 4 0.10710663D+00 0.23223796D-01 0.17735383D+05 0.17735383D+05 0.17735383D+05 0.12396134D+01  1  2  6  2  6  2        2 0.211446996623D+00 0.100000000000D+01
-.107746830855D-04 0.000000000000D+00 -.688035952417D-05 0.850534694172D-05 0.000000000000D+00  6 21 21 25 23 2 -2 4 0.10710663D+00 0.30815143D-01 0.17735383D+05 0.17735383D+05 0.17735383D+05 0.12396134D+01  1  2  5 10  6  2        2 -.188331150419D-01 0.100000000000D+01
  </mgrwgt>
  </event>
  <event>
  5     66 0.38225901E-03 0.42094446E+02 0.75467711E-02 0.10291073E+00
       21 -1    0    0  501  502 0.00000000E+00 0.00000000E+00 0.73454208E+02 0.73458037E+02 0.75000000E+00 0.0000E+00 0.9000E+01
        2 -1    0    0  502    0 0.00000000E+00 0.00000000E+00 -.17075173E+04 0.17075173E+04 0.32000000E+00 0.0000E+00 0.9000E+01
       25  1    1    2    0    0 -.77432849E+02 -.70782588E+02 -.40939556E+03 0.44072185E+03 0.12500000E+03 0.0000E+00 0.9000E+01
       23  1    1    2    0    0 0.39310890E+02 0.88633555E+02 -.12708288E+04 0.12777802E+04 0.91188000E+02 0.0000E+00 0.9000E+01
        2  1    1    2  501    0 0.38121959E+02 -.17850967E+02 0.46161291E+02 0.62473258E+02 0.32000000E+00 0.0000E+00 0.9000E+01
#aMCatNLO 1  0  0  2  1 0.28679188D+02 0.00000000D+00  -5  6  0 0.00000000D+00 0.00000000D+00 0.00000000D+00 0.00000000D+00 0.00000000D+00
  <mgrwgt>
 0.2619967396D+00    3    2    0
 0.354157824117742D+03 0.000000000000000D+00 0.000000000000000D+00 0.354157824117742D+03
 0.354157824117742D+03 0.000000000000000D+00 0.000000000000000D+00 -.354157824117742D+03
 0.163679257196298D+03 -.774328551999790D+02 -.707825854574988D+02 -.126442780680818D+02
 0.281062177820575D+03 0.393108784141902D+02 0.886335604653997D+02 -.247546850625847D+03
 0.263574213218611D+03 0.381219767857888D+02 -.178509750079009D+02 0.260191128693929D+03
 0.000000000000000D+00 0.000000000000000D+00 0.000000000000000D+00 0.000000000000000D+00
 0.634474672688917D+03 0.000000000000000D+00 0.000000000000000D+00 0.634474672688917D+03
 0.576783895067089D+03 0.000000000000000D+00 0.000000000000000D+00 -.576783895067089D+03
 0.243416661321502D+03 -.130695216324769D+03 -.162436306504630D+03 -.126442780680818D+02
 0.268102349790646D+03 -.325390175342860D+02 -.350055381674630D+02 -.247546850625847D+03
 0.299839604627653D+03 -.355922238824057D+02 -.144698163952937D+03 0.260191128693929D+03
 0.399899952016205D+03 0.198826457741460D+03 0.342140008625029D+03 0.576907776218277D+02
0.133784202684D-03 0.000000000000D+00 0.000000000000D+00 0.133567103619D-05 0.000000000000D+00  6 21 2 25 23 2 21 2 0.11300944D-01 0.26269526D+00 0.28626600D+05 0.28626600D+05 0.28626600D+05 0.12170402D+01  1  2  2  2  6  2        2 0.178628847849D+00 0.100000000000D+01
0.263091726816D-04 0.705998633780D-05 -.270071760281D-06 0.133567103619D-05 0.000000000000D+00  6 21 2 25 23 2 21 4 0.11300944D-01 0.26269526D+00 0.28626600D+05 0.28626600D+05 0.28626600D+05 0.12170402D+01  1  2  3  2  6  2        2 0.520311932598D-01 0.100000000000D+01
0.158451605893D-04 0.000000000000D+00 0.000000000000D+00 0.133567103619D-05 0.000000000000D+00  6 21 2 25 23 2 21 4 0.11300944D-01 0.26269526D+00 0.28626600D+05 0.28626600D+05 0.28626600D+05 0.12170402D+01  1  2 15  2  6  2        2 0.313366985284D-01 0.100000000000D+01
  </mgrwgt>
  </event>
  <event>
  5     66 0.38225901E-03 0.23068564E+02 0.75467711E-02 0.10681335E+00
       21 -1    0    0  501  502 0.00000000E+00 0.00000000E+00 0.56551522E+02 0.56556495E+02 0.75000000E+00 0.0000E+00 0.9000E+01
        2 -1    0    0  502    0 0.00000000E+00 0.00000000E+00 -.14149680E+04 0.14149680E+04 0.32000000E+00 0.0000E+00 0.9000E+01
       25  1    1    2    0    0 0.10479988E+03 0.77693253E+02 -.99403319E+03 0.10103199E+04 0.12500000E+03 0.0000E+00 0.9000E+01
       23  1    1    2    0    0 -.86594709E+02 -.63525354E+02 -.39699728E+03 0.42125551E+03 0.91188000E+02 0.0000E+00 0.9000E+01
        2  1    1    2  501    0 -.18205169E+02 -.14167899E+02 0.32614007E+02 0.39949135E+02 0.32000000E+00 0.0000E+00 0.9000E+01
#aMCatNLO 1  0  0  1  5 0.11634937D+02 0.00000000D+00  -5  6  0 0.00000000D+00 0.00000000D+00 0.00000000D+00 0.00000000D+00 0.00000000D+00
  <mgrwgt>
 0.4660394485D+00   12    2    0
 0.282882092058508D+03 0.000000000000000D+00 0.000000000000000D+00 0.282882092058508D+03
 0.282882092058508D+03 0.000000000000000D+00 0.000000000000000D+00 -.282882092058508D+03
 0.241088883311219D+03 0.104799889248065D+03 0.776932618538002D+02 -.159623275033313D+03
 0.142462487916943D+03 -.865947016483410D+02 -.635253485194929D+02 -.211233723963949D+02
 0.182212812888855D+03 -.182051875997243D+02 -.141679133343073D+02 0.180746647429708D+03
 0.000000000000000D+00 0.000000000000000D+00 -.000000000000000D+00 0.000000000000000D+00
 0.549673608579205D+03 0.000000000000000D+00 0.000000000000000D+00 0.549673608579205D+03
 0.365503189416688D+03 0.000000000000000D+00 0.000000000000000D+00 -.365503189416688D+03
 0.218296886045169D+03 0.119998717764384D+02 0.800308915482359D+02 -.159623275033313D+03
 0.190393450633067D+03 -.153834566209779D+03 -.618315783206164D+02 -.211233723963949D+02
 0.205245103329583D+03 -.964751380271542D+02 -.121962955988137D+02 0.180746647429708D+03
 0.301241357988073D+03 0.238309832460495D+03 -.600301762880583D+01 0.184170419162517D+03
0.950232598082D-04 0.000000000000D+00 0.000000000000D+00 0.296629215898D-05 0.000000000000D+00  6 21 2 25 23 2 21 2 0.87006194D-02 0.21768777D+00 0.29693072D+05 0.29693072D+05 0.29693072D+05 0.12153674D+01  1  2  2  1  6  1       21 0.284933315271D+00 0.100000000000D+01
0.315377920970D-04 0.501451518610D-05 -.191824584138D-06 0.296629215898D-05 0.000000000000D+00  6 21 2 25 23 2 21 4 0.87006194D-02 0.21768777D+00 0.29693072D+05 0.29693072D+05 0.29693072D+05 0.12153674D+01  1  2  3  1  6  1       21 0.139688214969D+00 0.100000000000D+01
0.102732804736D-04 0.000000000000D+00 0.000000000000D+00 0.296629215898D-05 0.000000000000D+00  6 21 2 25 23 2 21 4 0.87006194D-02 0.21768777D+00 0.29693072D+05 0.29693072D+05 0.29693072D+05 0.12153674D+01  1  2 15  1  6  1       21 0.455027481577D-01 0.100000000000D+01
-.977853666939D-05 0.000000000000D+00 -.177743932037D-03 0.296629215898D-05 0.000000000000D+00  6 21 2 25 23 2 21 4 0.22158413D-01 0.21768777D+00 0.29693072D+05 0.29693072D+05 0.29693072D+05 0.12153674D+01  1  2  5  1  6  1       21 -.799432364444D-02 0.100000000000D+01
0.776995576456D-05 0.000000000000D+00 -.566256233665D-04 0.296629215898D-05 0.000000000000D+00  6 -1 2 25 23 2 -1 4 0.22158413D-01 0.21768777D+00 0.29693072D+05 0.29693072D+05 0.29693072D+05 0.12153674D+01  1  2  5  4  6  1       21 0.513400855949D-03 0.100000000000D+01
0.776995576456D-05 0.000000000000D+00 -.566256233665D-04 0.296629215898D-05 0.000000000000D+00  6 -3 2 25 23 2 -3 4 0.22158413D-01 0.21768777D+00 0.29693072D+05 0.29693072D+05 0.29693072D+05 0.12153674D+01  1  2  5  4  6  1       21 0.304252179657D-03 0.100000000000D+01
0.776995576456D-05 0.000000000000D+00 -.566256233665D-04 0.296629215898D-05 0.000000000000D+00  6 1 2 25 23 2 1 4 0.22158413D-01 0.21768777D+00 0.29693072D+05 0.29693072D+05 0.29693072D+05 0.12153674D+01  1  2  5  5  6  1       21 0.799966965352D-03 0.100000000000D+01
0.776995576456D-05 0.000000000000D+00 -.566256233665D-04 0.296629215898D-05 0.000000000000D+00  6 3 2 25 23 2 3 4 0.22158413D-01 0.21768777D+00 0.29693072D+05 0.29693072D+05 0.29693072D+05 0.12153674D+01  1  2  5  5  6  1       21 0.304231513993D-03 0.100000000000D+01
0.776995576456D-05 0.000000000000D+00 -.566256233665D-04 0.296629215898D-05 0.000000000000D+00  6 -2 2 25 23 2 -2 4 0.22158413D-01 0.21768777D+00 0.29693072D+05 0.29693072D+05 0.29693072D+05 0.12153674D+01  1  2  5  6  6  1       21 0.465401961353D-03 0.100000000000D+01
0.776995576456D-05 0.000000000000D+00 -.566256233665D-04 0.296629215898D-05 0.000000000000D+00  6 2 2 25 23 2 2 4 0.22158413D-01 0.21768777D+00 0.29693072D+05 0.29693072D+05 0.29693072D+05 0.12153674D+01  1  2  5  7  6  1       21 0.100340866518D-02 0.100000000000D+01
0.776995576456D-05 0.000000000000D+00 -.566256233665D-04 0.296629215898D-05 0.000000000000D+00  6 -4 2 25 23 2 -4 4 0.22158413D-01 0.21768777D+00 0.29693072D+05 0.29693072D+05 0.29693072D+05 0.12153674D+01  1  2  5  8  6  1       21 0.259415782555D-03 0.100000000000D+01
0.776995576456D-05 0.000000000000D+00 -.566256233665D-04 0.296629215898D-05 0.000000000000D+00  6 4 2 25 23 2 4 4 0.22158413D-01 0.21768777D+00 0.29693072D+05 0.29693072D+05 0.29693072D+05 0.12153674D+01  1  2  5  9  6  1       21 0.259415782555D-03 0.100000000000D+01
  </mgrwgt>
  </event>
  <event>
  6     66 0.38225901E-03 0.17310367E+02 0.75467711E-02 0.12311616E+00
       21 -1    0    0  501  502 0.00000000E+00 0.00000000E+00 0.18394744E+02 0.18410027E+02 0.75000000E+00 0.0000E+00 0.9000E+01
        2 -1    0    0  502    0 -.00000000E+00 -.00000000E+00 -.11301433E+04 0.11301434E+04 0.32000000E+00 0.0000E+00 0.9000E+01
       25  1    1    2    0    0 -.31777425E+02 0.16760857E+02 -.41410624E+03 0.43405035E+03 0.12500000E+03 0.0000E+00 0.9000E+01
       23  1    1    2    0    0 0.33217610E+02 0.61750175E+01 -.59833182E+03 0.60618294E+03 0.91188000E+02 0.0000E+00 0.9000E+01
        2  1    1    2  503    0 -.74160645E+01 -.19698374E+02 -.21078250E+02 0.29789578E+02 0.32000000E+00 0.0000E+00 0.9000E+01
       21  1    1    2  501  503 0.59758791E+01 -.32375008E+01 -.78232286E+02 0.78530539E+02 0.75000000E+00 0.0000E+00 0.9000E+01
#aMCatNLO 2  0  0  5  1 0.10617716D+02 0.00000000D+00  -5  6  0 0.00000000D+00 0.00000000D+00 0.00000000D+00 0.00000000D+00 0.00000000D+00
  <mgrwgt>
 0.4142713804D+00    2    2    0
 0.144213383130192D+03 0.000000000000000D+00 0.000000000000000D+00 0.144213383130192D+03
 0.144213383130192D+03 -.000000000000000D+00 -.000000000000000D+00 -.144213383130192D+03
 0.132139001282947D+03 -.314210604508303D+02 0.224361899670011D+02 0.185755215260426D+02
 0.110065206939582D+03 0.335110027660966D+02 0.108474807329271D+02 -.505810566320279D+02
 0.462225580378547D+02 -.208994231526632D+01 -.332836706999281D+02 0.320055351059852D+02
 0.000000000000000D+00 0.000000000000000D+00 0.000000000000000D+00 -.000000000000000D+00
 0.144213383130192D+03 0.000000000000000D+00 0.000000000000000D+00 0.144213383130192D+03
 0.144213383130192D+03 -.000000000000000D+00 -.000000000000000D+00 -.144213383130192D+03
 0.132268392833289D+03 -.317834374273899D+02 0.166651043877751D+02 0.241249900258004D+02
 0.107576569089493D+03 0.332127192440563D+02 0.609712449089869D+01 -.460131201552828D+02
 0.372152270270486D+02 -.753712351993675D+01 -.193861349682183D+02 0.308600496226757D+02
 0.113665773105525D+02 0.610784170327042D+01 -.337609391045538D+01 -.897191949319339D+01
-.257079559144D-06 0.000000000000D+00 0.000000000000D+00 0.555819776295D-06 0.000000000000D+00  6 21 2 25 23 2 21 4 0.28311397D-02 0.17386939D+00 0.17151883D+05 0.17151883D+05 0.17151883D+05 0.12412395D+01  1  2  8  3  6  5        2 -.118205664917D-01 0.100000000000D+01
0.919564574211D-05 0.000000000000D+00 0.000000000000D+00 0.555819776295D-06 0.200561978899D-06  6 21 2 25 23 2 21 4 0.28311397D-02 0.17386939D+00 0.16264881D+05 0.16264881D+05 0.16264881D+05 0.12438341D+01  1  2  1  3  6  5        2 0.426091946855D+00 0.100000000000D+01
  </mgrwgt>
  </event>
  <event>
  5     66 0.38225901E-03 0.73369219E+02 0.75467711E-02 0.11551046E+00
       21 -1    0    0  501  502 0.00000000E+00 0.00000000E+00 0.41022379E+03 0.41022447E+03 0.75000000E+00 0.0000E+00 0.9000E+01
        2 -1    0    0  502    0 0.00000000E+00 0.00000000E+00 -.14336955E+03 0.14336991E+03 0.32000000E+00 0.0000E+00 0.9000E+01
       25  1    1    2    0    0 0.56212806E+02 -.56973777E+02 0.66888959E+02 0.16280364E+03 0.12500000E+03 0.0000E+00 0.9000E+01
       23  1    1    2    0    0 0.44651877E+02 0.27710773E+02 -.52308125E+02 0.11752901E+03 0.91188000E+02 0.0000E+00 0.9000E+01
        2  1    1    2  501    0 -.10086468E+03 0.29263004E+02 0.25227340E+03 0.27326174E+03 0.32000000E+00 0.0000E+00 0.9000E+01
#aMCatNLO 1  0  0  1  2 0.28006063D+02 0.00000000D+00  -5  6  0 0.00000000D+00 0.00000000D+00 0.00000000D+00 0.00000000D+00 0.00000000D+00
  <mgrwgt>
 0.5072409798D-01   23    2    0
 0.242515752264585D+03 0.000000000000000D+00 0.000000000000000D+00 0.242515752264585D+03
 0.242515752264585D+03 0.000000000000000D+00 0.000000000000000D+00 -.242515752264585D+03
 0.149016283283802D+03 0.562128593402065D+02 -.569737925102621D+02 -.132270214150414D+02
 0.162921540821454D+03 0.446519349129263D+02 0.277107563752950D+02 -.124364367120480D+03
 0.173093680423914D+03 -.100864794253133D+03 0.292630361349671D+02 0.137591388535521D+03
 0.000000000000000D+00 0.000000000000000D+00 0.000000000000000D+00 0.000000000000000D+00
 0.269887672820561D+03 0.000000000000000D+00 0.000000000000000D+00 0.269887672820561D+03
 0.250190713347815D+03 0.000000000000000D+00 0.000000000000000D+00 -.250190713347815D+03
 0.150047985577468D+03 0.511879722548339D+02 -.639862123959572D+02 -.132270214150414D+02
 0.160390569558784D+03 0.392196348451845D+02 0.201297762710882D+02 -.124364367120480D+03
 0.175400821554604D+03 -.106720209642550D+03 0.210915826041436D+02 0.137591388535521D+03
 0.342390094775201D+02 0.163126025425319D+02 0.227648535207255D+02 0.196969594727461D+02
0.918333722069D-05 0.000000000000D+00 0.000000000000D+00 0.268621722701D-06 0.000000000000D+00  6 21 2 25 23 2 21 2 0.63111432D-01 0.22056935D-01 0.32166254D+05 0.32166254D+05 0.32166254D+05 0.12117333D+01  1  2  2  1  6  1       21 0.955312156671D-02 0.100000000000D+01
-.217064817589D-06 0.484618019264D-06 -.185385120118D-07 0.268621722701D-06 0.000000000000D+00  6 21 2 25 23 2 21 4 0.63111432D-01 0.22056935D-01 0.32166254D+05 0.32166254D+05 0.32166254D+05 0.12117333D+01  1  2  3  1  6  1       21 -.331549421523D-03 0.100000000000D+01
0.110974291156D-05 0.000000000000D+00 0.000000000000D+00 0.268621722701D-06 0.000000000000D+00  6 21 2 25 23 2 21 4 0.63111432D-01 0.22056935D-01 0.32166254D+05 0.32166254D+05 0.32166254D+05 0.12117333D+01  1  2 15  1  6  1       21 0.169504493843D-02 0.100000000000D+01
0.269673949207D-04 0.000000000000D+00 0.000000000000D+00 0.265557300113D-06 0.000000000000D+00  6 21 2 25 23 2 21 4 0.71155337D-01 0.22056935D-01 0.37546680D+05 0.37546680D+05 0.37546680D+05 0.12048018D+01  1  2 12  1  6  1       21 0.308524571860D-01 0.100000000000D+01
-.180995946603D-04 0.000000000000D+00 0.000000000000D+00 0.268621722701D-06 0.000000000000D+00  6 21 2 25 23 2 21 4 0.63111432D-01 0.22056935D-01 0.32166254D+05 0.32166254D+05 0.32166254D+05 0.12117333D+01  1  2  4  1  6  1       21 -.276457060434D-01 0.100000000000D+01
-.110973514629D-03 0.000000000000D+00 -.221452626318D-04 0.268621722701D-06 0.000000000000D+00  6 21 2 25 23 2 21 4 0.71918179D-01 0.22056935D-01 0.32166254D+05 0.32166254D+05 0.32166254D+05 0.12117333D+01  1  2  5  1  6  1       21 -.127400226587D+00 0.100000000000D+01
0.109660574395D-03 0.000000000000D+00 0.214074041118D-04 0.268621722701D-06 0.000000000000D+00  6 21 2 25 23 2 21 4 0.63111432D-01 0.22056935D-01 0.32166254D+05 0.32166254D+05 0.32166254D+05 0.12117333D+01  1  2  6  1  6  1       21 0.167497894908D+00 0.100000000000D+01
0.847566995662D-06 0.000000000000D+00 0.000000000000D+00 0.265557300113D-06 0.000000000000D+00  6 -1 2 25 23 2 -1 4 0.71155337D-01 0.22056935D-01 0.37546680D+05 0.37546680D+05 0.37546680D+05 0.12048018D+01  1  2 12  4  6  1       21 0.104919801907D-03 0.100000000000D+01
0.847566995662D-06 0.000000000000D+00 0.000000000000D+00 0.265557300113D-06 0.000000000000D+00  6 -3 2 25 23 2 -3 4 0.71155337D-01 0.22056935D-01 0.37546680D+05 0.37546680D+05 0.37546680D+05 0.12048018D+01  1  2 12  4  6  1       21 0.515224673876D-04 0.100000000000D+01
-.343963646859D-05 0.000000000000D+00 -.767809751296D-06 0.268621722701D-06 0.000000000000D+00  6 -1 2 25 23 2 -1 4 0.71918179D-01 0.22056935D-01 0.32166254D+05 0.32166254D+05 0.32166254D+05 0.12117333D+01  1  2  5  4  6  1       21 -.426427881366D-03 0.100000000000D+01
-.343963646859D-05 0.000000000000D+00 -.767809751296D-06 0.268621722701D-06 0.000000000000D+00  6 -3 2 25 23 2 -3 4 0.71918179D-01 0.22056935D-01 0.32166254D+05 0.32166254D+05 0.32166254D+05 0.12117333D+01  1  2  5  4  6  1       21 -.208328617953D-03 0.100000000000D+01
0.847566995662D-06 0.000000000000D+00 0.000000000000D+00 0.265557300113D-06 0.000000000000D+00  6 1 2 25 23 2 1 4 0.71155337D-01 0.22056935D-01 0.37546680D+05 0.37546680D+05 0.37546680D+05 0.12048018D+01  1  2 12  5  6  1       21 0.299997602255D-03 0.100000000000D+01
0.847566995662D-06 0.000000000000D+00 0.000000000000D+00 0.265557300113D-06 0.000000000000D+00  6 3 2 25 23 2 3 4 0.71155337D-01 0.22056935D-01 0.37546680D+05 0.37546680D+05 0.37546680D+05 0.12048018D+01  1  2 12  5  6  1       21 0.515743083213D-04 0.100000000000D+01
-.343963646859D-05 0.000000000000D+00 -.767809751296D-06 0.268621722701D-06 0.000000000000D+00  6 1 2 25 23 2 1 4 0.71918179D-01 0.22056935D-01 0.32166254D+05 0.32166254D+05 0.32166254D+05 0.12117333D+01  1  2  5  5  6  1       21 -.122796088125D-02 0.100000000000D+01
-.343963646859D-05 0.000000000000D+00 -.767809751296D-06 0.268621722701D-06 0.000000000000D+00  6 3 2 25 23 2 3 4 0.71918179D-01 0.22056935D-01 0.32166254D+05 0.32166254D+05 0.32166254D+05 0.12117333D+01  1  2  5  5  6  1       21 -.208542589233D-03 0.100000000000D+01
0.847566995662D-06 0.000000000000D+00 0.000000000000D+00 0.265557300113D-06 0.000000000000D+00  6 -2 2 25 23 2 -2 4 0.71155337D-01 0.22056935D-01 0.37546680D+05 0.37546680D+05 0.37546680D+05 0.12048018D+01  1  2 12  6  6  1       21 0.815783164446D-04 0.100000000000D+01
-.343963646859D-05 0.000000000000D+00 -.767809751296D-06 0.268621722701D-06 0.000000000000D+00  6 -2 2 25 23 2 -2 4 0.71918179D-01 0.22056935D-01 0.32166254D+05 0.32166254D+05 0.32166254D+05 0.12117333D+01  1  2  5  6  6  1       21 -.330809673509D-03 0.100000000000D+01
0.847566995662D-06 0.000000000000D+00 0.000000000000D+00 0.265557300113D-06 0.000000000000D+00  6 2 2 25 23 2 2 4 0.71155337D-01 0.22056935D-01 0.37546680D+05 0.37546680D+05 0.37546680D+05 0.12048018D+01  1  2 12  7  6  1       21 0.461207733898D-03 0.100000000000D+01
-.343963646859D-05 0.000000000000D+00 -.767809751296D-06 0.268621722701D-06 0.000000000000D+00  6 2 2 25 23 2 2 4 0.71918179D-01 0.22056935D-01 0.32166254D+05 0.32166254D+05 0.32166254D+05 0.12117333D+01  1  2  5  7  6  1       21 -.189070955106D-02 0.100000000000D+01
0.847566995662D-06 0.000000000000D+00 0.000000000000D+00 0.265557300113D-06 0.000000000000D+00  6 -4 2 25 23 2 -4 4 0.71155337D-01 0.22056935D-01 0.37546680D+05 0.37546680D+05 0.37546680D+05 0.12048018D+01  1  2 12  8  6  1       21 0.419992426309D-04 0.100000000000D+01
-.343963646859D-05 0.000000000000D+00 -.767809751296D-06 0.268621722701D-06 0.000000000000D+00  6 -4 2 25 23 2 -4 4 0.71918179D-01 0.22056935D-01 0.32166254D+05 0.32166254D+05 0.32166254D+05 0.12117333D+01  1  2  5  8  6  1       21 -.169479045111D-03 0.100000000000D+01
0.847566995662D-06 0.000000000000D+00 0.000000000000D+00 0.265557300113D-06 0.000000000000D+00  6 4 2 25 23 2 4 4 0.71155337D-01 0.22056935D-01 0.37546680D+05 0.37546680D+05 0.37546680D+05 0.12048018D+01  1  2 12  9  6  1       21 0.419992426309D-04 0.100000000000D+01
-.343963646859D-05 0.000000000000D+00 -.767809751296D-06 0.268621722701D-06 0.000000000000D+00  6 4 2 25 23 2 4 4 0.71918179D-01 0.22056935D-01 0.32166254D+05 0.32166254D+05 0.32166254D+05 0.12117333D+01  1  2  5  9  6  1       21 -.169479045111D-03 0.100000000000D+01
  </mgrwgt>
  </event>
  <event>
  6     66 0.38225901E-03 0.24141570E+02 0.75467711E-02 0.11935891E+00
       21 -1    0    0  501  502 0.00000000E+00 0.00000000E+00 0.10806861E+03 0.10807121E+03 0.75000000E+00 0.0000E+00 0.9000E+01
        2 -1    0    0  502    0 -.00000000E+00 -.00000000E+00 -.70810118E+03 0.70810125E+03 0.32000000E+00 0.0000E+00 0.9000E+01
       25  1    1    2    0    0 0.22689326E+02 -.86576742E+01 -.38319913E+03 0.40380235E+03 0.12500000E+03 0.0000E+00 0.9000E+01
       23  1    1    2    0    0 0.15084517E+02 0.11150575E+02 -.27466232E+03 0.29001124E+03 0.91188000E+02 0.0000E+00 0.9000E+01
        2  1    1    2  503    0 -.14082693E+02 -.42631679E+02 -.38306495E+01 0.45061719E+02 0.32000000E+00 0.0000E+00 0.9000E+01
       21  1    1    2  501  503 -.23691150E+02 0.40138778E+02 0.61659526E+02 0.77297165E+02 0.75000000E+00 0.0000E+00 0.9000E+01
#aMCatNLO 2  0  0  5  1 0.11266888D+02 0.00000000D+00  -5  6  0 0.00000000D+00 0.00000000D+00 0.00000000D+00 0.00000000D+00 0.00000000D+00
  <mgrwgt>
 0.2174449002D-01    1    2    0
 0.276630804544274D+03 0.000000000000000D+00 0.000000000000000D+00 0.276630804544274D+03
 0.276630804544274D+03 -.000000000000000D+00 -.000000000000000D+00 -.276630804544274D+03
 0.185477246316767D+03 0.239521903610153D+02 -.857433093055751D+01 -.134646137439043D+03
 0.133775823416807D+03 0.159955288045012D+02 0.112106976600200D+02 -.959123709595620D+02
 0.234008539354974D+03 -.399477191655165D+02 -.263636672946246D+01 0.230558508398605D+03
 0.000000000000000D+00 0.000000000000000D+00 0.000000000000000D+00 0.000000000000000D+00
 0.276630804544274D+03 0.000000000000000D+00 0.000000000000000D+00 0.276630804544274D+03
 0.276630804544274D+03 -.000000000000000D+00 -.000000000000000D+00 -.276630804544274D+03
 0.180130099867796D+03 0.226973526747741D+02 -.865714447776342D+01 -.127403833966762D+03
 0.129967707362569D+03 0.150903081480289D+02 0.111509572375028D+02 -.906878843383581D+02
 0.618008355863275D+02 -.139643664460411D+02 -.423619116741992D+02 0.427762572957980D+02
 0.181362966271855D+03 -.238232943767620D+02 0.398680989144598D+02 0.175315461009322D+03
0.565901303553D-05 0.000000000000D+00 0.000000000000D+00 0.742878803717D-05 0.562992822674D-07  6 21 2 25 23 2 21 4 0.16626146D-01 0.10893885D+00 0.24255706D+05 0.24255706D+05 0.24255706D+05 0.12247074D+01  1  2  1  3  6  5        2 0.217444900191D-01 0.100000000000D+01
  </mgrwgt>
  </event>
  <event>
  5     66 0.38225901E-03 0.31967292E+02 0.75467711E-02 0.11654411E+00
       21 -1    0    0  501  502 0.00000000E+00 0.00000000E+00 0.66772875E+02 0.66777087E+02 0.75000000E+00 0.0000E+00 0.9000E+01
        2 -1    0    0  502    0 0.00000000E+00 0.00000000E+00 -.26025468E+03 0.26025487E+03 0.32000000E+00 0.0000E+00 0.9000E+01
       25  1    1    2    0    0 0.97236965E+01 0.29006722E+02 -.91935945E+02 0.15815549E+03 0.12500000E+03 0.0000E+00 0.9000E+01
       23  1    1    2    0    0 -.41310384E+02 -.24097652E+02 -.77461939E+02 0.12885204E+03 0.91188000E+02 0.0000E+00 0.9000E+01
        2  1    1    2  501    0 0.31586688E+02 -.49090697E+01 -.24083917E+02 0.40024434E+02 0.32000000E+00 0.0000E+00 0.9000E+01
#aMCatNLO 1  0  0  1  1 0.87239959D+02 0.00000000D+00  -5  6  0 0.00000000D+00 0.00000000D+00 0.00000000D+00 0.00000000D+00 0.00000000D+00
  <mgrwgt>
 0.1087824242D+00   14    2    0
 0.131828198331492D+03 0.000000000000000D+00 0.000000000000000D+00 0.131828198331492D+03
 0.131828198331492D+03 0.000000000000000D+00 0.000000000000000D+00 -.131828198331492D+03
 0.128705235261067D+03 0.972292407545158D+01 0.290068416517879D+02 0.202619555270684D+01
 0.102979936057899D+03 -.413110023117703D+02 -.240975559026362D+02 -.152472095981222D+01
 0.319712253440173D+02 0.315880782363187D+02 -.490928574915172D+01 -.501474592894624D+00
 0.000000000000000D+00 0.000000000000000D+00 0.000000000000000D+00 0.000000000000000D+00
 0.202890270680046D+03 0.000000000000000D+00 0.000000000000000D+00 0.202890270680046D+03
 0.168571861716331D+03 0.000000000000000D+00 0.000000000000000D+00 -.168571861716331D+03
 0.126195737917079D+03 -.170812694730065D+02 -.211873386926444D+01 0.202619555270684D+01
 0.123432622386657D+03 -.651194874763525D+02 -.517444538289754D+02 -.152472095981222D+01
 0.280864322929587D+02 0.252726959947473D+02 -.122428362456057D+02 -.501474592894624D+00
 0.937473397996822D+02 0.569280609546117D+02 0.661060239438456D+02 0.343184089637153D+02
0.288990018523D-05 0.000000000000D+00 0.000000000000D+00 0.349712154714D-06 0.000000000000D+00  6 21 2 25 23 2 21 2 0.10273089D-01 0.40039520D-01 0.17374565D+05 0.17374565D+05 0.17374565D+05 0.12406117D+01  1  2  2  1  6  1       21 0.537521634712D-01 0.100000000000D+01
-.107576389409D-07 0.152504222591D-06 -.583387585682D-08 0.349712154714D-06 0.000000000000D+00  6 21 2 25 23 2 21 4 0.10273089D-01 0.40039520D-01 0.17374565D+05 0.17374565D+05 0.17374565D+05 0.12406117D+01  1  2  3  1  6  1       21 -.307965306726D-03 0.100000000000D+01
0.376199894883D-06 0.000000000000D+00 0.000000000000D+00 0.349712154714D-06 0.000000000000D+00  6 21 2 25 23 2 21 4 0.10273089D-01 0.40039520D-01 0.17374565D+05 0.17374565D+05 0.17374565D+05 0.12406117D+01  1  2 15  1  6  1       21 0.107696973894D-01 0.100000000000D+01
-.273033888928D-06 0.000000000000D+00 0.000000000000D+00 0.349712154714D-06 0.000000000000D+00  6 21 2 25 23 2 21 4 0.10273089D-01 0.40039520D-01 0.17374565D+05 0.17374565D+05 0.17374565D+05 0.12406117D+01  1  2  4  1  6  1       21 -.781630298358D-02 0.100000000000D+01
-.590117533349D-05 0.000000000000D+00 -.382829245838D-05 0.349712154714D-06 0.000000000000D+00  6 21 2 25 23 2 21 4 0.20035629D-01 0.40039520D-01 0.17374565D+05 0.17374565D+05 0.17374565D+05 0.12406117D+01  1  2  5  1  6  1       21 -.508081105928D-01 0.100000000000D+01
0.382696531490D-05 0.000000000000D+00 0.178850740100D-05 0.349712154714D-06 0.000000000000D+00  6 21 2 25 23 2 21 4 0.10273089D-01 0.40039520D-01 0.17374565D+05 0.17374565D+05 0.17374565D+05 0.12406117D+01  1  2  6  1  6  1       21 0.109556804565D+00 0.100000000000D+01
-.126645044159D-05 0.000000000000D+00 -.911505971060D-06 0.349712154714D-06 0.000000000000D+00  6 -1 2 25 23 2 -1 4 0.20035629D-01 0.40039520D-01 0.17374565D+05 0.17374565D+05 0.17374565D+05 0.12406117D+01  1  2  5  4  6  1       21 -.850792095034D-03 0.100000000000D+01
-.126645044159D-05 0.000000000000D+00 -.911505971060D-06 0.349712154714D-06 0.000000000000D+00  6 -3 2 25 23 2 -3 4 0.20035629D-01 0.40039520D-01 0.17374565D+05 0.17374565D+05 0.17374565D+05 0.12406117D+01  1  2  5  4  6  1       21 -.505852637403D-03 0.100000000000D+01
-.126645044159D-05 0.000000000000D+00 -.911505971060D-06 0.349712154714D-06 0.000000000000D+00  6 1 2 25 23 2 1 4 0.20035629D-01 0.40039520D-01 0.17374565D+05 0.17374565D+05 0.17374565D+05 0.12406117D+01  1  2  5  5  6  1       21 -.128056875949D-02 0.100000000000D+01
-.126645044159D-05 0.000000000000D+00 -.911505971060D-06 0.349712154714D-06 0.000000000000D+00  6 3 2 25 23 2 3 4 0.20035629D-01 0.40039520D-01 0.17374565D+05 0.17374565D+05 0.17374565D+05 0.12406117D+01  1  2  5  5  6  1       21 -.505804293487D-03 0.100000000000D+01
-.126645044159D-05 0.000000000000D+00 -.911505971060D-06 0.349712154714D-06 0.000000000000D+00  6 -2 2 25 23 2 -2 4 0.20035629D-01 0.40039520D-01 0.17374565D+05 0.17374565D+05 0.17374565D+05 0.12406117D+01  1  2  5  6  6  1       21 -.777843345185D-03 0.100000000000D+01
-.126645044159D-05 0.000000000000D+00 -.911505971060D-06 0.349712154714D-06 0.000000000000D+00  6 2 2 25 23 2 2 4 0.20035629D-01 0.40039520D-01 0.17374565D+05 0.17374565D+05 0.17374565D+05 0.12406117D+01  1  2  5  7  6  1       21 -.158200154066D-02 0.100000000000D+01
-.126645044159D-05 0.000000000000D+00 -.911505971060D-06 0.349712154714D-06 0.000000000000D+00  6 -4 2 25 23 2 -4 4 0.20035629D-01 0.40039520D-01 0.17374565D+05 0.17374565D+05 0.17374565D+05 0.12406117D+01  1  2  5  8  6  1       21 -.430499811651D-03 0.100000000000D+01
-.126645044159D-05 0.000000000000D+00 -.911505971060D-06 0.349712154714D-06 0.000000000000D+00  6 4 2 25 23 2 4 4 0.20035629D-01 0.40039520D-01 0.17374565D+05 0.17374565D+05 0.17374565D+05 0.12406117D+01  1  2  5  9  6  1       21 -.430499811651D-03 0.100000000000D+01
  </mgrwgt>
  </event>
  <event>
  5     66 0.38225901E-03 0.31063104E+02 0.75467711E-02 0.12032677E+00
       21 -1    0    0  501  502 0.00000000E+00 0.00000000E+00 0.34693126E+03 0.34693207E+03 0.75000000E+00 0.0000E+00 0.9000E+01
        4 -1    0    0  502    0 0.00000000E+00 0.00000000E+00 -.10435960E+03 0.10437111E+03 0.15500000E+01 0.0000E+00 0.9000E+01
       25  1    1    2    0    0 -.35471361E+02 -.25826453E+02 0.18768928E+03 0.22973352E+03 0.12500000E+03 0.0000E+00 0.9000E+01
       23  1    1    2    0    0 0.21766339E+02 -.20480422E+01 0.11828775E+03 0.15094771E+03 0.91188000E+02 0.0000E+00 0.9000E+01
        4  1    1    2  501    0 0.13705022E+02 0.27874495E+02 -.63405379E+02 0.70621949E+02 0.15500000E+01 0.0000E+00 0.9000E+01
#aMCatNLO 1  0  0  1  1 0.37963324D+02 0.00000000D+00  -5  6  0 0.00000000D+00 0.00000000D+00 0.00000000D+00 0.00000000D+00 0.00000000D+00
  <mgrwgt>
 0.9831248402D-02    4    2    0
 0.190285018255656D+03 0.000000000000000D+00 0.000000000000000D+00 0.190285018255656D+03
 0.190285018255656D+03 0.000000000000000D+00 0.000000000000000D+00 -.190285018255656D+03
 0.152802821333303D+03 -.354717899733651D+02 -.258273247113483D+02 0.761472496007396D+02
 0.103608578298172D+03 0.217660483203902D+02 -.204863361499689D+01 0.440627778719674D+02
 0.124158636879837D+03 0.137057416529749D+02 0.278759583263452D+02 -.120210027472707D+03
 0.000000000000000D+00 -.000000000000000D+00 0.000000000000000D+00 -.000000000000000D+00
 0.195208644052354D+03 0.000000000000000D+00 0.000000000000000D+00 0.195208644052354D+03
 0.281775626218347D+03 0.000000000000000D+00 0.000000000000000D+00 -.281775626218347D+03
 0.153231597261678D+03 -.256079394192806D+02 -.374266244310935D+02 0.761472496007396D+02
 0.105685050349538D+03 0.285118290217277D+02 -.998126922919786D+01 0.440627778719674D+02
 0.123542195494348D+03 0.216894318662474D+02 0.184876149866341D+02 -.120210027472707D+03
 0.945254271651381D+02 -.245933214686945D+02 0.289202786736572D+02 -.865669821659926D+02
0.156984684359D-04 0.000000000000D+00 0.000000000000D+00 0.122025785289D-06 0.000000000000D+00  6 21 4 25 23 4 21 2 0.53374988D-01 0.16056271D-01 0.16552464D+05 0.16552464D+05 0.16552464D+05 0.12429758D+01  1  2  2  1  6  1       21 0.111197755364D-01 0.100000000000D+01
-.218131816758D-05 0.828430939219D-06 -.316906848429D-07 0.122025785289D-06 0.000000000000D+00  6 21 4 25 23 4 21 4 0.53374988D-01 0.16056271D-01 0.16552464D+05 0.16552464D+05 0.16552464D+05 0.12429758D+01  1  2  3  1  6  1       21 -.238716877757D-02 0.100000000000D+01
0.161377549596D-05 0.000000000000D+00 0.000000000000D+00 0.122025785289D-06 0.000000000000D+00  6 21 4 25 23 4 21 4 0.53374988D-01 0.16056271D-01 0.16552464D+05 0.16552464D+05 0.16552464D+05 0.12429758D+01  1  2 15  1  6  1       21 0.176606720432D-02 0.100000000000D+01
-.609872043762D-06 0.000000000000D+00 0.000000000000D+00 0.122025785289D-06 0.000000000000D+00  6 21 4 25 23 4 21 4 0.53374988D-01 0.16056271D-01 0.16552464D+05 0.16552464D+05 0.16552464D+05 0.12429758D+01  1  2  4  1  6  1       21 -.667425560755D-03 0.100000000000D+01
  </mgrwgt>
  </event>
  <event>
  5     66 -.38225901E-03 0.78651220E+02 0.75467711E-02 0.10728751E+00
       21 -1    0    0  501  502 0.00000000E+00 0.00000000E+00 0.94321907E+01 0.94619618E+01 0.75000000E+00 0.0000E+00 0.9000E+01
        2 -1    0    0  502    0 0.00000000E+00 0.00000000E+00 -.36752198E+04 0.36752198E+04 0.32000000E+00 0.0000E+00 0.9000E+01
       25  1    1    2    0    0 0.13161743E+02 0.10988646E+02 -.11354528E+04 0.11424413E+04 0.12500000E+03 0.0000E+00 0.9000E+01
       23  1    1    2    0    0 -.10595563E+02 0.67620441E+02 -.21887478E+04 0.21917155E+04 0.91188000E+02 0.0000E+00 0.9000E+01
        2  1    1    2  501    0 -.25661799E+01 -.78609086E+02 -.34158701E+03 0.35052498E+03 0.32000000E+00 0.0000E+00 0.9000E+01
#aMCatNLO 1  0  0  1  5 0.21077941D+03 0.00000000D+00  -5  6  0 0.00000000D+00 0.00000000D+00 0.00000000D+00 0.00000000D+00 0.00000000D+00
  <mgrwgt>
 -.3911575320D-01   12    2    0
 0.186333701147358D+03 0.000000000000000D+00 0.000000000000000D+00 0.186333701147358D+03
 0.186333701147358D+03 0.000000000000000D+00 0.000000000000000D+00 -.186333701147358D+03
 0.126664425992837D+03 0.131617471459222D+02 0.109887680898127D+02 0.111755178864384D+02
 0.140312149578508D+03 -.105955588479116D+02 0.676205763392205D+02 -.817767678720174D+02
 0.105690826723370D+03 -.256618829801056D+01 -.786093444290332D+02 0.706012499855790D+02
 0.000000000000000D+00 0.000000000000000D+00 0.000000000000000D+00 0.000000000000000D+00
 0.769682194077077D+03 0.000000000000000D+00 0.000000000000000D+00 0.769682194077077D+03
 0.251327745686503D+03 0.000000000000000D+00 0.000000000000000D+00 -.251327745686503D+03
 0.142488625338226D+03 -.674259364076941D+02 0.261901704705129D+01 0.111755178864384D+02
 0.170627125743946D+03 -.103694543979814D+03 0.579514148305721D+02 -.817767678720174D+02
 0.133819641081666D+03 -.742785233125950D+02 -.860573112187455D+02 0.706012499855790D+02
 0.574074547599742D+03 0.245399003700103D+03 0.254868793411222D+02 0.518354448390574D+03
0.689445149383D-05 0.000000000000D+00 0.000000000000D+00 0.231070999787D-06 0.000000000000D+00  6 21 2 25 23 2 21 2 0.14533974D-02 0.56542072D+00 0.25414654D+05 0.25414654D+05 0.25414654D+05 0.12225324D+01  1  2  2  1  6  1       21 0.222655356279D-01 0.100000000000D+01
-.212304777180D-06 0.363830201000D-06 -.139179111865D-07 0.231070999787D-06 0.000000000000D+00  6 21 2 25 23 2 21 4 0.14533974D-02 0.56542072D+00 0.25414654D+05 0.25414654D+05 0.25414654D+05 0.12225324D+01  1  2  3  1  6  1       21 -.102474067661D-02 0.100000000000D+01
0.724018168707D-06 0.000000000000D+00 0.000000000000D+00 0.231070999787D-06 0.000000000000D+00  6 21 2 25 23 2 21 4 0.14533974D-02 0.56542072D+00 0.25414654D+05 0.25414654D+05 0.25414654D+05 0.12225324D+01  1  2 15  1  6  1       21 0.349464989875D-02 0.100000000000D+01
-.399317669152D-03 0.000000000000D+00 -.139749178743D-03 0.231070999787D-06 0.000000000000D+00  6 21 2 25 23 2 21 4 0.12431578D-01 0.56542072D+00 0.25414654D+05 0.25414654D+05 0.25414654D+05 0.12225324D+01  1  2  5  1  6  1       21 -.522561296578D-01 0.100000000000D+01
-.175880757917D-03 0.000000000000D+00 -.606979239025D-04 0.231070999787D-06 0.000000000000D+00  6 -1 2 25 23 2 -1 4 0.12431578D-01 0.56542072D+00 0.25414654D+05 0.25414654D+05 0.25414654D+05 0.12225324D+01  1  2  5  4  6  1       21 -.161233125394D-02 0.100000000000D+01
-.175880757917D-03 0.000000000000D+00 -.606979239025D-04 0.231070999787D-06 0.000000000000D+00  6 -3 2 25 23 2 -3 4 0.12431578D-01 0.56542072D+00 0.25414654D+05 0.25414654D+05 0.25414654D+05 0.12225324D+01  1  2  5  4  6  1       21 -.103666537426D-02 0.100000000000D+01
-.175880757917D-03 0.000000000000D+00 -.606979239025D-04 0.231070999787D-06 0.000000000000D+00  6 1 2 25 23 2 1 4 0.12431578D-01 0.56542072D+00 0.25414654D+05 0.25414654D+05 0.25414654D+05 0.12225324D+01  1  2  5  5  6  1       21 -.211824470216D-02 0.100000000000D+01
-.175880757917D-03 0.000000000000D+00 -.606979239025D-04 0.231070999787D-06 0.000000000000D+00  6 3 2 25 23 2 3 4 0.12431578D-01 0.56542072D+00 0.25414654D+05 0.25414654D+05 0.25414654D+05 0.12225324D+01  1  2  5  5  6  1       21 -.103653628780D-02 0.100000000000D+01
-.175880757917D-03 0.000000000000D+00 -.606979239025D-04 0.231070999787D-06 0.000000000000D+00  6 -2 2 25 23 2 -2 4 0.12431578D-01 0.56542072D+00 0.25414654D+05 0.25414654D+05 0.25414654D+05 0.12225324D+01  1  2  5  6  6  1       21 -.152489214163D-02 0.100000000000D+01
-.175880757917D-03 0.000000000000D+00 -.606979239025D-04 0.231070999787D-06 0.000000000000D+00  6 2 2 25 23 2 2 4 0.12431578D-01 0.56542072D+00 0.25414654D+05 0.25414654D+05 0.25414654D+05 0.12225324D+01  1  2  5  7  6  1       21 -.246389400515D-02 0.100000000000D+01
-.175880757917D-03 0.000000000000D+00 -.606979239025D-04 0.231070999787D-06 0.000000000000D+00  6 -4 2 25 23 2 -4 4 0.12431578D-01 0.56542072D+00 0.25414654D+05 0.25414654D+05 0.25414654D+05 0.12225324D+01  1  2  5  8  6  1       21 -.901252313496D-03 0.100000000000D+01
-.175880757917D-03 0.000000000000D+00 -.606979239025D-04 0.231070999787D-06 0.000000000000D+00  6 4 2 25 23 2 4 4 0.12431578D-01 0.56542072D+00 0.25414654D+05 0.25414654D+05 0.25414654D+05 0.12225324D+01  1  2  5  9  6  1       21 -.901252313496D-03 0.100000000000D+01
  </mgrwgt>
  </event>
  <event>
  5     66 0.38225901E-03 0.38192964E+02 0.75467711E-02 0.12024166E+00
       21 -1    0    0  501  502 0.00000000E+00 0.00000000E+00 0.25254369E+02 0.25265503E+02 0.75000000E+00 0.0000E+00 0.9000E+01
        2 -1    0    0  502    0 0.00000000E+00 0.00000000E+00 -.68171985E+03 0.68171993E+03 0.32000000E+00 0.0000E+00 0.9000E+01
       25  1    1    2    0    0 0.17507290E+01 -.15662629E+02 -.31718325E+03 0.34128961E+03 0.12500000E+03 0.0000E+00 0.9000E+01
       23  1    1    2    0    0 0.10193230E+02 -.20613677E+02 -.27810375E+03 0.29357414E+03 0.91188000E+02 0.0000E+00 0.9000E+01
        2  1    1    2  501    0 -.11943959E+02 0.36276306E+02 -.61178479E+02 0.72121684E+02 0.32000000E+00 0.0000E+00 0.9000E+01
#aMCatNLO 1  0  0  1  2 0.36061177D+02 0.00000000D+00  -5  6  0 0.00000000D+00 0.00000000D+00 0.00000000D+00 0.00000000D+00 0.00000000D+00
  <mgrwgt>
 0.6137379882D-01   13    2    0
 0.131226397118471D+03 0.000000000000000D+00 0.000000000000000D+00 0.131226397118471D+03
 0.131226397118471D+03 0.000000000000000D+00 0.000000000000000D+00 -.131226397118471D+03
 0.125991967173647D+03 0.175090146876221D+01 -.156631531271934D+02 -.758795391439259D+00
 0.952062902694977D+02 0.101933603972072D+02 -.206140725755735D+02 -.148371755580871D+02
 0.412545367937977D+02 -.119442618659694D+02 0.362772257027669D+02 0.155959709495263D+02
 0.000000000000000D+00 0.000000000000000D+00 0.000000000000000D+00 -.000000000000000D+00
 0.150033074848216D+03 0.000000000000000D+00 0.000000000000000D+00 0.150033074848216D+03
 0.150958601765856D+03 0.000000000000000D+00 0.000000000000000D+00 -.150958601765856D+03
 0.127207818596070D+03 -.154250817298539D+02 -.178415300675688D+02 -.758795391439259D+00
 0.950677088852534D+02 -.271400839333297D+01 -.222510743244166D+02 -.148371755580871D+02
 0.426430971591388D+02 -.176355160935298D+02 0.355554214934957D+02 0.155959709495263D+02
 0.360730519736099D+02 0.357746062167166D+02 0.453718289848974D+01 -.925526917639878D+00
0.109601392859D-05 0.000000000000D+00 0.000000000000D+00 0.453707787737D-06 0.000000000000D+00  6 21 2 25 23 2 21 2 0.38861498D-02 0.10488084D+00 0.16670128D+05 0.16670128D+05 0.16670128D+05 0.12426295D+01  1  2  2  1  6  1       21 0.375264615553D-01 0.100000000000D+01
-.615176705980D-08 0.578382440276D-07 -.221253634621D-08 0.453707787737D-06 0.000000000000D+00  6 21 2 25 23 2 21 4 0.38861498D-02 0.10488084D+00 0.16670128D+05 0.16670128D+05 0.16670128D+05 0.12426295D+01  1  2  3  1  6  1       21 -.325240584443D-03 0.100000000000D+01
0.106789367206D-06 0.000000000000D+00 0.000000000000D+00 0.453707787737D-06 0.000000000000D+00  6 21 2 25 23 2 21 4 0.38861498D-02 0.10488084D+00 0.16670128D+05 0.16670128D+05 0.16670128D+05 0.12426295D+01  1  2 15  1  6  1       21 0.564589586452D-02 0.100000000000D+01
0.835019868594D-06 0.000000000000D+00 0.000000000000D+00 0.443974232890D-06 0.000000000000D+00  6 21 2 25 23 2 21 4 0.46953306D-02 0.10488084D+00 0.22031208D+05 0.22031208D+05 0.22031208D+05 0.12292279D+01  1  2 12  1  6  1       21 0.309725815329D-01 0.100000000000D+01
-.247887762551D-06 0.000000000000D+00 0.000000000000D+00 0.453707787737D-06 0.000000000000D+00  6 21 2 25 23 2 21 4 0.38861498D-02 0.10488084D+00 0.16670128D+05 0.16670128D+05 0.16670128D+05 0.12426295D+01  1  2  4  1  6  1       21 -.131056914192D-01 0.100000000000D+01
0.447966090561D-07 0.000000000000D+00 0.000000000000D+00 0.443974232890D-06 0.000000000000D+00  6 -1 2 25 23 2 -1 4 0.46953306D-02 0.10488084D+00 0.22031208D+05 0.22031208D+05 0.22031208D+05 0.12292279D+01  1  2 12  4  6  1       21 0.940383004512D-04 0.100000000000D+01
0.447966090561D-07 0.000000000000D+00 0.000000000000D+00 0.443974232890D-06 0.000000000000D+00  6 -3 2 25 23 2 -3 4 0.46953306D-02 0.10488084D+00 0.22031208D+05 0.22031208D+05 0.22031208D+05 0.12292279D+01  1  2 12  4  6  1       21 0.675101892250D-04 0.100000000000D+01
0.447966090561D-07 0.000000000000D+00 0.000000000000D+00 0.443974232890D-06 0.000000000000D+00  6 1 2 25 23 2 1 4 0.46953306D-02 0.10488084D+00 0.22031208D+05 0.22031208D+05 0.22031208D+05 0.12292279D+01  1  2 12  5  6  1       21 0.105247364497D-03 0.100000000000D+01
0.447966090561D-07 0.000000000000D+00 0.000000000000D+00 0.443974232890D-06 0.000000000000D+00  6 3 2 25 23 2 3 4 0.46953306D-02 0.10488084D+00 0.22031208D+05 0.22031208D+05 0.22031208D+05 0.12292279D+01  1  2 12  5  6  1       21 0.675037875777D-04 0.100000000000D+01
0.447966090561D-07 0.000000000000D+00 0.000000000000D+00 0.443974232890D-06 0.000000000000D+00  6 -2 2 25 23 2 -2 4 0.46953306D-02 0.10488084D+00 0.22031208D+05 0.22031208D+05 0.22031208D+05 0.12292279D+01  1  2 12  6  6  1       21 0.920576580561D-04 0.100000000000D+01
0.447966090561D-07 0.000000000000D+00 0.000000000000D+00 0.443974232890D-06 0.000000000000D+00  6 2 2 25 23 2 2 4 0.46953306D-02 0.10488084D+00 0.22031208D+05 0.22031208D+05 0.22031208D+05 0.12292279D+01  1  2 12  7  6  1       21 0.112788726504D-03 0.100000000000D+01
0.447966090561D-07 0.000000000000D+00 0.000000000000D+00 0.443974232890D-06 0.000000000000D+00  6 -4 2 25 23 2 -4 4 0.46953306D-02 0.10488084D+00 0.22031208D+05 0.22031208D+05 0.22031208D+05 0.12292279D+01  1  2 12  8  6  1       21 0.603229233797D-04 0.100000000000D+01
0.447966090561D-07 0.000000000000D+00 0.000000000000D+00 0.443974232890D-06 0.000000000000D+00  6 4 2 25 23 2 4 4 0.46953306D-02 0.10488084D+00 0.22031208D+05 0.22031208D+05 0.22031208D+05 0.12292279D+01  1  2 12  9  6  1       21 0.603229233797D-04 0.100000000000D+01
  </mgrwgt>
  </event>
  <event>
  5     66 0.38225901E-03 0.39996525E+02 0.75467711E-02 0.12115523E+00
       21 -1    0    0  501  502 0.00000000E+00 0.00000000E+00 0.81905862E+01 0.82248527E+01 0.75000000E+00 0.0000E+00 0.9000E+01
        2 -1    0    0  502    0 0.00000000E+00 0.00000000E+00 -.22342657E+04 0.22342657E+04 0.32000000E+00 0.0000E+00 0.9000E+01
       25  1    1    2    0    0 -.10087640E+02 0.10697965E+02 -.12029003E+04 0.12094669E+04 0.12500000E+03 0.0000E+00 0.9000E+01
       23  1    1    2    0    0 0.44241688E+02 0.10689075E+02 -.71626227E+03 0.72347666E+03 0.91188000E+02 0.0000E+00 0.9000E+01
        2  1    1    2  501    0 -.34154048E+02 -.21387040E+02 -.30691258E+03 0.30954699E+03 0.32000000E+00 0.0000E+00 0.9000E+01
#aMCatNLO 1  0  0  1  2 0.14187888D+02 0.00000000D+00  -5  6  0 0.00000000D+00 0.00000000D+00 0.00000000D+00 0.00000000D+00 0.00000000D+00
  <mgrwgt>
 0.1369510524D+00   23    2    0
 0.135419320711445D+03 0.000000000000000D+00 0.000000000000000D+00 0.135419320711445D+03
 0.135419320711445D+03 0.000000000000000D+00 0.000000000000000D+00 -.135419320711445D+03
 0.127278166679426D+03 -.100871373123274D+02 0.106982803498266D+02 -.189348401544468D+02
 0.103146379117142D+03 0.442420961410994D+02 0.106893300646131D+02 0.158839331649493D+02
 0.404140956263223D+02 -.341549588287720D+02 -.213876104144397D+02 0.305090698949747D+01
 0.000000000000000D+00 -.000000000000000D+00 -.000000000000000D+00 0.000000000000000D+00
 0.150423653053293D+03 0.000000000000000D+00 0.000000000000000D+00 0.150423653053293D+03
 0.139000994706266D+03 0.000000000000000D+00 0.000000000000000D+00 -.139000994706266D+03
 0.127039867702734D+03 -.355074210219817D+01 0.119579281139048D+02 -.189348401544468D+02
 0.105669520392026D+03 0.496090110304287D+02 0.117236038689059D+02 0.158839331649493D+02
 0.385006151134820D+02 -.321267199013144D+02 -.209967425816579D+02 0.305090698949747D+01
 0.182146445513166D+02 -.139315490269161D+02 -.268478940115275D+01 0.114226583470267D+02
0.606635756573D-06 0.000000000000D+00 0.000000000000D+00 0.300306002403D-06 0.000000000000D+00  6 21 2 25 23 2 21 2 0.12627278D-02 0.34373582D+00 0.17966271D+05 0.17966271D+05 0.17966271D+05 0.12389864D+01  1  2  2  1  6  1       21 0.175956951976D-01 0.100000000000D+01
-.143355400460D-07 0.320130483832D-07 -.122462281301D-08 0.300306002403D-06 0.000000000000D+00  6 21 2 25 23 2 21 4 0.12627278D-02 0.34373582D+00 0.17966271D+05 0.17966271D+05 0.17966271D+05 0.12389864D+01  1  2  3  1  6  1       21 -.638301060532D-03 0.100000000000D+01
0.647524126840D-07 0.000000000000D+00 0.000000000000D+00 0.300306002403D-06 0.000000000000D+00  6 21 2 25 23 2 21 4 0.12627278D-02 0.34373582D+00 0.17966271D+05 0.17966271D+05 0.17966271D+05 0.12389864D+01  1  2 15  1  6  1       21 0.288315149312D-02 0.100000000000D+01
0.205718519655D-05 0.000000000000D+00 0.000000000000D+00 0.297839965725D-06 0.000000000000D+00  6 21 2 25 23 2 21 4 0.14180882D-02 0.34373582D+00 0.19973770D+05 0.19973770D+05 0.19973770D+05 0.12338888D+01  1  2 12  1  6  1       21 0.748556962383D-01 0.100000000000D+01
-.593582267463D-06 0.000000000000D+00 0.000000000000D+00 0.300306002403D-06 0.000000000000D+00  6 21 2 25 23 2 21 4 0.12627278D-02 0.34373582D+00 0.17966271D+05 0.17966271D+05 0.17966271D+05 0.12389864D+01  1  2  4  1  6  1       21 -.264297117249D-01 0.100000000000D+01
-.872146280308D-05 0.000000000000D+00 -.150808515657D-05 0.300306002403D-06 0.000000000000D+00  6 21 2 25 23 2 21 4 0.14463727D-02 0.34373582D+00 0.17966271D+05 0.17966271D+05 0.17966271D+05 0.12389864D+01  1  2  5  1  6  1       21 -.312814868219D+00 0.100000000000D+01
0.862171218970D-05 0.000000000000D+00 0.145389478383D-05 0.300306002403D-06 0.000000000000D+00  6 21 2 25 23 2 21 4 0.12627278D-02 0.34373582D+00 0.17966271D+05 0.17966271D+05 0.17966271D+05 0.12389864D+01  1  2  6  1  6  1       21 0.383888435081D+00 0.100000000000D+01
0.622352961426D-07 0.000000000000D+00 0.000000000000D+00 0.297839965725D-06 0.000000000000D+00  6 -1 2 25 23 2 -1 4 0.14180882D-02 0.34373582D+00 0.19973770D+05 0.19973770D+05 0.19973770D+05 0.12338888D+01  1  2 12  4  6  1       21 0.103032493362D-03 0.100000000000D+01
0.622352961426D-07 0.000000000000D+00 0.000000000000D+00 0.297839965725D-06 0.000000000000D+00  6 -3 2 25 23 2 -3 4 0.14180882D-02 0.34373582D+00 0.19973770D+05 0.19973770D+05 0.19973770D+05 0.12338888D+01  1  2 12  4  6  1       21 0.818220580269D-04 0.100000000000D+01
-.268386972647D-06 0.000000000000D+00 -.546897035314D-07 0.300306002403D-06 0.000000000000D+00  6 -1 2 25 23 2 -1 4 0.14463727D-02 0.34373582D+00 0.17966271D+05 0.17966271D+05 0.17966271D+05 0.12389864D+01  1  2  5  4  6  1       21 -.438689217008D-03 0.100000000000D+01
-.268386972647D-06 0.000000000000D+00 -.546897035314D-07 0.300306002403D-06 0.000000000000D+00  6 -3 2 25 23 2 -3 4 0.14463727D-02 0.34373582D+00 0.17966271D+05 0.17966271D+05 0.17966271D+05 0.12389864D+01  1  2  5  4  6  1       21 -.347151902677D-03 0.100000000000D+01
0.622352961426D-07 0.000000000000D+00 0.000000000000D+00 0.297839965725D-06 0.000000000000D+00  6 1 2 25 23 2 1 4 0.14180882D-02 0.34373582D+00 0.19973770D+05 0.19973770D+05 0.19973770D+05 0.12338888D+01  1  2 12  5  6  1       21 0.106768184167D-03 0.100000000000D+01
0.622352961426D-07 0.000000000000D+00 0.000000000000D+00 0.297839965725D-06 0.000000000000D+00  6 3 2 25 23 2 3 4 0.14180882D-02 0.34373582D+00 0.19973770D+05 0.19973770D+05 0.19973770D+05 0.12338888D+01  1  2 12  5  6  1       21 0.818183687725D-04 0.100000000000D+01
-.268386972647D-06 0.000000000000D+00 -.546897035314D-07 0.300306002403D-06 0.000000000000D+00  6 1 2 25 23 2 1 4 0.14463727D-02 0.34373582D+00 0.17966271D+05 0.17966271D+05 0.17966271D+05 0.12389864D+01  1  2  5  5  6  1       21 -.454956204991D-03 0.100000000000D+01
-.268386972647D-06 0.000000000000D+00 -.546897035314D-07 0.300306002403D-06 0.000000000000D+00  6 3 2 25 23 2 3 4 0.14463727D-02 0.34373582D+00 0.17966271D+05 0.17966271D+05 0.17966271D+05 0.12389864D+01  1  2  5  5  6  1       21 -.347135895320D-03 0.100000000000D+01
0.622352961426D-07 0.000000000000D+00 0.000000000000D+00 0.297839965725D-06 0.000000000000D+00  6 -2 2 25 23 2 -2 4 0.14180882D-02 0.34373582D+00 0.19973770D+05 0.19973770D+05 0.19973770D+05 0.12338888D+01  1  2 12  6  6  1       21 0.102371530871D-03 0.100000000000D+01
-.268386972647D-06 0.000000000000D+00 -.546897035314D-07 0.300306002403D-06 0.000000000000D+00  6 -2 2 25 23 2 -2 4 0.14463727D-02 0.34373582D+00 0.17966271D+05 0.17966271D+05 0.17966271D+05 0.12389864D+01  1  2  5  6  6  1       21 -.435807807146D-03 0.100000000000D+01
0.622352961426D-07 0.000000000000D+00 0.000000000000D+00 0.297839965725D-06 0.000000000000D+00  6 2 2 25 23 2 2 4 0.14180882D-02 0.34373582D+00 0.19973770D+05 0.19973770D+05 0.19973770D+05 0.12338888D+01  1  2 12  7  6  1       21 0.109359908528D-03 0.100000000000D+01
-.268386972647D-06 0.000000000000D+00 -.546897035314D-07 0.300306002403D-06 0.000000000000D+00  6 2 2 25 23 2 2 4 0.14463727D-02 0.34373582D+00 0.17966271D+05 0.17966271D+05 0.17966271D+05 0.12389864D+01  1  2  5  7  6  1       21 -.466235481197D-03 0.100000000000D+01
0.622352961426D-07 0.000000000000D+00 0.000000000000D+00 0.297839965725D-06 0.000000000000D+00  6 -4 2 25 23 2 -4 4 0.14180882D-02 0.34373582D+00 0.19973770D+05 0.19973770D+05 0.19973770D+05 0.12338888D+01  1  2 12  8  6  1       21 0.747928356143D-04 0.100000000000D+01
-.268386972647D-06 0.000000000000D+00 -.546897035314D-07 0.300306002403D-06 0.000000000000D+00  6 -4 2 25 23 2 -4 4 0.14463727D-02 0.34373582D+00 0.17966271D+05 0.17966271D+05 0.17966271D+05 0.12389864D+01  1  2  5  8  6  1       21 -.316913155694D-03 0.100000000000D+01
0.622352961426D-07 0.000000000000D+00 0.000000000000D+00 0.297839965725D-06 0.000000000000D+00  6 4 2 25 23 2 4 4 0.14180882D-02 0.34373582D+00 0.19973770D+05 0.19973770D+05 0.19973770D+05 0.12338888D+01  1  2 12  9  6  1       21 0.747928356143D-04 0.100000000000D+01
-.268386972647D-06 0.000000000000D+00 -.546897035314D-07 0.300306002403D-06 0.000000000000D+00  6 4 2 25 23 2 4 4 0.14463727D-02 0.34373582D+00 0.17966271D+05 0.17966271D+05 0.17966271D+05 0.12389864D+01  1  2  5  9  6  1       21 -.316913155694D-03 0.100000000000D+01
  </mgrwgt>
  </event>
  <event>
  5     66 0.38225901E-03 0.33342330E+02 0.75467711E-02 0.12126522E+00
       21 -1    0    0  501  502 0.00000000E+00 0.00000000E+00 0.62977511E+01 0.63422527E+01 0.75000000E+00 0.0000E+00 0.9000E+01
        2 -1    0    0  502    0 0.00000000E+00 0.00000000E+00 -.30111000E+04 0.30111000E+04 0.32000000E+00 0.0000E+00 0.9000E+01
       25  1    1    2    0    0 -.14936500E+02 -.93566423E+01 -.17037773E+04 0.17084475E+04 0.12500000E+03 0.0000E+00 0.9000E+01
       23  1    1    2    0    0 -.15598205E+02 0.22746227E+02 -.63205101E+03 0.63919044E+03 0.91188000E+02 0.0000E+00 0.9000E+01
        2  1    1    2  501    0 0.30534706E+02 -.13389585E+02 -.66897393E+03 0.66980436E+03 0.32000000E+00 0.0000E+00 0.9000E+01
#aMCatNLO 1  0  0  2  1 0.24690552D+02 0.00000000D+00  -5  6  0 0.00000000D+00 0.00000000D+00 0.00000000D+00 0.00000000D+00 0.00000000D+00
  <mgrwgt>
 0.2348485054D+00    9    2    0
 0.137950440887363D+03 0.000000000000000D+00 0.000000000000000D+00 0.137950440887363D+03
 0.137950440887363D+03 0.000000000000000D+00 0.000000000000000D+00 -.137950440887363D+03
 0.129132315165032D+03 -.149369638713745D+02 -.935643903622772D+01 -.271937305044357D+02
 0.107038554871637D+03 -.155985896839804D+02 0.227463957620262D+02 0.487984258426093D+02
 0.397300117380552D+02 0.305355535553549D+02 -.133899567257985D+02 -.216046953381736D+02
 0.000000000000000D+00 -.000000000000000D+00 -.000000000000000D+00 -.000000000000000D+00
 0.144991282101471D+03 0.000000000000000D+00 0.000000000000000D+00 0.144991282101471D+03
 0.161986543435501D+03 0.000000000000000D+00 0.000000000000000D+00 -.161986543435501D+03
 0.128269414479934D+03 -.345835175154801D+01 -.875120079987106D+01 -.271937305044357D+02
 0.106179504444758D+03 -.609031091984462D+01 0.232477432951529D+02 0.487984258426093D+02
 0.425545466027947D+02 0.342049637413261D+02 -.131964779910662D+02 -.216046953381736D+02
 0.299743600094859D+02 -.246563010699335D+02 -.130006450421562D+01 -.169952613340292D+02
0.226844415442D-05 0.000000000000D+00 0.000000000000D+00 0.195499530550D-06 0.000000000000D+00  6 21 2 25 23 2 21 2 0.97230930D-03 0.46324958D+00 0.16236710D+05 0.16236710D+05 0.16236710D+05 0.12439191D+01  1  2  2  2  6  2        2 0.379234902690D-01 0.100000000000D+01
-.126523578266D-06 0.119709086850D-06 -.457933518004D-08 0.195499530550D-06 0.000000000000D+00  6 21 2 25 23 2 21 4 0.97230930D-03 0.46324958D+00 0.16236710D+05 0.16236710D+05 0.16236710D+05 0.12439191D+01  1  2  3  2  6  2        2 -.327292420578D-02 0.100000000000D+01
0.279614716596D-06 0.000000000000D+00 0.000000000000D+00 0.195499530550D-06 0.000000000000D+00  6 21 2 25 23 2 21 4 0.97230930D-03 0.46324958D+00 0.16236710D+05 0.16236710D+05 0.16236710D+05 0.12439191D+01  1  2 15  2  6  2        2 0.723310063452D-02 0.100000000000D+01
0.789566561776D-05 0.000000000000D+00 0.000000000000D+00 0.192534066690D-06 0.000000000000D+00  6 21 2 25 23 2 21 4 0.97230930D-03 0.55430580D+00 0.19741403D+05 0.19741403D+05 0.19741403D+05 0.12344488D+01  1  2 12  2  6  2        2 0.848135895202D-01 0.100000000000D+01
-.519501267582D-05 0.000000000000D+00 0.000000000000D+00 0.195499530550D-06 0.000000000000D+00  6 21 2 25 23 2 21 4 0.97230930D-03 0.46324958D+00 0.16236710D+05 0.16236710D+05 0.16236710D+05 0.12439191D+01  1  2  4  2  6  2        2 -.134385092241D+00 0.100000000000D+01
-.162712492345D-04 0.000000000000D+00 -.341554487328D-05 0.195499530550D-06 0.000000000000D+00  6 21 2 25 23 2 21 4 0.97230930D-03 0.55052926D+00 0.16236710D+05 0.16236710D+05 0.16236710D+05 0.12439191D+01  1  2  5  2  6  2        2 -.188311776459D+00 0.100000000000D+01
0.166622326842D-04 0.000000000000D+00 0.336528485095D-05 0.195499530550D-06 0.000000000000D+00  6 21 2 25 23 2 21 4 0.97230930D-03 0.46324958D+00 0.16236710D+05 0.16236710D+05 0.16236710D+05 0.12439191D+01  1  2  6  2  6  2        2 0.431020252682D+00 0.100000000000D+01
0.207741667675D-06 0.000000000000D+00 0.000000000000D+00 0.192534066690D-06 0.000000000000D+00  6 21 21 25 23 2 -2 4 0.97230930D-03 0.55430580D+00 0.19741403D+05 0.19741403D+05 0.19741403D+05 0.12344488D+01  1  2 12 10  6  2        2 0.157498069076D-03 0.100000000000D+01
-.384804835046D-06 0.000000000000D+00 -.871644648858D-07 0.195499530550D-06 0.000000000000D+00  6 21 21 25 23 2 -2 4 0.97230930D-03 0.55052926D+00 0.16236710D+05 0.16236710D+05 0.16236710D+05 0.12439191D+01  1  2  5 10  6  2        2 -.329632843726D-03 0.100000000000D+01
  </mgrwgt>
  </event>
  <event>
  5     66 0.38225901E-03 0.59805425E+02 0.75467711E-02 0.11347415E+00
       21 -1    0    0  501  502 0.00000000E+00 0.00000000E+00 0.14009550E+03 0.14009751E+03 0.75000000E+00 0.0000E+00 0.9000E+01
        2 -1    0    0  502    0 -.00000000E+00 -.00000000E+00 -.12368970E+04 0.12368970E+04 0.32000000E+00 0.0000E+00 0.9000E+01
       25  1    1    2    0    0 0.10110313E+02 0.13931465E+03 -.28250696E+03 0.33903683E+03 0.12500000E+03 0.0000E+00 0.9000E+01
       23  1    1    2    0    0 -.68393087E+02 -.15272378E+03 -.90745651E+03 0.92725117E+03 0.91188000E+02 0.0000E+00 0.9000E+01
        2  1    1    2  501    0 0.58282774E+02 0.13409125E+02 0.93161964E+02 0.11070655E+03 0.32000000E+00 0.0000E+00 0.9000E+01
#aMCatNLO 1  0  0  5  1 0.86596988D+01 0.00000000D+00  -5  6  0 0.00000000D+00 0.00000000D+00 0.00000000D+00 0.00000000D+00 0.00000000D+00
  <mgrwgt>
 0.1544596243D+00    8    2    0
 0.416275286261009D+03 0.000000000000000D+00 0.000000000000000D+00 0.416275286261009D+03
 0.416275286261009D+03 -.000000000000000D+00 -.000000000000000D+00 -.416275286261009D+03
 0.188574506204553D+03 0.101103055434743D+02 0.139314650385332D+03 -.206047154826572D+02
 0.338141855544139D+03 -.683930996022098D+02 -.152723779594963D+03 -.279325069050139D+03
 0.305834210773326D+03 0.582827940587356D+02 0.134091292096315D+02 0.299929784532796D+03
 0.000000000000000D+00 0.000000000000000D+00 0.000000000000000D+00 0.000000000000000D+00
 0.416275286261009D+03 0.000000000000000D+00 0.000000000000000D+00 0.416275286261009D+03
 0.416275286261009D+03 -.000000000000000D+00 -.000000000000000D+00 -.416275286261009D+03
 0.188563422066168D+03 0.101432634626398D+02 0.139322233017629D+03 -.204351103401170D+02
 0.337872668593885D+03 -.683340229876051D+02 -.152710187831368D+03 -.279021054176187D+03
 0.244311207072504D+03 0.383040418647292D+02 0.859002293343968D+01 0.241136844517904D+03
 0.618032747894617D+02 0.198867176602362D+02 0.479793188030010D+01 0.583193199983999D+02
0.624605467815D-05 0.000000000000D+00 0.000000000000D+00 0.542538467283D-06 0.000000000000D+00  6 21 2 25 23 2 21 2 0.21553311D-01 0.19029200D+00 0.47922060D+05 0.47922060D+05 0.47922060D+05 0.11941118D+01  1  2  2  3  6  5        2 0.430442632537D-02 0.100000000000D+01
0.100554141204D-05 0.329613360982D-06 -.126089848271D-07 0.542538467283D-06 0.000000000000D+00  6 21 2 25 23 2 21 4 0.21553311D-01 0.19029200D+00 0.47922060D+05 0.47922060D+05 0.47922060D+05 0.11941118D+01  1  2  3  3  6  5        2 0.988096614195D-03 0.100000000000D+01
0.671293352431D-06 0.000000000000D+00 0.000000000000D+00 0.542538467283D-06 0.000000000000D+00  6 21 2 25 23 2 21 4 0.21553311D-01 0.19029200D+00 0.47922060D+05 0.47922060D+05 0.47922060D+05 0.11941118D+01  1  2 15  3  6  5        2 0.659647311117D-03 0.100000000000D+01
0.244371791889D-03 0.000000000000D+00 0.000000000000D+00 0.542559523366D-06 0.000000000000D+00  6 21 2 25 23 2 21 4 0.21553311D-01 0.19029200D+00 0.47896372D+05 0.47896372D+05 0.47896372D+05 0.11941349D+01  1  2 12  3  6  5        2 0.240156435287D+00 0.100000000000D+01
-.164104138719D-03 0.000000000000D+00 0.000000000000D+00 0.542538467283D-06 0.000000000000D+00  6 21 2 25 23 2 21 4 0.21553311D-01 0.19029200D+00 0.47922060D+05 0.47922060D+05 0.47922060D+05 0.11941118D+01  1  2  4  3  6  5        2 -.161257151523D+00 0.100000000000D+01
-.318580339195D-03 0.000000000000D+00 0.000000000000D+00 0.542538467283D-06 0.000000000000D+00  6 21 2 25 23 2 21 4 0.21553311D-01 0.19029200D+00 0.47922060D+05 0.47922060D+05 0.47922060D+05 0.11941118D+01  1  2  5  3  6  5        2 -.313053396647D+00 0.100000000000D+01
0.389301948344D-03 0.000000000000D+00 -.000000000000D+00 0.542538467283D-06 0.000000000000D+00  6 21 2 25 23 2 21 4 0.21553311D-01 0.19029200D+00 0.47922060D+05 0.47922060D+05 0.47922060D+05 0.11941118D+01  1  2  6  3  6  5        2 0.382548080519D+00 0.100000000000D+01
0.115478360174D-06 0.000000000000D+00 0.000000000000D+00 0.542538467283D-06 0.202989351817D-07  6 21 2 25 23 2 21 4 0.21553311D-01 0.19029200D+00 0.47896372D+05 0.47896372D+05 0.47896372D+05 0.11941349D+01  1  2 11  3  6  5        2 0.113486385306D-03 0.100000000000D+01
  </mgrwgt>
  </event>
  <event>
  5     66 0.38225901E-03 0.44367662E+02 0.75467711E-02 0.11519145E+00
       21 -1    0    0  501  502 0.00000000E+00 0.00000000E+00 0.40123459E+02 0.40130468E+02 0.75000000E+00 0.0000E+00 0.9000E+01
        2 -1    0    0  502    0 0.00000000E+00 0.00000000E+00 -.30013870E+04 0.30013870E+04 0.32000000E+00 0.0000E+00 0.9000E+01
       25  1    1    2    0    0 0.33041005E+02 0.11841189E+03 -.14567107E+04 0.14672232E+04 0.12500000E+03 0.0000E+00 0.9000E+01
       23  1    1    2    0    0 -.77294702E+02 -.11523416E+03 -.15186809E+04 0.15277304E+04 0.91188000E+02 0.0000E+00 0.9000E+01
        2  1    1    2  501    0 0.44253697E+02 -.31777280E+01 0.14127992E+02 0.46563830E+02 0.32000000E+00 0.0000E+00 0.9000E+01
#aMCatNLO 1  0  0  1  2 0.10085855D+02 0.00000000D+00  -5  6  0 0.00000000D+00 0.00000000D+00 0.00000000D+00 0.00000000D+00 0.00000000D+00
  <mgrwgt>
 0.2164254903D+00   23    2    0
 0.347039932359367D+03 0.000000000000000D+00 0.000000000000000D+00 0.347039932359367D+03
 0.347039932359367D+03 0.000000000000000D+00 0.000000000000000D+00 -.347039932359367D+03
 0.214501238400893D+03 0.330409950095830D+02 0.118411891999042D+03 -.123582756715898D+03
 0.215255499467097D+03 -.772947122747097D+02 -.115234162513130D+03 -.136990123553111D+03
 0.264323126850744D+03 0.442537172651267D+02 -.317772948591162D+01 0.260572880269009D+03
 0.000000000000000D+00 0.000000000000000D+00 -.000000000000000D+00 0.000000000000000D+00
 0.361057090711362D+03 0.000000000000000D+00 0.000000000000000D+00 0.361057090711362D+03
 0.348895610004086D+03 0.000000000000000D+00 0.000000000000000D+00 -.348895610004086D+03
 0.216050122599737D+03 0.321935102292073D+02 0.121422961654632D+03 -.123582756715898D+03
 0.213970660092640D+03 -.781395885671003D+02 -.112232360680633D+03 -.136990123553111D+03
 0.264132358252704D+03 0.432135208535061D+02 0.518034642733046D+00 0.260572880269009D+03
 0.157995597703673D+02 0.273255748438688D+01 -.970863561673234D+01 0.121614807072760D+02
0.234402532273D-04 0.000000000000D+00 0.000000000000D+00 0.183879881441D-05 0.000000000000D+00  6 21 2 25 23 2 21 2 0.61733804D-02 0.46175239D+00 0.37196622D+05 0.37196622D+05 0.37196622D+05 0.12052181D+01  1  2  2  1  6  1       21 0.175278824665D-01 0.100000000000D+01
0.503117566352D-05 0.123697614681D-05 -.473191178297D-07 0.183879881441D-05 0.000000000000D+00  6 21 2 25 23 2 21 4 0.61733804D-02 0.46175239D+00 0.37196622D+05 0.37196622D+05 0.37196622D+05 0.12052181D+01  1  2  3  1  6  1       21 0.546471977058D-02 0.100000000000D+01
0.275389538461D-05 0.000000000000D+00 0.000000000000D+00 0.183879881441D-05 0.000000000000D+00  6 21 2 25 23 2 21 4 0.61733804D-02 0.46175239D+00 0.37196622D+05 0.37196622D+05 0.37196622D+05 0.12052181D+01  1  2 15  1  6  1       21 0.299120276470D-02 0.100000000000D+01
0.133586958337D-03 0.000000000000D+00 0.000000000000D+00 0.183245390646D-05 0.000000000000D+00  6 21 2 25 23 2 21 4 0.64388378D-02 0.46175239D+00 0.38983711D+05 0.38983711D+05 0.38983711D+05 0.12031369D+01  1  2 12  1  6  1       21 0.133674833480D+00 0.100000000000D+01
-.469215936432D-04 0.000000000000D+00 0.000000000000D+00 0.183879881441D-05 0.000000000000D+00  6 21 2 25 23 2 21 4 0.61733804D-02 0.46175239D+00 0.37196622D+05 0.37196622D+05 0.37196622D+05 0.12052181D+01  1  2  4  1  6  1       21 -.509648991802D-01 0.100000000000D+01
-.133605770352D-02 0.000000000000D+00 -.157336618454D-03 0.183879881441D-05 0.000000000000D+00  6 21 2 25 23 2 21 4 0.64663483D-02 0.46175239D+00 0.37196622D+05 0.37196622D+05 0.37196622D+05 0.12052181D+01  1  2  5  1  6  1       21 -.134012535649D+01 0.100000000000D+01
0.133694686092D-02 0.000000000000D+00 0.156662216220D-03 0.183879881441D-05 0.000000000000D+00  6 21 2 25 23 2 21 4 0.61733804D-02 0.46175239D+00 0.37196622D+05 0.37196622D+05 0.37196622D+05 0.12052181D+01  1  2  6  1  6  1       21 0.145215361810D+01 0.100000000000D+01
0.349304218192D-05 0.000000000000D+00 0.000000000000D+00 0.183245390646D-05 0.000000000000D+00  6 -1 2 25 23 2 -1 4 0.64388378D-02 0.46175239D+00 0.38983711D+05 0.38983711D+05 0.38983711D+05 0.12031369D+01  1  2 12  4  6  1       21 0.213249703816D-03 0.100000000000D+01
0.349304218192D-05 0.000000000000D+00 0.000000000000D+00 0.183245390646D-05 0.000000000000D+00  6 -3 2 25 23 2 -3 4 0.64388378D-02 0.46175239D+00 0.38983711D+05 0.38983711D+05 0.38983711D+05 0.12031369D+01  1  2 12  4  6  1       21 0.149900205448D-03 0.100000000000D+01
-.134301485958D-04 0.000000000000D+00 -.173410522137D-05 0.183879881441D-05 0.000000000000D+00  6 -1 2 25 23 2 -1 4 0.64663483D-02 0.46175239D+00 0.37196622D+05 0.37196622D+05 0.37196622D+05 0.12052181D+01  1  2  5  4  6  1       21 -.821787590588D-03 0.100000000000D+01
-.134301485958D-04 0.000000000000D+00 -.173410522137D-05 0.183879881441D-05 0.000000000000D+00  6 -3 2 25 23 2 -3 4 0.64663483D-02 0.46175239D+00 0.37196622D+05 0.37196622D+05 0.37196622D+05 0.12052181D+01  1  2  5  4  6  1       21 -.576850112469D-03 0.100000000000D+01
0.349304218192D-05 0.000000000000D+00 0.000000000000D+00 0.183245390646D-05 0.000000000000D+00  6 1 2 25 23 2 1 4 0.64388378D-02 0.46175239D+00 0.38983711D+05 0.38983711D+05 0.38983711D+05 0.12031369D+01  1  2 12  5  6  1       21 0.247866579780D-03 0.100000000000D+01
0.349304218192D-05 0.000000000000D+00 0.000000000000D+00 0.183245390646D-05 0.000000000000D+00  6 3 2 25 23 2 3 4 0.64388378D-02 0.46175239D+00 0.38983711D+05 0.38983711D+05 0.38983711D+05 0.12031369D+01  1  2 12  5  6  1       21 0.149884483201D-03 0.100000000000D+01
-.134301485958D-04 0.000000000000D+00 -.173410522137D-05 0.183879881441D-05 0.000000000000D+00  6 1 2 25 23 2 1 4 0.64663483D-02 0.46175239D+00 0.37196622D+05 0.37196622D+05 0.37196622D+05 0.12052181D+01  1  2  5  5  6  1       21 -.955822053864D-03 0.100000000000D+01
-.134301485958D-04 0.000000000000D+00 -.173410522137D-05 0.183879881441D-05 0.000000000000D+00  6 3 2 25 23 2 3 4 0.64663483D-02 0.46175239D+00 0.37196622D+05 0.37196622D+05 0.37196622D+05 0.12052181D+01  1  2  5  5  6  1       21 -.576789276928D-03 0.100000000000D+01
0.349304218192D-05 0.000000000000D+00 0.000000000000D+00 0.183245390646D-05 0.000000000000D+00  6 -2 2 25 23 2 -2 4 0.64388378D-02 0.46175239D+00 0.38983711D+05 0.38983711D+05 0.38983711D+05 0.12031369D+01  1  2 12  6  6  1       21 0.207200031230D-03 0.100000000000D+01
-.134301485958D-04 0.000000000000D+00 -.173410522137D-05 0.183879881441D-05 0.000000000000D+00  6 -2 2 25 23 2 -2 4 0.64663483D-02 0.46175239D+00 0.37196622D+05 0.37196622D+05 0.37196622D+05 0.12052181D+01  1  2  5  6  6  1       21 -.798362454511D-03 0.100000000000D+01
0.349304218192D-05 0.000000000000D+00 0.000000000000D+00 0.183245390646D-05 0.000000000000D+00  6 2 2 25 23 2 2 4 0.64388378D-02 0.46175239D+00 0.38983711D+05 0.38983711D+05 0.38983711D+05 0.12031369D+01  1  2 12  7  6  1       21 0.271174600376D-03 0.100000000000D+01
-.134301485958D-04 0.000000000000D+00 -.173410522137D-05 0.183879881441D-05 0.000000000000D+00  6 2 2 25 23 2 2 4 0.64663483D-02 0.46175239D+00 0.37196622D+05 0.37196622D+05 0.37196622D+05 0.12052181D+01  1  2  5  7  6  1       21 -.104604937251D-02 0.100000000000D+01
0.349304218192D-05 0.000000000000D+00 0.000000000000D+00 0.183245390646D-05 0.000000000000D+00  6 -4 2 25 23 2 -4 4 0.64388378D-02 0.46175239D+00 0.38983711D+05 0.38983711D+05 0.38983711D+05 0.12031369D+01  1  2 12  8  6  1       21 0.133533445098D-03 0.100000000000D+01
-.134301485958D-04 0.000000000000D+00 -.173410522137D-05 0.183879881441D-05 0.000000000000D+00  6 -4 2 25 23 2 -4 4 0.64663483D-02 0.46175239D+00 0.37196622D+05 0.37196622D+05 0.37196622D+05 0.12052181D+01  1  2  5  8  6  1       21 -.513596133923D-03 0.100000000000D+01
0.349304218192D-05 0.000000000000D+00 0.000000000000D+00 0.183245390646D-05 0.000000000000D+00  6 4 2 25 23 2 4 4 0.64388378D-02 0.46175239D+00 0.38983711D+05 0.38983711D+05 0.38983711D+05 0.12031369D+01  1  2 12  9  6  1       21 0.133533445098D-03 0.100000000000D+01
-.134301485958D-04 0.000000000000D+00 -.173410522137D-05 0.183879881441D-05 0.000000000000D+00  6 4 2 25 23 2 4 4 0.64663483D-02 0.46175239D+00 0.37196622D+05 0.37196622D+05 0.37196622D+05 0.12052181D+01  1  2  5  9  6  1       21 -.513596133923D-03 0.100000000000D+01
  </mgrwgt>
  </event>
  <event>
  6     66 -.38225901E-03 0.46966228E+02 0.75467711E-02 0.11934969E+00
       21 -1    0    0  501  502 0.00000000E+00 0.00000000E+00 0.20015737E+02 0.20029783E+02 0.75000000E+00 0.0000E+00 0.9000E+01
        2 -1    0    0  503    0 0.00000000E+00 0.00000000E+00 -.19637781E+04 0.19637782E+04 0.32000000E+00 0.0000E+00 0.9000E+01
       25  1    1    2    0    0 -.38120976E+02 0.85197986E+02 -.95406333E+03 0.96673354E+03 0.12500000E+03 0.0000E+00 0.9000E+01
       23  1    1    2    0    0 0.20414485E+02 -.32686076E+02 -.87741839E+03 0.88298552E+03 0.91188000E+02 0.0000E+00 0.9000E+01
        2  1    1    2  501    0 0.19405142E+02 -.46288590E+02 -.47898017E+02 0.69379503E+02 0.32000000E+00 0.0000E+00 0.9000E+01
       21  1    1    2  503  502 -.16986505E+01 -.62233191E+01 -.64382644E+02 0.64709370E+02 0.75000000E+00 0.0000E+00 0.9000E+01
#aMCatNLO 2  0  0  2  1 0.64509778D+01 0.00000000D+00  -5  6  0 0.00000000D+00 0.00000000D+00 0.00000000D+00 0.00000000D+00 0.00000000D+00
  <mgrwgt>
 -.8497175654D-01    3    2    0
 0.194183846164914D+03 0.000000000000000D+00 0.000000000000000D+00 0.194183846164914D+03
 0.194183846164914D+03 0.000000000000000D+00 0.000000000000000D+00 -.194183846164914D+03
 0.158983956106448D+03 -.388188988653565D+02 0.826412123547584D+02 -.362549501540668D+02
 0.117678775602438D+03 0.199007764523086D+02 -.345679950010583D+02 -.627857921944998D+02
 0.111704960620942D+03 0.189181224130479D+02 -.480732173537000D+02 0.990407423485666D+02
 0.000000000000000D+00 -.000000000000000D+00 -.000000000000000D+00 -.000000000000000D+00
 0.195791095254179D+03 0.000000000000000D+00 0.000000000000000D+00 0.195791095254179D+03
 0.200793376073835D+03 0.000000000000000D+00 0.000000000000000D+00 -.200793376073835D+03
 0.160160367519148D+03 -.381210070454593D+02 0.851980676719529D+02 -.362549501540668D+02
 0.117228123373862D+03 0.204144612998741D+02 -.326860158799199D+02 -.627857921944998D+02
 0.111032774693941D+03 0.194051962287209D+02 -.462887326528289D+02 0.990407423485666D+02
 0.816320574106411D+01 -.169865048313566D+01 -.622331913920406D+01 -.500228081965632D+01
-.103822810692D-04 0.000000000000D+00 0.000000000000D+00 0.595065392108D-06 0.000000000000D+00  6 21 2 25 23 2 21 4 0.30548725D-02 0.30327714D+00 0.24280263D+05 0.24280263D+05 0.24280263D+05 0.12246601D+01  1  2 13  2  6  2        2 -.144109027357D+00 0.100000000000D+01
-.158767713807D-04 0.000000000000D+00 0.000000000000D+00 0.596733342220D-06 0.000000000000D+00  6 21 2 25 23 2 21 4 0.30548725D-02 0.29215034D+00 0.23406969D+05 0.23406969D+05 0.23406969D+05 0.12263753D+01  1  2  8  2  6  2        2 -.241530023489D+00 0.100000000000D+01
0.217588678834D-04 0.000000000000D+00 0.000000000000D+00 0.596733342220D-06 0.115013308064D-06  6 21 2 25 23 2 21 4 0.30801575D-02 0.30209440D+00 0.24280263D+05 0.24280263D+05 0.24280263D+05 0.12246601D+01  1  2  1  2  6  2        2 0.300667294308D+00 0.100000000000D+01
  </mgrwgt>
  </event>
  <event>
  6     66 0.38225901E-03 0.94545127E+02 0.75467711E-02 0.10914455E+00
       21 -1    0    0  501  502 0.00000000E+00 0.00000000E+00 0.39781626E+02 0.39788696E+02 0.75000000E+00 0.0000E+00 0.9000E+01
        2 -1    0    0  502    0 -.00000000E+00 -.00000000E+00 -.23858033E+04 0.23858033E+04 0.32000000E+00 0.0000E+00 0.9000E+01
       25  1    1    2    0    0 0.11639888E+03 -.80695067E+02 -.80767878E+03 0.82947599E+03 0.12500000E+03 0.0000E+00 0.9000E+01
       23  1    1    2    0    0 -.15219618E+02 -.93181027E+02 -.77614092E+03 0.78716220E+03 0.91188000E+02 0.0000E+00 0.9000E+01
        2  1    1    2  503    0 -.13058029E+03 0.70865803E+02 -.56859929E+03 0.58768906E+03 0.32000000E+00 0.0000E+00 0.9000E+01
       21  1    1    2  501  503 0.29401029E+02 0.10301029E+03 -.19360266E+03 0.22126476E+03 0.75000000E+00 0.0000E+00 0.9000E+01
#aMCatNLO 2  0  0  5  1 0.90627578D+02 0.00000000D+00  -5  6  0 0.00000000D+00 0.00000000D+00 0.00000000D+00 0.00000000D+00 0.00000000D+00
  <mgrwgt>
 0.2302778501D-01    1    2    0
 0.308090464491644D+03 0.000000000000000D+00 0.000000000000000D+00 0.308090464491644D+03
 0.308090464491644D+03 -.000000000000000D+00 -.000000000000000D+00 -.308090464491644D+03
 0.205793943431753D+03 0.126897536391046D+03 -.987369548051967D+02 -.295664703147176D+02
 0.154686986563486D+03 -.730915096378651D+01 -.106775127546960D+03 -.644861296529049D+02
 0.255699998988048D+03 -.119588385427259D+03 0.205512082352156D+03 0.940525999676226D+02
 0.000000000000000D+00 0.000000000000000D+00 0.000000000000000D+00 0.000000000000000D+00
 0.308090464491644D+03 0.000000000000000D+00 0.000000000000000D+00 0.308090464491644D+03
 0.308090464491644D+03 -.000000000000000D+00 -.000000000000000D+00 -.308090464491644D+03
 0.190100116392196D+03 0.116396236449562D+03 -.806905198552764D+02 -.213075197568709D+02
 0.143609244726467D+03 -.152216167319852D+02 -.931775920442184D+02 -.582632178291931D+02
 0.148252231786934D+03 -.130405893484757D+03 0.705137344479520D+02 -.916748849332478D+00
 0.134219336077690D+03 0.292312737671807D+02 0.103354377451543D+03 0.804874864353965D+02
0.110278244122D-04 0.000000000000D+00 0.000000000000D+00 0.110070772475D-06 0.170548830099D-09  6 21 2 25 23 2 21 4 0.61207956D-02 0.36704720D+00 0.82892018D+05 0.82892018D+05 0.82892018D+05 0.11711323D+01  1  2  1  3  6  5        2 0.230277850134D-01 0.100000000000D+01
  </mgrwgt>
  </event>
  <event>
  5     66 0.38225901E-03 0.65453850E+02 0.75467711E-02 0.11905103E+00
       21 -1    0    0  501  502 0.00000000E+00 0.00000000E+00 0.91761856E+02 0.91764921E+02 0.75000000E+00 0.0000E+00 0.9000E+01
        4 -1    0    0  502    0 0.00000000E+00 0.00000000E+00 -.52613744E+03 0.52613972E+03 0.15500000E+01 0.0000E+00 0.9000E+01
       25  1    1    2    0    0 0.93076874E+01 0.34179369E+02 -.76713032E+02 0.15087992E+03 0.12500000E+03 0.0000E+00 0.9000E+01
       23  1    1    2    0    0 -.72271885E+02 -.16313450E+02 -.38007919E+03 0.39782508E+03 0.91188000E+02 0.0000E+00 0.9000E+01
        4  1    1    2  501    0 0.62964198E+02 -.17865919E+02 0.22416640E+02 0.69199635E+02 0.15500000E+01 0.0000E+00 0.9000E+01
#aMCatNLO 1  0  0  1  2 0.41140411D+01 0.00000000D+00  -5  6  0 0.00000000D+00 0.00000000D+00 0.00000000D+00 0.00000000D+00 0.00000000D+00
  <mgrwgt>
 0.4658047945D-02   32    2    0
 0.219729378578622D+03 0.000000000000000D+00 0.000000000000000D+00 0.219729378578622D+03
 0.219729378578622D+03 0.000000000000000D+00 0.000000000000000D+00 -.219729378578622D+03
 0.136319487043224D+03 0.930604302238233D+01 0.341798351837818D+02 0.412691043978761D+02
 0.183685932246284D+03 -.722741010448125D+02 -.163128210805026D+02 -.141193542868455D+03
 0.119453337867736D+03 0.629680580224302D+02 -.178670141032792D+02 0.999244384705789D+02
 0.000000000000000D+00 -.000000000000000D+00 -.000000000000000D+00 0.000000000000000D+00
 0.226221739486642D+03 0.000000000000000D+00 0.000000000000000D+00 0.226221739486642D+03
 0.220391715210164D+03 0.000000000000000D+00 0.000000000000000D+00 -.220391715210164D+03
 0.136648376986473D+03 0.935219889345133D+01 0.354566824603183D+02 0.412691043978761D+02
 0.183516924534896D+03 -.722120110703241D+02 -.145951757844744D+02 -.141193542868455D+03
 0.119312712236451D+03 0.630084307419935D+02 -.167501508348186D+02 0.999244384705789D+02
 0.713544093898571D+01 -.148618565120738D+00 -.411135584102533D+01 0.583002427647789D+01
0.145474705749D-05 0.000000000000D+00 0.000000000000D+00 0.205477563029D-06 0.000000000000D+00  6 21 4 25 23 4 21 2 0.14117620D-01 0.80944632D-01 0.24472012D+05 0.24472012D+05 0.24472012D+05 0.12242928D+01  1  2  2  1  6  1       21 0.551201359285D-03 0.100000000000D+01
-.139362245911D-08 0.767691113359D-07 -.293671517786D-08 0.205477563029D-06 0.000000000000D+00  6 21 4 25 23 4 21 4 0.14117620D-01 0.80944632D-01 0.24472012D+05 0.24472012D+05 0.24472012D+05 0.12242928D+01  1  2  3  1  6  1       21 -.791477386298D-06 0.100000000000D+01
0.165210839937D-06 0.000000000000D+00 0.000000000000D+00 0.205477563029D-06 0.000000000000D+00  6 21 4 25 23 4 21 4 0.14117620D-01 0.80944632D-01 0.24472012D+05 0.24472012D+05 0.24472012D+05 0.12242928D+01  1  2 15  1  6  1       21 0.938278820979D-04 0.100000000000D+01
0.859073213582D-06 0.000000000000D+00 0.000000000000D+00 0.205086387488D-06 0.000000000000D+00  6 21 4 25 23 4 21 4 0.14555673D-01 0.80944632D-01 0.25091882D+05 0.25091882D+05 0.25091882D+05 0.12231269D+01  1  2 12  1  6  1       21 0.460247186586D-03 0.100000000000D+01
-.208606917562D-04 0.000000000000D+00 0.000000000000D+00 0.205477563029D-06 0.000000000000D+00  6 21 4 25 23 4 21 4 0.14117620D-01 0.80944632D-01 0.24472012D+05 0.24472012D+05 0.24472012D+05 0.12242928D+01  1  2  4  1  6  1       21 -.118473734975D-01 0.100000000000D+01
-.152392929266D-03 0.000000000000D+00 -.140202064149D-04 0.205477563029D-06 0.000000000000D+00  6 21 4 25 23 4 21 4 0.14572740D-01 0.80944632D-01 0.24472012D+05 0.24472012D+05 0.24472012D+05 0.12242928D+01  1  2  5  1  6  1       21 -.817302238577D-01 0.100000000000D+01
0.152486177419D-03 0.000000000000D+00 0.139920175322D-04 0.205477563029D-06 0.000000000000D+00  6 21 4 25 23 4 21 4 0.14117620D-01 0.80944632D-01 0.24472012D+05 0.24472012D+05 0.24472012D+05 0.12242928D+01  1  2  6  1  6  1       21 0.866011884079D-01 0.100000000000D+01
0.199948552850D-04 0.000000000000D+00 0.000000000000D+00 0.205477563029D-06 0.164379628125D-06  6 21 4 25 23 4 21 4 0.14534754D-01 0.81188626D-01 0.25091882D+05 0.25091882D+05 0.25091882D+05 0.12231269D+01  1  2 11  1  6  1       21 0.106684465884D-01 0.100000000000D+01
0.346409939118D-07 0.000000000000D+00 0.000000000000D+00 0.205086387488D-06 0.000000000000D+00  6 -1 4 25 23 4 -1 4 0.14555673D-01 0.80944632D-01 0.25091882D+05 0.25091882D+05 0.25091882D+05 0.12231269D+01  1  2 12  4  6  1       21 0.134904204859D-05 0.100000000000D+01
0.346409939118D-07 0.000000000000D+00 0.000000000000D+00 0.205086387488D-06 0.000000000000D+00  6 -3 4 25 23 4 -3 4 0.14555673D-01 0.80944632D-01 0.25091882D+05 0.25091882D+05 0.25091882D+05 0.12231269D+01  1  2 12  4  6  1       21 0.848417538571D-06 0.100000000000D+01
-.104805500260D-05 0.000000000000D+00 -.103570311909D-06 0.205477563029D-06 0.000000000000D+00  6 -1 4 25 23 4 -1 4 0.14572740D-01 0.80944632D-01 0.24472012D+05 0.24472012D+05 0.24472012D+05 0.12242928D+01  1  2  5  4  6  1       21 -.408519499697D-04 0.100000000000D+01
-.104805500260D-05 0.000000000000D+00 -.103570311909D-06 0.205477563029D-06 0.000000000000D+00  6 -3 4 25 23 4 -3 4 0.14572740D-01 0.80944632D-01 0.24472012D+05 0.24472012D+05 0.24472012D+05 0.12242928D+01  1  2  5  4  6  1       21 -.256727722727D-04 0.100000000000D+01
0.478831031254D-06 0.000000000000D+00 0.000000000000D+00 0.205477563029D-06 0.144429679342D-08  6 -1 4 25 23 4 -1 4 0.14534754D-01 0.81188626D-01 0.25091882D+05 0.25091882D+05 0.25091882D+05 0.12231269D+01  1  2 11  4  6  1       21 0.185648144862D-04 0.100000000000D+01
0.478831031254D-06 0.000000000000D+00 0.000000000000D+00 0.205477563029D-06 0.144429679342D-08  6 -3 4 25 23 4 -3 4 0.14534754D-01 0.81188626D-01 0.25091882D+05 0.25091882D+05 0.25091882D+05 0.12231269D+01  1  2 11  4  6  1       21 0.116778586841D-04 0.100000000000D+01
0.346409939118D-07 0.000000000000D+00 0.000000000000D+00 0.205086387488D-06 0.000000000000D+00  6 1 4 25 23 4 1 4 0.14555673D-01 0.80944632D-01 0.25091882D+05 0.25091882D+05 0.25091882D+05 0.12231269D+01  1  2 12  5  6  1       21 0.184427387874D-05 0.100000000000D+01
0.346409939118D-07 0.000000000000D+00 0.000000000000D+00 0.205086387488D-06 0.000000000000D+00  6 3 4 25 23 4 3 4 0.14555673D-01 0.80944632D-01 0.25091882D+05 0.25091882D+05 0.25091882D+05 0.12231269D+01  1  2 12  5  6  1       21 0.848315598801D-06 0.100000000000D+01
-.104805500260D-05 0.000000000000D+00 -.103570311909D-06 0.205477563029D-06 0.000000000000D+00  6 1 4 25 23 4 1 4 0.14572740D-01 0.80944632D-01 0.24472012D+05 0.24472012D+05 0.24472012D+05 0.12242928D+01  1  2  5  5  6  1       21 -.558678378740D-04 0.100000000000D+01
-.104805500260D-05 0.000000000000D+00 -.103570311909D-06 0.205477563029D-06 0.000000000000D+00  6 3 4 25 23 4 3 4 0.14572740D-01 0.80944632D-01 0.24472012D+05 0.24472012D+05 0.24472012D+05 0.12242928D+01  1  2  5  5  6  1       21 -.256696796893D-04 0.100000000000D+01
0.479831039524D-06 0.000000000000D+00 0.000000000000D+00 0.205477563029D-06 0.144731311577D-08  6 1 4 25 23 4 1 4 0.14534754D-01 0.81188626D-01 0.25091882D+05 0.25091882D+05 0.25091882D+05 0.12231269D+01  1  2 11  5  6  1       21 0.254231754697D-04 0.100000000000D+01
0.479831039524D-06 0.000000000000D+00 0.000000000000D+00 0.205477563029D-06 0.144731311577D-08  6 3 4 25 23 4 3 4 0.14534754D-01 0.81188626D-01 0.25091882D+05 0.25091882D+05 0.25091882D+05 0.12231269D+01  1  2 11  5  6  1       21 0.117008403143D-04 0.100000000000D+01
0.346409939118D-07 0.000000000000D+00 0.000000000000D+00 0.205086387488D-06 0.000000000000D+00  6 -4 4 25 23 4 -4 4 0.14555673D-01 0.80944632D-01 0.25091882D+05 0.25091882D+05 0.25091882D+05 0.12231269D+01  1  2 12  6  6  1       21 0.733473037290D-06 0.100000000000D+01
-.104805500260D-05 0.000000000000D+00 -.103570311909D-06 0.205477563029D-06 0.000000000000D+00  6 -4 4 25 23 4 -4 4 0.14572740D-01 0.80944632D-01 0.24472012D+05 0.24472012D+05 0.24472012D+05 0.12242928D+01  1  2  5  6  6  1       21 -.221878667915D-04 0.100000000000D+01
0.116538353426D-05 0.000000000000D+00 0.000000000000D+00 0.205477563029D-06 0.940429466842D-08  6 -4 4 25 23 4 -4 4 0.14534754D-01 0.81188626D-01 0.25091882D+05 0.25091882D+05 0.25091882D+05 0.12231269D+01  1  2 11  6  6  1       21 0.245723334044D-04 0.100000000000D+01
0.346409939118D-07 0.000000000000D+00 0.000000000000D+00 0.205086387488D-06 0.000000000000D+00  6 4 4 25 23 4 4 4 0.14555673D-01 0.80944632D-01 0.25091882D+05 0.25091882D+05 0.25091882D+05 0.12231269D+01  1  2 12  7  6  1       21 0.733473037290D-06 0.100000000000D+01
-.104805500260D-05 0.000000000000D+00 -.103570311909D-06 0.205477563029D-06 0.000000000000D+00  6 4 4 25 23 4 4 4 0.14572740D-01 0.80944632D-01 0.24472012D+05 0.24472012D+05 0.24472012D+05 0.12242928D+01  1  2  5  7  6  1       21 -.221878667915D-04 0.100000000000D+01
0.465617731301D-06 0.000000000000D+00 0.000000000000D+00 0.205477563029D-06 0.737802685094D-09  6 4 4 25 23 4 4 4 0.14534754D-01 0.81188626D-01 0.25091882D+05 0.25091882D+05 0.25091882D+05 0.12231269D+01  1  2 11  7  6  1       21 0.981763839643D-05 0.100000000000D+01
0.346409939118D-07 0.000000000000D+00 0.000000000000D+00 0.205086387488D-06 0.000000000000D+00  6 -2 4 25 23 4 -2 4 0.14555673D-01 0.80944632D-01 0.25091882D+05 0.25091882D+05 0.25091882D+05 0.12231269D+01  1  2 12  8  6  1       21 0.126381798426D-05 0.100000000000D+01
-.104805500260D-05 0.000000000000D+00 -.103570311909D-06 0.205477563029D-06 0.000000000000D+00  6 -2 4 25 23 4 -2 4 0.14572740D-01 0.80944632D-01 0.24472012D+05 0.24472012D+05 0.24472012D+05 0.12242928D+01  1  2  5  8  6  1       21 -.382675658934D-04 0.100000000000D+01
0.473409554515D-06 0.000000000000D+00 0.000000000000D+00 0.205477563029D-06 0.142794400725D-08  6 -2 4 25 23 4 -2 4 0.14534754D-01 0.81188626D-01 0.25091882D+05 0.25091882D+05 0.25091882D+05 0.12231269D+01  1  2 11  8  6  1       21 0.171966895181D-04 0.100000000000D+01
0.346409939118D-07 0.000000000000D+00 0.000000000000D+00 0.205086387488D-06 0.000000000000D+00  6 2 4 25 23 4 2 4 0.14555673D-01 0.80944632D-01 0.25091882D+05 0.25091882D+05 0.25091882D+05 0.12231269D+01  1  2 12  9  6  1       21 0.218537779741D-05 0.100000000000D+01
-.104805500260D-05 0.000000000000D+00 -.103570311909D-06 0.205477563029D-06 0.000000000000D+00  6 2 4 25 23 4 2 4 0.14572740D-01 0.80944632D-01 0.24472012D+05 0.24472012D+05 0.24472012D+05 0.12242928D+01  1  2  5  9  6  1       21 -.662091852724D-04 0.100000000000D+01
0.472830667692D-06 0.000000000000D+00 0.000000000000D+00 0.205477563029D-06 0.142619791243D-08  6 2 4 25 23 4 2 4 0.14534754D-01 0.81188626D-01 0.25091882D+05 0.25091882D+05 0.25091882D+05 0.12231269D+01  1  2 11  9  6  1       21 0.296805366239D-04 0.100000000000D+01
  </mgrwgt>
  </event>
  <event>
  5     66 0.38225901E-03 0.37130455E+02 0.75467711E-02 0.10619138E+00
       21 -1    0    0  501  502 0.00000000E+00 0.00000000E+00 0.61600653E+02 0.61605218E+02 0.75000000E+00 0.0000E+00 0.9000E+01
        2 -1    0    0  502    0 0.00000000E+00 0.00000000E+00 -.35112409E+03 0.35112424E+03 0.32000000E+00 0.0000E+00 0.9000E+01
       25  1    1    2    0    0 -.41526071E+02 0.27238284E+02 -.15501062E+03 0.20523068E+03 0.12500000E+03 0.0000E+00 0.9000E+01
       23  1    1    2    0    0 0.10089980E+02 -.46996878E+02 -.13562324E+03 0.17035090E+03 0.91188000E+02 0.0000E+00 0.9000E+01
        2  1    1    2  501    0 0.31436091E+02 0.19758594E+02 0.11104147E+01 0.37147884E+02 0.32000000E+00 0.0000E+00 0.9000E+01
#aMCatNLO 1  0  0  1  2 0.67300884D+02 0.00000000D+00  -5  6  0 0.00000000D+00 0.00000000D+00 0.00000000D+00 0.00000000D+00 0.00000000D+00
  <mgrwgt>
 0.3296692433D-01   12    2    0
 0.147072926048661D+03 0.000000000000000D+00 0.000000000000000D+00 0.147072926048661D+03
 0.147072926048661D+03 0.000000000000000D+00 0.000000000000000D+00 -.147072926048661D+03
 0.135393929184824D+03 -.415263330140285D+02 0.272381196809289D+02 -.154972437149512D+02
 0.105535241977231D+03 0.100897762193302D+02 -.469970066168510D+02 -.226255108249987D+02
 0.532166809352679D+02 0.314365567946983D+02 0.197588869359221D+02 0.381227545399499D+02
 0.000000000000000D+00 -.000000000000000D+00 0.000000000000000D+00 0.000000000000000D+00
 0.496326087469449D+03 0.000000000000000D+00 0.000000000000000D+00 0.496326087469449D+03
 0.285478827863365D+03 0.000000000000000D+00 0.000000000000000D+00 -.285478827863365D+03
 0.142720490967831D+03 0.454353654362542D+02 -.493923227537657D+02 -.154972437149512D+02
 0.188881127748375D+03 0.102148819935409D+03 -.128119217610823D+03 -.226255108249987D+02
 0.862034681084976D+02 0.750308909266088D+02 -.186563369121277D+02 0.381227545399499D+02
 0.363999828508110D+03 -.222615076298272D+03 0.196167877276716D+03 0.210847259606085D+03
0.185113306349D-05 0.000000000000D+00 0.000000000000D+00 0.560813207234D-06 0.000000000000D+00  6 21 2 25 23 2 21 2 0.94773859D-02 0.54019454D-01 0.18867212D+05 0.18867212D+05 0.18867212D+05 0.12366236D+01  1  2  2  1  6  1       21 0.287149848466D-01 0.100000000000D+01
0.530693036441D-07 0.976869755587D-07 -.373690432012D-08 0.560813207234D-06 0.000000000000D+00  6 21 2 25 23 2 21 4 0.94773859D-02 0.54019454D-01 0.18867212D+05 0.18867212D+05 0.18867212D+05 0.12366236D+01  1  2  3  1  6  1       21 0.125889465901D-02 0.100000000000D+01
0.211151539831D-06 0.000000000000D+00 0.000000000000D+00 0.560813207234D-06 0.000000000000D+00  6 21 2 25 23 2 21 4 0.94773859D-02 0.54019454D-01 0.18867212D+05 0.18867212D+05 0.18867212D+05 0.12366236D+01  1  2 15  1  6  1       21 0.500887570559D-02 0.100000000000D+01
-.180910360644D-05 0.000000000000D+00 -.195785776603D-04 0.560813207234D-06 0.000000000000D+00  6 21 2 25 23 2 21 4 0.59400099D-01 0.54019454D-01 0.18867212D+05 0.18867212D+05 0.18867212D+05 0.12366236D+01  1  2  5  1  6  1       21 -.131271737530D-02 0.100000000000D+01
-.960356635431D-06 0.000000000000D+00 -.832162342978D-05 0.560813207234D-06 0.000000000000D+00  6 -1 2 25 23 2 -1 4 0.59400099D-01 0.54019454D-01 0.18867212D+05 0.18867212D+05 0.18867212D+05 0.12366236D+01  1  2  5  4  6  1       21 -.712005123481D-04 0.100000000000D+01
-.960356635431D-06 0.000000000000D+00 -.832162342978D-05 0.560813207234D-06 0.000000000000D+00  6 -3 2 25 23 2 -3 4 0.59400099D-01 0.54019454D-01 0.18867212D+05 0.18867212D+05 0.18867212D+05 0.12366236D+01  1  2  5  4  6  1       21 -.353421294648D-04 0.100000000000D+01
-.960356635431D-06 0.000000000000D+00 -.832162342978D-05 0.560813207234D-06 0.000000000000D+00  6 1 2 25 23 2 1 4 0.59400099D-01 0.54019454D-01 0.18867212D+05 0.18867212D+05 0.18867212D+05 0.12366236D+01  1  2  5  5  6  1       21 -.180189923696D-03 0.100000000000D+01
-.960356635431D-06 0.000000000000D+00 -.832162342978D-05 0.560813207234D-06 0.000000000000D+00  6 3 2 25 23 2 3 4 0.59400099D-01 0.54019454D-01 0.18867212D+05 0.18867212D+05 0.18867212D+05 0.12366236D+01  1  2  5  5  6  1       21 -.353652495191D-04 0.100000000000D+01
-.960356635431D-06 0.000000000000D+00 -.832162342978D-05 0.560813207234D-06 0.000000000000D+00  6 -2 2 25 23 2 -2 4 0.59400099D-01 0.54019454D-01 0.18867212D+05 0.18867212D+05 0.18867212D+05 0.12366236D+01  1  2  5  6  6  1       21 -.567281524347D-04 0.100000000000D+01
-.960356635431D-06 0.000000000000D+00 -.832162342978D-05 0.560813207234D-06 0.000000000000D+00  6 2 2 25 23 2 2 4 0.59400099D-01 0.54019454D-01 0.18867212D+05 0.18867212D+05 0.18867212D+05 0.12366236D+01  1  2  5  7  6  1       21 -.266671016438D-03 0.100000000000D+01
-.960356635431D-06 0.000000000000D+00 -.832162342978D-05 0.560813207234D-06 0.000000000000D+00  6 -4 2 25 23 2 -4 4 0.59400099D-01 0.54019454D-01 0.18867212D+05 0.18867212D+05 0.18867212D+05 0.12366236D+01  1  2  5  8  6  1       21 -.288082618300D-04 0.100000000000D+01
-.960356635431D-06 0.000000000000D+00 -.832162342978D-05 0.560813207234D-06 0.000000000000D+00  6 4 2 25 23 2 4 4 0.59400099D-01 0.54019454D-01 0.18867212D+05 0.18867212D+05 0.18867212D+05 0.12366236D+01  1  2  5  9  6  1       21 -.288082618300D-04 0.100000000000D+01
  </mgrwgt>
  </event>
  <event>
  6     66 -.38225901E-03 0.30283251E+02 0.75467711E-02 0.11982801E+00
       21 -1    0    0  501  502 0.00000000E+00 0.00000000E+00 0.20735646E+04 0.20735648E+04 0.75000000E+00 0.0000E+00 0.9000E+01
        2 -1    0    0  503    0 0.00000000E+00 0.00000000E+00 -.89699821E+02 0.89700392E+02 0.32000000E+00 0.0000E+00 0.9000E+01
       25  1    1    2    0    0 -.36997374E+02 -.26679054E+02 0.14990810E+03 0.20044455E+03 0.12500000E+03 0.0000E+00 0.9000E+01
       23  1    1    2    0    0 0.38646846E+02 0.48089095E+02 0.13402215E+02 0.11090992E+03 0.91188000E+02 0.0000E+00 0.9000E+01
        2  1    1    2  501    0 -.12450208E+02 -.38365155E+02 0.18294643E+04 0.18299089E+04 0.32000000E+00 0.0000E+00 0.9000E+01
       21  1    1    2  503  502 0.10800735E+02 0.16955114E+02 -.89097982E+01 0.22001790E+02 0.75000000E+00 0.0000E+00 0.9000E+01
#aMCatNLO 2  0  0  2  1 0.20103028D+02 0.00000000D+00  -5  6  0 0.00000000D+00 0.00000000D+00 0.00000000D+00 0.00000000D+00 0.00000000D+00
  <mgrwgt>
 -.1641311079D+01    2    2    0
 0.391616536250783D+03 0.000000000000000D+00 0.000000000000000D+00 0.391616536250783D+03
 0.391616536250783D+03 0.000000000000000D+00 0.000000000000000D+00 -.391616536250783D+03
 0.165492981507414D+03 -.347084904295972D+02 -.230859381830413D+02 -.100126355563960D+03
 0.270688983097597D+03 0.423675548585916D+02 0.539299076781514D+02 -.245466554910320D+03
 0.347051107896555D+03 -.765906442899437D+01 -.308439694951100D+02 0.345592910474280D+03
 0.000000000000000D+00 0.000000000000000D+00 0.000000000000000D+00 -.000000000000000D+00
 0.392984426371572D+03 0.000000000000000D+00 0.000000000000000D+00 0.392984426371572D+03
 0.473294934582708D+03 0.000000000000000D+00 0.000000000000000D+00 -.473294934582708D+03
 0.166525867316370D+03 -.369973730669113D+02 -.266790515779043D+02 -.100126355563960D+03
 0.269026431958618D+03 0.386468466910002D+02 0.480890986574509D+02 -.245466554910320D+03
 0.347938720210417D+03 -.124502085351178D+02 -.383651607452792D+02 0.345592910474280D+03
 0.827883414688751D+02 0.108007349110288D+02 0.169551136657326D+02 -.803105082111353D+02
-.658219370703D-01 0.000000000000D+00 0.000000000000D+00 0.118833262845D-04 0.000000000000D+00  6 21 2 25 23 2 21 4 0.31789823D+00 0.13817218D-01 0.23042829D+05 0.23042829D+05 0.23042829D+05 0.12271117D+01  1  2 13  2  6  2        2 -.221576204335D+01 0.100000000000D+01
0.172896792611D-01 0.000000000000D+00 0.000000000000D+00 0.120483485759D-04 0.152068765170D-06  6 21 2 25 23 2 21 4 0.31900862D+00 0.13799967D-01 0.23042829D+05 0.23042829D+05 0.23042829D+05 0.12271117D+01  1  2  1  2  6  2        2 0.574450964052D+00 0.100000000000D+01
  </mgrwgt>
  </event>
  <event>
  6     66 -.38225901E-03 0.26612974E+02 0.75467711E-02 0.11862092E+00
       21 -1    0    0  501  503 0.00000000E+00 0.00000000E+00 0.38360202E+02 0.38367534E+02 0.75000000E+00 0.0000E+00 0.9000E+01
        4 -1    0    0  502    0 0.00000000E+00 0.00000000E+00 -.84914782E+03 0.84914924E+03 0.15500000E+01 0.0000E+00 0.9000E+01
       25  1    1    2    0    0 -.36172896E+02 -.57249445E+02 -.21799826E+03 0.26025798E+03 0.12500000E+03 0.0000E+00 0.9000E+01
       23  1    1    2    0    0 0.39817398E+02 0.40047215E+02 -.22202822E+03 0.24657856E+03 0.91188000E+02 0.0000E+00 0.9000E+01
        4  1    1    2  501    0 0.22208662E+02 0.36519232E+02 -.29833963E+03 0.30138981E+03 0.15500000E+01 0.0000E+00 0.9000E+01
       21  1    1    2  502  503 -.25853164E+02 -.19317001E+02 -.72421510E+02 0.79290418E+02 0.75000000E+00 0.0000E+00 0.9000E+01
#aMCatNLO 2  0  0  1  2 0.32272785D+02 0.00000000D+00  -5  6  0 0.00000000D+00 0.00000000D+00 0.00000000D+00 0.00000000D+00 0.00000000D+00
  <mgrwgt>
 -.9220203132D-03    2    2    0
 0.163557171652031D+03 0.000000000000000D+00 0.000000000000000D+00 0.163557171652031D+03
 0.163557171652031D+03 0.000000000000000D+00 0.000000000000000D+00 -.163557171652031D+03
 0.157215422289882D+03 -.482952150176855D+02 -.663095533150565D+02 0.486035425801356D+02
 0.102563120876270D+03 0.315328851430330D+02 0.338555254610493D+02 0.796385397863373D+01
 0.673358001379089D+02 0.167623298746525D+02 0.324540278540072D+02 -.565673965587693D+02
 0.000000000000000D+00 -.000000000000000D+00 -.000000000000000D+00 0.000000000000000D+00
 0.180506484960564D+03 0.000000000000000D+00 0.000000000000000D+00 0.180506484960564D+03
 0.180468810851845D+03 0.000000000000000D+00 0.000000000000000D+00 -.180468810851845D+03
 0.150245978981104D+03 -.361746811801576D+02 -.572533168485920D+02 0.486035425801356D+02
 0.107552499353549D+03 0.398159199378432D+02 0.400444543289756D+02 0.796385397863373D+01
 0.709040106108621D+02 0.222119254887607D+02 0.365258638960109D+02 -.565673965587693D+02
 0.322728068668938D+02 -.258531642464463D+02 -.193170013763945D+02 0.376741087184266D-01
-.180293039084D-05 0.000000000000D+00 0.000000000000D+00 0.105608477675D-06 0.000000000000D+00  6 21 4 25 23 4 21 4 0.61512639D-02 0.11839385D+00 0.26316420D+05 0.26316420D+05 0.26316420D+05 0.12209154D+01  1  2 13  1  6  1       21 -.180679889446D-02 0.100000000000D+01
0.104586782372D-05 0.000000000000D+00 0.000000000000D+00 0.107535604560D-06 0.140396124321D-08  6 21 4 25 23 4 21 4 0.59020999D-02 0.13063565D+00 0.26316420D+05 0.26316420D+05 0.26316420D+05 0.12209154D+01  1  2  1  1  6  1       21 0.884778581292D-03 0.100000000000D+01
  </mgrwgt>
  </event>
  <event>
  5     66 -.38225901E-03 0.11847969E+03 0.75467711E-02 0.11554688E+00
       21 -1    0    0  501  502 0.00000000E+00 0.00000000E+00 0.16042108E+03 0.16042283E+03 0.75000000E+00 0.0000E+00 0.9000E+01
        2 -1    0    0  502    0 -.00000000E+00 -.00000000E+00 -.49666299E+03 0.49666309E+03 0.32000000E+00 0.0000E+00 0.9000E+01
       25  1    1    2    0    0 0.17909101E+02 0.66600322E+01 -.36197966E+03 0.38343104E+03 0.12500000E+03 0.0000E+00 0.9000E+01
       23  1    1    2    0    0 0.27379419E+02 0.10457498E+03 -.24390069E+02 0.14351197E+03 0.91188000E+02 0.0000E+00 0.9000E+01
        2  1    1    2  501    0 -.45288520E+02 -.11123501E+03 0.50127816E+02 0.13014292E+03 0.32000000E+00 0.0000E+00 0.9000E+01
#aMCatNLO 1  0  0  5  1 0.14058356D+02 0.00000000D+00  -5  6  0 0.00000000D+00 0.00000000D+00 0.00000000D+00 0.00000000D+00 0.00000000D+00
  <mgrwgt>
 -.6166666453D-01    7    2    0
 0.282269062716042D+03 0.000000000000000D+00 0.000000000000000D+00 0.282269062716042D+03
 0.282269062716042D+03 -.000000000000000D+00 -.000000000000000D+00 -.282269062716042D+03
 0.230692044014574D+03 0.179091296206568D+02 0.666010301485973D+01 -.192947467658128D+03
 0.152511827932104D+03 0.273794383777347D+02 0.104575027040730D+03 0.570879706132751D+02
 0.181334253485405D+03 -.452885679983914D+02 -.111235130055590D+03 0.135859497044853D+03
 0.000000000000000D+00 0.000000000000000D+00 0.000000000000000D+00 0.000000000000000D+00
 0.282269062716042D+03 0.000000000000000D+00 0.000000000000000D+00 0.282269062716042D+03
 0.282269062716042D+03 -.000000000000000D+00 -.000000000000000D+00 -.282269062716042D+03
 0.230004874463779D+03 0.176500678697416D+02 0.602381070470108D+01 -.192170317910665D+03
 0.152386316743097D+03 0.272079862927691D+02 0.104153916464434D+03 0.576023033700879D+02
 0.576592331445813D+02 -.140113000645705D+02 -.451723011414637D+02 0.329808102827489D+02
 0.124487701080627D+03 -.308467540979402D+02 -.650054260276711D+02 0.101587204257828D+03
0.255995520026D-05 0.000000000000D+00 0.000000000000D+00 0.940579898931D-07 0.000000000000D+00  6 21 2 25 23 2 21 2 0.24680309D-01 0.76409834D-01 0.37631625D+05 0.37631625D+05 0.37631625D+05 0.12047014D+01  1  2  2  3  6  5        2 0.452828695336D-02 0.100000000000D+01
-.105406993702D-06 0.135092547376D-06 -.516781199353D-08 0.940579898931D-07 0.000000000000D+00  6 21 2 25 23 2 21 4 0.24680309D-01 0.76409834D-01 0.37631625D+05 0.37631625D+05 0.37631625D+05 0.12047014D+01  1  2  3  3  6  5        2 -.270601262104D-03 0.100000000000D+01
0.227468683466D-06 0.000000000000D+00 0.000000000000D+00 0.940579898931D-07 0.000000000000D+00  6 21 2 25 23 2 21 4 0.24680309D-01 0.76409834D-01 0.37631625D+05 0.37631625D+05 0.37631625D+05 0.12047014D+01  1  2 15  3  6  5        2 0.583958527544D-03 0.100000000000D+01
0.624479359233D-05 0.000000000000D+00 0.000000000000D+00 0.941033253157D-07 0.000000000000D+00  6 21 2 25 23 2 21 4 0.24680309D-01 0.76409834D-01 0.37386527D+05 0.37386527D+05 0.37386527D+05 0.12049917D+01  1  2 12  3  6  5        2 0.160495045075D-01 0.100000000000D+01
-.372784322978D-04 0.000000000000D+00 0.000000000000D+00 0.940579898931D-07 0.000000000000D+00  6 21 2 25 23 2 21 4 0.24680309D-01 0.76409834D-01 0.37631625D+05 0.37631625D+05 0.37631625D+05 0.12047014D+01  1  2  4  3  6  5        2 -.957013427172D-01 0.100000000000D+01
-.623576432952D-05 0.000000000000D+00 0.000000000000D+00 0.940579898931D-07 0.000000000000D+00  6 21 2 25 23 2 21 4 0.24680309D-01 0.76409834D-01 0.37631625D+05 0.37631625D+05 0.37631625D+05 0.12047014D+01  1  2  5  3  6  5        2 -.160084794992D-01 0.100000000000D+01
0.113555480142D-04 0.000000000000D+00 -.000000000000D+00 0.940579898931D-07 0.000000000000D+00  6 21 2 25 23 2 21 4 0.24680309D-01 0.76409834D-01 0.37631625D+05 0.37631625D+05 0.37631625D+05 0.12047014D+01  1  2  6  3  6  5        2 0.291520089569D-01 0.100000000000D+01
  </mgrwgt>
  </event>
  <event>
  5     66 0.38225901E-03 0.13386149E+03 0.75467711E-02 0.11369509E+00
       21 -1    0    0  501  502 0.00000000E+00 0.00000000E+00 0.15215704E+03 0.15215889E+03 0.75000000E+00 0.0000E+00 0.9000E+01
        2 -1    0    0  502    0 0.00000000E+00 0.00000000E+00 -.45742258E+03 0.45742269E+03 0.32000000E+00 0.0000E+00 0.9000E+01
       25  1    1    2    0    0 -.18187399E+02 -.60238329E+02 -.13197264E+03 0.19235700E+03 0.12500000E+03 0.0000E+00 0.9000E+01
       23  1    1    2    0    0 -.11430918E+03 0.41171949E+02 -.22687508E+03 0.27303713E+03 0.91188000E+02 0.0000E+00 0.9000E+01
        2  1    1    2  501    0 0.13249658E+03 0.19066379E+02 0.53582182E+02 0.14418746E+03 0.32000000E+00 0.0000E+00 0.9000E+01
#aMCatNLO 1  0  0  1  1 0.57718064D+01 0.00000000D+00  -5  6  0 0.00000000D+00 0.00000000D+00 0.00000000D+00 0.00000000D+00 0.00000000D+00
  <mgrwgt>
 0.3054146461D-01   13    2    0
 0.263819378049594D+03 0.000000000000000D+00 0.000000000000000D+00 0.263819378049594D+03
 0.263819378049594D+03 0.000000000000000D+00 0.000000000000000D+00 -.263819378049594D+03
 0.145877452435633D+03 -.181874465952759D+02 -.602383357956939D+02 -.411799807675952D+02
 0.184181501953669D+03 -.114309241065057D+03 0.411719407215713D+02 -.104143377236670D+03
 0.197579801709887D+03 0.132496687660333D+03 0.190663950741226D+02 0.145323358004265D+03
 0.000000000000000D+00 -.000000000000000D+00 0.000000000000000D+00 -.000000000000000D+00
 0.263972799821661D+03 0.000000000000000D+00 0.000000000000000D+00 0.263972799821661D+03
 0.324344933641653D+03 0.000000000000000D+00 0.000000000000000D+00 -.324344933641653D+03
 0.145884379167282D+03 -.166586205757543D+02 -.606955651552647D+02 -.411799807675952D+02
 0.182865481626279D+03 -.112385922391737D+03 0.405967295765335D+02 -.104143377236670D+03
 0.198920463070683D+03 0.134574340923658D+03 0.184450267438675D+02 0.145323358004265D+03
 0.606474095990697D+02 -.552979795616752D+01 0.165380883486379D+01 -.603721338199920D+02
0.136036159242D-04 0.000000000000D+00 0.000000000000D+00 0.194049357834D-06 0.000000000000D+00  6 21 2 25 23 2 21 2 0.23408927D-01 0.70372855D-01 0.45308744D+05 0.45308744D+05 0.45308744D+05 0.11965427D+01  1  2  2  1  6  1       21 0.286416792327D-01 0.100000000000D+01
-.460736142560D-06 0.717882535030D-06 -.274617811755D-07 0.194049357834D-06 0.000000000000D+00  6 21 2 25 23 2 21 4 0.23408927D-01 0.70372855D-01 0.45308744D+05 0.45308744D+05 0.45308744D+05 0.11965427D+01  1  2  3  1  6  1       21 -.138884184589D-02 0.100000000000D+01
0.123829269237D-05 0.000000000000D+00 0.000000000000D+00 0.194049357834D-06 0.000000000000D+00  6 21 2 25 23 2 21 4 0.23408927D-01 0.70372855D-01 0.45308744D+05 0.45308744D+05 0.45308744D+05 0.11965427D+01  1  2 15  1  6  1       21 0.373270631443D-02 0.100000000000D+01
-.244802699466D-06 0.000000000000D+00 0.000000000000D+00 0.194049357834D-06 0.000000000000D+00  6 21 2 25 23 2 21 4 0.23408927D-01 0.70372855D-01 0.45308744D+05 0.45308744D+05 0.45308744D+05 0.11965427D+01  1  2  4  1  6  1       21 -.737932629112D-03 0.100000000000D+01
0.726326761708D-07 0.000000000000D+00 0.000000000000D+00 0.194049357834D-06 0.451489699475D-07  6 21 2 25 23 2 21 4 0.23422540D-01 0.86517826D-01 0.46627659D+05 0.46627659D+05 0.46627659D+05 0.11952969D+01  1  2 11  1  6  1       21 0.172709415325D-03 0.100000000000D+01
0.111723599480D-06 0.000000000000D+00 0.000000000000D+00 0.193645491112D-06 0.118208627582D-10  6 -1 2 25 23 2 -1 4 0.23422540D-01 0.86517826D-01 0.46627659D+05 0.46627659D+05 0.46627659D+05 0.11952969D+01  1  2 11  4  6  1       21 0.219988229981D-04 0.100000000000D+01
0.111723599480D-06 0.000000000000D+00 0.000000000000D+00 0.193645491112D-06 0.118208627582D-10  6 -3 2 25 23 2 -3 4 0.23422540D-01 0.86517826D-01 0.46627659D+05 0.46627659D+05 0.46627659D+05 0.11952969D+01  1  2 11  4  6  1       21 0.130490359999D-04 0.100000000000D+01
0.133340675332D-06 0.000000000000D+00 0.000000000000D+00 0.193645491112D-06 0.141080472749D-10  6 1 2 25 23 2 1 4 0.23422540D-01 0.86517826D-01 0.46627659D+05 0.46627659D+05 0.46627659D+05 0.11952969D+01  1  2 11  5  6  1       21 0.417447833125D-04 0.100000000000D+01
0.133340675332D-06 0.000000000000D+00 0.000000000000D+00 0.193645491112D-06 0.141080472749D-10  6 3 2 25 23 2 3 4 0.23422540D-01 0.86517826D-01 0.46627659D+05 0.46627659D+05 0.46627659D+05 0.11952969D+01  1  2 11  5  6  1       21 0.155731108103D-04 0.100000000000D+01
0.930359420438D-07 0.000000000000D+00 0.000000000000D+00 0.193645491112D-06 0.252508997532D-10  6 -2 2 25 23 2 -2 4 0.23422540D-01 0.86517826D-01 0.46627659D+05 0.46627659D+05 0.46627659D+05 0.11952969D+01  1  2 11  6  6  1       21 0.165269036589D-04 0.100000000000D+01
0.348141916616D-08 0.000000000000D+00 0.000000000000D+00 0.193645491112D-06 0.108177319652D-08  6 2 2 25 23 2 2 4 0.23422540D-01 0.86517826D-01 0.46627659D+05 0.46627659D+05 0.46627659D+05 0.11952969D+01  1  2 11  7  6  1       21 0.137938191649D-05 0.100000000000D+01
0.607211414539D-07 0.000000000000D+00 0.000000000000D+00 0.193645491112D-06 0.642457173765D-11  6 -4 2 25 23 2 -4 4 0.23422540D-01 0.86517826D-01 0.46627659D+05 0.46627659D+05 0.46627659D+05 0.11952969D+01  1  2 11  8  6  1       21 0.606053759176D-05 0.100000000000D+01
0.482074045879D-07 0.000000000000D+00 0.000000000000D+00 0.193645491112D-06 0.510056170957D-11  6 4 2 25 23 2 4 4 0.23422540D-01 0.86517826D-01 0.46627659D+05 0.46627659D+05 0.46627659D+05 0.11952969D+01  1  2 11  9  6  1       21 0.481154966311D-05 0.100000000000D+01
  </mgrwgt>
  </event>
  <event>
  5     66 -.38225901E-03 0.39110767E+02 0.75467711E-02 0.12280547E+00
       21 -1    0    0  501  502 0.00000000E+00 0.00000000E+00 0.58495645E+03 0.58495693E+03 0.75000000E+00 0.0000E+00 0.9000E+01
        2 -1    0    0  502    0 0.00000000E+00 0.00000000E+00 -.30663253E+02 0.30664923E+02 0.32000000E+00 0.0000E+00 0.9000E+01
       25  1    1    2    0    0 0.26343496E+01 0.21845545E+02 0.20510894E+03 0.24120291E+03 0.12500000E+03 0.0000E+00 0.9000E+01
       23  1    1    2    0    0 -.19649929E+01 0.17258669E+02 0.20525036E+03 0.22526581E+03 0.91188000E+02 0.0000E+00 0.9000E+01
        2  1    1    2  501    0 -.66935678E+00 -.39104214E+02 0.14393390E+03 0.14915313E+03 0.32000000E+00 0.0000E+00 0.9000E+01
#aMCatNLO 1  0  0  2  1 0.33410697D+00 0.00000000D+00  -5  6  0 0.00000000D+00 0.00000000D+00 0.00000000D+00 0.00000000D+00 0.00000000D+00
  <mgrwgt>
 -.2156579457D+00    9    2    0
 0.133930315329888D+03 0.000000000000000D+00 0.000000000000000D+00 0.133930315329888D+03
 0.133930315329888D+03 0.000000000000000D+00 0.000000000000000D+00 -.133930315329888D+03
 0.129915811002904D+03 0.263435786394635D+01 0.218460260588712D+02 -.277295736105335D+02
 0.929949654453385D+02 -.196498696397318D+01 0.172590125686930D+02 0.557472560444072D+01
 0.449498542115332D+02 -.669370899973173D+00 -.391050386275641D+02 0.221548480060927D+02
 0.000000000000000D+00 0.000000000000000D+00 -.000000000000000D+00 -.000000000000000D+00
 0.134090582131272D+03 0.000000000000000D+00 0.000000000000000D+00 0.134090582131272D+03
 0.134104660340618D+03 0.000000000000000D+00 0.000000000000000D+00 -.134104660340618D+03
 0.129914834416923D+03 0.247284022777886D+01 0.218590944497366D+02 -.277295736105335D+02
 0.929992168756838D+02 -.208060589191317D+01 0.172683672953817D+02 0.557472560444072D+01
 0.449467877356459D+02 -.725253042294156D+00 -.391005172038015D+02 0.221548480060927D+02
 0.334403443637228D+00 0.333018706428463D+00 -.269445413167446D-01 -.140782093456560D-01
0.696774597144D-05 0.000000000000D+00 0.000000000000D+00 0.481265506264D-06 0.000000000000D+00  6 21 2 25 23 2 21 2 0.89993465D-01 0.47175889D-02 0.16752185D+05 0.16752185D+05 0.16752185D+05 0.12423896D+01  1  2  2  2  6  2        2 0.230784444501D-01 0.100000000000D+01
-.107683762348D-07 0.367698056847D-06 -.140658716197D-07 0.481265506264D-06 0.000000000000D+00  6 21 2 25 23 2 21 4 0.89993465D-01 0.47175889D-02 0.16752185D+05 0.16752185D+05 0.16752185D+05 0.12423896D+01  1  2  3  2  6  2        2 -.550528786316D-04 0.100000000000D+01
0.571575640668D-06 0.000000000000D+00 0.000000000000D+00 0.481265506264D-06 0.000000000000D+00  6 21 2 25 23 2 21 4 0.89993465D-01 0.47175889D-02 0.16752185D+05 0.16752185D+05 0.16752185D+05 0.12423896D+01  1  2 15  2  6  2        2 0.292215684969D-02 0.100000000000D+01
-.457014613389D-03 0.000000000000D+00 0.000000000000D+00 0.481265506264D-06 0.000000000000D+00  6 21 2 25 23 2 21 4 0.89993465D-01 0.47175889D-02 0.16752185D+05 0.16752185D+05 0.16752185D+05 0.12423896D+01  1  2  4  2  6  2        2 -.233646833053D+01 0.100000000000D+01
-.149012423346D-01 0.000000000000D+00 -.121520474088D-02 0.481265506264D-06 0.000000000000D+00  6 21 2 25 23 2 21 4 0.89993465D-01 0.47294153D-02 0.16752185D+05 0.16752185D+05 0.16752185D+05 0.12423896D+01  1  2  5  2  6  2        2 -.759327653799D+02 0.100000000000D+01
0.149042419779D-01 0.000000000000D+00 0.121520093202D-02 0.481265506264D-06 0.000000000000D+00  6 21 2 25 23 2 21 4 0.89993465D-01 0.47175889D-02 0.16752185D+05 0.16752185D+05 0.16752185D+05 0.12423896D+01  1  2  6  2  6  2        2 0.761973213802D+02 0.100000000000D+01
0.455935856028D-03 0.000000000000D+00 0.000000000000D+00 0.481265506264D-06 0.462823364069D-04  6 21 2 25 23 2 21 4 0.90101155D-01 0.47237301D-02 0.16795423D+05 0.16795423D+05 0.16795423D+05 0.12422637D+01  1  2 11  2  6  2        2 0.231968073160D+01 0.100000000000D+01
-.696634357528D-05 0.000000000000D+00 -.568341491932D-06 0.481265506264D-06 0.000000000000D+00  6 21 21 25 23 2 -2 4 0.89993465D-01 0.47294153D-02 0.16752185D+05 0.16752185D+05 0.16752185D+05 0.12423896D+01  1  2  5 10  6  2        2 -.523391854117D+00 0.100000000000D+01
0.453331881055D-06 0.000000000000D+00 0.000000000000D+00 0.481265506264D-06 0.124413937327D-07  6 21 21 25 23 2 -2 4 0.90101155D-01 0.47237301D-02 0.16795423D+05 0.16795423D+05 0.16795423D+05 0.12422637D+01  1  2 11 10  6  2        2 0.340199585150D-01 0.100000000000D+01
  </mgrwgt>
  </event>
  <event>
  5     66 -.38225901E-03 0.27738702E+02 0.75467711E-02 0.12240608E+00
       21 -1    0    0  501  502 0.00000000E+00 0.00000000E+00 0.99125663E+01 0.99408988E+01 0.75000000E+00 0.0000E+00 0.9000E+01
        2 -1    0    0  502    0 0.00000000E+00 0.00000000E+00 -.27033283E+04 0.27033283E+04 0.32000000E+00 0.0000E+00 0.9000E+01
       25  1    1    2    0    0 0.39585258E+02 0.26846053E+02 -.20850911E+04 0.20893821E+04 0.12500000E+03 0.0000E+00 0.9000E+01
       23  1    1    2    0    0 -.16656181E+02 -.42456022E+02 -.54912985E+03 0.55851480E+03 0.91188000E+02 0.0000E+00 0.9000E+01
        2  1    1    2  501    0 -.22929076E+02 0.15609970E+02 -.59194804E+02 0.65372325E+02 0.32000000E+00 0.0000E+00 0.9000E+01
#aMCatNLO 1  0  0  1  5 0.11440606D+01 0.00000000D+00  -5  6  0 0.00000000D+00 0.00000000D+00 0.00000000D+00 0.00000000D+00 0.00000000D+00
  <mgrwgt>
 -.1882203810D+00   41    2    0
 0.163815089337036D+03 0.000000000000000D+00 0.000000000000000D+00 0.163815089337036D+03
 0.163815089337036D+03 0.000000000000000D+00 0.000000000000000D+00 -.163815089337036D+03
 0.161887003737366D+03 0.395854513120898D+02 0.268459211437275D+02 -.910751916903000D+02
 0.110997148740963D+03 -.166560486715671D+02 -.424561127777931D+02 0.438767616748688D+02
 0.547460261957433D+02 -.229294026405227D+02 0.156101916340656D+02 0.471984300154312D+02
 0.000000000000000D+00 0.000000000000000D+00 0.000000000000000D+00 0.000000000000000D+00
 0.289887729086622D+03 0.000000000000000D+00 0.000000000000000D+00 0.289887729086622D+03
 0.163818683575890D+03 0.000000000000000D+00 0.000000000000000D+00 -.163818683575890D+03
 0.161774625686474D+03 0.395009267609997D+02 0.262871786161225D+02 -.910751916903000D+02
 0.111153110830437D+03 -.167140634291343D+02 -.428396145162042D+02 0.438767616748688D+02
 0.547044396390915D+02 -.229579857367264D+02 0.154212454496292D+02 0.471984300154312D+02
 0.126074236506510D+03 0.171122404861026D+00 0.113119045045251D+01 0.126069045510731D+03
0.586961373768D-07 0.000000000000D+00 0.000000000000D+00 0.676896685501D-06 0.000000000000D+00  6 21 2 25 23 2 21 2 0.15271911D-02 0.41589884D+00 0.17362531D+05 0.17362531D+05 0.17362531D+05 0.12406454D+01  1  2  2  1  6  1       21 0.709824011500D-03 0.100000000000D+01
0.395518745626D-08 0.309748026784D-08 -.118490590257D-09 0.676896685501D-06 0.000000000000D+00  6 21 2 25 23 2 21 4 0.15271911D-02 0.41589884D+00 0.17362531D+05 0.17362531D+05 0.17362531D+05 0.12406454D+01  1  2  3  1  6  1       21 0.736213114857D-04 0.100000000000D+01
0.500277283643D-08 0.000000000000D+00 0.000000000000D+00 0.676896685501D-06 0.000000000000D+00  6 21 2 25 23 2 21 4 0.15271911D-02 0.41589884D+00 0.17362531D+05 0.17362531D+05 0.17362531D+05 0.12406454D+01  1  2 15  1  6  1       21 0.931209206534D-04 0.100000000000D+01
0.158000664211D-07 0.000000000000D+00 0.000000000000D+00 0.676456591705D-06 0.000000000000D+00  6 21 2 25 23 2 21 4 0.27025274D-02 0.41589884D+00 0.17507210D+05 0.17507210D+05 0.17507210D+05 0.12402420D+01  1  2 12  1  6  1       21 0.116777248063D-03 0.100000000000D+01
0.158053727672D-07 0.000000000000D+00 0.000000000000D+00 0.676456591705D-06 0.000000000000D+00  6 21 2 25 23 2 21 4 0.27034350D-02 0.41589884D+00 0.17507210D+05 0.17507210D+05 0.17507210D+05 0.12402420D+01  1  2 12  1  6  1       21 0.116752405669D-03 0.100000000000D+01
-.568872271281D-03 0.000000000000D+00 0.000000000000D+00 0.676896685501D-06 0.000000000000D+00  6 21 2 25 23 2 21 4 0.15271911D-02 0.41589884D+00 0.17362531D+05 0.17362531D+05 0.17362531D+05 0.12406454D+01  1  2  4  1  6  1       21 -.105889096643D+02 0.100000000000D+01
-.112960746801D-02 0.000000000000D+00 -.731437653813D-07 0.676896685501D-06 0.000000000000D+00  6 21 2 25 23 2 21 4 0.27025440D-02 0.41589884D+00 0.17362531D+05 0.17362531D+05 0.17362531D+05 0.12406454D+01  1  2  5  1  6  1       21 -.836171905530D+01 0.100000000000D+01
0.563554265867D-03 0.000000000000D+00 0.410584555002D-07 0.676896685501D-06 0.000000000000D+00  6 21 2 25 23 2 21 4 0.15271911D-02 0.41589884D+00 0.17362531D+05 0.17362531D+05 0.17362531D+05 0.12406454D+01  1  2  6  1  6  1       21 0.104899210481D+02 0.100000000000D+01
0.112104516650D-02 0.000000000000D+00 0.000000000000D+00 0.676896685501D-06 0.189789753478D-04  6 21 2 25 23 2 21 4 0.27025224D-02 0.41590797D+00 0.17507210D+05 0.17507210D+05 0.17507210D+05 0.12402420D+01  1  2 11  1  6  1       21 0.828497451619D+01 0.100000000000D+01
0.361830328340D-08 0.000000000000D+00 0.000000000000D+00 0.676456591705D-06 0.000000000000D+00  6 -1 2 25 23 2 -1 4 0.27025274D-02 0.41589884D+00 0.17507210D+05 0.17507210D+05 0.17507210D+05 0.12402420D+01  1  2 12  4  6  1       21 0.135709471038D-05 0.100000000000D+01
0.361830328340D-08 0.000000000000D+00 0.000000000000D+00 0.676456591705D-06 0.000000000000D+00  6 -3 2 25 23 2 -3 4 0.27025274D-02 0.41589884D+00 0.17507210D+05 0.17507210D+05 0.17507210D+05 0.12402420D+01  1  2 12  4  6  1       21 0.102078010736D-05 0.100000000000D+01
0.361951846625D-08 0.000000000000D+00 0.000000000000D+00 0.676456591705D-06 0.000000000000D+00  6 -1 2 25 23 2 -1 4 0.27034350D-02 0.41589884D+00 0.17507210D+05 0.17507210D+05 0.17507210D+05 0.12402420D+01  1  2 12  4  6  1       21 0.135688910625D-05 0.100000000000D+01
0.361951846625D-08 0.000000000000D+00 0.000000000000D+00 0.676456591705D-06 0.000000000000D+00  6 -3 2 25 23 2 -3 4 0.27034350D-02 0.41589884D+00 0.17507210D+05 0.17507210D+05 0.17507210D+05 0.12402420D+01  1  2 12  4  6  1       21 0.102059563659D-05 0.100000000000D+01
-.258676049907D-03 0.000000000000D+00 -.147767393473D-07 0.676896685501D-06 0.000000000000D+00  6 -1 2 25 23 2 -1 4 0.27025440D-02 0.41589884D+00 0.17362531D+05 0.17362531D+05 0.17362531D+05 0.12406454D+01  1  2  5  4  6  1       21 -.971583582924D-01 0.100000000000D+01
-.258676049907D-03 0.000000000000D+00 -.147767393473D-07 0.676896685501D-06 0.000000000000D+00  6 -3 2 25 23 2 -3 4 0.27025440D-02 0.41589884D+00 0.17362531D+05 0.17362531D+05 0.17362531D+05 0.12406454D+01  1  2  5  4  6  1       21 -.730672497807D-01 0.100000000000D+01
0.253951026123D-03 0.000000000000D+00 0.000000000000D+00 0.676896685501D-06 0.429896464500D-05  6 -1 2 25 23 2 -1 4 0.27025224D-02 0.41590797D+00 0.17507210D+05 0.17507210D+05 0.17507210D+05 0.12402420D+01  1  2 11  4  6  1       21 0.952409593497D-01 0.100000000000D+01
0.253951026123D-03 0.000000000000D+00 0.000000000000D+00 0.676896685501D-06 0.429896464500D-05  6 -3 2 25 23 2 -3 4 0.27025224D-02 0.41590797D+00 0.17507210D+05 0.17507210D+05 0.17507210D+05 0.12402420D+01  1  2 11  4  6  1       21 0.716383988574D-01 0.100000000000D+01
0.361830328340D-08 0.000000000000D+00 0.000000000000D+00 0.676456591705D-06 0.000000000000D+00  6 1 2 25 23 2 1 4 0.27025274D-02 0.41589884D+00 0.17507210D+05 0.17507210D+05 0.17507210D+05 0.12402420D+01  1  2 12  5  6  1       21 0.145068392297D-05 0.100000000000D+01
0.361830328340D-08 0.000000000000D+00 0.000000000000D+00 0.676456591705D-06 0.000000000000D+00  6 3 2 25 23 2 3 4 0.27025274D-02 0.41589884D+00 0.17507210D+05 0.17507210D+05 0.17507210D+05 0.12402420D+01  1  2 12  5  6  1       21 0.102070850266D-05 0.100000000000D+01
0.361951846625D-08 0.000000000000D+00 0.000000000000D+00 0.676456591705D-06 0.000000000000D+00  6 1 2 25 23 2 1 4 0.27034350D-02 0.41589884D+00 0.17507210D+05 0.17507210D+05 0.17507210D+05 0.12402420D+01  1  2 12  5  6  1       21 0.145049540620D-05 0.100000000000D+01
0.361951846625D-08 0.000000000000D+00 0.000000000000D+00 0.676456591705D-06 0.000000000000D+00  6 3 2 25 23 2 3 4 0.27034350D-02 0.41589884D+00 0.17507210D+05 0.17507210D+05 0.17507210D+05 0.12402420D+01  1  2 12  5  6  1       21 0.102052402972D-05 0.100000000000D+01
-.258676049907D-03 0.000000000000D+00 -.147767393473D-07 0.676896685501D-06 0.000000000000D+00  6 1 2 25 23 2 1 4 0.27025440D-02 0.41589884D+00 0.17362531D+05 0.17362531D+05 0.17362531D+05 0.12406454D+01  1  2  5  5  6  1       21 -.103859881000D+00 0.100000000000D+01
-.258676049907D-03 0.000000000000D+00 -.147767393473D-07 0.676896685501D-06 0.000000000000D+00  6 3 2 25 23 2 3 4 0.27025440D-02 0.41589884D+00 0.17362531D+05 0.17362531D+05 0.17362531D+05 0.12406454D+01  1  2  5  5  6  1       21 -.730621207277D-01 0.100000000000D+01
0.253900798355D-03 0.000000000000D+00 0.000000000000D+00 0.676896685501D-06 0.429811437319D-05  6 1 2 25 23 2 1 4 0.27025224D-02 0.41590797D+00 0.17507210D+05 0.17507210D+05 0.17507210D+05 0.12402420D+01  1  2 11  5  6  1       21 0.101788905660D+00 0.100000000000D+01
0.253900798355D-03 0.000000000000D+00 0.000000000000D+00 0.676896685501D-06 0.429811437319D-05  6 3 2 25 23 2 3 4 0.27025224D-02 0.41590797D+00 0.17507210D+05 0.17507210D+05 0.17507210D+05 0.12402420D+01  1  2 11  5  6  1       21 0.716192056169D-01 0.100000000000D+01
0.361830328340D-08 0.000000000000D+00 0.000000000000D+00 0.676456591705D-06 0.000000000000D+00  6 -2 2 25 23 2 -2 4 0.27025274D-02 0.41589884D+00 0.17507210D+05 0.17507210D+05 0.17507210D+05 0.12402420D+01  1  2 12  6  6  1       21 0.134029955980D-05 0.100000000000D+01
0.361951846625D-08 0.000000000000D+00 0.000000000000D+00 0.676456591705D-06 0.000000000000D+00  6 -2 2 25 23 2 -2 4 0.27034350D-02 0.41589884D+00 0.17507210D+05 0.17507210D+05 0.17507210D+05 0.12402420D+01  1  2 12  6  6  1       21 0.134009095174D-05 0.100000000000D+01
-.258676049907D-03 0.000000000000D+00 -.147767393473D-07 0.676896685501D-06 0.000000000000D+00  6 -2 2 25 23 2 -2 4 0.27025440D-02 0.41589884D+00 0.17362531D+05 0.17362531D+05 0.17362531D+05 0.12406454D+01  1  2  5  6  6  1       21 -.959557050284D-01 0.100000000000D+01
0.254063620892D-03 0.000000000000D+00 0.000000000000D+00 0.676896685501D-06 0.430114924871D-05  6 -2 2 25 23 2 -2 4 0.27025224D-02 0.41590797D+00 0.17507210D+05 0.17507210D+05 0.17507210D+05 0.12402420D+01  1  2 11  6  6  1       21 0.941039817260D-01 0.100000000000D+01
0.361830328340D-08 0.000000000000D+00 0.000000000000D+00 0.676456591705D-06 0.000000000000D+00  6 2 2 25 23 2 2 4 0.27025274D-02 0.41589884D+00 0.17507210D+05 0.17507210D+05 0.17507210D+05 0.12402420D+01  1  2 12  7  6  1       21 0.151448255930D-05 0.100000000000D+01
0.361951846625D-08 0.000000000000D+00 0.000000000000D+00 0.676456591705D-06 0.000000000000D+00  6 2 2 25 23 2 2 4 0.27034350D-02 0.41589884D+00 0.17507210D+05 0.17507210D+05 0.17507210D+05 0.12402420D+01  1  2 12  7  6  1       21 0.151430506301D-05 0.100000000000D+01
-.258676049907D-03 0.000000000000D+00 -.147767393473D-07 0.676896685501D-06 0.000000000000D+00  6 2 2 25 23 2 2 4 0.27025440D-02 0.41589884D+00 0.17362531D+05 0.17362531D+05 0.17362531D+05 0.12406454D+01  1  2  5  7  6  1       21 -.108428147990D+00 0.100000000000D+01
0.253794563458D-03 0.000000000000D+00 0.000000000000D+00 0.676896685501D-06 0.214819753834D-05  6 2 2 25 23 2 2 4 0.27025224D-02 0.41590797D+00 0.17507210D+05 0.17507210D+05 0.17507210D+05 0.12402420D+01  1  2 11  7  6  1       21 0.106220940361D+00 0.100000000000D+01
0.361830328340D-08 0.000000000000D+00 0.000000000000D+00 0.676456591705D-06 0.000000000000D+00  6 -4 2 25 23 2 -4 4 0.27025274D-02 0.41589884D+00 0.17507210D+05 0.17507210D+05 0.17507210D+05 0.12402420D+01  1  2 12  8  6  1       21 0.921464156164D-06 0.100000000000D+01
0.361951846625D-08 0.000000000000D+00 0.000000000000D+00 0.676456591705D-06 0.000000000000D+00  6 -4 2 25 23 2 -4 4 0.27034350D-02 0.41589884D+00 0.17507210D+05 0.17507210D+05 0.17507210D+05 0.12402420D+01  1  2 12  8  6  1       21 0.921291416801D-06 0.100000000000D+01
-.258676049907D-03 0.000000000000D+00 -.147767393473D-07 0.676896685501D-06 0.000000000000D+00  6 -4 2 25 23 2 -4 4 0.27025440D-02 0.41589884D+00 0.17362531D+05 0.17362531D+05 0.17362531D+05 0.12406454D+01  1  2  5  8  6  1       21 -.659526731367D-01 0.100000000000D+01
0.253683586766D-03 0.000000000000D+00 0.000000000000D+00 0.676896685501D-06 0.429443734555D-05  6 -4 2 25 23 2 -4 4 0.27025224D-02 0.41590797D+00 0.17507210D+05 0.17507210D+05 0.17507210D+05 0.12402420D+01  1  2 11  8  6  1       21 0.646002996255D-01 0.100000000000D+01
0.361830328340D-08 0.000000000000D+00 0.000000000000D+00 0.676456591705D-06 0.000000000000D+00  6 4 2 25 23 2 4 4 0.27025274D-02 0.41589884D+00 0.17507210D+05 0.17507210D+05 0.17507210D+05 0.12402420D+01  1  2 12  9  6  1       21 0.921464156164D-06 0.100000000000D+01
0.361951846625D-08 0.000000000000D+00 0.000000000000D+00 0.676456591705D-06 0.000000000000D+00  6 4 2 25 23 2 4 4 0.27034350D-02 0.41589884D+00 0.17507210D+05 0.17507210D+05 0.17507210D+05 0.12402420D+01  1  2 12  9  6  1       21 0.921291416801D-06 0.100000000000D+01
-.258676049907D-03 0.000000000000D+00 -.147767393473D-07 0.676896685501D-06 0.000000000000D+00  6 4 2 25 23 2 4 4 0.27025440D-02 0.41589884D+00 0.17362531D+05 0.17362531D+05 0.17362531D+05 0.12406454D+01  1  2  5  9  6  1       21 -.659526731367D-01 0.100000000000D+01
0.253712662718D-03 0.000000000000D+00 0.000000000000D+00 0.676896685501D-06 0.429492955263D-05  6 4 2 25 23 2 4 4 0.27025224D-02 0.41590797D+00 0.17507210D+05 0.17507210D+05 0.17507210D+05 0.12402420D+01  1  2 11  9  6  1       21 0.646077037910D-01 0.100000000000D+01
  </mgrwgt>
  </event>
  <event>
  5     66 -.38225901E-03 0.44052629E+02 0.75467711E-02 0.10697443E+00
       21 -1    0    0  501  502 0.00000000E+00 0.00000000E+00 0.15112626E+03 0.15112812E+03 0.75000000E+00 0.0000E+00 0.9000E+01
        2 -1    0    0  502    0 0.00000000E+00 0.00000000E+00 -.14497593E+04 0.14497593E+04 0.32000000E+00 0.0000E+00 0.9000E+01
       25  1    1    2    0    0 -.12064187E+03 0.21883258E+03 -.10960257E+04 0.11310789E+04 0.12500000E+03 0.0000E+00 0.9000E+01
       23  1    1    2    0    0 0.14983070E+03 -.25182715E+03 -.25666555E+03 0.40007326E+03 0.91188000E+02 0.0000E+00 0.9000E+01
        2  1    1    2  501    0 -.29188838E+02 0.32994570E+02 0.54058163E+02 0.69735338E+02 0.32000000E+00 0.0000E+00 0.9000E+01
#aMCatNLO 1  0  0  2  5 0.44412833D+02 0.00000000D+00  -5  6  0 0.00000000D+00 0.00000000D+00 0.00000000D+00 0.00000000D+00 0.00000000D+00
  <mgrwgt>
 -.8500871290D+00    7    2    0
 0.468079286783590D+03 0.000000000000000D+00 0.000000000000000D+00 0.468079286783590D+03
 0.468079286783590D+03 0.000000000000000D+00 0.000000000000000D+00 -.468079286783590D+03
 0.413813333076042D+03 -.120641849007169D+03 0.218832563689648D+03 -.305244701786372D+03
 0.328104544659301D+03 0.149830718628644D+03 -.251827168910785D+03 0.116065385174438D+03
 0.194240695831837D+03 -.291888696214744D+02 0.329946052211370D+02 0.189179316611933D+03
 0.000000000000000D+00 -.000000000000000D+00 0.000000000000000D+00 -.000000000000000D+00
 0.471619043064943D+03 0.000000000000000D+00 0.000000000000000D+00 0.471619043064943D+03
 0.632255283075127D+03 0.000000000000000D+00 0.000000000000000D+00 -.632255283075127D+03
 0.403710420599668D+03 -.119990165134395D+03 0.199462116711746D+03 -.305244701786372D+03
 0.340652898546871D+03 0.150363814381000D+03 -.267672739802712D+03 0.116065385174438D+03
 0.192848169594695D+03 -.288803041886111D+02 0.238229031026746D+02 0.189179316611933D+03
 0.166662837398836D+03 -.149334505799421D+01 0.443877199882911D+02 -.160636240010185D+03
0.112508457608D-03 0.000000000000D+00 0.000000000000D+00 0.175107060038D-06 0.000000000000D+00  6 21 2 25 23 2 21 2 0.23250340D-01 0.22304004D+00 0.99334502D+05 0.99334502D+05 0.99334502D+05 0.11638381D+01  1  2  2  2  6  2        2 0.470758015729D-01 0.100000000000D+01
0.222627080116D-04 0.593723442428D-05 -.227122160787D-06 0.175107060038D-06 0.000000000000D+00  6 21 2 25 23 2 21 4 0.23250340D-01 0.22304004D+00 0.99334502D+05 0.99334502D+05 0.99334502D+05 0.11638381D+01  1  2  3  2  6  2        2 0.126175696947D-01 0.100000000000D+01
0.124805061217D-04 0.000000000000D+00 0.000000000000D+00 0.175107060038D-06 0.000000000000D+00  6 21 2 25 23 2 21 4 0.23250340D-01 0.22304004D+00 0.99334502D+05 0.99334502D+05 0.99334502D+05 0.11638381D+01  1  2 15  2  6  2        2 0.707342771296D-02 0.100000000000D+01
-.304793495564D-02 0.000000000000D+00 0.000000000000D+00 0.175107060038D-06 0.000000000000D+00  6 21 2 25 23 2 21 4 0.23250340D-01 0.22304004D+00 0.99334502D+05 0.99334502D+05 0.99334502D+05 0.11638381D+01  1  2  4  2  6  2        2 -.172744176978D+01 0.100000000000D+01
-.331286968390D-02 0.000000000000D+00 -.153319490820D-03 0.175107060038D-06 0.000000000000D+00  6 21 2 25 23 2 21 4 0.23250340D-01 0.30196937D+00 0.99334502D+05 0.99334502D+05 0.99334502D+05 0.11638381D+01  1  2  5  2  6  2        2 -.100121199821D+01 0.100000000000D+01
0.321730235825D-02 0.000000000000D+00 0.146542085177D-03 0.175107060038D-06 0.000000000000D+00  6 21 2 25 23 2 21 4 0.23250340D-01 0.22304004D+00 0.99334502D+05 0.99334502D+05 0.99334502D+05 0.11638381D+01  1  2  6  2  6  2        2 0.182343211405D+01 0.100000000000D+01
-.125485063098D-03 0.000000000000D+00 -.596898815834D-05 0.175107060038D-06 0.000000000000D+00  6 21 21 25 23 2 -2 4 0.23250340D-01 0.30196937D+00 0.99334502D+05 0.99334502D+05 0.99334502D+05 0.11638381D+01  1  2  5 10  6  2        2 -.116322740262D-01 0.100000000000D+01
  </mgrwgt>
  </event>
  <event>
  6     66 0.38225901E-03 0.15298433E+02 0.75467711E-02 0.11780352E+00
       21 -1    0    0  503  502 0.00000000E+00 0.00000000E+00 0.15521249E+03 0.15521430E+03 0.75000000E+00 0.0000E+00 0.9000E+01
        2 -1    0    0  502    0 0.00000000E+00 0.00000000E+00 -.48501725E+03 0.48501735E+03 0.32000000E+00 0.0000E+00 0.9000E+01
       25  1    1    2    0    0 0.64820024E+02 -.10461808E+03 -.27147674E+03 0.32322004E+03 0.12500000E+03 0.0000E+00 0.9000E+01
       23  1    1    2    0    0 -.38066552E+02 0.73310097E+02 -.15795808E+03 0.20022347E+03 0.91188000E+02 0.0000E+00 0.9000E+01
        2  1    1    2  501    0 -.11298187E+02 0.13042685E+02 0.33552332E+01 0.17581827E+02 0.32000000E+00 0.0000E+00 0.9000E+01
       21  1    1    2  503  501 -.15455284E+02 0.18265298E+02 0.96274829E+02 0.99206311E+02 0.75000000E+00 0.0000E+00 0.9000E+01
#aMCatNLO 2  0  0  1  5 0.18571164D+01 0.00000000D+00  -5  6  0 0.00000000D+00 0.00000000D+00 0.00000000D+00 0.00000000D+00 0.00000000D+00
  <mgrwgt>
 0.1400342395D+00    1    2    0
 0.166276970696964D+03 0.000000000000000D+00 0.000000000000000D+00 0.166276970696964D+03
 0.166276970696964D+03 0.000000000000000D+00 0.000000000000000D+00 -.166276970696964D+03
 0.169256679343525D+03 0.567717489741637D+02 -.951064952227061D+02 -.274690113994824D+02
 0.129153615173023D+03 -.439190662086647D+02 0.802266951796385D+02 -.444940640581533D+00
 0.341436468773800D+02 -.128526827654991D+02 0.148798000430676D+02 0.279139520400639D+02
 0.000000000000000D+00 -.000000000000000D+00 0.000000000000000D+00 0.000000000000000D+00
 0.450213371931737D+03 0.000000000000000D+00 0.000000000000000D+00 0.450213371931737D+03
 0.167211613460328D+03 0.000000000000000D+00 0.000000000000000D+00 -.167211613460328D+03
 0.177556296506346D+03 0.648203295519738D+02 -.104618433932831D+03 -.274690113994824D+02
 0.123039955706780D+03 -.380663432202653D+02 0.733098553946861D+02 -.444940640581533D+00
 0.328173210679088D+02 -.112987018489687D+02 0.130432810330583D+02 0.279139520400639D+02
 0.284011412111030D+03 -.154552844827399D+02 0.182652975050862D+02 0.283001758471409D+03
0.477245591355D-04 0.000000000000D+00 0.000000000000D+00 0.881322686498D-06 0.330909618136D-07  6 21 2 25 23 2 21 4 0.23878922D-01 0.74617965D-01 0.28839002D+05 0.28839002D+05 0.28839002D+05 0.12167015D+01  1  2  1  1  6  1       21 0.140034239533D+00 0.100000000000D+01
  </mgrwgt>
  </event>
  <event>
  5     66 -.38225901E-03 0.34079605E+02 0.75467711E-02 0.11351392E+00
       21 -1    0    0  501  502 0.00000000E+00 0.00000000E+00 0.86176810E+01 0.86502558E+01 0.75000000E+00 0.0000E+00 0.9000E+01
        2 -1    0    0  502    0 0.00000000E+00 0.00000000E+00 -.27537731E+04 0.27537731E+04 0.32000000E+00 0.0000E+00 0.9000E+01
       25  1    1    2    0    0 0.17947476E+02 0.23681294E+02 -.15190457E+04 0.15244697E+04 0.12500000E+03 0.0000E+00 0.9000E+01
       23  1    1    2    0    0 0.15157245E+02 -.31773260E+02 -.11546820E+04 0.11588119E+04 0.91188000E+02 0.0000E+00 0.9000E+01
        2  1    1    2  501    0 -.33104721E+02 0.80919657E+01 -.71427723E+02 0.79141800E+02 0.32000000E+00 0.0000E+00 0.9000E+01
#aMCatNLO 1  0  0  1  5 0.55969271D+01 0.00000000D+00  -5  6  0 0.00000000D+00 0.00000000D+00 0.00000000D+00 0.00000000D+00 0.00000000D+00
  <mgrwgt>
 -.4294569813D+00   12    2    0
 0.154195188724918D+03 0.000000000000000D+00 0.000000000000000D+00 0.154195188724918D+03
 0.154195188724918D+03 0.000000000000000D+00 0.000000000000000D+00 -.154195188724918D+03
 0.133642701304368D+03 0.179476135109151D+02 0.236812605160123D+02 -.367757077642839D+02
 0.101649072077145D+03 0.151573499013924D+02 -.317732853832848D+02 -.278925723099121D+02
 0.730986040683229D+02 -.331049634123076D+02 0.809202486727248D+01 0.646682800741960D+02
 0.000000000000000D+00 -.000000000000000D+00 0.000000000000000D+00 0.000000000000000D+00
 0.125123953634318D+04 0.000000000000000D+00 0.000000000000000D+00 0.125123953634318D+04
 0.174257496436536D+03 0.000000000000000D+00 0.000000000000000D+00 -.174257496436536D+03
 0.136438370666420D+03 0.198659207526647D+02 -.352607643308004D+02 -.367757077642839D+02
 0.126615992591667D+03 0.167786502146553D+02 -.815894573022990D+02 -.278925723099121D+02
 0.762154068093417D+02 -.320444294538513D+02 -.244940059675003D+02 0.646682800741960D+02
 0.108622726271229D+04 -.460014151346861D+01 0.141344227600600D+03 0.107698203990664D+04
0.108957212019D-05 0.000000000000D+00 0.000000000000D+00 0.109693118638D-05 0.000000000000D+00  6 21 2 25 23 2 21 2 0.13283043D-02 0.42365991D+00 0.16940333D+05 0.16940333D+05 0.16940333D+05 0.12418444D+01  1  2  2  1  6  1       21 0.154768072784D-01 0.100000000000D+01
0.748443173254D-07 0.574983004592D-07 -.219953219103D-08 0.109693118638D-05 0.000000000000D+00  6 21 2 25 23 2 21 4 0.13283043D-02 0.42365991D+00 0.16940333D+05 0.16940333D+05 0.16940333D+05 0.12418444D+01  1  2  3  1  6  1       21 0.163952703727D-02 0.100000000000D+01
0.108498030292D-06 0.000000000000D+00 0.000000000000D+00 0.109693118638D-05 0.000000000000D+00  6 21 2 25 23 2 21 4 0.13283043D-02 0.42365991D+00 0.16940333D+05 0.16940333D+05 0.16940333D+05 0.12418444D+01  1  2 15  1  6  1       21 0.237673961779D-02 0.100000000000D+01
-.734095234262D-03 0.000000000000D+00 -.280104479440D-04 0.109693118638D-05 0.000000000000D+00  6 21 2 25 23 2 21 4 0.12745493D-01 0.42365991D+00 0.16940333D+05 0.16940333D+05 0.16940333D+05 0.12418444D+01  1  2  5  1  6  1       21 -.367669136350D+00 0.100000000000D+01
-.323133965393D-03 0.000000000000D+00 -.122262771729D-04 0.109693118638D-05 0.000000000000D+00  6 -1 2 25 23 2 -1 4 0.12745493D-01 0.42365991D+00 0.16940333D+05 0.16940333D+05 0.16940333D+05 0.12418444D+01  1  2  5  4  6  1       21 -.113265147316D-01 0.100000000000D+01
-.323133965393D-03 0.000000000000D+00 -.122262771729D-04 0.109693118638D-05 0.000000000000D+00  6 -3 2 25 23 2 -3 4 0.12745493D-01 0.42365991D+00 0.16940333D+05 0.16940333D+05 0.16940333D+05 0.12418444D+01  1  2  5  4  6  1       21 -.718927273794D-02 0.100000000000D+01
-.323133965393D-03 0.000000000000D+00 -.122262771729D-04 0.109693118638D-05 0.000000000000D+00  6 1 2 25 23 2 1 4 0.12745493D-01 0.42365991D+00 0.16940333D+05 0.16940333D+05 0.16940333D+05 0.12418444D+01  1  2  5  5  6  1       21 -.149779447768D-01 0.100000000000D+01
-.323133965393D-03 0.000000000000D+00 -.122262771729D-04 0.109693118638D-05 0.000000000000D+00  6 3 2 25 23 2 3 4 0.12745493D-01 0.42365991D+00 0.16940333D+05 0.16940333D+05 0.16940333D+05 0.12418444D+01  1  2  5  5  6  1       21 -.718833979606D-02 0.100000000000D+01
-.323133965393D-03 0.000000000000D+00 -.122262771729D-04 0.109693118638D-05 0.000000000000D+00  6 -2 2 25 23 2 -2 4 0.12745493D-01 0.42365991D+00 0.16940333D+05 0.16940333D+05 0.16940333D+05 0.12418444D+01  1  2  5  6  6  1       21 -.106944005786D-01 0.100000000000D+01
-.323133965393D-03 0.000000000000D+00 -.122262771729D-04 0.109693118638D-05 0.000000000000D+00  6 2 2 25 23 2 2 4 0.12745493D-01 0.42365991D+00 0.16940333D+05 0.16940333D+05 0.16940333D+05 0.12418444D+01  1  2  5  7  6  1       21 -.174683276244D-01 0.100000000000D+01
-.323133965393D-03 0.000000000000D+00 -.122262771729D-04 0.109693118638D-05 0.000000000000D+00  6 -4 2 25 23 2 -4 4 0.12745493D-01 0.42365991D+00 0.16940333D+05 0.16940333D+05 0.16940333D+05 0.12418444D+01  1  2  5  8  6  1       21 -.621805932533D-02 0.100000000000D+01
-.323133965393D-03 0.000000000000D+00 -.122262771729D-04 0.109693118638D-05 0.000000000000D+00  6 4 2 25 23 2 4 4 0.12745493D-01 0.42365991D+00 0.16940333D+05 0.16940333D+05 0.16940333D+05 0.12418444D+01  1  2  5  9  6  1       21 -.621805932533D-02 0.100000000000D+01
  </mgrwgt>
  </event>
  <event>
  5     66 0.38225901E-03 0.21848438E+02 0.75467711E-02 0.10347889E+00
       21 -1    0    0  501  502 0.00000000E+00 0.00000000E+00 0.87200711E+02 0.87203936E+02 0.75000000E+00 0.0000E+00 0.9000E+01
        2 -1    0    0  502    0 0.00000000E+00 0.00000000E+00 -.34615586E+03 0.34615601E+03 0.32000000E+00 0.0000E+00 0.9000E+01
       25  1    1    2    0    0 -.26655224E+02 -.83546182E+02 -.16497851E+03 0.22479630E+03 0.12500000E+03 0.0000E+00 0.9000E+01
       23  1    1    2    0    0 0.47147390E+02 0.91122018E+02 -.29381628E+02 0.14037318E+03 0.91188000E+02 0.0000E+00 0.9000E+01
        2  1    1    2  501    0 -.20492166E+02 -.75758367E+01 -.64595008E+02 0.68190465E+02 0.32000000E+00 0.0000E+00 0.9000E+01
#aMCatNLO 1  0  0  1  1 0.37298397D+03 0.00000000D+00  -5  6  0 0.00000000D+00 0.00000000D+00 0.00000000D+00 0.00000000D+00 0.00000000D+00
  <mgrwgt>
 0.8516847777D-01   12    2    0
 0.173740518705728D+03 0.000000000000000D+00 0.000000000000000D+00 0.173740518705728D+03
 0.173740518705728D+03 0.000000000000000D+00 0.000000000000000D+00 -.173740518705728D+03
 0.157405965054639D+03 -.266548749779419D+02 -.835460526810366D+02 -.382258100778786D+02
 0.153170165679444D+03 0.471477293624088D+02 0.911221439353612D+02 0.679683368257656D+02
 0.369049066773727D+02 -.204928543844669D+02 -.757609125432466D+01 -.297425267478870D+02
 0.000000000000000D+00 -.000000000000000D+00 0.000000000000000D+00 0.000000000000000D+00
 0.618689479407580D+03 0.000000000000000D+00 0.000000000000000D+00 0.618689479407580D+03
 0.350480465279778D+03 0.000000000000000D+00 0.000000000000000D+00 -.350480465279778D+03
 0.233899816071404D+03 0.133825500049715D+03 -.140405295265421D+03 -.382258100778786D+02
 0.239742505060255D+03 0.208287113942865D+03 0.340294099722233D+02 0.679683368257656D+02
 0.361224436564088D+02 0.945675825636045D+01 -.181874341687444D+02 -.297425267478870D+02
 0.459405179899291D+03 -.351569372248941D+03 0.124563319461942D+03 0.268209014127802D+03
0.576891713696D-05 0.000000000000D+00 0.000000000000D+00 0.955086460733D-07 0.000000000000D+00  6 21 2 25 23 2 21 2 0.13415754D-01 0.53255007D-01 0.24305797D+05 0.24305797D+05 0.24305797D+05 0.12246110D+01  1  2  2  1  6  1       21 0.482919062578D-01 0.100000000000D+01
-.204704149932D-06 0.304434121172D-06 -.116457816008D-07 0.955086460733D-07 0.000000000000D+00  6 21 2 25 23 2 21 4 0.13415754D-01 0.53255007D-01 0.24305797D+05 0.24305797D+05 0.24305797D+05 0.12246110D+01  1  2  3  1  6  1       21 -.256982196955D-02 0.100000000000D+01
0.474922718091D-06 0.000000000000D+00 0.000000000000D+00 0.955086460733D-07 0.000000000000D+00  6 21 2 25 23 2 21 4 0.13415754D-01 0.53255007D-01 0.24305797D+05 0.24305797D+05 0.24305797D+05 0.12246110D+01  1  2 15  1  6  1       21 0.596210108683D-02 0.100000000000D+01
0.740622066109D-04 0.000000000000D+00 -.693731968715D-04 0.955086460733D-07 0.000000000000D+00  6 21 2 25 23 2 21 4 0.89656251D-01 0.53255007D-01 0.24305797D+05 0.24305797D+05 0.24305797D+05 0.12246110D+01  1  2  5  1  6  1       21 0.209518257556D-01 0.100000000000D+01
0.322346116289D-04 0.000000000000D+00 -.296561536914D-04 0.955086460733D-07 0.000000000000D+00  6 -1 2 25 23 2 -1 4 0.89656251D-01 0.53255007D-01 0.24305797D+05 0.24305797D+05 0.24305797D+05 0.12246110D+01  1  2  5  4  6  1       21 0.101971500125D-02 0.100000000000D+01
0.322346116289D-04 0.000000000000D+00 -.296561536914D-04 0.955086460733D-07 0.000000000000D+00  6 -3 2 25 23 2 -3 4 0.89656251D-01 0.53255007D-01 0.24305797D+05 0.24305797D+05 0.24305797D+05 0.12246110D+01  1  2  5  4  6  1       21 0.481727881464D-03 0.100000000000D+01
0.322346116289D-04 0.000000000000D+00 -.296561536914D-04 0.955086460733D-07 0.000000000000D+00  6 1 2 25 23 2 1 4 0.89656251D-01 0.53255007D-01 0.24305797D+05 0.24305797D+05 0.24305797D+05 0.12246110D+01  1  2  5  5  6  1       21 0.344971907407D-02 0.100000000000D+01
0.322346116289D-04 0.000000000000D+00 -.296561536914D-04 0.955086460733D-07 0.000000000000D+00  6 3 2 25 23 2 3 4 0.89656251D-01 0.53255007D-01 0.24305797D+05 0.24305797D+05 0.24305797D+05 0.12246110D+01  1  2  5  5  6  1       21 0.482497951007D-03 0.100000000000D+01
0.322346116289D-04 0.000000000000D+00 -.296561536914D-04 0.955086460733D-07 0.000000000000D+00  6 -2 2 25 23 2 -2 4 0.89656251D-01 0.53255007D-01 0.24305797D+05 0.24305797D+05 0.24305797D+05 0.12246110D+01  1  2  5  6  6  1       21 0.766442921781D-03 0.100000000000D+01
0.322346116289D-04 0.000000000000D+00 -.296561536914D-04 0.955086460733D-07 0.000000000000D+00  6 2 2 25 23 2 2 4 0.89656251D-01 0.53255007D-01 0.24305797D+05 0.24305797D+05 0.24305797D+05 0.12246110D+01  1  2  5  7  6  1       21 0.555779203345D-02 0.100000000000D+01
0.322346116289D-04 0.000000000000D+00 -.296561536914D-04 0.955086460733D-07 0.000000000000D+00  6 -4 2 25 23 2 -4 4 0.89656251D-01 0.53255007D-01 0.24305797D+05 0.24305797D+05 0.24305797D+05 0.12246110D+01  1  2  5  8  6  1       21 0.387285890023D-03 0.100000000000D+01
0.322346116289D-04 0.000000000000D+00 -.296561536914D-04 0.955086460733D-07 0.000000000000D+00  6 4 2 25 23 2 4 4 0.89656251D-01 0.53255007D-01 0.24305797D+05 0.24305797D+05 0.24305797D+05 0.12246110D+01  1  2  5  9  6  1       21 0.387285890023D-03 0.100000000000D+01
  </mgrwgt>
  </event>
  <event>
  5     66 0.38225901E-03 0.31573061E+02 0.75467711E-02 0.12197238E+00
       21 -1    0    0  501  502 0.00000000E+00 0.00000000E+00 0.17485564E+02 0.17501641E+02 0.75000000E+00 0.0000E+00 0.9000E+01
        2 -1    0    0  502    0 0.00000000E+00 0.00000000E+00 -.11961026E+04 0.11961027E+04 0.32000000E+00 0.0000E+00 0.9000E+01
       25  1    1    2    0    0 -.98094892E+01 -.20948304E+02 -.82327516E+03 0.83303184E+03 0.12500000E+03 0.0000E+00 0.9000E+01
       23  1    1    2    0    0 0.36725175E+02 0.38202901E+01 -.30920437E+03 0.32447793E+03 0.91188000E+02 0.0000E+00 0.9000E+01
        2  1    1    2  501    0 -.26915686E+02 0.17128014E+02 -.46137528E+02 0.56094535E+02 0.32000000E+00 0.0000E+00 0.9000E+01
#aMCatNLO 1  0  0  1  2 0.12510171D+02 0.00000000D+00  -5  6  0 0.00000000D+00 0.00000000D+00 0.00000000D+00 0.00000000D+00 0.00000000D+00
  <mgrwgt>
 0.2117421374D+00   23    2    0
 0.144652377129159D+03 0.000000000000000D+00 0.000000000000000D+00 0.144652377129159D+03
 0.144652377129159D+03 0.000000000000000D+00 0.000000000000000D+00 -.144652377129159D+03
 0.140491748282982D+03 -.980919064325624D+01 -.209484942573483D+02 -.598153132808223D+02
 0.101464868829271D+03 0.367253908729901D+02 0.382015290313737D+01 0.248298280212311D+02
 0.473481371460649D+02 -.269162002297338D+02 0.171283413542109D+02 0.349854852595912D+02
 0.000000000000000D+00 0.000000000000000D+00 -.000000000000000D+00 0.000000000000000D+00
 0.152602150885429D+03 0.000000000000000D+00 0.000000000000000D+00 0.152602150885429D+03
 0.149794353553236D+03 0.000000000000000D+00 0.000000000000000D+00 -.149794353553236D+03
 0.140041189332487D+03 -.127796306810682D+02 -.156634621469815D+02 -.598153132808223D+02
 0.100925591926915D+03 0.345823671945176D+02 0.763303880887205D+01 0.248298280212311D+02
 0.486083302856676D+02 -.279322411095285D+02 0.189360899055386D+02 0.349854852595912D+02
 0.128213928935964D+02 0.612950459607910D+01 -.109056665674292D+02 0.280779733219253D+01
0.100465865683D-05 0.000000000000D+00 0.000000000000D+00 0.621081732959D-06 0.000000000000D+00  6 21 2 25 23 2 21 2 0.26913267D-02 0.18401703D+00 0.16564468D+05 0.16564468D+05 0.16564468D+05 0.12429404D+01  1  2  2  1  6  1       21 0.299905705790D-01 0.100000000000D+01
0.352066542203D-07 0.530172938887D-07 -.202811637315D-08 0.621081732959D-06 0.000000000000D+00  6 21 2 25 23 2 21 4 0.26913267D-02 0.18401703D+00 0.16564468D+05 0.16564468D+05 0.16564468D+05 0.12429404D+01  1  2  3  1  6  1       21 0.162364673780D-02 0.100000000000D+01
0.959901105023D-07 0.000000000000D+00 0.000000000000D+00 0.621081732959D-06 0.000000000000D+00  6 21 2 25 23 2 21 4 0.26913267D-02 0.18401703D+00 0.16564468D+05 0.16564468D+05 0.16564468D+05 0.12429404D+01  1  2 15  1  6  1       21 0.442683445019D-02 0.100000000000D+01
0.266824138492D-05 0.000000000000D+00 0.000000000000D+00 0.616196920833D-06 0.000000000000D+00  6 21 2 25 23 2 21 4 0.28848991D-02 0.18401703D+00 0.18320131D+05 0.18320131D+05 0.18320131D+05 0.12380429D+01  1  2 12  1  6  1       21 0.108223990735D+00 0.100000000000D+01
-.101492324104D-05 0.000000000000D+00 0.000000000000D+00 0.621081732959D-06 0.000000000000D+00  6 21 2 25 23 2 21 4 0.26913267D-02 0.18401703D+00 0.16564468D+05 0.16564468D+05 0.16564468D+05 0.12429404D+01  1  2  4  1  6  1       21 -.468058338948D-01 0.100000000000D+01
-.184837939310D-04 0.000000000000D+00 -.359327797562D-05 0.621081732959D-06 0.000000000000D+00  6 21 2 25 23 2 21 4 0.29456915D-02 0.18401703D+00 0.16564468D+05 0.16564468D+05 0.16564468D+05 0.12429404D+01  1  2  5  1  6  1       21 -.735392549982D+00 0.100000000000D+01
0.185177375078D-04 0.000000000000D+00 0.353533648525D-05 0.621081732959D-06 0.000000000000D+00  6 21 2 25 23 2 21 4 0.26913267D-02 0.18401703D+00 0.16564468D+05 0.16564468D+05 0.16564468D+05 0.12429404D+01  1  2  6  1  6  1       21 0.853993790717D+00 0.100000000000D+01
0.469795643876D-07 0.000000000000D+00 0.000000000000D+00 0.616196920833D-06 0.000000000000D+00  6 -1 2 25 23 2 -1 4 0.28848991D-02 0.18401703D+00 0.18320131D+05 0.18320131D+05 0.18320131D+05 0.12380429D+01  1  2 12  4  6  1       21 0.979271626550D-04 0.100000000000D+01
0.469795643876D-07 0.000000000000D+00 0.000000000000D+00 0.616196920833D-06 0.000000000000D+00  6 -3 2 25 23 2 -3 4 0.28848991D-02 0.18401703D+00 0.18320131D+05 0.18320131D+05 0.18320131D+05 0.12380429D+01  1  2 12  4  6  1       21 0.733097263062D-04 0.100000000000D+01
-.347877032235D-06 0.000000000000D+00 -.818758822071D-07 0.621081732959D-06 0.000000000000D+00  6 -1 2 25 23 2 -1 4 0.29456915D-02 0.18401703D+00 0.16564468D+05 0.16564468D+05 0.16564468D+05 0.12429404D+01  1  2  5  4  6  1       21 -.713012359186D-03 0.100000000000D+01
-.347877032235D-06 0.000000000000D+00 -.818758822071D-07 0.621081732959D-06 0.000000000000D+00  6 -3 2 25 23 2 -3 4 0.29456915D-02 0.18401703D+00 0.16564468D+05 0.16564468D+05 0.16564468D+05 0.12429404D+01  1  2  5  4  6  1       21 -.531608340801D-03 0.100000000000D+01
0.469795643876D-07 0.000000000000D+00 0.000000000000D+00 0.616196920833D-06 0.000000000000D+00  6 1 2 25 23 2 1 4 0.28848991D-02 0.18401703D+00 0.18320131D+05 0.18320131D+05 0.18320131D+05 0.12380429D+01  1  2 12  5  6  1       21 0.105127527088D-03 0.100000000000D+01
0.469795643876D-07 0.000000000000D+00 0.000000000000D+00 0.616196920833D-06 0.000000000000D+00  6 3 2 25 23 2 3 4 0.28848991D-02 0.18401703D+00 0.18320131D+05 0.18320131D+05 0.18320131D+05 0.12380429D+01  1  2 12  5  6  1       21 0.733043902824D-04 0.100000000000D+01
-.347877032235D-06 0.000000000000D+00 -.818758822071D-07 0.621081732959D-06 0.000000000000D+00  6 1 2 25 23 2 1 4 0.29456915D-02 0.18401703D+00 0.16564468D+05 0.16564468D+05 0.16564468D+05 0.12429404D+01  1  2  5  5  6  1       21 -.766645569271D-03 0.100000000000D+01
-.347877032235D-06 0.000000000000D+00 -.818758822071D-07 0.621081732959D-06 0.000000000000D+00  6 3 2 25 23 2 3 4 0.29456915D-02 0.18401703D+00 0.16564468D+05 0.16564468D+05 0.16564468D+05 0.12429404D+01  1  2  5  5  6  1       21 -.531568813058D-03 0.100000000000D+01
0.469795643876D-07 0.000000000000D+00 0.000000000000D+00 0.616196920833D-06 0.000000000000D+00  6 -2 2 25 23 2 -2 4 0.28848991D-02 0.18401703D+00 0.18320131D+05 0.18320131D+05 0.18320131D+05 0.12380429D+01  1  2 12  6  6  1       21 0.966363103149D-04 0.100000000000D+01
-.347877032235D-06 0.000000000000D+00 -.818758822071D-07 0.621081732959D-06 0.000000000000D+00  6 -2 2 25 23 2 -2 4 0.29456915D-02 0.18401703D+00 0.16564468D+05 0.16564468D+05 0.16564468D+05 0.12429404D+01  1  2  5  6  6  1       21 -.703398265204D-03 0.100000000000D+01
0.469795643876D-07 0.000000000000D+00 0.000000000000D+00 0.616196920833D-06 0.000000000000D+00  6 2 2 25 23 2 2 4 0.28848991D-02 0.18401703D+00 0.18320131D+05 0.18320131D+05 0.18320131D+05 0.12380429D+01  1  2 12  7  6  1       21 0.110027145986D-03 0.100000000000D+01
-.347877032235D-06 0.000000000000D+00 -.818758822071D-07 0.621081732959D-06 0.000000000000D+00  6 2 2 25 23 2 2 4 0.29456915D-02 0.18401703D+00 0.16564468D+05 0.16564468D+05 0.16564468D+05 0.12429404D+01  1  2  5  7  6  1       21 -.803109947344D-03 0.100000000000D+01
0.469795643876D-07 0.000000000000D+00 0.000000000000D+00 0.616196920833D-06 0.000000000000D+00  6 -4 2 25 23 2 -4 4 0.28848991D-02 0.18401703D+00 0.18320131D+05 0.18320131D+05 0.18320131D+05 0.12380429D+01  1  2 12  8  6  1       21 0.661187656278D-04 0.100000000000D+01
-.347877032235D-06 0.000000000000D+00 -.818758822071D-07 0.621081732959D-06 0.000000000000D+00  6 -4 2 25 23 2 -4 4 0.29456915D-02 0.18401703D+00 0.16564468D+05 0.16564468D+05 0.16564468D+05 0.12429404D+01  1  2  5  8  6  1       21 -.478769204900D-03 0.100000000000D+01
0.469795643876D-07 0.000000000000D+00 0.000000000000D+00 0.616196920833D-06 0.000000000000D+00  6 4 2 25 23 2 4 4 0.28848991D-02 0.18401703D+00 0.18320131D+05 0.18320131D+05 0.18320131D+05 0.12380429D+01  1  2 12  9  6  1       21 0.661187656278D-04 0.100000000000D+01
-.347877032235D-06 0.000000000000D+00 -.818758822071D-07 0.621081732959D-06 0.000000000000D+00  6 4 2 25 23 2 4 4 0.29456915D-02 0.18401703D+00 0.16564468D+05 0.16564468D+05 0.16564468D+05 0.12429404D+01  1  2  5  9  6  1       21 -.478769204900D-03 0.100000000000D+01
  </mgrwgt>
  </event>
  <event>
  6     66 0.38225901E-03 0.33993426E+02 0.75467711E-02 0.12089747E+00
       21 -1    0    0  501  502 0.00000000E+00 0.00000000E+00 0.14238455E+02 0.14258195E+02 0.75000000E+00 0.0000E+00 0.9000E+01
        2 -1    0    0  502    0 -.00000000E+00 -.00000000E+00 -.16710809E+04 0.16710809E+04 0.32000000E+00 0.0000E+00 0.9000E+01
       25  1    1    2    0    0 -.32471712E+02 0.22834089E+02 -.87291087E+03 0.88270844E+03 0.12500000E+03 0.0000E+00 0.9000E+01
       23  1    1    2    0    0 0.44162307E+01 0.25676262E+02 -.30636491E+03 0.32070778E+03 0.91188000E+02 0.0000E+00 0.9000E+01
        2  1    1    2  503    0 0.29825847E+02 -.31098273E+02 -.40435852E+03 0.40664800E+03 0.32000000E+00 0.0000E+00 0.9000E+01
       21  1    1    2  501  503 -.17703664E+01 -.17412078E+02 -.73208109E+02 0.75274859E+02 0.75000000E+00 0.0000E+00 0.9000E+01
#aMCatNLO 2  0  0  5  1 0.13761578D+02 0.00000000D+00  -5  6  0 0.00000000D+00 0.00000000D+00 0.00000000D+00 0.00000000D+00 0.00000000D+00
  <mgrwgt>
 0.8628066589D-01    2    2    0
 0.154305766941311D+03 0.000000000000000D+00 0.000000000000000D+00 0.154305766941311D+03
 0.154305766941311D+03 -.000000000000000D+00 -.000000000000000D+00 -.154305766941311D+03
 0.134800119563833D+03 -.341601415204455D+02 0.257535299143635D+02 -.267565442962419D+02
 0.107608132290593D+03 0.307115167627646D+01 0.280020201560514D+02 0.497062741073111D+02
 0.662032820281956D+02 0.310889898441690D+02 -.537555500704149D+02 -.229497298110692D+02
 0.000000000000000D+00 0.000000000000000D+00 -.000000000000000D+00 0.000000000000000D+00
 0.154305766941311D+03 0.000000000000000D+00 0.000000000000000D+00 0.154305766941311D+03
 0.154305766941311D+03 -.000000000000000D+00 -.000000000000000D+00 -.154305766941311D+03
 0.134103226460381D+03 -.324590622276909D+02 0.228122168143315D+02 -.280122721391729D+02
 0.106609042131575D+03 0.442628691334092D+01 0.256588742238955D+02 0.487059203581551D+02
 0.496400053165275D+02 0.297810768595511D+02 -.308236395972971D+02 -.250423806952600D+02
 0.182592599741382D+02 -.174830154520114D+01 -.176474514409299D+02 0.434873247627792D+01
-.155918784400D-05 0.000000000000D+00 0.000000000000D+00 0.145310093235D-06 0.000000000000D+00  6 21 2 25 23 2 21 4 0.21920524D-02 0.25709088D+00 0.20530834D+05 0.20530834D+05 0.20530834D+05 0.12325755D+01  1  2 13  3  6  5        2 -.545583363219D-01 0.100000000000D+01
0.402494788180D-05 0.000000000000D+00 0.000000000000D+00 0.145069876130D-06 0.116448767201D-07  6 21 2 25 23 2 21 4 0.21920524D-02 0.25709088D+00 0.20530834D+05 0.20530834D+05 0.20530834D+05 0.12325755D+01  1  2  1  3  6  5        2 0.140839002214D+00 0.100000000000D+01
  </mgrwgt>
  </event>
  <event>
  6     66 0.38225901E-03 0.63181896E+02 0.75467711E-02 0.11473240E+00
       21 -1    0    0  503  502 0.00000000E+00 0.00000000E+00 0.88941105E+02 0.88944267E+02 0.75000000E+00 0.0000E+00 0.9000E+01
        2 -1    0    0  502    0 0.00000000E+00 0.00000000E+00 -.51991387E+03 0.51991397E+03 0.32000000E+00 0.0000E+00 0.9000E+01
       25  1    1    2    0    0 0.98460243E+02 0.32224413E+02 -.13915953E+03 0.21382986E+03 0.12500000E+03 0.0000E+00 0.9000E+01
       23  1    1    2    0    0 -.13427057E+03 0.13141731E+02 -.25490707E+03 0.30248001E+03 0.91188000E+02 0.0000E+00 0.9000E+01
        2  1    1    2  501    0 0.45335032E+02 -.51994993E+02 -.19629676E+02 0.71722876E+02 0.32000000E+00 0.0000E+00 0.9000E+01
       21  1    1    2  503  501 -.95247047E+01 0.66288482E+01 -.17276493E+02 0.20825498E+02 0.75000000E+00 0.0000E+00 0.9000E+01
#aMCatNLO 2  0  0  1  1 0.11604380D+02 0.00000000D+00  -5  6  0 0.00000000D+00 0.00000000D+00 0.00000000D+00 0.00000000D+00 0.00000000D+00
  <mgrwgt>
 0.2749377123D-01    2    2    0
 0.208867921644737D+03 0.000000000000000D+00 0.000000000000000D+00 0.208867921644737D+03
 0.208867921644737D+03 0.000000000000000D+00 0.000000000000000D+00 -.208867921644737D+03
 0.161453605613937D+03 0.947605042459591D+02 0.347993607701162D+02 0.158656260760057D+02
 0.176619083832077D+03 -.138258957351593D+03 0.159175730921720D+02 -.592464430036769D+02
 0.796631538434607D+02 0.434984531056341D+02 -.507169338622882D+02 0.433808169276713D+02
 0.000000000000000D+00 -.000000000000000D+00 0.000000000000000D+00 -.000000000000000D+00
 0.213190637777343D+03 0.000000000000000D+00 0.000000000000000D+00 0.213190637777343D+03
 0.216884442611755D+03 0.000000000000000D+00 0.000000000000000D+00 -.216884442611755D+03
 0.163124288851465D+03 0.984601058724089D+02 0.322245725201549D+02 0.158656260760057D+02
 0.173282216999708D+03 -.134270714640899D+03 0.131419011397992D+02 -.592464430036769D+02
 0.814904867170747D+02 0.453353134737995D+02 -.519953219078979D+02 0.433808169276713D+02
 0.121780878208503D+02 -.952470470530964D+01 0.662884824794384D+01 -.369380483441212D+01
-.270828262337D-05 0.000000000000D+00 0.000000000000D+00 0.118443728645D-06 0.000000000000D+00  6 21 2 25 23 2 21 4 0.13405326D-01 0.77026364D-01 0.38784052D+05 0.38784052D+05 0.38784052D+05 0.12033641D+01  1  2  8  1  6  1       21 -.212522247216D-01 0.100000000000D+01
0.678659115129D-05 0.000000000000D+00 0.000000000000D+00 0.118443728645D-06 0.758371794632D-08  6 21 2 25 23 2 21 4 0.13682762D-01 0.79982698D-01 0.41164050D+05 0.41164050D+05 0.41164050D+05 0.12007372D+01  1  2  1  1  6  1       21 0.487459959509D-01 0.100000000000D+01
  </mgrwgt>
  </event>
  <event>
  5     66 0.38225901E-03 0.24415573E+02 0.75467711E-02 0.10393194E+00
       21 -1    0    0  501  502 0.00000000E+00 0.00000000E+00 0.10590549E+04 0.10590552E+04 0.75000000E+00 0.0000E+00 0.9000E+01
        4 -1    0    0  502    0 0.00000000E+00 0.00000000E+00 -.69911006E+02 0.69928186E+02 0.15500000E+01 0.0000E+00 0.9000E+01
       25  1    1    2    0    0 -.83945093E+01 0.38125543E+01 0.71314073E+02 0.14420714E+03 0.12500000E+03 0.0000E+00 0.9000E+01
       23  1    1    2    0    0 -.12708878E+02 0.84655307E+01 0.30864158E+02 0.97473219E+02 0.91188000E+02 0.0000E+00 0.9000E+01
        4  1    1    2  501    0 0.21103387E+02 -.12278085E+02 0.88696567E+03 0.88730300E+03 0.15500000E+01 0.0000E+00 0.9000E+01
#aMCatNLO 1  0  0  2  1 0.49213584D+02 0.00000000D+00  -5  6  0 0.00000000D+00 0.00000000D+00 0.00000000D+00 0.00000000D+00 0.00000000D+00
  <mgrwgt>
 0.1312813700D+00    5    2    0
 0.272120270969307D+03 0.000000000000000D+00 0.000000000000000D+00 0.272120270969307D+03
 0.272120270969307D+03 0.000000000000000D+00 0.000000000000000D+00 -.272120270969307D+03
 0.169535673647382D+03 -.839466037449979D+01 0.381264223369829D+01 -.114159266270707D+03
 0.146106623783264D+03 -.127090079898500D+02 0.846560645164892D+01 -.113131378461787D+03
 0.228598244507968D+03 0.211036683643498D+02 -.122782486853472D+02 0.227290644732494D+03
 0.000000000000000D+00 0.000000000000000D+00 -.000000000000000D+00 -.000000000000000D+00
 0.425420034269613D+03 0.000000000000000D+00 0.000000000000000D+00 0.425420034269613D+03
 0.690146273199094D+03 0.000000000000000D+00 0.000000000000000D+00 -.690146273199094D+03
 0.211291126827739D+03 -.942734797880640D+02 0.842562354328683D+02 -.114159266270707D+03
 0.187240619977563D+03 -.878808911483612D+02 0.788798998724514D+02 -.113131378461787D+03
 0.260598043340546D+03 -.892131465486622D+02 0.910566718746903D+02 0.227290644732494D+03
 0.456436517322860D+03 0.271367517485087D+03 -.254192807180010D+03 -.264726238929481D+03
0.377958978720D-03 0.000000000000D+00 0.000000000000D+00 0.189542506909D-04 0.000000000000D+00  6 21 4 25 23 4 21 2 0.16293287D+00 0.10756881D-01 0.14666772D+05 0.14666772D+05 0.14666772D+05 0.12489363D+01  1  2  2  2  6  2        4 0.402569404750D-01 0.100000000000D+01
0.114666389668D-03 0.199454432772D-04 -.762990283227D-06 0.189542506909D-04 0.000000000000D+00  6 21 4 25 23 4 21 4 0.16293287D+00 0.10756881D-01 0.14666772D+05 0.14666772D+05 0.14666772D+05 0.12489363D+01  1  2  3  2  6  2        4 0.190507837260D-01 0.100000000000D+01
0.428500109481D-04 0.000000000000D+00 0.000000000000D+00 0.189542506909D-04 0.000000000000D+00  6 21 4 25 23 4 21 4 0.16293287D+00 0.10756881D-01 0.14666772D+05 0.14666772D+05 0.14666772D+05 0.12489363D+01  1  2 15  2  6  2        4 0.711914183044D-02 0.100000000000D+01
0.916473030123D-03 0.000000000000D+00 -.462680936397D-03 0.189542506909D-04 0.000000000000D+00  6 21 4 25 23 4 21 4 0.16293287D+00 0.42771496D-01 0.14666772D+05 0.14666772D+05 0.14666772D+05 0.12489363D+01  1  2  5  2  6  2        4 0.123804339375D-01 0.100000000000D+01
0.156708549184D-03 0.000000000000D+00 -.761575809689D-04 0.189542506909D-04 0.000000000000D+00  6 21 21 25 23 4 -4 4 0.16293287D+00 0.42771496D-01 0.14666772D+05 0.14666772D+05 0.14666772D+05 0.12489363D+01  1  2  5 10  6  2        4 0.524740700034D-01 0.100000000000D+01
  </mgrwgt>
  </event>
  <event>
  5     66 0.38225901E-03 0.26766031E+02 0.75467711E-02 0.11124051E+00
       21 -1    0    0  501  502 0.00000000E+00 0.00000000E+00 0.43422796E+02 0.43429273E+02 0.75000000E+00 0.0000E+00 0.9000E+01
        2 -1    0    0  502    0 0.00000000E+00 0.00000000E+00 -.14838069E+04 0.14838070E+04 0.32000000E+00 0.0000E+00 0.9000E+01
       25  1    1    2    0    0 -.19709934E+03 0.19952791E+02 -.76510317E+03 0.80015881E+03 0.12500000E+03 0.0000E+00 0.9000E+01
       23  1    1    2    0    0 0.20596921E+03 -.45205333E+02 -.50626861E+03 0.55595863E+03 0.91188000E+02 0.0000E+00 0.9000E+01
        2  1    1    2  501    0 -.88698726E+01 0.25252541E+02 -.16901237E+03 0.17111882E+03 0.32000000E+00 0.0000E+00 0.9000E+01
#aMCatNLO 1  0  0  1  2 0.11818273D+02 0.00000000D+00  -5  6  0 0.00000000D+00 0.00000000D+00 0.00000000D+00 0.00000000D+00 0.00000000D+00
  <mgrwgt>
 0.5859607873D+00   23    2    0
 0.253842507804690D+03 0.000000000000000D+00 0.000000000000000D+00 0.253842507804690D+03
 0.253842507804690D+03 0.000000000000000D+00 0.000000000000000D+00 -.253842507804690D+03
 0.236345253723826D+03 -.197099167434152D+03 0.199523069989037D+02 -.314309178988668D+02
 0.236089422753389D+03 0.205969380187766D+03 -.452058164077286D+02 0.543692264061786D+02
 0.352503391321644D+02 -.887021275361400D+01 0.252535094088249D+02 -.229383085073119D+02
 0.000000000000000D+00 0.000000000000000D+00 -.000000000000000D+00 0.000000000000000D+00
 0.260106670777780D+03 0.000000000000000D+00 0.000000000000000D+00 0.260106670777780D+03
 0.259547383383364D+03 0.000000000000000D+00 0.000000000000000D+00 -.259547383383364D+03
 0.238187078062937D+03 -.198704055525335D+03 0.252364790329151D+02 -.314309178988668D+02
 0.233753081406219D+03 0.204380353288761D+03 -.399738681197757D+02 0.543692264061786D+02
 0.358823948357464D+02 -.911078661969493D+01 0.260456105542215D+02 -.229383085073119D+02
 0.118314998562426D+02 0.343448885626899D+01 -.113082214673609D+02 0.559287394415676D+00
0.190558589943D-04 0.000000000000D+00 0.000000000000D+00 0.549464877598D-07 0.000000000000D+00  6 21 2 25 23 2 21 2 0.66809310D-02 0.22827849D+00 0.60210309D+05 0.60210309D+05 0.60210309D+05 0.11843712D+01  1  2  2  1  6  1       21 0.774978451466D-01 0.100000000000D+01
0.770948308974D-06 0.100560530658D-05 -.384682890732D-07 0.549464877598D-07 0.000000000000D+00  6 21 2 25 23 2 21 4 0.66809310D-02 0.22827849D+00 0.60210309D+05 0.60210309D+05 0.60210309D+05 0.11843712D+01  1  2  3  1  6  1       21 0.439806908269D-02 0.100000000000D+01
0.251350057813D-05 0.000000000000D+00 0.000000000000D+00 0.549464877598D-07 0.000000000000D+00  6 21 2 25 23 2 21 4 0.66809310D-02 0.22827849D+00 0.60210309D+05 0.60210309D+05 0.60210309D+05 0.11843712D+01  1  2 15  1  6  1       21 0.143388980212D-01 0.100000000000D+01
0.339684693775D-04 0.000000000000D+00 0.000000000000D+00 0.547566761790D-07 0.000000000000D+00  6 21 2 25 23 2 21 4 0.69191182D-02 0.22827849D+00 0.63216492D+05 0.63216492D+05 0.63216492D+05 0.11823238D+01  1  2 12  1  6  1       21 0.180874100743D+00 0.100000000000D+01
-.784051364477D-05 0.000000000000D+00 0.000000000000D+00 0.549464877598D-07 0.000000000000D+00  6 21 2 25 23 2 21 4 0.66809310D-02 0.22827849D+00 0.60210309D+05 0.60210309D+05 0.60210309D+05 0.11843712D+01  1  2  4  1  6  1       21 -.447281876776D-01 0.100000000000D+01
-.772382160111D-03 0.000000000000D+00 -.121977377526D-03 0.549464877598D-07 0.000000000000D+00  6 21 2 25 23 2 21 4 0.70141430D-02 0.22827849D+00 0.60210309D+05 0.60210309D+05 0.60210309D+05 0.11843712D+01  1  2  5  1  6  1       21 -.404958462370D+01 0.100000000000D+01
0.774694996351D-03 0.000000000000D+00 0.121401410775D-03 0.549464877598D-07 0.000000000000D+00  6 21 2 25 23 2 21 4 0.66809310D-02 0.22827849D+00 0.60210309D+05 0.60210309D+05 0.60210309D+05 0.11843712D+01  1  2  6  1  6  1       21 0.441944300585D+01 0.100000000000D+01
0.676645357817D-06 0.000000000000D+00 0.000000000000D+00 0.547566761790D-07 0.000000000000D+00  6 -1 2 25 23 2 -1 4 0.69191182D-02 0.22827849D+00 0.63216492D+05 0.63216492D+05 0.63216492D+05 0.11823238D+01  1  2 12  4  6  1       21 0.225516103117D-03 0.100000000000D+01
0.676645357817D-06 0.000000000000D+00 0.000000000000D+00 0.547566761790D-07 0.000000000000D+00  6 -3 2 25 23 2 -3 4 0.69191182D-02 0.22827849D+00 0.63216492D+05 0.63216492D+05 0.63216492D+05 0.11823238D+01  1  2 12  4  6  1       21 0.158748998703D-03 0.100000000000D+01
-.766140627647D-05 0.000000000000D+00 -.141583098233D-05 0.549464877598D-07 0.000000000000D+00  6 -1 2 25 23 2 -1 4 0.70141430D-02 0.22827849D+00 0.60210309D+05 0.60210309D+05 0.60210309D+05 0.11843712D+01  1  2  5  4  6  1       21 -.251902740638D-02 0.100000000000D+01
-.766140627647D-05 0.000000000000D+00 -.141583098233D-05 0.549464877598D-07 0.000000000000D+00  6 -3 2 25 23 2 -3 4 0.70141430D-02 0.22827849D+00 0.60210309D+05 0.60210309D+05 0.60210309D+05 0.11843712D+01  1  2  5  4  6  1       21 -.176893403898D-02 0.100000000000D+01
0.676645357817D-06 0.000000000000D+00 0.000000000000D+00 0.547566761790D-07 0.000000000000D+00  6 1 2 25 23 2 1 4 0.69191182D-02 0.22827849D+00 0.63216492D+05 0.63216492D+05 0.63216492D+05 0.11823238D+01  1  2 12  5  6  1       21 0.264685899280D-03 0.100000000000D+01
0.676645357817D-06 0.000000000000D+00 0.000000000000D+00 0.547566761790D-07 0.000000000000D+00  6 3 2 25 23 2 3 4 0.69191182D-02 0.22827849D+00 0.63216492D+05 0.63216492D+05 0.63216492D+05 0.11823238D+01  1  2 12  5  6  1       21 0.158732522288D-03 0.100000000000D+01
-.766140627647D-05 0.000000000000D+00 -.141583098233D-05 0.549464877598D-07 0.000000000000D+00  6 1 2 25 23 2 1 4 0.70141430D-02 0.22827849D+00 0.60210309D+05 0.60210309D+05 0.60210309D+05 0.11843712D+01  1  2  5  5  6  1       21 -.296277515849D-02 0.100000000000D+01
-.766140627647D-05 0.000000000000D+00 -.141583098233D-05 0.549464877598D-07 0.000000000000D+00  6 3 2 25 23 2 3 4 0.70141430D-02 0.22827849D+00 0.60210309D+05 0.60210309D+05 0.60210309D+05 0.11843712D+01  1  2  5  5  6  1       21 -.176874883080D-02 0.100000000000D+01
0.676645357817D-06 0.000000000000D+00 0.000000000000D+00 0.547566761790D-07 0.000000000000D+00  6 -2 2 25 23 2 -2 4 0.69191182D-02 0.22827849D+00 0.63216492D+05 0.63216492D+05 0.63216492D+05 0.11823238D+01  1  2 12  6  6  1       21 0.218692499195D-03 0.100000000000D+01
-.766140627647D-05 0.000000000000D+00 -.141583098233D-05 0.549464877598D-07 0.000000000000D+00  6 -2 2 25 23 2 -2 4 0.70141430D-02 0.22827849D+00 0.60210309D+05 0.60210309D+05 0.60210309D+05 0.11843712D+01  1  2  5  6  6  1       21 -.244173552368D-02 0.100000000000D+01
0.676645357817D-06 0.000000000000D+00 0.000000000000D+00 0.547566761790D-07 0.000000000000D+00  6 2 2 25 23 2 2 4 0.69191182D-02 0.22827849D+00 0.63216492D+05 0.63216492D+05 0.63216492D+05 0.11823238D+01  1  2 12  7  6  1       21 0.291140800610D-03 0.100000000000D+01
-.766140627647D-05 0.000000000000D+00 -.141583098233D-05 0.549464877598D-07 0.000000000000D+00  6 2 2 25 23 2 2 4 0.70141430D-02 0.22827849D+00 0.60210309D+05 0.60210309D+05 0.60210309D+05 0.11843712D+01  1  2  5  7  6  1       21 -.326244775462D-02 0.100000000000D+01
0.676645357817D-06 0.000000000000D+00 0.000000000000D+00 0.547566761790D-07 0.000000000000D+00  6 -4 2 25 23 2 -4 4 0.69191182D-02 0.22827849D+00 0.63216492D+05 0.63216492D+05 0.63216492D+05 0.11823238D+01  1  2 12  8  6  1       21 0.141704846486D-03 0.100000000000D+01
-.766140627647D-05 0.000000000000D+00 -.141583098233D-05 0.549464877598D-07 0.000000000000D+00  6 -4 2 25 23 2 -4 4 0.70141430D-02 0.22827849D+00 0.60210309D+05 0.60210309D+05 0.60210309D+05 0.11843712D+01  1  2  5  8  6  1       21 -.157778898378D-02 0.100000000000D+01
0.676645357817D-06 0.000000000000D+00 0.000000000000D+00 0.547566761790D-07 0.000000000000D+00  6 4 2 25 23 2 4 4 0.69191182D-02 0.22827849D+00 0.63216492D+05 0.63216492D+05 0.63216492D+05 0.11823238D+01  1  2 12  9  6  1       21 0.141704846486D-03 0.100000000000D+01
-.766140627647D-05 0.000000000000D+00 -.141583098233D-05 0.549464877598D-07 0.000000000000D+00  6 4 2 25 23 2 4 4 0.70141430D-02 0.22827849D+00 0.60210309D+05 0.60210309D+05 0.60210309D+05 0.11843712D+01  1  2  5  9  6  1       21 -.157778898378D-02 0.100000000000D+01
  </mgrwgt>
  </event>
  <event>
  6     66 0.38225901E-03 0.17038404E+02 0.75467711E-02 0.11884160E+00
       21 -1    0    0  501  502 0.00000000E+00 0.00000000E+00 0.88722613E+02 0.88725783E+02 0.75000000E+00 0.0000E+00 0.9000E+01
        2 -1    0    0  502    0 -.00000000E+00 -.00000000E+00 -.36315116E+03 0.36315130E+03 0.32000000E+00 0.0000E+00 0.9000E+01
       25  1    1    2    0    0 0.24941472E+02 0.91171370E+02 -.74405253E+02 0.17348037E+03 0.12500000E+03 0.0000E+00 0.9000E+01
       23  1    1    2    0    0 -.53266365E+02 -.59620949E+02 -.19539431E+03 0.22996989E+03 0.91188000E+02 0.0000E+00 0.9000E+01
        2  1    1    2  503    0 0.16340786E+02 -.20158556E+02 -.13916433E+02 0.29447550E+02 0.32000000E+00 0.0000E+00 0.9000E+01
       21  1    1    2  501  503 0.11984107E+02 -.11391865E+02 0.92874550E+01 0.18979271E+02 0.75000000E+00 0.0000E+00 0.9000E+01
#aMCatNLO 2  0  0  5  1 0.11364275D+02 0.00000000D+00  -5  6  0 0.00000000D+00 0.00000000D+00 0.00000000D+00 0.00000000D+00 0.00000000D+00
  <mgrwgt>
 0.1696036988D+00    2    2    0
 0.179500606081310D+03 0.000000000000000D+00 0.000000000000000D+00 0.179500606081310D+03
 0.179500606081310D+03 -.000000000000000D+00 -.000000000000000D+00 -.179500606081310D+03
 0.161741430209501D+03 0.237759049212358D+02 0.924696672941806D+02 0.376743576175463D+02
 0.140575721679661D+03 -.542784993401832D+02 -.584935572422347D+02 -.712645104682882D+02
 0.566840602734575D+02 0.305025944189475D+02 -.339761100519460D+02 0.335901528507420D+02
 0.000000000000000D+00 0.000000000000000D+00 0.000000000000000D+00 0.000000000000000D+00
 0.179500606081310D+03 0.000000000000000D+00 0.000000000000000D+00 0.179500606081310D+03
 0.179500606081310D+03 -.000000000000000D+00 -.000000000000000D+00 -.179500606081310D+03
 0.161485591647680D+03 0.249328423599673D+02 0.911809823645754D+02 0.389484035190843D+02
 0.140104199557579D+03 -.532738521813109D+02 -.596126096731328D+02 -.701581700972337D+02
 0.259643139964880D+02 0.160627691472723D+02 -.198409316891089D+02 0.474030361240470D+01
 0.314471069608727D+02 0.122782406740713D+02 -.117274410023338D+02 0.264694629657447D+02
-.329328001387D-05 0.000000000000D+00 0.000000000000D+00 0.209261011718D-06 0.000000000000D+00  6 21 2 25 23 2 21 4 0.13649888D-01 0.55869663D-01 0.25679701D+05 0.25679701D+05 0.25679701D+05 0.12220506D+01  1  2 13  3  6  5        2 -.377699759464D-01 0.100000000000D+01
0.180815465588D-04 0.000000000000D+00 0.000000000000D+00 0.208903850500D-06 0.228199444516D-07  6 21 2 25 23 2 21 4 0.13649888D-01 0.55869663D-01 0.25679701D+05 0.25679701D+05 0.25679701D+05 0.12220506D+01  1  2  1  3  6  5        2 0.207373674794D+00 0.100000000000D+01
  </mgrwgt>
  </event>
  <event>
  5     66 0.38225901E-03 0.30901789E+02 0.75467711E-02 0.12165864E+00
       21 -1    0    0  501  502 0.00000000E+00 0.00000000E+00 0.11479945E+04 0.11479948E+04 0.75000000E+00 0.0000E+00 0.9000E+01
        2 -1    0    0  502    0 0.00000000E+00 0.00000000E+00 -.21060107E+02 0.21062538E+02 0.32000000E+00 0.0000E+00 0.9000E+01
       25  1    1    2    0    0 0.40423355E+02 -.33873506E+02 0.82768344E+03 0.83872901E+03 0.12500000E+03 0.0000E+00 0.9000E+01
       23  1    1    2    0    0 -.19064476E+01 0.41548832E+02 0.20375491E+03 0.22707103E+03 0.91188000E+02 0.0000E+00 0.9000E+01
        2  1    1    2  501    0 -.38516907E+02 -.76753263E+01 0.95496084E+02 0.10325729E+03 0.32000000E+00 0.0000E+00 0.9000E+01
#aMCatNLO 1  0  0  5  1 0.90451944D+00 0.00000000D+00  -5  6  0 0.00000000D+00 0.00000000D+00 0.00000000D+00 0.00000000D+00 0.00000000D+00
  <mgrwgt>
 0.3344954604D-02    8    2    0
 0.155494217432780D+03 0.000000000000000D+00 0.000000000000000D+00 0.155494217432780D+03
 0.155494217432780D+03 -.000000000000000D+00 -.000000000000000D+00 -.155494217432780D+03
 0.153630736357775D+03 0.404239040478695D+02 -.338733966541448D+02 0.720826201970466D+02
 0.115247417249177D+03 -.190603543835277D+01 0.415489145435455D+02 -.568926231401476D+02
 0.421102812586084D+02 -.385178686095168D+02 -.767551788940069D+01 -.151899970568990D+02
 0.000000000000000D+00 0.000000000000000D+00 -.000000000000000D+00 0.000000000000000D+00
 0.155494217432780D+03 0.000000000000000D+00 0.000000000000000D+00 0.155494217432780D+03
 0.155494217432780D+03 -.000000000000000D+00 -.000000000000000D+00 -.155494217432780D+03
 0.153568171910566D+03 0.402689261025329D+02 -.339042793596224D+02 0.720215027308282D+02
 0.115263694351206D+03 -.202232536481911D+01 0.415257412620745D+02 -.569384835084530D+02
 0.139554208752341D+01 -.106611146486277D+01 0.682424117239279D+00 -.587572452338645D+00
 0.407610265162641D+02 -.371804892728511D+02 -.830388601969141D+01 -.144954467700366D+02
0.161992155728D-04 0.000000000000D+00 0.000000000000D+00 0.132145559445D-06 0.000000000000D+00  6 21 2 25 23 2 21 2 0.17661475D+00 0.32402222D-02 0.18929833D+05 0.18929833D+05 0.18929833D+05 0.12364641D+01  1  2  2  3  6  5        2 0.163103509751D-01 0.100000000000D+01
-.737165966854D-06 0.854856091622D-06 -.327015490406D-07 0.132145559445D-06 0.000000000000D+00  6 21 2 25 23 2 21 4 0.17661475D+00 0.32402222D-02 0.18929833D+05 0.18929833D+05 0.18929833D+05 0.12364641D+01  1  2  3  3  6  5        2 -.113474323557D-02 0.100000000000D+01
0.174631304577D-05 0.000000000000D+00 0.000000000000D+00 0.132145559445D-06 0.000000000000D+00  6 21 2 25 23 2 21 4 0.17661475D+00 0.32402222D-02 0.18929833D+05 0.18929833D+05 0.18929833D+05 0.12364641D+01  1  2 15  3  6  5        2 0.268815572746D-02 0.100000000000D+01
0.261571819965D-10 0.000000000000D+00 0.000000000000D+00 0.132142461720D-06 0.000000000000D+00  6 21 2 25 23 2 21 4 0.17661475D+00 0.32402222D-02 0.18935534D+05 0.18935534D+05 0.18935534D+05 0.12364496D+01  1  2 12  3  6  5        2 0.402623833200D-07 0.100000000000D+01
-.366879926992D-04 0.000000000000D+00 0.000000000000D+00 0.132145559445D-06 0.000000000000D+00  6 21 2 25 23 2 21 4 0.17661475D+00 0.32402222D-02 0.18929833D+05 0.18929833D+05 0.18929833D+05 0.12364641D+01  1  2  4  3  6  5        2 -.564750048348D-01 0.100000000000D+01
-.644279708768D-05 0.000000000000D+00 0.000000000000D+00 0.132145559445D-06 0.000000000000D+00  6 21 2 25 23 2 21 4 0.17661475D+00 0.32402222D-02 0.18929833D+05 0.18929833D+05 0.18929833D+05 0.12364641D+01  1  2  5  3  6  5        2 -.991760436881D-02 0.100000000000D+01
0.205124307239D-04 0.000000000000D+00 -.000000000000D+00 0.132145559445D-06 0.000000000000D+00  6 21 2 25 23 2 21 4 0.17661475D+00 0.32402222D-02 0.18929833D+05 0.18929833D+05 0.18929833D+05 0.12364641D+01  1  2  6  3  6  5        2 0.315754430559D-01 0.100000000000D+01
0.131871669982D-04 0.000000000000D+00 0.000000000000D+00 0.132145559445D-06 0.386922183778D-07  6 21 2 25 23 2 21 4 0.17661475D+00 0.32402222D-02 0.18935534D+05 0.18935534D+05 0.18935534D+05 0.12364496D+01  1  2 11  3  6  5        2 0.202983170228D-01 0.100000000000D+01
  </mgrwgt>
  </event>
  <event>
  5     66 0.38225901E-03 0.13315941E+03 0.75467711E-02 0.10835012E+00
       21 -1    0    0  501  502 0.00000000E+00 0.00000000E+00 0.78196787E+02 0.78200384E+02 0.75000000E+00 0.0000E+00 0.9000E+01
        2 -1    0    0  502    0 -.00000000E+00 -.00000000E+00 -.15906231E+04 0.15906231E+04 0.32000000E+00 0.0000E+00 0.9000E+01
       25  1    1    2    0    0 -.92179811E+02 -.22256379E+03 -.59047390E+03 0.64985859E+03 0.12500000E+03 0.0000E+00 0.9000E+01
       23  1    1    2    0    0 0.14930141E+03 0.10227865E+03 -.83661062E+03 0.86080452E+03 0.91188000E+02 0.0000E+00 0.9000E+01
        2  1    1    2  501    0 -.57121602E+02 0.12028514E+03 -.85341794E+02 0.15816041E+03 0.32000000E+00 0.0000E+00 0.9000E+01
#aMCatNLO 1  0  0  5  1 0.51498450D+01 0.00000000D+00  -5  6  0 0.00000000D+00 0.00000000D+00 0.00000000D+00 0.00000000D+00 0.00000000D+00
  <mgrwgt>
 0.4476546899D-01    8    2    0
 0.352682072676136D+03 0.000000000000000D+00 0.000000000000000D+00 0.352682072676136D+03
 0.352682072676136D+03 -.000000000000000D+00 -.000000000000000D+00 -.352682072676136D+03
 0.271421596658608D+03 -.921797805748132D+02 -.222563855756676D+03 -.359183749760781D+01
 0.242738345257661D+03 0.149301441013498D+03 0.102278595263102D+03 -.133621935237920D+03
 0.191204203436002D+03 -.571216604386848D+02 0.120285260493573D+03 0.137213772735528D+03
 0.000000000000000D+00 0.000000000000000D+00 0.000000000000000D+00 0.000000000000000D+00
 0.352682072676136D+03 0.000000000000000D+00 0.000000000000000D+00 0.352682072676136D+03
 0.352682072676136D+03 -.000000000000000D+00 -.000000000000000D+00 -.352682072676136D+03
 0.271363560586406D+03 -.922207030202180D+02 -.222477682368722D+03 -.349353637890031D+01
 0.242699940072886D+03 0.149264842146592D+03 0.102355664175417D+03 -.133534019925803D+03
 0.508419481499719D+02 -.146426659028971D+02 0.280614895442612D+02 0.397875461859345D+02
 0.140458696543008D+03 -.424014732234764D+02 0.920605286490435D+02 0.972400101187690D+02
0.361392443842D-05 0.000000000000D+00 0.000000000000D+00 0.448276082752D-07 0.000000000000D+00  6 21 2 25 23 2 21 2 0.12030554D-01 0.24471153D+00 0.92175202D+05 0.92175202D+05 0.92175202D+05 0.11668363D+01  1  2  2  3  6  5        2 0.435993246645D-02 0.100000000000D+01
-.560582066279D-07 0.190712032132D-06 -.729547222338D-08 0.448276082752D-07 0.000000000000D+00  6 21 2 25 23 2 21 4 0.12030554D-01 0.24471153D+00 0.92175202D+05 0.92175202D+05 0.92175202D+05 0.11668363D+01  1  2  3  3  6  5        2 -.920788298904D-04 0.100000000000D+01
0.437540615091D-06 0.000000000000D+00 0.000000000000D+00 0.448276082752D-07 0.000000000000D+00  6 21 2 25 23 2 21 4 0.12030554D-01 0.24471153D+00 0.92175202D+05 0.92175202D+05 0.92175202D+05 0.11668363D+01  1  2 15  3  6  5        2 0.718685635710D-03 0.100000000000D+01
0.246642476380D-04 0.000000000000D+00 0.000000000000D+00 0.448296067237D-07 0.000000000000D+00  6 21 2 25 23 2 21 4 0.12030554D-01 0.24471153D+00 0.92115649D+05 0.92115649D+05 0.92115649D+05 0.11668624D+01  1  2 12  3  6  5        2 0.405171023524D-01 0.100000000000D+01
-.734920916739D-04 0.000000000000D+00 0.000000000000D+00 0.448276082752D-07 0.000000000000D+00  6 21 2 25 23 2 21 4 0.12030554D-01 0.24471153D+00 0.92175202D+05 0.92175202D+05 0.92175202D+05 0.11668363D+01  1  2  4  3  6  5        2 -.120714989198D+00 0.100000000000D+01
-.538014266844D-04 0.000000000000D+00 0.000000000000D+00 0.448276082752D-07 0.000000000000D+00  6 21 2 25 23 2 21 4 0.12030554D-01 0.24471153D+00 0.92175202D+05 0.92175202D+05 0.92175202D+05 0.11668363D+01  1  2  5  3  6  5        2 -.883719389816D-01 0.100000000000D+01
0.100522368003D-03 0.000000000000D+00 -.000000000000D+00 0.448276082752D-07 0.000000000000D+00  6 21 2 25 23 2 21 4 0.12030554D-01 0.24471153D+00 0.92175202D+05 0.92175202D+05 0.92175202D+05 0.11668363D+01  1  2  6  3  6  5        2 0.165113773349D+00 0.100000000000D+01
0.263187208751D-04 0.000000000000D+00 0.000000000000D+00 0.448276082752D-07 0.157434873134D-08  6 21 2 25 23 2 21 4 0.12030554D-01 0.24471153D+00 0.92115649D+05 0.92115649D+05 0.92115649D+05 0.11668624D+01  1  2 11  3  6  5        2 0.432349821949D-01 0.100000000000D+01
  </mgrwgt>
  </event>
  <event>
  5     66 0.38225901E-03 0.25570380E+02 0.75467711E-02 0.12164853E+00
       21 -1    0    0  501  502 0.00000000E+00 0.00000000E+00 0.15290696E+02 0.15309078E+02 0.75000000E+00 0.0000E+00 0.9000E+01
        2 -1    0    0  502    0 0.00000000E+00 0.00000000E+00 -.18801070E+04 0.18801071E+04 0.32000000E+00 0.0000E+00 0.9000E+01
       25  1    1    2    0    0 -.43860808E+02 0.15020475E+02 -.93243231E+03 0.94191528E+03 0.12500000E+03 0.0000E+00 0.9000E+01
       23  1    1    2    0    0 0.43209741E+02 -.40582423E+02 -.91747647E+03 0.92390061E+03 0.91188000E+02 0.0000E+00 0.9000E+01
        2  1    1    2  501    0 0.65106660E+00 0.25561948E+02 -.14907563E+02 0.29600252E+02 0.32000000E+00 0.0000E+00 0.9000E+01
#aMCatNLO 1  0  0  1  2 0.73032268D+01 0.00000000D+00  -5  6  0 0.00000000D+00 0.00000000D+00 0.00000000D+00 0.00000000D+00 0.00000000D+00
  <mgrwgt>
 0.1039632838D+00   32    2    0
 0.169604221146096D+03 0.000000000000000D+00 0.000000000000000D+00 0.169604221146096D+03
 0.169604221146096D+03 0.000000000000000D+00 0.000000000000000D+00 -.169604221146096D+03
 0.137102829280609D+03 -.438608094406686D+02 0.150203994365929D+02 -.319812881654647D+02
 0.118661709471847D+03 0.432097392306327D+02 -.405824890531455D+02 -.474481819320093D+02
 0.834439035397350D+02 0.651070210035982D+00 0.255620896165526D+02 0.794294700974741D+02
 0.000000000000000D+00 -.000000000000000D+00 -.000000000000000D+00 0.000000000000000D+00
 0.177578386426851D+03 0.000000000000000D+00 0.000000000000000D+00 0.177578386426851D+03
 0.171323994867664D+03 0.000000000000000D+00 0.000000000000000D+00 -.171323994867664D+03
 0.136256030293658D+03 -.409581899573074D+02 0.155025699187250D+02 -.319812881654647D+02
 0.119463766150590D+03 0.457382383841001D+02 -.401624658076300D+02 -.474481819320093D+02
 0.835672567181262D+02 0.242445281946822D+01 0.258566761969488D+02 0.794294700974741D+02
 0.961532813214007D+01 -.720450124626089D+01 -.119678030804372D+01 0.625439155918689D+01
0.587591564157D-06 0.000000000000D+00 0.000000000000D+00 0.186416787898D-05 0.000000000000D+00  6 21 2 25 23 2 21 2 0.23538309D-02 0.28924865D+00 0.17909590D+05 0.17909590D+05 0.17909590D+05 0.12391395D+01  1  2  2  1  6  1       21 0.952838006608D-02 0.100000000000D+01
0.881823705715D-07 0.310080587389D-07 -.118617807540D-08 0.186416787898D-05 0.000000000000D+00  6 21 2 25 23 2 21 4 0.23538309D-02 0.28924865D+00 0.17909590D+05 0.17909590D+05 0.17909590D+05 0.12391395D+01  1  2  3  1  6  1       21 0.219566295772D-02 0.100000000000D+01
0.589225759661D-07 0.000000000000D+00 0.000000000000D+00 0.186416787898D-05 0.000000000000D+00  6 21 2 25 23 2 21 4 0.23538309D-02 0.28924865D+00 0.17909590D+05 0.17909590D+05 0.17909590D+05 0.12391395D+01  1  2 15  1  6  1       21 0.146711997629D-02 0.100000000000D+01
0.282454228497D-05 0.000000000000D+00 0.000000000000D+00 0.185592897709D-05 0.000000000000D+00  6 21 2 25 23 2 21 4 0.24760777D-02 0.28924865D+00 0.18955768D+05 0.18955768D+05 0.18955768D+05 0.12363982D+01  1  2 12  1  6  1       21 0.641707366478D-01 0.100000000000D+01
-.996223794100D-06 0.000000000000D+00 0.000000000000D+00 0.186416787898D-05 0.000000000000D+00  6 21 2 25 23 2 21 4 0.23538309D-02 0.28924865D+00 0.17909590D+05 0.17909590D+05 0.17909590D+05 0.12391395D+01  1  2  4  1  6  1       21 -.248050904974D-01 0.100000000000D+01
-.238073987242D-04 0.000000000000D+00 -.324090521867D-05 0.186416787898D-05 0.000000000000D+00  6 21 2 25 23 2 21 4 0.24920674D-02 0.28924865D+00 0.17909590D+05 0.17909590D+05 0.17909590D+05 0.12391395D+01  1  2  5  1  6  1       21 -.540222267612D+00 0.100000000000D+01
0.238097096727D-04 0.000000000000D+00 0.321989217635D-05 0.186416787898D-05 0.000000000000D+00  6 21 2 25 23 2 21 4 0.23538309D-02 0.28924865D+00 0.17909590D+05 0.17909590D+05 0.17909590D+05 0.12391395D+01  1  2  6  1  6  1       21 0.592840691667D+00 0.100000000000D+01
0.314440784674D-07 0.000000000000D+00 0.000000000000D+00 0.186416787898D-05 0.306497931630D-06  6 21 2 25 23 2 21 4 0.24644993D-02 0.29218161D+00 0.18955768D+05 0.18955768D+05 0.18955768D+05 0.12363982D+01  1  2 11  1  6  1       21 0.703888731429D-03 0.100000000000D+01
0.580510163119D-07 0.000000000000D+00 0.000000000000D+00 0.185592897709D-05 0.000000000000D+00  6 -1 2 25 23 2 -1 4 0.24760777D-02 0.28924865D+00 0.18955768D+05 0.18955768D+05 0.18955768D+05 0.12363982D+01  1  2 12  4  6  1       21 0.659524111197D-04 0.100000000000D+01
0.580510163119D-07 0.000000000000D+00 0.000000000000D+00 0.185592897709D-05 0.000000000000D+00  6 -3 2 25 23 2 -3 4 0.24760777D-02 0.28924865D+00 0.18955768D+05 0.18955768D+05 0.18955768D+05 0.12363982D+01  1  2 12  4  6  1       21 0.500671067985D-04 0.100000000000D+01
-.299873438472D-06 0.000000000000D+00 -.446267519516D-07 0.186416787898D-05 0.000000000000D+00  6 -1 2 25 23 2 -1 4 0.24920674D-02 0.28924865D+00 0.17909590D+05 0.17909590D+05 0.17909590D+05 0.12391395D+01  1  2  5  4  6  1       21 -.340385410163D-03 0.100000000000D+01
-.299873438472D-06 0.000000000000D+00 -.446267519516D-07 0.186416787898D-05 0.000000000000D+00  6 -3 2 25 23 2 -3 4 0.24920674D-02 0.28924865D+00 0.17909590D+05 0.17909590D+05 0.17909590D+05 0.12391395D+01  1  2  5  4  6  1       21 -.257949714827D-03 0.100000000000D+01
0.163148353132D-08 0.000000000000D+00 0.000000000000D+00 0.186416787898D-05 0.397483920865D-08  6 -1 2 25 23 2 -1 4 0.24644993D-02 0.29218161D+00 0.18955768D+05 0.18955768D+05 0.18955768D+05 0.12363982D+01  1  2 11  4  6  1       21 0.182479521504D-05 0.100000000000D+01
0.163148353132D-08 0.000000000000D+00 0.000000000000D+00 0.186416787898D-05 0.397483920865D-08  6 -3 2 25 23 2 -3 4 0.24644993D-02 0.29218161D+00 0.18955768D+05 0.18955768D+05 0.18955768D+05 0.12363982D+01  1  2 11  4  6  1       21 0.138582581604D-05 0.100000000000D+01
0.580510163119D-07 0.000000000000D+00 0.000000000000D+00 0.185592897709D-05 0.000000000000D+00  6 1 2 25 23 2 1 4 0.24760777D-02 0.28924865D+00 0.18955768D+05 0.18955768D+05 0.18955768D+05 0.12363982D+01  1  2 12  5  6  1       21 0.701144992872D-04 0.100000000000D+01
0.580510163119D-07 0.000000000000D+00 0.000000000000D+00 0.185592897709D-05 0.000000000000D+00  6 3 2 25 23 2 3 4 0.24760777D-02 0.28924865D+00 0.18955768D+05 0.18955768D+05 0.18955768D+05 0.12363982D+01  1  2 12  5  6  1       21 0.500638063609D-04 0.100000000000D+01
-.299873438472D-06 0.000000000000D+00 -.446267519516D-07 0.186416787898D-05 0.000000000000D+00  6 1 2 25 23 2 1 4 0.24920674D-02 0.28924865D+00 0.17909590D+05 0.17909590D+05 0.17909590D+05 0.12391395D+01  1  2  5  5  6  1       21 -.362030301702D-03 0.100000000000D+01
-.299873438472D-06 0.000000000000D+00 -.446267519516D-07 0.186416787898D-05 0.000000000000D+00  6 3 2 25 23 2 3 4 0.24920674D-02 0.28924865D+00 0.17909590D+05 0.17909590D+05 0.17909590D+05 0.12391395D+01  1  2  5  5  6  1       21 -.257932559892D-03 0.100000000000D+01
0.164042080916D-08 0.000000000000D+00 0.000000000000D+00 0.186416787898D-05 0.399661340478D-08  6 1 2 25 23 2 1 4 0.24644993D-02 0.29218161D+00 0.18955768D+05 0.18955768D+05 0.18955768D+05 0.12363982D+01  1  2 11  5  6  1       21 0.195004162782D-05 0.100000000000D+01
0.164042080916D-08 0.000000000000D+00 0.000000000000D+00 0.186416787898D-05 0.399661340478D-08  6 3 2 25 23 2 3 4 0.24644993D-02 0.29218161D+00 0.18955768D+05 0.18955768D+05 0.18955768D+05 0.12363982D+01  1  2 11  5  6  1       21 0.139332580059D-05 0.100000000000D+01
0.580510163119D-07 0.000000000000D+00 0.000000000000D+00 0.185592897709D-05 0.000000000000D+00  6 -2 2 25 23 2 -2 4 0.24760777D-02 0.28924865D+00 0.18955768D+05 0.18955768D+05 0.18955768D+05 0.12363982D+01  1  2 12  6  6  1       21 0.652051410317D-04 0.100000000000D+01
-.299873438472D-06 0.000000000000D+00 -.446267519516D-07 0.186416787898D-05 0.000000000000D+00  6 -2 2 25 23 2 -2 4 0.24920674D-02 0.28924865D+00 0.17909590D+05 0.17909590D+05 0.17909590D+05 0.12391395D+01  1  2  5  6  6  1       21 -.336498837644D-03 0.100000000000D+01
0.477756345565D-08 0.000000000000D+00 0.000000000000D+00 0.186416787898D-05 0.369173883730D-07  6 -2 2 25 23 2 -2 4 0.24644993D-02 0.29218161D+00 0.18955768D+05 0.18955768D+05 0.18955768D+05 0.12363982D+01  1  2 11  6  6  1       21 0.528338346564D-05 0.100000000000D+01
0.580510163119D-07 0.000000000000D+00 0.000000000000D+00 0.185592897709D-05 0.000000000000D+00  6 2 2 25 23 2 2 4 0.24760777D-02 0.28924865D+00 0.18955768D+05 0.18955768D+05 0.18955768D+05 0.12363982D+01  1  2 12  7  6  1       21 0.729595250266D-04 0.100000000000D+01
-.299873438472D-06 0.000000000000D+00 -.446267519516D-07 0.186416787898D-05 0.000000000000D+00  6 2 2 25 23 2 2 4 0.24920674D-02 0.28924865D+00 0.17909590D+05 0.17909590D+05 0.17909590D+05 0.12391395D+01  1  2  5  7  6  1       21 -.376821343080D-03 0.100000000000D+01
0.241915684294D-08 0.000000000000D+00 0.000000000000D+00 0.186416787898D-05 0.539965300297D-08  6 2 2 25 23 2 2 4 0.24644993D-02 0.29218161D+00 0.18955768D+05 0.18955768D+05 0.18955768D+05 0.12363982D+01  1  2 11  7  6  1       21 0.299195440140D-05 0.100000000000D+01
0.580510163119D-07 0.000000000000D+00 0.000000000000D+00 0.185592897709D-05 0.000000000000D+00  6 -4 2 25 23 2 -4 4 0.24760777D-02 0.28924865D+00 0.18955768D+05 0.18955768D+05 0.18955768D+05 0.12363982D+01  1  2 12  8  6  1       21 0.453091645888D-04 0.100000000000D+01
-.299873438472D-06 0.000000000000D+00 -.446267519516D-07 0.186416787898D-05 0.000000000000D+00  6 -4 2 25 23 2 -4 4 0.24920674D-02 0.28924865D+00 0.17909590D+05 0.17909590D+05 0.17909590D+05 0.12391395D+01  1  2  5  8  6  1       21 -.233278063876D-03 0.100000000000D+01
0.164547928534D-08 0.000000000000D+00 0.000000000000D+00 0.186416787898D-05 0.400893754357D-08  6 -4 2 25 23 2 -4 4 0.24644993D-02 0.29218161D+00 0.18955768D+05 0.18955768D+05 0.18955768D+05 0.12363982D+01  1  2 11  8  6  1       21 0.126500199468D-05 0.100000000000D+01
0.580510163119D-07 0.000000000000D+00 0.000000000000D+00 0.185592897709D-05 0.000000000000D+00  6 4 2 25 23 2 4 4 0.24760777D-02 0.28924865D+00 0.18955768D+05 0.18955768D+05 0.18955768D+05 0.12363982D+01  1  2 12  9  6  1       21 0.453091645888D-04 0.100000000000D+01
-.299873438472D-06 0.000000000000D+00 -.446267519516D-07 0.186416787898D-05 0.000000000000D+00  6 4 2 25 23 2 4 4 0.24920674D-02 0.28924865D+00 0.17909590D+05 0.17909590D+05 0.17909590D+05 0.12391395D+01  1  2  5  9  6  1       21 -.233278063876D-03 0.100000000000D+01
0.164030565575D-08 0.000000000000D+00 0.000000000000D+00 0.186416787898D-05 0.399633285259D-08  6 4 2 25 23 2 4 4 0.24644993D-02 0.29218161D+00 0.18955768D+05 0.18955768D+05 0.18955768D+05 0.12363982D+01  1  2 11  9  6  1       21 0.126102464182D-05 0.100000000000D+01
  </mgrwgt>
  </event>
  <event>
  5     66 -.38225901E-03 0.24205803E+02 0.75467711E-02 0.11784381E+00
       21 -1    0    0  501  502 0.00000000E+00 0.00000000E+00 0.49948425E+02 0.49954055E+02 0.75000000E+00 0.0000E+00 0.9000E+01
        2 -1    0    0  502    0 0.00000000E+00 0.00000000E+00 -.59769144E+03 0.59769153E+03 0.32000000E+00 0.0000E+00 0.9000E+01
       25  1    1    2    0    0 0.29590138E+01 0.41193482E+02 -.23791472E+03 0.27190820E+03 0.12500000E+03 0.0000E+00 0.9000E+01
       23  1    1    2    0    0 0.14382463E+02 -.24305945E+02 -.33043417E+03 0.34394713E+03 0.91188000E+02 0.0000E+00 0.9000E+01
        2  1    1    2  501    0 -.17341477E+02 -.16887537E+02 0.20605871E+02 0.31790251E+02 0.32000000E+00 0.0000E+00 0.9000E+01
#aMCatNLO 1  0  0  1  2 0.22652992D+01 0.00000000D+00  -5  6  0 0.00000000D+00 0.00000000D+00 0.00000000D+00 0.00000000D+00 0.00000000D+00
  <mgrwgt>
 -.7923968684D+00   12    2    0
 0.172787723043252D+03 0.000000000000000D+00 0.000000000000000D+00 0.172787723043252D+03
 0.172787723043252D+03 0.000000000000000D+00 0.000000000000000D+00 -.172787723043252D+03
 0.132486365559265D+03 0.295905380176653D+01 0.411935211835239D+02 -.148988211682653D+02
 0.120850216287741D+03 0.143824997370783D+02 -.243059096700364D+02 -.741072863436429D+02
 0.922388642394976D+02 -.173415535388448D+02 -.168876115134876D+02 0.890061075119083D+02
 0.000000000000000D+00 0.000000000000000D+00 -.000000000000000D+00 0.000000000000000D+00
 0.933682114399038D+03 0.000000000000000D+00 0.000000000000000D+00 0.933682114399038D+03
 0.178723956238940D+03 0.000000000000000D+00 0.000000000000000D+00 -.178723956238940D+03
 0.141709276803421D+03 -.172583363242247D+02 0.627430799950458D+02 -.148988211682653D+02
 0.117678890362839D+03 -.320507373420310D+01 -.555945196657174D+01 -.741072863436429D+02
 0.943081381345203D+02 -.310963072297918D+02 -.222652658838644D+01 0.890061075119083D+02
 0.758709765337197D+03 0.515597172882196D+02 -.549571014400876D+02 0.754958158160098D+03
0.123514652842D-05 0.000000000000D+00 0.000000000000D+00 0.246370823942D-05 0.000000000000D+00  6 21 2 25 23 2 21 2 0.76848128D-02 0.91952970D-01 0.15789582D+05 0.15789582D+05 0.15789582D+05 0.12452906D+01  1  2  2  1  6  1       21 0.156295358131D-01 0.100000000000D+01
0.204052031943D-06 0.651804730372D-07 -.249340497939D-08 0.246370823942D-05 0.000000000000D+00  6 21 2 25 23 2 21 4 0.76848128D-02 0.91952970D-01 0.15789582D+05 0.15789582D+05 0.15789582D+05 0.12452906D+01  1  2  3  1  6  1       21 0.400414656235D-02 0.100000000000D+01
0.118314834259D-06 0.000000000000D+00 0.000000000000D+00 0.246370823942D-05 0.000000000000D+00  6 21 2 25 23 2 21 4 0.76848128D-02 0.91952970D-01 0.15789582D+05 0.15789582D+05 0.15789582D+05 0.12452906D+01  1  2 15  1  6  1       21 0.232171143979D-02 0.100000000000D+01
-.705235120755D-03 0.000000000000D+00 -.995038259220D-05 0.246370823942D-05 0.000000000000D+00  6 21 2 25 23 2 21 4 0.42154552D-01 0.91952970D-01 0.15789582D+05 0.15789582D+05 0.15789582D+05 0.12452906D+01  1  2  5  1  6  1       21 -.602528651101D+00 0.100000000000D+01
-.304025118248D-03 0.000000000000D+00 -.416668684126D-05 0.246370823942D-05 0.000000000000D+00  6 -1 2 25 23 2 -1 4 0.42154552D-01 0.91952970D-01 0.15789582D+05 0.15789582D+05 0.15789582D+05 0.12452906D+01  1  2  5  4  6  1       21 -.243517146502D-01 0.100000000000D+01
-.304025118248D-03 0.000000000000D+00 -.416668684126D-05 0.246370823942D-05 0.000000000000D+00  6 -3 2 25 23 2 -3 4 0.42154552D-01 0.91952970D-01 0.15789582D+05 0.15789582D+05 0.15789582D+05 0.12452906D+01  1  2  5  4  6  1       21 -.127520223893D-01 0.100000000000D+01
-.304025118248D-03 0.000000000000D+00 -.416668684126D-05 0.246370823942D-05 0.000000000000D+00  6 1 2 25 23 2 1 4 0.42154552D-01 0.91952970D-01 0.15789582D+05 0.15789582D+05 0.15789582D+05 0.12452906D+01  1  2  5  5  6  1       21 -.504262192666D-01 0.100000000000D+01
-.304025118248D-03 0.000000000000D+00 -.416668684126D-05 0.246370823942D-05 0.000000000000D+00  6 3 2 25 23 2 3 4 0.42154552D-01 0.91952970D-01 0.15789582D+05 0.15789582D+05 0.15789582D+05 0.12452906D+01  1  2  5  5  6  1       21 -.127549827149D-01 0.100000000000D+01
-.304025118248D-03 0.000000000000D+00 -.416668684126D-05 0.246370823942D-05 0.000000000000D+00  6 -2 2 25 23 2 -2 4 0.42154552D-01 0.91952970D-01 0.15789582D+05 0.15789582D+05 0.15789582D+05 0.12452906D+01  1  2  5  6  6  1       21 -.204237494385D-01 0.100000000000D+01
-.304025118248D-03 0.000000000000D+00 -.416668684126D-05 0.246370823942D-05 0.000000000000D+00  6 2 2 25 23 2 2 4 0.42154552D-01 0.91952970D-01 0.15789582D+05 0.15789582D+05 0.15789582D+05 0.12452906D+01  1  2  5  7  6  1       21 -.700742114143D-01 0.100000000000D+01
-.304025118248D-03 0.000000000000D+00 -.416668684126D-05 0.246370823942D-05 0.000000000000D+00  6 -4 2 25 23 2 -4 4 0.42154552D-01 0.91952970D-01 0.15789582D+05 0.15789582D+05 0.15789582D+05 0.12452906D+01  1  2  5  8  6  1       21 -.105203556180D-01 0.100000000000D+01
-.304025118248D-03 0.000000000000D+00 -.416668684126D-05 0.246370823942D-05 0.000000000000D+00  6 4 2 25 23 2 4 4 0.42154552D-01 0.91952970D-01 0.15789582D+05 0.15789582D+05 0.15789582D+05 0.12452906D+01  1  2  5  9  6  1       21 -.105203556180D-01 0.100000000000D+01
  </mgrwgt>
  </event>
  <event>
  5     66 0.38225901E-03 0.71142883E+02 0.75467711E-02 0.11328435E+00
       21 -1    0    0  501  502 0.00000000E+00 0.00000000E+00 0.27684974E+03 0.27685076E+03 0.75000000E+00 0.0000E+00 0.9000E+01
        2 -1    0    0  502    0 0.00000000E+00 0.00000000E+00 -.50688983E+03 0.50688993E+03 0.32000000E+00 0.0000E+00 0.9000E+01
       25  1    1    2    0    0 0.75708785E+02 -.15471130E+03 -.36033722E+03 0.41849172E+03 0.12500000E+03 0.0000E+00 0.9000E+01
       23  1    1    2    0    0 -.82166292E+02 0.83862119E+02 -.61351814E+02 0.16082118E+03 0.91188000E+02 0.0000E+00 0.9000E+01
        2  1    1    2  501    0 0.64575070E+01 0.70849178E+02 0.19164894E+03 0.20442780E+03 0.32000000E+00 0.0000E+00 0.9000E+01
#aMCatNLO 1  0  0  1  5 0.92673700D+01 0.00000000D+00  -5  6  0 0.00000000D+00 0.00000000D+00 0.00000000D+00 0.00000000D+00 0.00000000D+00
  <mgrwgt>
 0.2454810919D+00   41    2    0
 0.374610141439207D+03 0.000000000000000D+00 0.000000000000000D+00 0.374610141439207D+03
 0.374610141439207D+03 0.000000000000000D+00 0.000000000000000D+00 -.374610141439207D+03
 0.327136144322193D+03 0.757087831431916D+02 -.154711318384123D+03 -.248446463128004D+03
 0.149393610528176D+03 -.821662930084158D+02 0.838621095161752D+02 -.148002163293835D+02
 0.272690528028045D+03 0.645750986522428D+01 0.708492088679478D+02 0.263246679457387D+03
 0.000000000000000D+00 0.000000000000000D+00 -.000000000000000D+00 0.000000000000000D+00
 0.671200561951155D+03 0.000000000000000D+00 0.000000000000000D+00 0.671200561951155D+03
 0.374711198066406D+03 0.000000000000000D+00 0.000000000000000D+00 -.374711198066406D+03
 0.325043839989469D+03 0.735443029106240D+02 -.151307925713345D+03 -.248446463128004D+03
 0.150825753099743D+03 -.831626726791175D+02 0.854288003168369D+02 -.148002163293835D+02
 0.273408003281033D+03 0.464509687419965D+01 0.736990168713954D+02 0.263246679457387D+03
 0.296634163647316D+03 0.497327289429387D+01 -.781989147488673D+01 0.296489363884749D+03
0.391302104878D-05 0.000000000000D+00 0.000000000000D+00 0.385363271580D-06 0.000000000000D+00  6 21 2 25 23 2 21 2 0.42592354D-01 0.77983137D-01 0.46790385D+05 0.46790385D+05 0.46790385D+05 0.11951459D+01  1  2  2  1  6  1       21 0.225664635417D-02 0.100000000000D+01
0.418448903102D-06 0.206495793896D-06 -.789926210616D-08 0.385363271580D-06 0.000000000000D+00  6 21 2 25 23 2 21 4 0.42592354D-01 0.77983137D-01 0.46790385D+05 0.46790385D+05 0.46790385D+05 0.11951459D+01  1  2  3  1  6  1       21 0.344695494335D-03 0.100000000000D+01
0.349357207813D-06 0.000000000000D+00 0.000000000000D+00 0.385363271580D-06 0.000000000000D+00  6 21 2 25 23 2 21 4 0.42592354D-01 0.77983137D-01 0.46790385D+05 0.46790385D+05 0.46790385D+05 0.11951459D+01  1  2 15  1  6  1       21 0.287781505828D-03 0.100000000000D+01
0.260153781700D-02 0.000000000000D+00 0.000000000000D+00 0.384068109574D-06 0.000000000000D+00  6 21 2 25 23 2 21 4 0.76315573D-01 0.77983137D-01 0.49018002D+05 0.49018002D+05 0.49018002D+05 0.11931358D+01  1  2 12  1  6  1       21 0.610130777472D+00 0.100000000000D+01
0.257241940733D-02 0.000000000000D+00 0.000000000000D+00 0.384068109574D-06 0.000000000000D+00  6 21 2 25 23 2 21 4 0.76888832D-01 0.77983137D-01 0.49018002D+05 0.49018002D+05 0.49018002D+05 0.11931358D+01  1  2 12  1  6  1       21 0.593228590272D+00 0.100000000000D+01
-.262275796819D-02 0.000000000000D+00 0.000000000000D+00 0.385363271580D-06 0.000000000000D+00  6 21 2 25 23 2 21 4 0.42592354D-01 0.77983137D-01 0.46790385D+05 0.46790385D+05 0.46790385D+05 0.11951459D+01  1  2  4  1  6  1       21 -.216048565946D+01 0.100000000000D+01
-.519983174001D-02 0.000000000000D+00 -.470706198419D-05 0.385363271580D-06 0.000000000000D+00  6 21 2 25 23 2 21 4 0.76320879D-01 0.77983137D-01 0.46790385D+05 0.46790385D+05 0.46790385D+05 0.11951459D+01  1  2  5  1  6  1       21 -.123053992221D+01 0.100000000000D+01
0.295412522186D-02 0.000000000000D+00 0.258289919514D-05 0.385363271580D-06 0.000000000000D+00  6 21 2 25 23 2 21 4 0.42592354D-01 0.77983137D-01 0.46790385D+05 0.46790385D+05 0.46790385D+05 0.11951459D+01  1  2  6  1  6  1       21 0.243344801750D+01 0.100000000000D+01
0.239966948986D-06 0.000000000000D+00 0.000000000000D+00 0.385363271580D-06 0.127980876390D-06  6 21 2 25 23 2 21 4 0.76314037D-01 0.78004174D-01 0.49018002D+05 0.49018002D+05 0.49018002D+05 0.11931358D+01  1  2 11  1  6  1       21 0.562642632674D-04 0.100000000000D+01
0.516488059848D-03 0.000000000000D+00 0.000000000000D+00 0.384068109574D-06 0.000000000000D+00  6 -1 2 25 23 2 -1 4 0.76315573D-01 0.77983137D-01 0.49018002D+05 0.49018002D+05 0.49018002D+05 0.11931358D+01  1  2 12  4  6  1       21 0.134053036409D-01 0.100000000000D+01
0.516488059848D-03 0.000000000000D+00 0.000000000000D+00 0.384068109574D-06 0.000000000000D+00  6 -3 2 25 23 2 -3 4 0.76315573D-01 0.77983137D-01 0.49018002D+05 0.49018002D+05 0.49018002D+05 0.11931358D+01  1  2 12  4  6  1       21 0.655916613033D-02 0.100000000000D+01
0.517859785494D-03 0.000000000000D+00 0.000000000000D+00 0.384068109574D-06 0.000000000000D+00  6 -1 2 25 23 2 -1 4 0.76888832D-01 0.77983137D-01 0.49018002D+05 0.49018002D+05 0.49018002D+05 0.11931358D+01  1  2 12  4  6  1       21 0.132367980743D-01 0.100000000000D+01
0.517859785494D-03 0.000000000000D+00 0.000000000000D+00 0.384068109574D-06 0.000000000000D+00  6 -3 2 25 23 2 -3 4 0.76888832D-01 0.77983137D-01 0.49018002D+05 0.49018002D+05 0.49018002D+05 0.11931358D+01  1  2 12  4  6  1       21 0.647038424100D-02 0.100000000000D+01
-.103218419128D-02 0.000000000000D+00 -.973531958520D-06 0.385363271580D-06 0.000000000000D+00  6 -1 2 25 23 2 -1 4 0.76320879D-01 0.77983137D-01 0.46790385D+05 0.46790385D+05 0.46790385D+05 0.11951459D+01  1  2  5  4  6  1       21 -.269953374484D-01 0.100000000000D+01
-.103218419128D-02 0.000000000000D+00 -.973531958520D-06 0.385363271580D-06 0.000000000000D+00  6 -3 2 25 23 2 -3 4 0.76320879D-01 0.77983137D-01 0.46790385D+05 0.46790385D+05 0.46790385D+05 0.11951459D+01  1  2  5  4  6  1       21 -.131948583224D-01 0.100000000000D+01
0.523191848528D-07 0.000000000000D+00 0.000000000000D+00 0.385363271580D-06 0.277333670250D-07  6 -1 2 25 23 2 -1 4 0.76314037D-01 0.78004174D-01 0.49018002D+05 0.49018002D+05 0.49018002D+05 0.11931358D+01  1  2 11  4  6  1       21 0.135757539059D-05 0.100000000000D+01
0.523191848528D-07 0.000000000000D+00 0.000000000000D+00 0.385363271580D-06 0.277333670250D-07  6 -3 2 25 23 2 -3 4 0.76314037D-01 0.78004174D-01 0.49018002D+05 0.49018002D+05 0.49018002D+05 0.11931358D+01  1  2 11  4  6  1       21 0.664258438249D-06 0.100000000000D+01
0.516488059848D-03 0.000000000000D+00 0.000000000000D+00 0.384068109574D-06 0.000000000000D+00  6 1 2 25 23 2 1 4 0.76315573D-01 0.77983137D-01 0.49018002D+05 0.49018002D+05 0.49018002D+05 0.11931358D+01  1  2 12  5  6  1       21 0.403024333522D-01 0.100000000000D+01
0.516488059848D-03 0.000000000000D+00 0.000000000000D+00 0.384068109574D-06 0.000000000000D+00  6 3 2 25 23 2 3 4 0.76315573D-01 0.77983137D-01 0.49018002D+05 0.49018002D+05 0.49018002D+05 0.11931358D+01  1  2 12  5  6  1       21 0.656684074377D-02 0.100000000000D+01
0.517859785494D-03 0.000000000000D+00 0.000000000000D+00 0.384068109574D-06 0.000000000000D+00  6 1 2 25 23 2 1 4 0.76888832D-01 0.77983137D-01 0.49018002D+05 0.49018002D+05 0.49018002D+05 0.11931358D+01  1  2 12  5  6  1       21 0.400107576235D-01 0.100000000000D+01
0.517859785494D-03 0.000000000000D+00 0.000000000000D+00 0.384068109574D-06 0.000000000000D+00  6 3 2 25 23 2 3 4 0.76888832D-01 0.77983137D-01 0.49018002D+05 0.49018002D+05 0.49018002D+05 0.11931358D+01  1  2 12  5  6  1       21 0.647807211699D-02 0.100000000000D+01
-.103218419128D-02 0.000000000000D+00 -.973531958520D-06 0.385363271580D-06 0.000000000000D+00  6 1 2 25 23 2 1 4 0.76320879D-01 0.77983137D-01 0.46790385D+05 0.46790385D+05 0.46790385D+05 0.11951459D+01  1  2  5  5  6  1       21 -.811549647345D-01 0.100000000000D+01
-.103218419128D-02 0.000000000000D+00 -.973531958520D-06 0.385363271580D-06 0.000000000000D+00  6 3 2 25 23 2 3 4 0.76320879D-01 0.77983137D-01 0.46790385D+05 0.46790385D+05 0.46790385D+05 0.11951459D+01  1  2  5  5  6  1       21 -.132102902786D-01 0.100000000000D+01
0.522794626483D-07 0.000000000000D+00 0.000000000000D+00 0.385363271580D-06 0.277123110686D-07  6 1 2 25 23 2 1 4 0.76314037D-01 0.78004174D-01 0.49018002D+05 0.49018002D+05 0.49018002D+05 0.11931358D+01  1  2 11  5  6  1       21 0.407833064705D-05 0.100000000000D+01
0.522794626483D-07 0.000000000000D+00 0.000000000000D+00 0.385363271580D-06 0.277123110686D-07  6 3 2 25 23 2 3 4 0.76314037D-01 0.78004174D-01 0.49018002D+05 0.49018002D+05 0.49018002D+05 0.11931358D+01  1  2 11  5  6  1       21 0.664530714000D-06 0.100000000000D+01
0.516488059848D-03 0.000000000000D+00 0.000000000000D+00 0.384068109574D-06 0.000000000000D+00  6 -2 2 25 23 2 -2 4 0.76315573D-01 0.77983137D-01 0.49018002D+05 0.49018002D+05 0.49018002D+05 0.11931358D+01  1  2 12  6  6  1       21 0.103306861511D-01 0.100000000000D+01
0.517859785494D-03 0.000000000000D+00 0.000000000000D+00 0.384068109574D-06 0.000000000000D+00  6 -2 2 25 23 2 -2 4 0.76888832D-01 0.77983137D-01 0.49018002D+05 0.49018002D+05 0.49018002D+05 0.11931358D+01  1  2 12  6  6  1       21 0.101900976386D-01 0.100000000000D+01
-.103218419128D-02 0.000000000000D+00 -.973531958520D-06 0.385363271580D-06 0.000000000000D+00  6 -2 2 25 23 2 -2 4 0.76320879D-01 0.77983137D-01 0.46790385D+05 0.46790385D+05 0.46790385D+05 0.11951459D+01  1  2  5  6  6  1       21 -.207990516893D-01 0.100000000000D+01
0.530138953496D-07 0.000000000000D+00 0.000000000000D+00 0.385363271580D-06 0.282259857705D-07  6 -2 2 25 23 2 -2 4 0.76314037D-01 0.78004174D-01 0.49018002D+05 0.49018002D+05 0.49018002D+05 0.11931358D+01  1  2 11  6  6  1       21 0.106009905865D-05 0.100000000000D+01
0.516488059848D-03 0.000000000000D+00 0.000000000000D+00 0.384068109574D-06 0.000000000000D+00  6 2 2 25 23 2 2 4 0.76315573D-01 0.77983137D-01 0.49018002D+05 0.49018002D+05 0.49018002D+05 0.11931358D+01  1  2 12  7  6  1       21 0.629234161256D-01 0.100000000000D+01
0.517859785494D-03 0.000000000000D+00 0.000000000000D+00 0.384068109574D-06 0.000000000000D+00  6 2 2 25 23 2 2 4 0.76888832D-01 0.77983137D-01 0.49018002D+05 0.49018002D+05 0.49018002D+05 0.11931358D+01  1  2 12  7  6  1       21 0.625653566690D-01 0.100000000000D+01
-.103218419128D-02 0.000000000000D+00 -.973531958520D-06 0.385363271580D-06 0.000000000000D+00  6 2 2 25 23 2 2 4 0.76320879D-01 0.77983137D-01 0.46790385D+05 0.46790385D+05 0.46790385D+05 0.11951459D+01  1  2  5  7  6  1       21 -.126682954436D+00 0.100000000000D+01
0.511564967673D-07 0.000000000000D+00 0.000000000000D+00 0.385363271580D-06 0.135817124736D-07  6 2 2 25 23 2 2 4 0.76314037D-01 0.78004174D-01 0.49018002D+05 0.49018002D+05 0.49018002D+05 0.11931358D+01  1  2 11  7  6  1       21 0.623062081378D-05 0.100000000000D+01
0.516488059848D-03 0.000000000000D+00 0.000000000000D+00 0.384068109574D-06 0.000000000000D+00  6 -4 2 25 23 2 -4 4 0.76315573D-01 0.77983137D-01 0.49018002D+05 0.49018002D+05 0.49018002D+05 0.11931358D+01  1  2 12  8  6  1       21 0.534513366595D-02 0.100000000000D+01
0.517859785494D-03 0.000000000000D+00 0.000000000000D+00 0.384068109574D-06 0.000000000000D+00  6 -4 2 25 23 2 -4 4 0.76888832D-01 0.77983137D-01 0.49018002D+05 0.49018002D+05 0.49018002D+05 0.11931358D+01  1  2 12  8  6  1       21 0.527117122287D-02 0.100000000000D+01
-.103218419128D-02 0.000000000000D+00 -.973531958520D-06 0.385363271580D-06 0.000000000000D+00  6 -4 2 25 23 2 -4 4 0.76320879D-01 0.77983137D-01 0.46790385D+05 0.46790385D+05 0.46790385D+05 0.11951459D+01  1  2  5  8  6  1       21 -.107478529020D-01 0.100000000000D+01
0.524580724261D-07 0.000000000000D+00 0.000000000000D+00 0.385363271580D-06 0.278069885857D-07  6 -4 2 25 23 2 -4 4 0.76314037D-01 0.78004174D-01 0.49018002D+05 0.49018002D+05 0.49018002D+05 0.11931358D+01  1  2 11  8  6  1       21 0.542748630447D-06 0.100000000000D+01
0.516488059848D-03 0.000000000000D+00 0.000000000000D+00 0.384068109574D-06 0.000000000000D+00  6 4 2 25 23 2 4 4 0.76315573D-01 0.77983137D-01 0.49018002D+05 0.49018002D+05 0.49018002D+05 0.11931358D+01  1  2 12  9  6  1       21 0.534513366595D-02 0.100000000000D+01
0.517859785494D-03 0.000000000000D+00 0.000000000000D+00 0.384068109574D-06 0.000000000000D+00  6 4 2 25 23 2 4 4 0.76888832D-01 0.77983137D-01 0.49018002D+05 0.49018002D+05 0.49018002D+05 0.11931358D+01  1  2 12  9  6  1       21 0.527117122287D-02 0.100000000000D+01
-.103218419128D-02 0.000000000000D+00 -.973531958520D-06 0.385363271580D-06 0.000000000000D+00  6 4 2 25 23 2 4 4 0.76320879D-01 0.77983137D-01 0.46790385D+05 0.46790385D+05 0.46790385D+05 0.11951459D+01  1  2  5  9  6  1       21 -.107478529020D-01 0.100000000000D+01
0.524810668967D-07 0.000000000000D+00 0.000000000000D+00 0.385363271580D-06 0.278191775006D-07  6 4 2 25 23 2 4 4 0.76314037D-01 0.78004174D-01 0.49018002D+05 0.49018002D+05 0.49018002D+05 0.11931358D+01  1  2 11  9  6  1       21 0.542986538872D-06 0.100000000000D+01
  </mgrwgt>
  </event>
  <event>
  6     66 0.38225901E-03 0.35365466E+02 0.75467711E-02 0.11562773E+00
       21 -1    0    0  501  503 0.00000000E+00 0.00000000E+00 0.20311245E+03 0.20311384E+03 0.75000000E+00 0.0000E+00 0.9000E+01
        2 -1    0    0  502    0 0.00000000E+00 0.00000000E+00 -.24148300E+03 0.24148322E+03 0.32000000E+00 0.0000E+00 0.9000E+01
       25  1    1    2    0    0 0.12464923E+03 -.57212909E+02 -.71555582E+02 0.19888678E+03 0.12500000E+03 0.0000E+00 0.9000E+01
       23  1    1    2    0    0 -.61979333E+02 0.72861773E+02 -.10066518E+02 0.13254004E+03 0.91188000E+02 0.0000E+00 0.9000E+01
        2  1    1    2  501    0 -.16787347E+02 -.12935653E+02 -.23802769E+02 0.31871936E+02 0.32000000E+00 0.0000E+00 0.9000E+01
       21  1    1    2  502  503 -.45882553E+02 -.27132115E+01 0.67054317E+02 0.81298303E+02 0.75000000E+00 0.0000E+00 0.9000E+01
#aMCatNLO 2  0  0  1  1 0.45962704D+02 0.00000000D+00  -5  6  0 0.00000000D+00 0.00000000D+00 0.00000000D+00 0.00000000D+00 0.00000000D+00
  <mgrwgt>
 0.6868969280D-01    1    2    0
 0.172307144885269D+03 0.000000000000000D+00 0.000000000000000D+00 0.172307144885269D+03
 0.172307144885269D+03 0.000000000000000D+00 0.000000000000000D+00 -.172307144885269D+03
 0.171634355543557D+03 0.100938076671091D+03 -.586146700854343D+02 -.144629572207348D+02
 0.144324932550921D+03 -.805213802513505D+02 0.717656228698256D+02 0.296721672338098D+02
 0.286550016760593D+02 -.204166964197407D+02 -.131509527843913D+02 -.152092100130749D+02
 0.000000000000000D+00 -.000000000000000D+00 -.000000000000000D+00 0.000000000000000D+00
 0.273835558752188D+03 0.000000000000000D+00 0.000000000000000D+00 0.273835558752188D+03
 0.179114238269795D+03 0.000000000000000D+00 0.000000000000000D+00 -.179114238269795D+03
 0.186131792653328D+03 0.124649897936869D+03 -.572124990635862D+02 -.144629572207348D+02
 0.135447217275116D+03 -.619788008450772D+02 0.728621167756446D+02 0.296721672338098D+02
 0.260868912962491D+02 -.167885443755866D+02 -.129364062254345D+02 -.152092100130749D+02
 0.105283895797290D+03 -.458825527162048D+02 -.271321148662388D+01 0.947213204823929D+02
0.193109210469D-04 0.000000000000D+00 0.000000000000D+00 0.143568250792D-06 0.126739112204D-08  6 21 2 25 23 2 21 4 0.31247965D-01 0.37151084D-01 0.37033801D+05 0.37033801D+05 0.37033801D+05 0.12054132D+01  1  2  1  1  6  1       21 0.686896928004D-01 0.100000000000D+01
  </mgrwgt>
  </event>
  <event>
  5     66 0.38225901E-03 0.33285953E+02 0.75467711E-02 0.12222216E+00
       21 -1    0    0  501  502 0.00000000E+00 0.00000000E+00 0.12139726E+02 0.12162872E+02 0.75000000E+00 0.0000E+00 0.9000E+01
        2 -1    0    0  502    0 -.00000000E+00 -.00000000E+00 -.28412354E+04 0.28412354E+04 0.32000000E+00 0.0000E+00 0.9000E+01
       25  1    1    2    0    0 0.22256394E+02 -.32189327E+01 -.13016116E+04 0.13077933E+04 0.12500000E+03 0.0000E+00 0.9000E+01
       23  1    1    2    0    0 -.55295698E+02 0.72627886E+01 -.14959128E+04 0.14997269E+04 0.91188000E+02 0.0000E+00 0.9000E+01
        2  1    1    2  501    0 0.33039304E+02 -.40438559E+01 -.31571293E+02 0.45878070E+02 0.32000000E+00 0.0000E+00 0.9000E+01
#aMCatNLO 1  0  0  5  1 0.24500741D+02 0.00000000D+00  -5  6  0 0.00000000D+00 0.00000000D+00 0.00000000D+00 0.00000000D+00 0.00000000D+00
  <mgrwgt>
 0.1084504278D+00    4    2    0
 0.185808683391623D+03 0.000000000000000D+00 0.000000000000000D+00 0.185808683391623D+03
 0.185808683391623D+03 -.000000000000000D+00 -.000000000000000D+00 -.185808683391623D+03
 0.132586904277231D+03 0.222563458627719D+02 -.321892682916646D+01 -.380602254949284D+02
 0.127113878563522D+03 -.552957440694134D+02 0.726279423431159D+01 -.687918548025994D+02
 0.111916583942491D+03 0.330393982066414D+02 -.404386740514513D+01 0.106852080297528D+03
 0.000000000000000D+00 0.000000000000000D+00 0.000000000000000D+00 -.000000000000000D+00
 0.185808683391623D+03 0.000000000000000D+00 0.000000000000000D+00 0.185808683391623D+03
 0.185808683391623D+03 -.000000000000000D+00 -.000000000000000D+00 -.185808683391623D+03
 0.129236648478790D+03 0.305904577290788D+02 -.423898303951888D+01 -.111070351015214D+02
 0.112155330908407D+03 -.476795600519272D+02 0.633060902599540D+01 -.441605010137888D+02
 0.913787819038742D+02 0.469908433284179D+01 0.674985797057000D+01 0.910079106783898D+02
 0.388466054921743D+02 0.123900179900067D+02 -.884148395704652D+01 -.357403745630796D+02
0.117250909364D-04 0.000000000000D+00 0.000000000000D+00 0.181170736355D-05 0.000000000000D+00  6 21 2 25 23 2 21 2 0.18694320D-02 0.43711492D+00 0.17846737D+05 0.17846737D+05 0.17846737D+05 0.12393099D+01  1  2  2  3  6  5        2 0.857042463377D-01 0.100000000000D+01
0.146100573268D-05 0.618750047912D-06 -.236695804522D-07 0.181170736355D-05 0.000000000000D+00  6 21 2 25 23 2 21 4 0.18694320D-02 0.43711492D+00 0.17846737D+05 0.17846737D+05 0.17846737D+05 0.12393099D+01  1  2  3  3  6  5        2 0.164020392064D-01 0.100000000000D+01
0.112982569970D-05 0.000000000000D+00 0.000000000000D+00 0.181170736355D-05 0.000000000000D+00  6 21 2 25 23 2 21 4 0.18694320D-02 0.43711492D+00 0.17846737D+05 0.17846737D+05 0.17846737D+05 0.12393099D+01  1  2 15  3  6  5        2 0.126840333398D-01 0.100000000000D+01
-.564723509624D-06 0.000000000000D+00 0.000000000000D+00 0.181170736355D-05 0.000000000000D+00  6 21 2 25 23 2 21 4 0.18694320D-02 0.43711492D+00 0.17846737D+05 0.17846737D+05 0.17846737D+05 0.12393099D+01  1  2  4  3  6  5        2 -.633989103425D-02 0.100000000000D+01
  </mgrwgt>
  </event>
  <event>
  6     66 0.38225901E-03 0.60974326E+02 0.75467711E-02 0.11664019E+00
       21 -1    0    0  503  502 0.00000000E+00 0.00000000E+00 0.39056931E+03 0.39057003E+03 0.75000000E+00 0.0000E+00 0.9000E+01
        2 -1    0    0  502    0 0.00000000E+00 0.00000000E+00 -.13814004E+04 0.13814004E+04 0.32000000E+00 0.0000E+00 0.9000E+01
       25  1    1    2    0    0 0.58633973E+02 0.16591770E+02 -.62455928E+03 0.63985352E+03 0.12500000E+03 0.0000E+00 0.9000E+01
       23  1    1    2    0    0 -.10796516E+03 0.36285452E+02 -.70595647E+03 0.72087648E+03 0.91188000E+02 0.0000E+00 0.9000E+01
        2  1    1    2  501    0 0.11173729E+02 0.17454368E+01 -.31838499E+02 0.33788921E+02 0.32000000E+00 0.0000E+00 0.9000E+01
       21  1    1    2  503  501 0.38157461E+02 -.54622660E+02 0.37152317E+03 0.37745153E+03 0.75000000E+00 0.0000E+00 0.9000E+01
#aMCatNLO 2  0  0  1  5 0.58238000D+03 0.00000000D+00  -5  6  0 0.00000000D+00 0.00000000D+00 0.00000000D+00 0.00000000D+00 0.00000000D+00
  <mgrwgt>
 0.3787393431D-01    1    2    0
 0.145115719069243D+03 0.000000000000000D+00 0.000000000000000D+00 0.145115719069243D+03
 0.145115719069243D+03 0.000000000000000D+00 0.000000000000000D+00 -.145115719069243D+03
 0.147288037758075D+03 0.772156811483437D+02 -.100104080486391D+02 0.250925927741317D+01
 0.128903071437497D+03 -.901196014544467D+02 0.107373651362544D+02 -.799480491588104D+01
 0.140403289429132D+02 0.129039203061030D+02 -.726957087615319D+00 0.548554563846786D+01
 0.000000000000000D+00 0.000000000000000D+00 -.000000000000000D+00 0.000000000000000D+00
 0.361590709250526D+04 0.000000000000000D+00 0.000000000000000D+00 0.361590709250526D+04
 0.149210960984708D+03 0.000000000000000D+00 0.000000000000000D+00 -.149210960984708D+03
 0.139083920481847D+03 0.586323756356134D+02 0.165917172650611D+02 0.250925927741317D+01
 0.146125481716198D+03 -.107966808490330D+03 0.362857605895224D+02 -.799480491588104D+01
 0.125722535487075D+02 0.111769713619253D+02 0.174518180026474D+01 0.548554563846786D+01
 0.346733639774322D+04 0.381574614927916D+02 -.546226596548482D+02 0.346669613152056D+04
0.333338455902D-03 0.000000000000D+00 0.000000000000D+00 0.730357756300D-06 0.167368617168D-06  6 21 2 25 23 2 21 4 0.60087628D-01 0.21252314D+00 0.32926066D+05 0.32926066D+05 0.32926066D+05 0.12106791D+01  1  2  1  1  6  1       21 0.378739343071D-01 0.100000000000D+01
  </mgrwgt>
  </event>
  <event>
  5     66 0.38225901E-03 0.22069692E+02 0.75467711E-02 0.11771071E+00
       21 -1    0    0  501  502 0.00000000E+00 0.00000000E+00 0.21090497E+03 0.21090630E+03 0.75000000E+00 0.0000E+00 0.9000E+01
        2 -1    0    0  502    0 0.00000000E+00 0.00000000E+00 -.19241406E+03 0.19241432E+03 0.32000000E+00 0.0000E+00 0.9000E+01
       25  1    1    2    0    0 0.17835687E+02 0.78795055E+02 -.82011064E+02 0.16993407E+03 0.12500000E+03 0.0000E+00 0.9000E+01
       23  1    1    2    0    0 -.39867641E+02 -.77506327E+02 -.43689784E+01 0.12621806E+03 0.91188000E+02 0.0000E+00 0.9000E+01
        2  1    1    2  501    0 0.22031953E+02 -.12887288E+01 0.10487096E+03 0.10716850E+03 0.32000000E+00 0.0000E+00 0.9000E+01
#aMCatNLO 1  0  0  1  5 0.28378849D+01 0.00000000D+00  -5  6  0 0.00000000D+00 0.00000000D+00 0.00000000D+00 0.00000000D+00 0.00000000D+00
  <mgrwgt>
 0.4378547730D-01   14    2    0
 0.201448265928712D+03 0.000000000000000D+00 0.000000000000000D+00 0.201448265928712D+03
 0.201448265928712D+03 0.000000000000000D+00 0.000000000000000D+00 -.201448265928712D+03
 0.173876941338658D+03 0.178356411267372D+02 0.787950580202801D+02 -.898967155488225D+02
 0.126551455553340D+03 -.398676744586691D+02 -.775063245433210D+02 -.101665012522510D+02
 0.102468134965425D+03 0.220320333319319D+02 -.128873347695915D+01 0.100063216801073D+03
 0.000000000000000D+00 -.000000000000000D+00 0.000000000000000D+00 0.000000000000000D+00
 0.241552042816803D+03 0.000000000000000D+00 0.000000000000000D+00 0.241552042816803D+03
 0.212910950943228D+03 0.000000000000000D+00 0.000000000000000D+00 -.212910950943228D+03
 0.167162943631136D+03 0.201697847943220D+02 0.618886907141444D+02 -.898967155488225D+02
 0.134343537684189D+03 -.380820581034914D+02 -.904396698158135D+02 -.101665012522510D+02
 0.103413084182560D+03 0.234411246585709D+02 -.114948813961656D+02 0.100063216801073D+03
 0.495434282621457D+02 -.552885134940145D+01 0.400458604978347D+02 0.286410918735750D+02
0.463109817337D-05 0.000000000000D+00 0.000000000000D+00 0.217999129261D-05 0.000000000000D+00  6 21 2 25 23 2 21 2 0.32447042D-01 0.29602286D-01 0.22059206D+05 0.22059206D+05 0.22059206D+05 0.12291679D+01  1  2  2  1  6  1       21 0.140725146567D-01 0.100000000000D+01
0.105409672339D-05 0.244389764839D-06 -.934885293351D-08 0.217999129261D-05 0.000000000000D+00  6 21 2 25 23 2 21 4 0.32447042D-01 0.29602286D-01 0.22059206D+05 0.22059206D+05 0.22059206D+05 0.12291679D+01  1  2  3  1  6  1       21 0.483938989382D-02 0.100000000000D+01
0.441349000087D-06 0.000000000000D+00 0.000000000000D+00 0.217999129261D-05 0.000000000000D+00  6 21 2 25 23 2 21 4 0.32447042D-01 0.29602286D-01 0.22059206D+05 0.22059206D+05 0.22059206D+05 0.12291679D+01  1  2 15  1  6  1       21 0.202624658939D-02 0.100000000000D+01
-.246201735377D-05 0.000000000000D+00 0.000000000000D+00 0.217999129261D-05 0.000000000000D+00  6 21 2 25 23 2 21 4 0.32447042D-01 0.29602286D-01 0.22059206D+05 0.22059206D+05 0.22059206D+05 0.12291679D+01  1  2  4  1  6  1       21 -.113031960311D-01 0.100000000000D+01
-.288622150310D-04 0.000000000000D+00 -.738844502049D-05 0.217999129261D-05 0.000000000000D+00  6 21 2 25 23 2 21 4 0.40802833D-01 0.29602286D-01 0.22059206D+05 0.22059206D+05 0.22059206D+05 0.12291679D+01  1  2  5  1  6  1       21 -.841429625797D-01 0.100000000000D+01
0.267826116574D-04 0.000000000000D+00 0.666674499789D-05 0.217999129261D-05 0.000000000000D+00  6 21 2 25 23 2 21 4 0.32447042D-01 0.29602286D-01 0.22059206D+05 0.22059206D+05 0.22059206D+05 0.12291679D+01  1  2  6  1  6  1       21 0.122959779030D+00 0.100000000000D+01
-.197840753498D-05 0.000000000000D+00 -.499885272689D-06 0.217999129261D-05 0.000000000000D+00  6 -1 2 25 23 2 -1 4 0.40802833D-01 0.29602286D-01 0.22059206D+05 0.22059206D+05 0.22059206D+05 0.12291679D+01  1  2  5  4  6  1       21 -.540184634424D-03 0.100000000000D+01
-.197840753498D-05 0.000000000000D+00 -.499885272689D-06 0.217999129261D-05 0.000000000000D+00  6 -3 2 25 23 2 -3 4 0.40802833D-01 0.29602286D-01 0.22059206D+05 0.22059206D+05 0.22059206D+05 0.12291679D+01  1  2  5  4  6  1       21 -.286858268377D-03 0.100000000000D+01
-.197840753498D-05 0.000000000000D+00 -.499885272689D-06 0.217999129261D-05 0.000000000000D+00  6 1 2 25 23 2 1 4 0.40802833D-01 0.29602286D-01 0.22059206D+05 0.22059206D+05 0.22059206D+05 0.12291679D+01  1  2  5  5  6  1       21 -.109983366594D-02 0.100000000000D+01
-.197840753498D-05 0.000000000000D+00 -.499885272689D-06 0.217999129261D-05 0.000000000000D+00  6 3 2 25 23 2 3 4 0.40802833D-01 0.29602286D-01 0.22059206D+05 0.22059206D+05 0.22059206D+05 0.12291679D+01  1  2  5  5  6  1       21 -.286918816261D-03 0.100000000000D+01
-.197840753498D-05 0.000000000000D+00 -.499885272689D-06 0.217999129261D-05 0.000000000000D+00  6 -2 2 25 23 2 -2 4 0.40802833D-01 0.29602286D-01 0.22059206D+05 0.22059206D+05 0.22059206D+05 0.12291679D+01  1  2  5  6  6  1       21 -.455534586108D-03 0.100000000000D+01
-.197840753498D-05 0.000000000000D+00 -.499885272689D-06 0.217999129261D-05 0.000000000000D+00  6 2 2 25 23 2 2 4 0.40802833D-01 0.29602286D-01 0.22059206D+05 0.22059206D+05 0.22059206D+05 0.12291679D+01  1  2  5  7  6  1       21 -.152117793598D-02 0.100000000000D+01
-.197840753498D-05 0.000000000000D+00 -.499885272689D-06 0.217999129261D-05 0.000000000000D+00  6 -4 2 25 23 2 -4 4 0.40802833D-01 0.29602286D-01 0.22059206D+05 0.22059206D+05 0.22059206D+05 0.12291679D+01  1  2  5  8  6  1       21 -.237893176876D-03 0.100000000000D+01
-.197840753498D-05 0.000000000000D+00 -.499885272689D-06 0.217999129261D-05 0.000000000000D+00  6 4 2 25 23 2 4 4 0.40802833D-01 0.29602286D-01 0.22059206D+05 0.22059206D+05 0.22059206D+05 0.12291679D+01  1  2  5  9  6  1       21 -.237893176876D-03 0.100000000000D+01
  </mgrwgt>
  </event>
  <event>
  5     66 -.38225901E-03 0.21226927E+02 0.75467711E-02 0.11996651E+00
       21 -1    0    0  501  502 0.00000000E+00 0.00000000E+00 0.61220365E+02 0.61224959E+02 0.75000000E+00 0.0000E+00 0.9000E+01
        2 -1    0    0  502    0 -.00000000E+00 -.00000000E+00 -.40876358E+03 0.40876371E+03 0.32000000E+00 0.0000E+00 0.9000E+01
       25  1    1    2    0    0 0.28348962E+02 0.88862976E+02 -.18782161E+03 0.24413572E+03 0.12500000E+03 0.0000E+00 0.9000E+01
       23  1    1    2    0    0 -.19063930E+02 -.69775104E+02 -.16687054E+03 0.20345276E+03 0.91188000E+02 0.0000E+00 0.9000E+01
        2  1    1    2  501    0 -.92850323E+01 -.19087872E+02 0.71489316E+01 0.22400186E+02 0.32000000E+00 0.0000E+00 0.9000E+01
#aMCatNLO 1  0  0  5  1 0.82138171D+01 0.00000000D+00  -5  6  0 0.00000000D+00 0.00000000D+00 0.00000000D+00 0.00000000D+00 0.00000000D+00
  <mgrwgt>
 -.1218681272D-01    5    2    0
 0.158195337863217D+03 0.000000000000000D+00 0.000000000000000D+00 0.158195337863217D+03
 0.158195337863217D+03 -.000000000000000D+00 -.000000000000000D+00 -.158195337863217D+03
 0.156341413905250D+03 0.283491011681781D+02 0.888632615613738D+02 -.108299081032118D+02
 0.118921801514869D+03 -.190638243180085D+02 -.697748865913432D+02 -.243962975690814D+02
 0.411274603063146D+02 -.928527685016955D+01 -.190883749700306D+02 0.352262056722932D+02
 0.000000000000000D+00 0.000000000000000D+00 0.000000000000000D+00 0.000000000000000D+00
 0.158195337863217D+03 0.000000000000000D+00 0.000000000000000D+00 0.158195337863217D+03
 0.158195337863217D+03 -.000000000000000D+00 -.000000000000000D+00 -.158195337863217D+03
 0.154685740641659D+03 0.272836660433631D+02 0.866729741314046D+02 -.678789218458763D+01
 0.119455917925177D+03 -.198803960917326D+02 -.714535687090985D+02 -.212984119904874D+02
 0.340318588455271D+02 -.154578988993599D+02 -.144307136134165D+02 0.266641197624562D+02
 0.821715831407097D+01 0.805462894772937D+01 -.788691808889618D+00 0.142218441261887D+01
0.404572675915D-05 0.000000000000D+00 0.000000000000D+00 0.101584937210D-05 0.000000000000D+00  6 21 2 25 23 2 21 2 0.94188807D-02 0.62887068D-01 0.21548082D+05 0.21548082D+05 0.21548082D+05 0.12302773D+01  1  2  2  3  6  5        2 0.534745997832D-01 0.100000000000D+01
0.500231235642D-06 0.213498866630D-06 -.816715670117D-08 0.101584937210D-05 0.000000000000D+00  6 21 2 25 23 2 21 4 0.94188807D-02 0.62887068D-01 0.21548082D+05 0.21548082D+05 0.21548082D+05 0.12302773D+01  1  2  3  3  6  5        2 0.100075510860D-01 0.100000000000D+01
0.391195255158D-06 0.000000000000D+00 0.000000000000D+00 0.101584937210D-05 0.000000000000D+00  6 21 2 25 23 2 21 4 0.94188807D-02 0.62887068D-01 0.21548082D+05 0.21548082D+05 0.21548082D+05 0.12302773D+01  1  2 15  3  6  5        2 0.782619361138D-02 0.100000000000D+01
-.418658423724D-05 0.000000000000D+00 0.000000000000D+00 0.101584937210D-05 0.000000000000D+00  6 21 2 25 23 2 21 4 0.94188807D-02 0.62887068D-01 0.21548082D+05 0.21548082D+05 0.21548082D+05 0.12302773D+01  1  2  4  3  6  5        2 -.837561764336D-01 0.100000000000D+01
0.131443637589D-07 0.000000000000D+00 0.000000000000D+00 0.101584937210D-05 0.120388425119D-06  6 21 2 25 23 2 21 4 0.94188807D-02 0.62887068D-01 0.22698238D+05 0.22698238D+05 0.22698238D+05 0.12278207D+01  1  2 11  3  6  5        2 0.261019233878D-03 0.100000000000D+01
  </mgrwgt>
  </event>
  <event>
  5     66 0.38225901E-03 0.51503401E+02 0.75467711E-02 0.11798379E+00
       21 -1    0    0  501  502 0.00000000E+00 0.00000000E+00 0.11339743E+03 0.11339991E+03 0.75000000E+00 0.0000E+00 0.9000E+01
        2 -1    0    0  502    0 0.00000000E+00 0.00000000E+00 -.13622872E+04 0.13622872E+04 0.32000000E+00 0.0000E+00 0.9000E+01
       25  1    1    2    0    0 -.84745582E+02 0.29956193E+02 -.89038673E+03 0.90359987E+03 0.12500000E+03 0.0000E+00 0.9000E+01
       23  1    1    2    0    0 0.34477457E+02 -.41168450E+02 -.45260534E+03 0.46481220E+03 0.91188000E+02 0.0000E+00 0.9000E+01
        2  1    1    2  501    0 0.50268125E+02 0.11212257E+02 0.94102296E+02 0.10727508E+03 0.32000000E+00 0.0000E+00 0.9000E+01
#aMCatNLO 1  0  0  1  1 0.19992405D+02 0.00000000D+00  -5  6  0 0.00000000D+00 0.00000000D+00 0.00000000D+00 0.00000000D+00 0.00000000D+00
  <mgrwgt>
 0.3622119468D+00    3    2    0
 0.393041630922943D+03 0.000000000000000D+00 0.000000000000000D+00 0.393041630922943D+03
 0.393041630922943D+03 0.000000000000000D+00 0.000000000000000D+00 -.393041630922943D+03
 0.281695174932137D+03 -.847455893906312D+02 0.299561914039817D+02 -.235898247673547D+03
 0.153499294209004D+03 0.344774531089554D+02 -.411684509086790D+02 -.111190133804946D+03
 0.350888792704745D+03 0.502681362816758D+02 0.112122595046973D+02 0.347088381478493D+03
 0.000000000000000D+00 -.000000000000000D+00 0.000000000000000D+00 -.000000000000000D+00
 0.393360141326113D+03 0.000000000000000D+00 0.000000000000000D+00 0.393360141326113D+03
 0.915198306359915D+03 0.000000000000000D+00 0.000000000000000D+00 -.915198306359915D+03
 0.279529313088072D+03 -.784814940009180D+02 0.265388153357114D+02 -.235898247673547D+03
 0.154820135879514D+03 0.379187539819618D+02 -.430458519563135D+02 -.111190133804946D+03
 0.351988004555417D+03 0.581132809594955D+02 0.693234229300765D+01 0.347088381478493D+03
 0.522220994163025D+03 -.175505409405393D+02 0.957469432759450D+01 -.521838165033802D+03
0.266636153537D-03 0.000000000000D+00 0.000000000000D+00 0.562542559690D-05 0.000000000000D+00  6 21 2 25 23 2 21 2 0.17445952D-01 0.20958284D+00 0.24225268D+05 0.24225268D+05 0.24225268D+05 0.12247661D+01  1  2  2  1  6  1       21 0.251367492168D+00 0.100000000000D+01
0.507492497386D-04 0.140707763949D-04 -.538261572710D-06 0.562542559690D-05 0.000000000000D+00  6 21 2 25 23 2 21 4 0.17445952D-01 0.20958284D+00 0.24225268D+05 0.24225268D+05 0.24225268D+05 0.12247661D+01  1  2  3  1  6  1       21 0.717672033938D-01 0.100000000000D+01
0.276329728587D-04 0.000000000000D+00 0.000000000000D+00 0.562542559690D-05 0.000000000000D+00  6 21 2 25 23 2 21 4 0.17445952D-01 0.20958284D+00 0.24225268D+05 0.24225268D+05 0.24225268D+05 0.12247661D+01  1  2 15  1  6  1       21 0.390772512646D-01 0.100000000000D+01
  </mgrwgt>
  </event>
  <event>
  6     66 0.38225901E-03 0.23829951E+02 0.75467711E-02 0.12060342E+00
       21 -1    0    0  501  502 0.00000000E+00 0.00000000E+00 0.53933382E+02 0.53938597E+02 0.75000000E+00 0.0000E+00 0.9000E+01
        2 -1    0    0  502    0 -.00000000E+00 -.00000000E+00 -.51392973E+03 0.51392983E+03 0.32000000E+00 0.0000E+00 0.9000E+01
       25  1    1    2    0    0 -.24817357E+01 0.54060915E+02 -.20393313E+03 0.24523961E+03 0.12500000E+03 0.0000E+00 0.9000E+01
       23  1    1    2    0    0 -.21182432E+01 -.75703457E+02 -.22441204E+03 0.25379424E+03 0.91188000E+02 0.0000E+00 0.9000E+01
        2  1    1    2  503    0 0.11972881E+02 0.25373293E+02 0.73141084E+01 0.28995732E+02 0.32000000E+00 0.0000E+00 0.9000E+01
       21  1    1    2  501  503 -.73729022E+01 -.37307507E+01 -.38965292E+02 0.39838859E+02 0.75000000E+00 0.0000E+00 0.9000E+01
#aMCatNLO 2  0  0  5  5 0.65896749D+01 0.00000000D+00  -5  6  0 0.00000000D+00 0.00000000D+00 0.00000000D+00 0.00000000D+00 0.00000000D+00
  <mgrwgt>
 0.6066303806D-01    4    2    0
 0.166491674455328D+03 0.000000000000000D+00 0.000000000000000D+00 0.166491674455328D+03
 0.166491674455328D+03 -.000000000000000D+00 -.000000000000000D+00 -.166491674455328D+03
 0.135568345683538D+03 -.361346035471133D+01 0.487362389066891D+02 -.191180091240236D+02
 0.128624356800626D+03 -.316409233460508D+01 -.806240957058547D+02 -.414574182708705D+02
 0.687906464264920D+02 0.677755268931641D+01 0.318878567991655D+02 0.605754273948941D+02
 0.000000000000000D+00 0.000000000000000D+00 0.000000000000000D+00 -.000000000000000D+00
 0.166491674455328D+03 0.000000000000000D+00 0.000000000000000D+00 0.166491674455328D+03
 0.166491674455328D+03 -.000000000000000D+00 -.000000000000000D+00 -.166491674455328D+03
 0.136525574957075D+03 -.246884477199742D+01 0.541215659509494D+02 -.888782998649420D+01
 0.122747114702281D+03 -.210664973296759D+01 -.756489107386458D+02 -.320063611598383D+02
 0.594516075387728D+02 0.120545205072142D+02 0.252900783629604D+02 0.524365722628849D+02
 0.142590517125258D+02 -.747902600224921D+01 -.376273357526403D+01 -.115423811165524D+02
-.729200431424D-07 0.000000000000D+00 0.000000000000D+00 0.782034756927D-06 0.000000000000D+00  6 21 2 25 23 2 21 4 0.82978522D-02 0.79066522D-01 0.20818703D+05 0.20818703D+05 0.20818703D+05 0.12319125D+01  1  2  8  3  6  5        2 -.142482122464D-02 0.100000000000D+01
-.105441093902D-07 0.000000000000D+00 0.000000000000D+00 0.782034756927D-06 0.000000000000D+00  6 21 2 25 23 2 21 4 0.82978522D-02 0.79066522D-01 0.20818703D+05 0.20818703D+05 0.20818703D+05 0.12319125D+01  1  2  9  3  6  5        2 -.206026631453D-03 0.100000000000D+01
0.129502528939D-07 0.000000000000D+00 0.000000000000D+00 0.782034756927D-06 0.000000000000D+00  6 21 2 25 23 2 21 4 0.82978522D-02 0.79066522D-01 0.20818703D+05 0.20818703D+05 0.20818703D+05 0.12319125D+01  1  2 10  3  6  5        2 0.253041473818D-03 0.100000000000D+01
0.318327875822D-05 0.000000000000D+00 0.000000000000D+00 0.782034756927D-06 0.106042020664D-06  6 21 2 25 23 2 21 4 0.82978522D-02 0.79066522D-01 0.21188452D+05 0.21188452D+05 0.21188452D+05 0.12310757D+01  1  2  1  3  6  5        2 0.620408444381D-01 0.100000000000D+01
  </mgrwgt>
  </event>
  <event>
  5     66 0.38225901E-03 0.29358701E+02 0.75467711E-02 0.12120276E+00
       21 -1    0    0  501  502 0.00000000E+00 0.00000000E+00 0.16648087E+02 0.16664972E+02 0.75000000E+00 0.0000E+00 0.9000E+01
        2 -1    0    0  502    0 0.00000000E+00 0.00000000E+00 -.10077778E+04 0.10077778E+04 0.32000000E+00 0.0000E+00 0.9000E+01
       25  1    1    2    0    0 0.33721442E+02 0.75219791E+01 -.54718341E+03 0.56234189E+03 0.12500000E+03 0.0000E+00 0.9000E+01
       23  1    1    2    0    0 -.30638313E+02 0.21861120E+02 -.33571323E+03 0.34990747E+03 0.91188000E+02 0.0000E+00 0.9000E+01
        2  1    1    2  501    0 -.30831287E+01 -.29383099E+02 -.10823303E+03 0.11219342E+03 0.32000000E+00 0.0000E+00 0.9000E+01
#aMCatNLO 1  0  0  1  5 0.23026836D+02 0.00000000D+00  -5  6  0 0.00000000D+00 0.00000000D+00 0.00000000D+00 0.00000000D+00 0.00000000D+00
  <mgrwgt>
 0.1128849256D+00   32    2    0
 0.129561749323084D+03 0.000000000000000D+00 0.000000000000000D+00 0.129561749323084D+03
 0.129561749323084D+03 0.000000000000000D+00 0.000000000000000D+00 -.129561749323084D+03
 0.130275315546848D+03 0.337215328728466D+02 0.752284403508689D+01 -.123661990587300D+02
 0.992764919077628D+02 -.306382442222307D+02 0.218617791041710D+02 0.111324349039856D+02
 0.295716911915562D+02 -.308328865061590D+01 -.293846231392579D+02 0.123376415474442D+01
 0.000000000000000D+00 -.000000000000000D+00 -.000000000000000D+00 0.000000000000000D+00
 0.190248632461724D+03 0.000000000000000D+00 0.000000000000000D+00 0.190248632461724D+03
 0.132275149162431D+03 0.000000000000000D+00 0.000000000000000D+00 -.132275149162431D+03
 0.133260201388512D+03 0.413933933732319D+02 0.163384632078885D+02 -.123661990587300D+02
 0.993458489921263D+02 -.248560904185835D+02 0.285059648175270D+02 0.111324349039856D+02
 0.275385684950491D+02 -.142073496316025D+01 -.274742077762296D+02 0.123376415474442D+01
 0.623791627484682D+02 -.151165679914882D+02 -.173702202491860D+02 0.579734832992927D+02
0.716991122574D-06 0.000000000000D+00 0.000000000000D+00 0.400668559858D-06 0.000000000000D+00  6 21 2 25 23 2 21 2 0.25625470D-02 0.15504403D+00 0.16625956D+05 0.16625956D+05 0.16625956D+05 0.12427592D+01  1  2  2  1  6  1       21 0.296974794104D-01 0.100000000000D+01
0.470054439643D-08 0.378366610418D-07 -.144739850218D-08 0.400668559858D-06 0.000000000000D+00  6 21 2 25 23 2 21 4 0.25625470D-02 0.15504403D+00 0.16625956D+05 0.16625956D+05 0.16625956D+05 0.12427592D+01  1  2  3  1  6  1       21 0.300696195522D-03 0.100000000000D+01
0.769233902937D-07 0.000000000000D+00 0.000000000000D+00 0.400668559858D-06 0.000000000000D+00  6 21 2 25 23 2 21 4 0.25625470D-02 0.15504403D+00 0.16625956D+05 0.16625956D+05 0.16625956D+05 0.12427592D+01  1  2 15  1  6  1       21 0.492082806952D-02 0.100000000000D+01
0.438639997001D-05 0.000000000000D+00 0.000000000000D+00 0.395124246826D-06 0.000000000000D+00  6 21 2 25 23 2 21 4 0.37797971D-02 0.15504403D+00 0.19872975D+05 0.19872975D+05 0.19872975D+05 0.12341308D+01  1  2 12  1  6  1       21 0.144342072938D+00 0.100000000000D+01
0.378555213365D-05 0.000000000000D+00 0.000000000000D+00 0.395124246826D-06 0.000000000000D+00  6 21 2 25 23 2 21 4 0.40207447D-02 0.15504403D+00 0.19872975D+05 0.19872975D+05 0.19872975D+05 0.12341308D+01  1  2 12  1  6  1       21 0.112407143842D+00 0.100000000000D+01
-.528163329018D-05 0.000000000000D+00 0.000000000000D+00 0.400668559858D-06 0.000000000000D+00  6 21 2 25 23 2 21 4 0.25625470D-02 0.15504403D+00 0.16625956D+05 0.16625956D+05 0.16625956D+05 0.12427592D+01  1  2  4  1  6  1       21 -.337868745098D+00 0.100000000000D+01
-.975392867199D-05 0.000000000000D+00 -.890361448267D-06 0.400668559858D-06 0.000000000000D+00  6 21 2 25 23 2 21 4 0.38392232D-02 0.15504403D+00 0.16625956D+05 0.16625956D+05 0.16625956D+05 0.12427592D+01  1  2  5  1  6  1       21 -.321106649240D+00 0.100000000000D+01
0.753282109706D-05 0.000000000000D+00 0.655261134455D-06 0.400668559858D-06 0.000000000000D+00  6 21 2 25 23 2 21 4 0.25625470D-02 0.15504403D+00 0.16625956D+05 0.16625956D+05 0.16625956D+05 0.12427592D+01  1  2  6  1  6  1       21 0.481878364377D+00 0.100000000000D+01
0.567043103932D-06 0.000000000000D+00 0.000000000000D+00 0.395124246826D-06 0.000000000000D+00  6 -1 2 25 23 2 -1 4 0.37797971D-02 0.15504403D+00 0.19872975D+05 0.19872975D+05 0.19872975D+05 0.12341308D+01  1  2 12  4  6  1       21 0.101037485103D-02 0.100000000000D+01
0.567043103932D-06 0.000000000000D+00 0.000000000000D+00 0.395124246826D-06 0.000000000000D+00  6 -3 2 25 23 2 -3 4 0.37797971D-02 0.15504403D+00 0.19872975D+05 0.19872975D+05 0.19872975D+05 0.12341308D+01  1  2 12  4  6  1       21 0.739198639972D-03 0.100000000000D+01
0.583979621098D-06 0.000000000000D+00 0.000000000000D+00 0.395124246826D-06 0.000000000000D+00  6 -1 2 25 23 2 -1 4 0.40207447D-02 0.15504403D+00 0.19872975D+05 0.19872975D+05 0.19872975D+05 0.12341308D+01  1  2 12  4  6  1       21 0.950286026985D-03 0.100000000000D+01
0.583979621098D-06 0.000000000000D+00 0.000000000000D+00 0.395124246826D-06 0.000000000000D+00  6 -3 2 25 23 2 -3 4 0.40207447D-02 0.15504403D+00 0.19872975D+05 0.19872975D+05 0.19872975D+05 0.12341308D+01  1  2 12  4  6  1       21 0.691142793925D-03 0.100000000000D+01
-.123635376537D-05 0.000000000000D+00 -.120706877891D-06 0.400668559858D-06 0.000000000000D+00  6 -1 2 25 23 2 -1 4 0.38392232D-02 0.15504403D+00 0.16625956D+05 0.16625956D+05 0.16625956D+05 0.12427592D+01  1  2  5  4  6  1       21 -.220482265468D-02 0.100000000000D+01
-.123635376537D-05 0.000000000000D+00 -.120706877891D-06 0.400668559858D-06 0.000000000000D+00  6 -3 2 25 23 2 -3 4 0.38392232D-02 0.15504403D+00 0.16625956D+05 0.16625956D+05 0.16625956D+05 0.12427592D+01  1  2  5  4  6  1       21 -.160430081922D-02 0.100000000000D+01
0.567043103932D-06 0.000000000000D+00 0.000000000000D+00 0.395124246826D-06 0.000000000000D+00  6 1 2 25 23 2 1 4 0.37797971D-02 0.15504403D+00 0.19872975D+05 0.19872975D+05 0.19872975D+05 0.12341308D+01  1  2 12  5  6  1       21 0.110750758575D-02 0.100000000000D+01
0.567043103932D-06 0.000000000000D+00 0.000000000000D+00 0.395124246826D-06 0.000000000000D+00  6 3 2 25 23 2 3 4 0.37797971D-02 0.15504403D+00 0.19872975D+05 0.19872975D+05 0.19872975D+05 0.12341308D+01  1  2 12  5  6  1       21 0.739135846081D-03 0.100000000000D+01
0.583979621098D-06 0.000000000000D+00 0.000000000000D+00 0.395124246826D-06 0.000000000000D+00  6 1 2 25 23 2 1 4 0.40207447D-02 0.15504403D+00 0.19872975D+05 0.19872975D+05 0.19872975D+05 0.12341308D+01  1  2 12  5  6  1       21 0.104745327220D-02 0.100000000000D+01
0.583979621098D-06 0.000000000000D+00 0.000000000000D+00 0.395124246826D-06 0.000000000000D+00  6 3 2 25 23 2 3 4 0.40207447D-02 0.15504403D+00 0.19872975D+05 0.19872975D+05 0.19872975D+05 0.12341308D+01  1  2 12  5  6  1       21 0.691082000473D-03 0.100000000000D+01
-.123635376537D-05 0.000000000000D+00 -.120706877891D-06 0.400668559858D-06 0.000000000000D+00  6 1 2 25 23 2 1 4 0.38392232D-02 0.15504403D+00 0.16625956D+05 0.16625956D+05 0.16625956D+05 0.12427592D+01  1  2  5  5  6  1       21 -.242075044057D-02 0.100000000000D+01
-.123635376537D-05 0.000000000000D+00 -.120706877891D-06 0.400668559858D-06 0.000000000000D+00  6 3 2 25 23 2 3 4 0.38392232D-02 0.15504403D+00 0.16625956D+05 0.16625956D+05 0.16625956D+05 0.12427592D+01  1  2  5  5  6  1       21 -.160416126181D-02 0.100000000000D+01
0.567043103932D-06 0.000000000000D+00 0.000000000000D+00 0.395124246826D-06 0.000000000000D+00  6 -2 2 25 23 2 -2 4 0.37797971D-02 0.15504403D+00 0.19872975D+05 0.19872975D+05 0.19872975D+05 0.12341308D+01  1  2 12  6  6  1       21 0.993086245907D-03 0.100000000000D+01
0.583979621098D-06 0.000000000000D+00 0.000000000000D+00 0.395124246826D-06 0.000000000000D+00  6 -2 2 25 23 2 -2 4 0.40207447D-02 0.15504403D+00 0.19872975D+05 0.19872975D+05 0.19872975D+05 0.12341308D+01  1  2 12  6  6  1       21 0.933024521681D-03 0.100000000000D+01
-.123635376537D-05 0.000000000000D+00 -.120706877891D-06 0.400668559858D-06 0.000000000000D+00  6 -2 2 25 23 2 -2 4 0.38392232D-02 0.15504403D+00 0.16625956D+05 0.16625956D+05 0.16625956D+05 0.12427592D+01  1  2  5  6  6  1       21 -.216638787899D-02 0.100000000000D+01
0.567043103932D-06 0.000000000000D+00 0.000000000000D+00 0.395124246826D-06 0.000000000000D+00  6 2 2 25 23 2 2 4 0.37797971D-02 0.15504403D+00 0.19872975D+05 0.19872975D+05 0.19872975D+05 0.12341308D+01  1  2 12  7  6  1       21 0.117312207347D-02 0.100000000000D+01
0.583979621098D-06 0.000000000000D+00 0.000000000000D+00 0.395124246826D-06 0.000000000000D+00  6 2 2 25 23 2 2 4 0.40207447D-02 0.15504403D+00 0.19872975D+05 0.19872975D+05 0.19872975D+05 0.12341308D+01  1  2 12  7  6  1       21 0.111299767317D-02 0.100000000000D+01
-.123635376537D-05 0.000000000000D+00 -.120706877891D-06 0.400668559858D-06 0.000000000000D+00  6 2 2 25 23 2 2 4 0.38392232D-02 0.15504403D+00 0.16625956D+05 0.16625956D+05 0.16625956D+05 0.12427592D+01  1  2  5  7  6  1       21 -.256647179726D-02 0.100000000000D+01
0.567043103932D-06 0.000000000000D+00 0.000000000000D+00 0.395124246826D-06 0.000000000000D+00  6 -4 2 25 23 2 -4 4 0.37797971D-02 0.15504403D+00 0.19872975D+05 0.19872975D+05 0.19872975D+05 0.12341308D+01  1  2 12  8  6  1       21 0.663292155365D-03 0.100000000000D+01
0.583979621098D-06 0.000000000000D+00 0.000000000000D+00 0.395124246826D-06 0.000000000000D+00  6 -4 2 25 23 2 -4 4 0.40207447D-02 0.15504403D+00 0.19872975D+05 0.19872975D+05 0.19872975D+05 0.12341308D+01  1  2 12  8  6  1       21 0.619275457927D-03 0.100000000000D+01
-.123635376537D-05 0.000000000000D+00 -.120706877891D-06 0.400668559858D-06 0.000000000000D+00  6 -4 2 25 23 2 -4 4 0.38392232D-02 0.15504403D+00 0.16625956D+05 0.16625956D+05 0.16625956D+05 0.12427592D+01  1  2  5  8  6  1       21 -.143645837874D-02 0.100000000000D+01
0.567043103932D-06 0.000000000000D+00 0.000000000000D+00 0.395124246826D-06 0.000000000000D+00  6 4 2 25 23 2 4 4 0.37797971D-02 0.15504403D+00 0.19872975D+05 0.19872975D+05 0.19872975D+05 0.12341308D+01  1  2 12  9  6  1       21 0.663292155365D-03 0.100000000000D+01
0.583979621098D-06 0.000000000000D+00 0.000000000000D+00 0.395124246826D-06 0.000000000000D+00  6 4 2 25 23 2 4 4 0.40207447D-02 0.15504403D+00 0.19872975D+05 0.19872975D+05 0.19872975D+05 0.12341308D+01  1  2 12  9  6  1       21 0.619275457927D-03 0.100000000000D+01
-.123635376537D-05 0.000000000000D+00 -.120706877891D-06 0.400668559858D-06 0.000000000000D+00  6 4 2 25 23 2 4 4 0.38392232D-02 0.15504403D+00 0.16625956D+05 0.16625956D+05 0.16625956D+05 0.12427592D+01  1  2  5  9  6  1       21 -.143645837874D-02 0.100000000000D+01
  </mgrwgt>
  </event>
  <event>
  5     66 0.38225901E-03 0.21532291E+02 0.75467711E-02 0.12417268E+00
       21 -1    0    0  501  502 0.00000000E+00 0.00000000E+00 0.11608154E+03 0.11608397E+03 0.75000000E+00 0.0000E+00 0.9000E+01
        2 -1    0    0  502    0 -.00000000E+00 -.00000000E+00 -.61136781E+03 0.61136790E+03 0.32000000E+00 0.0000E+00 0.9000E+01
       25  1    1    2    0    0 -.60201667E+01 0.15247922E+01 -.30602181E+03 0.33062504E+03 0.12500000E+03 0.0000E+00 0.9000E+01
       23  1    1    2    0    0 0.15879771E+02 -.20667080E+02 -.28413388E+03 0.29954400E+03 0.91188000E+02 0.0000E+00 0.9000E+01
        2  1    1    2  501    0 -.98596042E+01 0.19142288E+02 0.94869420E+02 0.97282826E+02 0.32000000E+00 0.0000E+00 0.9000E+01
#aMCatNLO 1  0  0  5  5 0.22443773D+00 0.00000000D+00  -5  6  0 0.00000000D+00 0.00000000D+00 0.00000000D+00 0.00000000D+00 0.00000000D+00
  <mgrwgt>
 0.4620468809D-01    7    2    0
 0.266400884970694D+03 0.000000000000000D+00 0.000000000000000D+00 0.266400884970694D+03
 0.266400884970694D+03 -.000000000000000D+00 -.000000000000000D+00 -.266400884970694D+03
 0.166939057395558D+03 -.602016350092189D+01 0.152478594248988D+01 -.110476610843060D+03
 0.144849852199485D+03 0.158797737710244D+02 -.206670856985328D+02 -.109484851426685D+03
 0.221012860346345D+03 -.985961027010250D+01 0.191422997560429D+02 0.219961462269745D+03
 0.000000000000000D+00 0.000000000000000D+00 0.000000000000000D+00 0.000000000000000D+00
 0.266400884970694D+03 0.000000000000000D+00 0.000000000000000D+00 0.266400884970694D+03
 0.266400884970694D+03 -.000000000000000D+00 -.000000000000000D+00 -.266400884970694D+03
 0.166936101550417D+03 -.602036444391157D+01 0.152517607058187D+01 -.110472127936269D+03
 0.144846844756084D+03 0.158795994168719D+02 -.206667471923080D+02 -.109480961699475D+03
 0.219245615692356D+03 -.998517040902020D+01 0.190803261155280D+02 0.218185420061809D+03
 0.177320794253099D+01 0.125935436059915D+00 0.612450061980653D-01 0.176766957393490D+01
0.153661027905D-05 0.000000000000D+00 0.000000000000D+00 0.218385996081D-04 0.000000000000D+00  6 21 2 25 23 2 21 2 0.17858892D-01 0.94056779D-01 0.14583708D+05 0.14583708D+05 0.14583708D+05 0.12492184D+01  1  2  2  3  6  5        2 0.429246446188D-02 0.100000000000D+01
0.519601418107D-06 0.810891522243D-07 -.310197343636D-08 0.218385996081D-04 0.000000000000D+00  6 21 2 25 23 2 21 4 0.17858892D-01 0.94056779D-01 0.14583708D+05 0.14583708D+05 0.14583708D+05 0.12492184D+01  1  2  3  3  6  5        2 0.226511395463D-02 0.100000000000D+01
0.145827650999D-06 0.000000000000D+00 0.000000000000D+00 0.218385996081D-04 0.000000000000D+00  6 21 2 25 23 2 21 4 0.17858892D-01 0.94056779D-01 0.14583708D+05 0.14583708D+05 0.14583708D+05 0.12492184D+01  1  2 15  3  6  5        2 0.635710827064D-03 0.100000000000D+01
-.493814535938D-02 0.000000000000D+00 0.000000000000D+00 0.218385996081D-04 0.000000000000D+00  6 21 2 25 23 2 21 4 0.17858892D-01 0.94056779D-01 0.14583708D+05 0.14583708D+05 0.14583708D+05 0.12492184D+01  1  2  4  3  6  5        2 -.215270043032D+02 0.100000000000D+01
-.452497964975D-02 0.000000000000D+00 0.000000000000D+00 0.218385996081D-04 0.000000000000D+00  6 21 2 25 23 2 21 4 0.17858892D-01 0.94056779D-01 0.14583708D+05 0.14583708D+05 0.14583708D+05 0.12492184D+01  1  2  5  3  6  5        2 -.197258787061D+02 0.100000000000D+01
0.456142963907D-02 0.000000000000D+00 -.000000000000D+00 0.218385996081D-04 0.000000000000D+00  6 21 2 25 23 2 21 4 0.17858892D-01 0.94056779D-01 0.14583708D+05 0.14583708D+05 0.14583708D+05 0.12492184D+01  1  2  6  3  6  5        2 0.198847762313D+02 0.100000000000D+01
0.491162879097D-02 0.000000000000D+00 0.000000000000D+00 0.218385996081D-04 0.159718986013D-01  6 21 2 25 23 2 21 4 0.17858892D-01 0.94056779D-01 0.14600959D+05 0.14600959D+05 0.14600959D+05 0.12491597D+01  1  2 11  3  6  5        2 0.214071181768D+02 0.100000000000D+01
  </mgrwgt>
  </event>
  <event>
  5     66 0.38225901E-03 0.93173919E+02 0.75467711E-02 0.99888955E-01
       21 -1    0    0  501  502 0.00000000E+00 0.00000000E+00 0.68216527E+03 0.68216568E+03 0.75000000E+00 0.0000E+00 0.9000E+01
        2 -1    0    0  502    0 0.00000000E+00 0.00000000E+00 -.67784511E+03 0.67784519E+03 0.32000000E+00 0.0000E+00 0.9000E+01
       25  1    1    2    0    0 0.37144514E+03 0.45673288E+02 -.14645595E+03 0.42087039E+03 0.12500000E+03 0.0000E+00 0.9000E+01
       23  1    1    2    0    0 -.28349446E+03 -.14915284E+02 -.33270360E+03 0.44676449E+03 0.91188000E+02 0.0000E+00 0.9000E+01
        2  1    1    2  501    0 -.87950680E+02 -.30758004E+02 0.48347971E+03 0.49237598E+03 0.32000000E+00 0.0000E+00 0.9000E+01
#aMCatNLO 1  0  0  1  5 0.10819282D+01 0.00000000D+00  -5  6  0 0.00000000D+00 0.00000000D+00 0.00000000D+00 0.00000000D+00 0.00000000D+00
  <mgrwgt>
 0.4900010815D+00    4    2    0
 0.680002004631122D+03 0.000000000000000D+00 0.000000000000000D+00 0.680002004631122D+03
 0.680002004631122D+03 0.000000000000000D+00 0.000000000000000D+00 -.680002004631122D+03
 0.421337762804094D+03 0.371445148178782D+03 0.456732902316624D+02 -.147793649452930D+03
 0.447823627708025D+03 -.283494456668502D+03 -.149152816102964D+02 -.334124494166909D+03
 0.490842618750124D+03 -.879506915102806D+02 -.307580086213660D+02 0.481918143619839D+03
 0.000000000000000D+00 0.000000000000000D+00 0.000000000000000D+00 -.000000000000000D+00
 0.756975006176424D+03 0.000000000000000D+00 0.000000000000000D+00 0.756975006176424D+03
 0.899587121799997D+03 0.000000000000000D+00 0.000000000000000D+00 -.899587121799997D+03
 0.362875926844644D+03 0.303799787301272D+03 0.437797293327085D+02 -.147793649452930D+03
 0.503890319983874D+03 -.365588195012466D+03 -.172132883170471D+02 -.334124494166909D+03
 0.513644030665648D+03 -.174596541733587D+03 -.331834401943687D+02 0.481918143619839D+03
 0.276151850482255D+03 0.236384949444780D+03 0.661699917870733D+01 -.142612115623573D+03
0.837939235847D-02 0.000000000000D+00 0.000000000000D+00 0.223520919384D-06 0.000000000000D+00  6 21 2 25 23 2 21 2 0.10494854D+00 0.10428390D+00 0.15441468D+06 0.15441468D+06 0.15441468D+06 0.11466263D+01  1  2  2  1  6  1       21 0.402169129374D+00 0.100000000000D+01
0.158274585499D-02 0.442192683314D-03 -.169155789618D-04 0.223520919384D-06 0.000000000000D+00  6 21 2 25 23 2 21 4 0.10494854D+00 0.10428390D+00 0.15441468D+06 0.15441468D+06 0.15441468D+06 0.11466263D+01  1  2  3  1  6  1       21 0.998737099152D-01 0.100000000000D+01
0.112057825116D-02 0.000000000000D+00 0.000000000000D+00 0.223520919384D-06 0.000000000000D+00  6 21 2 25 23 2 21 4 0.10494854D+00 0.10428390D+00 0.15441468D+06 0.15441468D+06 0.15441468D+06 0.11466263D+01  1  2 15  1  6  1       21 0.707102197366D-01 0.100000000000D+01
-.131140967432D-02 0.000000000000D+00 0.000000000000D+00 0.223520919384D-06 0.000000000000D+00  6 21 2 25 23 2 21 4 0.10494854D+00 0.10428390D+00 0.15441468D+06 0.15441468D+06 0.15441468D+06 0.11466263D+01  1  2  4  1  6  1       21 -.827519775083D-01 0.100000000000D+01
  </mgrwgt>
  </event>
  <event>
  5     66 -.38225901E-03 0.49977700E+02 0.75467711E-02 0.11969252E+00
       21 -1    0    0  501  502 0.00000000E+00 0.00000000E+00 0.12235122E+03 0.12235352E+03 0.75000000E+00 0.0000E+00 0.9000E+01
        2 -1    0    0  502    0 -.00000000E+00 -.00000000E+00 -.46982633E+03 0.46982644E+03 0.32000000E+00 0.0000E+00 0.9000E+01
       25  1    1    2    0    0 -.50363680E+02 -.74553944E+02 -.33642257E+03 0.36999991E+03 0.12500000E+03 0.0000E+00 0.9000E+01
       23  1    1    2    0    0 0.11619072E+02 0.42984661E+02 -.85375550E+02 0.13261568E+03 0.91188000E+02 0.0000E+00 0.9000E+01
        2  1    1    2  501    0 0.38744608E+02 0.31569283E+02 0.74323004E+02 0.89564366E+02 0.32000000E+00 0.0000E+00 0.9000E+01
#aMCatNLO 1  0  0  5  1 0.55837819D+01 0.00000000D+00  -5  6  0 0.00000000D+00 0.00000000D+00 0.00000000D+00 0.00000000D+00 0.00000000D+00
  <mgrwgt>
 -.1309748439D+00    8    2    0
 0.239759334379028D+03 0.000000000000000D+00 0.000000000000000D+00 0.239759334379028D+03
 0.239759334379028D+03 -.000000000000000D+00 -.000000000000000D+00 -.239759334379028D+03
 0.213147313581634D+03 -.503637123750109D+02 -.745539707382516D+02 -.147349853104897D+03
 0.101907338929178D+03 0.116190559318774D+02 0.429846480875606D+02 -.933659207991852D+01
 0.164464016247245D+03 0.387446564431335D+02 0.315693226506910D+02 0.156686445184815D+03
 0.000000000000000D+00 0.000000000000000D+00 0.000000000000000D+00 0.000000000000000D+00
 0.239759334379028D+03 0.000000000000000D+00 0.000000000000000D+00 0.239759334379028D+03
 0.239759334379028D+03 -.000000000000000D+00 -.000000000000000D+00 -.239759334379028D+03
 0.213011259048798D+03 -.503226864071300D+02 -.745205425926443D+02 -.147183940856405D+03
 0.101909083713378D+03 0.116386771868419D+02 0.430006355755306D+02 -.925724217795262D+01
 0.676625465263988D+02 0.169338685603696D+02 0.182642248016105D+02 0.629117031275855D+02
 0.969357794694815D+02 0.217501406599184D+02 0.132556822155031D+02 0.935294799067722D+02
0.723910622289D-06 0.000000000000D+00 0.000000000000D+00 0.926121887564D-06 0.000000000000D+00  6 21 2 25 23 2 21 2 0.18823450D-01 0.72281160D-01 0.23327792D+05 0.23327792D+05 0.23327792D+05 0.12265343D+01  1  2  2  3  6  5        2 0.236245317290D-02 0.100000000000D+01
0.653953977653D-07 0.382018130737D-07 -.146136697851D-08 0.926121887564D-06 0.000000000000D+00  6 21 2 25 23 2 21 4 0.18823450D-01 0.72281160D-01 0.23327792D+05 0.23327792D+05 0.23327792D+05 0.12265343D+01  1  2  3  3  6  5        2 0.321059004715D-03 0.100000000000D+01
0.623985665960D-07 0.000000000000D+00 0.000000000000D+00 0.926121887564D-06 0.000000000000D+00  6 21 2 25 23 2 21 4 0.18823450D-01 0.72281160D-01 0.23327792D+05 0.23327792D+05 0.23327792D+05 0.12265343D+01  1  2 15  3  6  5        2 0.306346048369D-03 0.100000000000D+01
0.884855485547D-05 0.000000000000D+00 0.000000000000D+00 0.925945883673D-06 0.000000000000D+00  6 21 2 25 23 2 21 4 0.18823450D-01 0.72281160D-01 0.23385791D+05 0.23385791D+05 0.23385791D+05 0.12264178D+01  1  2 12  3  6  5        2 0.434247170590D-01 0.100000000000D+01
-.555714618527D-04 0.000000000000D+00 0.000000000000D+00 0.926121887564D-06 0.000000000000D+00  6 21 2 25 23 2 21 4 0.18823450D-01 0.72281160D-01 0.23327792D+05 0.23327792D+05 0.23327792D+05 0.12265343D+01  1  2  4  3  6  5        2 -.272828346377D+00 0.100000000000D+01
-.142253565087D-04 0.000000000000D+00 0.000000000000D+00 0.926121887564D-06 0.000000000000D+00  6 21 2 25 23 2 21 4 0.18823450D-01 0.72281160D-01 0.23327792D+05 0.23327792D+05 0.23327792D+05 0.12265343D+01  1  2  5  3  6  5        2 -.698394529042D-01 0.100000000000D+01
0.243462114449D-04 0.000000000000D+00 -.000000000000D+00 0.926121887564D-06 0.000000000000D+00  6 21 2 25 23 2 21 4 0.18823450D-01 0.72281160D-01 0.23327792D+05 0.23327792D+05 0.23327792D+05 0.12265343D+01  1  2  6  3  6  5        2 0.119527836548D+00 0.100000000000D+01
0.932248317625D-05 0.000000000000D+00 0.000000000000D+00 0.926121887564D-06 0.106719786106D-06  6 21 2 25 23 2 21 4 0.18823450D-01 0.72281160D-01 0.23385791D+05 0.23385791D+05 0.23385791D+05 0.12264178D+01  1  2 11  3  6  5        2 0.457505435440D-01 0.100000000000D+01
  </mgrwgt>
  </event>
  <event>
  5     66 0.38225901E-03 0.11888684E+03 0.75467711E-02 0.10946135E+00
       21 -1    0    0  501  502 0.00000000E+00 0.00000000E+00 0.21935168E+03 0.21935296E+03 0.75000000E+00 0.0000E+00 0.9000E+01
        2 -1    0    0  502    0 0.00000000E+00 0.00000000E+00 -.27127156E+04 0.27127156E+04 0.32000000E+00 0.0000E+00 0.9000E+01
       25  1    1    2    0    0 -.68575834E+02 0.26164191E+02 -.12053855E+04 0.12140702E+04 0.12500000E+03 0.0000E+00 0.9000E+01
       23  1    1    2    0    0 0.10342301E+03 0.12888661E+03 -.14667265E+04 0.14788204E+04 0.91188000E+02 0.0000E+00 0.9000E+01
        2  1    1    2  501    0 -.34847179E+02 -.15505081E+03 0.17874811E+03 0.23917790E+03 0.32000000E+00 0.0000E+00 0.9000E+01
#aMCatNLO 1  0  0  1  2 0.64222052D+02 0.00000000D+00  -5  6  0 0.00000000D+00 0.00000000D+00 0.00000000D+00 0.00000000D+00 0.00000000D+00
  <mgrwgt>
 0.2092441666D-01   23    2    0
 0.771388757583014D+03 0.000000000000000D+00 0.000000000000000D+00 0.771388757583014D+03
 0.771388757583014D+03 0.000000000000000D+00 0.000000000000000D+00 -.771388757583014D+03
 0.359269138014646D+03 -.685758333230439D+02 0.261641947605115D+02 -.328728008430026D+03
 0.440063510037359D+03 0.103423013874849D+03 0.128886618551328D+03 -.397533094574336D+03
 0.743444867114022D+03 -.348471805518055D+02 -.155050813311839D+03 0.726261103004362D+03
 0.000000000000000D+00 -.000000000000000D+00 0.000000000000000D+00 0.000000000000000D+00
 0.811295665926101D+03 0.000000000000000D+00 0.000000000000000D+00 0.811295665926101D+03
 0.798334809793665D+03 0.000000000000000D+00 0.000000000000000D+00 -.798334809793665D+03
 0.356533222053287D+03 -.550909232658230D+02 0.198450264561866D+02 -.328728008430026D+03
 0.442066430262093D+03 0.120041348162810D+03 0.121099095248796D+03 -.397533094574336D+03
 0.745513987696690D+03 -.679687315393720D+01 -.168195477435147D+03 0.726261103004362D+03
 0.655168357076956D+02 -.581535517430495D+02 0.272513557301644D+02 0.129608561324352D+02
0.972645913633D-04 0.000000000000D+00 0.000000000000D+00 0.180073601510D-05 0.000000000000D+00  6 21 2 25 23 2 21 2 0.33746512D-01 0.41734096D+00 0.60667582D+05 0.60667582D+05 0.60667582D+05 0.11840526D+01  1  2  2  1  6  1       21 0.442538454208D-02 0.100000000000D+01
0.925037970532D-05 0.513279350178D-05 -.196349186792D-06 0.180073601510D-05 0.000000000000D+00  6 21 2 25 23 2 21 4 0.33746512D-01 0.41734096D+00 0.60667582D+05 0.60667582D+05 0.60667582D+05 0.11840526D+01  1  2  3  1  6  1       21 0.590062160855D-03 0.100000000000D+01
0.114357210358D-04 0.000000000000D+00 0.000000000000D+00 0.180073601510D-05 0.000000000000D+00  6 21 2 25 23 2 21 4 0.33746512D-01 0.41734096D+00 0.60667582D+05 0.60667582D+05 0.60667582D+05 0.11840526D+01  1  2 15  1  6  1       21 0.729460463275D-03 0.100000000000D+01
0.219993483216D-03 0.000000000000D+00 0.000000000000D+00 0.176676489939D-05 0.000000000000D+00  6 21 2 25 23 2 21 4 0.36056206D-01 0.41734096D+00 0.79511538D+05 0.79511538D+05 0.79511538D+05 0.11728307D+01  1  2 12  1  6  1       21 0.115520581115D-01 0.100000000000D+01
-.112840094800D-03 0.000000000000D+00 0.000000000000D+00 0.180073601510D-05 0.000000000000D+00  6 21 2 25 23 2 21 4 0.33746512D-01 0.41734096D+00 0.60667582D+05 0.60667582D+05 0.60667582D+05 0.11840526D+01  1  2  4  1  6  1       21 -.719783103934D-02 0.100000000000D+01
-.961051679999D-03 0.000000000000D+00 -.323023950587D-03 0.180073601510D-05 0.000000000000D+00  6 21 2 25 23 2 21 4 0.37093902D-01 0.41734096D+00 0.60667582D+05 0.60667582D+05 0.60667582D+05 0.11840526D+01  1  2  5  1  6  1       21 -.507414328207D-01 0.100000000000D+01
0.973803491991D-03 0.000000000000D+00 0.317317776421D-03 0.180073601510D-05 0.000000000000D+00  6 21 2 25 23 2 21 4 0.33746512D-01 0.41734096D+00 0.60667582D+05 0.60667582D+05 0.60667582D+05 0.11840526D+01  1  2  6  1  6  1       21 0.621168655814D-01 0.100000000000D+01
0.374709635993D-05 0.000000000000D+00 0.000000000000D+00 0.176676489939D-05 0.000000000000D+00  6 -1 2 25 23 2 -1 4 0.36056206D-01 0.41734096D+00 0.79511538D+05 0.79511538D+05 0.79511538D+05 0.11728307D+01  1  2 12  4  6  1       21 0.184339820585D-04 0.100000000000D+01
0.374709635993D-05 0.000000000000D+00 0.000000000000D+00 0.176676489939D-05 0.000000000000D+00  6 -3 2 25 23 2 -3 4 0.36056206D-01 0.41734096D+00 0.79511538D+05 0.79511538D+05 0.79511538D+05 0.11728307D+01  1  2 12  4  6  1       21 0.102850743031D-04 0.100000000000D+01
-.168177051222D-04 0.000000000000D+00 -.775095608164D-05 0.180073601510D-05 0.000000000000D+00  6 -1 2 25 23 2 -1 4 0.37093902D-01 0.41734096D+00 0.60667582D+05 0.60667582D+05 0.60667582D+05 0.11840526D+01  1  2  5  4  6  1       21 -.832186739875D-04 0.100000000000D+01
-.168177051222D-04 0.000000000000D+00 -.775095608164D-05 0.180073601510D-05 0.000000000000D+00  6 -3 2 25 23 2 -3 4 0.37093902D-01 0.41734096D+00 0.60667582D+05 0.60667582D+05 0.60667582D+05 0.11840526D+01  1  2  5  4  6  1       21 -.459530169162D-04 0.100000000000D+01
0.374709635993D-05 0.000000000000D+00 0.000000000000D+00 0.176676489939D-05 0.000000000000D+00  6 1 2 25 23 2 1 4 0.36056206D-01 0.41734096D+00 0.79511538D+05 0.79511538D+05 0.79511538D+05 0.11728307D+01  1  2 12  5  6  1       21 0.352986629279D-04 0.100000000000D+01
0.374709635993D-05 0.000000000000D+00 0.000000000000D+00 0.176676489939D-05 0.000000000000D+00  6 3 2 25 23 2 3 4 0.36056206D-01 0.41734096D+00 0.79511538D+05 0.79511538D+05 0.79511538D+05 0.11728307D+01  1  2 12  5  6  1       21 0.102865569366D-04 0.100000000000D+01
-.168177051222D-04 0.000000000000D+00 -.775095608164D-05 0.180073601510D-05 0.000000000000D+00  6 1 2 25 23 2 1 4 0.37093902D-01 0.41734096D+00 0.60667582D+05 0.60667582D+05 0.60667582D+05 0.11840526D+01  1  2  5  5  6  1       21 -.161555336783D-03 0.100000000000D+01
-.168177051222D-04 0.000000000000D+00 -.775095608164D-05 0.180073601510D-05 0.000000000000D+00  6 3 2 25 23 2 3 4 0.37093902D-01 0.41734096D+00 0.60667582D+05 0.60667582D+05 0.60667582D+05 0.11840526D+01  1  2  5  5  6  1       21 -.459602914644D-04 0.100000000000D+01
0.374709635993D-05 0.000000000000D+00 0.000000000000D+00 0.176676489939D-05 0.000000000000D+00  6 -2 2 25 23 2 -2 4 0.36056206D-01 0.41734096D+00 0.79511538D+05 0.79511538D+05 0.79511538D+05 0.11728307D+01  1  2 12  6  6  1       21 0.158483275887D-04 0.100000000000D+01
-.168177051222D-04 0.000000000000D+00 -.775095608164D-05 0.180073601510D-05 0.000000000000D+00  6 -2 2 25 23 2 -2 4 0.37093902D-01 0.41734096D+00 0.60667582D+05 0.60667582D+05 0.60667582D+05 0.11840526D+01  1  2  5  6  6  1       21 -.712468630001D-04 0.100000000000D+01
0.374709635993D-05 0.000000000000D+00 0.000000000000D+00 0.176676489939D-05 0.000000000000D+00  6 2 2 25 23 2 2 4 0.36056206D-01 0.41734096D+00 0.79511538D+05 0.79511538D+05 0.79511538D+05 0.11728307D+01  1  2 12  7  6  1       21 0.479496244342D-04 0.100000000000D+01
-.168177051222D-04 0.000000000000D+00 -.775095608164D-05 0.180073601510D-05 0.000000000000D+00  6 2 2 25 23 2 2 4 0.37093902D-01 0.41734096D+00 0.60667582D+05 0.60667582D+05 0.60667582D+05 0.11840526D+01  1  2  5  7  6  1       21 -.220381914638D-03 0.100000000000D+01
0.374709635993D-05 0.000000000000D+00 0.000000000000D+00 0.176676489939D-05 0.000000000000D+00  6 -4 2 25 23 2 -4 4 0.36056206D-01 0.41734096D+00 0.79511538D+05 0.79511538D+05 0.79511538D+05 0.11728307D+01  1  2 12  8  6  1       21 0.868122465838D-05 0.100000000000D+01
-.168177051222D-04 0.000000000000D+00 -.775095608164D-05 0.180073601510D-05 0.000000000000D+00  6 -4 2 25 23 2 -4 4 0.37093902D-01 0.41734096D+00 0.60667582D+05 0.60667582D+05 0.60667582D+05 0.11840526D+01  1  2  5  8  6  1       21 -.386494588416D-04 0.100000000000D+01
0.374709635993D-05 0.000000000000D+00 0.000000000000D+00 0.176676489939D-05 0.000000000000D+00  6 4 2 25 23 2 4 4 0.36056206D-01 0.41734096D+00 0.79511538D+05 0.79511538D+05 0.79511538D+05 0.11728307D+01  1  2 12  9  6  1       21 0.868122465838D-05 0.100000000000D+01
-.168177051222D-04 0.000000000000D+00 -.775095608164D-05 0.180073601510D-05 0.000000000000D+00  6 4 2 25 23 2 4 4 0.37093902D-01 0.41734096D+00 0.60667582D+05 0.60667582D+05 0.60667582D+05 0.11840526D+01  1  2  5  9  6  1       21 -.386494588416D-04 0.100000000000D+01
  </mgrwgt>
  </event>
  <event>
  6     66 -.38225901E-03 0.99187672E+01 0.75467711E-02 0.12168761E+00
       21 -1    0    0  501  502 0.00000000E+00 0.00000000E+00 0.96612690E+01 0.96903363E+01 0.75000000E+00 0.0000E+00 0.9000E+01
        2 -1    0    0  502    0 -.00000000E+00 -.00000000E+00 -.26239289E+04 0.26239290E+04 0.32000000E+00 0.0000E+00 0.9000E+01
       25  1    1    2    0    0 -.45179721E+02 -.45427979E+02 -.18364309E+04 0.18417948E+04 0.12500000E+03 0.0000E+00 0.9000E+01
       23  1    1    2    0    0 0.38484205E+02 0.53308127E+02 -.48754191E+03 0.50033504E+03 0.91188000E+02 0.0000E+00 0.9000E+01
        2  1    1    2  503    0 0.47789413E+01 -.11474711E+02 -.28143027E+03 0.28170482E+03 0.32000000E+00 0.0000E+00 0.9000E+01
       21  1    1    2  501  503 0.19165747E+01 0.35945631E+01 -.88646336E+01 0.97845986E+01 0.75000000E+00 0.0000E+00 0.9000E+01
#aMCatNLO 2  0  0  5  1 0.63915092D+01 0.00000000D+00  -5  6  0 0.00000000D+00 0.00000000D+00 0.00000000D+00 0.00000000D+00 0.00000000D+00
  <mgrwgt>
 -.5985894142D+00    2    2    0
 0.159338585773120D+03 0.000000000000000D+00 0.000000000000000D+00 0.159338585773120D+03
 0.159338585773120D+03 -.000000000000000D+00 -.000000000000000D+00 -.159338585773120D+03
 0.153913639700875D+03 -.489102587215068D+02 -.410374013353193D+02 -.631516173142865D+02
 0.138186265402388D+03 0.351901452070208D+02 0.571850026568095D+02 0.791942027758896D+02
 0.265772664429773D+02 0.137201135144860D+02 -.161476013214901D+02 -.160425854616031D+02
 0.000000000000000D+00 0.000000000000000D+00 0.000000000000000D+00 0.000000000000000D+00
 0.159338585773120D+03 0.000000000000000D+00 0.000000000000000D+00 0.159338585773120D+03
 0.159338585773120D+03 -.000000000000000D+00 -.000000000000000D+00 -.159338585773120D+03
 0.155915705480399D+03 -.450556260164550D+02 -.455740308680296D+02 -.676587428951787D+02
 0.135241942736141D+03 0.385919059826435D+02 0.531813712919639D+02 0.752166090114331D+02
 0.191010158647194D+02 0.428683592085640D+01 -.112529018160306D+02 -.148271388194315D+02
 0.841850746498073D+01 0.217688411295506D+01 0.364556139209631D+01 0.726927270317718D+01
-.155683678326D-04 0.000000000000D+00 0.000000000000D+00 0.144348844403D-06 0.000000000000D+00  6 21 2 25 23 2 21 4 0.14885865D-02 0.40368361D+00 0.18111025D+05 0.18111025D+05 0.18111025D+05 0.12385979D+01  1  2 13  3  6  5        2 -.331126354266D+00 0.100000000000D+01
-.126652087186D-04 0.000000000000D+00 0.000000000000D+00 0.143882782758D-06 0.000000000000D+00  6 21 2 25 23 2 21 4 0.14885865D-02 0.40368361D+00 0.18877720D+05 0.18877720D+05 0.18877720D+05 0.12365968D+01  1  2  8  3  6  5        2 -.267463059898D+00 0.100000000000D+01
  </mgrwgt>
  </event>
  <event>
  5     66 0.38225901E-03 0.25569458E+02 0.75467711E-02 0.11773441E+00
       21 -1    0    0  501  502 0.00000000E+00 0.00000000E+00 0.90926142E+02 0.90929235E+02 0.75000000E+00 0.0000E+00 0.9000E+01
        2 -1    0    0  502    0 0.00000000E+00 0.00000000E+00 -.56171803E+03 0.56171812E+03 0.32000000E+00 0.0000E+00 0.9000E+01
       25  1    1    2    0    0 -.35903529E+02 0.61960722E+02 -.19108087E+03 0.23930126E+03 0.12500000E+03 0.0000E+00 0.9000E+01
       23  1    1    2    0    0 0.44274739E+02 -.37800467E+02 -.33521186E+03 0.35223766E+03 0.91188000E+02 0.0000E+00 0.9000E+01
        2  1    1    2  501    0 -.83712108E+01 -.24160255E+02 0.55500841E+02 0.61108435E+02 0.32000000E+00 0.0000E+00 0.9000E+01
#aMCatNLO 1  0  0  2  1 0.66353100D+02 0.00000000D+00  -5  6  0 0.00000000D+00 0.00000000D+00 0.00000000D+00 0.00000000D+00 0.00000000D+00
  <mgrwgt>
 0.1111214443D+00    4    2    0
 0.225999762210070D+03 0.000000000000000D+00 0.000000000000000D+00 0.225999762210070D+03
 0.225999762210070D+03 0.000000000000000D+00 0.000000000000000D+00 -.225999762210070D+03
 0.146504631169893D+03 -.359035221896722D+02 0.619607408127561D+02 -.266535297200318D+02
 0.159451480569714D+03 0.442747465438464D+02 -.378004468837604D+02 -.117134095573151D+03
 0.146043412680532D+03 -.837122435417422D+01 -.241602939289956D+02 0.143787625293183D+03
 0.000000000000000D+00 0.000000000000000D+00 -.000000000000000D+00 0.000000000000000D+00
 0.281193386760404D+03 0.000000000000000D+00 0.000000000000000D+00 0.281193386760404D+03
 0.249279476544099D+03 0.000000000000000D+00 0.000000000000000D+00 -.249279476544099D+03
 0.158586594926678D+03 -.468485891670485D+02 0.813603535941101D+02 -.266535297200318D+02
 0.153133757210396D+03 0.330608338810173D+02 -.179243178593808D+02 -.117134095573151D+03
 0.145123498549211D+03 -.188167602215235D+02 -.564607637882601D+01 0.143787625293183D+03
 0.736290126182181D+02 0.326045155075547D+02 -.577899593559032D+02 0.319139102163052D+02
0.223846289144D-04 0.000000000000D+00 0.000000000000D+00 0.314492001194D-05 0.000000000000D+00  6 21 2 25 23 2 21 2 0.13988882D-01 0.86418403D-01 0.19295423D+05 0.19295423D+05 0.19295423D+05 0.12355445D+01  1  2  2  2  6  2        2 0.104542589372D+00 0.100000000000D+01
0.513545671046D-05 0.118126932135D-05 -.451881164807D-07 0.314492001194D-05 0.000000000000D+00  6 21 2 25 23 2 21 4 0.13988882D-01 0.86418403D-01 0.19295423D+05 0.19295423D+05 0.19295423D+05 0.12355445D+01  1  2  3  2  6  2        2 0.366133275255D-01 0.100000000000D+01
0.237581190800D-05 0.000000000000D+00 0.000000000000D+00 0.314492001194D-05 0.000000000000D+00  6 21 2 25 23 2 21 4 0.13988882D-01 0.86418403D-01 0.19295423D+05 0.19295423D+05 0.19295423D+05 0.12355445D+01  1  2 15  2  6  2        2 0.169383921296D-01 0.100000000000D+01
-.658850559653D-05 0.000000000000D+00 0.000000000000D+00 0.314492001194D-05 0.000000000000D+00  6 21 2 25 23 2 21 4 0.13988882D-01 0.86418403D-01 0.19295423D+05 0.19295423D+05 0.19295423D+05 0.12355445D+01  1  2  4  2  6  2        2 -.469728647148D-01 0.100000000000D+01
  </mgrwgt>
  </event>
</LesHouchesEvents>
