<event>
 5    0  0.1943430E+001  0.2440426E+03  0.7546771E-02  0.1117129E+00
         21   -1    0    0  503  501  0.00000000000E+00  0.00000000000E+00  0.12162617706E+04  0.12162617706E+04  0.00000000000E+00 0.  1.
         21   -1    0    0  504  502 -0.00000000000E+00 -0.00000000000E+00 -0.21703302362E+03  0.21703302362E+03  0.00000000000E+00 0.  1.
         25    1    1    2    0    0  0.76559525318E+02 -0.19785961760E+03  0.11288372171E+04  0.11553822969E+04  0.12500000000E+03 0.  0.
         21    1    1    2  503  502  0.26770207089E+02  0.41243610279E+02 -0.60494090521E+02  0.77956490200E+02  0.00000000000E+00 0.  1.
         21    1    1    2  504  501 -0.10332973241E+03  0.15661600732E+03 -0.69114379562E+02  0.19995600719E+03  0.00000000000E+00 0.  1.
<mgrwt>
<rscale>  4 0.24404264E+03</rscale>
<asrwt>0</asrwt>
<pdfrwt beam="1">  1       21 0.18711719E+00 0.24404264E+03</pdfrwt>
<pdfrwt beam="2">  1       21 0.33389697E-01 0.24404264E+03</pdfrwt>
<totfact> 0.13398617E+03</totfact>
</mgrwt>
</event>
<event>
 5    0  0.1943430E+001  0.2742305E+03  0.7546771E-02  0.1098883E+00
         21   -1    0    0  504  501  0.00000000000E+00  0.00000000000E+00  0.13585184600E+03  0.13585184600E+03  0.00000000000E+00 0.  1.
         21   -1    0    0  501  502 -0.00000000000E+00 -0.00000000000E+00 -0.10492873691E+04  0.10492873691E+04  0.00000000000E+00 0.  1.
         25    1    1    2    0    0 -0.74971859455E+02 -0.23008848576E+03 -0.48722751075E+02  0.27669549592E+03  0.12500000000E+03 0.  0.
         21    1    1    2  503  502  0.97269342235E+02  0.23563905946E+03 -0.77583900405E+03  0.81664756871E+03  0.00000000000E+00 0.  1.
         21    1    1    2  504  503 -0.22297482781E+02 -0.55505736982E+01 -0.88873768024E+02  0.91796150515E+02  0.00000000000E+00 0. -1.
<mgrwt>
<rscale>  4 0.27423049E+03</rscale>
<asrwt>0</asrwt>
<pdfrwt beam="1">  1       21 0.20900284E-01 0.27423049E+03</pdfrwt>
<pdfrwt beam="2">  1       21 0.16142883E+00 0.27423049E+03</pdfrwt>
<totfact> 0.49195044E+03</totfact>
</mgrwt>
</event>
<event>
 5    0  0.1943430E+001  0.2791984E+03  0.7546771E-02  0.1096128E+00
         21   -1    0    0  503  501  0.00000000000E+00  0.00000000000E+00  0.41491457842E+03  0.41491457842E+03  0.00000000000E+00 0.  1.
         21   -1    0    0  504  502 -0.00000000000E+00 -0.00000000000E+00 -0.67435334421E+03  0.67435334421E+03  0.00000000000E+00 0.  1.
         25    1    1    2    0    0 -0.14356200145E+03 -0.26969502721E+03  0.28444055496E+03  0.43574864919E+03  0.12500000000E+03 0.  0.
         21    1    1    2  503  502  0.23070435567E+02  0.55762599421E+02 -0.40582060983E+01  0.60482902776E+02  0.00000000000E+00 0.  1.
         21    1    1    2  504  501  0.12049156588E+03  0.21393242779E+03 -0.53982111465E+03  0.59303637066E+03  0.00000000000E+00 0.  1.
<mgrwt>
<rscale>  4 0.27919836E+03</rscale>
<asrwt>0</asrwt>
<pdfrwt beam="1">  1       21 0.63833012E-01 0.27919836E+03</pdfrwt>
<pdfrwt beam="2">  1       21 0.10374667E+00 0.27919836E+03</pdfrwt>
<totfact> 0.15915301E+03</totfact>
</mgrwt>
</event>
<event>
 5    0  0.1943430E+001  0.3226240E+03  0.7546771E-02  0.1074448E+00
         21   -1    0    0  503  501  0.00000000000E+00  0.00000000000E+00  0.40052694059E+03  0.40052694059E+03  0.00000000000E+00 0.  1.
         21   -1    0    0  504  502 -0.00000000000E+00 -0.00000000000E+00 -0.79880867843E+03  0.79880867843E+03  0.00000000000E+00 0.  1.
         25    1    1    2    0    0 -0.17934150128E+02  0.30680184543E+03  0.13362341309E+03  0.35767194834E+03  0.12500000000E+03 0.  0.
         21    1    1    2  503  502  0.10190062873E+02 -0.28561369810E+03  0.22611336334E+02  0.28668849724E+03  0.00000000000E+00 0.  1.
         21    1    1    2  504  501  0.77440872550E+01 -0.21188147333E+02 -0.55451648727E+03  0.55497517344E+03  0.00000000000E+00 0.  1.
<mgrwt>
<rscale>  4 0.32262399E+03</rscale>
<asrwt>0</asrwt>
<pdfrwt beam="1">  1       21 0.61619530E-01 0.32262399E+03</pdfrwt>
<pdfrwt beam="2">  1       21 0.12289364E+00 0.32262399E+03</pdfrwt>
<totfact> 0.11012934E+03</totfact>
</mgrwt>
</event>
<event>
 5    0  0.1943430E+001  0.2911549E+03  0.7546771E-02  0.1089748E+00
         21   -1    0    0  503  501  0.00000000000E+00  0.00000000000E+00  0.44911837248E+03  0.44911837248E+03  0.00000000000E+00 0. -1.
         21   -1    0    0  504  502 -0.00000000000E+00 -0.00000000000E+00 -0.68722088753E+03  0.68722088753E+03  0.00000000000E+00 0. -1.
         25    1    1    2    0    0 -0.11466570534E+03 -0.25792607199E+03  0.21470673731E+03  0.37602934146E+03  0.12500000000E+03 0.  0.
         21    1    1    2  503  502  0.10696161482E+03  0.90692875006E+01 -0.49611528751E+03  0.50759572252E+03  0.00000000000E+00 0. -1.
         21    1    1    2  504  501  0.77040905185E+01  0.24885678449E+03  0.43306035149E+02  0.25271419604E+03  0.00000000000E+00 0. -1.
<mgrwt>
<rscale>  4 0.29115492E+03</rscale>
<asrwt>0</asrwt>
<pdfrwt beam="1">  1       21 0.69095134E-01 0.29115492E+03</pdfrwt>
<pdfrwt beam="2">  1       21 0.10572629E+00 0.29115492E+03</pdfrwt>
<totfact> 0.12665127E+03</totfact>
</mgrwt>
</event>
<event>
 5    0  0.1943430E+001  0.2959368E+03  0.7546771E-02  0.1087290E+00
         21   -1    0    0  504  501  0.00000000000E+00  0.00000000000E+00  0.48044944112E+03  0.48044944112E+03  0.00000000000E+00 0.  1.
         21   -1    0    0  503  502 -0.00000000000E+00 -0.00000000000E+00 -0.46966450859E+03  0.46966450859E+03  0.00000000000E+00 0. -1.
         25    1    1    2    0    0 -0.23276170530E+03 -0.57142001676E+02  0.28296223051E+03  0.39132575139E+03  0.12500000000E+03 0.  0.
         21    1    1    2  503  501  0.26892471766E+03  0.41846092853E+02 -0.36656805250E+03  0.45655638904E+03  0.00000000000E+00 0. -1.
         21    1    1    2  504  502 -0.36163012364E+02  0.15295908823E+02  0.94390754520E+02  0.10223180928E+03  0.00000000000E+00 0. -1.
<mgrwt>
<rscale>  4 0.29593676E+03</rscale>
<asrwt>0</asrwt>
<pdfrwt beam="1">  1       21 0.73915298E-01 0.29593676E+03</pdfrwt>
<pdfrwt beam="2">  1       21 0.72256078E-01 0.29593676E+03</pdfrwt>
<totfact> 0.26377132E+03</totfact>
</mgrwt>
</event>
<event>
 5    0  0.1943430E+001  0.3067947E+03  0.7546771E-02  0.1081892E+00
         21   -1    0    0  503  501  0.00000000000E+00  0.00000000000E+00  0.96441055246E+03  0.96441055246E+03  0.00000000000E+00 0. -1.
         21   -1    0    0  504  502 -0.00000000000E+00 -0.00000000000E+00 -0.22811080072E+03  0.22811080072E+03  0.00000000000E+00 0.  1.
         25    1    1    2    0    0  0.12273179630E+03 -0.26913008024E+03  0.68694360969E+03  0.75829454489E+03  0.12500000000E+03 0.  0.
         21    1    1    2  503  502 -0.34959642836E+00  0.49402276672E+02 -0.12083539164E+03  0.13054462467E+03  0.00000000000E+00 0.  1.
         21    1    1    2  504  501 -0.12238219987E+03  0.21972780357E+03  0.17019153369E+03  0.30368218362E+03  0.00000000000E+00 0. -1.
<mgrwt>
<rscale>  4 0.30679470E+03</rscale>
<asrwt>0</asrwt>
<pdfrwt beam="1">  1       21 0.14837085E+00 0.30679470E+03</pdfrwt>
<pdfrwt beam="2">  1       21 0.35093970E-01 0.30679470E+03</pdfrwt>
<totfact> 0.22103416E+03</totfact>
</mgrwt>
</event>
<event>
 5    0  0.1943430E+001  0.3017545E+03  0.7546771E-02  0.1084367E+00
         21   -1    0    0  503  501  0.00000000000E+00  0.00000000000E+00  0.10016813304E+04  0.10016813304E+04  0.00000000000E+00 0. -1.
         21   -1    0    0  504  502 -0.00000000000E+00 -0.00000000000E+00 -0.18072077047E+03  0.18072077047E+03  0.00000000000E+00 0. -1.
         25    1    1    2    0    0  0.36999561053E+02 -0.32081167384E+03  0.69200467547E+03  0.77381171383E+03  0.12500000000E+03 0.  0.
         21    1    1    2  503  502  0.52233418918E+02  0.69620565013E+02  0.11150187373E+03  0.14144971181E+03  0.00000000000E+00 0. -1.
         21    1    1    2  504  501 -0.89232979970E+02  0.25119110882E+03  0.17454010712E+02  0.26714067522E+03  0.00000000000E+00 0. -1.
<mgrwt>
<rscale>  4 0.30175454E+03</rscale>
<asrwt>0</asrwt>
<pdfrwt beam="1">  1       21 0.15410482E+00 0.30175454E+03</pdfrwt>
<pdfrwt beam="2">  1       21 0.27803196E-01 0.30175454E+03</pdfrwt>
<totfact> 0.31750341E+03</totfact>
</mgrwt>
</event>
<event>
 5    0  0.1943430E+001  0.2637133E+03  0.7546771E-02  0.1104933E+00
         21   -1    0    0  504  501  0.00000000000E+00  0.00000000000E+00  0.69350124401E+03  0.69350124401E+03  0.00000000000E+00 0. -1.
         21   -1    0    0  501  502 -0.00000000000E+00 -0.00000000000E+00 -0.14037463149E+03  0.14037463149E+03  0.00000000000E+00 0. -1.
         25    1    1    2    0    0 -0.11156208429E+03  0.20365064460E+03  0.52767345975E+03  0.58990165606E+03  0.12500000000E+03 0.  0.
         21    1    1    2  503  502  0.17097915308E+01 -0.43298204937E+02  0.24130622532E+02  0.49597831420E+02  0.00000000000E+00 0. -1.
         21    1    1    2  504  503  0.10985229276E+03 -0.16035243967E+03  0.13225302351E+01  0.19437638801E+03  0.00000000000E+00 0. -1.
<mgrwt>
<rscale>  4 0.26371326E+03</rscale>
<asrwt>0</asrwt>
<pdfrwt beam="1">  1       21 0.10669250E+00 0.26371326E+03</pdfrwt>
<pdfrwt beam="2">  1       21 0.21596098E-01 0.26371326E+03</pdfrwt>
<totfact> 0.13473165E+04</totfact>
</mgrwt>
</event>
<event>
 5    0  0.1943430E+001  0.2988247E+03  0.7546771E-02  0.1085830E+00
         21   -1    0    0  503  501  0.00000000000E+00  0.00000000000E+00  0.24385263746E+04  0.24385263746E+04  0.00000000000E+00 0.  1.
         21   -1    0    0  504  502 -0.00000000000E+00 -0.00000000000E+00 -0.43061075985E+03  0.43061075985E+03  0.00000000000E+00 0.  1.
         25    1    1    2    0    0 -0.27582711544E+03  0.33605809182E+01  0.11212686787E+03  0.32293857870E+03  0.12500000000E+03 0.  0.
         21    1    1    2  503  502  0.26909635462E+03 -0.33745158453E+02  0.22119476648E+04  0.22285116234E+04  0.00000000000E+00 0.  1.
         21    1    1    2  504  501  0.67307608250E+01  0.30384577535E+02 -0.31615891785E+03  0.31768693242E+03  0.00000000000E+00 0.  1.
<mgrwt>
<rscale>  4 0.29882474E+03</rscale>
<asrwt>0</asrwt>
<pdfrwt beam="1">  1       21 0.37515790E+00 0.29882474E+03</pdfrwt>
<pdfrwt beam="2">  1       21 0.66247811E-01 0.29882474E+03</pdfrwt>
<totfact> 0.21934601E+01</totfact>
</mgrwt>
</event>
<event>
 5    0  0.1943430E+001  0.4260016E+03  0.7546771E-02  0.1035131E+00
         21   -1    0    0  504  501  0.00000000000E+00  0.00000000000E+00  0.15214493095E+03  0.15214493095E+03  0.00000000000E+00 0. -1.
         21   -1    0    0  501  502 -0.00000000000E+00 -0.00000000000E+00 -0.18054982330E+04  0.18054982330E+04  0.00000000000E+00 0. -1.
         25    1    1    2    0    0 -0.40223977400E+03  0.82971129982E+02 -0.26981588621E+03  0.50705685741E+03  0.12500000000E+03 0.  0.
         21    1    1    2  503  502  0.90252264780E+01 -0.27804966353E+02 -0.20224665908E+03  0.20434843277E+03  0.00000000000E+00 0. -1.
         21    1    1    2  504  503  0.39321454752E+03 -0.55166163629E+02 -0.11812907567E+04  0.12462378737E+04  0.00000000000E+00 0. -1.
<mgrwt>
<rscale>  4 0.42600164E+03</rscale>
<asrwt>0</asrwt>
<pdfrwt beam="1">  1       21 0.23406912E-01 0.42600164E+03</pdfrwt>
<pdfrwt beam="2">  1       21 0.27776896E+00 0.42600164E+03</pdfrwt>
<totfact> 0.64340309E+02</totfact>
</mgrwt>
</event>
<event>
 5    0  0.1943430E+001  0.2445596E+03  0.7546771E-02  0.1116792E+00
         21   -1    0    0  502  501  0.00000000000E+00  0.00000000000E+00  0.52758658637E+03  0.52758658637E+03  0.00000000000E+00 0. -1.
         21   -1    0    0  503  502 -0.00000000000E+00 -0.00000000000E+00 -0.17283915932E+03  0.17283915932E+03  0.00000000000E+00 0. -1.
         25    1    1    2    0    0 -0.14358140742E+03  0.15352128856E+03  0.40228790942E+03  0.47079185280E+03  0.12500000000E+03 0.  0.
         21    1    1    2  503  504  0.12329428527E+03 -0.12306019834E+03 -0.68817978252E+02  0.18729977930E+03  0.00000000000E+00 0. -1.
         21    1    1    2  504  501  0.20287122144E+02 -0.30461090221E+02  0.21277495881E+02  0.42334113588E+02  0.00000000000E+00 0. -1.
<mgrwt>
<rscale>  4 0.24455962E+03</rscale>
<asrwt>0</asrwt>
<pdfrwt beam="1">  1       21 0.81167166E-01 0.24455962E+03</pdfrwt>
<pdfrwt beam="2">  1       21 0.26590640E-01 0.24455962E+03</pdfrwt>
<totfact> 0.17387076E+04</totfact>
</mgrwt>
</event>
<event>
 5    0  0.1943430E+001  0.2616427E+03  0.7546771E-02  0.1106160E+00
         21   -1    0    0  504  501  0.00000000000E+00  0.00000000000E+00  0.16667318037E+04  0.16667318037E+04  0.00000000000E+00 0.  1.
         21   -1    0    0  501  502 -0.00000000000E+00 -0.00000000000E+00 -0.43228164819E+02  0.43228164819E+02  0.00000000000E+00 0.  1.
         25    1    1    2    0    0 -0.11054725059E+03 -0.18305309213E+03  0.65653565467E+03  0.70170734284E+03  0.12500000000E+03 0.  0.
         21    1    1    2  503  502 -0.31692525872E+02 -0.11852899932E+02  0.52279501240E+02  0.62274020930E+02  0.00000000000E+00 0. -1.
         21    1    1    2  504  503  0.14223977646E+03  0.19490599206E+03  0.91468848297E+03  0.94597860475E+03  0.00000000000E+00 0.  1.
<mgrwt>
<rscale>  4 0.26164273E+03</rscale>
<asrwt>0</asrwt>
<pdfrwt beam="1">  1       21 0.25642023E+00 0.26164273E+03</pdfrwt>
<pdfrwt beam="2">  1       21 0.66504882E-02 0.26164273E+03</pdfrwt>
<totfact> 0.95028458E+03</totfact>
</mgrwt>
</event>
<event>
 5    0  0.1943430E+001  0.2789105E+03  0.7546771E-02  0.1096285E+00
         21   -1    0    0  502  501  0.00000000000E+00  0.00000000000E+00  0.12136050343E+03  0.12136050343E+03  0.00000000000E+00 0. -1.
         21   -1    0    0  503  502 -0.00000000000E+00 -0.00000000000E+00 -0.68314393789E+03  0.68314393789E+03  0.00000000000E+00 0. -1.
         25    1    1    2    0    0  0.99157872119E+02  0.22876579775E+03 -0.15383365220E+03  0.31852137507E+03  0.12500000000E+03 0.  0.
         21    1    1    2  503  504 -0.10630408942E+03 -0.14606260477E+03 -0.26604861411E+03  0.32158468404E+03  0.00000000000E+00 0. -1.
         21    1    1    2  504  501  0.71462172970E+01 -0.82703192979E+02 -0.14190116815E+03  0.16439838221E+03  0.00000000000E+00 0. -1.
<mgrwt>
<rscale>  4 0.27891051E+03</rscale>
<asrwt>0</asrwt>
<pdfrwt beam="1">  1       21 0.18670846E-01 0.27891051E+03</pdfrwt>
<pdfrwt beam="2">  1       21 0.10509907E+00 0.27891051E+03</pdfrwt>
<totfact> 0.18248207E+04</totfact>
</mgrwt>
</event>
