<event>
 5    0  0.2320167E+000  0.3008497E+03  0.7546771E-02  0.1084817E+00
         21   -1    0    0  502  501  0.00000000000E+00  0.00000000000E+00  0.66354294443E+03  0.66354294443E+03  0.00000000000E+00 0. -1.
         21   -1    0    0  503  502 -0.00000000000E+00 -0.00000000000E+00 -0.14408694999E+03  0.14408694999E+03  0.00000000000E+00 0. -1.
         25    1    1    2    0    0 -0.27126179026E+03 -0.36091477338E+02  0.38544543429E+03  0.48895678378E+03  0.12500000000E+03 0.  0.
         21    1    1    2  503  504  0.21736243892E+03  0.40091811646E+02  0.63768020572E+02  0.23004378640E+03  0.00000000000E+00 0. -1.
         21    1    1    2  504  501  0.53899351339E+02 -0.40003343081E+01  0.70242539582E+02  0.88629324246E+02  0.00000000000E+00 0. -1.
<mgrwt>
<rscale>  4 0.30084972E+03</rscale>
<asrwt>0</asrwt>
<pdfrwt beam="1">  1       21 0.10208353E+00 0.30084972E+03</pdfrwt>
<pdfrwt beam="2">  1       21 0.22167224E-01 0.30084972E+03</pdfrwt>
<totfact> 0.14023128E+04</totfact>
</mgrwt>
</event>
<event>
 5    0  0.1856407E+000  0.2399386E+03  0.7546771E-02  0.1119834E+00
         21   -1    0    0  502  501  0.00000000000E+00  0.00000000000E+00  0.22564706583E+03  0.22564706583E+03  0.00000000000E+00 0.  1.
         21   -1    0    0  503  502 -0.00000000000E+00 -0.00000000000E+00 -0.23672538532E+03  0.23672538532E+03  0.00000000000E+00 0.  1.
         25    1    1    2    0    0 -0.12213085504E+03 -0.16440670536E+03  0.47754599370E+02  0.24464466534E+03  0.12500000000E+03 0.  0.
         21    1    1    2  503  504  0.24139780658E+02  0.58861369408E+02 -0.32055102419E+02  0.71238468610E+02  0.00000000000E+00 0. -1.
         21    1    1    2  504  501  0.97991074380E+02  0.10554533595E+03 -0.26777816433E+02  0.14648931720E+03  0.00000000000E+00 0.  1.
<mgrwt>
<rscale>  4 0.23993856E+03</rscale>
<asrwt>0</asrwt>
<pdfrwt beam="1">  1       21 0.34714933E-01 0.23993856E+03</pdfrwt>
<pdfrwt beam="2">  1       21 0.36419290E-01 0.23993856E+03</pdfrwt>
<totfact> 0.56960196E+04</totfact>
</mgrwt>
</event>
<event>
 5    0  0.1856407E+000  0.2242491E+03  0.7546771E-02  0.1130754E+00
         21   -1    0    0  502  501  0.00000000000E+00  0.00000000000E+00  0.14305579022E+04  0.14305579022E+04  0.00000000000E+00 0.  1.
         21   -1    0    0  503  502 -0.00000000000E+00 -0.00000000000E+00 -0.55482777531E+02  0.55482777531E+02  0.00000000000E+00 0.  1.
         25    1    1    2    0    0 -0.22613433732E+03 -0.85362948953E+02  0.58505245593E+03  0.64524022484E+03  0.12500000000E+03 0.  0.
         21    1    1    2  503  504  0.12223287846E+03  0.10444657830E+03  0.30912879291E+03  0.34844020276E+03  0.00000000000E+00 0.  1.
         21    1    1    2  504  501  0.10390145886E+03 -0.19083629342E+02  0.48089387588E+03  0.49236025217E+03  0.00000000000E+00 0.  1.
<mgrwt>
<rscale>  4 0.22424910E+03</rscale>
<asrwt>0</asrwt>
<pdfrwt beam="1">  1       21 0.22008580E+00 0.22424910E+03</pdfrwt>
<pdfrwt beam="2">  1       21 0.85358130E-02 0.22424910E+03</pdfrwt>
<totfact> 0.10487438E+04</totfact>
</mgrwt>
</event>
<event>
 5    0  0.1856407E+000  0.4969594E+03  0.7546771E-02  0.1014576E+00
         21   -1    0    0  502  501  0.00000000000E+00  0.00000000000E+00  0.94581946218E+03  0.94581946218E+03  0.00000000000E+00 0.  1.
         21   -1    0    0  503  502 -0.00000000000E+00 -0.00000000000E+00 -0.67126249032E+03  0.67126249032E+03  0.00000000000E+00 0. -1.
         25    1    1    2    0    0  0.44984668204E+03  0.17023993213E+03  0.77276074831E+03  0.91876430381E+03  0.12500000000E+03 0.  0.
         21    1    1    2  503  504 -0.34964426359E+02 -0.35518553527E+02 -0.28971374353E+02  0.57649104825E+02  0.00000000000E+00 0. -1.
         21    1    1    2  504  501 -0.41488225568E+03 -0.13472137860E+03 -0.46923240210E+03  0.64066854387E+03  0.00000000000E+00 0. -1.
<mgrwt>
<rscale>  4 0.49695943E+03</rscale>
<asrwt>0</asrwt>
<pdfrwt beam="1">  1       21 0.14551069E+00 0.49695943E+03</pdfrwt>
<pdfrwt beam="2">  1       21 0.10327115E+00 0.49695943E+03</pdfrwt>
<totfact> 0.19642589E+02</totfact>
</mgrwt>
</event>
<event>
 5    0  0.1856407E+000  0.2629503E+03  0.7546771E-02  0.1105383E+00
         21   -1    0    0  502  501  0.00000000000E+00  0.00000000000E+00  0.97337627742E+02  0.97337627742E+02  0.00000000000E+00 0.  1.
         21   -1    0    0  503  502 -0.00000000000E+00 -0.00000000000E+00 -0.13654179678E+04  0.13654179678E+04  0.00000000000E+00 0.  1.
         25    1    1    2    0    0 -0.23671340770E+03 -0.33718973024E+02 -0.14111825395E+03  0.30448245947E+03  0.12500000000E+03 0.  0.
         21    1    1    2  503  504  0.19824200554E+03 -0.54999206354E+01 -0.10068202544E+04  0.10261662470E+04  0.00000000000E+00 0.  1.
         21    1    1    2  504  501  0.38471402157E+02  0.39218893659E+02 -0.12014183172E+03  0.13210688904E+03  0.00000000000E+00 0.  1.
<mgrwt>
<rscale>  4 0.26295030E+03</rscale>
<asrwt>0</asrwt>
<pdfrwt beam="1">  1       21 0.14975021E-01 0.26295030E+03</pdfrwt>
<pdfrwt beam="2">  1       21 0.21006428E+00 0.26295030E+03</pdfrwt>
<totfact> 0.43009052E+03</totfact>
</mgrwt>
</event>
<event>
 5    0  0.1866262E+000  0.2314197E+03  0.7546771E-02  0.1125644E+00
         21   -1    0    0  502  501  0.00000000000E+00  0.00000000000E+00  0.15429867303E+04  0.15429867303E+04  0.00000000000E+00 0.  1.
         21   -1    0    0  503  502 -0.00000000000E+00 -0.00000000000E+00 -0.84813393298E+02  0.84813393298E+02  0.00000000000E+00 0.  1.
         25    1    1    2    0    0  0.22517677259E+03  0.27970458640E+01  0.12769401120E+04  0.13026563062E+04  0.12500000000E+03 0.  0.
         21    1    1    2  503  504 -0.93165063847E+02  0.46308915487E+02  0.11639696359E+02  0.10468871623E+03  0.00000000000E+00 0.  1.
         21    1    1    2  504  501 -0.13201170874E+03 -0.49105961351E+02  0.16959352866E+03  0.22045510120E+03  0.00000000000E+00 0.  1.
<mgrwt>
<rscale>  4 0.23141975E+03</rscale>
<asrwt>0</asrwt>
<pdfrwt beam="1">  1       21 0.23738255E+00 0.23141975E+03</pdfrwt>
<pdfrwt beam="2">  1       21 0.13048215E-01 0.23141975E+03</pdfrwt>
<totfact> 0.38406104E+03</totfact>
</mgrwt>
</event>
<event>
 5    0  0.1856407E+000  0.2615412E+03  0.7546771E-02  0.1106221E+00
         21   -1    0    0  502  501  0.00000000000E+00  0.00000000000E+00  0.68938826520E+02  0.68938826520E+02  0.00000000000E+00 0. -1.
         21   -1    0    0  503  502 -0.00000000000E+00 -0.00000000000E+00 -0.89590801082E+03  0.89590801082E+03  0.00000000000E+00 0. -1.
         25    1    1    2    0    0  0.18858786330E+03  0.13119986633E+03 -0.44140266522E+03  0.51306929354E+03  0.12500000000E+03 0.  0.
         21    1    1    2  503  504 -0.11354865623E+03 -0.58066723330E+02 -0.24777669469E+03  0.27867244593E+03  0.00000000000E+00 0. -1.
         21    1    1    2  504  501 -0.75039207069E+02 -0.73133142997E+02 -0.13778982439E+03  0.17310509787E+03  0.00000000000E+00 0. -1.
<mgrwt>
<rscale>  4 0.26154118E+03</rscale>
<asrwt>0</asrwt>
<pdfrwt beam="1">  1       21 0.10605974E-01 0.26154118E+03</pdfrwt>
<pdfrwt beam="2">  1       21 0.13783200E+00 0.26154118E+03</pdfrwt>
<totfact> 0.26216952E+04</totfact>
</mgrwt>
</event>
<event>
 5    0  0.1856407E+000  0.3222143E+03  0.7546771E-02  0.1074635E+00
         21   -1    0    0  502  501  0.00000000000E+00  0.00000000000E+00  0.93747647159E+03  0.93747647159E+03  0.00000000000E+00 0.  1.
         21   -1    0    0  503  502 -0.00000000000E+00 -0.00000000000E+00 -0.16549922956E+03  0.16549922956E+03  0.00000000000E+00 0.  1.
         25    1    1    2    0    0 -0.66089811025E+02  0.28953271225E+03  0.73283416767E+03  0.80054229863E+03  0.12500000000E+03 0.  0.
         21    1    1    2  503  504  0.57312523880E+01 -0.27683013170E+02 -0.85130403917E+01  0.29524029685E+02  0.00000000000E+00 0.  1.
         21    1    1    2  504  501  0.60358558637E+02 -0.26184969908E+03  0.47656114762E+02  0.27290937284E+03  0.00000000000E+00 0.  1.
<mgrwt>
<rscale>  4 0.32221430E+03</rscale>
<asrwt>0</asrwt>
<pdfrwt beam="1">  1       21 0.14422715E+00 0.32221430E+03</pdfrwt>
<pdfrwt beam="2">  1       21 0.25461421E-01 0.32221430E+03</pdfrwt>
<totfact> 0.44479735E+03</totfact>
</mgrwt>
</event>
<event>
 5    0  0.1856407E+000  0.2372409E+03  0.7546771E-02  0.1121645E+00
         21   -1    0    0  502  501  0.00000000000E+00  0.00000000000E+00  0.85101564858E+02  0.85101564858E+02  0.00000000000E+00 0. -1.
         21   -1    0    0  503  502 -0.00000000000E+00 -0.00000000000E+00 -0.60876169221E+03  0.60876169221E+03  0.00000000000E+00 0. -1.
         25    1    1    2    0    0  0.13767457349E+03 -0.14732263677E+03 -0.20916595896E+03  0.31628096034E+03  0.12500000000E+03 0.  0.
         21    1    1    2  503  504 -0.53429843216E+02  0.97224650560E+02 -0.16669261361E+03  0.20023438330E+03  0.00000000000E+00 0. -1.
         21    1    1    2  504  501 -0.84244730271E+02  0.50097986206E+02 -0.14780155479E+03  0.17734791343E+03  0.00000000000E+00 0. -1.
<mgrwt>
<rscale>  4 0.23724091E+03</rscale>
<asrwt>0</asrwt>
<pdfrwt beam="1">  1       21 0.13092549E-01 0.23724091E+03</pdfrwt>
<pdfrwt beam="2">  1       21 0.93655643E-01 0.23724091E+03</pdfrwt>
<totfact> 0.47040200E+04</totfact>
</mgrwt>
</event>
<event>
 5    0  0.1856407E+000  0.2842611E+03  0.7546771E-02  0.1093384E+00
         21   -1    0    0  502  501  0.00000000000E+00  0.00000000000E+00  0.10511871125E+03  0.10511871125E+03  0.00000000000E+00 0.  1.
         21   -1    0    0  503  502 -0.00000000000E+00 -0.00000000000E+00 -0.70657477701E+03  0.70657477701E+03  0.00000000000E+00 0.  1.
         25    1    1    2    0    0 -0.19693354984E+03 -0.16247018882E+03 -0.31226810267E+03  0.42227449988E+03  0.12500000000E+03 0.  0.
         21    1    1    2  503  504  0.43872837108E+02  0.30034329606E+02 -0.31694901045E+02  0.61898736199E+02  0.00000000000E+00 0.  1.
         21    1    1    2  504  501  0.15306071273E+03  0.13243585921E+03 -0.25749306205E+03  0.32752025218E+03  0.00000000000E+00 0.  1.
<mgrwt>
<rscale>  4 0.28426112E+03</rscale>
<asrwt>0</asrwt>
<pdfrwt beam="1">  1       21 0.16172109E-01 0.28426112E+03</pdfrwt>
<pdfrwt beam="2">  1       21 0.10870381E+00 0.28426112E+03</pdfrwt>
<totfact> 0.21904615E+04</totfact>
</mgrwt>
</event>
<event>
 5    0  0.1856407E+000  0.3216571E+03  0.7546771E-02  0.1074889E+00
         21   -1    0    0  502  501  0.00000000000E+00  0.00000000000E+00  0.45144184759E+03  0.45144184759E+03  0.00000000000E+00 0.  1.
         21   -1    0    0  503  502 -0.00000000000E+00 -0.00000000000E+00 -0.38629006831E+03  0.38629006831E+03  0.00000000000E+00 0.  1.
         25    1    1    2    0    0  0.25107616171E+03 -0.18401805596E+03  0.24971375935E+03  0.41819115905E+03  0.12500000000E+03 0.  0.
         21    1    1    2  503  504 -0.15079008884E+03  0.22258931741E+03 -0.14113247747E+03  0.30364787388E+03  0.00000000000E+00 0.  1.
         21    1    1    2  504  501 -0.10028607288E+03 -0.38571261450E+02 -0.43429502604E+02  0.11589288295E+03  0.00000000000E+00 0.  1.
<mgrwt>
<rscale>  4 0.32165707E+03</rscale>
<asrwt>0</asrwt>
<pdfrwt beam="1">  1       21 0.69452592E-01 0.32165707E+03</pdfrwt>
<pdfrwt beam="2">  1       21 0.59429241E-01 0.32165707E+03</pdfrwt>
<totfact> 0.46054316E+03</totfact>
</mgrwt>
</event>
<event>
 5    0  0.1856407E+000  0.2583466E+03  0.7546771E-02  0.1108141E+00
         21   -1    0    0  502  501  0.00000000000E+00  0.00000000000E+00  0.20317200095E+03  0.20317200095E+03  0.00000000000E+00 0.  1.
         21   -1    0    0  503  502 -0.00000000000E+00 -0.00000000000E+00 -0.97035334788E+03  0.97035334788E+03  0.00000000000E+00 0.  1.
         25    1    1    2    0    0  0.23286981894E+03  0.10103100412E+02  0.84801977125E+02  0.27775312876E+03  0.12500000000E+03 0.  0.
         21    1    1    2  503  504 -0.58938297277E+02 -0.50657234743E+02 -0.12514338752E+03  0.14731172987E+03  0.00000000000E+00 0. -1.
         21    1    1    2  504  501 -0.17393152166E+03  0.40554134331E+02 -0.72683993654E+03  0.74846049020E+03  0.00000000000E+00 0.  1.
<mgrwt>
<rscale>  4 0.25834659E+03</rscale>
<asrwt>0</asrwt>
<pdfrwt beam="1">  1       21 0.31257231E-01 0.25834659E+03</pdfrwt>
<pdfrwt beam="2">  1       21 0.14928513E+00 0.25834659E+03</pdfrwt>
<totfact> 0.28239422E+03</totfact>
</mgrwt>
</event>
<event>
 5    0  0.1856407E+000  0.2769880E+03  0.7546771E-02  0.1097345E+00
         21   -1    0    0  502  501  0.00000000000E+00  0.00000000000E+00  0.20989990038E+03  0.20989990038E+03  0.00000000000E+00 0.  1.
         21   -1    0    0  503  502 -0.00000000000E+00 -0.00000000000E+00 -0.88101598243E+03  0.88101598243E+03  0.00000000000E+00 0.  1.
         25    1    1    2    0    0 -0.33175866160E+02 -0.24494225067E+03  0.86954371366E+02  0.29031604668E+03  0.12500000000E+03 0.  0.
         21    1    1    2  503  504  0.14384150499E+02  0.21780579021E+03 -0.70577344341E+03  0.73875734816E+03  0.00000000000E+00 0.  1.
         21    1    1    2  504  501  0.18791715662E+02  0.27136460458E+02 -0.52297010001E+02  0.61842487973E+02  0.00000000000E+00 0. -1.
<mgrwt>
<rscale>  4 0.27698799E+03</rscale>
<asrwt>0</asrwt>
<pdfrwt beam="1">  1       21 0.32292292E-01 0.27698799E+03</pdfrwt>
<pdfrwt beam="2">  1       21 0.13554092E+00 0.27698799E+03</pdfrwt>
<totfact> 0.33703839E+03</totfact>
</mgrwt>
</event>
<event>
 5    0  0.1031622E+001  0.2430559E+03  0.7546771E-02  0.1117774E+00
         21   -1    0    0  502  501  0.00000000000E+00  0.00000000000E+00  0.21448604003E+04  0.21448604003E+04  0.00000000000E+00 0.  1.
         21   -1    0    0  503  502 -0.00000000000E+00 -0.00000000000E+00 -0.25240315214E+02  0.25240315214E+02  0.00000000000E+00 0.  1.
         25    1    1    2    0    0 -0.16844154186E+03  0.12279504823E+03  0.13065266104E+04  0.13289424218E+04  0.12500000000E+03 0.  0.
         21    1    1    2  503  504  0.15539548599E+03 -0.10169572967E+03  0.64358813196E+03  0.66984734239E+03  0.00000000000E+00 0.  1.
         21    1    1    2  504  501  0.13046055868E+02 -0.21099318562E+02  0.16950534270E+03  0.17131095126E+03  0.00000000000E+00 0. -1.
<mgrwt>
<rscale>  4 0.24305591E+03</rscale>
<asrwt>0</asrwt>
<pdfrwt beam="1">  1       21 0.32997838E+00 0.24305591E+03</pdfrwt>
<pdfrwt beam="2">  1       21 0.38831271E-02 0.24305591E+03</pdfrwt>
<totfact> 0.89508274E+03</totfact>
</mgrwt>
</event>
<event>
 5    0  0.2320352E+000  0.3020065E+03  0.7546771E-02  0.1084242E+00
         21   -1    0    0  502  501  0.00000000000E+00  0.00000000000E+00  0.39563507529E+03  0.39563507529E+03  0.00000000000E+00 0.  1.
         21   -1    0    0  503  502 -0.00000000000E+00 -0.00000000000E+00 -0.38622295198E+03  0.38622295198E+03  0.00000000000E+00 0.  1.
         25    1    1    2    0    0 -0.20967611298E+03 -0.17781685115E+03  0.26509799662E+03  0.40185177954E+03  0.12500000000E+03 0.  0.
         21    1    1    2  503  504  0.16005510470E+03  0.15425527223E+03 -0.17754587534E+03  0.28449053306E+03  0.00000000000E+00 0.  1.
         21    1    1    2  504  501  0.49621008285E+02  0.23561578920E+02 -0.78139997979E+02  0.95515714668E+02  0.00000000000E+00 0.  1.
<mgrwt>
<rscale>  4 0.30200647E+03</rscale>
<asrwt>0</asrwt>
<pdfrwt beam="1">  1       21 0.60866935E-01 0.30200647E+03</pdfrwt>
<pdfrwt beam="2">  1       21 0.59418916E-01 0.30200647E+03</pdfrwt>
<totfact> 0.62203343E+03</totfact>
</mgrwt>
</event>
<event>
 5    0  0.2325102E+000  0.2420925E+03  0.7546771E-02  0.1118407E+00
         21   -1    0    0  502  501  0.00000000000E+00  0.00000000000E+00  0.17252773161E+03  0.17252773161E+03  0.00000000000E+00 0. -1.
         21   -1    0    0  503  502 -0.00000000000E+00 -0.00000000000E+00 -0.45518339792E+03  0.45518339792E+03  0.00000000000E+00 0.  1.
         25    1    1    2    0    0 -0.21998712095E+03 -0.56071184148E+02 -0.18080898808E+02  0.25978881804E+03  0.12500000000E+03 0.  0.
         21    1    1    2  503  504  0.30871761096E+02 -0.15106008780E+02  0.79403311974E+00  0.34378592511E+02  0.00000000000E+00 0.  1.
         21    1    1    2  504  501  0.18911535985E+03  0.71177192928E+02 -0.26536880063E+03  0.33354371898E+03  0.00000000000E+00 0.  1.
<mgrwt>
<rscale>  4 0.24209250E+03</rscale>
<asrwt>0</asrwt>
<pdfrwt beam="1">  1       21 0.26542727E-01 0.24209250E+03</pdfrwt>
<pdfrwt beam="2">  1       21 0.70028216E-01 0.24209250E+03</pdfrwt>
<totfact> 0.24347571E+04</totfact>
</mgrwt>
</event>
<event>
 5    0  0.1856407E+000  0.2456802E+03  0.7546771E-02  0.1116066E+00
         21   -1    0    0  502  501  0.00000000000E+00  0.00000000000E+00  0.76712756659E+03  0.76712756659E+03  0.00000000000E+00 0.  1.
         21   -1    0    0  503  502 -0.00000000000E+00 -0.00000000000E+00 -0.58712716796E+03  0.58712716796E+03  0.00000000000E+00 0.  1.
         25    1    1    2    0    0  0.17826980129E+03 -0.11665081857E+03  0.71330300958E+03  0.75486006584E+03  0.12500000000E+03 0.  0.
         21    1    1    2  503  504 -0.13630846003E+03  0.10460077563E+03 -0.52819705596E+03  0.55543986935E+03  0.00000000000E+00 0.  1.
         21    1    1    2  504  501 -0.41961341257E+02  0.12050042942E+02 -0.51055550006E+01  0.43954799361E+02  0.00000000000E+00 0. -1.
<mgrwt>
<rscale>  4 0.24568018E+03</rscale>
<asrwt>0</asrwt>
<pdfrwt beam="1">  1       21 0.11801963E+00 0.24568018E+03</pdfrwt>
<pdfrwt beam="2">  1       21 0.90327256E-01 0.24568018E+03</pdfrwt>
<totfact> 0.54393506E+02</totfact>
</mgrwt>
</event>
