<LesHouchesEvents version="3.0">
  <!--
  <scalesfunctionalform>
    muR  H_T/2 := sum_i mT(i)/2, i=final state
    muF1 H_T/2 := sum_i mT(i)/2, i=final state
    muF2 H_T/2 := sum_i mT(i)/2, i=final state
    QES  H_T/2 := sum_i mT(i)/2, i=final state
  </scalesfunctionalform>
HERWIG6   
  -->
  <header>
      137
  </header>
  <init>
   2212   2212 0.65000000D+04 0.65000000D+04 -1 -1   247000   247000 -3   1
 0.25850497D-01 0.64398981D-03 0.42185105D-03     66
  </init>
  <event>
  6     66 -.42185105E-03 0.30542496E+02 0.75467711E-02 0.11732326E+00
       -2 -1    0    0    0  501 0.00000000E+00 0.00000000E+00 0.39798704E+02 0.39799991E+02 0.32000000E+00 0.0000E+00 0.9000E+01
        2 -1    0    0  502    0 -.00000000E+00 -.00000000E+00 -.81876376E+03 0.81876382E+03 0.32000000E+00 0.0000E+00 0.9000E+01
       25  1    1    2    0    0 0.49272187E+02 -.87072564E+02 -.46162190E+03 0.48859918E+03 0.12500000E+03 0.0000E+00 0.9000E+01
       23  1    1    2    0    0 -.82092081E+02 0.93658432E+02 -.27200957E+03 0.31275465E+03 0.91188000E+02 0.0000E+00 0.9000E+01
       21  1    1    2  502  503 0.25810659E+02 -.15216726E+01 -.30192377E+02 0.39757361E+02 0.75000000E+00 0.0000E+00 0.9000E+01
       21  1    1    2  503  501 0.70092342E+01 -.50641962E+01 -.15141210E+02 0.17452627E+02 0.75000000E+00 0.0000E+00 0.9000E+01
#aMCatNLO 2  0  0  5  2 0.41373246D+01 0.00000000D+00  -5  6  0 0.00000000D+00 0.00000000D+00 0.00000000D+00 0.00000000D+00 0.00000000D+00
  <mgrwgt>
 -.4505381541D-02    4    2    0
 0.180516802115013D+03 0.000000000000000D+00 0.000000000000000D+00 0.180516802115013D+03
 0.180516802115013D+03 -.000000000000000D+00 -.000000000000000D+00 -.180516802115013D+03
 0.165784115853632D+03 0.487428847471540D+02 -.869663502649962D+02 -.438218915324543D+02
 0.157146440932718D+03 -.825931371992535D+02 0.937589779920975D+02 0.277016296864061D+02
 0.381030474436758D+02 0.338502524520995D+02 -.679262772710128D+01 0.161202618460481D+02
 0.000000000000000D+00 0.000000000000000D+00 -.000000000000000D+00 0.000000000000000D+00
 0.180516802115013D+03 0.000000000000000D+00 0.000000000000000D+00 0.180516802115013D+03
 0.180516802115013D+03 -.000000000000000D+00 -.000000000000000D+00 -.180516802115013D+03
 0.165929199312310D+03 0.492699008599520D+02 -.870721049935757D+02 -.435709144460230D+02
 0.156867137557557D+03 -.820942418943758D+02 0.936588661809484D+02 0.279392150030821D+02
 0.291273178280465D+02 0.255568813734827D+02 -.137181625563323D+01 0.139055592652200D+02
 0.910994953211166D+01 0.726745966094097D+01 -.521494493173943D+01 0.172614017772092D+01
-.853556557591D-05 0.000000000000D+00 0.000000000000D+00 0.824930863296D-05 0.000000000000D+00  6 -2 2 25 23 21 21 4 0.61229813D-02 0.12596376D+00 0.30450954D+05 0.30450954D+05 0.30450954D+05 0.12142189D+01  1  2 13  3  6  5       21 -.900142792290D-02 0.100000000000D+01
-.867297422375D-05 0.000000000000D+00 0.000000000000D+00 0.824930863296D-05 0.000000000000D+00  6 -2 2 25 23 21 21 4 0.61229813D-02 0.12596376D+00 0.30450954D+05 0.30450954D+05 0.30450954D+05 0.12142189D+01  1  2 13  3  6  5       21 -.914633619272D-02 0.100000000000D+01
-.180597931751D-04 0.000000000000D+00 0.000000000000D+00 0.824897532600D-05 0.000000000000D+00  6 -2 2 25 23 21 21 4 0.61229813D-02 0.12596376D+00 0.30467375D+05 0.30467375D+05 0.30467375D+05 0.12141944D+01  1  2  8  3  6  5       21 -.190441273810D-01 0.100000000000D+01
0.309948434358D-04 0.000000000000D+00 0.000000000000D+00 0.824897532600D-05 0.271989925788D-05  6 -2 2 25 23 21 21 4 0.61229813D-02 0.12596376D+00 0.30450954D+05 0.30450954D+05 0.30450954D+05 0.12142189D+01  1  2  1  3  6  5       21 0.326865099551D-01 0.100000000000D+01
  </mgrwgt>
  </event>
  <event>
  5     66 0.42185105E-03 0.78650892E+02 0.75467711E-02 0.11189607E+00
       -2 -1    0    0    0  501 0.00000000E+00 0.00000000E+00 0.60110746E+02 0.60111598E+02 0.32000000E+00 0.0000E+00 0.9000E+01
        2 -1    0    0  502    0 0.00000000E+00 0.00000000E+00 -.52515733E+03 0.52515743E+03 0.32000000E+00 0.0000E+00 0.9000E+01
       25  1    1    2    0    0 0.28438346E+02 -.11126985E+03 -.19835097E+03 0.26107054E+03 0.12500000E+03 0.0000E+00 0.9000E+01
       23  1    1    2    0    0 0.76216846E+01 0.41375244E+02 -.11049264E+03 0.14931134E+03 0.91188000E+02 0.0000E+00 0.9000E+01
       21  1    1    2  502  501 -.36060030E+02 0.69894609E+02 -.15620298E+03 0.17488715E+03 0.75000000E+00 0.0000E+00 0.9000E+01
#aMCatNLO 1  0  0  1  1 0.11678249D+03 0.00000000D+00  -5  6  0 0.00000000D+00 0.00000000D+00 0.00000000D+00 0.00000000D+00 0.00000000D+00
  <mgrwgt>
 0.3422805168D-01    3    2    0
 0.177673510967738D+03 0.000000000000000D+00 0.000000000000000D+00 0.177673510967738D+03
 0.177673510967738D+03 0.000000000000000D+00 0.000000000000000D+00 -.177673510967738D+03
 0.170409281485510D+03 0.284390412515979D+02 -.111271201453048D+03 0.149754424406306D+02
 0.101317822787441D+03 0.762209815833764D+01 0.413744420707383D+02 0.134204706842593D+02
 0.836199176625262D+02 -.360611394099356D+02 0.698967593823101D+02 -.283959131248899D+02
 0.000000000000000D+00 -.000000000000000D+00 0.000000000000000D+00 -.000000000000000D+00
 0.214298637935723D+03 0.000000000000000D+00 0.000000000000000D+00 0.214298637935723D+03
 0.312023205652535D+03 0.000000000000000D+00 0.000000000000000D+00 -.312023205652535D+03
 0.215679447020339D+03 0.595507135268912D+02 -.164687803158414D+03 0.149754424406306D+02
 0.961599997203631D+02 0.235351897403631D+02 0.140527581889917D+02 0.134204706842593D+02
 0.622055436940266D+02 -.243102810497963D+02 0.497213437001966D+02 -.283959131248899D+02
 0.152276853153530D+03 -.587756222174581D+02 0.100913701269226D+03 -.977245677168124D+02
0.539999731199D-04 0.000000000000D+00 0.000000000000D+00 0.214916803411D-05 0.000000000000D+00  6 -2 2 25 23 21 21 2 0.92478801D-02 0.80793508D-01 0.30419884D+05 0.30419884D+05 0.30419884D+05 0.12142654D+01  1  2  2  1  6  1       -2 0.344848515090D-01 0.100000000000D+01
-.192774184353D-05 0.284965687144D-05 -.207374115300D-06 0.214916803411D-05 0.000000000000D+00  6 -2 2 25 23 21 21 4 0.92478801D-02 0.80793508D-01 0.30419884D+05 0.30419884D+05 0.30419884D+05 0.12142654D+01  1  2  3  1  6  1       -2 -.181514329192D-02 0.100000000000D+01
0.165501198672D-05 0.000000000000D+00 0.000000000000D+00 0.214916803411D-05 0.000000000000D+00  6 -2 2 25 23 21 21 4 0.92478801D-02 0.80793508D-01 0.30419884D+05 0.30419884D+05 0.30419884D+05 0.12142654D+01  1  2 15  1  6  1       -2 0.155834346587D-02 0.100000000000D+01
  </mgrwgt>
  </event>
  <event>
  5     66 0.42185105E-03 0.22871336E+02 0.75467711E-02 0.98959965E-01
       -2 -1    0    0    0  501 0.00000000E+00 0.00000000E+00 0.41754530E+02 0.41755756E+02 0.32000000E+00 0.0000E+00 0.9000E+01
        2 -1    0    0  502    0 0.00000000E+00 0.00000000E+00 -.37495285E+03 0.37495299E+03 0.32000000E+00 0.0000E+00 0.9000E+01
       25  1    1    2    0    0 0.38900969E+02 -.19398449E+02 -.17151461E+03 0.21663759E+03 0.12500000E+03 0.0000E+00 0.9000E+01
       23  1    1    2    0    0 -.25441559E+02 0.92018945E+00 -.12437112E+03 0.15630594E+03 0.91188000E+02 0.0000E+00 0.9000E+01
       21  1    1    2  502  501 -.13459410E+02 0.18478259E+02 -.37312588E+02 0.43765209E+02 0.75000000E+00 0.0000E+00 0.9000E+01
#aMCatNLO 1  0  0  2  5 0.94573088D+01 0.00000000D+00  -5  6  0 0.00000000D+00 0.00000000D+00 0.00000000D+00 0.00000000D+00 0.00000000D+00
  <mgrwgt>
 0.1773364173D+00    5    4    0
 0.125124992799912D+03 0.000000000000000D+00 0.000000000000000D+00 0.125124992799912D+03
 0.125124992799912D+03 0.000000000000000D+00 0.000000000000000D+00 -.125124992799912D+03
 0.132375096920636D+03 0.389046933547133D+02 -.194035620787532D+02 0.284480199303605D+01
 0.946797934868477D+02 -.254388951296620D+02 0.916532190687419D+00 0.101712046367757D+01
 0.231950951923397D+02 -.134657982250513D+02 0.184870298880657D+02 -.386192245671363D+01
 0.000000000000000D+00 0.000000000000000D+00 0.000000000000000D+00 -.000000000000000D+00
 0.422497227211232D+03 0.000000000000000D+00 0.000000000000000D+00 0.422497227211232D+03
 0.109603761858508D+04 0.000000000000000D+00 0.000000000000000D+00 -.109603761858508D+04
 0.271803763747591D+03 -.200556814212884D+03 -.134242904325538D+03 0.284480199303605D+01
 0.290678056758155D+03 -.253749627710067D+03 -.108575196245099D+03 0.101712046367757D+01
 0.680326782821074D+02 -.675149885565525D+02 -.743351796820602D+01 -.386192245671363D+01
 0.888020347008455D+03 0.521821430479503D+03 0.250251618538843D+03 -.673540391373844D+03
 0.125124992799912D+03 0.000000000000000D+00 0.000000000000000D+00 0.125124992799912D+03
 0.125124992799912D+03 0.000000000000000D+00 0.000000000000000D+00 -.125124992799912D+03
 0.132375096920636D+03 0.389046933547133D+02 -.194035620787532D+02 0.284480199303605D+01
 0.946797934868477D+02 -.254388951296620D+02 0.916532190687419D+00 0.101712046367757D+01
 0.000000000000000D+00 0.000000000000000D+00 0.000000000000000D+00 -.000000000000000D+00
 0.231950951923397D+02 -.134657982250513D+02 0.184870298880657D+02 -.386192245671363D+01
 0.422497227211232D+03 0.000000000000000D+00 0.000000000000000D+00 0.422497227211232D+03
 0.109603761858508D+04 0.000000000000000D+00 0.000000000000000D+00 -.109603761858508D+04
 0.271803763747591D+03 -.200556814212884D+03 -.134242904325538D+03 0.284480199303605D+01
 0.290678056758155D+03 -.253749627710067D+03 -.108575196245099D+03 0.101712046367757D+01
 0.888020347008455D+03 0.521821430479503D+03 0.250251618538843D+03 -.673540391373844D+03
 0.680326782821074D+02 -.675149885565525D+02 -.743351796820602D+01 -.386192245671363D+01
0.804251751417D-04 0.000000000000D+00 0.000000000000D+00 0.289107428918D-04 0.000000000000D+00  6 -2 2 25 23 21 21 2 0.64238786D-02 0.57685159D-01 0.15611277D+05 0.15611277D+05 0.15611277D+05 0.12458498D+01  1  2  2  2  6  2        2 0.134115641223D+00 0.100000000000D+01
0.146830244987D-04 0.424415309375D-05 -.308853848979D-06 0.289107428918D-04 0.000000000000D+00  6 -2 2 25 23 21 21 4 0.64238786D-02 0.57685159D-01 0.15611277D+05 0.15611277D+05 0.15611277D+05 0.12458498D+01  1  2  3  2  6  2        2 0.380044363035D-01 0.100000000000D+01
0.145707273091D-05 0.000000000000D+00 0.000000000000D+00 0.289107428918D-04 0.000000000000D+00  6 -2 2 25 23 21 21 4 0.64238786D-02 0.57685159D-01 0.15611277D+05 0.15611277D+05 0.15611277D+05 0.12458498D+01  1  2 15  2  6  2        2 0.377137747039D-02 0.100000000000D+01
0.301913763353D-03 0.000000000000D+00 -.152968319427D-03 0.289107428918D-04 0.000000000000D+00  6 -2 2 25 23 21 21 4 0.64238786D-02 0.71084148D+00 0.15611277D+05 0.15611277D+05 0.15611277D+05 0.12458498D+01  1  2  5  2  6  2        2 0.143832463968D-02 0.100000000000D+01
0.583754172090D-04 0.000000000000D+00 -.445542971424D-04 0.289107428918D-04 0.000000000000D+00  6 -2 21 25 23 -2 21 4 0.64238786D-02 0.71084148D+00 0.15611277D+05 0.15611277D+05 0.15611277D+05 0.12458498D+01  3  4  5  5  5  2        2 0.663768093933D-05 0.100000000000D+01
  </mgrwgt>
  </event>
  <event>
  5     66 0.42185105E-03 0.21809105E+02 0.75467711E-02 0.10175157E+00
       -2 -1    0    0    0  501 0.00000000E+00 0.00000000E+00 0.25188805E+03 0.25188825E+03 0.32000000E+00 0.0000E+00 0.9000E+01
        2 -1    0    0  502    0 0.00000000E+00 0.00000000E+00 -.32760105E+03 0.32760120E+03 0.32000000E+00 0.0000E+00 0.9000E+01
       25  1    1    2    0    0 -.87461098E+02 -.23343005E+03 -.38407802E+02 0.28149457E+03 0.12500000E+03 0.0000E+00 0.9000E+01
       23  1    1    2    0    0 0.10892237E+03 0.22960186E+03 -.47122415E+02 0.27407457E+03 0.91188000E+02 0.0000E+00 0.9000E+01
       21  1    1    2  502  501 -.21461273E+02 0.38281950E+01 0.98172215E+01 0.23920319E+02 0.75000000E+00 0.0000E+00 0.9000E+01
#aMCatNLO 1  0  0  2  5 0.17407817D+01 0.00000000D+00  -5  6  0 0.00000000D+00 0.00000000D+00 0.00000000D+00 0.00000000D+00 0.00000000D+00
  <mgrwgt>
 0.1033357330D+01    3    2    0
 0.287261019880828D+03 0.000000000000000D+00 0.000000000000000D+00 0.287261019880828D+03
 0.287261019880828D+03 0.000000000000000D+00 0.000000000000000D+00 -.287261019880828D+03
 0.278866145541424D+03 -.874565616994024D+02 -.233430862124834D+03 -.164607184110215D+01
 0.270235489425085D+03 0.108926768192555D+03 0.229601073648317D+03 -.114137877797213D+02
 0.254204047951463D+02 -.214702064931527D+02 0.382978847651699D+01 0.130598596208235D+02
 0.000000000000000D+00 -.000000000000000D+00 -.000000000000000D+00 0.000000000000000D+00
 0.715651592756506D+03 0.000000000000000D+00 0.000000000000000D+00 0.715651592756506D+03
 0.393932213397066D+03 0.000000000000000D+00 0.000000000000000D+00 -.393932213397066D+03
 0.180718450995308D+03 -.489081249751733D+02 -.120993571271577D+03 -.164607184110215D+01
 0.448958068916594D+03 0.169250346452410D+03 0.405551651427504D+03 -.114137877797213D+02
 0.272132210478536D+02 -.170554719466404D+02 0.167065957980998D+02 0.130598596208235D+02
 0.452694065193817D+03 -.103286749530596D+03 -.301264675954026D+03 0.321719379359440D+03
0.717636103806D-02 0.000000000000D+00 0.000000000000D+00 0.158529222891D-04 0.000000000000D+00  6 -2 2 25 23 21 21 2 0.38752036D-01 0.50400189D-01 0.81414560D+05 0.81414560D+05 0.81414560D+05 0.11718650D+01  1  2  2  2  6  2        2 0.622112472224D+00 0.100000000000D+01
0.338839604210D-02 0.378706976365D-03 -.275591159654D-04 0.158529222891D-04 0.000000000000D+00  6 -2 2 25 23 21 21 4 0.38752036D-01 0.50400189D-01 0.81414560D+05 0.81414560D+05 0.81414560D+05 0.11718650D+01  1  2  3  2  6  2        2 0.403379631933D+00 0.100000000000D+01
0.660680403006D-04 0.000000000000D+00 0.000000000000D+00 0.158529222891D-04 0.000000000000D+00  6 -2 2 25 23 21 21 4 0.38752036D-01 0.50400189D-01 0.81414560D+05 0.81414560D+05 0.81414560D+05 0.11718650D+01  1  2 15  2  6  2        2 0.786522633360D-02 0.100000000000D+01
  </mgrwgt>
  </event>
  <event>
  5     66 0.42185105E-03 0.32285381E+02 0.75467711E-02 0.12309925E+00
       -2 -1    0    0    0  501 0.00000000E+00 0.00000000E+00 0.21043771E+02 0.21046204E+02 0.32000000E+00 0.0000E+00 0.9000E+01
        2 -1    0    0  502    0 -.00000000E+00 -.00000000E+00 -.84929715E+03 0.84929721E+03 0.32000000E+00 0.0000E+00 0.9000E+01
       25  1    1    2    0    0 -.17193632E+02 0.33954470E+01 -.52682339E+03 0.54173336E+03 0.12500000E+03 0.0000E+00 0.9000E+01
       23  1    1    2    0    0 -.12606762E+02 -.15805205E+02 -.25874896E+03 0.27509092E+03 0.91188000E+02 0.0000E+00 0.9000E+01
       21  1    1    2  502  501 0.29800394E+02 0.12409758E+02 -.42681026E+02 0.53519137E+02 0.75000000E+00 0.0000E+00 0.9000E+01
#aMCatNLO 1  0  0  5  2 0.92474830D+01 0.00000000D+00  -5  6  0 0.00000000D+00 0.00000000D+00 0.00000000D+00 0.00000000D+00 0.00000000D+00
  <mgrwgt>
 0.1272257383D+01   25    2    0
 0.133691809251776D+03 0.000000000000000D+00 0.000000000000000D+00 0.133691809251776D+03
 0.133691809251776D+03 -.000000000000000D+00 -.000000000000000D+00 -.133691809251776D+03
 0.131462962566202D+03 -.171959694463318D+02 0.339447379016681D+01 -.367462475522528D+02
 0.939246515832165D+02 -.126084316105699D+02 -.158058999017881D+02 0.988887312310433D+01
 0.419960043541330D+02 0.298044010569017D+02 0.124114261116213D+02 0.268573744291485D+02
 0.000000000000000D+00 0.000000000000000D+00 0.000000000000000D+00 0.000000000000000D+00
 0.133691809251776D+03 0.000000000000000D+00 0.000000000000000D+00 0.133691809251776D+03
 0.133691809251776D+03 -.000000000000000D+00 -.000000000000000D+00 -.133691809251776D+03
 0.130581854683003D+03 -.147093662204067D+02 0.442996825115490D+01 -.345055169377406D+02
 0.937631191061540D+02 -.108274194121144D+02 -.150642342241983D+02 0.114937807803822D+02
 0.327045278218608D+02 0.279999715063379D+02 0.286848650405812D+01 0.166541142325604D+02
 0.103341168925340D+02 -.246318587381685D+01 0.776577946898522D+01 0.635762192479807D+01
0.230582458618D-03 0.000000000000D+00 0.000000000000D+00 0.150957855495D-04 0.000000000000D+00  6 -2 2 25 23 21 21 2 0.32376950D-02 0.13066129D+00 0.15864778D+05 0.15864778D+05 0.15864778D+05 0.12450570D+01  1  2  2  3  6  5       21 0.422739359708D+00 0.100000000000D+01
0.147661506219D-04 0.121681706429D-04 -.885497354849D-06 0.150957855495D-04 0.000000000000D+00  6 -2 2 25 23 21 21 4 0.32376950D-02 0.13066129D+00 0.15864778D+05 0.15864778D+05 0.15864778D+05 0.12450570D+01  1  2  3  3  6  5       21 0.419654755041D-01 0.100000000000D+01
0.114251455073D-04 0.000000000000D+00 0.000000000000D+00 0.150957855495D-04 0.000000000000D+00  6 -2 2 25 23 21 21 4 0.32376950D-02 0.13066129D+00 0.15864778D+05 0.15864778D+05 0.15864778D+05 0.12450570D+01  1  2 15  3  6  5       21 0.324703219001D-01 0.100000000000D+01
0.156779084706D-03 0.000000000000D+00 0.000000000000D+00 0.150640784995D-04 0.000000000000D+00  6 -2 2 25 23 21 21 4 0.32376950D-02 0.13066129D+00 0.16293244D+05 0.16293244D+05 0.16293244D+05 0.12437487D+01  1  2 12  3  6  5       21 0.444086082709D+00 0.100000000000D+01
0.212160165098D-03 0.000000000000D+00 0.000000000000D+00 0.150640784995D-04 0.000000000000D+00  6 -2 2 25 23 21 21 4 0.32376950D-02 0.13066129D+00 0.16293244D+05 0.16293244D+05 0.16293244D+05 0.12437487D+01  1  2 12  3  6  5       21 0.600956287009D+00 0.100000000000D+01
-.224789046194D-03 0.000000000000D+00 0.000000000000D+00 0.150957855495D-04 0.000000000000D+00  6 -2 2 25 23 21 21 4 0.32376950D-02 0.13066129D+00 0.15864778D+05 0.15864778D+05 0.15864778D+05 0.12450570D+01  1  2  4  3  6  5       21 -.638851617677D+00 0.100000000000D+01
-.307371648779D-03 0.000000000000D+00 0.000000000000D+00 0.150957855495D-04 0.000000000000D+00  6 -2 2 25 23 21 21 4 0.32376950D-02 0.13066129D+00 0.15864778D+05 0.15864778D+05 0.15864778D+05 0.12450570D+01  1  2  5  3  6  5       21 -.873551796118D+00 0.100000000000D+01
0.440287507386D-03 0.000000000000D+00 -.000000000000D+00 0.150957855495D-04 0.000000000000D+00  6 -2 2 25 23 21 21 4 0.32376950D-02 0.13066129D+00 0.15864778D+05 0.15864778D+05 0.15864778D+05 0.12450570D+01  1  2  6  3  6  5       21 0.125129934531D+01 0.100000000000D+01
0.115163909354D-07 0.000000000000D+00 0.000000000000D+00 0.150957855495D-04 0.849964586967D-06  6 -2 2 25 23 21 21 4 0.32376950D-02 0.13066129D+00 0.16293244D+05 0.16293244D+05 0.16293244D+05 0.12437487D+01  1  2 11  3  6  5       21 0.326208623238D-04 0.100000000000D+01
0.266030167114D-05 0.000000000000D+00 0.000000000000D+00 0.150640784995D-04 0.000000000000D+00  6 -2 2 25 23 1 -1 4 0.32376950D-02 0.13066129D+00 0.16293244D+05 0.16293244D+05 0.16293244D+05 0.12437487D+01  1  2 12  6  6  5       21 0.753546271928D-02 0.100000000000D+01
0.266030167114D-05 0.000000000000D+00 0.000000000000D+00 0.150640784995D-04 0.000000000000D+00  6 -2 2 25 23 3 -3 4 0.32376950D-02 0.13066129D+00 0.16293244D+05 0.16293244D+05 0.16293244D+05 0.12437487D+01  1  2 12  6  6  5       21 0.753546271928D-02 0.100000000000D+01
0.322587878446D-05 0.000000000000D+00 0.000000000000D+00 0.150640784995D-04 0.000000000000D+00  6 -2 2 25 23 1 -1 4 0.32376950D-02 0.13066129D+00 0.16293244D+05 0.16293244D+05 0.16293244D+05 0.12437487D+01  1  2 12  6  6  5       21 0.913749353350D-02 0.100000000000D+01
0.322587878446D-05 0.000000000000D+00 0.000000000000D+00 0.150640784995D-04 0.000000000000D+00  6 -2 2 25 23 3 -3 4 0.32376950D-02 0.13066129D+00 0.16293244D+05 0.16293244D+05 0.16293244D+05 0.12437487D+01  1  2 12  6  6  5       21 0.913749353350D-02 0.100000000000D+01
-.664890439521D-05 0.000000000000D+00 0.000000000000D+00 0.150957855495D-04 0.000000000000D+00  6 -2 2 25 23 1 -1 4 0.32376950D-02 0.13066129D+00 0.15864778D+05 0.15864778D+05 0.15864778D+05 0.12450570D+01  1  2  5  6  6  5       21 -.188962202589D-01 0.100000000000D+01
-.664890439521D-05 0.000000000000D+00 0.000000000000D+00 0.150957855495D-04 0.000000000000D+00  6 -2 2 25 23 3 -3 4 0.32376950D-02 0.13066129D+00 0.15864778D+05 0.15864778D+05 0.15864778D+05 0.12450570D+01  1  2  5  6  6  5       21 -.188962202589D-01 0.100000000000D+01
0.400482188886D-09 0.000000000000D+00 0.000000000000D+00 0.150957855495D-04 0.365194341595D-07  6 -2 2 25 23 1 -1 4 0.32376950D-02 0.13066129D+00 0.16293244D+05 0.16293244D+05 0.16293244D+05 0.12437487D+01  1  2 11  6  6  5       21 0.113438962085D-05 0.100000000000D+01
0.400482188886D-09 0.000000000000D+00 0.000000000000D+00 0.150957855495D-04 0.365194341595D-07  6 -2 2 25 23 3 -3 4 0.32376950D-02 0.13066129D+00 0.16293244D+05 0.16293244D+05 0.16293244D+05 0.12437487D+01  1  2 11  6  6  5       21 0.113438962085D-05 0.100000000000D+01
0.266030167114D-05 0.000000000000D+00 0.000000000000D+00 0.150640784995D-04 0.000000000000D+00  6 -2 2 25 23 2 -2 4 0.32376950D-02 0.13066129D+00 0.16293244D+05 0.16293244D+05 0.16293244D+05 0.12437487D+01  1  2 12  7  6  5       21 0.753546271928D-02 0.100000000000D+01
0.322587878446D-05 0.000000000000D+00 0.000000000000D+00 0.150640784995D-04 0.000000000000D+00  6 -2 2 25 23 2 -2 4 0.32376950D-02 0.13066129D+00 0.16293244D+05 0.16293244D+05 0.16293244D+05 0.12437487D+01  1  2 12  7  6  5       21 0.913749353350D-02 0.100000000000D+01
-.664890439521D-05 0.000000000000D+00 0.000000000000D+00 0.150957855495D-04 0.000000000000D+00  6 -2 2 25 23 2 -2 4 0.32376950D-02 0.13066129D+00 0.15864778D+05 0.15864778D+05 0.15864778D+05 0.12450570D+01  1  2  5  7  6  5       21 -.188962202589D-01 0.100000000000D+01
0.335605959023D-09 0.000000000000D+00 0.000000000000D+00 0.150957855495D-04 0.424908262124D-07  6 -2 2 25 23 2 -2 4 0.32376950D-02 0.13066129D+00 0.16293244D+05 0.16293244D+05 0.16293244D+05 0.12437487D+01  1  2 11  7  6  5       21 0.950623840904D-06 0.100000000000D+01
0.266030167114D-05 0.000000000000D+00 0.000000000000D+00 0.150640784995D-04 0.000000000000D+00  6 -2 2 25 23 4 -4 4 0.32376950D-02 0.13066129D+00 0.16293244D+05 0.16293244D+05 0.16293244D+05 0.12437487D+01  1  2 12  8  6  5       21 0.753546271928D-02 0.100000000000D+01
0.322587878446D-05 0.000000000000D+00 0.000000000000D+00 0.150640784995D-04 0.000000000000D+00  6 -2 2 25 23 4 -4 4 0.32376950D-02 0.13066129D+00 0.16293244D+05 0.16293244D+05 0.16293244D+05 0.12437487D+01  1  2 12  8  6  5       21 0.913749353350D-02 0.100000000000D+01
-.664890439521D-05 0.000000000000D+00 0.000000000000D+00 0.150957855495D-04 0.000000000000D+00  6 -2 2 25 23 4 -4 4 0.32376950D-02 0.13066129D+00 0.15864778D+05 0.15864778D+05 0.15864778D+05 0.12450570D+01  1  2  5  8  6  5       21 -.188962202589D-01 0.100000000000D+01
0.402473826299D-09 0.000000000000D+00 0.000000000000D+00 0.150957855495D-04 0.367010489064D-07  6 -2 2 25 23 4 -4 4 0.32376950D-02 0.13066129D+00 0.16293244D+05 0.16293244D+05 0.16293244D+05 0.12437487D+01  1  2 11  8  6  5       21 0.114003105229D-05 0.100000000000D+01
  </mgrwgt>
  </event>
  <event>
  5     66 0.42185105E-03 0.22041847E+02 0.75467711E-02 0.10083456E+00
       -2 -1    0    0    0  501 0.00000000E+00 0.00000000E+00 0.24655086E+03 0.24655106E+03 0.32000000E+00 0.0000E+00 0.9000E+01
        2 -1    0    0  502    0 0.00000000E+00 0.00000000E+00 -.81237492E+02 0.81238122E+02 0.32000000E+00 0.0000E+00 0.9000E+01
       25  1    1    2    0    0 0.57402505E+02 -.84360556E+01 0.98615337E+02 0.16945855E+03 0.12500000E+03 0.0000E+00 0.9000E+01
       23  1    1    2    0    0 -.76372717E+02 0.19637423E+02 0.49290913E+02 0.13024310E+03 0.91188000E+02 0.0000E+00 0.9000E+01
       21  1    1    2  502  501 0.18970212E+02 -.11201367E+02 0.17407113E+02 0.28087535E+02 0.75000000E+00 0.0000E+00 0.9000E+01
#aMCatNLO 1  0  0  1  2 0.11171461D+03 0.00000000D+00  -5  6  0 0.00000000D+00 0.00000000D+00 0.00000000D+00 0.00000000D+00 0.00000000D+00
  <mgrwgt>
 0.2254515818D+00    3    2    0
 0.141524946320717D+03 0.000000000000000D+00 0.000000000000000D+00 0.141524946320717D+03
 0.141524946320717D+03 0.000000000000000D+00 0.000000000000000D+00 -.141524946320717D+03
 0.138645336779188D+03 0.573972732406570D+02 -.843296661133258D+01 0.152304796143739D+02
 0.122044961882442D+03 -.763773215044986D+02 0.196401416166500D+02 -.189865998526112D+02
 0.223595939798034D+02 0.189800482638416D+02 -.112071750053174D+02 0.375612023823736D+01
 0.000000000000000D+00 0.000000000000000D+00 0.000000000000000D+00 -.000000000000000D+00
 0.492629838079923D+03 0.000000000000000D+00 0.000000000000000D+00 0.492629838079923D+03
 0.555500651276671D+03 0.000000000000000D+00 0.000000000000000D+00 -.555500651276671D+03
 0.261774760203060D+03 -.486191314275677D+01 -.229445896391019D+03 0.152304796143739D+02
 0.244716135608390D+03 -.133403049481083D+03 -.182794614522115D+03 -.189865998526112D+02
 0.539078509191816D+02 0.712162981097564D+01 -.533031925902759D+02 0.375612023823736D+01
 0.487731742625961D+03 0.131143332812864D+03 0.465543703503410D+03 -.628708131967477D+02
0.346416168071D-03 0.000000000000D+00 0.000000000000D+00 0.254299671396D-04 0.000000000000D+00  6 -2 2 25 23 21 21 2 0.37930965D-01 0.12498140D-01 0.19657040D+05 0.19657040D+05 0.19657040D+05 0.12346539D+01  1  2  2  1  6  1       -2 0.162942382638D+00 0.100000000000D+01
0.799662882570D-04 0.182808834280D-04 -.133032929887D-05 0.254299671396D-04 0.000000000000D+00  6 -2 2 25 23 21 21 4 0.37930965D-01 0.12498140D-01 0.19657040D+05 0.19657040D+05 0.19657040D+05 0.12346539D+01  1  2  3  1  6  1       -2 0.573367812287D-01 0.100000000000D+01
0.721385212424D-05 0.000000000000D+00 0.000000000000D+00 0.254299671396D-04 0.000000000000D+00  6 -2 2 25 23 21 21 4 0.37930965D-01 0.12498140D-01 0.19657040D+05 0.19657040D+05 0.19657040D+05 0.12346539D+01  1  2 15  1  6  1       -2 0.517241790359D-02 0.100000000000D+01
  </mgrwgt>
  </event>
  <event>
  5     66 -.42185105E-03 0.34449641E+02 0.75467711E-02 0.12204030E+00
       -2 -1    0    0    0  501 0.00000000E+00 0.00000000E+00 0.10503627E+02 0.10508501E+02 0.32000000E+00 0.0000E+00 0.9000E+01
        2 -1    0    0  502    0 0.00000000E+00 0.00000000E+00 -.17814423E+04 0.17814423E+04 0.32000000E+00 0.0000E+00 0.9000E+01
       25  1    1    2    0    0 -.10429234E+02 0.25233257E+02 -.11702832E+04 0.11772566E+04 0.12500000E+03 0.0000E+00 0.9000E+01
       23  1    1    2    0    0 -.17007164E+02 -.44072192E+01 -.49266100E+03 0.50133700E+03 0.91188000E+02 0.0000E+00 0.9000E+01
       21  1    1    2  502  501 0.27436398E+02 -.20826038E+02 -.10799446E+03 0.11335716E+03 0.75000000E+00 0.0000E+00 0.9000E+01
#aMCatNLO 1  0  0  1  2 0.14387868D+02 0.00000000D+00  -5  6  0 0.00000000D+00 0.00000000D+00 0.00000000D+00 0.00000000D+00 0.00000000D+00
  <mgrwgt>
 -.1065647648D+00    7    4    0
 0.136806424242241D+03 0.000000000000000D+00 0.000000000000000D+00 0.136806424242241D+03
 0.136806424242241D+03 0.000000000000000D+00 0.000000000000000D+00 -.136806424242241D+03
 0.135543988153912D+03 -.104312627007590D+02 0.252347970449981D+02 -.447388701380953D+02
 0.946549278299265D+02 -.170085806185591D+02 -.440614394626719D+01 0.183193367607932D+02
 0.434139325006430D+02 0.274398433193182D+02 -.208286530987309D+02 0.264195333773022D+02
 0.000000000000000D+00 0.000000000000000D+00 0.000000000000000D+00 0.000000000000000D+00
 0.146879191864245D+03 0.000000000000000D+00 0.000000000000000D+00 0.146879191864245D+03
 0.142231576755414D+03 0.000000000000000D+00 0.000000000000000D+00 -.142231576755414D+03
 0.136142061460966D+03 -.175326325198868D+02 0.245092063219233D+02 -.447388701380953D+02
 0.956990163708011D+02 -.219840799355655D+02 -.491452137752849D+01 0.183193367607932D+02
 0.421498008508982D+02 0.252033659054213D+02 -.210571677804362D+02 0.264195333773022D+02
 0.151198899369947D+02 0.143133465500310D+02 0.146248283604138D+01 0.464761510883124D+01
 0.136806424242241D+03 0.000000000000000D+00 0.000000000000000D+00 0.136806424242241D+03
 0.136806424242241D+03 0.000000000000000D+00 0.000000000000000D+00 -.136806424242241D+03
 0.135543988153912D+03 -.104312627007590D+02 0.252347970449981D+02 -.447388701380953D+02
 0.946549278299265D+02 -.170085806185591D+02 -.440614394626719D+01 0.183193367607932D+02
 0.000000000000000D+00 0.000000000000000D+00 0.000000000000000D+00 0.000000000000000D+00
 0.434139325006430D+02 0.274398433193182D+02 -.208286530987309D+02 0.264195333773022D+02
 0.146879191864245D+03 0.000000000000000D+00 0.000000000000000D+00 0.146879191864245D+03
 0.142231576755414D+03 0.000000000000000D+00 0.000000000000000D+00 -.142231576755414D+03
 0.136142061460966D+03 -.175326325198868D+02 0.245092063219233D+02 -.447388701380953D+02
 0.956990163708011D+02 -.219840799355655D+02 -.491452137752849D+01 0.183193367607932D+02
 0.151198899369947D+02 0.143133465500310D+02 0.146248283604138D+01 0.464761510883124D+01
 0.421498008508982D+02 0.252033659054213D+02 -.210571677804362D+02 0.264195333773022D+02
0.406176632713D-04 0.000000000000D+00 0.000000000000D+00 0.125538929365D-04 0.000000000000D+00  6 -2 2 25 23 21 21 2 0.16163197D-02 0.27406842D+00 0.16289746D+05 0.16289746D+05 0.16289746D+05 0.12437592D+01  1  2  2  1  6  1       -2 0.628499567467D-01 0.100000000000D+01
0.217467643686D-05 0.214345297887D-05 -.155982521838D-06 0.125538929365D-04 0.000000000000D+00  6 -2 2 25 23 21 21 4 0.16163197D-02 0.27406842D+00 0.16289746D+05 0.16289746D+05 0.16289746D+05 0.12437592D+01  1  2  3  1  6  1       -2 0.520543867786D-02 0.100000000000D+01
0.157099422524D-05 0.000000000000D+00 0.000000000000D+00 0.125538929365D-04 0.000000000000D+00  6 -2 2 25 23 21 21 4 0.16163197D-02 0.27406842D+00 0.16289746D+05 0.16289746D+05 0.16289746D+05 0.12437592D+01  1  2 15  1  6  1       -2 0.376042797178D-02 0.100000000000D+01
-.214029763737D-04 0.000000000000D+00 0.000000000000D+00 0.125538929365D-04 0.000000000000D+00  6 -2 2 25 23 21 21 4 0.16163197D-02 0.27406842D+00 0.16289746D+05 0.16289746D+05 0.16289746D+05 0.12437592D+01  1  2  4  1  6  1       -2 -.512314747834D-01 0.100000000000D+01
-.368843716638D-03 0.000000000000D+00 -.752786299002D-04 0.125538929365D-04 0.000000000000D+00  6 -2 2 25 23 21 21 4 0.18133271D-02 0.27406842D+00 0.16289746D+05 0.16289746D+05 0.16289746D+05 0.12437592D+01  1  2  5  1  6  1       -2 -.747795985867D+00 0.100000000000D+01
0.375510478106D-03 0.000000000000D+00 0.747834794232D-04 0.125538929365D-04 0.000000000000D+00  6 -2 2 25 23 21 21 4 0.16163197D-02 0.27406842D+00 0.16289746D+05 0.16289746D+05 0.16289746D+05 0.12437592D+01  1  2  6  1  6  1       -2 0.898844873445D+00 0.100000000000D+01
-.643015955380D-05 0.000000000000D+00 -.137806256522D-05 0.125538929365D-04 0.000000000000D+00  6 21 2 25 23 2 21 4 0.18133271D-02 0.27406842D+00 0.16289746D+05 0.16289746D+05 0.16289746D+05 0.12437592D+01  3  4  5  4  5  1       -2 -.278198001036D+00 0.100000000000D+01
  </mgrwgt>
  </event>
  <event>
  5     66 0.42185105E-03 0.58948908E+02 0.75467711E-02 0.12039638E+00
       -2 -1    0    0    0  501 0.00000000E+00 0.00000000E+00 0.74866461E+02 0.74867145E+02 0.32000000E+00 0.0000E+00 0.9000E+01
        2 -1    0    0  502    0 -.00000000E+00 -.00000000E+00 -.62216285E+03 0.62216293E+03 0.32000000E+00 0.0000E+00 0.9000E+01
       25  1    1    2    0    0 0.35295335E+02 -.72294865E+02 -.48615682E+03 0.50837561E+03 0.12500000E+03 0.0000E+00 0.9000E+01
       23  1    1    2    0    0 0.31419941E+01 0.48249950E+01 -.25991472E+01 0.91406562E+02 0.91188000E+02 0.0000E+00 0.9000E+01
       21  1    1    2  502  501 -.38437329E+02 0.67469870E+02 -.58540424E+02 0.97247906E+02 0.75000000E+00 0.0000E+00 0.9000E+01
#aMCatNLO 1  0  0  5  2 0.27780931D+02 0.00000000D+00  -5  6  0 0.00000000D+00 0.00000000D+00 0.00000000D+00 0.00000000D+00 0.00000000D+00
  <mgrwgt>
 0.3801740301D-01   14    2    0
 0.215822607760572D+03 0.000000000000000D+00 0.000000000000000D+00 0.215822607760572D+03
 0.215822607760572D+03 -.000000000000000D+00 -.000000000000000D+00 -.215822607760572D+03
 0.204523617318900D+03 0.352960818525359D+02 -.722961757634522D+02 -.140471917538870D+03
 0.144309439731109D+03 0.314252117912399D+01 0.482406983926263D+01 0.111699668586488D+03
 0.828121584711354D+02 -.384386030316599D+02 0.674721059241896D+02 0.287722489523821D+02
 0.000000000000000D+00 0.000000000000000D+00 0.000000000000000D+00 -.000000000000000D+00
 0.215822607760572D+03 0.000000000000000D+00 0.000000000000000D+00 0.215822607760572D+03
 0.215822607760572D+03 -.000000000000000D+00 -.000000000000000D+00 -.215822607760572D+03
 0.197408331936159D+03 0.296729926404560D+02 -.624258464326456D+02 -.136262895619989D+03
 0.147062570075598D+03 -.933817634157128D+00 0.119793549563116D+02 0.114750909419912D+03
 0.567296059979867D+02 -.239017109480152D+02 0.289556295199268D+02 0.425267907271296D+02
 0.304447075114012D+02 -.483746405828364D+01 0.214908619564072D+02 -.210148045270526D+02
0.596986427788D-04 0.000000000000D+00 0.000000000000D+00 0.963951205311D-06 0.000000000000D+00  6 -2 2 25 23 21 21 2 0.11517976D-01 0.95717421D-01 0.25229378D+05 0.25229378D+05 0.25229378D+05 0.12228726D+01  1  2  2  3  6  5       21 0.224606089562D-01 0.100000000000D+01
-.359094202722D-05 0.315038393135D-05 -.229258507284D-06 0.963951205311D-06 0.000000000000D+00  6 -2 2 25 23 21 21 4 0.11517976D-01 0.95717421D-01 0.25229378D+05 0.25229378D+05 0.25229378D+05 0.12228726D+01  1  2  3  3  6  5       21 -.202035598408D-02 0.100000000000D+01
0.254048084431D-05 0.000000000000D+00 0.000000000000D+00 0.963951205311D-06 0.000000000000D+00  6 -2 2 25 23 21 21 4 0.11517976D-01 0.95717421D-01 0.25229378D+05 0.25229378D+05 0.25229378D+05 0.12228726D+01  1  2 15  3  6  5       21 0.142933960986D-02 0.100000000000D+01
0.244113834166D-04 0.000000000000D+00 0.000000000000D+00 0.975249881829D-06 0.000000000000D+00  6 -2 2 25 23 21 21 4 0.11517976D-01 0.95717421D-01 0.21666115D+05 0.21666115D+05 0.21666115D+05 0.12300185D+01  1  2 12  3  6  5       21 0.140267809016D-01 0.100000000000D+01
0.287574024871D-04 0.000000000000D+00 0.000000000000D+00 0.975249881829D-06 0.000000000000D+00  6 -2 2 25 23 21 21 4 0.11517976D-01 0.95717421D-01 0.21666115D+05 0.21666115D+05 0.21666115D+05 0.12300185D+01  1  2 12  3  6  5       21 0.165240034579D-01 0.100000000000D+01
-.302149703248D-04 0.000000000000D+00 0.000000000000D+00 0.963951205311D-06 0.000000000000D+00  6 -2 2 25 23 21 21 4 0.11517976D-01 0.95717421D-01 0.25229378D+05 0.25229378D+05 0.25229378D+05 0.12228726D+01  1  2  4  3  6  5       21 -.169997164091D-01 0.100000000000D+01
0.526455463878D-06 0.000000000000D+00 0.000000000000D+00 0.975249881829D-06 0.000000000000D+00  6 -2 2 25 23 1 -1 4 0.11517976D-01 0.95717421D-01 0.21666115D+05 0.21666115D+05 0.21666115D+05 0.12300185D+01  1  2 12  6  6  5       21 0.302501309339D-03 0.100000000000D+01
0.526455463878D-06 0.000000000000D+00 0.000000000000D+00 0.975249881829D-06 0.000000000000D+00  6 -2 2 25 23 3 -3 4 0.11517976D-01 0.95717421D-01 0.21666115D+05 0.21666115D+05 0.21666115D+05 0.12300185D+01  1  2 12  6  6  5       21 0.302501309339D-03 0.100000000000D+01
0.603348955624D-06 0.000000000000D+00 0.000000000000D+00 0.975249881829D-06 0.000000000000D+00  6 -2 2 25 23 1 -1 4 0.11517976D-01 0.95717421D-01 0.21666115D+05 0.21666115D+05 0.21666115D+05 0.12300185D+01  1  2 12  6  6  5       21 0.346684309665D-03 0.100000000000D+01
0.603348955624D-06 0.000000000000D+00 0.000000000000D+00 0.975249881829D-06 0.000000000000D+00  6 -2 2 25 23 3 -3 4 0.11517976D-01 0.95717421D-01 0.21666115D+05 0.21666115D+05 0.21666115D+05 0.12300185D+01  1  2 12  6  6  5       21 0.346684309665D-03 0.100000000000D+01
0.526455463878D-06 0.000000000000D+00 0.000000000000D+00 0.975249881829D-06 0.000000000000D+00  6 -2 2 25 23 2 -2 4 0.11517976D-01 0.95717421D-01 0.21666115D+05 0.21666115D+05 0.21666115D+05 0.12300185D+01  1  2 12  7  6  5       21 0.302501309339D-03 0.100000000000D+01
0.603348955624D-06 0.000000000000D+00 0.000000000000D+00 0.975249881829D-06 0.000000000000D+00  6 -2 2 25 23 2 -2 4 0.11517976D-01 0.95717421D-01 0.21666115D+05 0.21666115D+05 0.21666115D+05 0.12300185D+01  1  2 12  7  6  5       21 0.346684309665D-03 0.100000000000D+01
0.526455463878D-06 0.000000000000D+00 0.000000000000D+00 0.975249881829D-06 0.000000000000D+00  6 -2 2 25 23 4 -4 4 0.11517976D-01 0.95717421D-01 0.21666115D+05 0.21666115D+05 0.21666115D+05 0.12300185D+01  1  2 12  8  6  5       21 0.302501309339D-03 0.100000000000D+01
0.603348955624D-06 0.000000000000D+00 0.000000000000D+00 0.975249881829D-06 0.000000000000D+00  6 -2 2 25 23 4 -4 4 0.11517976D-01 0.95717421D-01 0.21666115D+05 0.21666115D+05 0.21666115D+05 0.12300185D+01  1  2 12  8  6  5       21 0.346684309665D-03 0.100000000000D+01
  </mgrwgt>
  </event>
  <event>
  6     66 -.42185105E-03 0.18156216E+02 0.75467711E-02 0.12294263E+00
       -2 -1    0    0    0  501 0.00000000E+00 0.00000000E+00 0.42478509E+04 0.42478509E+04 0.32000000E+00 0.0000E+00 0.9000E+01
        2 -1    0    0  503    0 0.00000000E+00 0.00000000E+00 -.56976054E+01 0.57065846E+01 0.32000000E+00 0.0000E+00 0.9000E+01
       25  1    1    2    0    0 -.13524195E+02 0.11623466E+02 0.96339597E+03 0.97163512E+03 0.12500000E+03 0.0000E+00 0.9000E+01
       23  1    1    2    0    0 0.41802528E+01 0.75834118E+01 0.21604587E+04 0.21623996E+04 0.91188000E+02 0.0000E+00 0.9000E+01
       21  1    1    2  502  501 -.36502119E+01 -.25001195E+02 0.10068410E+04 0.10071583E+04 0.75000000E+00 0.0000E+00 0.9000E+01
       21  1    1    2  503  502 0.12994154E+02 0.57943173E+01 0.11145767E+03 0.11236457E+03 0.75000000E+00 0.0000E+00 0.9000E+01
#aMCatNLO 2  0  0  2  5 0.14227514D+02 0.00000000D+00  -5  6  0 0.00000000D+00 0.00000000D+00 0.00000000D+00 0.00000000D+00 0.00000000D+00
  <mgrwgt>
 -.5115101431D-02    2    2    0
 0.147164942377309D+03 0.000000000000000D+00 0.000000000000000D+00 0.147164942377309D+03
 0.147164942377309D+03 0.000000000000000D+00 0.000000000000000D+00 -.147164942377309D+03
 0.149917130910634D+03 -.690512440379145D+01 0.145771471449777D+02 -.811786436112234D+02
 0.104694261643306D+03 0.878973071466332D+01 0.964033994453573D+01 0.497538094697733D+02
 0.397184922006787D+02 -.188460631087187D+01 -.242174870895134D+02 0.314248341414501D+02
 0.000000000000000D+00 0.000000000000000D+00 0.000000000000000D+00 -.000000000000000D+00
 0.151315139061369D+03 0.000000000000000D+00 0.000000000000000D+00 0.151315139061369D+03
 0.160056971085442D+03 0.000000000000000D+00 0.000000000000000D+00 -.160056971085442D+03
 0.150110055568327D+03 -.135241003523934D+02 0.116256317603164D+02 -.811786436112234D+02
 0.104238670308249D+03 0.418040824729685D+01 0.758496366262448D+01 0.497538094697733D+02
 0.403248277748497D+02 -.365046231872876D+01 -.250049126995713D+02 0.314248341414501D+02
 0.166985564953857D+02 0.129941544238253D+02 0.579431727663047D+01 -.874183202407317D+01
-.497478724295D-02 0.000000000000D+00 0.000000000000D+00 0.186276515395D-04 0.000000000000D+00  6 -2 2 25 23 21 21 4 0.63555703D+00 0.92275235D-03 0.16558756D+05 0.16558756D+05 0.16558756D+05 0.12429572D+01  1  2 13  2  6  2        2 -.849565218250D-02 0.100000000000D+01
0.208891644012D-02 0.000000000000D+00 0.000000000000D+00 0.188044484127D-04 0.304727282123D-06  6 -2 2 25 23 21 21 4 0.65348036D+00 0.87719818D-03 0.16558756D+05 0.16558756D+05 0.16558756D+05 0.12429572D+01  1  2  1  2  6  2        2 0.338055075117D-02 0.100000000000D+01
  </mgrwgt>
  </event>
  <event>
  5     66 0.42185105E-03 0.32439717E+02 0.75467711E-02 0.11898426E+00
       -2 -1    0    0    0  501 0.00000000E+00 0.00000000E+00 0.10806077E+03 0.10806124E+03 0.32000000E+00 0.0000E+00 0.9000E+01
        2 -1    0    0  502    0 0.00000000E+00 0.00000000E+00 -.54404558E+03 0.54404567E+03 0.32000000E+00 0.0000E+00 0.9000E+01
       25  1    1    2    0    0 -.48067985E+02 0.44308428E+02 0.47487335E+02 0.14884158E+03 0.12500000E+03 0.0000E+00 0.9000E+01
       23  1    1    2    0    0 0.25749837E+02 -.20775096E+02 -.42928875E+03 0.44011219E+03 0.91188000E+02 0.0000E+00 0.9000E+01
       21  1    1    2  502  501 0.22318148E+02 -.23533332E+02 -.54183399E+02 0.63153153E+02 0.75000000E+00 0.0000E+00 0.9000E+01
#aMCatNLO 1  0  0  1  2 0.43795884D+02 0.00000000D+00  -5  6  0 0.00000000D+00 0.00000000D+00 0.00000000D+00 0.00000000D+00 0.00000000D+00
  <mgrwgt>
 0.1377995438D+00    4    2    0
 0.242466841200285D+03 0.000000000000000D+00 0.000000000000000D+00 0.242466841200285D+03
 0.242466841200285D+03 0.000000000000000D+00 0.000000000000000D+00 -.242466841200285D+03
 0.242848700510660D+03 -.480703828391398D+02 0.443109566238471D+02 0.197677183196479D+03
 0.205875520589715D+03 0.257478035301053D+02 -.207729519954477D+02 -.181590235731044D+03
 0.362094613001954D+02 0.223225793090346D+02 -.235380046283994D+02 -.160869474654348D+02
 0.000000000000000D+00 0.000000000000000D+00 0.000000000000000D+00 -.000000000000000D+00
 0.258776134405790D+03 0.000000000000000D+00 0.000000000000000D+00 0.258776134405790D+03
 0.274748884311461D+03 0.000000000000000D+00 0.000000000000000D+00 -.274748884311461D+03
 0.247664905599817D+03 -.700144149658461D+02 0.416487503565525D+02 0.197677183196479D+03
 0.204630928853333D+03 0.738303932666445D+01 -.230009286078356D+02 -.181590235731044D+03
 0.346115034945909D+02 0.191542726456898D+02 -.239223772818464D+02 -.160869474654348D+02
 0.466176807695092D+02 0.434771029934919D+02 0.527455553312945D+01 -.159727499056706D+02
0.530402830418D-03 0.000000000000D+00 0.000000000000D+00 0.296946849456D-05 0.000000000000D+00  6 -2 2 25 23 21 21 2 0.16624777D-01 0.83699364D-01 0.18293646D+05 0.18293646D+05 0.18293646D+05 0.12381128D+01  1  2  2  1  6  1       -2 0.130722408162D+00 0.100000000000D+01
0.410956110292D-04 0.279901263464D-04 -.203688652708D-05 0.296946849456D-05 0.000000000000D+00  6 -2 2 25 23 21 21 4 0.16624777D-01 0.83699364D-01 0.18293646D+05 0.18293646D+05 0.18293646D+05 0.12381128D+01  1  2  3  1  6  1       -2 0.155260169321D-01 0.100000000000D+01
0.505266616104D-05 0.000000000000D+00 0.000000000000D+00 0.296946849456D-05 0.000000000000D+00  6 -2 2 25 23 21 21 4 0.16624777D-01 0.83699364D-01 0.18293646D+05 0.18293646D+05 0.18293646D+05 0.12381128D+01  1  2 15  1  6  1       -2 0.190890896629D-02 0.100000000000D+01
-.274158994013D-04 0.000000000000D+00 0.000000000000D+00 0.296946849456D-05 0.000000000000D+00  6 -2 2 25 23 21 21 4 0.16624777D-01 0.83699364D-01 0.18293646D+05 0.18293646D+05 0.18293646D+05 0.12381128D+01  1  2  4  1  6  1       -2 -.103577902276D-01 0.100000000000D+01
  </mgrwgt>
  </event>
  <event>
  5     66 0.42185105E-03 0.62026097E+02 0.75467711E-02 0.11228954E+00
       -2 -1    0    0    0  501 0.00000000E+00 0.00000000E+00 0.59243254E+02 0.59244118E+02 0.32000000E+00 0.0000E+00 0.9000E+01
        2 -1    0    0  502    0 0.00000000E+00 0.00000000E+00 -.98261245E+03 0.98261250E+03 0.32000000E+00 0.0000E+00 0.9000E+01
       25  1    1    2    0    0 -.10825980E+03 0.89287064E+02 -.31727252E+03 0.36875359E+03 0.12500000E+03 0.0000E+00 0.9000E+01
       23  1    1    2    0    0 0.78921916E+02 0.57198694E+02 -.20047981E+03 0.24084801E+03 0.91188000E+02 0.0000E+00 0.9000E+01
       21  1    1    2  502  501 0.29337885E+02 -.14648576E+03 -.40561687E+03 0.43225501E+03 0.75000000E+00 0.0000E+00 0.9000E+01
#aMCatNLO 1  0  0  2  5 0.17624422D+03 0.00000000D+00  -5  6  0 0.00000000D+00 0.00000000D+00 0.00000000D+00 0.00000000D+00 0.00000000D+00
  <mgrwgt>
 0.4967393151D-02    1    2    0
 0.241275022316855D+03 0.000000000000000D+00 0.000000000000000D+00 0.241275022316855D+03
 0.241275022316855D+03 0.000000000000000D+00 0.000000000000000D+00 -.241275022316855D+03
 0.189055837174838D+03 -.108259931805735D+03 0.892877178265675D+02 0.206058288020588D+02
 0.136384403099071D+03 0.789218213438501D+02 0.571991661458481D+02 0.280188431716759D+02
 0.157109804359801D+03 0.293381104618850D+02 -.146486883972416D+03 -.486246719737346D+02
 0.000000000000000D+00 -.000000000000000D+00 0.000000000000000D+00 -.000000000000000D+00
 0.265116766727223D+03 0.000000000000000D+00 0.000000000000000D+00 0.265116766727223D+03
 0.646613708451455D+03 0.000000000000000D+00 0.000000000000000D+00 -.646613708451455D+03
 0.159290794501771D+03 -.587908935855373D+02 0.766001818783715D+02 0.206058288020588D+02
 0.161025735516361D+03 0.121157319483817D+03 0.463668471798810D+02 0.280188431716759D+02
 0.183432721217862D+03 0.776988801134302D+02 -.158890177537680D+03 -.486246719737346D+02
 0.407981223942684D+03 -.140065306011710D+03 0.359231484794277D+02 -.381496941724231D+03
0.120694739350D-04 0.000000000000D+00 0.000000000000D+00 0.627734819500D-06 0.000000000000D+00  6 -2 2 25 23 21 21 4 0.91144173D-02 0.15117122D+00 0.55413325D+05 0.55413325D+05 0.55413325D+05 0.11878855D+01  1  2 14  2  6  2        2 0.496739315069D-02 0.100000000000D+01
  </mgrwgt>
  </event>
  <event>
  5     66 0.42185105E-03 0.20794529E+02 0.75467711E-02 0.11191975E+00
       -2 -1    0    0    0  501 0.00000000E+00 0.00000000E+00 0.17145114E+04 0.17145114E+04 0.32000000E+00 0.0000E+00 0.9000E+01
        2 -1    0    0  502    0 0.00000000E+00 0.00000000E+00 -.38090947E+02 0.38092291E+02 0.32000000E+00 0.0000E+00 0.9000E+01
       25  1    1    2    0    0 0.17983488E+03 0.32618660E+02 0.46201252E+03 0.51233303E+03 0.12500000E+03 0.0000E+00 0.9000E+01
       23  1    1    2    0    0 -.16719142E+03 -.16110451E+02 0.70526389E+03 0.73070167E+03 0.91188000E+02 0.0000E+00 0.9000E+01
       21  1    1    2  502  501 -.12643456E+02 -.16508209E+02 0.50914405E+03 0.50956904E+03 0.75000000E+00 0.0000E+00 0.9000E+01
#aMCatNLO 1  0  0  5  2 0.15085903D+02 0.00000000D+00  -5  6  0 0.00000000D+00 0.00000000D+00 0.00000000D+00 0.00000000D+00 0.00000000D+00
  <mgrwgt>
 0.9264150275D-01    4    2    0
 0.255555410439641D+03 0.000000000000000D+00 0.000000000000000D+00 0.255555410439641D+03
 0.255555410439641D+03 -.000000000000000D+00 -.000000000000000D+00 -.255555410439641D+03
 0.241415351889992D+03 0.179835158999883D+03 0.326190265107806D+02 -.961856892949508D+02
 0.192348620038329D+03 -.167191198527403D+03 -.161101587084935D+02 0.216865443998598D+02
 0.773468489509609D+02 -.126439604724793D+02 -.165088678022871D+02 0.744991448950910D+02
 0.000000000000000D+00 0.000000000000000D+00 0.000000000000000D+00 0.000000000000000D+00
 0.255555410439641D+03 0.000000000000000D+00 0.000000000000000D+00 0.255555410439641D+03
 0.255555410439641D+03 -.000000000000000D+00 -.000000000000000D+00 -.255555410439641D+03
 0.229160229261131D+03 0.175794108842101D+03 0.273427396240539D+02 -.723755246010482D+02
 0.198855547008096D+03 -.170550649642782D+03 -.204965006677824D+02 0.414806774135850D+02
 0.503856159702604D+02 0.873514417381580D+01 -.362684927490029D+02 0.338674473009220D+02
 0.327094286397951D+02 -.139786033731349D+02 0.294222537927314D+02 -.297260011345875D+01
0.112074984176D-01 0.000000000000D+00 0.000000000000D+00 0.193690398821D-04 0.000000000000D+00  6 -2 2 25 23 21 21 2 0.26377109D+00 0.58602514D-02 0.46946578D+05 0.46946578D+05 0.46946578D+05 0.11950015D+01  1  2  2  3  6  5       21 0.121919265694D+00 0.100000000000D+01
0.304456456116D-02 0.591435940283D-03 -.430397449258D-04 0.193690398821D-04 0.000000000000D+00  6 -2 2 25 23 21 21 4 0.26377109D+00 0.58602514D-02 0.46946578D+05 0.46946578D+05 0.46946578D+05 0.11950015D+01  1  2  3  3  6  5       21 0.472961466354D-01 0.100000000000D+01
0.112358744173D-03 0.000000000000D+00 0.000000000000D+00 0.193690398821D-04 0.000000000000D+00  6 -2 2 25 23 21 21 4 0.26377109D+00 0.58602514D-02 0.46946578D+05 0.46946578D+05 0.46946578D+05 0.11950015D+01  1  2 15  3  6  5       21 0.174545014021D-02 0.100000000000D+01
-.504160199114D-02 0.000000000000D+00 0.000000000000D+00 0.193690398821D-04 0.000000000000D+00  6 -2 2 25 23 21 21 4 0.26377109D+00 0.58602514D-02 0.46946578D+05 0.46946578D+05 0.46946578D+05 0.11950015D+01  1  2  4  3  6  5       21 -.783193597178D-01 0.100000000000D+01
  </mgrwgt>
  </event>
  <event>
  6     66 0.42185105E-03 0.24569641E+02 0.75467711E-02 0.12270013E+00
       -2 -1    0    0    0  501 0.00000000E+00 0.00000000E+00 0.68491166E+02 0.68491914E+02 0.32000000E+00 0.0000E+00 0.9000E+01
        2 -1    0    0  502    0 -.00000000E+00 -.00000000E+00 -.26297183E+03 0.26297203E+03 0.32000000E+00 0.0000E+00 0.9000E+01
       25  1    1    2    0    0 0.97093456E+01 0.36021407E+02 -.78658129E+02 0.15232831E+03 0.12500000E+03 0.0000E+00 0.9000E+01
       23  1    1    2    0    0 0.35347971E+01 -.20223024E+02 -.81540428E+02 0.12403854E+03 0.91188000E+02 0.0000E+00 0.9000E+01
       21  1    1    2  502  503 0.83217608E+01 0.76259861E+00 0.30315158E+01 0.89210900E+01 0.75000000E+00 0.0000E+00 0.9000E+01
       21  1    1    2  503  501 -.21565903E+02 -.16560982E+02 -.37313627E+02 0.46176006E+02 0.75000000E+00 0.0000E+00 0.9000E+01
#aMCatNLO 2  0  0  5  2 0.99145261D+01 0.00000000D+00  -5  6  0 0.00000000D+00 0.00000000D+00 0.00000000D+00 0.00000000D+00 0.00000000D+00
  <mgrwgt>
 0.2777169817D-01    1    2    0
 0.134206571371368D+03 0.000000000000000D+00 0.000000000000000D+00 0.134206571371368D+03
 0.134206571371368D+03 -.000000000000000D+00 -.000000000000000D+00 -.134206571371368D+03
 0.134691826130918D+03 0.171097769754222D+02 0.448490718733913D+02 0.145843858433668D+02
 0.931950686848203D+02 0.874914221229697D+01 -.140030506013776D+02 -.987099628065127D+01
 0.405262479269970D+02 -.258589191877192D+02 -.308460212720137D+02 -.471338956271558D+01
 0.000000000000000D+00 0.000000000000000D+00 0.000000000000000D+00 0.000000000000000D+00
 0.134206571371368D+03 0.000000000000000D+00 0.000000000000000D+00 0.134206571371368D+03
 0.134206571371368D+03 -.000000000000000D+00 -.000000000000000D+00 -.134206571371368D+03
 0.131346031439409D+03 0.102455791434519D+02 0.366610578731456D+02 0.133332261107130D+02
 0.940044822656827D+02 0.391909748289009D+01 -.197646085917371D+02 -.107513842910615D+02
 0.121706429494287D+02 0.789340714578639D+01 0.125429124243020D+01 0.917853076001224D+01
 0.308919860882149D+02 -.220580837721284D+02 -.181507405238388D+02 -.117603725796637D+02
0.160012131899D-04 0.000000000000D+00 0.000000000000D+00 0.945552742768D-05 0.897345883848D-06  6 -2 2 25 23 21 21 4 0.10537175D-01 0.40457278D-01 0.16979846D+05 0.16979846D+05 0.16979846D+05 0.12417308D+01  1  2  1  3  6  5       21 0.277716981736D-01 0.100000000000D+01
  </mgrwgt>
  </event>
  <event>
  5     66 0.42185105E-03 0.74648899E+02 0.75467711E-02 0.10197328E+00
       -2 -1    0    0    0  501 0.00000000E+00 0.00000000E+00 0.19767471E+03 0.19767497E+03 0.32000000E+00 0.0000E+00 0.9000E+01
        2 -1    0    0  502    0 -.00000000E+00 -.00000000E+00 -.14350077E+04 0.14350077E+04 0.32000000E+00 0.0000E+00 0.9000E+01
       25  1    1    2    0    0 0.36549628E+03 -.16480756E+03 -.22461073E+03 0.47626047E+03 0.12500000E+03 0.0000E+00 0.9000E+01
       23  1    1    2    0    0 -.43485429E+03 0.13721336E+03 -.95451158E+03 0.10617596E+04 0.91188000E+02 0.0000E+00 0.9000E+01
       21  1    1    2  502  501 0.69358015E+02 0.27594194E+02 -.58210670E+02 0.94662656E+02 0.75000000E+00 0.0000E+00 0.9000E+01
#aMCatNLO 1  0  0  5  2 0.49459799D+01 0.00000000D+00  -5  6  0 0.00000000D+00 0.00000000D+00 0.00000000D+00 0.00000000D+00 0.00000000D+00
  <mgrwgt>
 0.2351617239D+00   17    2    0
 0.532602073820133D+03 0.000000000000000D+00 0.000000000000000D+00 0.532602073820133D+03
 0.532602073820133D+03 -.000000000000000D+00 -.000000000000000D+00 -.532602073820133D+03
 0.469077025385930D+03 0.365494844807685D+03 -.164808127859693D+03 0.208949886708038D+03
 0.518651065056649D+03 -.434855873879747D+03 0.137212734557690D+03 -.229688289574977D+03
 0.774760571976871D+02 0.693610290720630D+02 0.275953933020033D+02 0.207384028669391D+02
 0.000000000000000D+00 0.000000000000000D+00 0.000000000000000D+00 -.000000000000000D+00
 0.532602073820133D+03 0.000000000000000D+00 0.000000000000000D+00 0.532602073820133D+03
 0.532602073820133D+03 -.000000000000000D+00 -.000000000000000D+00 -.532602073820133D+03
 0.470743875133395D+03 0.367648203763471D+03 -.163951410649751D+03 0.209593724121347D+03
 0.516600581312357D+03 -.432483859804544D+03 0.138156444046993D+03 -.228979075998481D+03
 0.729037208602070D+02 0.632590180295083D+02 0.272945744302757D+02 0.238381073048065D+02
 0.495597033430667D+01 0.157663801156453D+01 -.149960782751732D+01 -.445275542767244D+01
0.610164439340D-02 0.000000000000D+00 0.000000000000D+00 0.939318166769D-06 0.000000000000D+00  6 -2 2 25 23 21 21 2 0.30411517D-01 0.22077044D+00 0.23022508D+06 0.23022508D+06 0.23022508D+06 0.11317005D+01  1  2  2  3  6  5       21 0.112617977265D+00 0.100000000000D+01
0.137546882660D-02 0.321992620887D-03 -.234319210705D-04 0.939318166769D-06 0.000000000000D+00  6 -2 2 25 23 21 21 4 0.30411517D-01 0.22077044D+00 0.23022508D+06 0.23022508D+06 0.23022508D+06 0.11317005D+01  1  2  3  3  6  5       21 0.325143125148D-01 0.100000000000D+01
0.189481553553D-03 0.000000000000D+00 0.000000000000D+00 0.939318166769D-06 0.000000000000D+00  6 -2 2 25 23 21 21 4 0.30411517D-01 0.22077044D+00 0.23022508D+06 0.23022508D+06 0.23022508D+06 0.11317005D+01  1  2 15  3  6  5       21 0.447910001950D-02 0.100000000000D+01
-.383992405701D-01 0.000000000000D+00 0.000000000000D+00 0.939318166769D-06 0.000000000000D+00  6 -2 2 25 23 21 21 4 0.30411517D-01 0.22077044D+00 0.23022508D+06 0.23022508D+06 0.23022508D+06 0.11317005D+01  1  2  4  3  6  5       21 -.907708618390D+00 0.100000000000D+01
0.414026305457D-01 0.000000000000D+00 0.000000000000D+00 0.939318166769D-06 0.905534622379D-06  6 -2 2 25 23 21 21 4 0.30411517D-01 0.22077044D+00 0.22832318D+06 0.22832318D+06 0.22832318D+06 0.11320044D+01  1  2 11  3  6  5       21 0.980002640899D+00 0.100000000000D+01
0.288339394555D-04 0.000000000000D+00 0.000000000000D+00 0.939822765380D-06 0.000000000000D+00  6 -2 2 25 23 1 -1 4 0.30411517D-01 0.22077044D+00 0.22832318D+06 0.22832318D+06 0.22832318D+06 0.11320044D+01  1  2 12  6  6  5       21 0.682501001542D-03 0.100000000000D+01
0.288339394555D-04 0.000000000000D+00 0.000000000000D+00 0.939822765380D-06 0.000000000000D+00  6 -2 2 25 23 3 -3 4 0.30411517D-01 0.22077044D+00 0.22832318D+06 0.22832318D+06 0.22832318D+06 0.11320044D+01  1  2 12  6  6  5       21 0.682501001542D-03 0.100000000000D+01
0.291597654782D-04 0.000000000000D+00 0.000000000000D+00 0.939822765380D-06 0.000000000000D+00  6 -2 2 25 23 1 -1 4 0.30411517D-01 0.22077044D+00 0.22832318D+06 0.22832318D+06 0.22832318D+06 0.11320044D+01  1  2 12  6  6  5       21 0.690213322196D-03 0.100000000000D+01
0.291597654782D-04 0.000000000000D+00 0.000000000000D+00 0.939822765380D-06 0.000000000000D+00  6 -2 2 25 23 3 -3 4 0.30411517D-01 0.22077044D+00 0.22832318D+06 0.22832318D+06 0.22832318D+06 0.11320044D+01  1  2 12  6  6  5       21 0.690213322196D-03 0.100000000000D+01
0.818354699787D-04 0.000000000000D+00 0.000000000000D+00 0.939822765380D-06 0.122658292851D-08  6 -2 2 25 23 1 -1 4 0.30411517D-01 0.22077044D+00 0.22832318D+06 0.22832318D+06 0.22832318D+06 0.11320044D+01  1  2 11  6  6  5       21 0.193705027051D-02 0.100000000000D+01
0.818354699787D-04 0.000000000000D+00 0.000000000000D+00 0.939822765380D-06 0.122658292851D-08  6 -2 2 25 23 3 -3 4 0.30411517D-01 0.22077044D+00 0.22832318D+06 0.22832318D+06 0.22832318D+06 0.11320044D+01  1  2 11  6  6  5       21 0.193705027051D-02 0.100000000000D+01
0.288339394555D-04 0.000000000000D+00 0.000000000000D+00 0.939822765380D-06 0.000000000000D+00  6 -2 2 25 23 2 -2 4 0.30411517D-01 0.22077044D+00 0.22832318D+06 0.22832318D+06 0.22832318D+06 0.11320044D+01  1  2 12  7  6  5       21 0.682501001542D-03 0.100000000000D+01
0.291597654782D-04 0.000000000000D+00 0.000000000000D+00 0.939822765380D-06 0.000000000000D+00  6 -2 2 25 23 2 -2 4 0.30411517D-01 0.22077044D+00 0.22832318D+06 0.22832318D+06 0.22832318D+06 0.11320044D+01  1  2 12  7  6  5       21 0.690213322196D-03 0.100000000000D+01
0.825474023091D-04 0.000000000000D+00 0.000000000000D+00 0.939822765380D-06 0.126694019556D-08  6 -2 2 25 23 2 -2 4 0.30411517D-01 0.22077044D+00 0.22832318D+06 0.22832318D+06 0.22832318D+06 0.11320044D+01  1  2 11  7  6  5       21 0.195390174962D-02 0.100000000000D+01
0.288339394555D-04 0.000000000000D+00 0.000000000000D+00 0.939822765380D-06 0.000000000000D+00  6 -2 2 25 23 4 -4 4 0.30411517D-01 0.22077044D+00 0.22832318D+06 0.22832318D+06 0.22832318D+06 0.11320044D+01  1  2 12  8  6  5       21 0.682501001542D-03 0.100000000000D+01
0.291597654782D-04 0.000000000000D+00 0.000000000000D+00 0.939822765380D-06 0.000000000000D+00  6 -2 2 25 23 4 -4 4 0.30411517D-01 0.22077044D+00 0.22832318D+06 0.22832318D+06 0.22832318D+06 0.11320044D+01  1  2 12  8  6  5       21 0.690213322196D-03 0.100000000000D+01
0.818524412237D-04 0.000000000000D+00 0.000000000000D+00 0.939822765380D-06 0.122683730035D-08  6 -2 2 25 23 4 -4 4 0.30411517D-01 0.22077044D+00 0.22832318D+06 0.22832318D+06 0.22832318D+06 0.11320044D+01  1  2 11  8  6  5       21 0.193745198085D-02 0.100000000000D+01
  </mgrwgt>
  </event>
  <event>
  5     66 0.42185105E-03 0.27935254E+02 0.75467711E-02 0.11997241E+00
       -2 -1    0    0    0  501 0.00000000E+00 0.00000000E+00 0.24737491E+03 0.24737512E+03 0.32000000E+00 0.0000E+00 0.9000E+01
        2 -1    0    0  502    0 0.00000000E+00 0.00000000E+00 -.17999103E+03 0.17999132E+03 0.32000000E+00 0.0000E+00 0.9000E+01
       25  1    1    2    0    0 -.42828622E+02 -.52736021E+02 0.24328447E+02 0.14433382E+03 0.12500000E+03 0.0000E+00 0.9000E+01
       23  1    1    2    0    0 0.49877109E+02 0.79766938E+02 -.82218895E+02 0.15467931E+03 0.91188000E+02 0.0000E+00 0.9000E+01
       21  1    1    2  502  501 -.70484865E+01 -.27030916E+02 0.12527433E+03 0.12835330E+03 0.75000000E+00 0.0000E+00 0.9000E+01
#aMCatNLO 1  0  0  5  2 0.12742462D+02 0.00000000D+00  -5  6  0 0.00000000D+00 0.00000000D+00 0.00000000D+00 0.00000000D+00 0.00000000D+00
  <mgrwgt>
 0.1477701286D+00    9    2    0
 0.211010356502438D+03 0.000000000000000D+00 0.000000000000000D+00 0.211010356502438D+03
 0.211010356502438D+03 -.000000000000000D+00 -.000000000000000D+00 -.211010356502438D+03
 0.142277475405404D+03 -.428285669086469D+02 -.527358093108219D+02 0.159005679757218D+01
 0.169767253945508D+03 0.498771746476551D+02 0.797671904604828D+02 -.107958936375860D+03
 0.109975983653964D+03 -.704860773900817D+01 -.270313811496609D+02 0.106368879578288D+03
 0.000000000000000D+00 0.000000000000000D+00 0.000000000000000D+00 -.000000000000000D+00
 0.211010356502438D+03 0.000000000000000D+00 0.000000000000000D+00 0.211010356502438D+03
 0.211010356502438D+03 -.000000000000000D+00 -.000000000000000D+00 -.211010356502438D+03
 0.143006885642472D+03 -.431642736030119D+02 -.540232430773020D+02 0.665612746978637D+01
 0.165208576566624D+03 0.494829938087884D+02 0.782555085948104D+02 -.102010446158503D+03
 0.100966300633661D+03 -.417949863771171D+01 -.124970492441586D+02 0.100102694344225D+03
 0.128389501621194D+02 -.213922156806487D+01 -.117352162733499D+02 -.474837565550760D+01
0.406820560976D-03 0.000000000000D+00 0.000000000000D+00 0.157569379854D-04 0.000000000000D+00  6 -2 2 25 23 21 21 2 0.38057716D-01 0.27690966D-01 0.22683691D+05 0.22683691D+05 0.22683691D+05 0.12278509D+01  1  2  2  3  6  5       21 0.759318705738D-01 0.100000000000D+01
0.562336301684D-04 0.214685108167D-04 -.156229807246D-05 0.157569379854D-04 0.000000000000D+00  6 -2 2 25 23 21 21 4 0.38057716D-01 0.27690966D-01 0.22683691D+05 0.22683691D+05 0.22683691D+05 0.12278509D+01  1  2  3  3  6  5       21 0.158237196959D-01 0.100000000000D+01
0.188528786466D-04 0.000000000000D+00 0.000000000000D+00 0.157569379854D-04 0.000000000000D+00  6 -2 2 25 23 21 21 4 0.38057716D-01 0.27690966D-01 0.22683691D+05 0.22683691D+05 0.22683691D+05 0.12278509D+01  1  2 15  3  6  5       21 0.530505795682D-02 0.100000000000D+01
0.601609595786D-03 0.000000000000D+00 0.000000000000D+00 0.157837095549D-04 0.000000000000D+00  6 -2 2 25 23 21 21 4 0.38057716D-01 0.27690966D-01 0.22187707D+05 0.22187707D+05 0.22187707D+05 0.12288935D+01  1  2 12  3  6  5       21 0.169808070652D+00 0.100000000000D+01
-.441724112728D-03 0.000000000000D+00 0.000000000000D+00 0.157569379854D-04 0.000000000000D+00  6 -2 2 25 23 21 21 4 0.38057716D-01 0.27690966D-01 0.22683691D+05 0.22683691D+05 0.22683691D+05 0.12278509D+01  1  2  4  3  6  5       21 -.124297836042D+00 0.100000000000D+01
0.460507578360D-05 0.000000000000D+00 0.000000000000D+00 0.157837095549D-04 0.000000000000D+00  6 -2 2 25 23 1 -1 4 0.38057716D-01 0.27690966D-01 0.22187707D+05 0.22187707D+05 0.22187707D+05 0.12288935D+01  1  2 12  6  6  5       21 0.129981143834D-02 0.100000000000D+01
0.460507578360D-05 0.000000000000D+00 0.000000000000D+00 0.157837095549D-04 0.000000000000D+00  6 -2 2 25 23 3 -3 4 0.38057716D-01 0.27690966D-01 0.22187707D+05 0.22187707D+05 0.22187707D+05 0.12288935D+01  1  2 12  6  6  5       21 0.129981143834D-02 0.100000000000D+01
0.460507578360D-05 0.000000000000D+00 0.000000000000D+00 0.157837095549D-04 0.000000000000D+00  6 -2 2 25 23 2 -2 4 0.38057716D-01 0.27690966D-01 0.22187707D+05 0.22187707D+05 0.22187707D+05 0.12288935D+01  1  2 12  7  6  5       21 0.129981143834D-02 0.100000000000D+01
0.460507578360D-05 0.000000000000D+00 0.000000000000D+00 0.157837095549D-04 0.000000000000D+00  6 -2 2 25 23 4 -4 4 0.38057716D-01 0.27690966D-01 0.22187707D+05 0.22187707D+05 0.22187707D+05 0.12288935D+01  1  2 12  8  6  5       21 0.129981143834D-02 0.100000000000D+01
  </mgrwgt>
  </event>
  <event>
  5     66 0.42185105E-03 0.68545625E+02 0.75467711E-02 0.11026788E+00
       -2 -1    0    0    0  501 0.00000000E+00 0.00000000E+00 0.14787540E+03 0.14787575E+03 0.32000000E+00 0.0000E+00 0.9000E+01
        2 -1    0    0  502    0 0.00000000E+00 0.00000000E+00 -.23296353E+03 0.23296375E+03 0.32000000E+00 0.0000E+00 0.9000E+01
       25  1    1    2    0    0 0.24050322E+02 0.63939535E+02 -.56219731E+02 0.15314157E+03 0.12500000E+03 0.0000E+00 0.9000E+01
       23  1    1    2    0    0 0.17273061E+02 -.92519231E+01 -.94514088E+02 0.13278600E+03 0.91188000E+02 0.0000E+00 0.9000E+01
       21  1    1    2  502  501 -.41323383E+02 -.54687612E+02 0.65645688E+02 0.94911937E+02 0.75000000E+00 0.0000E+00 0.9000E+01
#aMCatNLO 1  0  0  2  1 0.20470906D+03 0.00000000D+00  -5  6  0 0.00000000D+00 0.00000000D+00 0.00000000D+00 0.00000000D+00 0.00000000D+00
  <mgrwgt>
 0.5239831636D-01    3    2    0
 0.185606261619430D+03 0.000000000000000D+00 0.000000000000000D+00 0.185606261619430D+03
 0.185606261619430D+03 0.000000000000000D+00 0.000000000000000D+00 -.185606261619430D+03
 0.144227009750318D+03 0.240506797018085D+02 0.639400080947476D+02 -.225758834210954D+02
 0.114565807452250D+03 0.172733445123117D+02 -.925154747897712D+01 -.665290412661203D+02
 0.112419706036292D+03 -.413240242141202D+02 -.546884606157705D+02 0.891049246872157D+02
 0.000000000000000D+00 -.000000000000000D+00 -.000000000000000D+00 0.000000000000000D+00
 0.100047824280611D+04 0.000000000000000D+00 0.000000000000000D+00 0.100047824280611D+04
 0.225244073127178D+03 0.000000000000000D+00 0.000000000000000D+00 -.225244073127178D+03
 0.201008636012124D+03 0.764174883642717D+02 0.135757757462725D+03 -.225758834210954D+02
 0.132321206249780D+03 0.547222150634060D+02 0.421071980326655D+02 -.665290412661203D+02
 0.905858774079167D+02 -.105312753305080D+02 -.124581628726214D+02 0.891049246872157D+02
 0.801806596263469D+03 -.120608428097170D+03 -.165406792622770D+03 0.775234169678935D+03
0.148711472625D-03 0.000000000000D+00 0.000000000000D+00 0.395901460928D-05 0.000000000000D+00  6 -2 2 25 23 21 21 2 0.22750106D-01 0.35840587D-01 0.23144196D+05 0.23144196D+05 0.23144196D+05 0.12269054D+01  1  2  2  2  6  2        2 0.528938755786D-01 0.100000000000D+01
-.527129980907D-05 0.784772001437D-05 -.571091211511D-06 0.395901460928D-05 0.000000000000D+00  6 -2 2 25 23 21 21 4 0.22750106D-01 0.35840587D-01 0.23144196D+05 0.23144196D+05 0.23144196D+05 0.12269054D+01  1  2  3  2  6  2        2 -.282228454998D-02 0.100000000000D+01
0.434572296232D-05 0.000000000000D+00 0.000000000000D+00 0.395901460928D-05 0.000000000000D+00  6 -2 2 25 23 21 21 4 0.22750106D-01 0.35840587D-01 0.23144196D+05 0.23144196D+05 0.23144196D+05 0.12269054D+01  1  2 15  2  6  2        2 0.232672532758D-02 0.100000000000D+01
  </mgrwgt>
  </event>
  <event>
  5     66 -.42185105E-03 0.21130211E+02 0.75467711E-02 0.11666711E+00
       -2 -1    0    0    0  501 0.00000000E+00 0.00000000E+00 0.21434681E+03 0.21434705E+03 0.32000000E+00 0.0000E+00 0.9000E+01
        2 -1    0    0  502    0 0.00000000E+00 0.00000000E+00 -.15628756E+03 0.15628788E+03 0.32000000E+00 0.0000E+00 0.9000E+01
       25  1    1    2    0    0 0.59370818E+02 0.56540585E+02 -.70884001E+02 0.16544266E+03 0.12500000E+03 0.0000E+00 0.9000E+01
       23  1    1    2    0    0 -.78228706E+02 -.47013581E+02 0.79817295E+02 0.15171044E+03 0.91188000E+02 0.0000E+00 0.9000E+01
       21  1    1    2  502  501 0.18857888E+02 -.95270046E+01 0.49125963E+02 0.53481833E+02 0.75000000E+00 0.0000E+00 0.9000E+01
#aMCatNLO 1  0  0  1  2 0.29261873D+02 0.00000000D+00  -5  6  0 0.00000000D+00 0.00000000D+00 0.00000000D+00 0.00000000D+00 0.00000000D+00
  <mgrwgt>
 -.5671288924D-01    5    4    0
 0.183029628095485D+03 0.000000000000000D+00 0.000000000000000D+00 0.183029628095485D+03
 0.183029628095485D+03 0.000000000000000D+00 0.000000000000000D+00 -.183029628095485D+03
 0.178754543156221D+03 0.593696129756862D+02 0.565411943046512D+02 -.980129027256617D+02
 0.140946815149472D+03 -.782296562599635D+02 -.470131005979887D+02 0.567507058140316D+02
 0.463578978852783D+02 0.188600432842773D+02 -.952809370666258D+01 0.412621969116301D+02
 0.000000000000000D+00 -.000000000000000D+00 0.000000000000000D+00 0.000000000000000D+00
 0.532394305052929D+03 0.000000000000000D+00 0.000000000000000D+00 0.532394305052929D+03
 0.187238744721809D+03 0.000000000000000D+00 0.000000000000000D+00 -.187238744721809D+03
 0.181894131421428D+03 0.796322108887751D+02 0.388928905304203D+02 -.980129027256617D+02
 0.138307713361973D+03 -.625400873650739D+02 -.606783906625402D+02 0.567507058140316D+02
 0.499442628129971D+02 0.242706605912063D+02 -.142406294954280D+02 0.412621969116301D+02
 0.349486942178340D+03 -.413627841149075D+02 0.360261296275478D+02 0.345155560331120D+03
 0.183029628095485D+03 0.000000000000000D+00 0.000000000000000D+00 0.183029628095485D+03
 0.183029628095485D+03 0.000000000000000D+00 0.000000000000000D+00 -.183029628095485D+03
 0.178754543156221D+03 0.593696129756862D+02 0.565411943046512D+02 -.980129027256617D+02
 0.140946815149472D+03 -.782296562599635D+02 -.470131005979887D+02 0.567507058140316D+02
 0.000000000000000D+00 -.000000000000000D+00 0.000000000000000D+00 0.000000000000000D+00
 0.463578978852783D+02 0.188600432842773D+02 -.952809370666258D+01 0.412621969116301D+02
 0.532394305052929D+03 0.000000000000000D+00 0.000000000000000D+00 0.532394305052929D+03
 0.187238744721809D+03 0.000000000000000D+00 0.000000000000000D+00 -.187238744721809D+03
 0.181894131421428D+03 0.796322108887751D+02 0.388928905304203D+02 -.980129027256617D+02
 0.138307713361973D+03 -.625400873650739D+02 -.606783906625402D+02 0.567507058140316D+02
 0.349486942178340D+03 -.413627841149075D+02 0.360261296275478D+02 0.345155560331120D+03
 0.499442628129971D+02 0.242706605912063D+02 -.142406294954280D+02 0.412621969116301D+02
0.494688186776D-04 0.000000000000D+00 0.000000000000D+00 0.196973367738D-04 0.000000000000D+00  6 -2 2 25 23 21 21 2 0.32976476D-01 0.24044283D-01 0.22445299D+05 0.22445299D+05 0.22445299D+05 0.12283488D+01  1  2  2  1  6  1       -2 0.140822591972D-01 0.100000000000D+01
0.813994400611D-05 0.261054128219D-05 -.189973289161D-06 0.196973367738D-04 0.000000000000D+00  6 -2 2 25 23 21 21 4 0.32976476D-01 0.24044283D-01 0.22445299D+05 0.22445299D+05 0.22445299D+05 0.12283488D+01  1  2  3  1  6  1       -2 0.349627536006D-02 0.100000000000D+01
0.656715249138D-06 0.000000000000D+00 0.000000000000D+00 0.196973367738D-04 0.000000000000D+00  6 -2 2 25 23 21 21 4 0.32976476D-01 0.24044283D-01 0.22445299D+05 0.22445299D+05 0.22445299D+05 0.12283488D+01  1  2 15  1  6  1       -2 0.282072867137D-03 0.100000000000D+01
-.642086543964D-03 0.000000000000D+00 -.237995952114D-04 0.196973367738D-04 0.000000000000D+00  6 -2 2 25 23 21 21 4 0.96621993D-01 0.24044283D-01 0.22445299D+05 0.22445299D+05 0.22445299D+05 0.12283488D+01  1  2  5  1  6  1       -2 -.307597422288D-01 0.100000000000D+01
-.769438692570D-04 0.000000000000D+00 -.289801199511D-05 0.196973367738D-04 0.000000000000D+00  6 21 2 25 23 2 21 4 0.96621993D-01 0.24044283D-01 0.22445299D+05 0.22445299D+05 0.22445299D+05 0.12283488D+01  3  4  5  4  5  1       -2 -.438137544360D-01 0.100000000000D+01
  </mgrwgt>
  </event>
  <event>
  6     66 -.42185105E-03 0.83691342E+02 0.75467711E-02 0.11854217E+00
       -2 -1    0    0    0  501 0.00000000E+00 0.00000000E+00 0.11819608E+03 0.11819652E+03 0.32000000E+00 0.0000E+00 0.9000E+01
        2 -1    0    0  502    0 -.00000000E+00 -.00000000E+00 -.31750477E+03 0.31750493E+03 0.32000000E+00 0.0000E+00 0.9000E+01
       25  1    1    2    0    0 0.14814331E+02 0.51361678E+02 -.11674805E+03 0.17919987E+03 0.12500000E+03 0.0000E+00 0.9000E+01
       23  1    1    2    0    0 0.44641039E+02 0.12266275E+02 -.12240029E+03 0.15950037E+03 0.91188000E+02 0.0000E+00 0.9000E+01
       21  1    1    2  503  501 -.47392260E+02 -.56036015E+02 0.37885633E+02 0.82595066E+02 0.75000000E+00 0.0000E+00 0.9000E+01
       21  1    1    2  502  503 -.12063110E+02 -.75919379E+01 0.19540250E+01 0.14406140E+02 0.75000000E+00 0.0000E+00 0.9000E+01
#aMCatNLO 2  0  0  5  1 0.51835824D+01 0.00000000D+00  -5  6  0 0.00000000D+00 0.00000000D+00 0.00000000D+00 0.00000000D+00 0.00000000D+00
  <mgrwgt>
 -.2402700583D-01    6    2    0
 0.193721317473999D+03 0.000000000000000D+00 0.000000000000000D+00 0.193721317473999D+03
 0.193721317473999D+03 -.000000000000000D+00 -.000000000000000D+00 -.193721317473999D+03
 0.141608972931674D+03 0.149704898027322D+02 0.515287963939320D+02 -.393543999067782D+02
 0.116563773989131D+03 0.447695565478197D+02 0.124038114117646D+02 -.558004868398305D+02
 0.129269888027193D+03 -.597400463505519D+02 -.639326078056966D+02 0.951548867466087D+02
 0.000000000000000D+00 -.000000000000000D+00 0.000000000000000D+00 0.000000000000000D+00
 0.193721317473999D+03 0.000000000000000D+00 0.000000000000000D+00 0.193721317473999D+03
 0.193721317473999D+03 -.000000000000000D+00 -.000000000000000D+00 -.193721317473999D+03
 0.141463476214483D+03 0.148149952286102D+02 0.513623891975780D+02 -.391067257000415D+02
 0.116402689704808D+03 0.446415857009002D+02 0.122668595600928D+02 -.555966528592870D+02
 0.112390472724574D+03 -.473653495758010D+02 -.560495832694213D+02 0.851268831459234D+02
 0.171859963041325D+02 -.120912313537094D+02 -.757966548824951D+01 0.957649541340506D+01
-.145444637261D-03 0.000000000000D+00 0.000000000000D+00 0.285644877749D-05 0.000000000000D+00  6 -2 2 25 23 21 21 4 0.18184058D-01 0.48846933D-01 0.26548024D+05 0.26548024D+05 0.26548024D+05 0.12205101D+01  1  2 13  3  6  5       21 -.804501215553D-01 0.100000000000D+01
-.154596806468D-03 0.000000000000D+00 0.000000000000D+00 0.285644877749D-05 0.000000000000D+00  6 -2 2 25 23 21 21 4 0.18184058D-01 0.48846933D-01 0.26548024D+05 0.26548024D+05 0.26548024D+05 0.12205101D+01  1  2 13  3  6  5       21 -.855124816331D-01 0.100000000000D+01
-.450844889303D-05 0.000000000000D+00 0.000000000000D+00 0.285645000609D-05 0.000000000000D+00  6 -2 2 25 23 21 21 4 0.18184058D-01 0.48846933D-01 0.26547873D+05 0.26547873D+05 0.26547873D+05 0.12205103D+01  1  2  8  3  6  5       21 -.249377043645D-02 0.100000000000D+01
-.138059065458D-05 0.000000000000D+00 0.000000000000D+00 0.285645000609D-05 0.000000000000D+00  6 -2 2 25 23 21 21 4 0.18184058D-01 0.48846933D-01 0.26547873D+05 0.26547873D+05 0.26547873D+05 0.12205103D+01  1  2  9  3  6  5       21 -.763649814144D-03 0.100000000000D+01
0.156099565143D-05 0.000000000000D+00 0.000000000000D+00 0.285645000609D-05 0.000000000000D+00  6 -2 2 25 23 21 21 4 0.18184058D-01 0.48846933D-01 0.26547873D+05 0.26547873D+05 0.26547873D+05 0.12205103D+01  1  2 10  3  6  5       21 0.863437714240D-03 0.100000000000D+01
0.260931406792D-03 0.000000000000D+00 0.000000000000D+00 0.285645000609D-05 0.635069517386D-06  6 -2 2 25 23 21 21 4 0.18184058D-01 0.48846933D-01 0.26548024D+05 0.26548024D+05 0.26548024D+05 0.12205101D+01  1  2  1  3  6  5       21 0.144329579896D+00 0.100000000000D+01
  </mgrwgt>
  </event>
  <event>
  5     66 -.42185105E-03 0.22397489E+02 0.75467711E-02 0.12392954E+00
       -2 -1    0    0    0  501 0.00000000E+00 0.00000000E+00 0.33090708E+02 0.33092255E+02 0.32000000E+00 0.0000E+00 0.9000E+01
        2 -1    0    0  502    0 -.00000000E+00 -.00000000E+00 -.47303065E+03 0.47303076E+03 0.32000000E+00 0.0000E+00 0.9000E+01
       25  1    1    2    0    0 0.10936536E+02 0.10248693E+02 -.23431524E+03 0.26599487E+03 0.12500000E+03 0.0000E+00 0.9000E+01
       23  1    1    2    0    0 -.31182265E+02 -.68722122E+00 -.18926013E+03 0.21238516E+03 0.91188000E+02 0.0000E+00 0.9000E+01
       21  1    1    2  502  501 0.20245729E+02 -.95614714E+01 -.16364576E+02 0.27742984E+02 0.75000000E+00 0.0000E+00 0.9000E+01
#aMCatNLO 1  0  0  5  2 0.50965360D+01 0.00000000D+00  -5  6  0 0.00000000D+00 0.00000000D+00 0.00000000D+00 0.00000000D+00 0.00000000D+00
  <mgrwgt>
 -.1720811422D+01   20    2    0
 0.125113300720164D+03 0.000000000000000D+00 0.000000000000000D+00 0.125113300720164D+03
 0.125113300720164D+03 -.000000000000000D+00 -.000000000000000D+00 -.125113300720164D+03
 0.126051693020294D+03 0.109326968980079D+02 0.102505055947784D+02 -.627953715412479D+01
 0.968330887497094D+02 -.311852141138752D+02 -.685828485692526D+00 -.940254182490391D+01
 0.273418196703248D+02 0.202525172158672D+02 -.956467710908589D+01 0.156820789790287D+02
 0.000000000000000D+00 0.000000000000000D+00 0.000000000000000D+00 0.000000000000000D+00
 0.125113300720164D+03 0.000000000000000D+00 0.000000000000000D+00 0.125113300720164D+03
 0.125113300720164D+03 -.000000000000000D+00 -.000000000000000D+00 -.125113300720164D+03
 0.126062753295751D+03 0.116670764624408D+02 0.990367940352312D+01 -.571088693611641D+01
 0.966138743019465D+02 -.306217259895626D+02 -.951947600981167D+00 -.896621753123577D+01
 0.144296354326525D+02 0.132201800125740D+02 -.434978946584752D+01 0.381058404410677D+01
 0.131203384099781D+02 0.573446951454769D+01 -.460194233669443D+01 0.108665204232454D+02
0.183316629318D-03 0.000000000000D+00 0.000000000000D+00 0.314250123916D-04 0.000000000000D+00  6 -2 2 25 23 21 21 2 0.50910055D-02 0.72774074D-01 0.14965630D+05 0.14965630D+05 0.14965630D+05 0.12479361D+01  1  2  2  3  6  5       21 0.339098543284D+00 0.100000000000D+01
0.286633924006D-04 0.967388430408D-05 -.703984124958D-06 0.314250123916D-04 0.000000000000D+00  6 -2 2 25 23 21 21 4 0.50910055D-02 0.72774074D-01 0.14965630D+05 0.14965630D+05 0.14965630D+05 0.12479361D+01  1  2  3  3  6  5       21 0.825726766891D-01 0.100000000000D+01
0.666676414348D-05 0.000000000000D+00 0.000000000000D+00 0.314250123916D-04 0.000000000000D+00  6 -2 2 25 23 21 21 4 0.50910055D-02 0.72774074D-01 0.14965630D+05 0.14965630D+05 0.14965630D+05 0.12479361D+01  1  2 15  3  6  5       21 0.192054224597D-01 0.100000000000D+01
0.653433839841D-04 0.000000000000D+00 0.000000000000D+00 0.314509508009D-04 0.000000000000D+00  6 -2 2 25 23 21 21 4 0.50910055D-02 0.72774074D-01 0.14810930D+05 0.14810930D+05 0.14810930D+05 0.12484510D+01  1  2 12  3  6  5       21 0.188474793998D+00 0.100000000000D+01
0.671652676174D-04 0.000000000000D+00 0.000000000000D+00 0.314509508009D-04 0.000000000000D+00  6 -2 2 25 23 21 21 4 0.50910055D-02 0.72774074D-01 0.14810930D+05 0.14810930D+05 0.14810930D+05 0.12484510D+01  1  2 12  3  6  5       21 0.193729788789D+00 0.100000000000D+01
-.125965775787D-02 0.000000000000D+00 0.000000000000D+00 0.314250123916D-04 0.000000000000D+00  6 -2 2 25 23 21 21 4 0.50910055D-02 0.72774074D-01 0.14965630D+05 0.14965630D+05 0.14965630D+05 0.12479361D+01  1  2  4  3  6  5       21 -.362878585080D+01 0.100000000000D+01
-.306619212506D-03 0.000000000000D+00 0.000000000000D+00 0.314250123916D-04 0.000000000000D+00  6 -2 2 25 23 21 21 4 0.50910055D-02 0.72774074D-01 0.14965630D+05 0.14965630D+05 0.14965630D+05 0.12479361D+01  1  2  5  3  6  5       21 -.883299811380D+00 0.100000000000D+01
0.674750630054D-03 0.000000000000D+00 -.000000000000D+00 0.314250123916D-04 0.000000000000D+00  6 -2 2 25 23 21 21 4 0.50910055D-02 0.72774074D-01 0.14965630D+05 0.14965630D+05 0.14965630D+05 0.12479361D+01  1  2  6  3  6  5       21 0.194380221443D+01 0.100000000000D+01
0.220302646016D-05 0.000000000000D+00 0.000000000000D+00 0.314509508009D-04 0.000000000000D+00  6 -2 2 25 23 1 -1 4 0.50910055D-02 0.72774074D-01 0.14810930D+05 0.14810930D+05 0.14810930D+05 0.12484510D+01  1  2 12  6  6  5       21 0.635435346221D-02 0.100000000000D+01
0.220302646016D-05 0.000000000000D+00 0.000000000000D+00 0.314509508009D-04 0.000000000000D+00  6 -2 2 25 23 3 -3 4 0.50910055D-02 0.72774074D-01 0.14810930D+05 0.14810930D+05 0.14810930D+05 0.12484510D+01  1  2 12  6  6  5       21 0.635435346221D-02 0.100000000000D+01
0.226424345674D-05 0.000000000000D+00 0.000000000000D+00 0.314509508009D-04 0.000000000000D+00  6 -2 2 25 23 1 -1 4 0.50910055D-02 0.72774074D-01 0.14810930D+05 0.14810930D+05 0.14810930D+05 0.12484510D+01  1  2 12  6  6  5       21 0.653092620938D-02 0.100000000000D+01
0.226424345674D-05 0.000000000000D+00 0.000000000000D+00 0.314509508009D-04 0.000000000000D+00  6 -2 2 25 23 3 -3 4 0.50910055D-02 0.72774074D-01 0.14810930D+05 0.14810930D+05 0.14810930D+05 0.12484510D+01  1  2 12  6  6  5       21 0.653092620938D-02 0.100000000000D+01
-.235616746996D-05 0.000000000000D+00 0.000000000000D+00 0.314250123916D-04 0.000000000000D+00  6 -2 2 25 23 1 -1 4 0.50910055D-02 0.72774074D-01 0.14965630D+05 0.14965630D+05 0.14965630D+05 0.12479361D+01  1  2  5  6  6  5       21 -.678757950222D-02 0.100000000000D+01
-.235616746996D-05 0.000000000000D+00 0.000000000000D+00 0.314250123916D-04 0.000000000000D+00  6 -2 2 25 23 3 -3 4 0.50910055D-02 0.72774074D-01 0.14965630D+05 0.14965630D+05 0.14965630D+05 0.12479361D+01  1  2  5  6  6  5       21 -.678757950222D-02 0.100000000000D+01
0.220302646016D-05 0.000000000000D+00 0.000000000000D+00 0.314509508009D-04 0.000000000000D+00  6 -2 2 25 23 2 -2 4 0.50910055D-02 0.72774074D-01 0.14810930D+05 0.14810930D+05 0.14810930D+05 0.12484510D+01  1  2 12  7  6  5       21 0.635435346221D-02 0.100000000000D+01
0.226424345674D-05 0.000000000000D+00 0.000000000000D+00 0.314509508009D-04 0.000000000000D+00  6 -2 2 25 23 2 -2 4 0.50910055D-02 0.72774074D-01 0.14810930D+05 0.14810930D+05 0.14810930D+05 0.12484510D+01  1  2 12  7  6  5       21 0.653092620938D-02 0.100000000000D+01
-.235616746996D-05 0.000000000000D+00 0.000000000000D+00 0.314250123916D-04 0.000000000000D+00  6 -2 2 25 23 2 -2 4 0.50910055D-02 0.72774074D-01 0.14965630D+05 0.14965630D+05 0.14965630D+05 0.12479361D+01  1  2  5  7  6  5       21 -.678757950222D-02 0.100000000000D+01
0.220302646016D-05 0.000000000000D+00 0.000000000000D+00 0.314509508009D-04 0.000000000000D+00  6 -2 2 25 23 4 -4 4 0.50910055D-02 0.72774074D-01 0.14810930D+05 0.14810930D+05 0.14810930D+05 0.12484510D+01  1  2 12  8  6  5       21 0.635435346221D-02 0.100000000000D+01
0.226424345674D-05 0.000000000000D+00 0.000000000000D+00 0.314509508009D-04 0.000000000000D+00  6 -2 2 25 23 4 -4 4 0.50910055D-02 0.72774074D-01 0.14810930D+05 0.14810930D+05 0.14810930D+05 0.12484510D+01  1  2 12  8  6  5       21 0.653092620938D-02 0.100000000000D+01
-.235616746996D-05 0.000000000000D+00 0.000000000000D+00 0.314250123916D-04 0.000000000000D+00  6 -2 2 25 23 4 -4 4 0.50910055D-02 0.72774074D-01 0.14965630D+05 0.14965630D+05 0.14965630D+05 0.12479361D+01  1  2  5  8  6  5       21 -.678757950222D-02 0.100000000000D+01
  </mgrwgt>
  </event>
  <event>
  5     66 0.42185105E-03 0.28558737E+02 0.75467711E-02 0.12245960E+00
       -2 -1    0    0    0  501 0.00000000E+00 0.00000000E+00 0.13831992E+02 0.13835693E+02 0.32000000E+00 0.0000E+00 0.9000E+01
        2 -1    0    0  502    0 0.00000000E+00 0.00000000E+00 -.16698129E+04 0.16698130E+04 0.32000000E+00 0.0000E+00 0.9000E+01
       25  1    1    2    0    0 0.33696270E+02 -.39755202E+02 -.81942710E+03 0.83054300E+03 0.12500000E+03 0.0000E+00 0.9000E+01
       23  1    1    2    0    0 -.34666004E+02 0.11214623E+02 -.80324283E+03 0.80922295E+03 0.91188000E+02 0.0000E+00 0.9000E+01
       21  1    1    2  502  501 0.96973439E+00 0.28540579E+02 -.33311027E+02 0.43882708E+02 0.75000000E+00 0.0000E+00 0.9000E+01
#aMCatNLO 1  0  0  1  5 0.15390756D+01 0.00000000D+00  -5  6  0 0.00000000D+00 0.00000000D+00 0.00000000D+00 0.00000000D+00 0.00000000D+00
  <mgrwgt>
 0.1559983675D+00   11    4    0
 0.151986778066149D+03 0.000000000000000D+00 0.000000000000000D+00 0.151986778066149D+03
 0.151986778066149D+03 0.000000000000000D+00 0.000000000000000D+00 -.151986778066149D+03
 0.136153609907223D+03 0.336962378622996D+02 -.397561502930310D+02 -.140291681354789D+02
 0.106234473388492D+03 -.346660295984716D+02 0.112138836938439D+02 -.405342718758951D+02
 0.615854728365824D+02 0.969791736171949D+00 0.285422665991872D+02 0.545634400113740D+02
 0.000000000000000D+00 0.000000000000000D+00 -.000000000000000D+00 0.000000000000000D+00
 0.178104758940598D+03 0.000000000000000D+00 0.000000000000000D+00 0.178104758940598D+03
 0.152011401493002D+03 0.000000000000000D+00 0.000000000000000D+00 -.152011401493002D+03
 0.135911157423587D+03 0.334831706433312D+02 -.391011820449868D+02 -.140291681354789D+02
 0.106344125674076D+03 -.348325102911347D+02 0.117256450437816D+02 -.405342718758951D+02
 0.617221693249015D+02 0.873223493798416D+00 0.288391172026274D+02 0.545634400113740D+02
 0.261387080110344D+02 0.476116154005073D+00 -.146358020142210D+01 0.260933574475960D+02
 0.151986778066149D+03 0.000000000000000D+00 0.000000000000000D+00 0.151986778066149D+03
 0.151986778066149D+03 0.000000000000000D+00 0.000000000000000D+00 -.151986778066149D+03
 0.136153609907223D+03 0.336962378622996D+02 -.397561502930310D+02 -.140291681354789D+02
 0.106234473388492D+03 -.346660295984716D+02 0.112138836938439D+02 -.405342718758951D+02
 0.000000000000000D+00 0.000000000000000D+00 -.000000000000000D+00 0.000000000000000D+00
 0.615854728365824D+02 0.969791736171949D+00 0.285422665991872D+02 0.545634400113740D+02
 0.178104758940598D+03 0.000000000000000D+00 0.000000000000000D+00 0.178104758940598D+03
 0.152011401493002D+03 0.000000000000000D+00 0.000000000000000D+00 -.152011401493002D+03
 0.135911157423587D+03 0.334831706433312D+02 -.391011820449868D+02 -.140291681354789D+02
 0.106344125674076D+03 -.348325102911347D+02 0.117256450437816D+02 -.405342718758951D+02
 0.261387080110344D+02 0.476116154005073D+00 -.146358020142210D+01 0.260933574475960D+02
 0.617221693249015D+02 0.873223493798416D+00 0.288391172026274D+02 0.545634400113740D+02
0.160087915981D-05 0.000000000000D+00 0.000000000000D+00 0.192125971995D-04 0.000000000000D+00  6 -2 2 25 23 21 21 2 0.21282858D-02 0.25689459D+00 0.17185253D+05 0.17185253D+05 0.17185253D+05 0.12411448D+01  1  2  2  1  6  1       -2 0.189051433872D-02 0.100000000000D+01
0.136521069843D-06 0.844807142400D-07 -.614779749485D-08 0.192125971995D-04 0.000000000000D+00  6 -2 2 25 23 21 21 4 0.21282858D-02 0.25689459D+00 0.17185253D+05 0.17185253D+05 0.17185253D+05 0.12411448D+01  1  2  3  1  6  1       -2 0.248351056635D-03 0.100000000000D+01
0.603916071172D-07 0.000000000000D+00 0.000000000000D+00 0.192125971995D-04 0.000000000000D+00  6 -2 2 25 23 21 21 4 0.21282858D-02 0.25689459D+00 0.17185253D+05 0.17185253D+05 0.17185253D+05 0.12411448D+01  1  2 15  1  6  1       -2 0.109860840210D-03 0.100000000000D+01
0.241445284464D-06 0.000000000000D+00 0.000000000000D+00 0.191930445867D-04 0.000000000000D+00  6 -2 2 25 23 21 21 4 0.25020143D-02 0.25689459D+00 0.17409828D+05 0.17409828D+05 0.17409828D+05 0.12405131D+01  1  2 12  1  6  1       -2 0.346381479020D-03 0.100000000000D+01
-.835125441656D-03 0.000000000000D+00 0.000000000000D+00 0.192125971995D-04 0.000000000000D+00  6 -2 2 25 23 21 21 4 0.21282858D-02 0.25689459D+00 0.17185253D+05 0.17185253D+05 0.17185253D+05 0.12411448D+01  1  2  4  1  6  1       -2 -.151921081556D+01 0.100000000000D+01
-.109275583229D-02 0.000000000000D+00 -.220901419173D-05 0.192125971995D-04 0.000000000000D+00  6 -2 2 25 23 21 21 4 0.24942297D-02 0.25689459D+00 0.17185253D+05 0.17185253D+05 0.17185253D+05 0.12411448D+01  1  2  5  1  6  1       -2 -.157777550480D+01 0.100000000000D+01
0.107951744078D-02 0.000000000000D+00 0.218149806127D-05 0.192125971995D-04 0.000000000000D+00  6 -2 2 25 23 21 21 4 0.21282858D-02 0.25689459D+00 0.17185253D+05 0.17185253D+05 0.17185253D+05 0.12411448D+01  1  2  6  1  6  1       -2 0.196379428745D+01 0.100000000000D+01
0.881340534514D-03 0.000000000000D+00 0.000000000000D+00 0.192125971995D-04 0.274747508318D-04  6 -2 2 25 23 21 21 4 0.24940185D-02 0.25693621D+00 0.17409828D+05 0.17409828D+05 0.17409828D+05 0.12405131D+01  1  2 11  1  6  1       -2 0.126990275833D+01 0.100000000000D+01
0.585271363728D-08 0.000000000000D+00 0.000000000000D+00 0.191930445867D-04 0.000000000000D+00  6 21 2 25 23 2 21 4 0.25020143D-02 0.25689459D+00 0.17409828D+05 0.17409828D+05 0.17409828D+05 0.12405131D+01  3  4 12  4  5  1       -2 0.169745426334D-03 0.100000000000D+01
-.260629384477D-04 0.000000000000D+00 -.527206972817D-07 0.192125971995D-04 0.000000000000D+00  6 21 2 25 23 2 21 4 0.24942297D-02 0.25689459D+00 0.17185253D+05 0.17185253D+05 0.17185253D+05 0.12411448D+01  3  4  5  4  5  1       -2 -.761305184507D+00 0.100000000000D+01
0.266881051752D-04 0.000000000000D+00 0.000000000000D+00 0.192125971995D-04 0.166388674253D-05  6 21 2 25 23 2 21 4 0.24940185D-02 0.25693621D+00 0.17409828D+05 0.17409828D+05 0.17409828D+05 0.12405131D+01  3  4 11  4  5  1       -2 0.777827973416D+00 0.100000000000D+01
  </mgrwgt>
  </event>
  <event>
  5     66 -.42185105E-03 0.55919373E+02 0.75467711E-02 0.11844362E+00
       -2 -1    0    0    0  501 0.00000000E+00 0.00000000E+00 0.58663962E+02 0.58664834E+02 0.32000000E+00 0.0000E+00 0.9000E+01
        2 -1    0    0  502    0 0.00000000E+00 0.00000000E+00 -.10278437E+04 0.10278438E+04 0.32000000E+00 0.0000E+00 0.9000E+01
       25  1    1    2    0    0 -.37242628E+02 -.72887565E+02 -.48214917E+03 0.50476968E+03 0.12500000E+03 0.0000E+00 0.9000E+01
       23  1    1    2    0    0 -.86808229E+01 0.40981773E+02 -.51109771E+03 0.52085601E+03 0.91188000E+02 0.0000E+00 0.9000E+01
       21  1    1    2  502  501 0.45923451E+02 0.31905792E+02 0.24067105E+02 0.60882928E+02 0.75000000E+00 0.0000E+00 0.9000E+01
#aMCatNLO 1  0  0  1  5 0.28346389D+02 0.00000000D+00  -5  6  0 0.00000000D+00 0.00000000D+00 0.00000000D+00 0.00000000D+00 0.00000000D+00
  <mgrwgt>
 -.4075237638D-01    7    4    0
 0.245556279793038D+03 0.000000000000000D+00 0.000000000000000D+00 0.245556279793038D+03
 0.245556279793038D+03 0.000000000000000D+00 0.000000000000000D+00 -.245556279793038D+03
 0.165232030053232D+03 -.372427590266067D+02 -.728876559734321D+02 -.705477870829187D+02
 0.143692364269630D+03 -.868093673558712D+01 0.409816942723000D+02 -.102846420829120D+03
 0.182188165263214D+03 0.459236957621938D+02 0.319059617011321D+02 0.173394207912039D+03
 0.000000000000000D+00 0.000000000000000D+00 0.000000000000000D+00 0.000000000000000D+00
 0.589062769366433D+03 0.000000000000000D+00 0.000000000000000D+00 0.589062769366433D+03
 0.246550456433121D+03 0.000000000000000D+00 0.000000000000000D+00 -.246550456433121D+03
 0.169366363686063D+03 -.457844449962316D+02 -.773741525467649D+02 -.705477870829187D+02
 0.143275174036677D+03 -.160066939464799D+02 0.371338608655677D+02 -.102846420829120D+03
 0.179288400327694D+03 0.366958591484240D+02 0.270590664284448D+02 0.173394207912039D+03
 0.343683287749120D+03 0.250952797942874D+02 0.131812252527524D+02 0.342512312933312D+03
 0.245556279793038D+03 0.000000000000000D+00 0.000000000000000D+00 0.245556279793038D+03
 0.245556279793038D+03 0.000000000000000D+00 0.000000000000000D+00 -.245556279793038D+03
 0.165232030053232D+03 -.372427590266067D+02 -.728876559734321D+02 -.705477870829187D+02
 0.143692364269630D+03 -.868093673558712D+01 0.409816942723000D+02 -.102846420829120D+03
 0.000000000000000D+00 0.000000000000000D+00 0.000000000000000D+00 0.000000000000000D+00
 0.182188165263214D+03 0.459236957621938D+02 0.319059617011321D+02 0.173394207912039D+03
 0.589062769366433D+03 0.000000000000000D+00 0.000000000000000D+00 0.589062769366433D+03
 0.246550456433121D+03 0.000000000000000D+00 0.000000000000000D+00 -.246550456433121D+03
 0.169366363686063D+03 -.457844449962316D+02 -.773741525467649D+02 -.705477870829187D+02
 0.143275174036677D+03 -.160066939464799D+02 0.371338608655677D+02 -.102846420829120D+03
 0.343683287749120D+03 0.250952797942874D+02 0.131812252527524D+02 0.342512312933312D+03
 0.179288400327694D+03 0.366958591484240D+02 0.270590664284448D+02 0.173394207912039D+03
0.185171950146D-04 0.000000000000D+00 0.000000000000D+00 0.812153519757D-05 0.000000000000D+00  6 -2 2 25 23 21 21 2 0.90252958D-02 0.15812988D+00 0.23360617D+05 0.23360617D+05 0.23360617D+05 0.12264683D+01  1  2  2  1  6  1       -2 0.546693591705D-02 0.100000000000D+01
0.632969239570D-06 0.977179227405D-06 -.711109045456D-07 0.812153519757D-05 0.000000000000D+00  6 -2 2 25 23 21 21 4 0.90252958D-02 0.15812988D+00 0.23360617D+05 0.23360617D+05 0.23360617D+05 0.12264683D+01  1  2  3  1  6  1       -2 0.281102077121D-03 0.100000000000D+01
0.107486830593D-05 0.000000000000D+00 0.000000000000D+00 0.812153519757D-05 0.000000000000D+00  6 -2 2 25 23 21 21 4 0.90252958D-02 0.15812988D+00 0.23360617D+05 0.23360617D+05 0.23360617D+05 0.12264683D+01  1  2 15  1  6  1       -2 0.477349758156D-03 0.100000000000D+01
0.964458907020D-03 0.000000000000D+00 0.000000000000D+00 0.803613113667D-05 0.000000000000D+00  6 -2 2 25 23 21 21 4 0.22971083D-01 0.15812988D+00 0.26841186D+05 0.26841186D+05 0.26841186D+05 0.12200027D+01  1  2 12  1  6  1       -2 0.907956029094D-01 0.100000000000D+01
-.107758704479D-02 0.000000000000D+00 -.887609505841D-05 0.812153519757D-05 0.000000000000D+00  6 -2 2 25 23 21 21 4 0.21682642D-01 0.15812988D+00 0.23360617D+05 0.23360617D+05 0.23360617D+05 0.12264683D+01  1  2  5  1  6  1       -2 -.114634738055D+00 0.100000000000D+01
0.994683971183D-04 0.000000000000D+00 0.000000000000D+00 0.803613113667D-05 0.000000000000D+00  6 21 2 25 23 2 21 4 0.22971083D-01 0.15812988D+00 0.26841186D+05 0.26841186D+05 0.26841186D+05 0.12200027D+01  3  4 12  4  5  1       -2 0.127392288688D+00 0.100000000000D+01
-.102791851804D-03 0.000000000000D+00 -.851290168833D-06 0.812153519757D-05 0.000000000000D+00  6 21 2 25 23 2 21 4 0.21682642D-01 0.15812988D+00 0.23360617D+05 0.23360617D+05 0.23360617D+05 0.12264683D+01  3  4  5  4  5  1       -2 -.150530917672D+00 0.100000000000D+01
  </mgrwgt>
  </event>
  <event>
  5     66 0.42185105E-03 0.28701841E+02 0.75467711E-02 0.11920445E+00
       -2 -1    0    0    0  501 0.00000000E+00 0.00000000E+00 0.13131600E+02 0.13135499E+02 0.32000000E+00 0.0000E+00 0.9000E+01
        2 -1    0    0  502    0 -.00000000E+00 -.00000000E+00 -.21198221E+04 0.21198221E+04 0.32000000E+00 0.0000E+00 0.9000E+01
       25  1    1    2    0    0 0.96405974E+02 -.35606825E+02 -.84231107E+03 0.85771492E+03 0.12500000E+03 0.0000E+00 0.9000E+01
       23  1    1    2    0    0 -.79716347E+02 0.12262950E+02 -.11767684E+04 0.11830487E+04 0.91188000E+02 0.0000E+00 0.9000E+01
       21  1    1    2  502  501 -.16689628E+02 0.23343875E+02 -.87611020E+02 0.92193999E+02 0.75000000E+00 0.0000E+00 0.9000E+01
#aMCatNLO 1  0  0  5  2 0.79380835D+01 0.00000000D+00  -5  6  0 0.00000000D+00 0.00000000D+00 0.00000000D+00 0.00000000D+00 0.00000000D+00
  <mgrwgt>
 0.1648344779D+00   25    2    0
 0.166855744665225D+03 0.000000000000000D+00 0.000000000000000D+00 0.166855744665225D+03
 0.166855744665225D+03 -.000000000000000D+00 -.000000000000000D+00 -.166855744665225D+03
 0.164756811358167D+03 0.964077444471087D+02 -.356093008491915D+02 0.309407723330160D+02
 0.132766805803378D+03 -.797149202599462D+02 0.122609545078959D+02 -.529808820400118D+02
 0.361878721689050D+02 -.166928241871624D+02 0.233483463412955D+02 0.220401097069958D+02
 0.000000000000000D+00 0.000000000000000D+00 0.000000000000000D+00 0.000000000000000D+00
 0.166855744665225D+03 0.000000000000000D+00 0.000000000000000D+00 0.166855744665225D+03
 0.166855744665225D+03 -.000000000000000D+00 -.000000000000000D+00 -.166855744665225D+03
 0.164033066425604D+03 0.952485308581066D+02 -.339879023335124D+02 0.324713218906573D+02
 0.132972096556264D+03 -.806518351942447D+02 0.135714226547513D+02 -.517438410392481D+02
 0.265985201435710D+02 -.186924221208471D+02 0.144548983849385D+02 0.122119016440977D+02
 0.101078062050109D+02 0.409572645698528D+01 0.596158129382261D+01 0.706061750449300D+01
0.858623405446D-04 0.000000000000D+00 0.000000000000D+00 0.125853903375D-04 0.000000000000D+00  6 -2 2 25 23 21 21 2 0.20205479D-02 0.32612678D+00 0.24377345D+05 0.24377345D+05 0.24377345D+05 0.12244738D+01  1  2  2  3  6  5       21 0.627807952944D-01 0.100000000000D+01
0.127241112082D-04 0.453108019494D-05 -.329733995765D-06 0.125853903375D-04 0.000000000000D+00  6 -2 2 25 23 21 21 4 0.20205479D-02 0.32612678D+00 0.24377345D+05 0.24377345D+05 0.24377345D+05 0.12244738D+01  1  2  3  3  6  5       21 0.139492386694D-01 0.100000000000D+01
0.149598468727D-05 0.000000000000D+00 0.000000000000D+00 0.125853903375D-04 0.000000000000D+00  6 -2 2 25 23 21 21 4 0.20205479D-02 0.32612678D+00 0.24377345D+05 0.24377345D+05 0.24377345D+05 0.12244738D+01  1  2 15  3  6  5       21 0.164002397552D-02 0.100000000000D+01
0.521508528098D-04 0.000000000000D+00 0.000000000000D+00 0.125739014281D-04 0.000000000000D+00  6 -2 2 25 23 21 21 4 0.20205479D-02 0.32612678D+00 0.24671115D+05 0.24671115D+05 0.24671115D+05 0.12239147D+01  1  2 12  3  6  5       21 0.570703435539D-01 0.100000000000D+01
0.587825200365D-04 0.000000000000D+00 0.000000000000D+00 0.125739014281D-04 0.000000000000D+00  6 -2 2 25 23 21 21 4 0.20205479D-02 0.32612678D+00 0.24671115D+05 0.24671115D+05 0.24671115D+05 0.12239147D+01  1  2 12  3  6  5       21 0.643275887680D-01 0.100000000000D+01
-.111236516306D-03 0.000000000000D+00 0.000000000000D+00 0.125853903375D-04 0.000000000000D+00  6 -2 2 25 23 21 21 4 0.20205479D-02 0.32612678D+00 0.24377345D+05 0.24377345D+05 0.24377345D+05 0.12244738D+01  1  2  4  3  6  5       21 -.121946805504D+00 0.100000000000D+01
-.125000498161D-03 0.000000000000D+00 0.000000000000D+00 0.125853903375D-04 0.000000000000D+00  6 -2 2 25 23 21 21 4 0.20205479D-02 0.32612678D+00 0.24377345D+05 0.24377345D+05 0.24377345D+05 0.12244738D+01  1  2  5  3  6  5       21 -.137036037655D+00 0.100000000000D+01
0.204899599381D-03 0.000000000000D+00 -.000000000000D+00 0.125853903375D-04 0.000000000000D+00  6 -2 2 25 23 21 21 4 0.20205479D-02 0.32612678D+00 0.24377345D+05 0.24377345D+05 0.24377345D+05 0.12244738D+01  1  2  6  3  6  5       21 0.224628138522D+00 0.100000000000D+01
0.737703178912D-06 0.000000000000D+00 0.000000000000D+00 0.125853903375D-04 0.122063983028D-05  6 -2 2 25 23 21 21 4 0.20205479D-02 0.32612678D+00 0.24671115D+05 0.24671115D+05 0.24671115D+05 0.12239147D+01  1  2 11  3  6  5       21 0.807292145632D-03 0.100000000000D+01
0.127556840852D-05 0.000000000000D+00 0.000000000000D+00 0.125739014281D-04 0.000000000000D+00  6 -2 2 25 23 1 -1 4 0.20205479D-02 0.32612678D+00 0.24671115D+05 0.24671115D+05 0.24671115D+05 0.12239147D+01  1  2 12  6  6  5       21 0.139589524195D-02 0.100000000000D+01
0.127556840852D-05 0.000000000000D+00 0.000000000000D+00 0.125739014281D-04 0.000000000000D+00  6 -2 2 25 23 3 -3 4 0.20205479D-02 0.32612678D+00 0.24671115D+05 0.24671115D+05 0.24671115D+05 0.12239147D+01  1  2 12  6  6  5       21 0.139589524195D-02 0.100000000000D+01
0.138913926423D-05 0.000000000000D+00 0.000000000000D+00 0.125739014281D-04 0.000000000000D+00  6 -2 2 25 23 1 -1 4 0.20205479D-02 0.32612678D+00 0.24671115D+05 0.24671115D+05 0.24671115D+05 0.12239147D+01  1  2 12  6  6  5       21 0.152017945599D-02 0.100000000000D+01
0.138913926423D-05 0.000000000000D+00 0.000000000000D+00 0.125739014281D-04 0.000000000000D+00  6 -2 2 25 23 3 -3 4 0.20205479D-02 0.32612678D+00 0.24671115D+05 0.24671115D+05 0.24671115D+05 0.12239147D+01  1  2 12  6  6  5       21 0.152017945599D-02 0.100000000000D+01
-.299514292121D-05 0.000000000000D+00 0.000000000000D+00 0.125853903375D-04 0.000000000000D+00  6 -2 2 25 23 1 -1 4 0.20205479D-02 0.32612678D+00 0.24377345D+05 0.24377345D+05 0.24377345D+05 0.12244738D+01  1  2  5  6  6  5       21 -.328352705925D-02 0.100000000000D+01
-.299514292121D-05 0.000000000000D+00 0.000000000000D+00 0.125853903375D-04 0.000000000000D+00  6 -2 2 25 23 3 -3 4 0.20205479D-02 0.32612678D+00 0.24377345D+05 0.24377345D+05 0.24377345D+05 0.12244738D+01  1  2  5  6  6  5       21 -.328352705925D-02 0.100000000000D+01
0.196075494564D-07 0.000000000000D+00 0.000000000000D+00 0.125853903375D-04 0.460964401360D-07  6 -2 2 25 23 1 -1 4 0.20205479D-02 0.32612678D+00 0.24671115D+05 0.24671115D+05 0.24671115D+05 0.12239147D+01  1  2 11  6  6  5       21 0.214571674946D-04 0.100000000000D+01
0.196075494564D-07 0.000000000000D+00 0.000000000000D+00 0.125853903375D-04 0.460964401360D-07  6 -2 2 25 23 3 -3 4 0.20205479D-02 0.32612678D+00 0.24671115D+05 0.24671115D+05 0.24671115D+05 0.12239147D+01  1  2 11  6  6  5       21 0.214571674946D-04 0.100000000000D+01
0.127556840852D-05 0.000000000000D+00 0.000000000000D+00 0.125739014281D-04 0.000000000000D+00  6 -2 2 25 23 2 -2 4 0.20205479D-02 0.32612678D+00 0.24671115D+05 0.24671115D+05 0.24671115D+05 0.12239147D+01  1  2 12  7  6  5       21 0.139589524195D-02 0.100000000000D+01
0.138913926423D-05 0.000000000000D+00 0.000000000000D+00 0.125739014281D-04 0.000000000000D+00  6 -2 2 25 23 2 -2 4 0.20205479D-02 0.32612678D+00 0.24671115D+05 0.24671115D+05 0.24671115D+05 0.12239147D+01  1  2 12  7  6  5       21 0.152017945599D-02 0.100000000000D+01
-.299514292121D-05 0.000000000000D+00 0.000000000000D+00 0.125853903375D-04 0.000000000000D+00  6 -2 2 25 23 2 -2 4 0.20205479D-02 0.32612678D+00 0.24377345D+05 0.24377345D+05 0.24377345D+05 0.12244738D+01  1  2  5  7  6  5       21 -.328352705925D-02 0.100000000000D+01
0.176408899420D-07 0.000000000000D+00 0.000000000000D+00 0.125853903375D-04 0.498864220637D-07  6 -2 2 25 23 2 -2 4 0.20205479D-02 0.32612678D+00 0.24671115D+05 0.24671115D+05 0.24671115D+05 0.12239147D+01  1  2 11  7  6  5       21 0.193049891870D-04 0.100000000000D+01
0.127556840852D-05 0.000000000000D+00 0.000000000000D+00 0.125739014281D-04 0.000000000000D+00  6 -2 2 25 23 4 -4 4 0.20205479D-02 0.32612678D+00 0.24671115D+05 0.24671115D+05 0.24671115D+05 0.12239147D+01  1  2 12  8  6  5       21 0.139589524195D-02 0.100000000000D+01
0.138913926423D-05 0.000000000000D+00 0.000000000000D+00 0.125739014281D-04 0.000000000000D+00  6 -2 2 25 23 4 -4 4 0.20205479D-02 0.32612678D+00 0.24671115D+05 0.24671115D+05 0.24671115D+05 0.12239147D+01  1  2 12  8  6  5       21 0.152017945599D-02 0.100000000000D+01
-.299514292121D-05 0.000000000000D+00 0.000000000000D+00 0.125853903375D-04 0.000000000000D+00  6 -2 2 25 23 4 -4 4 0.20205479D-02 0.32612678D+00 0.24377345D+05 0.24377345D+05 0.24377345D+05 0.12244738D+01  1  2  5  8  6  5       21 -.328352705925D-02 0.100000000000D+01
0.196377811800D-07 0.000000000000D+00 0.000000000000D+00 0.125853903375D-04 0.461675135172D-07  6 -2 2 25 23 4 -4 4 0.20205479D-02 0.32612678D+00 0.24671115D+05 0.24671115D+05 0.24671115D+05 0.12239147D+01  1  2 11  8  6  5       21 0.214902510351D-04 0.100000000000D+01
  </mgrwgt>
  </event>
  <event>
  6     66 -.42185105E-03 0.18754598E+02 0.75467711E-02 0.11383162E+00
       -2 -1    0    0    0  501 0.00000000E+00 0.00000000E+00 0.50678313E+02 0.50679323E+02 0.32000000E+00 0.0000E+00 0.9000E+01
        2 -1    0    0  503    0 0.00000000E+00 0.00000000E+00 -.10807349E+04 0.10807349E+04 0.32000000E+00 0.0000E+00 0.9000E+01
       25  1    1    2    0    0 0.41483873E+02 -.16244480E+03 -.57492909E+03 0.61178238E+03 0.12500000E+03 0.0000E+00 0.9000E+01
       23  1    1    2    0    0 -.28962967E+02 0.15758228E+03 -.36787437E+03 0.41148248E+03 0.91188000E+02 0.0000E+00 0.9000E+01
       21  1    1    2  502  501 -.22889461E+02 0.75775563E+01 -.42996219E+01 0.24502980E+02 0.75000000E+00 0.0000E+00 0.9000E+01
       21  1    1    2  503  502 0.10368554E+02 -.27150364E+01 -.82953472E+02 0.83646394E+02 0.75000000E+00 0.0000E+00 0.9000E+01
#aMCatNLO 2  0  0  2  5 0.10718131D+02 0.00000000D+00  -5  6  0 0.00000000D+00 0.00000000D+00 0.00000000D+00 0.00000000D+00 0.00000000D+00
  <mgrwgt>
 -.4848961995D+00    3    2    0
 0.223996834068590D+03 0.000000000000000D+00 0.000000000000000D+00 0.223996834068590D+03
 0.223996834068590D+03 0.000000000000000D+00 0.000000000000000D+00 -.223996834068590D+03
 0.217325625200983D+03 0.464910981881762D+02 -.163756052183061D+03 -.512636375189480D+02
 0.183026601935973D+03 -.247082169280525D+02 0.156468081571463D+03 0.952518439775854D+01
 0.476414410002247D+02 -.217828812601237D+02 0.728797061159793D+01 0.417384531211895D+02
 0.000000000000000D+00 0.000000000000000D+00 -.000000000000000D+00 -.000000000000000D+00
 0.225596343074387D+03 0.000000000000000D+00 0.000000000000000D+00 0.225596343074387D+03
 0.242765749986746D+03 0.000000000000000D+00 0.000000000000000D+00 -.242765749986746D+03
 0.215319371736619D+03 0.414851554158772D+02 -.162445231365831D+03 -.512636375189480D+02
 0.184599097987244D+03 -.289618503422104D+02 0.157581907973753D+03 0.952518439775854D+01
 0.482033943133907D+02 -.228918592073934D+02 0.757835974412526D+01 0.417384531211895D+02
 0.202402290238798D+02 0.103685541337266D+02 -.271503635204674D+01 -.171694069123587D+02
-.284572381658D-02 0.000000000000D+00 0.000000000000D+00 0.165659572188D-04 0.000000000000D+00  6 -2 2 25 23 21 21 4 0.77412280D-02 0.16902300D+00 0.45862978D+05 0.45862978D+05 0.45862978D+05 0.11960143D+01  1  2 13  2  6  2        2 -.132368799526D+01 0.100000000000D+01
-.878235860384D-04 0.000000000000D+00 0.000000000000D+00 0.166309605872D-04 0.000000000000D+00  6 -2 2 25 23 21 21 4 0.77412280D-02 0.15340771D+00 0.43460005D+05 0.43460005D+05 0.43460005D+05 0.11983586D+01  1  2  8  2  6  2        2 -.473118562382D-01 0.100000000000D+01
0.188012844725D-02 0.000000000000D+00 0.000000000000D+00 0.166309605872D-04 0.464210730956D-06  6 -2 2 25 23 21 21 4 0.77965063D-02 0.16626189D+00 0.45862978D+05 0.45862978D+05 0.45862978D+05 0.11960143D+01  1  2  1  2  6  2        2 0.886103652028D+00 0.100000000000D+01
  </mgrwgt>
  </event>
  <event>
  5     66 -.42185105E-03 0.20011695E+02 0.75467711E-02 0.12409528E+00
       -2 -1    0    0    0  501 0.00000000E+00 0.00000000E+00 0.18370095E+02 0.18372882E+02 0.32000000E+00 0.0000E+00 0.9000E+01
        2 -1    0    0  502    0 -.00000000E+00 -.00000000E+00 -.10587851E+04 0.10587852E+04 0.32000000E+00 0.0000E+00 0.9000E+01
       25  1    1    2    0    0 -.29710384E+02 -.57313187E+01 -.29552445E+03 0.32229684E+03 0.12500000E+03 0.0000E+00 0.9000E+01
       23  1    1    2    0    0 0.13946253E+02 0.18039370E+02 -.69119577E+03 0.69755771E+03 0.91188000E+02 0.0000E+00 0.9000E+01
       21  1    1    2  502  501 0.15764131E+02 -.12308051E+02 -.53694809E+02 0.57303499E+02 0.75000000E+00 0.0000E+00 0.9000E+01
#aMCatNLO 1  0  0  5  1 0.66332141D+00 0.00000000D+00  -5  6  0 0.00000000D+00 0.00000000D+00 0.00000000D+00 0.00000000D+00 0.00000000D+00
  <mgrwgt>
 -.3710041300D+01   20    2    0
 0.139468670420020D+03 0.000000000000000D+00 0.000000000000000D+00 0.139468670420020D+03
 0.139468670420020D+03 -.000000000000000D+00 -.000000000000000D+00 -.139468670420020D+03
 0.142313564615699D+03 -.297155147459119D+02 -.572731320964189D+01 0.609289482956236D+02
 0.115616343079111D+03 0.139420856496993D+02 0.180426236867369D+02 -.673199036037780D+02
 0.210074331452302D+02 0.157734290962125D+02 -.123153104770950D+02 0.639095530815432D+01
 0.000000000000000D+00 0.000000000000000D+00 0.000000000000000D+00 0.000000000000000D+00
 0.139468670420020D+03 0.000000000000000D+00 0.000000000000000D+00 0.139468670420020D+03
 0.139468670420020D+03 -.000000000000000D+00 -.000000000000000D+00 -.139468670420020D+03
 0.142313351983962D+03 -.296554576235500D+02 -.577420359116490D+01 0.609532817733101D+02
 0.115604789479564D+03 0.139908739934604D+02 0.180045315510690D+02 -.673001359221512D+02
 0.194335017724016D+02 0.146385920892651D+02 -.116331014504925D+02 0.529561737898328D+01
 0.158569760411261D+01 0.102599154082445D+01 -.597226509411592D+00 0.105123676985785D+01
0.229447275493D-04 0.000000000000D+00 0.000000000000D+00 0.261315539880D-04 0.000000000000D+00  6 -2 2 25 23 21 21 2 0.28263865D-02 0.16289024D+00 0.14715919D+05 0.14715919D+05 0.14715919D+05 0.12487703D+01  1  2  2  3  6  5       21 0.383829737121D-01 0.100000000000D+01
0.465264830143D-05 0.121082653836D-05 -.881137952747D-07 0.261315539880D-04 0.000000000000D+00  6 -2 2 25 23 21 21 4 0.28263865D-02 0.16289024D+00 0.14715919D+05 0.14715919D+05 0.14715919D+05 0.12487703D+01  1  2  3  3  6  5       21 0.121372712638D-01 0.100000000000D+01
0.406154842889D-06 0.000000000000D+00 0.000000000000D+00 0.261315539880D-04 0.000000000000D+00  6 -2 2 25 23 21 21 4 0.28263865D-02 0.16289024D+00 0.14715919D+05 0.14715919D+05 0.14715919D+05 0.12487703D+01  1  2 15  3  6  5       21 0.105952807603D-02 0.100000000000D+01
0.730651724831D-12 0.000000000000D+00 0.000000000000D+00 0.261339227502D-04 0.000000000000D+00  6 -2 2 25 23 21 21 4 0.28263865D-02 0.16289024D+00 0.14699146D+05 0.14699146D+05 0.14699146D+05 0.12488269D+01  1  2 12  3  6  5       21 0.190631897882D-08 0.100000000000D+01
0.734619253897D-12 0.000000000000D+00 0.000000000000D+00 0.261339227502D-04 0.000000000000D+00  6 -2 2 25 23 21 21 4 0.28263865D-02 0.16289024D+00 0.14699146D+05 0.14699146D+05 0.14699146D+05 0.12488269D+01  1  2 12  3  6  5       21 0.191667052621D-08 0.100000000000D+01
-.157720395696D-02 0.000000000000D+00 0.000000000000D+00 0.261315539880D-04 0.000000000000D+00  6 -2 2 25 23 21 21 4 0.28263865D-02 0.16289024D+00 0.14715919D+05 0.14715919D+05 0.14715919D+05 0.12487703D+01  1  2  4  3  6  5       21 -.411442065330D+01 0.100000000000D+01
-.928836733345D-03 0.000000000000D+00 0.000000000000D+00 0.261315539880D-04 0.000000000000D+00  6 -2 2 25 23 21 21 4 0.28263865D-02 0.16289024D+00 0.14715919D+05 0.14715919D+05 0.14715919D+05 0.12487703D+01  1  2  5  3  6  5       21 -.242303794786D+01 0.100000000000D+01
0.108254336876D-02 0.000000000000D+00 -.000000000000D+00 0.261315539880D-04 0.000000000000D+00  6 -2 2 25 23 21 21 4 0.28263865D-02 0.16289024D+00 0.14715919D+05 0.14715919D+05 0.14715919D+05 0.12487703D+01  1  2  6  3  6  5       21 0.282400939642D+01 0.100000000000D+01
0.254271802412D-12 0.000000000000D+00 0.000000000000D+00 0.261339227502D-04 0.000000000000D+00  6 -2 2 25 23 1 -1 4 0.28263865D-02 0.16289024D+00 0.14699146D+05 0.14699146D+05 0.14699146D+05 0.12488269D+01  1  2 12  6  6  5       21 0.663412055626D-09 0.100000000000D+01
0.254271802412D-12 0.000000000000D+00 0.000000000000D+00 0.261339227502D-04 0.000000000000D+00  6 -2 2 25 23 3 -3 4 0.28263865D-02 0.16289024D+00 0.14699146D+05 0.14699146D+05 0.14699146D+05 0.12488269D+01  1  2 12  6  6  5       21 0.663412055626D-09 0.100000000000D+01
0.254625086724D-12 0.000000000000D+00 0.000000000000D+00 0.261339227502D-04 0.000000000000D+00  6 -2 2 25 23 1 -1 4 0.28263865D-02 0.16289024D+00 0.14699146D+05 0.14699146D+05 0.14699146D+05 0.12488269D+01  1  2 12  6  6  5       21 0.664333797909D-09 0.100000000000D+01
0.254625086724D-12 0.000000000000D+00 0.000000000000D+00 0.261339227502D-04 0.000000000000D+00  6 -2 2 25 23 3 -3 4 0.28263865D-02 0.16289024D+00 0.14699146D+05 0.14699146D+05 0.14699146D+05 0.12488269D+01  1  2 12  6  6  5       21 0.664333797909D-09 0.100000000000D+01
-.461649902971D-05 0.000000000000D+00 0.000000000000D+00 0.261315539880D-04 0.000000000000D+00  6 -2 2 25 23 1 -1 4 0.28263865D-02 0.16289024D+00 0.14715919D+05 0.14715919D+05 0.14715919D+05 0.12487703D+01  1  2  5  6  6  5       21 -.120429693763D-01 0.100000000000D+01
-.461649902971D-05 0.000000000000D+00 0.000000000000D+00 0.261315539880D-04 0.000000000000D+00  6 -2 2 25 23 3 -3 4 0.28263865D-02 0.16289024D+00 0.14715919D+05 0.14715919D+05 0.14715919D+05 0.12487703D+01  1  2  5  6  6  5       21 -.120429693763D-01 0.100000000000D+01
0.254271802412D-12 0.000000000000D+00 0.000000000000D+00 0.261339227502D-04 0.000000000000D+00  6 -2 2 25 23 2 -2 4 0.28263865D-02 0.16289024D+00 0.14699146D+05 0.14699146D+05 0.14699146D+05 0.12488269D+01  1  2 12  7  6  5       21 0.663412055626D-09 0.100000000000D+01
0.254625086724D-12 0.000000000000D+00 0.000000000000D+00 0.261339227502D-04 0.000000000000D+00  6 -2 2 25 23 2 -2 4 0.28263865D-02 0.16289024D+00 0.14699146D+05 0.14699146D+05 0.14699146D+05 0.12488269D+01  1  2 12  7  6  5       21 0.664333797909D-09 0.100000000000D+01
-.461649902971D-05 0.000000000000D+00 0.000000000000D+00 0.261315539880D-04 0.000000000000D+00  6 -2 2 25 23 2 -2 4 0.28263865D-02 0.16289024D+00 0.14715919D+05 0.14715919D+05 0.14715919D+05 0.12487703D+01  1  2  5  7  6  5       21 -.120429693763D-01 0.100000000000D+01
0.254271802412D-12 0.000000000000D+00 0.000000000000D+00 0.261339227502D-04 0.000000000000D+00  6 -2 2 25 23 4 -4 4 0.28263865D-02 0.16289024D+00 0.14699146D+05 0.14699146D+05 0.14699146D+05 0.12488269D+01  1  2 12  8  6  5       21 0.663412055626D-09 0.100000000000D+01
0.254625086724D-12 0.000000000000D+00 0.000000000000D+00 0.261339227502D-04 0.000000000000D+00  6 -2 2 25 23 4 -4 4 0.28263865D-02 0.16289024D+00 0.14699146D+05 0.14699146D+05 0.14699146D+05 0.12488269D+01  1  2 12  8  6  5       21 0.664333797909D-09 0.100000000000D+01
-.461649902971D-05 0.000000000000D+00 0.000000000000D+00 0.261315539880D-04 0.000000000000D+00  6 -2 2 25 23 4 -4 4 0.28263865D-02 0.16289024D+00 0.14715919D+05 0.14715919D+05 0.14715919D+05 0.12487703D+01  1  2  5  8  6  5       21 -.120429693763D-01 0.100000000000D+01
  </mgrwgt>
  </event>
  <event>
  5     66 0.42185105E-03 0.20367360E+02 0.75467711E-02 0.12064499E+00
       -2 -1    0    0    0  501 0.00000000E+00 0.00000000E+00 0.51756287E+02 0.51757276E+02 0.32000000E+00 0.0000E+00 0.9000E+01
        2 -1    0    0  502    0 -.00000000E+00 -.00000000E+00 -.53669505E+03 0.53669515E+03 0.32000000E+00 0.0000E+00 0.9000E+01
       25  1    1    2    0    0 -.43819841E+02 -.54862491E+02 -.20639038E+03 0.25130073E+03 0.12500000E+03 0.0000E+00 0.9000E+01
       23  1    1    2    0    0 0.63130121E+02 0.61333496E+02 -.28802559E+03 0.31467635E+03 0.91188000E+02 0.0000E+00 0.9000E+01
       21  1    1    2  502  501 -.19310280E+02 -.64710056E+01 0.94772094E+01 0.22475338E+02 0.75000000E+00 0.0000E+00 0.9000E+01
#aMCatNLO 1  0  0  5  2 0.10710080D+02 0.00000000D+00  -5  6  0 0.00000000D+00 0.00000000D+00 0.00000000D+00 0.00000000D+00 0.00000000D+00
  <mgrwgt>
 0.2549618450D+00   15    2    0
 0.166666320126713D+03 0.000000000000000D+00 0.000000000000000D+00 0.166666320126713D+03
 0.166666320126713D+03 -.000000000000000D+00 -.000000000000000D+00 -.166666320126713D+03
 0.143375420308705D+03 -.438190235496487D+02 -.548622169799294D+02 0.124156026847290D+01
 0.136493352321466D+03 0.631308990579424D+02 0.613337572382835D+02 -.506738955589858D+02
 0.534638676232558D+02 -.193118755082937D+02 -.647154025835405D+01 0.494323352905130D+02
 0.000000000000000D+00 0.000000000000000D+00 0.000000000000000D+00 0.000000000000000D+00
 0.166666320126713D+03 0.000000000000000D+00 0.000000000000000D+00 0.166666320126713D+03
 0.166666320126713D+03 -.000000000000000D+00 -.000000000000000D+00 -.166666320126713D+03
 0.143706140050033D+03 -.445165751857997D+02 -.550959712568609D+02 0.302707335061013D+01
 0.135468650080591D+03 0.624700849690493D+02 0.611123139622162D+02 -.489824190582788D+02
 0.248175554842940D+02 -.124315781244460D+02 0.707037659760096D+01 0.202824234331083D+02
 0.293402946385084D+02 -.552193165880353D+01 -.130867193029563D+02 0.256729222745604D+02
0.145676140810D-03 0.000000000000D+00 0.000000000000D+00 0.291734682107D-04 0.000000000000D+00  6 -2 2 25 23 21 21 2 0.79625892D-02 0.82568553D-01 0.21094031D+05 0.21094031D+05 0.21094031D+05 0.12312878D+01  1  2  2  3  6  5       21 0.116889006597D+00 0.100000000000D+01
0.259219627785D-04 0.768754115382D-05 -.559434738120D-06 0.291734682107D-04 0.000000000000D+00  6 -2 2 25 23 21 21 4 0.79625892D-02 0.82568553D-01 0.21094031D+05 0.21094031D+05 0.21094031D+05 0.12312878D+01  1  2  3  3  6  5       21 0.315335060672D-01 0.100000000000D+01
0.516195384451D-05 0.000000000000D+00 0.000000000000D+00 0.291734682107D-04 0.000000000000D+00  6 -2 2 25 23 21 21 4 0.79625892D-02 0.82568553D-01 0.21094031D+05 0.21094031D+05 0.21094031D+05 0.12312878D+01  1  2 15  3  6  5       21 0.627940500745D-02 0.100000000000D+01
0.824577320657D-04 0.000000000000D+00 0.000000000000D+00 0.290515539937D-04 0.000000000000D+00  6 -2 2 25 23 21 21 4 0.79625892D-02 0.82568553D-01 0.22273016D+05 0.22273016D+05 0.22273016D+05 0.12287123D+01  1  2 12  3  6  5       21 0.996074240450D-01 0.100000000000D+01
-.192576506741D-03 0.000000000000D+00 0.000000000000D+00 0.291734682107D-04 0.000000000000D+00  6 -2 2 25 23 21 21 4 0.79625892D-02 0.82568553D-01 0.21094031D+05 0.21094031D+05 0.21094031D+05 0.12312878D+01  1  2  4  3  6  5       21 -.234265147882D+00 0.100000000000D+01
-.131791266090D-03 0.000000000000D+00 0.000000000000D+00 0.291734682107D-04 0.000000000000D+00  6 -2 2 25 23 21 21 4 0.79625892D-02 0.82568553D-01 0.21094031D+05 0.21094031D+05 0.21094031D+05 0.12312878D+01  1  2  5  3  6  5       21 -.160321219669D+00 0.100000000000D+01
0.361396355682D-03 0.000000000000D+00 -.000000000000D+00 0.291734682107D-04 0.000000000000D+00  6 -2 2 25 23 21 21 4 0.79625892D-02 0.82568553D-01 0.21094031D+05 0.21094031D+05 0.21094031D+05 0.12312878D+01  1  2  6  3  6  5       21 0.439630836289D+00 0.100000000000D+01
0.365606341167D-05 0.000000000000D+00 0.000000000000D+00 0.290515539937D-04 0.000000000000D+00  6 -2 2 25 23 1 -1 4 0.79625892D-02 0.82568553D-01 0.22273016D+05 0.22273016D+05 0.22273016D+05 0.12287123D+01  1  2 12  6  6  5       21 0.441645737105D-02 0.100000000000D+01
0.365606341167D-05 0.000000000000D+00 0.000000000000D+00 0.290515539937D-04 0.000000000000D+00  6 -2 2 25 23 3 -3 4 0.79625892D-02 0.82568553D-01 0.22273016D+05 0.22273016D+05 0.22273016D+05 0.12287123D+01  1  2 12  6  6  5       21 0.441645737105D-02 0.100000000000D+01
-.127535758963D-04 0.000000000000D+00 0.000000000000D+00 0.291734682107D-04 0.000000000000D+00  6 -2 2 25 23 1 -1 4 0.79625892D-02 0.82568553D-01 0.21094031D+05 0.21094031D+05 0.21094031D+05 0.12312878D+01  1  2  5  6  6  5       21 -.155144487453D-01 0.100000000000D+01
-.127535758963D-04 0.000000000000D+00 0.000000000000D+00 0.291734682107D-04 0.000000000000D+00  6 -2 2 25 23 3 -3 4 0.79625892D-02 0.82568553D-01 0.21094031D+05 0.21094031D+05 0.21094031D+05 0.12312878D+01  1  2  5  6  6  5       21 -.155144487453D-01 0.100000000000D+01
0.365606341167D-05 0.000000000000D+00 0.000000000000D+00 0.290515539937D-04 0.000000000000D+00  6 -2 2 25 23 2 -2 4 0.79625892D-02 0.82568553D-01 0.22273016D+05 0.22273016D+05 0.22273016D+05 0.12287123D+01  1  2 12  7  6  5       21 0.441645737105D-02 0.100000000000D+01
-.127535758963D-04 0.000000000000D+00 0.000000000000D+00 0.291734682107D-04 0.000000000000D+00  6 -2 2 25 23 2 -2 4 0.79625892D-02 0.82568553D-01 0.21094031D+05 0.21094031D+05 0.21094031D+05 0.12312878D+01  1  2  5  7  6  5       21 -.155144487453D-01 0.100000000000D+01
0.365606341167D-05 0.000000000000D+00 0.000000000000D+00 0.290515539937D-04 0.000000000000D+00  6 -2 2 25 23 4 -4 4 0.79625892D-02 0.82568553D-01 0.22273016D+05 0.22273016D+05 0.22273016D+05 0.12287123D+01  1  2 12  8  6  5       21 0.441645737105D-02 0.100000000000D+01
-.127535758963D-04 0.000000000000D+00 0.000000000000D+00 0.291734682107D-04 0.000000000000D+00  6 -2 2 25 23 4 -4 4 0.79625892D-02 0.82568553D-01 0.21094031D+05 0.21094031D+05 0.21094031D+05 0.12312878D+01  1  2  5  8  6  5       21 -.155144487453D-01 0.100000000000D+01
  </mgrwgt>
  </event>
  <event>
  5     66 0.42185105E-03 0.36297730E+02 0.75467711E-02 0.11830677E+00
       -2 -1    0    0    0  501 0.00000000E+00 0.00000000E+00 0.17939992E+02 0.17942846E+02 0.32000000E+00 0.0000E+00 0.9000E+01
        2 -1    0    0  502    0 0.00000000E+00 0.00000000E+00 -.16086500E+04 0.16086500E+04 0.32000000E+00 0.0000E+00 0.9000E+01
       25  1    1    2    0    0 0.81680568E+02 -.65665153E+02 -.10883671E+04 0.11005234E+04 0.12500000E+03 0.0000E+00 0.9000E+01
       23  1    1    2    0    0 -.45884038E+02 0.59682276E+02 -.41408545E+03 0.43063828E+03 0.91188000E+02 0.0000E+00 0.9000E+01
       21  1    1    2  502  501 -.35796530E+02 0.59828776E+01 -.88257385E+02 0.95431205E+02 0.75000000E+00 0.0000E+00 0.9000E+01
#aMCatNLO 1  0  0  2  5 0.12188786D+02 0.00000000D+00  -5  6  0 0.00000000D+00 0.00000000D+00 0.00000000D+00 0.00000000D+00 0.00000000D+00
  <mgrwgt>
 0.4651806669D+00    9    4    0
 0.169886768622183D+03 0.000000000000000D+00 0.000000000000000D+00 0.169886768622183D+03
 0.169886768622183D+03 0.000000000000000D+00 0.000000000000000D+00 -.169886768622183D+03
 0.173137816586012D+03 0.816832593530775D+02 -.656656032634230D+02 -.580308299241036D+02
 0.122972722123050D+03 -.458821259393174D+02 0.596819563577459D+02 0.337629034141547D+02
 0.436629985353039D+02 -.358011334137601D+02 0.598364690567713D+01 0.242679265099489D+02
 0.000000000000000D+00 0.000000000000000D+00 -.000000000000000D+00 -.000000000000000D+00
 0.172371612359074D+03 0.000000000000000D+00 0.000000000000000D+00 0.172371612359074D+03
 0.185630899753758D+03 0.000000000000000D+00 0.000000000000000D+00 -.185630899753758D+03
 0.169489549273343D+03 0.769182473628007D+02 -.617876469355782D+02 -.580308299241036D+02
 0.125679853836501D+03 -.493402049602058D+02 0.624962786403772D+02 0.337629034141547D+02
 0.448226896156228D+02 -.370317279517929D+02 0.698515369842248D+01 0.242679265099489D+02
 0.180104193873652D+02 0.945368554919792D+01 -.769378540322147D+01 -.132592873946846D+02
 0.169886768622183D+03 0.000000000000000D+00 0.000000000000000D+00 0.169886768622183D+03
 0.169886768622183D+03 0.000000000000000D+00 0.000000000000000D+00 -.169886768622183D+03
 0.173137816586012D+03 0.816832593530775D+02 -.656656032634230D+02 -.580308299241036D+02
 0.122972722123050D+03 -.458821259393174D+02 0.596819563577459D+02 0.337629034141547D+02
 0.000000000000000D+00 0.000000000000000D+00 -.000000000000000D+00 -.000000000000000D+00
 0.436629985353039D+02 -.358011334137601D+02 0.598364690567713D+01 0.242679265099489D+02
 0.172371612359074D+03 0.000000000000000D+00 0.000000000000000D+00 0.172371612359074D+03
 0.185630899753758D+03 0.000000000000000D+00 0.000000000000000D+00 -.185630899753758D+03
 0.169489549273343D+03 0.769182473628007D+02 -.617876469355782D+02 -.580308299241036D+02
 0.125679853836501D+03 -.493402049602058D+02 0.624962786403772D+02 0.337629034141547D+02
 0.180104193873652D+02 0.945368554919792D+01 -.769378540322147D+01 -.132592873946846D+02
 0.448226896156228D+02 -.370317279517929D+02 0.698515369842248D+01 0.242679265099489D+02
0.755258833966D-04 0.000000000000D+00 0.000000000000D+00 0.786366034665D-05 0.000000000000D+00  6 -2 2 25 23 21 21 2 0.27602207D-02 0.24748483D+00 0.25228206D+05 0.25228206D+05 0.25228206D+05 0.12228748D+01  1  2  2  2  6  2        2 0.639996325000D-01 0.100000000000D+01
0.722838685277D-05 0.398561036530D-05 -.290039278665D-06 0.786366034665D-05 0.000000000000D+00  6 -2 2 25 23 21 21 4 0.27602207D-02 0.24748483D+00 0.25228206D+05 0.25228206D+05 0.25228206D+05 0.12228748D+01  1  2  3  2  6  2        2 0.915982178970D-02 0.100000000000D+01
0.312932524547D-05 0.000000000000D+00 0.000000000000D+00 0.786366034665D-05 0.000000000000D+00  6 -2 2 25 23 21 21 4 0.27602207D-02 0.24748483D+00 0.25228206D+05 0.25228206D+05 0.25228206D+05 0.12228748D+01  1  2 15  2  6  2        2 0.396548526723D-02 0.100000000000D+01
0.542247522508D-03 0.000000000000D+00 0.000000000000D+00 0.781772216648D-05 0.000000000000D+00  6 -2 2 25 23 21 21 4 0.27602207D-02 0.27939355D+00 0.27254530D+05 0.27254530D+05 0.27254530D+05 0.12192976D+01  1  2 12  2  6  2        2 0.531074606688D+00 0.100000000000D+01
-.364524490781D-03 0.000000000000D+00 0.000000000000D+00 0.786366034665D-05 0.000000000000D+00  6 -2 2 25 23 21 21 4 0.27602207D-02 0.24748483D+00 0.25228206D+05 0.25228206D+05 0.25228206D+05 0.12228748D+01  1  2  4  2  6  2        2 -.461925937494D+00 0.100000000000D+01
-.140828310158D-02 0.000000000000D+00 -.189271235823D-03 0.786366034665D-05 0.000000000000D+00  6 -2 2 25 23 21 21 4 0.27602207D-02 0.27202026D+00 0.25228206D+05 0.25228206D+05 0.25228206D+05 0.12228748D+01  1  2  5  2  6  2        2 -.147635150984D+01 0.100000000000D+01
0.142066502816D-02 0.000000000000D+00 0.188428765435D-03 0.786366034665D-05 0.000000000000D+00  6 -2 2 25 23 21 21 4 0.27602207D-02 0.24748483D+00 0.25228206D+05 0.25228206D+05 0.25228206D+05 0.12228748D+01  1  2  6  2  6  2        2 0.180026868316D+01 0.100000000000D+01
0.103843179298D-04 0.000000000000D+00 0.000000000000D+00 0.781772216648D-05 0.000000000000D+00  6 -2 21 25 23 -2 21 4 0.27602207D-02 0.27939355D+00 0.27254530D+05 0.27254530D+05 0.27254530D+05 0.12192976D+01  3  4 12  5  5  2        2 0.388540128186D-02 0.100000000000D+01
-.212223493839D-04 0.000000000000D+00 -.292776252769D-05 0.786366034665D-05 0.000000000000D+00  6 -2 21 25 23 -2 21 4 0.27602207D-02 0.27202026D+00 0.25228206D+05 0.25228206D+05 0.25228206D+05 0.12228748D+01  3  4  5  5  5  2        2 -.889551649357D-02 0.100000000000D+01
  </mgrwgt>
  </event>
  <event>
  6     66 -.42185105E-03 0.26081861E+02 0.75467711E-02 0.12326546E+00
       -2 -1    0    0    0  501 0.00000000E+00 0.00000000E+00 0.46384617E+02 0.46385721E+02 0.32000000E+00 0.0000E+00 0.9000E+01
        2 -1    0    0  502    0 -.00000000E+00 -.00000000E+00 -.61157755E+03 0.61157763E+03 0.32000000E+00 0.0000E+00 0.9000E+01
       25  1    1    2    0    0 0.18854072E+01 -.71209212E+01 -.21511760E+03 0.24890730E+03 0.12500000E+03 0.0000E+00 0.9000E+01
       23  1    1    2    0    0 0.52959598E+01 0.34202056E+02 -.36284678E+03 0.37572711E+03 0.91188000E+02 0.0000E+00 0.9000E+01
       21  1    1    2  503  501 -.96603975E+01 -.25721306E+02 0.98576224E+01 0.29200070E+02 0.75000000E+00 0.0000E+00 0.9000E+01
       21  1    1    2  502  503 0.24790306E+01 -.13598292E+01 0.29138215E+01 0.41288720E+01 0.75000000E+00 0.0000E+00 0.9000E+01
#aMCatNLO 2  0  0  5  1 0.44957619D+01 0.00000000D+00  -5  6  0 0.00000000D+00 0.00000000D+00 0.00000000D+00 0.00000000D+00 0.00000000D+00
  <mgrwgt>
 -.4852413822D-01    6    2    0
 0.168428563481179D+03 0.000000000000000D+00 0.000000000000000D+00 0.168428563481179D+03
 0.168428563481179D+03 -.000000000000000D+00 -.000000000000000D+00 -.168428563481179D+03
 0.125244192626122D+03 0.191495007192837D+01 -.700951411959958D+01 -.288226726699094D+01
 0.125326567313196D+03 0.532549392308894D+01 0.343134305022429D+02 -.786493784600477D+02
 0.862863670230396D+02 -.724044399501731D+01 -.273039163826433D+02 0.815316457270386D+02
 0.000000000000000D+00 0.000000000000000D+00 0.000000000000000D+00 0.000000000000000D+00
 0.168428563481179D+03 0.000000000000000D+00 0.000000000000000D+00 0.168428563481179D+03
 0.168428563481179D+03 -.000000000000000D+00 -.000000000000000D+00 -.168428563481179D+03
 0.125242819865917D+03 0.188556761350950D+01 -.712031619034793D+01 -.255140355310192D+01
 0.125087677379464D+03 0.529612000042934D+01 0.342026606200810D+02 -.783186108638141D+02
 0.735387917489629D+02 -.970165624865246D+01 -.257415612209429D+02 0.681997344851046D+02
 0.129878379680136D+02 0.251996863471362D+01 -.134078320879018D+01 0.126702799318114D+02
-.423971139466D-04 0.000000000000D+00 0.000000000000D+00 0.202333641613D-04 0.000000000000D+00  6 -2 2 25 23 21 21 4 0.71361863D-02 0.94088945D-01 0.16016879D+05 0.16016879D+05 0.16016879D+05 0.12445880D+01  1  2 13  3  6  5       21 -.546224944877D-01 0.100000000000D+01
-.599065270780D-04 0.000000000000D+00 0.000000000000D+00 0.202333641613D-04 0.000000000000D+00  6 -2 2 25 23 21 21 4 0.71361863D-02 0.94088945D-01 0.16016879D+05 0.16016879D+05 0.16016879D+05 0.12445880D+01  1  2 13  3  6  5       21 -.771808182324D-01 0.100000000000D+01
-.544912065979D-05 0.000000000000D+00 0.000000000000D+00 0.202597689235D-04 0.000000000000D+00  6 -2 2 25 23 21 21 4 0.71361863D-02 0.94088945D-01 0.15754564D+05 0.15754564D+05 0.15754564D+05 0.12453999D+01  1  2  8  3  6  5       21 -.703569411173D-02 0.100000000000D+01
-.322485240826D-06 0.000000000000D+00 0.000000000000D+00 0.202597689235D-04 0.000000000000D+00  6 -2 2 25 23 21 21 4 0.71361863D-02 0.94088945D-01 0.15754564D+05 0.15754564D+05 0.15754564D+05 0.12453999D+01  1  2  9  3  6  5       21 -.416380486258D-03 0.100000000000D+01
0.368742204865D-06 0.000000000000D+00 0.000000000000D+00 0.202597689235D-04 0.000000000000D+00  6 -2 2 25 23 21 21 4 0.71361863D-02 0.94088945D-01 0.15754564D+05 0.15754564D+05 0.15754564D+05 0.12453999D+01  1  2 10  3  6  5       21 0.476105691448D-03 0.100000000000D+01
0.700546109284D-04 0.000000000000D+00 0.000000000000D+00 0.202597689235D-04 0.110485100496D-04  6 -2 2 25 23 21 21 4 0.71361863D-02 0.94088945D-01 0.16016879D+05 0.16016879D+05 0.16016879D+05 0.12445880D+01  1  2  1  3  6  5       21 0.902551434064D-01 0.100000000000D+01
  </mgrwgt>
  </event>
  <event>
  5     66 0.42185105E-03 0.96737295E+02 0.75467711E-02 0.11098368E+00
       -2 -1    0    0    0  501 0.00000000E+00 0.00000000E+00 0.39358046E+03 0.39358059E+03 0.32000000E+00 0.0000E+00 0.9000E+01
        2 -1    0    0  502    0 0.00000000E+00 0.00000000E+00 -.18138924E+03 0.18138953E+03 0.32000000E+00 0.0000E+00 0.9000E+01
       25  1    1    2    0    0 0.20614987E+03 0.51875579E+02 0.69500841E+02 0.25621126E+03 0.12500000E+03 0.0000E+00 0.9000E+01
       23  1    1    2    0    0 -.11312061E+03 -.10253014E+03 0.10385009E+03 0.20593395E+03 0.91188000E+02 0.0000E+00 0.9000E+01
       21  1    1    2  502  501 -.93029258E+02 0.50654561E+02 0.38840294E+02 0.11282490E+03 0.75000000E+00 0.0000E+00 0.9000E+01
#aMCatNLO 1  0  0  5  1 0.24024990D+02 0.00000000D+00  -5  6  0 0.00000000D+00 0.00000000D+00 0.00000000D+00 0.00000000D+00 0.00000000D+00
  <mgrwgt>
 0.2452635814D-01   14    2    0
 0.267191655758657D+03 0.000000000000000D+00 0.000000000000000D+00 0.267191655758657D+03
 0.267191655758657D+03 -.000000000000000D+00 -.000000000000000D+00 -.267191655758657D+03
 0.248074297249658D+03 0.206150950868609D+03 0.518749901926104D+02 -.269560346563941D+02
 0.180338084685373D+03 -.113119824597526D+03 -.102530567840771D+03 0.299660038253787D+02
 0.105970929582283D+03 -.930311262710827D+02 0.506555776481603D+02 -.300996916898458D+01
 0.000000000000000D+00 0.000000000000000D+00 0.000000000000000D+00 0.000000000000000D+00
 0.267191655758657D+03 0.000000000000000D+00 0.000000000000000D+00 0.267191655758657D+03
 0.267191655758657D+03 -.000000000000000D+00 -.000000000000000D+00 -.267191655758657D+03
 0.241324425925241D+03 0.196478231644942D+03 0.571417992633246D+02 -.272689899844705D+02
 0.182748480901989D+03 -.120296047657587D+03 -.986231044034242D+02 0.297338212105235D+02
 0.859030389576382D+02 -.682902061749646D+02 0.456224237300397D+02 -.251867881186753D+02
 0.244073657324464D+02 -.789197781239081D+01 -.414111858994015D+01 0.227219568926222D+02
0.125395247426D-03 0.000000000000D+00 0.000000000000D+00 0.764686402224D-06 0.000000000000D+00  6 -2 2 25 23 21 21 2 0.60550872D-01 0.27906069D-01 0.70321648D+05 0.70321648D+05 0.70321648D+05 0.11778854D+01  1  2  2  3  6  5       21 0.860678633335D-02 0.100000000000D+01
-.149402598355D-05 0.661728900640D-05 -.481550767441D-06 0.764686402224D-06 0.000000000000D+00  6 -2 2 25 23 21 21 4 0.60550872D-01 0.27906069D-01 0.70321648D+05 0.70321648D+05 0.70321648D+05 0.11778854D+01  1  2  3  3  6  5       21 -.142273548411D-03 0.100000000000D+01
0.202700667205D-05 0.000000000000D+00 0.000000000000D+00 0.764686402224D-06 0.000000000000D+00  6 -2 2 25 23 21 21 4 0.60550872D-01 0.27906069D-01 0.70321648D+05 0.70321648D+05 0.70321648D+05 0.11778854D+01  1  2 15  3  6  5       21 0.193028391113D-03 0.100000000000D+01
0.108570350036D-03 0.000000000000D+00 0.000000000000D+00 0.768681235121D-06 0.000000000000D+00  6 -2 2 25 23 21 21 4 0.60550872D-01 0.27906069D-01 0.65314067D+05 0.65314067D+05 0.65314067D+05 0.11809581D+01  1  2 12  3  6  5       21 0.104453751696D-01 0.100000000000D+01
0.106808000618D-03 0.000000000000D+00 0.000000000000D+00 0.768681235121D-06 0.000000000000D+00  6 -2 2 25 23 21 21 4 0.60550872D-01 0.27906069D-01 0.65314067D+05 0.65314067D+05 0.65314067D+05 0.11809581D+01  1  2 12  3  6  5       21 0.102758224248D-01 0.100000000000D+01
-.620419225230D-04 0.000000000000D+00 0.000000000000D+00 0.764686402224D-06 0.000000000000D+00  6 -2 2 25 23 21 21 4 0.60550872D-01 0.27906069D-01 0.70321648D+05 0.70321648D+05 0.70321648D+05 0.11778854D+01  1  2  4  3  6  5       21 -.590814655486D-02 0.100000000000D+01
0.137779675329D-05 0.000000000000D+00 0.000000000000D+00 0.768681235121D-06 0.000000000000D+00  6 -2 2 25 23 1 -1 4 0.60550872D-01 0.27906069D-01 0.65314067D+05 0.65314067D+05 0.65314067D+05 0.11809581D+01  1  2 12  6  6  5       21 0.132555564119D-03 0.100000000000D+01
0.137779675329D-05 0.000000000000D+00 0.000000000000D+00 0.768681235121D-06 0.000000000000D+00  6 -2 2 25 23 3 -3 4 0.60550872D-01 0.27906069D-01 0.65314067D+05 0.65314067D+05 0.65314067D+05 0.11809581D+01  1  2 12  6  6  5       21 0.132555564119D-03 0.100000000000D+01
0.136563931483D-05 0.000000000000D+00 0.000000000000D+00 0.768681235121D-06 0.000000000000D+00  6 -2 2 25 23 1 -1 4 0.60550872D-01 0.27906069D-01 0.65314067D+05 0.65314067D+05 0.65314067D+05 0.11809581D+01  1  2 12  6  6  5       21 0.131385916920D-03 0.100000000000D+01
0.136563931483D-05 0.000000000000D+00 0.000000000000D+00 0.768681235121D-06 0.000000000000D+00  6 -2 2 25 23 3 -3 4 0.60550872D-01 0.27906069D-01 0.65314067D+05 0.65314067D+05 0.65314067D+05 0.11809581D+01  1  2 12  6  6  5       21 0.131385916920D-03 0.100000000000D+01
0.137779675329D-05 0.000000000000D+00 0.000000000000D+00 0.768681235121D-06 0.000000000000D+00  6 -2 2 25 23 2 -2 4 0.60550872D-01 0.27906069D-01 0.65314067D+05 0.65314067D+05 0.65314067D+05 0.11809581D+01  1  2 12  7  6  5       21 0.132555564119D-03 0.100000000000D+01
0.136563931483D-05 0.000000000000D+00 0.000000000000D+00 0.768681235121D-06 0.000000000000D+00  6 -2 2 25 23 2 -2 4 0.60550872D-01 0.27906069D-01 0.65314067D+05 0.65314067D+05 0.65314067D+05 0.11809581D+01  1  2 12  7  6  5       21 0.131385916920D-03 0.100000000000D+01
0.137779675329D-05 0.000000000000D+00 0.000000000000D+00 0.768681235121D-06 0.000000000000D+00  6 -2 2 25 23 4 -4 4 0.60550872D-01 0.27906069D-01 0.65314067D+05 0.65314067D+05 0.65314067D+05 0.11809581D+01  1  2 12  8  6  5       21 0.132555564119D-03 0.100000000000D+01
0.136563931483D-05 0.000000000000D+00 0.000000000000D+00 0.768681235121D-06 0.000000000000D+00  6 -2 2 25 23 4 -4 4 0.60550872D-01 0.27906069D-01 0.65314067D+05 0.65314067D+05 0.65314067D+05 0.11809581D+01  1  2 12  8  6  5       21 0.131385916920D-03 0.100000000000D+01
  </mgrwgt>
  </event>
  <event>
  6     66 -.42185105E-03 0.12661171E+02 0.75467711E-02 0.11987195E+00
       -2 -1    0    0    0  501 0.00000000E+00 0.00000000E+00 0.54653023E+02 0.54653960E+02 0.32000000E+00 0.0000E+00 0.9000E+01
        2 -1    0    0  502    0 -.00000000E+00 -.00000000E+00 -.41975121E+03 0.41975133E+03 0.32000000E+00 0.0000E+00 0.9000E+01
       25  1    1    2    0    0 0.61508365E+01 -.91644915E+02 -.19134560E+03 0.24632247E+03 0.12500000E+03 0.0000E+00 0.9000E+01
       23  1    1    2    0    0 -.20835733E+02 0.74312959E+02 -.14029850E+03 0.18427008E+03 0.91188000E+02 0.0000E+00 0.9000E+01
       21  1    1    2  503  501 0.59018959E+01 0.16819394E+02 -.14822366E+02 0.23194599E+02 0.75000000E+00 0.0000E+00 0.9000E+01
       21  1    1    2  502  503 0.87830006E+01 0.51256193E+00 -.18631721E+02 0.20618132E+02 0.75000000E+00 0.0000E+00 0.9000E+01
#aMCatNLO 2  0  0  5  2 0.79886610D+01 0.00000000D+00  -5  6  0 0.00000000D+00 0.00000000D+00 0.00000000D+00 0.00000000D+00 0.00000000D+00
  <mgrwgt>
 -.2470726789D+00    3    2    0
 0.151462614020632D+03 0.000000000000000D+00 0.000000000000000D+00 0.151462614020632D+03
 0.151462614020632D+03 -.000000000000000D+00 -.000000000000000D+00 -.151462614020632D+03
 0.156395312304708D+03 0.428120197056739D+01 -.938515649704783D+02 -.283703598256429D+01
 0.118705239559915D+03 -.222652022594461D+02 0.726258179080402D+02 0.233107196605539D+01
 0.278246761766421D+02 0.179840002888787D+02 0.212257470624381D+02 0.505964016508896D+00
 0.000000000000000D+00 0.000000000000000D+00 0.000000000000000D+00 0.000000000000000D+00
 0.151462614020632D+03 0.000000000000000D+00 0.000000000000000D+00 0.151462614020632D+03
 0.151462614020632D+03 -.000000000000000D+00 -.000000000000000D+00 -.151462614020632D+03
 0.155123808943079D+03 0.618013510680617D+01 -.916103353335319D+02 -.278361117043907D+01
 0.119500797649995D+03 -.208131651084097D+02 0.743395953100692D+02 0.237192375304701D+01
 0.179842820275779D+02 0.535967050760799D+01 0.164649427099500D+02 0.485942318134621D+01
 0.103163394206132D+02 0.927335949399549D+01 0.805797313512771D+00 -.444773576395416D+01
-.675257274636D-04 0.000000000000D+00 0.000000000000D+00 0.152522213341D-04 0.000000000000D+00  6 -2 2 25 23 21 21 4 0.84082388D-02 0.64577190D-01 0.22680317D+05 0.22680317D+05 0.22680317D+05 0.12278579D+01  1  2 13  3  6  5       21 -.978781120921D-01 0.100000000000D+01
-.676500561543D-04 0.000000000000D+00 0.000000000000D+00 0.152522213341D-04 0.000000000000D+00  6 -2 2 25 23 21 21 4 0.84082388D-02 0.64577190D-01 0.22680317D+05 0.22680317D+05 0.22680317D+05 0.12278579D+01  1  2 13  3  6  5       21 -.980583257378D-01 0.100000000000D+01
-.353273118247D-04 0.000000000000D+00 0.000000000000D+00 0.152392749982D-04 0.000000000000D+00  6 -2 2 25 23 21 21 4 0.84082388D-02 0.64577190D-01 0.22932863D+05 0.22932863D+05 0.22932863D+05 0.12273367D+01  1  2  8  3  6  5       21 -.511362410359D-01 0.100000000000D+01
  </mgrwgt>
  </event>
  <event>
  5     66 0.42185105E-03 0.44370153E+02 0.75467711E-02 0.11352983E+00
       -2 -1    0    0    0  501 0.00000000E+00 0.00000000E+00 0.29881208E+02 0.29882921E+02 0.32000000E+00 0.0000E+00 0.9000E+01
        2 -1    0    0  502    0 0.00000000E+00 0.00000000E+00 -.21845411E+04 0.21845411E+04 0.32000000E+00 0.0000E+00 0.9000E+01
       25  1    1    2    0    0 0.15367757E+00 -.37732598E+02 -.56526387E+03 0.58014827E+03 0.12500000E+03 0.0000E+00 0.9000E+01
       23  1    1    2    0    0 -.40070763E+02 0.18359554E+02 -.15865808E+04 0.15898103E+04 0.91188000E+02 0.0000E+00 0.9000E+01
       21  1    1    2  502  501 0.39917086E+02 0.19373044E+02 -.28151446E+01 0.44465448E+02 0.75000000E+00 0.0000E+00 0.9000E+01
#aMCatNLO 1  0  0  2  1 0.21516910D+02 0.00000000D+00  -5  6  0 0.00000000D+00 0.00000000D+00 0.00000000D+00 0.00000000D+00 0.00000000D+00
  <mgrwgt>
 0.1094593474D+00    6    4    0
 0.255496864538373D+03 0.000000000000000D+00 0.000000000000000D+00 0.255496864538373D+03
 0.255496864538373D+03 0.000000000000000D+00 0.000000000000000D+00 -.255496864538373D+03
 0.130613931626551D+03 0.153589805973603D+00 -.377326409571543D+02 -.335012708944059D+01
 0.199556843213779D+03 -.400708972311200D+02 0.183594893201851D+02 -.171944568615713D+03
 0.180822954236417D+03 0.399173074251464D+02 0.193731516369692D+02 0.175294695705154D+03
 0.000000000000000D+00 -.000000000000000D+00 0.000000000000000D+00 -.000000000000000D+00
 0.284874543375761D+03 0.000000000000000D+00 0.000000000000000D+00 0.284874543375761D+03
 0.462182149335145D+03 0.000000000000000D+00 0.000000000000000D+00 -.462182149335145D+03
 0.142568603723017D+03 0.201675244325046D+02 -.654435204911802D+02 -.335012708944059D+01
 0.196156437125649D+03 -.110800991428411D+02 -.217805695143536D+02 -.171944568615713D+03
 0.188524305710444D+03 0.669764746797654D+02 -.180924111359702D+02 0.175294695705154D+03
 0.219807346151796D+03 -.760638999694289D+02 0.105316501141504D+03 -.177307605959383D+03
 0.255496864538373D+03 0.000000000000000D+00 0.000000000000000D+00 0.255496864538373D+03
 0.255496864538373D+03 0.000000000000000D+00 0.000000000000000D+00 -.255496864538373D+03
 0.130613931626551D+03 0.153589805973603D+00 -.377326409571543D+02 -.335012708944059D+01
 0.199556843213779D+03 -.400708972311200D+02 0.183594893201851D+02 -.171944568615713D+03
 0.000000000000000D+00 -.000000000000000D+00 0.000000000000000D+00 -.000000000000000D+00
 0.180822954236417D+03 0.399173074251464D+02 0.193731516369692D+02 0.175294695705154D+03
 0.284874543375761D+03 0.000000000000000D+00 0.000000000000000D+00 0.284874543375761D+03
 0.462182149335145D+03 0.000000000000000D+00 0.000000000000000D+00 -.462182149335145D+03
 0.142568603723017D+03 0.201675244325046D+02 -.654435204911802D+02 -.335012708944059D+01
 0.196156437125649D+03 -.110800991428411D+02 -.217805695143536D+02 -.171944568615713D+03
 0.219807346151796D+03 -.760638999694289D+02 0.105316501141504D+03 -.177307605959383D+03
 0.188524305710444D+03 0.669764746797654D+02 -.180924111359702D+02 0.175294695705154D+03
0.176107669745D-03 0.000000000000D+00 0.000000000000D+00 0.815889808725D-05 0.000000000000D+00  6 -2 2 25 23 21 21 2 0.45972425D-02 0.33608337D+00 0.19074772D+05 0.19074772D+05 0.19074772D+05 0.12360971D+01  1  2  2  2  6  2        2 0.361799739305D-01 0.100000000000D+01
0.103351302081D-04 0.929345705576D-05 -.676299822035D-06 0.815889808725D-05 0.000000000000D+00  6 -2 2 25 23 21 21 4 0.45972425D-02 0.33608337D+00 0.19074772D+05 0.19074772D+05 0.19074772D+05 0.12360971D+01  1  2  3  2  6  2        2 0.324422626244D-02 0.100000000000D+01
0.780739573404D-05 0.000000000000D+00 0.000000000000D+00 0.815889808725D-05 0.000000000000D+00  6 -2 2 25 23 21 21 4 0.45972425D-02 0.33608337D+00 0.19074772D+05 0.19074772D+05 0.19074772D+05 0.12360971D+01  1  2 15  2  6  2        2 0.245076334518D-02 0.100000000000D+01
-.205132409331D-03 0.000000000000D+00 -.912021866803D-04 0.815889808725D-05 0.000000000000D+00  6 -2 2 25 23 21 21 4 0.45972425D-02 0.61913353D+00 0.19074772D+05 0.19074772D+05 0.19074772D+05 0.12360971D+01  1  2  5  2  6  2        2 -.494568272324D-02 0.100000000000D+01
0.231088678485D-03 0.000000000000D+00 0.764788343808D-04 0.815889808725D-05 0.000000000000D+00  6 -2 2 25 23 21 21 4 0.45972425D-02 0.33608337D+00 0.19074772D+05 0.19074772D+05 0.19074772D+05 0.12360971D+01  1  2  6  2  6  2        2 0.725393821460D-01 0.100000000000D+01
-.866926414920D-05 0.000000000000D+00 -.608280303547D-05 0.815889808725D-05 0.000000000000D+00  6 -2 21 25 23 -2 21 4 0.45972425D-02 0.61913353D+00 0.19074772D+05 0.19074772D+05 0.19074772D+05 0.12360971D+01  3  4  5  5  5  2        2 -.931559347358D-05 0.100000000000D+01
  </mgrwgt>
  </event>
  <event>
  5     66 0.42185105E-03 0.11961350E+03 0.75467711E-02 0.11109461E+00
       -2 -1    0    0    0  501 0.00000000E+00 0.00000000E+00 0.52481090E+02 0.52482065E+02 0.32000000E+00 0.0000E+00 0.9000E+01
        2 -1    0    0  502    0 0.00000000E+00 0.00000000E+00 -.15852171E+04 0.15852172E+04 0.32000000E+00 0.0000E+00 0.9000E+01
       25  1    1    2    0    0 -.45252595E+02 -.78422716E+02 -.19857273E+03 0.25150358E+03 0.12500000E+03 0.0000E+00 0.9000E+01
       23  1    1    2    0    0 -.58800186E+02 0.15352294E+03 -.38554594E+03 0.42893785E+03 0.91188000E+02 0.0000E+00 0.9000E+01
       21  1    1    2  502  501 0.10405278E+03 -.75100222E+02 -.94861736E+03 0.95725779E+03 0.75000000E+00 0.0000E+00 0.9000E+01
#aMCatNLO 1  0  0  1  5 0.32185027D+02 0.00000000D+00  -5  6  0 0.00000000D+00 0.00000000D+00 0.00000000D+00 0.00000000D+00 0.00000000D+00
  <mgrwgt>
 0.2670164069D-01    9    4    0
 0.288434996629702D+03 0.000000000000000D+00 0.000000000000000D+00 0.288434996629702D+03
 0.288434996629702D+03 0.000000000000000D+00 0.000000000000000D+00 -.288434996629702D+03
 0.186398561727389D+03 -.452528383220061D+02 -.784225406139857D+02 0.104506026436227D+03
 0.193338537967637D+03 -.588004379143869D+02 0.153523120226619D+03 0.451408792163258D+02
 0.197132893564379D+03 0.104053276236393D+03 -.751005796126332D+02 -.149646905652553D+03
 0.000000000000000D+00 -.000000000000000D+00 0.000000000000000D+00 0.000000000000000D+00
 0.312039169877534D+03 0.000000000000000D+00 0.000000000000000D+00 0.312039169877534D+03
 0.300067428518371D+03 0.000000000000000D+00 0.000000000000000D+00 -.300067428518371D+03
 0.188197800452615D+03 -.381812595519715D+02 -.861051331381473D+02 0.104506026436227D+03
 0.185115332660477D+03 -.516560376287131D+02 0.145761414105644D+03 0.451408792163258D+02
 0.204454004331046D+03 0.111634378639402D+03 -.833367207262784D+02 -.149646905652553D+03
 0.343394609517675D+02 -.217970814587178D+02 0.236804397587819D+02 0.119717413591628D+02
 0.288434996629702D+03 0.000000000000000D+00 0.000000000000000D+00 0.288434996629702D+03
 0.288434996629702D+03 0.000000000000000D+00 0.000000000000000D+00 -.288434996629702D+03
 0.186398561727389D+03 -.452528383220061D+02 -.784225406139857D+02 0.104506026436227D+03
 0.193338537967637D+03 -.588004379143869D+02 0.153523120226619D+03 0.451408792163258D+02
 0.000000000000000D+00 -.000000000000000D+00 0.000000000000000D+00 0.000000000000000D+00
 0.197132893564379D+03 0.104053276236393D+03 -.751005796126332D+02 -.149646905652553D+03
 0.312039169877534D+03 0.000000000000000D+00 0.000000000000000D+00 0.312039169877534D+03
 0.300067428518371D+03 0.000000000000000D+00 0.000000000000000D+00 -.300067428518371D+03
 0.188197800452615D+03 -.381812595519715D+02 -.861051331381473D+02 0.104506026436227D+03
 0.185115332660477D+03 -.516560376287131D+02 0.145761414105644D+03 0.451408792163258D+02
 0.343394609517675D+02 -.217970814587178D+02 0.236804397587819D+02 0.119717413591628D+02
 0.204454004331046D+03 0.111634378639402D+03 -.833367207262784D+02 -.149646905652553D+03
0.672632541837D-04 0.000000000000D+00 0.000000000000D+00 0.903853293481D-06 0.000000000000D+00  6 -2 2 25 23 21 21 2 0.80740914D-02 0.24387963D+00 0.55381662D+05 0.55381662D+05 0.55381662D+05 0.11879098D+01  1  2  2  1  6  1       -2 0.109109893440D-01 0.100000000000D+01
-.392542064284D-05 0.354957944246D-05 -.258308606887D-06 0.903853293481D-06 0.000000000000D+00  6 -2 2 25 23 21 21 4 0.80740914D-02 0.24387963D+00 0.55381662D+05 0.55381662D+05 0.55381662D+05 0.11879098D+01  1  2  3  1  6  1       -2 -.898544133094D-03 0.100000000000D+01
0.217526938365D-05 0.000000000000D+00 0.000000000000D+00 0.903853293481D-06 0.000000000000D+00  6 -2 2 25 23 21 21 4 0.80740914D-02 0.24387963D+00 0.55381662D+05 0.55381662D+05 0.55381662D+05 0.11879098D+01  1  2 15  1  6  1       -2 0.497927666972D-03 0.100000000000D+01
0.180286369626D-03 0.000000000000D+00 0.000000000000D+00 0.894198330497D-06 0.000000000000D+00  6 -2 2 25 23 21 21 4 0.89944229D-02 0.24387963D+00 0.64398425D+05 0.64398425D+05 0.64398425D+05 0.11815482D+01  1  2 12  1  6  1       -2 0.340283348377D-01 0.100000000000D+01
-.960033149895D-04 0.000000000000D+00 0.000000000000D+00 0.903853293481D-06 0.000000000000D+00  6 -2 2 25 23 21 21 4 0.80740914D-02 0.24387963D+00 0.55381662D+05 0.55381662D+05 0.55381662D+05 0.11879098D+01  1  2  4  1  6  1       -2 -.219755341631D-01 0.100000000000D+01
-.543563096134D-03 0.000000000000D+00 -.117973430850D-03 0.903853293481D-06 0.000000000000D+00  6 -2 2 25 23 21 21 4 0.91144552D-02 0.24387963D+00 0.55381662D+05 0.55381662D+05 0.55381662D+05 0.11879098D+01  1  2  5  1  6  1       -2 -.102834786684D+00 0.100000000000D+01
0.554644075553D-03 0.000000000000D+00 0.117112202536D-03 0.903853293481D-06 0.000000000000D+00  6 -2 2 25 23 21 21 4 0.80740914D-02 0.24387963D+00 0.55381662D+05 0.55381662D+05 0.55381662D+05 0.11879098D+01  1  2  6  1  6  1       -2 0.126960197489D+00 0.100000000000D+01
0.312706246503D-05 0.000000000000D+00 0.000000000000D+00 0.894198330497D-06 0.000000000000D+00  6 21 2 25 23 2 21 4 0.89944229D-02 0.24387963D+00 0.64398425D+05 0.64398425D+05 0.64398425D+05 0.11815482D+01  3  4 12  4  5  1       -2 0.926094321490D-02 0.100000000000D+01
-.984439660818D-05 0.000000000000D+00 -.225721143105D-05 0.903853293481D-06 0.000000000000D+00  6 21 2 25 23 2 21 4 0.91144552D-02 0.24387963D+00 0.55381662D+05 0.55381662D+05 0.55381662D+05 0.11879098D+01  3  4  5  4  5  1       -2 -.292478868870D-01 0.100000000000D+01
  </mgrwgt>
  </event>
  <event>
  5     66 0.42185105E-03 0.76467502E+02 0.75467711E-02 0.11577217E+00
       -2 -1    0    0    0  501 0.00000000E+00 0.00000000E+00 0.47482751E+03 0.47482762E+03 0.32000000E+00 0.0000E+00 0.9000E+01
        2 -1    0    0  502    0 0.00000000E+00 0.00000000E+00 -.28549599E+03 0.28549617E+03 0.32000000E+00 0.0000E+00 0.9000E+01
       25  1    1    2    0    0 -.82918366E+02 -.97080935E+02 -.15818909E+02 0.17937503E+03 0.12500000E+03 0.0000E+00 0.9000E+01
       23  1    1    2    0    0 0.79919034E+02 0.16651271E+02 0.37420465E+03 0.39371143E+03 0.91188000E+02 0.0000E+00 0.9000E+01
       21  1    1    2  502  501 0.29993329E+01 0.80429664E+02 -.16905422E+03 0.18723734E+03 0.75000000E+00 0.0000E+00 0.9000E+01
#aMCatNLO 1  0  0  5  1 0.11658144D+02 0.00000000D+00  -5  6  0 0.00000000D+00 0.00000000D+00 0.00000000D+00 0.00000000D+00 0.00000000D+00
  <mgrwgt>
 0.6679463178D-01   20    2    0
 0.368186720724886D+03 0.000000000000000D+00 0.000000000000000D+00 0.368186720724886D+03
 0.368186720724886D+03 -.000000000000000D+00 -.000000000000000D+00 -.368186720724886D+03
 0.189276369446090D+03 -.829183703653408D+02 -.970810391757756D+02 -.624528599761483D+02
 0.310304158852224D+03 0.799190272896529D+02 0.166511009859854D+02 0.285147522468663D+03
 0.236792913151459D+03 0.299934307568793D+01 0.804299381897902D+02 -.222694662492515D+03
 0.000000000000000D+00 0.000000000000000D+00 0.000000000000000D+00 0.000000000000000D+00
 0.368186720724886D+03 0.000000000000000D+00 0.000000000000000D+00 0.368186720724886D+03
 0.368186720724886D+03 -.000000000000000D+00 -.000000000000000D+00 -.368186720724886D+03
 0.189338376943151D+03 -.829124097356139D+02 -.969211998148180D+02 -.628954236948654D+02
 0.309655072798291D+03 0.799287874679368D+02 0.169128284764009D+02 0.284422850580870D+03
 0.190448876491862D+03 -.239862884278650D+01 0.545984259961095D+02 -.182439121395150D+03
 0.469311152164696D+02 0.538225111046360D+01 0.254099453423078D+02 -.390883054908547D+02
0.135796339954D-03 0.000000000000D+00 0.000000000000D+00 0.112482254541D-05 0.000000000000D+00  6 -2 2 25 23 21 21 2 0.73050408D-01 0.43922483D-01 0.36395685D+05 0.36395685D+05 0.36395685D+05 0.12061872D+01  1  2  2  3  6  5       21 0.401355559616D-02 0.100000000000D+01
-.197491424412D-05 0.716616973877D-05 -.521493701421D-06 0.112482254541D-05 0.000000000000D+00  6 -2 2 25 23 21 21 4 0.73050408D-01 0.43922483D-01 0.36395685D+05 0.36395685D+05 0.36395685D+05 0.12061872D+01  1  2  3  3  6  5       21 -.849217459088D-04 0.100000000000D+01
0.717983045982D-05 0.000000000000D+00 0.000000000000D+00 0.112482254541D-05 0.000000000000D+00  6 -2 2 25 23 21 21 4 0.73050408D-01 0.43922483D-01 0.36395685D+05 0.36395685D+05 0.36395685D+05 0.12061872D+01  1  2 15  3  6  5       21 0.308734285446D-03 0.100000000000D+01
0.211272277341D-02 0.000000000000D+00 0.000000000000D+00 0.112478260827D-05 0.000000000000D+00  6 -2 2 25 23 21 21 4 0.73050408D-01 0.43922483D-01 0.36413172D+05 0.36413172D+05 0.36413172D+05 0.12061658D+01  1  2 12  3  6  5       21 0.908408319609D-01 0.100000000000D+01
0.170758792397D-02 0.000000000000D+00 0.000000000000D+00 0.112478260827D-05 0.000000000000D+00  6 -2 2 25 23 21 21 4 0.73050408D-01 0.43922483D-01 0.36413172D+05 0.36413172D+05 0.36413172D+05 0.12061658D+01  1  2 12  3  6  5       21 0.734212314139D-01 0.100000000000D+01
-.311653449505D-02 0.000000000000D+00 0.000000000000D+00 0.112482254541D-05 0.000000000000D+00  6 -2 2 25 23 21 21 4 0.73050408D-01 0.43922483D-01 0.36395685D+05 0.36395685D+05 0.36395685D+05 0.12061872D+01  1  2  4  3  6  5       21 -.134011667237D+00 0.100000000000D+01
-.418400283332D-02 0.000000000000D+00 0.000000000000D+00 0.112482254541D-05 0.000000000000D+00  6 -2 2 25 23 21 21 4 0.73050408D-01 0.43922483D-01 0.36395685D+05 0.36395685D+05 0.36395685D+05 0.12061872D+01  1  2  5  3  6  5       21 -.179913040047D+00 0.100000000000D+01
0.492687474694D-02 0.000000000000D+00 -.000000000000D+00 0.112482254541D-05 0.000000000000D+00  6 -2 2 25 23 21 21 4 0.73050408D-01 0.43922483D-01 0.36395685D+05 0.36395685D+05 0.36395685D+05 0.12061872D+01  1  2  6  3  6  5       21 0.211856695362D+00 0.100000000000D+01
0.244469446280D-04 0.000000000000D+00 0.000000000000D+00 0.112478260827D-05 0.000000000000D+00  6 -2 2 25 23 1 -1 4 0.73050408D-01 0.43922483D-01 0.36413172D+05 0.36413172D+05 0.36413172D+05 0.12061658D+01  1  2 12  6  6  5       21 0.105114632968D-02 0.100000000000D+01
0.244469446280D-04 0.000000000000D+00 0.000000000000D+00 0.112478260827D-05 0.000000000000D+00  6 -2 2 25 23 3 -3 4 0.73050408D-01 0.43922483D-01 0.36413172D+05 0.36413172D+05 0.36413172D+05 0.12061658D+01  1  2 12  6  6  5       21 0.105114632968D-02 0.100000000000D+01
0.209423604184D-04 0.000000000000D+00 0.000000000000D+00 0.112478260827D-05 0.000000000000D+00  6 -2 2 25 23 1 -1 4 0.73050408D-01 0.43922483D-01 0.36413172D+05 0.36413172D+05 0.36413172D+05 0.12061658D+01  1  2 12  6  6  5       21 0.900459571685D-03 0.100000000000D+01
0.209423604184D-04 0.000000000000D+00 0.000000000000D+00 0.112478260827D-05 0.000000000000D+00  6 -2 2 25 23 3 -3 4 0.73050408D-01 0.43922483D-01 0.36413172D+05 0.36413172D+05 0.36413172D+05 0.12061658D+01  1  2 12  6  6  5       21 0.900459571685D-03 0.100000000000D+01
-.432742641286D-04 0.000000000000D+00 0.000000000000D+00 0.112482254541D-05 0.000000000000D+00  6 -2 2 25 23 1 -1 4 0.73050408D-01 0.43922483D-01 0.36395685D+05 0.36395685D+05 0.36395685D+05 0.12061872D+01  1  2  5  6  6  5       21 -.186080285443D-02 0.100000000000D+01
-.432742641286D-04 0.000000000000D+00 0.000000000000D+00 0.112482254541D-05 0.000000000000D+00  6 -2 2 25 23 3 -3 4 0.73050408D-01 0.43922483D-01 0.36395685D+05 0.36395685D+05 0.36395685D+05 0.12061872D+01  1  2  5  6  6  5       21 -.186080285443D-02 0.100000000000D+01
0.244469446280D-04 0.000000000000D+00 0.000000000000D+00 0.112478260827D-05 0.000000000000D+00  6 -2 2 25 23 2 -2 4 0.73050408D-01 0.43922483D-01 0.36413172D+05 0.36413172D+05 0.36413172D+05 0.12061658D+01  1  2 12  7  6  5       21 0.105114632968D-02 0.100000000000D+01
0.209423604184D-04 0.000000000000D+00 0.000000000000D+00 0.112478260827D-05 0.000000000000D+00  6 -2 2 25 23 2 -2 4 0.73050408D-01 0.43922483D-01 0.36413172D+05 0.36413172D+05 0.36413172D+05 0.12061658D+01  1  2 12  7  6  5       21 0.900459571685D-03 0.100000000000D+01
-.432742641286D-04 0.000000000000D+00 0.000000000000D+00 0.112482254541D-05 0.000000000000D+00  6 -2 2 25 23 2 -2 4 0.73050408D-01 0.43922483D-01 0.36395685D+05 0.36395685D+05 0.36395685D+05 0.12061872D+01  1  2  5  7  6  5       21 -.186080285443D-02 0.100000000000D+01
0.244469446280D-04 0.000000000000D+00 0.000000000000D+00 0.112478260827D-05 0.000000000000D+00  6 -2 2 25 23 4 -4 4 0.73050408D-01 0.43922483D-01 0.36413172D+05 0.36413172D+05 0.36413172D+05 0.12061658D+01  1  2 12  8  6  5       21 0.105114632968D-02 0.100000000000D+01
0.209423604184D-04 0.000000000000D+00 0.000000000000D+00 0.112478260827D-05 0.000000000000D+00  6 -2 2 25 23 4 -4 4 0.73050408D-01 0.43922483D-01 0.36413172D+05 0.36413172D+05 0.36413172D+05 0.12061658D+01  1  2 12  8  6  5       21 0.900459571685D-03 0.100000000000D+01
-.432742641286D-04 0.000000000000D+00 0.000000000000D+00 0.112482254541D-05 0.000000000000D+00  6 -2 2 25 23 4 -4 4 0.73050408D-01 0.43922483D-01 0.36395685D+05 0.36395685D+05 0.36395685D+05 0.12061872D+01  1  2  5  8  6  5       21 -.186080285443D-02 0.100000000000D+01
  </mgrwgt>
  </event>
  <event>
  5     66 0.42185105E-03 0.40715449E+02 0.75467711E-02 0.11446414E+00
       -2 -1    0    0    0  501 0.00000000E+00 0.00000000E+00 0.35026366E+02 0.35027827E+02 0.32000000E+00 0.0000E+00 0.9000E+01
        2 -1    0    0  502    0 -.00000000E+00 -.00000000E+00 -.17379493E+04 0.17379493E+04 0.32000000E+00 0.0000E+00 0.9000E+01
       25  1    1    2    0    0 0.15248005E+03 -.51657295E+02 -.35854370E+03 0.41242845E+03 0.12500000E+03 0.0000E+00 0.9000E+01
       23  1    1    2    0    0 -.11693923E+03 0.71516508E+02 -.95955520E+03 0.97357631E+03 0.91188000E+02 0.0000E+00 0.9000E+01
       21  1    1    2  502  501 -.35540820E+02 -.19859213E+02 -.38482400E+03 0.38697236E+03 0.75000000E+00 0.0000E+00 0.9000E+01
#aMCatNLO 1  0  0  5  1 0.64291511D+01 0.00000000D+00  -5  6  0 0.00000000D+00 0.00000000D+00 0.00000000D+00 0.00000000D+00 0.00000000D+00
  <mgrwgt>
 0.1132868881D+00   14    2    0
 0.246729341963022D+03 0.000000000000000D+00 0.000000000000000D+00 0.246729341963022D+03
 0.246729341963022D+03 -.000000000000000D+00 -.000000000000000D+00 -.246729341963022D+03
 0.244508224335670D+03 0.152481320919385D+03 -.516565828951881D+02 0.135056713946601D+03
 0.186600219265687D+03 -.116938254834385D+03 0.715170515664325D+02 -.878359059697982D+02
 0.623502403246874D+02 -.355430660850003D+02 -.198604686712443D+02 -.472208079768029D+02
 0.000000000000000D+00 0.000000000000000D+00 0.000000000000000D+00 0.000000000000000D+00
 0.246729341963022D+03 0.000000000000000D+00 0.000000000000000D+00 0.246729341963022D+03
 0.246729341963022D+03 -.000000000000000D+00 -.000000000000000D+00 -.246729341963022D+03
 0.240713412545803D+03 0.149394937187629D+03 -.533811675797338D+02 0.130956292975842D+03
 0.189110792018799D+03 -.119328066551197D+03 0.701816917913805D+02 -.910108948666602D+02
 0.722551333341865D+01 -.792433205457669D+00 0.688121915295813D+01 0.205643271595756D+01
 0.564089660280232D+02 -.292744374309739D+02 -.236817433646048D+02 -.420018308251398D+02
0.544974236021D-03 0.000000000000D+00 0.000000000000D+00 0.401584681393D-05 0.000000000000D+00  6 -2 2 25 23 21 21 2 0.53887864D-02 0.26737692D+00 0.41855682D+05 0.41855682D+05 0.41855682D+05 0.12000054D+01  1  2  2  3  6  5       21 0.140308500686D+00 0.100000000000D+01
0.550127053690D-04 0.287590805459D-04 -.209284456133D-05 0.401584681393D-05 0.000000000000D+00  6 -2 2 25 23 21 21 4 0.53887864D-02 0.26737692D+00 0.41855682D+05 0.41855682D+05 0.41855682D+05 0.12000054D+01  1  2  3  3  6  5       21 0.203956445083D-01 0.100000000000D+01
0.932197861980D-05 0.000000000000D+00 0.000000000000D+00 0.401584681393D-05 0.000000000000D+00  6 -2 2 25 23 21 21 4 0.53887864D-02 0.26737692D+00 0.41855682D+05 0.41855682D+05 0.41855682D+05 0.12000054D+01  1  2 15  3  6  5       21 0.345607002543D-02 0.100000000000D+01
0.222775209940D-04 0.000000000000D+00 0.000000000000D+00 0.401134513773D-05 0.000000000000D+00  6 -2 2 25 23 21 21 4 0.53887864D-02 0.26737692D+00 0.42502980D+05 0.42502980D+05 0.42502980D+05 0.11993326D+01  1  2 12  3  6  5       21 0.824002993064D-02 0.100000000000D+01
-.187534208266D-03 0.000000000000D+00 0.000000000000D+00 0.401584681393D-05 0.000000000000D+00  6 -2 2 25 23 21 21 4 0.53887864D-02 0.26737692D+00 0.41855682D+05 0.41855682D+05 0.41855682D+05 0.12000054D+01  1  2  4  3  6  5       21 -.695272304696D-01 0.100000000000D+01
0.157766450425D-05 0.000000000000D+00 0.000000000000D+00 0.401584681393D-05 0.286103048858D-06  6 -2 2 25 23 21 21 4 0.53887864D-02 0.26737692D+00 0.42502980D+05 0.42502980D+05 0.42502980D+05 0.11993326D+01  1  2 11  3  6  5       21 0.583547996164D-03 0.100000000000D+01
0.576103412624D-05 0.000000000000D+00 0.000000000000D+00 0.401134513773D-05 0.000000000000D+00  6 -2 2 25 23 1 -1 4 0.53887864D-02 0.26737692D+00 0.42502980D+05 0.42502980D+05 0.42502980D+05 0.11993326D+01  1  2 12  6  6  5       21 0.213089659502D-02 0.100000000000D+01
0.576103412624D-05 0.000000000000D+00 0.000000000000D+00 0.401134513773D-05 0.000000000000D+00  6 -2 2 25 23 3 -3 4 0.53887864D-02 0.26737692D+00 0.42502980D+05 0.42502980D+05 0.42502980D+05 0.11993326D+01  1  2 12  6  6  5       21 0.213089659502D-02 0.100000000000D+01
0.894030804442D-06 0.000000000000D+00 0.000000000000D+00 0.401134513773D-05 0.283348746615D-08  6 -2 2 25 23 1 -1 4 0.53887864D-02 0.26737692D+00 0.42502980D+05 0.42502980D+05 0.42502980D+05 0.11993326D+01  1  2 11  6  6  5       21 0.330684935253D-03 0.100000000000D+01
0.894030804442D-06 0.000000000000D+00 0.000000000000D+00 0.401134513773D-05 0.283348746615D-08  6 -2 2 25 23 3 -3 4 0.53887864D-02 0.26737692D+00 0.42502980D+05 0.42502980D+05 0.42502980D+05 0.11993326D+01  1  2 11  6  6  5       21 0.330684935253D-03 0.100000000000D+01
0.576103412624D-05 0.000000000000D+00 0.000000000000D+00 0.401134513773D-05 0.000000000000D+00  6 -2 2 25 23 2 -2 4 0.53887864D-02 0.26737692D+00 0.42502980D+05 0.42502980D+05 0.42502980D+05 0.11993326D+01  1  2 12  7  6  5       21 0.213089659502D-02 0.100000000000D+01
0.849181423877D-06 0.000000000000D+00 0.000000000000D+00 0.401134513773D-05 0.309445653365D-08  6 -2 2 25 23 2 -2 4 0.53887864D-02 0.26737692D+00 0.42502980D+05 0.42502980D+05 0.42502980D+05 0.11993326D+01  1  2 11  7  6  5       21 0.314096005169D-03 0.100000000000D+01
0.576103412624D-05 0.000000000000D+00 0.000000000000D+00 0.401134513773D-05 0.000000000000D+00  6 -2 2 25 23 4 -4 4 0.53887864D-02 0.26737692D+00 0.42502980D+05 0.42502980D+05 0.42502980D+05 0.11993326D+01  1  2 12  8  6  5       21 0.213089659502D-02 0.100000000000D+01
0.895621215184D-06 0.000000000000D+00 0.000000000000D+00 0.401134513773D-05 0.283852801831D-08  6 -2 2 25 23 4 -4 4 0.53887864D-02 0.26737692D+00 0.42502980D+05 0.42502980D+05 0.42502980D+05 0.11993326D+01  1  2 11  8  6  5       21 0.331273197840D-03 0.100000000000D+01
  </mgrwgt>
  </event>
  <event>
  6     66 0.42185105E-03 0.32878248E+02 0.75467711E-02 0.11628019E+00
       -2 -1    0    0    0  503 0.00000000E+00 0.00000000E+00 0.71968253E+02 0.71968964E+02 0.32000000E+00 0.0000E+00 0.9000E+01
        2 -1    0    0  502    0 0.00000000E+00 0.00000000E+00 -.61948998E+03 0.61949007E+03 0.32000000E+00 0.0000E+00 0.9000E+01
       25  1    1    2    0    0 -.96198279E+02 -.75355634E+02 -.25670674E+03 0.31057355E+03 0.12500000E+03 0.0000E+00 0.9000E+01
       23  1    1    2    0    0 0.71714130E+02 0.87195075E+02 -.29547110E+03 0.32918736E+03 0.91188000E+02 0.0000E+00 0.9000E+01
       21  1    1    2  502  501 0.36025737E+02 -.14362950E+02 -.48083360E+00 0.38793579E+02 0.75000000E+00 0.0000E+00 0.9000E+01
       21  1    1    2  501  503 -.11541588E+02 0.25235097E+01 0.51369448E+01 0.12904536E+02 0.75000000E+00 0.0000E+00 0.9000E+01
#aMCatNLO 2  0  0  1  2 0.11814244D+02 0.00000000D+00  -5  6  0 0.00000000D+00 0.00000000D+00 0.00000000D+00 0.00000000D+00 0.00000000D+00
  <mgrwgt>
 0.1071692514D+00    1    2    0
 0.196764462148952D+03 0.000000000000000D+00 0.000000000000000D+00 0.196764462148952D+03
 0.196764462148952D+03 0.000000000000000D+00 0.000000000000000D+00 -.196764462148952D+03
 0.177344465254808D+03 -.101363916525967D+03 -.742259998474845D+02 -.647431306564345D+01
 0.151118085766629D+03 0.672605782846729D+02 0.881689866966730D+02 -.471557938695069D+02
 0.650663732764662D+02 0.341033382412943D+02 -.139429868491885D+02 0.536301069351503D+02
 0.000000000000000D+00 -.000000000000000D+00 0.000000000000000D+00 0.000000000000000D+00
 0.225057722315855D+03 0.000000000000000D+00 0.000000000000000D+00 0.225057722315855D+03
 0.198090288669415D+03 0.000000000000000D+00 0.000000000000000D+00 -.198090288669415D+03
 0.174927495593054D+03 -.961992869999363D+02 -.753552198954378D+02 -.647431306564345D+01
 0.152593432856634D+03 0.717132672602646D+02 0.871954288387093D+02 -.471557938695069D+02
 0.661852952976085D+02 0.360276078914446D+02 -.143637186472130D+02 0.536301069351503D+02
 0.294417872379747D+02 -.115415881517728D+02 0.252350970394153D+01 0.269674336464399D+02
0.185576093075D-03 0.000000000000D+00 0.000000000000D+00 0.777465258984D-05 0.103721571161D-06  6 -2 2 25 23 21 21 4 0.11071835D-01 0.95303928D-01 0.34323424D+05 0.34323424D+05 0.34323424D+05 0.12088093D+01  1  2  1  1  6  1       -2 0.107169251376D+00 0.100000000000D+01
  </mgrwgt>
  </event>
  <event>
  6     66 0.42185105E-03 0.44687737E+02 0.75467711E-02 0.12015441E+00
       -2 -1    0    0    0  503 0.00000000E+00 0.00000000E+00 0.69946481E+02 0.69947213E+02 0.32000000E+00 0.0000E+00 0.9000E+01
        2 -1    0    0  502    0 0.00000000E+00 0.00000000E+00 -.12472158E+04 0.12472158E+04 0.32000000E+00 0.0000E+00 0.9000E+01
       25  1    1    2    0    0 -.72500906E+01 0.40699138E+02 -.52982814E+03 0.54594124E+03 0.12500000E+03 0.0000E+00 0.9000E+01
       23  1    1    2    0    0 0.29150543E+02 0.18289441E+02 -.66796090E+03 0.67503427E+03 0.91188000E+02 0.0000E+00 0.9000E+01
       21  1    1    2  502  501 -.70030019E+01 -.52371429E+02 -.16805688E+02 0.55450899E+02 0.75000000E+00 0.0000E+00 0.9000E+01
       21  1    1    2  501  503 -.14897451E+02 -.66171501E+01 0.37325435E+02 0.40736609E+02 0.75000000E+00 0.0000E+00 0.9000E+01
#aMCatNLO 2  0  0  1  5 0.16300942D+02 0.00000000D+00  -5  6  0 0.00000000D+00 0.00000000D+00 0.00000000D+00 0.00000000D+00 0.00000000D+00
  <mgrwgt>
 0.5680648492D-01    2    2    0
 0.196060148694376D+03 0.000000000000000D+00 0.000000000000000D+00 0.196060148694376D+03
 0.196060148694376D+03 0.000000000000000D+00 0.000000000000000D+00 -.196060148694376D+03
 0.135586337010367D+03 -.124045728436091D+02 0.384099052656607D+02 -.336074475963209D+02
 0.126937282492597D+03 0.243053146534994D+02 0.161375541780425D+02 -.833465858170003D+02
 0.129596677885787D+03 -.119007418098903D+02 -.545474594437032D+02 0.116954033413321D+03
 0.000000000000000D+00 -.000000000000000D+00 -.000000000000000D+00 0.000000000000000D+00
 0.443966460312745D+03 0.000000000000000D+00 0.000000000000000D+00 0.443966460312745D+03
 0.196497636333958D+03 0.000000000000000D+00 0.000000000000000D+00 -.196497636333958D+03
 0.135880348500252D+03 -.725001204505000D+01 0.406994582268248D+02 -.336074475963209D+02
 0.128242654520294D+03 0.291506255889142D+02 0.182897445262563D+02 -.833465858170003D+02
 0.128335973609323D+03 -.700316282496137D+01 -.523720526717793D+02 0.116954033413321D+03
 0.248005120016834D+03 -.148974507189029D+02 -.661715008130183D+01 0.247468823978787D+03
-.651766635073D-03 0.000000000000D+00 0.000000000000D+00 0.696384393569D-05 0.000000000000D+00  6 -2 2 25 23 21 21 4 0.10975329D-01 0.19145165D+00 0.22240255D+05 0.22240255D+05 0.22240255D+05 0.12287818D+01  1  2 13  1  6  1       -2 -.161386173697D+00 0.100000000000D+01
0.857052544475D-03 0.000000000000D+00 0.000000000000D+00 0.702081007931D-05 0.187140061027D-06  6 -2 2 25 23 21 21 4 0.10761025D-01 0.19187886D+00 0.22240255D+05 0.22240255D+05 0.22240255D+05 0.12287818D+01  1  2  1  1  6  1       -2 0.218192658621D+00 0.100000000000D+01
  </mgrwgt>
  </event>
  <event>
  5     66 -.42185105E-03 0.20845332E+02 0.75467711E-02 0.12263952E+00
       -2 -1    0    0    0  501 0.00000000E+00 0.00000000E+00 0.16801849E+02 0.16804896E+02 0.32000000E+00 0.0000E+00 0.9000E+01
        2 -1    0    0  502    0 -.00000000E+00 -.00000000E+00 -.10711052E+04 0.10711053E+04 0.32000000E+00 0.0000E+00 0.9000E+01
       25  1    1    2    0    0 0.26930021E+02 -.31115157E+02 -.57785240E+03 0.59264810E+03 0.12500000E+03 0.0000E+00 0.9000E+01
       23  1    1    2    0    0 -.29730844E+02 0.51764124E+02 -.43971416E+03 0.45302013E+03 0.91188000E+02 0.0000E+00 0.9000E+01
       21  1    1    2  502  501 0.28008236E+01 -.20648967E+02 -.36736806E+02 0.42241921E+02 0.75000000E+00 0.0000E+00 0.9000E+01
#aMCatNLO 1  0  0  5  1 0.10206204D+01 0.00000000D+00  -5  6  0 0.00000000D+00 0.00000000D+00 0.00000000D+00 0.00000000D+00 0.00000000D+00
  <mgrwgt>
 -.1411944985D-01    1    2    0
 0.134157486526655D+03 0.000000000000000D+00 0.000000000000000D+00 0.134157486526655D+03
 0.134157486526655D+03 -.000000000000000D+00 -.000000000000000D+00 -.134157486526655D+03
 0.132366737572687D+03 0.269294840724762D+02 -.311112015374075D+02 -.142425153019271D+02
 0.109026908612636D+03 -.297312860646542D+02 0.517673812430961D+02 -.279362234414535D+01
 0.269213268679871D+02 0.280180199217808D+01 -.206561797056887D+02 0.170361376460725D+02
 0.000000000000000D+00 0.000000000000000D+00 -.000000000000000D+00 0.000000000000000D+00
 0.134157486526655D+03 0.000000000000000D+00 0.000000000000000D+00 0.134157486526655D+03
 0.134157486526655D+03 -.000000000000000D+00 -.000000000000000D+00 -.134157486526655D+03
 0.132426188595043D+03 0.269752969248165D+02 -.314489550665339D+02 -.139639538401937D+02
 0.108879282648651D+03 -.296935852683801D+02 0.514894335419163D+02 -.256438560418785D+01
 0.248946707266736D+02 0.285326165948840D+01 -.179790843006698D+02 0.169810499145783D+02
 0.211483108294176D+01 -.134973315924804D+00 -.206139417471264D+01 -.452710470196668D+00
-.492292658971D-05 0.000000000000D+00 0.000000000000D+00 0.321548386680D-04 0.000000000000D+00  6 -2 2 25 23 21 21 4 0.25851379D-02 0.16478566D+00 0.17087027D+05 0.17087027D+05 0.17087027D+05 0.12414240D+01  1  2 14  3  6  5       21 -.141194498532D-01 0.100000000000D+01
  </mgrwgt>
  </event>
  <event>
  6     66 -.42185105E-03 0.20634961E+02 0.75467711E-02 0.11889885E+00
       -2 -1    0    0    0  501 0.00000000E+00 0.00000000E+00 0.28375266E+02 0.28377070E+02 0.32000000E+00 0.0000E+00 0.9000E+01
        2 -1    0    0  502    0 -.00000000E+00 -.00000000E+00 -.90879975E+03 0.90879981E+03 0.32000000E+00 0.0000E+00 0.9000E+01
       25  1    1    2    0    0 -.56083265E+02 0.72840512E+02 -.38523431E+03 0.41530898E+03 0.12500000E+03 0.0000E+00 0.9000E+01
       23  1    1    2    0    0 0.75901328E+02 -.46417674E+02 -.39006488E+03 0.41034312E+03 0.91188000E+02 0.0000E+00 0.9000E+01
       21  1    1    2  502  503 -.21013244E+02 -.16034468E+02 -.81376148E+02 0.85564599E+02 0.75000000E+00 0.0000E+00 0.9000E+01
       21  1    1    2  503  501 0.11951805E+01 -.10388370E+02 -.23749144E+02 0.25960182E+02 0.75000000E+00 0.0000E+00 0.9000E+01
#aMCatNLO 2  0  0  5  2 0.76776296D+01 0.00000000D+00  -5  6  0 0.00000000D+00 0.00000000D+00 0.00000000D+00 0.00000000D+00 0.00000000D+00
  <mgrwgt>
 -.2622094320D-01    4    2    0
 0.160587379770277D+03 0.000000000000000D+00 0.000000000000000D+00 0.160587379770277D+03
 0.160587379770277D+03 -.000000000000000D+00 -.000000000000000D+00 -.160587379770277D+03
 0.156172423041530D+03 -.548505455569053D+02 0.744840600694659D+02 0.144349633300729D+02
 0.128213017958241D+03 0.769140103522989D+02 -.450674947742749D+02 -.132846737354476D+02
 0.367893185407846D+02 -.220634647953937D+02 -.294165652951911D+02 -.115028959462525D+01
 0.000000000000000D+00 0.000000000000000D+00 -.000000000000000D+00 0.000000000000000D+00
 0.160587379770277D+03 0.000000000000000D+00 0.000000000000000D+00 0.160587379770277D+03
 0.160587379770277D+03 -.000000000000000D+00 -.000000000000000D+00 -.160587379770277D+03
 0.155824203961261D+03 -.561001128527377D+02 0.728180489379657D+02 0.143698165241877D+02
 0.128095211311034D+03 0.758874788028257D+02 -.464361389393091D+02 -.133381924629396D+02
 0.262297560163781D+02 -.208966730823848D+02 -.155789750022836D+02 -.293678270304094D+01
 0.110255882518813D+02 0.110930713229683D+01 -.108029349963730D+02 0.190515864179286D+01
-.499135519072D-04 0.000000000000D+00 0.000000000000D+00 0.842685999941D-05 0.000000000000D+00  6 -2 2 25 23 21 21 4 0.43655687D-02 0.13981549D+00 0.25517453D+05 0.25517453D+05 0.25517453D+05 0.12223449D+01  1  2 13  3  6  5       21 -.784944951678D-01 0.100000000000D+01
-.497672778405D-04 0.000000000000D+00 0.000000000000D+00 0.842685999941D-05 0.000000000000D+00  6 -2 2 25 23 21 21 4 0.43655687D-02 0.13981549D+00 0.25517453D+05 0.25517453D+05 0.25517453D+05 0.12223449D+01  1  2 13  3  6  5       21 -.782644632710D-01 0.100000000000D+01
-.210089216712D-04 0.000000000000D+00 0.000000000000D+00 0.842560001928D-05 0.000000000000D+00  6 -2 2 25 23 21 21 4 0.43655687D-02 0.13981549D+00 0.25567712D+05 0.25567712D+05 0.25567712D+05 0.12222535D+01  1  2  8  3  6  5       21 -.330304336945D-01 0.100000000000D+01
0.104010889540D-03 0.000000000000D+00 0.000000000000D+00 0.842560001928D-05 0.809756780376D-06  6 -2 2 25 23 21 21 4 0.43655687D-02 0.13981549D+00 0.25517453D+05 0.25517453D+05 0.25517453D+05 0.12223449D+01  1  2  1  3  6  5       21 0.163568448938D+00 0.100000000000D+01
  </mgrwgt>
  </event>
  <event>
  5     66 -.42185105E-03 0.20774094E+02 0.75467711E-02 0.11023674E+00
       -2 -1    0    0    0  501 0.00000000E+00 0.00000000E+00 0.17729011E+03 0.17729040E+03 0.32000000E+00 0.0000E+00 0.9000E+01
        2 -1    0    0  502    0 -.00000000E+00 -.00000000E+00 -.42419485E+03 0.42419497E+03 0.32000000E+00 0.0000E+00 0.9000E+01
       25  1    1    2    0    0 0.17207294E+03 0.17307673E+03 -.65722474E+02 0.28197357E+03 0.12500000E+03 0.0000E+00 0.9000E+01
       23  1    1    2    0    0 -.15830595E+03 -.15753650E+03 -.17434565E+03 0.29764102E+03 0.91188000E+02 0.0000E+00 0.9000E+01
       21  1    1    2  502  501 -.13766991E+02 -.15540230E+02 -.68366173E+01 0.21870771E+02 0.75000000E+00 0.0000E+00 0.9000E+01
#aMCatNLO 1  0  0  5  2 0.26323651D+01 0.00000000D+00  -5  6  0 0.00000000D+00 0.00000000D+00 0.00000000D+00 0.00000000D+00 0.00000000D+00
  <mgrwgt>
 -.2087020754D+01   20    2    0
 0.274236529650831D+03 0.000000000000000D+00 0.000000000000000D+00 0.274236529650831D+03
 0.274236529650831D+03 -.000000000000000D+00 -.000000000000000D+00 -.274236529650831D+03
 0.279647213090979D+03 0.172077464389716D+03 0.173081832121231D+03 0.548597250112998D+02
 0.247919306026121D+03 -.158301944544744D+03 -.157531975179240D+03 -.572092833896171D+02
 0.209065401845625D+02 -.137755198449723D+02 -.155498569419908D+02 0.234955837831730D+01
 0.000000000000000D+00 0.000000000000000D+00 0.000000000000000D+00 0.000000000000000D+00
 0.274236529650831D+03 0.000000000000000D+00 0.000000000000000D+00 0.274236529650831D+03
 0.274236529650831D+03 -.000000000000000D+00 -.000000000000000D+00 -.274236529650831D+03
 0.279221034779392D+03 0.171744546918319D+03 0.172706033667744D+03 0.549165075533027D+02
 0.248308544822217D+03 -.158597547170176D+03 -.157865652498781D+03 -.571588652832187D+02
 0.160795475437880D+02 -.944073097822251D+01 -.130123136111821D+02 -.322710852021991D+00
 0.486393215626445D+01 -.370626876992021D+01 -.182806755778127D+01 0.256506858193794D+01
0.161632789024D-02 0.000000000000D+00 0.000000000000D+00 0.170105173656D-04 0.000000000000D+00  6 -2 2 25 23 21 21 2 0.27275433D-01 0.65260777D-01 0.71881831D+05 0.71881831D+05 0.71881831D+05 0.11769774D+01  1  2  2  3  6  5       21 0.204121705592D+00 0.100000000000D+01
0.816750262704D-03 0.852959661423D-04 -.620712468743D-05 0.170105173656D-04 0.000000000000D+00  6 -2 2 25 23 21 21 4 0.27275433D-01 0.65260777D-01 0.71881831D+05 0.71881831D+05 0.71881831D+05 0.11769774D+01  1  2  3  3  6  5       21 0.142884537236D+00 0.100000000000D+01
0.220450823623D-04 0.000000000000D+00 0.000000000000D+00 0.170105173656D-04 0.000000000000D+00  6 -2 2 25 23 21 21 4 0.27275433D-01 0.65260777D-01 0.71881831D+05 0.71881831D+05 0.71881831D+05 0.11769774D+01  1  2 15  3  6  5       21 0.385662733824D-02 0.100000000000D+01
0.129317124900D-05 0.000000000000D+00 0.000000000000D+00 0.170131895674D-04 0.000000000000D+00  6 -2 2 25 23 21 21 4 0.27275433D-01 0.65260777D-01 0.71721251D+05 0.71721251D+05 0.71721251D+05 0.11770698D+01  1  2 12  3  6  5       21 0.226300547024D-03 0.100000000000D+01
0.129557591809D-05 0.000000000000D+00 0.000000000000D+00 0.170131895674D-04 0.000000000000D+00  6 -2 2 25 23 21 21 4 0.27275433D-01 0.65260777D-01 0.71721251D+05 0.71721251D+05 0.71721251D+05 0.11770698D+01  1  2 12  3  6  5       21 0.226721355893D-03 0.100000000000D+01
-.193060400574D-01 0.000000000000D+00 0.000000000000D+00 0.170105173656D-04 0.000000000000D+00  6 -2 2 25 23 21 21 4 0.27275433D-01 0.65260777D-01 0.71881831D+05 0.71881831D+05 0.71881831D+05 0.11769774D+01  1  2  4  3  6  5       21 -.337745174434D+01 0.100000000000D+01
-.765541398545D-02 0.000000000000D+00 0.000000000000D+00 0.170105173656D-04 0.000000000000D+00  6 -2 2 25 23 21 21 4 0.27275433D-01 0.65260777D-01 0.71881831D+05 0.71881831D+05 0.71881831D+05 0.11769774D+01  1  2  5  3  6  5       21 -.133925917702D+01 0.100000000000D+01
0.134090338199D-01 0.000000000000D+00 -.000000000000D+00 0.170105173656D-04 0.000000000000D+00  6 -2 2 25 23 21 21 4 0.27275433D-01 0.65260777D-01 0.71881831D+05 0.71881831D+05 0.71881831D+05 0.11769774D+01  1  2  6  3  6  5       21 0.234581325482D+01 0.100000000000D+01
0.432802522748D-06 0.000000000000D+00 0.000000000000D+00 0.170131895674D-04 0.000000000000D+00  6 -2 2 25 23 1 -1 4 0.27275433D-01 0.65260777D-01 0.71721251D+05 0.71721251D+05 0.71721251D+05 0.11770698D+01  1  2 12  6  6  5       21 0.757389616628D-04 0.100000000000D+01
0.432802522748D-06 0.000000000000D+00 0.000000000000D+00 0.170131895674D-04 0.000000000000D+00  6 -2 2 25 23 3 -3 4 0.27275433D-01 0.65260777D-01 0.71721251D+05 0.71721251D+05 0.71721251D+05 0.11770698D+01  1  2 12  6  6  5       21 0.757389616628D-04 0.100000000000D+01
0.433320984988D-06 0.000000000000D+00 0.000000000000D+00 0.170131895674D-04 0.000000000000D+00  6 -2 2 25 23 1 -1 4 0.27275433D-01 0.65260777D-01 0.71721251D+05 0.71721251D+05 0.71721251D+05 0.11770698D+01  1  2 12  6  6  5       21 0.758296907819D-04 0.100000000000D+01
0.433320984988D-06 0.000000000000D+00 0.000000000000D+00 0.170131895674D-04 0.000000000000D+00  6 -2 2 25 23 3 -3 4 0.27275433D-01 0.65260777D-01 0.71721251D+05 0.71721251D+05 0.71721251D+05 0.11770698D+01  1  2 12  6  6  5       21 0.758296907819D-04 0.100000000000D+01
-.972393167512D-04 0.000000000000D+00 0.000000000000D+00 0.170105173656D-04 0.000000000000D+00  6 -2 2 25 23 1 -1 4 0.27275433D-01 0.65260777D-01 0.71881831D+05 0.71881831D+05 0.71881831D+05 0.11769774D+01  1  2  5  6  6  5       21 -.170113135062D-01 0.100000000000D+01
-.972393167512D-04 0.000000000000D+00 0.000000000000D+00 0.170105173656D-04 0.000000000000D+00  6 -2 2 25 23 3 -3 4 0.27275433D-01 0.65260777D-01 0.71881831D+05 0.71881831D+05 0.71881831D+05 0.11769774D+01  1  2  5  6  6  5       21 -.170113135062D-01 0.100000000000D+01
0.432802522748D-06 0.000000000000D+00 0.000000000000D+00 0.170131895674D-04 0.000000000000D+00  6 -2 2 25 23 2 -2 4 0.27275433D-01 0.65260777D-01 0.71721251D+05 0.71721251D+05 0.71721251D+05 0.11770698D+01  1  2 12  7  6  5       21 0.757389616628D-04 0.100000000000D+01
0.433320984988D-06 0.000000000000D+00 0.000000000000D+00 0.170131895674D-04 0.000000000000D+00  6 -2 2 25 23 2 -2 4 0.27275433D-01 0.65260777D-01 0.71721251D+05 0.71721251D+05 0.71721251D+05 0.11770698D+01  1  2 12  7  6  5       21 0.758296907819D-04 0.100000000000D+01
-.972393167512D-04 0.000000000000D+00 0.000000000000D+00 0.170105173656D-04 0.000000000000D+00  6 -2 2 25 23 2 -2 4 0.27275433D-01 0.65260777D-01 0.71881831D+05 0.71881831D+05 0.71881831D+05 0.11769774D+01  1  2  5  7  6  5       21 -.170113135062D-01 0.100000000000D+01
0.432802522748D-06 0.000000000000D+00 0.000000000000D+00 0.170131895674D-04 0.000000000000D+00  6 -2 2 25 23 4 -4 4 0.27275433D-01 0.65260777D-01 0.71721251D+05 0.71721251D+05 0.71721251D+05 0.11770698D+01  1  2 12  8  6  5       21 0.757389616628D-04 0.100000000000D+01
0.433320984988D-06 0.000000000000D+00 0.000000000000D+00 0.170131895674D-04 0.000000000000D+00  6 -2 2 25 23 4 -4 4 0.27275433D-01 0.65260777D-01 0.71721251D+05 0.71721251D+05 0.71721251D+05 0.11770698D+01  1  2 12  8  6  5       21 0.758296907819D-04 0.100000000000D+01
-.972393167512D-04 0.000000000000D+00 0.000000000000D+00 0.170105173656D-04 0.000000000000D+00  6 -2 2 25 23 4 -4 4 0.27275433D-01 0.65260777D-01 0.71881831D+05 0.71881831D+05 0.71881831D+05 0.11769774D+01  1  2  5  8  6  5       21 -.170113135062D-01 0.100000000000D+01
  </mgrwgt>
  </event>
  <event>
  6     66 -.42185105E-03 0.43127252E+02 0.75467711E-02 0.11956383E+00
       -2 -1    0    0    0  501 0.00000000E+00 0.00000000E+00 0.11009207E+03 0.11009253E+03 0.32000000E+00 0.0000E+00 0.9000E+01
        2 -1    0    0  502    0 -.00000000E+00 -.00000000E+00 -.28428426E+03 0.28428444E+03 0.32000000E+00 0.0000E+00 0.9000E+01
       25  1    1    2    0    0 -.28610012E+01 -.66009998E+02 -.15086573E+03 0.20676309E+03 0.12500000E+03 0.0000E+00 0.9000E+01
       23  1    1    2    0    0 0.49063324E+02 0.53736611E+02 -.53984506E+02 0.12854731E+03 0.91188000E+02 0.0000E+00 0.9000E+01
       21  1    1    2  503  501 -.37722741E+02 0.37598973E+01 0.26770639E+02 0.46415209E+02 0.75000000E+00 0.0000E+00 0.9000E+01
       21  1    1    2  502  503 -.84795815E+01 0.85134887E+01 0.38873993E+01 0.12651370E+02 0.75000000E+00 0.0000E+00 0.9000E+01
#aMCatNLO 2  0  0  5  1 0.64215045D+01 0.00000000D+00  -5  6  0 0.00000000D+00 0.00000000D+00 0.00000000D+00 0.00000000D+00 0.00000000D+00
  <mgrwgt>
 -.5240318280D-01    4    2    0
 0.176911190747401D+03 0.000000000000000D+00 0.000000000000000D+00 0.176911190747401D+03
 0.176911190747401D+03 -.000000000000000D+00 -.000000000000000D+00 -.176911190747401D+03
 0.156476828547381D+03 -.243629882287405D+01 -.661228173074222D+02 -.669465111235939D+02
 0.116788007970408D+03 0.493804823042280D+02 0.536523600285770D+02 0.267949481469099D+01
 0.805575449770121D+02 -.469441834813540D+02 0.124704572788453D+02 0.642670163089030D+02
 0.000000000000000D+00 0.000000000000000D+00 0.000000000000000D+00 0.000000000000000D+00
 0.176911190747401D+03 0.000000000000000D+00 0.000000000000000D+00 0.176911190747401D+03
 0.176911190747401D+03 -.000000000000000D+00 -.000000000000000D+00 -.176911190747401D+03
 0.156188302850135D+03 -.286121101238399D+01 -.660099417834790D+02 -.663648024519768D+02
 0.116703770096903D+03 0.490631667717678D+02 0.537366531081026D+02 0.311390267925188D+01
 0.647312363694571D+02 -.376143527869122D+02 0.365710921847525D+01 0.525539625385601D+02
 0.161990721783068D+02 -.858760297247161D+01 0.861617945690118D+01 0.106969372341649D+02
-.161737340436D-03 0.000000000000D+00 0.000000000000D+00 0.574048885127D-05 0.000000000000D+00  6 -2 2 25 23 21 21 4 0.16937291D-01 0.43736090D-01 0.23717021D+05 0.23717021D+05 0.23717021D+05 0.12257583D+01  1  2 13  3  6  5       21 -.114999524293D+00 0.100000000000D+01
-.180220939118D-03 0.000000000000D+00 0.000000000000D+00 0.574048885127D-05 0.000000000000D+00  6 -2 2 25 23 21 21 4 0.16937291D-01 0.43736090D-01 0.23717021D+05 0.23717021D+05 0.23717021D+05 0.12257583D+01  1  2 13  3  6  5       21 -.128141851538D+00 0.100000000000D+01
-.262192627346D-05 0.000000000000D+00 0.000000000000D+00 0.574404456904D-05 0.000000000000D+00  6 -2 2 25 23 21 21 4 0.16937291D-01 0.43736090D-01 0.23525747D+05 0.23525747D+05 0.23525747D+05 0.12261378D+01  1  2  8  3  6  5       21 -.186622542952D-02 0.100000000000D+01
0.270882219646D-03 0.000000000000D+00 0.000000000000D+00 0.574404456904D-05 0.714031265293D-06  6 -2 2 25 23 21 21 4 0.16937291D-01 0.43736090D-01 0.23717021D+05 0.23717021D+05 0.23717021D+05 0.12257583D+01  1  2  1  3  6  5       21 0.192604418465D+00 0.100000000000D+01
  </mgrwgt>
  </event>
  <event>
  5     66 0.42185105E-03 0.40138911E+02 0.75467711E-02 0.12067506E+00
       -2 -1    0    0    0  501 0.00000000E+00 0.00000000E+00 0.39549437E+02 0.39550732E+02 0.32000000E+00 0.0000E+00 0.9000E+01
        2 -1    0    0  502    0 0.00000000E+00 0.00000000E+00 -.20150892E+04 0.20150892E+04 0.32000000E+00 0.0000E+00 0.9000E+01
       25  1    1    2    0    0 -.68319429E+01 0.35262931E+02 -.97196481E+02 0.16236473E+03 0.12500000E+03 0.0000E+00 0.9000E+01
       23  1    1    2    0    0 0.41811896E+02 -.15585502E+02 -.18112322E+04 0.18140751E+04 0.91188000E+02 0.0000E+00 0.9000E+01
       21  1    1    2  502  501 -.34979953E+02 -.19677429E+02 -.67111019E+02 0.78200062E+02 0.75000000E+00 0.0000E+00 0.9000E+01
#aMCatNLO 1  0  0  2  5 0.18197845D+02 0.00000000D+00  -5  6  0 0.00000000D+00 0.00000000D+00 0.00000000D+00 0.00000000D+00 0.00000000D+00
  <mgrwgt>
 0.2024036345D+00    9    4    0
 0.282306568242856D+03 0.000000000000000D+00 0.000000000000000D+00 0.282306568242856D+03
 0.282306568242856D+03 0.000000000000000D+00 0.000000000000000D+00 -.282306568242856D+03
 0.250764414418748D+03 -.683017755847170D+01 0.352639242761556D+02 0.214400550041139D+03
 0.264093938974643D+03 0.418137553438950D+02 -.155844562612005D+02 -.243801336842574D+03
 0.497547830923203D+02 -.349835777854233D+02 -.196794680149551D+02 0.294007868014350D+02
 0.000000000000000D+00 0.000000000000000D+00 0.000000000000000D+00 -.000000000000000D+00
 0.286327370153842D+03 0.000000000000000D+00 0.000000000000000D+00 0.286327370153842D+03
 0.303822793406928D+03 0.000000000000000D+00 0.000000000000000D+00 -.303822793406928D+03
 0.249854259172464D+03 -.892543147787295D+01 0.274752914745532D+02 0.214400550041139D+03
 0.264366028448607D+03 0.396019764463017D+02 -.238062443281143D+02 -.243801336842574D+03
 0.506860368855844D+02 -.354039556754787D+02 -.212421277924818D+02 0.294007868014350D+02
 0.252438390541155D+02 0.472741070704994D+01 0.175730806460428D+02 -.174954232530863D+02
 0.282306568242856D+03 0.000000000000000D+00 0.000000000000000D+00 0.282306568242856D+03
 0.282306568242856D+03 0.000000000000000D+00 0.000000000000000D+00 -.282306568242856D+03
 0.250764414418748D+03 -.683017755847170D+01 0.352639242761556D+02 0.214400550041139D+03
 0.264093938974643D+03 0.418137553438950D+02 -.155844562612005D+02 -.243801336842574D+03
 0.000000000000000D+00 0.000000000000000D+00 0.000000000000000D+00 -.000000000000000D+00
 0.497547830923203D+02 -.349835777854233D+02 -.196794680149551D+02 0.294007868014350D+02
 0.286327370153842D+03 0.000000000000000D+00 0.000000000000000D+00 0.286327370153842D+03
 0.303822793406928D+03 0.000000000000000D+00 0.000000000000000D+00 -.303822793406928D+03
 0.249854259172464D+03 -.892543147787295D+01 0.274752914745532D+02 0.214400550041139D+03
 0.264366028448607D+03 0.396019764463017D+02 -.238062443281143D+02 -.243801336842574D+03
 0.252438390541155D+02 0.472741070704994D+01 0.175730806460428D+02 -.174954232530863D+02
 0.506860368855844D+02 -.354039556754787D+02 -.212421277924818D+02 0.294007868014350D+02
0.183203283984D-03 0.000000000000D+00 0.000000000000D+00 0.138459808962D-05 0.000000000000D+00  6 -2 2 25 23 21 21 2 0.60846304D-02 0.31001382D+00 0.18457717D+05 0.18457717D+05 0.18457717D+05 0.12376815D+01  1  2  2  2  6  2        2 0.302511834066D-01 0.100000000000D+01
0.266619638744D-05 0.966790290645D-05 -.703548849030D-06 0.138459808962D-05 0.000000000000D+00  6 -2 2 25 23 21 21 4 0.60846304D-02 0.31001382D+00 0.18457717D+05 0.18457717D+05 0.18457717D+05 0.12376815D+01  1  2  3  2  6  2        2 0.674402307843D-03 0.100000000000D+01
0.235557432035D-05 0.000000000000D+00 0.000000000000D+00 0.138459808962D-05 0.000000000000D+00  6 -2 2 25 23 21 21 4 0.60846304D-02 0.31001382D+00 0.18457717D+05 0.18457717D+05 0.18457717D+05 0.12376815D+01  1  2 15  2  6  2        2 0.595831861984D-03 0.100000000000D+01
0.102928962704D-02 0.000000000000D+00 0.000000000000D+00 0.137067129967D-05 0.000000000000D+00  6 -2 2 25 23 21 21 4 0.60846304D-02 0.34906866D+00 0.21026015D+05 0.21026015D+05 0.21026015D+05 0.12314412D+01  1  2 12  2  6  2        2 0.188244669303D+00 0.100000000000D+01
-.630613019739D-03 0.000000000000D+00 0.000000000000D+00 0.138459808962D-05 0.000000000000D+00  6 -2 2 25 23 21 21 4 0.60846304D-02 0.31001382D+00 0.18457717D+05 0.18457717D+05 0.18457717D+05 0.12376815D+01  1  2  4  2  6  2        2 -.159510708916D+00 0.100000000000D+01
-.301998892483D-02 0.000000000000D+00 -.501254582491D-03 0.138459808962D-05 0.000000000000D+00  6 -2 2 25 23 21 21 4 0.60846304D-02 0.33538430D+00 0.18457717D+05 0.18457717D+05 0.18457717D+05 0.12376815D+01  1  2  5  2  6  2        2 -.628357732551D+00 0.100000000000D+01
0.305151905752D-02 0.000000000000D+00 0.499707833454D-03 0.138459808962D-05 0.000000000000D+00  6 -2 2 25 23 21 21 4 0.60846304D-02 0.31001382D+00 0.18457717D+05 0.18457717D+05 0.18457717D+05 0.12376815D+01  1  2  6  2  6  2        2 0.771867933104D+00 0.100000000000D+01
0.200605567129D-04 0.000000000000D+00 0.000000000000D+00 0.137067129967D-05 0.000000000000D+00  6 -2 21 25 23 -2 21 4 0.60846304D-02 0.34906866D+00 0.21026015D+05 0.21026015D+05 0.21026015D+05 0.12314412D+01  3  4 12  5  5  2        2 0.979258896001D-03 0.100000000000D+01
-.386843624683D-04 0.000000000000D+00 -.659539230235D-05 0.138459808962D-05 0.000000000000D+00  6 -2 21 25 23 -2 21 4 0.60846304D-02 0.33538430D+00 0.18457717D+05 0.18457717D+05 0.18457717D+05 0.12376815D+01  3  4  5  5  5  2        2 -.234120291599D-02 0.100000000000D+01
  </mgrwgt>
  </event>
  <event>
  6     66 -.42185105E-03 0.11252770E+03 0.75467711E-02 0.11512071E+00
       -2 -1    0    0    0  501 0.00000000E+00 0.00000000E+00 0.67627978E+02 0.67628736E+02 0.32000000E+00 0.0000E+00 0.9000E+01
        2 -1    0    0  502    0 -.00000000E+00 -.00000000E+00 -.20710792E+04 0.20710792E+04 0.32000000E+00 0.0000E+00 0.9000E+01
       25  1    1    2    0    0 -.34027991E+02 0.36331058E+02 -.11825446E+03 0.17912835E+03 0.12500000E+03 0.0000E+00 0.9000E+01
       23  1    1    2    0    0 0.66712201E+02 0.79602645E+02 -.10125116E+03 0.17133052E+03 0.91188000E+02 0.0000E+00 0.9000E+01
       21  1    1    2  502  503 -.37198180E+02 -.88977124E+02 -.14306865E+04 0.14339334E+04 0.75000000E+00 0.0000E+00 0.9000E+01
       21  1    1    2  503  501 0.45139696E+01 -.26956579E+02 -.35325912E+03 0.35431568E+03 0.75000000E+00 0.0000E+00 0.9000E+01
#aMCatNLO 2  0  0  5  2 0.11726472D+02 0.00000000D+00  -5  6  0 0.00000000D+00 0.00000000D+00 0.00000000D+00 0.00000000D+00 0.00000000D+00
  <mgrwgt>
 -.3289824880D-01    3    2    0
 0.374250898952971D+03 0.000000000000000D+00 0.000000000000000D+00 0.374250898952971D+03
 0.374250898952971D+03 -.000000000000000D+00 -.000000000000000D+00 -.374250898952971D+03
 0.195549728753499D+03 -.339948551154652D+02 0.364485932184992D+02 0.141882156360967D+03
 0.218867957673206D+03 0.667492831440689D+02 0.797341783178375D+02 0.169631735119855D+03
 0.334084111479236D+03 -.327544280286037D+02 -.116182771536337D+03 -.311513891480822D+03
 0.000000000000000D+00 0.000000000000000D+00 -.000000000000000D+00 0.000000000000000D+00
 0.374250898952971D+03 0.000000000000000D+00 0.000000000000000D+00 0.374250898952971D+03
 0.374250898952971D+03 -.000000000000000D+00 -.000000000000000D+00 -.374250898952971D+03
 0.195305405471480D+03 -.340279452463470D+02 0.363312196800883D+02 0.141567449737741D+03
 0.218535927153430D+03 0.667122521560385D+02 0.796028262203946D+02 0.169279548625355D+03
 0.267687040821006D+03 -.372087953256650D+02 -.889269701764792D+02 -.249727554244923D+03
 0.669734244600262D+02 0.452448841597347D+01 -.270070757240037D+02 -.611194441181731D+02
-.119210224507D-02 0.000000000000D+00 0.000000000000D+00 0.375388977313D-05 0.000000000000D+00  6 -2 2 25 23 21 21 4 0.10404365D-01 0.31862763D+00 0.39310856D+05 0.39310856D+05 0.39310856D+05 0.12027675D+01  1  2 13  3  6  5       21 -.107834438720D+00 0.100000000000D+01
-.104820999641D-02 0.000000000000D+00 0.000000000000D+00 0.375388977313D-05 0.000000000000D+00  6 -2 2 25 23 21 21 4 0.10404365D-01 0.31862763D+00 0.39310856D+05 0.39310856D+05 0.39310856D+05 0.12027675D+01  1  2 13  3  6  5       21 -.948183237564D-01 0.100000000000D+01
0.187662438151D-02 0.000000000000D+00 0.000000000000D+00 0.375801735123D-05 0.144450249273D-06  6 -2 2 25 23 21 21 4 0.10404365D-01 0.31862763D+00 0.39310856D+05 0.39310856D+05 0.39310856D+05 0.12027675D+01  1  2  1  3  6  5       21 0.169754513680D+00 0.100000000000D+01
  </mgrwgt>
  </event>
  <event>
  5     66 -.42185105E-03 0.33410312E+02 0.75467711E-02 0.10939567E+00
       -2 -1    0    0    0  501 0.00000000E+00 0.00000000E+00 0.86504443E+02 0.86505035E+02 0.32000000E+00 0.0000E+00 0.9000E+01
        2 -1    0    0  502    0 0.00000000E+00 0.00000000E+00 -.54757358E+03 0.54757367E+03 0.32000000E+00 0.0000E+00 0.9000E+01
       25  1    1    2    0    0 0.14919346E+03 -.30262787E+02 -.22271505E+03 0.29732393E+03 0.12500000E+03 0.0000E+00 0.9000E+01
       23  1    1    2    0    0 -.12645044E+03 0.54734861E+02 -.25143726E+03 0.30086802E+03 0.91188000E+02 0.0000E+00 0.9000E+01
       21  1    1    2  502  501 -.22743018E+02 -.24472073E+02 0.13083175E+02 0.35886755E+02 0.75000000E+00 0.0000E+00 0.9000E+01
#aMCatNLO 1  0  0  1  2 0.23930692D+02 0.00000000D+00  -5  6  0 0.00000000D+00 0.00000000D+00 0.00000000D+00 0.00000000D+00 0.00000000D+00
  <mgrwgt>
 -.4326561299D-02    5    4    0
 0.217641367618347D+03 0.000000000000000D+00 0.000000000000000D+00 0.217641367618347D+03
 0.217641367618347D+03 0.000000000000000D+00 0.000000000000000D+00 -.217641367618347D+03
 0.197205025046214D+03 0.149194124874972D+03 -.302620744896620D+02 -.949430639126674D+01
 0.171943696705943D+03 -.126449866735652D+03 0.547354824545952D+02 -.475798450596899D+02
 0.661340134845363D+02 -.227442581393203D+02 -.244734079649332D+02 0.570741514509566D+02
 0.000000000000000D+00 0.000000000000000D+00 0.000000000000000D+00 0.000000000000000D+00
 0.647284179227015D+03 0.000000000000000D+00 0.000000000000000D+00 0.647284179227015D+03
 0.240087447039790D+03 0.000000000000000D+00 0.000000000000000D+00 -.240087447039790D+03
 0.175062306642669D+03 0.103085151762245D+03 -.656134196590574D+02 -.949430639126674D+01
 0.201980665593459D+03 -.172764079399001D+03 0.192267819223133D+02 -.475798450596899D+02
 0.799754065274872D+02 -.408413479062000D+02 -.383482879226027D+02 0.570741514509566D+02
 0.430353247503189D+03 0.110520275542956D+03 0.847349256593469D+02 0.407196732187226D+03
 0.217641367618347D+03 0.000000000000000D+00 0.000000000000000D+00 0.217641367618347D+03
 0.217641367618347D+03 0.000000000000000D+00 0.000000000000000D+00 -.217641367618347D+03
 0.197205025046214D+03 0.149194124874972D+03 -.302620744896620D+02 -.949430639126674D+01
 0.171943696705943D+03 -.126449866735652D+03 0.547354824545952D+02 -.475798450596899D+02
 0.000000000000000D+00 0.000000000000000D+00 0.000000000000000D+00 0.000000000000000D+00
 0.661340134845363D+02 -.227442581393203D+02 -.244734079649332D+02 0.570741514509566D+02
 0.647284179227015D+03 0.000000000000000D+00 0.000000000000000D+00 0.647284179227015D+03
 0.240087447039790D+03 0.000000000000000D+00 0.000000000000000D+00 -.240087447039790D+03
 0.175062306642669D+03 0.103085151762245D+03 -.656134196590574D+02 -.949430639126674D+01
 0.201980665593459D+03 -.172764079399001D+03 0.192267819223133D+02 -.475798450596899D+02
 0.430353247503189D+03 0.110520275542956D+03 0.847349256593469D+02 0.407196732187226D+03
 0.799754065274872D+02 -.408413479062000D+02 -.383482879226027D+02 0.570741514509566D+02
0.156573014103D-03 0.000000000000D+00 0.000000000000D+00 0.862043530860D-05 0.000000000000D+00  6 -2 2 25 23 21 21 2 0.13308429D-01 0.84242142D-01 0.39128039D+05 0.39128039D+05 0.39128039D+05 0.12029735D+01  1  2  2  1  6  1       -2 0.525657394404D-01 0.100000000000D+01
0.219538438519D-04 0.826258495593D-05 -.601281600778D-06 0.862043530860D-05 0.000000000000D+00  6 -2 2 25 23 21 21 4 0.13308429D-01 0.84242142D-01 0.39128039D+05 0.39128039D+05 0.39128039D+05 0.12029735D+01  1  2  3  1  6  1       -2 0.106661713653D-01 0.100000000000D+01
0.472553498839D-05 0.000000000000D+00 0.000000000000D+00 0.862043530860D-05 0.000000000000D+00  6 -2 2 25 23 21 21 4 0.13308429D-01 0.84242142D-01 0.39128039D+05 0.39128039D+05 0.39128039D+05 0.12029735D+01  1  2 15  1  6  1       -2 0.229587885926D-02 0.100000000000D+01
-.433238182677D-03 0.000000000000D+00 -.790728003720D-04 0.862043530860D-05 0.000000000000D+00  6 -2 2 25 23 21 21 4 0.42591125D-01 0.84242142D-01 0.39128039D+05 0.39128039D+05 0.39128039D+05 0.12029735D+01  1  2  5  1  6  1       -2 -.272298126892D-01 0.100000000000D+01
-.546207782225D-04 0.000000000000D+00 -.105930695152D-04 0.862043530860D-05 0.000000000000D+00  6 21 2 25 23 2 21 4 0.42591125D-01 0.84242142D-01 0.39128039D+05 0.39128039D+05 0.39128039D+05 0.12029735D+01  3  4  5  4  5  1       -2 -.426245382743D-01 0.100000000000D+01
  </mgrwgt>
  </event>
  <event>
  6     66 -.42185105E-03 0.18461843E+02 0.75467711E-02 0.11900271E+00
       -2 -1    0    0    0  501 0.00000000E+00 0.00000000E+00 0.21110415E+02 0.21112840E+02 0.32000000E+00 0.0000E+00 0.9000E+01
        2 -1    0    0  502    0 -.00000000E+00 -.00000000E+00 -.29209396E+04 0.29209396E+04 0.32000000E+00 0.0000E+00 0.9000E+01
       25  1    1    2    0    0 0.90466200E+02 -.39586922E+02 -.20358155E+04 0.20420385E+04 0.12500000E+03 0.0000E+00 0.9000E+01
       23  1    1    2    0    0 -.74213754E+02 0.55105965E+02 -.85716609E+03 0.86694482E+03 0.91188000E+02 0.0000E+00 0.9000E+01
       21  1    1    2  502  503 -.19510671E+02 -.97133121E+01 0.20807223E+01 0.21906771E+02 0.75000000E+00 0.0000E+00 0.9000E+01
       21  1    1    2  503  501 0.32582241E+01 -.58057306E+01 -.89283197E+01 0.11162434E+02 0.75000000E+00 0.0000E+00 0.9000E+01
#aMCatNLO 2  0  0  5  2 0.64950463D+01 0.00000000D+00  -5  6  0 0.00000000D+00 0.00000000D+00 0.00000000D+00 0.00000000D+00 0.00000000D+00
  <mgrwgt>
 -.2199994637D+00    3    2    0
 0.248326077515572D+03 0.000000000000000D+00 0.000000000000000D+00 0.248326077515572D+03
 0.248326077515572D+03 -.000000000000000D+00 -.000000000000000D+00 -.248326077515572D+03
 0.210437296530856D+03 0.905442798782598D+02 -.395123660167880D+02 -.137474950752121D+03
 0.130847320873623D+03 -.741651559244691D+02 0.551523696663435D+02 -.162331698288089D+02
 0.155367537626666D+03 -.163791239537908D+02 -.156400036495556D+02 0.153708120580930D+03
 0.000000000000000D+00 0.000000000000000D+00 0.000000000000000D+00 0.000000000000000D+00
 0.248326077515572D+03 0.000000000000000D+00 0.000000000000000D+00 0.248326077515572D+03
 0.248326077515572D+03 -.000000000000000D+00 -.000000000000000D+00 -.248326077515572D+03
 0.209938987668386D+03 0.904660826380136D+02 -.395870345476745D+02 -.136741117192598D+03
 0.130799459682344D+03 -.742138267389937D+02 0.551058951589804D+02 -.157764238240271D+02
 0.141937808140633D+03 -.195438279186117D+02 -.968398007698427D+01 0.140251918703180D+03
 0.139758995397810D+02 0.329157201959175D+01 -.583488053432171D+01 0.122656223134453D+02
-.158532680318D-02 0.000000000000D+00 0.000000000000D+00 0.287399994751D-04 0.000000000000D+00  6 -2 2 25 23 21 21 4 0.32479440D-02 0.44937552D+00 0.25226099D+05 0.25226099D+05 0.25226099D+05 0.12228787D+01  1  2 13  3  6  5       21 -.317496169668D+00 0.100000000000D+01
-.696670091957D-03 0.000000000000D+00 0.000000000000D+00 0.288214546746D-04 0.000000000000D+00  6 -2 2 25 23 21 21 4 0.32479440D-02 0.44937552D+00 0.24306143D+05 0.24306143D+05 0.24306143D+05 0.12246104D+01  1  2  8  3  6  5       21 -.140446681876D+00 0.100000000000D+01
0.118810261804D-02 0.000000000000D+00 0.000000000000D+00 0.288214546746D-04 0.244514019358D-05  6 -2 2 25 23 21 21 4 0.32479440D-02 0.44937552D+00 0.25226099D+05 0.25226099D+05 0.25226099D+05 0.12228787D+01  1  2  1  3  6  5       21 0.237943387851D+00 0.100000000000D+01
  </mgrwgt>
  </event>
  <event>
  5     66 -.42185105E-03 0.20847515E+02 0.75467711E-02 0.12251348E+00
       -2 -1    0    0    0  501 0.00000000E+00 0.00000000E+00 0.75550678E+02 0.75551356E+02 0.32000000E+00 0.0000E+00 0.9000E+01
        2 -1    0    0  502    0 -.00000000E+00 -.00000000E+00 -.33326665E+03 0.33326680E+03 0.32000000E+00 0.0000E+00 0.9000E+01
       25  1    1    2    0    0 -.41361722E+02 -.50502880E+01 -.36639473E+02 0.13676165E+03 0.12500000E+03 0.0000E+00 0.9000E+01
       23  1    1    2    0    0 0.62164061E+02 0.63335370E+01 -.22513520E+03 0.25080987E+03 0.91188000E+02 0.0000E+00 0.9000E+01
       21  1    1    2  502  501 -.20802339E+02 -.12832490E+01 0.40587000E+01 0.21246637E+02 0.75000000E+00 0.0000E+00 0.9000E+01
#aMCatNLO 1  0  0  5  2 0.64950463D+01 0.00000000D+00  -5  6  0 0.00000000D+00 0.00000000D+00 0.00000000D+00 0.00000000D+00 0.00000000D+00
  <mgrwgt>
 -.2914076879D-01    1    2    0
 0.158677948112814D+03 0.000000000000000D+00 0.000000000000000D+00 0.158677948112814D+03
 0.158677948112814D+03 -.000000000000000D+00 -.000000000000000D+00 -.158677948112814D+03
 0.146420404778823D+03 -.413588501588974D+02 -.505011080256847D+01 0.638582557701834D+02
 0.140270482643528D+03 0.621668116618058D+02 0.633370667129405D+01 -.863465612786983D+02
 0.306650088032766D+02 -.208079615029084D+02 -.128359586872558D+01 0.224883055085150D+02
 0.000000000000000D+00 0.000000000000000D+00 0.000000000000000D+00 -.000000000000000D+00
 0.158677948112814D+03 0.000000000000000D+00 0.000000000000000D+00 0.158677948112814D+03
 0.158677948112814D+03 -.000000000000000D+00 -.000000000000000D+00 -.158677948112814D+03
 0.149110982584463D+03 -.448324109538220D+02 -.526438687596034D+01 0.676123234787259D+02
 0.136689345047594D+03 0.589115337442208D+02 0.613289597265922D+01 -.828284038505648D+02
 0.187080411040215D+02 -.169383584013475D+01 -.151530283910635D+01 0.185694797827572D+02
 0.128475274895501D+02 -.123852869502641D+02 0.646793742407465D+00 -.335339941091836D+01
-.252635177096D-04 0.000000000000D+00 0.000000000000D+00 0.207766205165D-04 0.000000000000D+00  6 -2 2 25 23 21 21 4 0.11623245D-01 0.51271856D-01 0.17312422D+05 0.17312422D+05 0.17312422D+05 0.12407860D+01  1  2 14  3  6  5       21 -.291407687905D-01 0.100000000000D+01
  </mgrwgt>
  </event>
  <event>
  5     66 0.42185105E-03 0.27691499E+02 0.75467711E-02 0.12233131E+00
       -2 -1    0    0    0  501 0.00000000E+00 0.00000000E+00 0.18611614E+03 0.18611642E+03 0.32000000E+00 0.0000E+00 0.9000E+01
        2 -1    0    0  502    0 0.00000000E+00 0.00000000E+00 -.10190671E+03 0.10190721E+03 0.32000000E+00 0.0000E+00 0.9000E+01
       25  1    1    2    0    0 0.33607800E+02 -.31274041E+02 0.45650958E+01 0.13324185E+03 0.12500000E+03 0.0000E+00 0.9000E+01
       23  1    1    2    0    0 -.13179520E+02 0.49957414E+02 0.59324129E+02 0.12043275E+03 0.91188000E+02 0.0000E+00 0.9000E+01
       21  1    1    2  502  501 -.20428279E+02 -.18683373E+02 0.20320204E+02 0.34349035E+02 0.75000000E+00 0.0000E+00 0.9000E+01
#aMCatNLO 1  0  0  5  2 0.50178549D+01 0.00000000D+00  -5  6  0 0.00000000D+00 0.00000000D+00 0.00000000D+00 0.00000000D+00 0.00000000D+00
  <mgrwgt>
 0.5556245265D+00    9    2    0
 0.137719264713246D+03 0.000000000000000D+00 0.000000000000000D+00 0.137719264713246D+03
 0.137719264713246D+03 -.000000000000000D+00 -.000000000000000D+00 -.137719264713246D+03
 0.137934705150417D+03 0.336110617593346D+02 -.312710577650979D+02 -.359638757448988D+02
 0.107798830711134D+03 -.131769708200865D+02 0.499597458970253D+02 0.252136429061535D+02
 0.297049935649402D+02 -.204340909392480D+02 -.186886881319274D+02 0.107502328387452D+02
 0.000000000000000D+00 0.000000000000000D+00 0.000000000000000D+00 0.000000000000000D+00
 0.137719264713246D+03 0.000000000000000D+00 0.000000000000000D+00 0.137719264713246D+03
 0.137719264713246D+03 -.000000000000000D+00 -.000000000000000D+00 -.137719264713246D+03
 0.137321976809180D+03 0.292460481339009D+02 -.352632284263656D+02 -.336674724961701D+02
 0.107302587817661D+03 -.165880437722269D+02 0.468400339026266D+02 0.270081846146385D+02
 0.699906486642342D+01 0.141717577829951D+01 0.254529716685100D+01 -.636395978540280D+01
 0.238148999332268D+02 -.140751801399735D+02 -.141221026431120D+02 0.130232476669344D+02
0.847007442923D-03 0.000000000000D+00 0.000000000000D+00 0.170396436387D-04 0.000000000000D+00  6 -2 2 25 23 21 21 2 0.28633312D-01 0.15678015D-01 0.17644330D+05 0.17644330D+05 0.17644330D+05 0.12398631D+01  1  2  2  3  6  5       21 0.512417023716D+00 0.100000000000D+01
0.113808684670D-03 0.446978107660D-04 -.325273160301D-05 0.170396436387D-04 0.000000000000D+00  6 -2 2 25 23 21 21 4 0.28633312D-01 0.15678015D-01 0.17644330D+05 0.17644330D+05 0.17644330D+05 0.12398631D+01  1  2  3  3  6  5       21 0.105842285734D+00 0.100000000000D+01
0.194781378400D-04 0.000000000000D+00 0.000000000000D+00 0.170396436387D-04 0.000000000000D+00  6 -2 2 25 23 21 21 4 0.28633312D-01 0.15678015D-01 0.17644330D+05 0.17644330D+05 0.17644330D+05 0.12398631D+01  1  2 15  3  6  5       21 0.181147039595D-01 0.100000000000D+01
0.600966956206D-04 0.000000000000D+00 0.000000000000D+00 0.170990981791D-04 0.000000000000D+00  6 -2 2 25 23 21 21 4 0.28633312D-01 0.15678015D-01 0.16877984D+05 0.16877984D+05 0.16877984D+05 0.12420243D+01  1  2 12  3  6  5       21 0.562018636137D-01 0.100000000000D+01
-.164409299231D-03 0.000000000000D+00 0.000000000000D+00 0.170396436387D-04 0.000000000000D+00  6 -2 2 25 23 21 21 4 0.28633312D-01 0.15678015D-01 0.17644330D+05 0.17644330D+05 0.17644330D+05 0.12398631D+01  1  2  4  3  6  5       21 -.152900950195D+00 0.100000000000D+01
0.426372976834D-05 0.000000000000D+00 0.000000000000D+00 0.170990981791D-04 0.000000000000D+00  6 -2 2 25 23 1 -1 4 0.28633312D-01 0.15678015D-01 0.16877984D+05 0.16877984D+05 0.16877984D+05 0.12420243D+01  1  2 12  6  6  5       21 0.398739991360D-02 0.100000000000D+01
0.426372976834D-05 0.000000000000D+00 0.000000000000D+00 0.170990981791D-04 0.000000000000D+00  6 -2 2 25 23 3 -3 4 0.28633312D-01 0.15678015D-01 0.16877984D+05 0.16877984D+05 0.16877984D+05 0.12420243D+01  1  2 12  6  6  5       21 0.398739991360D-02 0.100000000000D+01
0.426372976834D-05 0.000000000000D+00 0.000000000000D+00 0.170990981791D-04 0.000000000000D+00  6 -2 2 25 23 2 -2 4 0.28633312D-01 0.15678015D-01 0.16877984D+05 0.16877984D+05 0.16877984D+05 0.12420243D+01  1  2 12  7  6  5       21 0.398739991360D-02 0.100000000000D+01
0.426372976834D-05 0.000000000000D+00 0.000000000000D+00 0.170990981791D-04 0.000000000000D+00  6 -2 2 25 23 4 -4 4 0.28633312D-01 0.15678015D-01 0.16877984D+05 0.16877984D+05 0.16877984D+05 0.12420243D+01  1  2 12  8  6  5       21 0.398739991360D-02 0.100000000000D+01
  </mgrwgt>
  </event>
  <event>
  5     66 0.42185105E-03 0.84498744E+02 0.75467711E-02 0.10717665E+00
       -2 -1    0    0    0  501 0.00000000E+00 0.00000000E+00 0.48669912E+02 0.48670964E+02 0.32000000E+00 0.0000E+00 0.9000E+01
        2 -1    0    0  502    0 0.00000000E+00 0.00000000E+00 -.22929933E+04 0.22929933E+04 0.32000000E+00 0.0000E+00 0.9000E+01
       25  1    1    2    0    0 -.22062002E+03 -.99563748E+02 -.64160557E+03 0.69704293E+03 0.12500000E+03 0.0000E+00 0.9000E+01
       23  1    1    2    0    0 0.25355728E+03 0.21750566E+02 -.99549886E+03 0.10315511E+04 0.91188000E+02 0.0000E+00 0.9000E+01
       21  1    1    2  502  501 -.32937265E+02 0.77813182E+02 -.60721894E+03 0.61307027E+03 0.75000000E+00 0.0000E+00 0.9000E+01
#aMCatNLO 1  0  0  1  5 0.28184729D+02 0.00000000D+00  -5  6  0 0.00000000D+00 0.00000000D+00 0.00000000D+00 0.00000000D+00 0.00000000D+00
  <mgrwgt>
 0.1059002563D+00    9    4    0
 0.334067416517424D+03 0.000000000000000D+00 0.000000000000000D+00 0.334067416517424D+03
 0.334067416517424D+03 0.000000000000000D+00 0.000000000000000D+00 -.334067416517424D+03
 0.287771700856385D+03 -.220619680236536D+03 -.995645418222792D+02 0.927437896455886D+02
 0.271389903080195D+03 0.253557597802419D+03 0.217498171110265D+02 -.239315315469123D+02
 0.108973229098269D+03 -.329379175658833D+02 0.778147247112527D+02 -.688122580986763D+02
 0.000000000000000D+00 0.000000000000000D+00 -.000000000000000D+00 0.000000000000000D+00
 0.400078446099108D+03 0.000000000000000D+00 0.000000000000000D+00 0.400078446099108D+03
 0.337386632300999D+03 0.000000000000000D+00 0.000000000000000D+00 -.337386632300999D+03
 0.293495606469889D+03 -.230858591685649D+03 -.928308738740602D+02 0.927437896455886D+02
 0.263198701101960D+03 0.244140922701417D+03 0.279427374836217D+02 -.239315315469123D+02
 0.112034736247198D+03 -.368309302266672D+02 0.803749826748276D+02 -.688122580986763D+02
 0.687360345810594D+02 0.235485992108998D+02 -.154868462843892D+02 0.626918137981084D+02
 0.334067416517424D+03 0.000000000000000D+00 0.000000000000000D+00 0.334067416517424D+03
 0.334067416517424D+03 0.000000000000000D+00 0.000000000000000D+00 -.334067416517424D+03
 0.287771700856385D+03 -.220619680236536D+03 -.995645418222792D+02 0.927437896455886D+02
 0.271389903080195D+03 0.253557597802419D+03 0.217498171110265D+02 -.239315315469123D+02
 0.000000000000000D+00 0.000000000000000D+00 -.000000000000000D+00 0.000000000000000D+00
 0.108973229098269D+03 -.329379175658833D+02 0.778147247112527D+02 -.688122580986763D+02
 0.400078446099108D+03 0.000000000000000D+00 0.000000000000000D+00 0.400078446099108D+03
 0.337386632300999D+03 0.000000000000000D+00 0.000000000000000D+00 -.337386632300999D+03
 0.293495606469889D+03 -.230858591685649D+03 -.928308738740602D+02 0.927437896455886D+02
 0.263198701101960D+03 0.244140922701417D+03 0.279427374836217D+02 -.239315315469123D+02
 0.687360345810594D+02 0.235485992108998D+02 -.154868462843892D+02 0.626918137981084D+02
 0.112034736247198D+03 -.368309302266672D+02 0.803749826748276D+02 -.688122580986763D+02
0.474370800653D-03 0.000000000000D+00 0.000000000000D+00 0.105431850281D-05 0.000000000000D+00  6 -2 2 25 23 21 21 2 0.74877614D-02 0.35276828D+00 0.98360217D+05 0.98360217D+05 0.98360217D+05 0.11642318D+01  1  2  2  1  6  1       -2 0.347918364510D-01 0.100000000000D+01
0.253030080325D-04 0.250332348997D-04 -.182170877921D-05 0.105431850281D-05 0.000000000000D+00  6 -2 2 25 23 21 21 4 0.74877614D-02 0.35276828D+00 0.98360217D+05 0.98360217D+05 0.98360217D+05 0.11642318D+01  1  2  3  1  6  1       -2 0.251542000179D-02 0.100000000000D+01
0.677648899199D-05 0.000000000000D+00 0.000000000000D+00 0.105431850281D-05 0.000000000000D+00  6 -2 2 25 23 21 21 4 0.74877614D-02 0.35276828D+00 0.98360217D+05 0.98360217D+05 0.98360217D+05 0.11642318D+01  1  2 15  1  6  1       -2 0.673663618591D-03 0.100000000000D+01
0.505191506055D-02 0.000000000000D+00 0.000000000000D+00 0.104761787537D-05 0.000000000000D+00  6 -2 2 25 23 21 21 4 0.91092830D-02 0.35276828D+00 0.10796546D+06 0.10796546D+06 0.10796546D+06 0.11605264D+01  1  2 12  1  6  1       -2 0.362936272149D+00 0.100000000000D+01
-.423402965820D-02 0.000000000000D+00 0.000000000000D+00 0.105431850281D-05 0.000000000000D+00  6 -2 2 25 23 21 21 4 0.74877614D-02 0.35276828D+00 0.98360217D+05 0.98360217D+05 0.98360217D+05 0.11642318D+01  1  2  4  1  6  1       -2 -.420912915838D+00 0.100000000000D+01
-.673361884966D-02 0.000000000000D+00 -.554345154691D-03 0.105431850281D-05 0.000000000000D+00  6 -2 2 25 23 21 21 4 0.90569213D-02 0.35276828D+00 0.98360217D+05 0.98360217D+05 0.98360217D+05 0.11642318D+01  1  2  5  1  6  1       -2 -.495836300684D+00 0.100000000000D+01
0.672685319703D-02 0.000000000000D+00 0.544461020841D-03 0.105431850281D-05 0.000000000000D+00  6 -2 2 25 23 21 21 4 0.74877614D-02 0.35276828D+00 0.98360217D+05 0.98360217D+05 0.98360217D+05 0.11642318D+01  1  2  6  1  6  1       -2 0.668729230107D+00 0.100000000000D+01
0.142356193701D-03 0.000000000000D+00 0.000000000000D+00 0.104761787537D-05 0.000000000000D+00  6 21 2 25 23 2 21 4 0.91092830D-02 0.35276828D+00 0.10796546D+06 0.10796546D+06 0.10796546D+06 0.11605264D+01  3  4 12  4  5  1       -2 0.158316441752D+00 0.100000000000D+01
-.179564994089D-03 0.000000000000D+00 -.152648293732D-04 0.105431850281D-05 0.000000000000D+00  6 21 2 25 23 2 21 4 0.90569213D-02 0.35276828D+00 0.98360217D+05 0.98360217D+05 0.98360217D+05 0.11642318D+01  3  4  5  4  5  1       -2 -.205313391254D+00 0.100000000000D+01
  </mgrwgt>
  </event>
  <event>
  5     66 0.42185105E-03 0.11401791E+03 0.75467711E-02 0.10079139E+00
       -2 -1    0    0    0  501 0.00000000E+00 0.00000000E+00 0.82260767E+02 0.82261389E+02 0.32000000E+00 0.0000E+00 0.9000E+01
        2 -1    0    0  502    0 0.00000000E+00 0.00000000E+00 -.90731809E+03 0.90731815E+03 0.32000000E+00 0.0000E+00 0.9000E+01
       25  1    1    2    0    0 -.13666654E+03 0.16366910E+03 -.52003055E+03 0.57577955E+03 0.12500000E+03 0.0000E+00 0.9000E+01
       23  1    1    2    0    0 0.12890575E+03 -.49917452E+02 -.17962035E+03 0.24430957E+03 0.91188000E+02 0.0000E+00 0.9000E+01
       21  1    1    2  502  501 0.77607867E+01 -.11375165E+03 -.12540642E+03 0.16949041E+03 0.75000000E+00 0.0000E+00 0.9000E+01
#aMCatNLO 1  0  0  1  5 0.14158552D+02 0.00000000D+00  -5  6  0 0.00000000D+00 0.00000000D+00 0.00000000D+00 0.00000000D+00 0.00000000D+00
  <mgrwgt>
 0.5558889086D-01    3    2    0
 0.273197763222627D+03 0.000000000000000D+00 0.000000000000000D+00 0.273197763222627D+03
 0.273197763222627D+03 0.000000000000000D+00 0.000000000000000D+00 -.273197763222627D+03
 0.257551685622516D+03 -.136666610785061D+03 0.163670192533189D+03 -.724028752168939D+02
 0.171243172854490D+03 0.128905700250919D+03 -.499167267270776D+02 0.435960289584637D+02
 0.117600667968247D+03 0.776091053414134D+01 -.113753465806112D+03 0.288068462584302D+02
 0.000000000000000D+00 0.000000000000000D+00 0.000000000000000D+00 -.000000000000000D+00
 0.390929138010464D+03 0.000000000000000D+00 0.000000000000000D+00 0.390929138010464D+03
 0.103158518595080D+04 0.000000000000000D+00 0.000000000000000D+00 -.103158518595080D+04
 0.361230264921567D+03 -.319628324105099D+03 0.863589160735482D+02 -.724028752168939D+02
 0.139505337418108D+03 0.370234470579610D+02 -.887419768268618D+02 0.435960289584637D+02
 0.171192570625381D+03 -.776295984842187D+02 -.149835600860237D+03 0.288068462584302D+02
 0.750586150996206D+03 0.360234475531357D+03 0.152218661613551D+03 -.640656047940334D+03
0.285810970871D-03 0.000000000000D+00 0.000000000000D+00 0.634793364542D-06 0.000000000000D+00  6 -2 2 25 23 21 21 2 0.12655555D-01 0.13958745D+00 0.69375340D+05 0.69375340D+05 0.69375340D+05 0.11784471D+01  1  2  2  1  6  1       -2 0.540892678672D-01 0.100000000000D+01
-.835345337045D-05 0.150826593055D-04 -.109758938390D-05 0.634793364542D-06 0.000000000000D+00  6 -2 2 25 23 21 21 4 0.12655555D-01 0.13958745D+00 0.69375340D+05 0.69375340D+05 0.69375340D+05 0.11784471D+01  1  2  3  1  6  1       -2 -.219542410342D-02 0.100000000000D+01
0.140594263914D-04 0.000000000000D+00 0.000000000000D+00 0.634793364542D-06 0.000000000000D+00  6 -2 2 25 23 21 21 4 0.12655555D-01 0.13958745D+00 0.69375340D+05 0.69375340D+05 0.69375340D+05 0.11784471D+01  1  2 15  1  6  1       -2 0.369504709143D-02 0.100000000000D+01
  </mgrwgt>
  </event>
  <event>
  6     66 -.42185105E-03 0.25190957E+02 0.75467711E-02 0.12092526E+00
       -2 -1    0    0    0  501 0.00000000E+00 0.00000000E+00 0.73186982E+02 0.73187682E+02 0.32000000E+00 0.0000E+00 0.9000E+01
        2 -1    0    0  502    0 -.00000000E+00 -.00000000E+00 -.14121856E+04 0.14121857E+04 0.32000000E+00 0.0000E+00 0.9000E+01
       25  1    1    2    0    0 0.39471108E+02 -.56077126E+02 -.67788581E+03 0.69271695E+03 0.12500000E+03 0.0000E+00 0.9000E+01
       23  1    1    2    0    0 -.54108626E+02 0.24589939E+02 -.71658652E+03 0.72480612E+03 0.91188000E+02 0.0000E+00 0.9000E+01
       21  1    1    2  503  501 0.11926928E+02 0.25857171E+02 0.29042378E+02 0.40680058E+02 0.75000000E+00 0.0000E+00 0.9000E+01
       21  1    1    2  502  503 0.27105898E+01 0.56300159E+01 0.26431305E+02 0.27170218E+02 0.75000000E+00 0.0000E+00 0.9000E+01
#aMCatNLO 2  0  0  5  2 0.88258237D+01 0.00000000D+00  -5  6  0 0.00000000D+00 0.00000000D+00 0.00000000D+00 0.00000000D+00 0.00000000D+00
  <mgrwgt>
 -.2078429346D+00    3    2    0
 0.321487403755526D+03 0.000000000000000D+00 0.000000000000000D+00 0.321487403755526D+03
 0.321487403755526D+03 -.000000000000000D+00 -.000000000000000D+00 -.321487403755526D+03
 0.188700937574728D+03 0.394617865636747D+02 -.560971781261232D+02 -.123607919847680D+03
 0.182254093193088D+03 -.541176287878231D+02 0.245705726645510D+02 -.146180957566143D+03
 0.272019776743235D+03 0.146558422241483D+02 0.315266054615722D+02 0.269788877413822D+03
 0.000000000000000D+00 0.000000000000000D+00 0.000000000000000D+00 0.000000000000000D+00
 0.321487403755526D+03 0.000000000000000D+00 0.000000000000000D+00 0.321487403755526D+03
 0.321487403755526D+03 -.000000000000000D+00 -.000000000000000D+00 -.321487403755526D+03
 0.188585918326615D+03 0.394709998636627D+02 -.560773591304438D+02 -.123438318822846D+03
 0.182122681473242D+03 -.541087307504779D+02 0.245897134896548D+02 -.146017159984959D+03
 0.153729085533503D+03 0.118821209051416D+02 0.257604749387719D+02 0.151088864158454D+03
 0.118537122177691D+03 0.275560998167362D+01 0.572717070201691D+01 0.118366614649350D+03
-.119830496457D-02 0.000000000000D+00 0.000000000000D+00 0.345030785791D-04 0.000000000000D+00  6 -2 2 25 23 21 21 4 0.11259592D-01 0.21725938D+00 0.20469932D+05 0.20469932D+05 0.20469932D+05 0.12327172D+01  1  2 13  3  6  5       21 -.234558949130D+00 0.100000000000D+01
-.162144832520D-02 0.000000000000D+00 0.000000000000D+00 0.345030785791D-04 0.000000000000D+00  6 -2 2 25 23 21 21 4 0.11259592D-01 0.21725938D+00 0.20469932D+05 0.20469932D+05 0.20469932D+05 0.12327172D+01  1  2 13  3  6  5       21 -.317385996447D+00 0.100000000000D+01
0.175793398486D-02 0.000000000000D+00 0.000000000000D+00 0.345021902655D-04 0.770737756839D-05  6 -2 2 25 23 21 21 4 0.11259592D-01 0.21725938D+00 0.20469932D+05 0.20469932D+05 0.20469932D+05 0.12327172D+01  1  2  1  3  6  5       21 0.344102011023D+00 0.100000000000D+01
  </mgrwgt>
  </event>
  <event>
  5     66 -.42185105E-03 0.24890299E+02 0.75467711E-02 0.11470219E+00
       -2 -1    0    0    0  501 0.00000000E+00 0.00000000E+00 0.31680683E+02 0.31682299E+02 0.32000000E+00 0.0000E+00 0.9000E+01
        2 -1    0    0  502    0 0.00000000E+00 0.00000000E+00 -.13695232E+04 0.13695232E+04 0.32000000E+00 0.0000E+00 0.9000E+01
       25  1    1    2    0    0 -.51553338E+02 0.98292828E+02 -.10920933E+04 0.11048131E+04 0.12500000E+03 0.0000E+00 0.9000E+01
       23  1    1    2    0    0 0.48741724E+02 -.73572018E+02 -.14534255E+03 0.19294638E+03 0.91188000E+02 0.0000E+00 0.9000E+01
       21  1    1    2  502  501 0.28116139E+01 -.24720810E+02 -.10040666E+03 0.10344604E+03 0.75000000E+00 0.0000E+00 0.9000E+01
#aMCatNLO 1  0  0  1  1 0.78582724D+02 0.00000000D+00  -5  6  0 0.00000000D+00 0.00000000D+00 0.00000000D+00 0.00000000D+00 0.00000000D+00
  <mgrwgt>
 -.1569530775D+00    5    4    0
 0.208299274697535D+03 0.000000000000000D+00 0.000000000000000D+00 0.208299274697535D+03
 0.208299274697535D+03 0.000000000000000D+00 0.000000000000000D+00 -.208299274697535D+03
 0.208887449009256D+03 -.515539481092822D+02 0.982981952768051D+02 -.125254227845862D+03
 0.182217526279884D+03 0.487411912278652D+02 -.735673360147312D+02 0.130767422888672D+03
 0.254935741059297D+02 0.281275688141705D+01 -.247308592620740D+02 -.551319504280955D+01
 0.000000000000000D+00 -.000000000000000D+00 -.000000000000000D+00 0.000000000000000D+00
 0.793374354858780D+03 0.000000000000000D+00 0.000000000000000D+00 0.793374354858780D+03
 0.214627963366639D+03 0.000000000000000D+00 0.000000000000000D+00 -.214627963366639D+03
 0.222451558644523D+03 -.289067578396063D+02 0.131664246100894D+03 -.125254227845862D+03
 0.179112420975907D+03 0.677125986833258D+02 -.456168071488627D+02 0.130767422888672D+03
 0.223812950022384D+02 0.532639754592841D+01 -.210275185311983D+02 -.551319504280955D+01
 0.584057043602752D+03 -.441322383896480D+02 -.650199204208327D+02 0.578746391492141D+03
 0.208299274697535D+03 0.000000000000000D+00 0.000000000000000D+00 0.208299274697535D+03
 0.208299274697535D+03 0.000000000000000D+00 0.000000000000000D+00 -.208299274697535D+03
 0.208887449009256D+03 -.515539481092822D+02 0.982981952768051D+02 -.125254227845862D+03
 0.182217526279884D+03 0.487411912278652D+02 -.735673360147312D+02 0.130767422888672D+03
 0.000000000000000D+00 -.000000000000000D+00 -.000000000000000D+00 0.000000000000000D+00
 0.254935741059297D+02 0.281275688141705D+01 -.247308592620740D+02 -.551319504280955D+01
 0.793374354858780D+03 0.000000000000000D+00 0.000000000000000D+00 0.793374354858780D+03
 0.214627963366639D+03 0.000000000000000D+00 0.000000000000000D+00 -.214627963366639D+03
 0.222451558644523D+03 -.289067578396063D+02 0.131664246100894D+03 -.125254227845862D+03
 0.179112420975907D+03 0.677125986833258D+02 -.456168071488627D+02 0.130767422888672D+03
 0.584057043602752D+03 -.441322383896480D+02 -.650199204208327D+02 0.578746391492141D+03
 0.223812950022384D+02 0.532639754592841D+01 -.210275185311983D+02 -.551319504280955D+01
0.433947613717D-04 0.000000000000D+00 0.000000000000D+00 0.918386685201D-05 0.000000000000D+00  6 -2 2 25 23 21 21 2 0.48740784D-02 0.21069600D+00 0.25433381D+05 0.25433381D+05 0.25433381D+05 0.12224982D+01  1  2  2  1  6  1       -2 0.210740244568D-01 0.100000000000D+01
0.962613557654D-05 0.229000447191D-05 -.166647309771D-06 0.918386685201D-05 0.000000000000D+00  6 -2 2 25 23 21 21 4 0.48740784D-02 0.21069600D+00 0.25433381D+05 0.25433381D+05 0.25433381D+05 0.12224982D+01  1  2  3  1  6  1       -2 0.698648307929D-02 0.100000000000D+01
-.580344821167D-06 0.000000000000D+00 0.000000000000D+00 0.918386685201D-05 0.000000000000D+00  6 -2 2 25 23 21 21 4 0.48740784D-02 0.21069600D+00 0.25433381D+05 0.25433381D+05 0.25433381D+05 0.12224982D+01  1  2 15  1  6  1       -2 -.421204255954D-03 0.100000000000D+01
-.666194116095D-03 0.000000000000D+00 -.241279693144D-04 0.918386685201D-05 0.000000000000D+00  6 -2 2 25 23 21 21 4 0.18930732D-01 0.21069600D+00 0.25433381D+05 0.25433381D+05 0.25433381D+05 0.12224982D+01  1  2  5  1  6  1       -2 -.566768967736D-01 0.100000000000D+01
-.107053579943D-03 0.000000000000D+00 -.389160067789D-05 0.918386685201D-05 0.000000000000D+00  6 21 2 25 23 2 21 4 0.18930732D-01 0.21069600D+00 0.25433381D+05 0.25433381D+05 0.25433381D+05 0.12224982D+01  3  4  5  4  5  1       -2 -.127915484043D+00 0.100000000000D+01
  </mgrwgt>
  </event>
  <event>
  5     66 -.42185105E-03 0.21926602E+02 0.75467711E-02 0.11858549E+00
       -2 -1    0    0    0  501 0.00000000E+00 0.00000000E+00 0.22721799E+02 0.22724052E+02 0.32000000E+00 0.0000E+00 0.9000E+01
        2 -1    0    0  502    0 -.00000000E+00 -.00000000E+00 -.13020056E+04 0.13020056E+04 0.32000000E+00 0.0000E+00 0.9000E+01
       25  1    1    2    0    0 0.50380659E+02 -.80397450E+02 -.75063105E+03 0.76685978E+03 0.12500000E+03 0.0000E+00 0.9000E+01
       23  1    1    2    0    0 -.69830653E+02 0.90510997E+02 -.50439731E+03 0.52516708E+03 0.91188000E+02 0.0000E+00 0.9000E+01
       21  1    1    2  502  501 0.19449993E+02 -.10113547E+02 -.24255445E+02 0.32702832E+02 0.75000000E+00 0.0000E+00 0.9000E+01
#aMCatNLO 1  0  0  5  1 0.26608507D+00 0.00000000D+00  -5  6  0 0.00000000D+00 0.00000000D+00 0.00000000D+00 0.00000000D+00 0.00000000D+00
  <mgrwgt>
 -.6536735533D-01   15    2    0
 0.172004151826719D+03 0.000000000000000D+00 0.000000000000000D+00 0.172004151826719D+03
 0.172004151826719D+03 -.000000000000000D+00 -.000000000000000D+00 -.172004151826719D+03
 0.161657823373224D+03 0.503786454747245D+02 -.803964027339506D+02 -.388157489344326D+02
 0.146617236052723D+03 -.698324790885904D+02 0.905119469588597D+02 0.106007021370326D+02
 0.357332442274913D+02 0.194538336138658D+02 -.101155442249091D+02 0.282150467974000D+02
 0.000000000000000D+00 0.000000000000000D+00 0.000000000000000D+00 0.000000000000000D+00
 0.172004151826719D+03 0.000000000000000D+00 0.000000000000000D+00 0.172004151826719D+03
 0.172004151826719D+03 -.000000000000000D+00 -.000000000000000D+00 -.172004151826719D+03
 0.161658175256884D+03 0.503802305036939D+02 -.803972269124111D+02 -.388134500730651D+02
 0.146616240672899D+03 -.698310415366060D+02 0.905111994650257D+02 0.106027871037963D+02
 0.285901600725148D+02 0.157840297189730D+02 -.808915307700095D+01 0.224238101423341D+02
 0.714372765114124D+01 0.366678131393913D+01 -.202481947561375D+01 0.578685282693470D+01
0.108953372890D-05 0.000000000000D+00 0.000000000000D+00 0.219565404111D-04 0.000000000000D+00  6 -2 2 25 23 21 21 2 0.34958378D-02 0.20030873D+00 0.26420670D+05 0.26420670D+05 0.26420670D+05 0.12207325D+01  1  2  2  3  6  5       21 0.943235705303D-03 0.100000000000D+01
0.229418812649D-06 0.574962744952D-07 -.418409639981D-08 0.219565404111D-04 0.000000000000D+00  6 -2 2 25 23 21 21 4 0.34958378D-02 0.20030873D+00 0.26420670D+05 0.26420670D+05 0.26420670D+05 0.12207325D+01  1  2  3  3  6  5       21 0.295971284168D-03 0.100000000000D+01
0.259548638313D-07 0.000000000000D+00 0.000000000000D+00 0.219565404111D-04 0.000000000000D+00  6 -2 2 25 23 21 21 4 0.34958378D-02 0.20030873D+00 0.26420670D+05 0.26420670D+05 0.26420670D+05 0.12207325D+01  1  2 15  3  6  5       21 0.334841519309D-04 0.100000000000D+01
-.218177815706D-02 0.000000000000D+00 0.000000000000D+00 0.219565404111D-04 0.000000000000D+00  6 -2 2 25 23 21 21 4 0.34958378D-02 0.20030873D+00 0.26420670D+05 0.26420670D+05 0.26420670D+05 0.12207325D+01  1  2  4  3  6  5       21 -.281469368382D+01 0.100000000000D+01
-.149365018560D-02 0.000000000000D+00 0.000000000000D+00 0.219565404111D-04 0.000000000000D+00  6 -2 2 25 23 21 21 4 0.34958378D-02 0.20030873D+00 0.26420670D+05 0.26420670D+05 0.26420670D+05 0.12207325D+01  1  2  5  3  6  5       21 -.192694556486D+01 0.100000000000D+01
0.205589049263D-02 0.000000000000D+00 -.000000000000D+00 0.219565404111D-04 0.000000000000D+00  6 -2 2 25 23 21 21 4 0.34958378D-02 0.20030873D+00 0.26420670D+05 0.26420670D+05 0.26420670D+05 0.12207325D+01  1  2  6  3  6  5       21 0.265228706480D+01 0.100000000000D+01
0.156579440530D-02 0.000000000000D+00 0.000000000000D+00 0.219565404111D-04 0.210062469318D-02  6 -2 2 25 23 21 21 4 0.34958378D-02 0.20030873D+00 0.26420344D+05 0.26420344D+05 0.26420344D+05 0.12207330D+01  1  2 11  3  6  5       21 0.202002161876D+01 0.100000000000D+01
-.135693234302D-04 0.000000000000D+00 0.000000000000D+00 0.219565404111D-04 0.000000000000D+00  6 -2 2 25 23 1 -1 4 0.34958378D-02 0.20030873D+00 0.26420670D+05 0.26420670D+05 0.26420670D+05 0.12207325D+01  1  2  5  6  6  5       21 -.175056702393D-01 0.100000000000D+01
-.135693234302D-04 0.000000000000D+00 0.000000000000D+00 0.219565404111D-04 0.000000000000D+00  6 -2 2 25 23 3 -3 4 0.34958378D-02 0.20030873D+00 0.26420670D+05 0.26420670D+05 0.26420670D+05 0.12207325D+01  1  2  5  6  6  5       21 -.175056702393D-01 0.100000000000D+01
0.141018179720D-04 0.000000000000D+00 0.000000000000D+00 0.219565404111D-04 0.357692197842D-04  6 -2 2 25 23 1 -1 4 0.34958378D-02 0.20030873D+00 0.26420344D+05 0.26420344D+05 0.26420344D+05 0.12207330D+01  1  2 11  6  6  5       21 0.181926676139D-01 0.100000000000D+01
0.141018179720D-04 0.000000000000D+00 0.000000000000D+00 0.219565404111D-04 0.357692197842D-04  6 -2 2 25 23 3 -3 4 0.34958378D-02 0.20030873D+00 0.26420344D+05 0.26420344D+05 0.26420344D+05 0.12207330D+01  1  2 11  6  6  5       21 0.181926676139D-01 0.100000000000D+01
-.135693234302D-04 0.000000000000D+00 0.000000000000D+00 0.219565404111D-04 0.000000000000D+00  6 -2 2 25 23 2 -2 4 0.34958378D-02 0.20030873D+00 0.26420670D+05 0.26420670D+05 0.26420670D+05 0.12207325D+01  1  2  5  7  6  5       21 -.175056702393D-01 0.100000000000D+01
0.140566904537D-04 0.000000000000D+00 0.000000000000D+00 0.219565404111D-04 0.356558000144D-04  6 -2 2 25 23 2 -2 4 0.34958378D-02 0.20030873D+00 0.26420344D+05 0.26420344D+05 0.26420344D+05 0.12207330D+01  1  2 11  7  6  5       21 0.181344488833D-01 0.100000000000D+01
-.135693234302D-04 0.000000000000D+00 0.000000000000D+00 0.219565404111D-04 0.000000000000D+00  6 -2 2 25 23 4 -4 4 0.34958378D-02 0.20030873D+00 0.26420670D+05 0.26420670D+05 0.26420670D+05 0.12207325D+01  1  2  5  8  6  5       21 -.175056702393D-01 0.100000000000D+01
0.141023976785D-04 0.000000000000D+00 0.000000000000D+00 0.219565404111D-04 0.357706902079D-04  6 -2 2 25 23 4 -4 4 0.34958378D-02 0.20030873D+00 0.26420344D+05 0.26420344D+05 0.26420344D+05 0.12207330D+01  1  2 11  8  6  5       21 0.181934154896D-01 0.100000000000D+01
  </mgrwgt>
  </event>
  <event>
  6     66 0.42185105E-03 0.27242478E+02 0.75467711E-02 0.11904616E+00
       21 -1    0    0  503  501 0.00000000E+00 0.00000000E+00 0.21871335E+02 0.21884191E+02 0.75000000E+00 0.0000E+00 0.9000E+01
        2 -1    0    0  502    0 0.00000000E+00 0.00000000E+00 -.24491174E+04 0.24491174E+04 0.32000000E+00 0.0000E+00 0.9000E+01
       25  1    1    2    0    0 -.19987093E+02 0.35816045E+02 -.14409959E+04 0.14469888E+04 0.12500000E+03 0.0000E+00 0.9000E+01
       23  1    1    2    0    0 0.33925463E+02 0.38409506E+02 -.80720281E+03 0.81395200E+03 0.91188000E+02 0.0000E+00 0.9000E+01
        2  1    1    2  503    0 0.60086753E+01 -.44670527E+02 -.24200214E+02 0.51159681E+02 0.32000000E+00 0.0000E+00 0.9000E+01
       21  1    1    2  502  501 -.19947046E+02 -.29555024E+02 -.15484706E+03 0.15890110E+03 0.75000000E+00 0.0000E+00 0.9000E+01
#aMCatNLO 2  0  0  1  1 0.45072832D+02 0.00000000D+00  -5  6  0 0.00000000D+00 0.00000000D+00 0.00000000D+00 0.00000000D+00 0.00000000D+00
  <mgrwgt>
 0.1325015395D+00    1    2    0
 0.140511605310116D+03 0.000000000000000D+00 0.000000000000000D+00 0.140511605310116D+03
 0.140511605310116D+03 0.000000000000000D+00 0.000000000000000D+00 -.140511605310116D+03
 0.131608186546908D+03 -.171433805438472D+02 0.146849111777659D+02 -.344408573266669D+02
 0.100981112234520D+03 0.361145726584658D+02 0.221425883935292D+02 0.934757214745082D+01
 0.000000000000000D+00 0.000000000000000D+00 -.000000000000000D+00 0.000000000000000D+00
 0.484339118388034D+02 -.189711921146186D+02 -.368274995712952D+02 0.250932851792161D+02
 0.370725452081261D+03 0.000000000000000D+00 0.000000000000000D+00 0.370725452081261D+03
 0.144530929364511D+03 0.000000000000000D+00 0.000000000000000D+00 -.144530929364511D+03
 0.135991024128792D+03 -.199860407271565D+02 0.358182099811579D+02 -.344408573266669D+02
 0.105019236791681D+03 0.339262665403500D+02 0.384111974024312D+02 0.934757214745082D+01
 0.230641545043495D+03 0.600867525122975D+01 -.446705273610856D+02 0.226194522716750D+03
 0.436045754818044D+02 -.199489010644233D+02 -.295588800225035D+02 0.250932851792161D+02
0.200206958086D-04 0.000000000000D+00 0.000000000000D+00 0.883408081956D-05 0.889183731748D-08  6 21 2 25 23 2 21 4 0.33658087D-02 0.37678799D+00 0.25105370D+05 0.25105370D+05 0.25105370D+05 0.12231019D+01  1  2  1  4  5  1       -2 0.132501539511D+00 0.100000000000D+01
  </mgrwgt>
  </event>
  <event>
  5     66 0.42185105E-03 0.34804978E+02 0.75467711E-02 0.11189323E+00
       -2 -1    0    0    0  501 0.00000000E+00 0.00000000E+00 0.38885833E+02 0.38887150E+02 0.32000000E+00 0.0000E+00 0.9000E+01
        2 -1    0    0  502    0 -.00000000E+00 -.00000000E+00 -.16187601E+04 0.16187601E+04 0.32000000E+00 0.0000E+00 0.9000E+01
       25  1    1    2    0    0 -.62631974E+02 0.17009892E+03 -.80832427E+03 0.83777654E+03 0.12500000E+03 0.0000E+00 0.9000E+01
       23  1    1    2    0    0 0.85073937E+02 -.19669697E+03 -.72662975E+03 0.76304215E+03 0.91188000E+02 0.0000E+00 0.9000E+01
       21  1    1    2  502  501 -.22441963E+02 0.26598049E+02 -.44920252E+02 0.56828597E+02 0.75000000E+00 0.0000E+00 0.9000E+01
#aMCatNLO 1  0  0  5  2 0.12751718D+02 0.00000000D+00  -5  6  0 0.00000000D+00 0.00000000D+00 0.00000000D+00 0.00000000D+00 0.00000000D+00
  <mgrwgt>
 0.2203975098D-01   20    2    0
 0.250894306189014D+03 0.000000000000000D+00 0.000000000000000D+00 0.250894306189014D+03
 0.250894306189014D+03 -.000000000000000D+00 -.000000000000000D+00 -.250894306189014D+03
 0.222577083251536D+03 -.626306675788724D+02 0.170097376345147D+03 -.325551843472477D+02
 0.232910879955832D+03 0.850753041409501D+02 -.196698593398445D+03 0.202055393350100D+01
 0.463006491706601D+02 -.224446365620777D+02 0.266012170532983D+02 0.305346304137466D+02
 0.000000000000000D+00 0.000000000000000D+00 0.000000000000000D+00 0.000000000000000D+00
 0.250894306189014D+03 0.000000000000000D+00 0.000000000000000D+00 0.250894306189014D+03
 0.250894306189014D+03 -.000000000000000D+00 -.000000000000000D+00 -.250894306189014D+03
 0.224269408205551D+03 -.643221211258301D+02 0.172102074563973D+03 -.302540595874181D+02
 0.230550969559980D+03 0.833209562737735D+02 -.194619353297021D+03 0.440724277977492D+01
 0.268314355850385D+02 -.785708336957648D+01 0.576516180778178D+01 0.249991017000149D+02
 0.201367990274584D+02 -.111417517783669D+02 0.167521169252667D+02 0.847715107628229D+00
0.123771107887D-03 0.000000000000D+00 0.000000000000D+00 0.674674987952D-05 0.000000000000D+00  6 -2 2 25 23 21 21 2 0.59825396D-02 0.24904012D+00 0.59509277D+05 0.59509277D+05 0.59509277D+05 0.11848650D+01  1  2  2  3  6  5       21 0.305104537172D-01 0.100000000000D+01
0.270698334084D-04 0.653158080825D-05 -.475313643968D-06 0.674674987952D-05 0.000000000000D+00  6 -2 2 25 23 21 21 4 0.59825396D-02 0.24904012D+00 0.59509277D+05 0.59509277D+05 0.59509277D+05 0.11848650D+01  1  2  3  3  6  5       21 0.936812588414D-02 0.100000000000D+01
0.410632413387D-06 0.000000000000D+00 0.000000000000D+00 0.674674987952D-05 0.000000000000D+00  6 -2 2 25 23 21 21 4 0.59825396D-02 0.24904012D+00 0.59509277D+05 0.59509277D+05 0.59509277D+05 0.11848650D+01  1  2 15  3  6  5       21 0.142108600474D-03 0.100000000000D+01
0.544131108614D-04 0.000000000000D+00 0.000000000000D+00 0.675725850110D-05 0.000000000000D+00  6 -2 2 25 23 21 21 4 0.59825396D-02 0.24904012D+00 0.58223876D+05 0.58223876D+05 0.58223876D+05 0.11857874D+01  1  2 12  3  6  5       21 0.188918899540D-01 0.100000000000D+01
0.590471203636D-04 0.000000000000D+00 0.000000000000D+00 0.675725850110D-05 0.000000000000D+00  6 -2 2 25 23 21 21 4 0.59825396D-02 0.24904012D+00 0.58223876D+05 0.58223876D+05 0.58223876D+05 0.11857874D+01  1  2 12  3  6  5       21 0.205007889156D-01 0.100000000000D+01
-.295770500168D-03 0.000000000000D+00 0.000000000000D+00 0.674674987952D-05 0.000000000000D+00  6 -2 2 25 23 21 21 4 0.59825396D-02 0.24904012D+00 0.59509277D+05 0.59509277D+05 0.59509277D+05 0.11848650D+01  1  2  4  3  6  5       21 -.102358046929D+00 0.100000000000D+01
-.111291971883D-03 0.000000000000D+00 0.000000000000D+00 0.674674987952D-05 0.000000000000D+00  6 -2 2 25 23 21 21 4 0.59825396D-02 0.24904012D+00 0.59509277D+05 0.59509277D+05 0.59509277D+05 0.11848650D+01  1  2  5  3  6  5       21 -.385150948943D-01 0.100000000000D+01
0.228848628174D-03 0.000000000000D+00 -.000000000000D+00 0.674674987952D-05 0.000000000000D+00  6 -2 2 25 23 21 21 4 0.59825396D-02 0.24904012D+00 0.59509277D+05 0.59509277D+05 0.59509277D+05 0.11848650D+01  1  2  6  3  6  5       21 0.791982250059D-01 0.100000000000D+01
0.163586011477D-05 0.000000000000D+00 0.000000000000D+00 0.675725850110D-05 0.000000000000D+00  6 -2 2 25 23 1 -1 4 0.59825396D-02 0.24904012D+00 0.58223876D+05 0.58223876D+05 0.58223876D+05 0.11857874D+01  1  2 12  6  6  5       21 0.567960345936D-03 0.100000000000D+01
0.163586011477D-05 0.000000000000D+00 0.000000000000D+00 0.675725850110D-05 0.000000000000D+00  6 -2 2 25 23 3 -3 4 0.59825396D-02 0.24904012D+00 0.58223876D+05 0.58223876D+05 0.58223876D+05 0.11857874D+01  1  2 12  6  6  5       21 0.567960345936D-03 0.100000000000D+01
0.177020878519D-05 0.000000000000D+00 0.000000000000D+00 0.675725850110D-05 0.000000000000D+00  6 -2 2 25 23 1 -1 4 0.59825396D-02 0.24904012D+00 0.58223876D+05 0.58223876D+05 0.58223876D+05 0.11857874D+01  1  2 12  6  6  5       21 0.614605359553D-03 0.100000000000D+01
0.177020878519D-05 0.000000000000D+00 0.000000000000D+00 0.675725850110D-05 0.000000000000D+00  6 -2 2 25 23 3 -3 4 0.59825396D-02 0.24904012D+00 0.58223876D+05 0.58223876D+05 0.58223876D+05 0.11857874D+01  1  2 12  6  6  5       21 0.614605359553D-03 0.100000000000D+01
-.309878747684D-06 0.000000000000D+00 0.000000000000D+00 0.674674987952D-05 0.000000000000D+00  6 -2 2 25 23 1 -1 4 0.59825396D-02 0.24904012D+00 0.59509277D+05 0.59509277D+05 0.59509277D+05 0.11848650D+01  1  2  5  6  6  5       21 -.107240523919D-03 0.100000000000D+01
-.309878747684D-06 0.000000000000D+00 0.000000000000D+00 0.674674987952D-05 0.000000000000D+00  6 -2 2 25 23 3 -3 4 0.59825396D-02 0.24904012D+00 0.59509277D+05 0.59509277D+05 0.59509277D+05 0.11848650D+01  1  2  5  6  6  5       21 -.107240523919D-03 0.100000000000D+01
0.163586011477D-05 0.000000000000D+00 0.000000000000D+00 0.675725850110D-05 0.000000000000D+00  6 -2 2 25 23 2 -2 4 0.59825396D-02 0.24904012D+00 0.58223876D+05 0.58223876D+05 0.58223876D+05 0.11857874D+01  1  2 12  7  6  5       21 0.567960345936D-03 0.100000000000D+01
0.177020878519D-05 0.000000000000D+00 0.000000000000D+00 0.675725850110D-05 0.000000000000D+00  6 -2 2 25 23 2 -2 4 0.59825396D-02 0.24904012D+00 0.58223876D+05 0.58223876D+05 0.58223876D+05 0.11857874D+01  1  2 12  7  6  5       21 0.614605359553D-03 0.100000000000D+01
-.309878747684D-06 0.000000000000D+00 0.000000000000D+00 0.674674987952D-05 0.000000000000D+00  6 -2 2 25 23 2 -2 4 0.59825396D-02 0.24904012D+00 0.59509277D+05 0.59509277D+05 0.59509277D+05 0.11848650D+01  1  2  5  7  6  5       21 -.107240523919D-03 0.100000000000D+01
0.163586011477D-05 0.000000000000D+00 0.000000000000D+00 0.675725850110D-05 0.000000000000D+00  6 -2 2 25 23 4 -4 4 0.59825396D-02 0.24904012D+00 0.58223876D+05 0.58223876D+05 0.58223876D+05 0.11857874D+01  1  2 12  8  6  5       21 0.567960345936D-03 0.100000000000D+01
0.177020878519D-05 0.000000000000D+00 0.000000000000D+00 0.675725850110D-05 0.000000000000D+00  6 -2 2 25 23 4 -4 4 0.59825396D-02 0.24904012D+00 0.58223876D+05 0.58223876D+05 0.58223876D+05 0.11857874D+01  1  2 12  8  6  5       21 0.614605359553D-03 0.100000000000D+01
-.309878747684D-06 0.000000000000D+00 0.000000000000D+00 0.674674987952D-05 0.000000000000D+00  6 -2 2 25 23 4 -4 4 0.59825396D-02 0.24904012D+00 0.59509277D+05 0.59509277D+05 0.59509277D+05 0.11848650D+01  1  2  5  8  6  5       21 -.107240523919D-03 0.100000000000D+01
  </mgrwgt>
  </event>
  <event>
  5     66 0.42185105E-03 0.30084933E+02 0.75467711E-02 0.11378380E+00
       -2 -1    0    0    0  501 0.00000000E+00 0.00000000E+00 0.45669305E+02 0.45670426E+02 0.32000000E+00 0.0000E+00 0.9000E+01
        2 -1    0    0  502    0 0.00000000E+00 0.00000000E+00 -.14312035E+04 0.14312035E+04 0.32000000E+00 0.0000E+00 0.9000E+01
       25  1    1    2    0    0 0.16095190E+02 -.14459876E+03 -.25733422E+03 0.32095757E+03 0.12500000E+03 0.0000E+00 0.9000E+01
       23  1    1    2    0    0 -.31122960E+02 0.17066020E+03 -.70752619E+03 0.73416763E+03 0.91188000E+02 0.0000E+00 0.9000E+01
       21  1    1    2  502  501 0.15027770E+02 -.26061444E+02 -.42067378E+03 0.42174877E+03 0.75000000E+00 0.0000E+00 0.9000E+01
#aMCatNLO 1  0  0  1  5 0.13039498D+02 0.00000000D+00  -5  6  0 0.00000000D+00 0.00000000D+00 0.00000000D+00 0.00000000D+00 0.00000000D+00
  <mgrwgt>
 0.1785658085D+00    9    4    0
 0.255661736103912D+03 0.000000000000000D+00 0.000000000000000D+00 0.255661736103912D+03
 0.255661736103912D+03 0.000000000000000D+00 0.000000000000000D+00 -.255661736103912D+03
 0.229734688980289D+03 0.160948796659588D+02 -.144598219086846D+03 0.126433133340596D+03
 0.203337755106705D+03 -.311232346034544D+02 0.170660677176495D+03 -.541965759187138D+02
 0.782510281208305D+02 0.150283549374955D+02 -.260624580896491D+02 -.722365574218827D+02
 0.000000000000000D+00 -.000000000000000D+00 -.000000000000000D+00 0.000000000000000D+00
 0.269106235249696D+03 0.000000000000000D+00 0.000000000000000D+00 0.269106235249696D+03
 0.258926196297984D+03 0.000000000000000D+00 0.000000000000000D+00 -.258926196297984D+03
 0.226197993763854D+03 0.167936257255629D+02 -.138827840548866D+03 0.126433133340596D+03
 0.207628985952608D+03 -.304934017316033D+02 0.175861957436026D+03 -.541965759187138D+02
 0.776627286150107D+02 0.152673027630858D+02 -.240891812667871D+02 -.722365574218827D+02
 0.165427232162064D+02 -.156752675704537D+01 -.129449356203726D+02 0.101800389517118D+02
 0.255661736103912D+03 0.000000000000000D+00 0.000000000000000D+00 0.255661736103912D+03
 0.255661736103912D+03 0.000000000000000D+00 0.000000000000000D+00 -.255661736103912D+03
 0.229734688980289D+03 0.160948796659588D+02 -.144598219086846D+03 0.126433133340596D+03
 0.203337755106705D+03 -.311232346034544D+02 0.170660677176495D+03 -.541965759187138D+02
 0.000000000000000D+00 -.000000000000000D+00 -.000000000000000D+00 0.000000000000000D+00
 0.782510281208305D+02 0.150283549374955D+02 -.260624580896491D+02 -.722365574218827D+02
 0.269106235249696D+03 0.000000000000000D+00 0.000000000000000D+00 0.269106235249696D+03
 0.258926196297984D+03 0.000000000000000D+00 0.000000000000000D+00 -.258926196297984D+03
 0.226197993763854D+03 0.167936257255629D+02 -.138827840548866D+03 0.126433133340596D+03
 0.207628985952608D+03 -.304934017316033D+02 0.175861957436026D+03 -.541965759187138D+02
 0.165427232162064D+02 -.156752675704537D+01 -.129449356203726D+02 0.101800389517118D+02
 0.776627286150107D+02 0.152673027630858D+02 -.240891812667871D+02 -.722365574218827D+02
0.446871419171D-03 0.000000000000D+00 0.000000000000D+00 0.848249450092D-05 0.000000000000D+00  6 -2 2 25 23 21 21 2 0.70261359D-02 0.22018524D+00 0.43656177D+05 0.43656177D+05 0.43656177D+05 0.11981618D+01  1  2  2  1  6  1       -2 0.110719373311D+00 0.100000000000D+01
0.719266817898D-04 0.235820526700D-04 -.171610391356D-05 0.848249450092D-05 0.000000000000D+00  6 -2 2 25 23 21 21 4 0.70261359D-02 0.22018524D+00 0.43656177D+05 0.43656177D+05 0.43656177D+05 0.11981618D+01  1  2  3  1  6  1       -2 0.255836220721D-01 0.100000000000D+01
0.662494890881D-05 0.000000000000D+00 0.000000000000D+00 0.848249450092D-05 0.000000000000D+00  6 -2 2 25 23 21 21 4 0.70261359D-02 0.22018524D+00 0.43656177D+05 0.43656177D+05 0.43656177D+05 0.11981618D+01  1  2 15  1  6  1       -2 0.235642997720D-02 0.100000000000D+01
0.225861798874D-02 0.000000000000D+00 0.000000000000D+00 0.844856422244D-05 0.000000000000D+00  6 -2 2 25 23 21 21 4 0.75463878D-02 0.22018524D+00 0.46129159D+05 0.46129159D+05 0.46129159D+05 0.11957631D+01  1  2 12  1  6  1       -2 0.713242029624D+00 0.100000000000D+01
-.187270286000D-02 0.000000000000D+00 0.000000000000D+00 0.848249450092D-05 0.000000000000D+00  6 -2 2 25 23 21 21 4 0.70261359D-02 0.22018524D+00 0.43656177D+05 0.43656177D+05 0.43656177D+05 0.11981618D+01  1  2  4  1  6  1       -2 -.666102217305D+00 0.100000000000D+01
-.988270903952D-02 0.000000000000D+00 -.143031748273D-02 0.848249450092D-05 0.000000000000D+00  6 -2 2 25 23 21 21 4 0.74928283D-02 0.22018524D+00 0.43656177D+05 0.43656177D+05 0.43656177D+05 0.11981618D+01  1  2  5  1  6  1       -2 -.318168328676D+01 0.100000000000D+01
0.995704775779D-02 0.000000000000D+00 0.142736488558D-02 0.848249450092D-05 0.000000000000D+00  6 -2 2 25 23 21 21 4 0.70261359D-02 0.22018524D+00 0.43656177D+05 0.43656177D+05 0.43656177D+05 0.11981618D+01  1  2  6  1  6  1       -2 0.354162517233D+01 0.100000000000D+01
0.375578387148D-04 0.000000000000D+00 0.000000000000D+00 0.844856422244D-05 0.000000000000D+00  6 21 2 25 23 2 21 4 0.75463878D-02 0.22018524D+00 0.46129159D+05 0.46129159D+05 0.46129159D+05 0.11957631D+01  3  4 12  4  5  1       -2 0.193613175745D+00 0.100000000000D+01
-.106435330852D-03 0.000000000000D+00 -.157001527844D-04 0.848249450092D-05 0.000000000000D+00  6 21 2 25 23 2 21 4 0.74928283D-02 0.22018524D+00 0.43656177D+05 0.43656177D+05 0.43656177D+05 0.11981618D+01  3  4  5  4  5  1       -2 -.560788490462D+00 0.100000000000D+01
  </mgrwgt>
  </event>
  <event>
  5     66 -.42185105E-03 0.20427940E+03 0.75467711E-02 0.10919937E+00
       -2 -1    0    0    0  501 0.00000000E+00 0.00000000E+00 0.72259404E+03 0.72259411E+03 0.32000000E+00 0.0000E+00 0.9000E+01
        2 -1    0    0  502    0 0.00000000E+00 0.00000000E+00 -.54574993E+03 0.54575002E+03 0.32000000E+00 0.0000E+00 0.9000E+01
       25  1    1    2    0    0 0.11051154E+03 0.16370945E+03 0.64660814E+01 0.23383839E+03 0.12500000E+03 0.0000E+00 0.9000E+01
       23  1    1    2    0    0 0.59885087E+02 -.51037287E+02 -.40574193E+03 0.42324082E+03 0.91188000E+02 0.0000E+00 0.9000E+01
       21  1    1    2  502  501 -.17039663E+03 -.11267216E+03 0.57611996E+03 0.61126491E+03 0.75000000E+00 0.0000E+00 0.9000E+01
#aMCatNLO 1  0  0  1  2 0.20280808D+02 0.00000000D+00  -5  6  0 0.00000000D+00 0.00000000D+00 0.00000000D+00 0.00000000D+00 0.00000000D+00
  <mgrwgt>
 -.1131930014D+00    7    4    0
 0.627977505541102D+03 0.000000000000000D+00 0.000000000000000D+00 0.627977505541102D+03
 0.627977505541102D+03 0.000000000000000D+00 0.000000000000000D+00 -.627977505541102D+03
 0.235234632122909D+03 0.110511570060376D+03 0.163709470891198D+03 -.263957226329312D+02
 0.484546267779013D+03 0.598851514472201D+02 -.510372449036612D+02 -.469338686391137D+03
 0.536174111180282D+03 -.170396721507596D+03 -.112672225987537D+03 0.495734409024068D+03
 0.000000000000000D+00 0.000000000000000D+00 -.000000000000000D+00 0.000000000000000D+00
 0.665411869258983D+03 0.000000000000000D+00 0.000000000000000D+00 0.665411869258983D+03
 0.630812275167003D+03 0.000000000000000D+00 0.000000000000000D+00 -.630812275167003D+03
 0.237867217255136D+03 0.110423984544451D+03 0.167527975301782D+03 -.263957226329312D+02
 0.483763343176402D+03 0.597058879398754D+02 -.432218146213558D+02 -.469338686391137D+03
 0.534488184365530D+03 -.170594933604336D+03 -.104030685686729D+03 0.495734409024068D+03
 0.401053996289176D+02 0.465061120010013D+00 -.202754749936975D+02 0.345995940919801D+02
 0.627977505541102D+03 0.000000000000000D+00 0.000000000000000D+00 0.627977505541102D+03
 0.627977505541102D+03 0.000000000000000D+00 0.000000000000000D+00 -.627977505541102D+03
 0.235234632122909D+03 0.110511570060376D+03 0.163709470891198D+03 -.263957226329312D+02
 0.484546267779013D+03 0.598851514472201D+02 -.510372449036612D+02 -.469338686391137D+03
 0.000000000000000D+00 0.000000000000000D+00 -.000000000000000D+00 0.000000000000000D+00
 0.536174111180282D+03 -.170396721507596D+03 -.112672225987537D+03 0.495734409024068D+03
 0.665411869258983D+03 0.000000000000000D+00 0.000000000000000D+00 0.665411869258983D+03
 0.630812275167003D+03 0.000000000000000D+00 0.000000000000000D+00 -.630812275167003D+03
 0.237867217255136D+03 0.110423984544451D+03 0.167527975301782D+03 -.263957226329312D+02
 0.483763343176402D+03 0.597058879398754D+02 -.432218146213558D+02 -.469338686391137D+03
 0.401053996289176D+02 0.465061120010013D+00 -.202754749936975D+02 0.345995940919801D+02
 0.534488184365530D+03 -.170594933604336D+03 -.104030685686729D+03 0.495734409024068D+03
0.173179581443D-02 0.000000000000D+00 0.000000000000D+00 0.406932367471D-06 0.000000000000D+00  6 -2 2 25 23 21 21 2 0.11116833D+00 0.83961540D-01 0.77972308D+05 0.77972308D+05 0.77972308D+05 0.11736307D+01  1  2  2  1  6  1       -2 0.907669260903D-02 0.100000000000D+01
-.761817897468D-04 0.913893759089D-04 -.665055191973D-05 0.406932367471D-06 0.000000000000D+00  6 -2 2 25 23 21 21 4 0.11116833D+00 0.83961540D-01 0.77972308D+05 0.77972308D+05 0.77972308D+05 0.11736307D+01  1  2  3  1  6  1       -2 -.549977690166D-03 0.100000000000D+01
0.753378809237D-04 0.000000000000D+00 0.000000000000D+00 0.406932367471D-06 0.000000000000D+00  6 -2 2 25 23 21 21 4 0.11116833D+00 0.83961540D-01 0.77972308D+05 0.77972308D+05 0.77972308D+05 0.11736307D+01  1  2 15  1  6  1       -2 0.543885275867D-03 0.100000000000D+01
-.190843059933D-01 0.000000000000D+00 0.000000000000D+00 0.406932367471D-06 0.000000000000D+00  6 -2 2 25 23 21 21 4 0.11116833D+00 0.83961540D-01 0.77972308D+05 0.77972308D+05 0.77972308D+05 0.11736307D+01  1  2  4  1  6  1       -2 -.137774953352D+00 0.100000000000D+01
-.541548669302D-01 0.000000000000D+00 -.529046472745D-02 0.406932367471D-06 0.000000000000D+00  6 -2 2 25 23 21 21 4 0.11806313D+00 0.83961540D-01 0.77972308D+05 0.77972308D+05 0.77972308D+05 0.11736307D+01  1  2  5  1  6  1       -2 -.338369402429D+00 0.100000000000D+01
0.543842890397D-01 0.000000000000D+00 0.528090100863D-02 0.406932367471D-06 0.000000000000D+00  6 -2 2 25 23 21 21 4 0.11116833D+00 0.83961540D-01 0.77972308D+05 0.77972308D+05 0.77972308D+05 0.11736307D+01  1  2  6  1  6  1       -2 0.392615423801D+00 0.100000000000D+01
-.552838179042D-03 0.000000000000D+00 -.546576810103D-04 0.406932367471D-06 0.000000000000D+00  6 21 2 25 23 2 21 4 0.11806313D+00 0.83961540D-01 0.77972308D+05 0.77972308D+05 0.77972308D+05 0.11736307D+01  3  4  5  4  5  1       -2 -.387346695984D-01 0.100000000000D+01
  </mgrwgt>
  </event>
  <event>
  6     66 -.42185105E-03 0.18200453E+02 0.75467711E-02 0.12073758E+00
       -2 -1    0    0    0  501 0.00000000E+00 0.00000000E+00 0.10997890E+02 0.11002545E+02 0.32000000E+00 0.0000E+00 0.9000E+01
        2 -1    0    0  502    0 -.00000000E+00 -.00000000E+00 -.19320394E+04 0.19320394E+04 0.32000000E+00 0.0000E+00 0.9000E+01
       25  1    1    2    0    0 0.47471140E+02 0.39453282E+02 -.99838938E+03 0.10080756E+04 0.12500000E+03 0.0000E+00 0.9000E+01
       23  1    1    2    0    0 -.51511342E+02 -.30685747E+02 -.62433783E+03 0.63380440E+03 0.91188000E+02 0.0000E+00 0.9000E+01
       21  1    1    2  502  503 -.90318673E+01 0.12082232E+02 -.15642829E+03 0.15715574E+03 0.75000000E+00 0.0000E+00 0.9000E+01
       21  1    1    2  503  501 0.13072069E+02 -.20849768E+02 -.14188600E+03 0.14400622E+03 0.75000000E+00 0.0000E+00 0.9000E+01
#aMCatNLO 2  0  0  5  1 0.10681793D+02 0.00000000D+00  -5  6  0 0.00000000D+00 0.00000000D+00 0.00000000D+00 0.00000000D+00 0.00000000D+00
  <mgrwgt>
 -.5367592406D-01    2    2    0
 0.145783760048198D+03 0.000000000000000D+00 0.000000000000000D+00 0.145783760048198D+03
 0.145783760048198D+03 -.000000000000000D+00 -.000000000000000D+00 -.145783760048198D+03
 0.141989687042046D+03 0.412689086136532D+02 0.529125827708652D+02 -.576255088068882D+01
 0.110858709570204D+03 -.563753353821200D+02 -.201305209669129D+02 0.197733616192341D+02
 0.387191234841459D+02 0.151064267684668D+02 -.327820618039523D+02 -.140108107385454D+02
 0.000000000000000D+00 0.000000000000000D+00 0.000000000000000D+00 0.000000000000000D+00
 0.145783760048198D+03 0.000000000000000D+00 0.000000000000000D+00 0.145783760048198D+03
 0.145783760048198D+03 -.000000000000000D+00 -.000000000000000D+00 -.145783760048198D+03
 0.139943504040282D+03 0.471805111653618D+02 0.400839686200297D+02 -.112454056803680D+02
 0.110195911062432D+03 -.517402406123905D+02 -.301890189517326D+02 0.154744339794126D+02
 0.157864804026340D+02 -.858358355682110D+01 0.120897900566745D+02 -.541959714474722D+01
 0.256416245910486D+02 0.131433130038498D+02 -.219847397249716D+02 0.119056884570263D+01
-.358046731932D-04 0.000000000000D+00 0.000000000000D+00 0.100936338295D-04 0.000000000000D+00  6 -2 2 25 23 21 21 4 0.16923432D-02 0.29723719D+00 0.20885444D+05 0.20885444D+05 0.20885444D+05 0.12317602D+01  1  2 13  3  6  5       21 -.648797362183D-01 0.100000000000D+01
0.618296029063D-05 0.000000000000D+00 0.000000000000D+00 0.101044003948D-04 0.185698363371D-06  6 -2 2 25 23 21 21 4 0.16923432D-02 0.29723719D+00 0.20885444D+05 0.20885444D+05 0.20885444D+05 0.12317602D+01  1  2  1  3  6  5       21 0.112038121543D-01 0.100000000000D+01
  </mgrwgt>
  </event>
  <event>
  5     66 0.42185105E-03 0.22938128E+02 0.75467711E-02 0.10683127E+00
       -2 -1    0    0    0  501 0.00000000E+00 0.00000000E+00 0.35342744E+02 0.35344193E+02 0.32000000E+00 0.0000E+00 0.9000E+01
        2 -1    0    0  502    0 0.00000000E+00 0.00000000E+00 -.20182628E+04 0.20182628E+04 0.32000000E+00 0.0000E+00 0.9000E+01
       25  1    1    2    0    0 -.29137016E+01 0.20611406E+03 -.13891312E+04 0.14098943E+04 0.12500000E+03 0.0000E+00 0.9000E+01
       23  1    1    2    0    0 0.25383912E+02 -.20156314E+03 -.50330375E+03 0.55036530E+03 0.91188000E+02 0.0000E+00 0.9000E+01
       21  1    1    2  502  501 -.22470210E+02 -.45509251E+01 -.90485070E+02 0.93347371E+02 0.75000000E+00 0.0000E+00 0.9000E+01
#aMCatNLO 1  0  0  2  5 0.14969728D+03 0.00000000D+00  -5  6  0 0.00000000D+00 0.00000000D+00 0.00000000D+00 0.00000000D+00 0.00000000D+00
  <mgrwgt>
 0.9499162082D+00    7    4    0
 0.267081371552701D+03 0.000000000000000D+00 0.000000000000000D+00 0.267081371552701D+03
 0.267081371552701D+03 0.000000000000000D+00 0.000000000000000D+00 -.267081371552701D+03
 0.263652117463058D+03 -.290778903615584D+01 0.206115259209162D+03 -.106749631038309D+03
 0.247532844212676D+03 0.253894628684316D+02 -.201562012326945D+03 0.108098973084770D+03
 0.229777814296681D+02 -.224816738322757D+02 -.455324688221716D+01 -.134934204646105D+01
 0.000000000000000D+00 0.000000000000000D+00 -.000000000000000D+00 -.000000000000000D+00
 0.326814885894860D+03 0.000000000000000D+00 0.000000000000000D+00 0.326814885894860D+03
 0.419110267491186D+03 0.000000000000000D+00 0.000000000000000D+00 -.419110267491186D+03
 0.325352452614577D+03 -.578692313287787D+02 0.274745130549972D+03 -.106749631038309D+03
 0.205927978267984D+03 -.169240642124383D+02 -.148725481872107D+03 0.108098973084770D+03
 0.272311901088896D+02 -.271667945121113D+02 0.129702225303152D+01 -.134934204646105D+01
 0.187413532394596D+03 0.101960090053328D+03 -.127316670930896D+03 -.922953815963255D+02
 0.267081371552701D+03 0.000000000000000D+00 0.000000000000000D+00 0.267081371552701D+03
 0.267081371552701D+03 0.000000000000000D+00 0.000000000000000D+00 -.267081371552701D+03
 0.263652117463058D+03 -.290778903615584D+01 0.206115259209162D+03 -.106749631038309D+03
 0.247532844212676D+03 0.253894628684316D+02 -.201562012326945D+03 0.108098973084770D+03
 0.000000000000000D+00 0.000000000000000D+00 -.000000000000000D+00 -.000000000000000D+00
 0.229777814296681D+02 -.224816738322757D+02 -.455324688221716D+01 -.134934204646105D+01
 0.326814885894860D+03 0.000000000000000D+00 0.000000000000000D+00 0.326814885894860D+03
 0.419110267491186D+03 0.000000000000000D+00 0.000000000000000D+00 -.419110267491186D+03
 0.325352452614577D+03 -.578692313287787D+02 0.274745130549972D+03 -.106749631038309D+03
 0.205927978267984D+03 -.169240642124383D+02 -.148725481872107D+03 0.108098973084770D+03
 0.187413532394596D+03 0.101960090053328D+03 -.127316670930896D+03 -.922953815963255D+02
 0.272311901088896D+02 -.271667945121113D+02 0.129702225303152D+01 -.134934204646105D+01
0.173177147657D-02 0.000000000000D+00 0.000000000000D+00 0.124571230593D-04 0.000000000000D+00  6 -2 2 25 23 21 21 2 0.54374586D-02 0.31050208D+00 0.59217853D+05 0.59217853D+05 0.59217853D+05 0.11850722D+01  1  2  2  2  6  2        2 0.305239441790D+00 0.100000000000D+01
0.727180543519D-03 0.913880915647D-04 -.665045845594D-05 0.124571230593D-04 0.000000000000D+00  6 -2 2 25 23 21 21 4 0.54374586D-02 0.31050208D+00 0.59217853D+05 0.59217853D+05 0.59217853D+05 0.11850722D+01  1  2  3  2  6  2        2 0.180003904694D+00 0.100000000000D+01
0.350722424445D-05 0.000000000000D+00 0.000000000000D+00 0.124571230593D-04 0.000000000000D+00  6 -2 2 25 23 21 21 4 0.54374586D-02 0.31050208D+00 0.59217853D+05 0.59217853D+05 0.59217853D+05 0.11850722D+01  1  2 15  2  6  2        2 0.868166873087D-03 0.100000000000D+01
-.110875643273D-03 0.000000000000D+00 0.000000000000D+00 0.124571230593D-04 0.000000000000D+00  6 -2 2 25 23 21 21 4 0.54374586D-02 0.31050208D+00 0.59217853D+05 0.59217853D+05 0.59217853D+05 0.11850722D+01  1  2  4  2  6  2        2 -.274457958239D-01 0.100000000000D+01
-.201148290973D-02 0.000000000000D+00 -.101442486235D-02 0.124571230593D-04 0.000000000000D+00  6 -2 2 25 23 21 21 4 0.54374586D-02 0.51615844D+00 0.59217853D+05 0.59217853D+05 0.59217853D+05 0.11850722D+01  1  2  5  2  6  2        2 -.869806471101D-01 0.100000000000D+01
0.233693061923D-02 0.000000000000D+00 0.896175260591D-03 0.124571230593D-04 0.000000000000D+00  6 -2 2 25 23 21 21 4 0.54374586D-02 0.31050208D+00 0.59217853D+05 0.59217853D+05 0.59217853D+05 0.11850722D+01  1  2  6  2  6  2        2 0.578476198528D+00 0.100000000000D+01
-.682974315394D-04 0.000000000000D+00 -.579430404897D-04 0.124571230593D-04 0.000000000000D+00  6 -2 21 25 23 -2 21 4 0.54374586D-02 0.51615844D+00 0.59217853D+05 0.59217853D+05 0.59217853D+05 0.11850722D+01  3  4  5  5  5  2        2 -.245060780355D-03 0.100000000000D+01
  </mgrwgt>
  </event>
  <event>
  5     66 0.42185105E-03 0.70418604E+02 0.75467711E-02 0.10147784E+00
       -2 -1    0    0    0  501 0.00000000E+00 0.00000000E+00 0.39703832E+03 0.39703845E+03 0.32000000E+00 0.0000E+00 0.9000E+01
        2 -1    0    0  502    0 0.00000000E+00 0.00000000E+00 -.73983258E+03 0.73983265E+03 0.32000000E+00 0.0000E+00 0.9000E+01
       25  1    1    2    0    0 0.43015694E+03 -.48094487E+02 -.21182879E+03 0.49783984E+03 0.12500000E+03 0.0000E+00 0.9000E+01
       23  1    1    2    0    0 -.44878284E+03 -.19815186E+02 0.34022480E+02 0.45964275E+03 0.91188000E+02 0.0000E+00 0.9000E+01
       21  1    1    2  502  501 0.18625901E+02 0.67909673E+02 -.16498795E+03 0.17938850E+03 0.75000000E+00 0.0000E+00 0.9000E+01
#aMCatNLO 1  0  0  2  5 0.12414096D+02 0.00000000D+00  -5  6  0 0.00000000D+00 0.00000000D+00 0.00000000D+00 0.00000000D+00 0.00000000D+00
  <mgrwgt>
 0.1976828227D+01    9    4    0
 0.541979701872738D+03 0.000000000000000D+00 0.000000000000000D+00 0.541979701872738D+03
 0.541979701872738D+03 0.000000000000000D+00 0.000000000000000D+00 -.541979701872738D+03
 0.455151592040540D+03 0.430156821229352D+03 -.480949207565943D+02 -.647298963718753D+02
 0.492839250669975D+03 -.448782969733042D+03 -.198156558939508D+02 0.181042706332031D+03
 0.135968561034963D+03 0.186261485036897D+02 0.679105766505451D+02 -.116312809960156D+03
 0.000000000000000D+00 -.000000000000000D+00 -.000000000000000D+00 -.000000000000000D+00
 0.542197097297284D+03 0.000000000000000D+00 0.000000000000000D+00 0.542197097297284D+03
 0.753875231262605D+03 0.000000000000000D+00 0.000000000000000D+00 -.753875231262605D+03
 0.456851495288629D+03 0.432451646571162D+03 -.434039472978429D+02 -.647298963718753D+02
 0.490409144197642D+03 -.446308873575711D+03 -.147582255104733D+02 0.181042706332031D+03
 0.136769848438006D+03 0.193124258008163D+02 0.693134322524560D+02 -.116312809960156D+03
 0.212041840635611D+03 -.545519879626733D+01 -.111512594441398D+02 -.211678133965321D+03
 0.541979701872738D+03 0.000000000000000D+00 0.000000000000000D+00 0.541979701872738D+03
 0.541979701872738D+03 0.000000000000000D+00 0.000000000000000D+00 -.541979701872738D+03
 0.455151592040540D+03 0.430156821229352D+03 -.480949207565943D+02 -.647298963718753D+02
 0.492839250669975D+03 -.448782969733042D+03 -.198156558939508D+02 0.181042706332031D+03
 0.000000000000000D+00 -.000000000000000D+00 -.000000000000000D+00 -.000000000000000D+00
 0.135968561034963D+03 0.186261485036897D+02 0.679105766505451D+02 -.116312809960156D+03
 0.542197097297284D+03 0.000000000000000D+00 0.000000000000000D+00 0.542197097297284D+03
 0.753875231262605D+03 0.000000000000000D+00 0.000000000000000D+00 -.753875231262605D+03
 0.456851495288629D+03 0.432451646571162D+03 -.434039472978429D+02 -.647298963718753D+02
 0.490409144197642D+03 -.446308873575711D+03 -.147582255104733D+02 0.181042706332031D+03
 0.212041840635611D+03 -.545519879626733D+01 -.111512594441398D+02 -.211678133965321D+03
 0.136769848438006D+03 0.193124258008163D+02 0.693134322524560D+02 -.116312809960156D+03
0.161161147436D-02 0.000000000000D+00 0.000000000000D+00 0.126293192124D-05 0.000000000000D+00  6 -2 2 25 23 21 21 2 0.61082834D-01 0.11382041D+00 0.23976979D+06 0.23976979D+06 0.23976979D+06 0.11302158D+01  1  2  2  2  6  2        2 0.202380104677D-01 0.100000000000D+01
0.285943368876D-03 0.850470740383D-04 -.618901240858D-05 0.126293192124D-05 0.000000000000D+00  6 -2 2 25 23 21 21 4 0.61082834D-01 0.11382041D+00 0.23976979D+06 0.23976979D+06 0.23976979D+06 0.11302158D+01  1  2  3  2  6  2        2 0.458680426281D-02 0.100000000000D+01
0.386610639923D-04 0.000000000000D+00 0.000000000000D+00 0.126293192124D-05 0.000000000000D+00  6 -2 2 25 23 21 21 4 0.61082834D-01 0.11382041D+00 0.23976979D+06 0.23976979D+06 0.23976979D+06 0.11302158D+01  1  2 15  2  6  2        2 0.620160326927D-03 0.100000000000D+01
0.647666463216D+00 0.000000000000D+00 0.000000000000D+00 0.126077705075D-05 0.000000000000D+00  6 -2 2 25 23 21 21 4 0.61082834D-01 0.15976138D+00 0.24620376D+06 0.24620376D+06 0.24620376D+06 0.11292511D+01  1  2 12  2  6  2        2 0.651689255232D+01 0.100000000000D+01
-.493264473617D+00 0.000000000000D+00 0.000000000000D+00 0.126293192124D-05 0.000000000000D+00  6 -2 2 25 23 21 21 4 0.61082834D-01 0.11382041D+00 0.23976979D+06 0.23976979D+06 0.23976979D+06 0.11302158D+01  1  2  4  2  6  2        2 -.791243244831D+01 0.100000000000D+01
-.674148629074D+00 0.000000000000D+00 -.160243536142D-02 0.126293192124D-05 0.000000000000D+00  6 -2 2 25 23 21 21 4 0.61082834D-01 0.15834273D+00 0.23976979D+06 0.23976979D+06 0.23976979D+06 0.11302158D+01  1  2  5  2  6  2        2 -.690243062334D+01 0.100000000000D+01
0.639588313973D+00 0.000000000000D+00 0.151890617286D-02 0.126293192124D-05 0.000000000000D+00  6 -2 2 25 23 21 21 4 0.61082834D-01 0.11382041D+00 0.23976979D+06 0.23976979D+06 0.23976979D+06 0.11302158D+01  1  2  6  2  6  2        2 0.102596063567D+02 0.100000000000D+01
0.273449906239D-01 0.000000000000D+00 0.000000000000D+00 0.126077705075D-05 0.000000000000D+00  6 -2 21 25 23 -2 21 4 0.61082834D-01 0.15976138D+00 0.24620376D+06 0.24620376D+06 0.24620376D+06 0.11292511D+01  3  4 12  5  5  2        2 0.201249019086D+00 0.100000000000D+01
-.278801051152D-01 0.000000000000D+00 -.663691677831D-04 0.126293192124D-05 0.000000000000D+00  6 -2 21 25 23 -2 21 4 0.61082834D-01 0.15834273D+00 0.23976979D+06 0.23976979D+06 0.23976979D+06 0.11302158D+01  3  4  5  5  5  2        2 -.211501604059D+00 0.100000000000D+01
  </mgrwgt>
  </event>
  <event>
  6     66 -.42185105E-03 0.75890226E+01 0.75467711E-02 0.11850422E+00
       -2 -1    0    0    0  501 0.00000000E+00 0.00000000E+00 0.39725878E+02 0.39727167E+02 0.32000000E+00 0.0000E+00 0.9000E+01
        2 -1    0    0  502    0 -.00000000E+00 -.00000000E+00 -.97903578E+03 0.97903583E+03 0.32000000E+00 0.0000E+00 0.9000E+01
       25  1    1    2    0    0 0.98074055E+02 0.19551696E+02 -.19879939E+03 0.25523908E+03 0.12500000E+03 0.0000E+00 0.9000E+01
       23  1    1    2    0    0 -.10830139E+03 -.10257723E+02 -.55978247E+03 0.57749985E+03 0.91188000E+02 0.0000E+00 0.9000E+01
       21  1    1    2  503  501 0.27386491E+01 -.11650863E+02 -.17681305E+03 0.17721924E+03 0.75000000E+00 0.0000E+00 0.9000E+01
       21  1    1    2  502  503 0.74886847E+01 0.23568906E+01 -.39149906E+01 0.88048273E+01 0.75000000E+00 0.0000E+00 0.9000E+01
#aMCatNLO 2  0  0  5  1 0.11591666D+02 0.00000000D+00  -5  6  0 0.00000000D+00 0.00000000D+00 0.00000000D+00 0.00000000D+00 0.00000000D+00
  <mgrwgt>
 -.2253802037D+00    2    2    0
 0.197214956123222D+03 0.000000000000000D+00 0.000000000000000D+00 0.197214956123222D+03
 0.197214956123222D+03 -.000000000000000D+00 -.000000000000000D+00 -.197214956123222D+03
 0.189195826669369D+03 0.939686291065787D+02 0.232824545681136D+02 0.103912871590673D+03
 0.157369753367424D+03 -.111759554567230D+03 -.711515510647974D+01 -.625233113460015D+02
 0.478643322096515D+02 0.177909254606511D+02 -.161672994616339D+02 -.413895602446715D+02
 0.000000000000000D+00 0.000000000000000D+00 0.000000000000000D+00 0.000000000000000D+00
 0.197214956123222D+03 0.000000000000000D+00 0.000000000000000D+00 0.197214956123222D+03
 0.197214956123222D+03 -.000000000000000D+00 -.000000000000000D+00 -.197214956123222D+03
 0.185748494762248D+03 0.981728636759483D+02 0.194619046231270D+02 0.941319627573175D+02
 0.158557959663864D+03 -.108217070692620D+03 -.103343466974679D+02 -.707646954194849D+02
 0.363533299839123D+02 0.217947261033941D+01 -.114901068334335D+02 -.344208068617846D+02
 0.137701278364198D+02 0.786473440633232D+01 0.236254890777439D+01 0.110535395239520D+02
-.246768222825D-03 0.000000000000D+00 0.000000000000D+00 0.141752605009D-04 0.000000000000D+00  6 -2 2 25 23 21 21 4 0.61117767D-02 0.15062099D+00 0.25909384D+05 0.25909384D+05 0.25909384D+05 0.12216375D+01  1  2 13  3  6  5       21 -.210764462234D+00 0.100000000000D+01
-.171800432985D-04 0.000000000000D+00 0.000000000000D+00 0.141445783688D-04 0.000000000000D+00  6 -2 2 25 23 21 21 4 0.61117767D-02 0.15062099D+00 0.26660489D+05 0.26660489D+05 0.26660489D+05 0.12203147D+01  1  2  8  3  6  5       21 -.146157414923D-01 0.100000000000D+01
  </mgrwgt>
  </event>
  <event>
  5     66 0.42185105E-03 0.42326202E+02 0.75467711E-02 0.12102621E+00
       -4 -1    0    0    0  501 0.00000000E+00 0.00000000E+00 0.34393081E+03 0.34393431E+03 0.15500000E+01 0.0000E+00 0.9000E+01
        4 -1    0    0  502    0 0.00000000E+00 0.00000000E+00 -.87203605E+02 0.87217379E+02 0.15500000E+01 0.0000E+00 0.9000E+01
       25  1    1    2    0    0 0.49789542E+02 -.57946232E+01 0.15803358E+03 0.20763474E+03 0.12500000E+03 0.0000E+00 0.9000E+01
       23  1    1    2    0    0 -.13341051E+02 -.15719293E+02 -.21634261E+02 0.95960265E+02 0.91188000E+02 0.0000E+00 0.9000E+01
       21  1    1    2  502  501 -.36448491E+02 0.21513916E+02 0.12032790E+03 0.12755668E+03 0.75000000E+00 0.0000E+00 0.9000E+01
#aMCatNLO 1  0  0  1  2 0.12983591D+02 0.00000000D+00  -5  6  0 0.00000000D+00 0.00000000D+00 0.00000000D+00 0.00000000D+00 0.00000000D+00
  <mgrwgt>
 0.5915449435D-02    4    2    0
 0.173192751452713D+03 0.000000000000000D+00 0.000000000000000D+00 0.173192751452713D+03
 0.173192751452713D+03 0.000000000000000D+00 0.000000000000000D+00 -.173192751452713D+03
 0.141318058375349D+03 0.497904058377353D+02 -.579513300242088D+01 0.428150153915223D+02
 0.135478647302284D+03 -.133402231392591D+02 -.157197812947408D+02 -.980517182587683D+02
 0.695887972277933D+02 -.364501826984763D+02 0.215149142971617D+02 0.552367028672460D+02
 0.000000000000000D+00 0.000000000000000D+00 0.000000000000000D+00 -.000000000000000D+00
 0.174385071859783D+03 0.000000000000000D+00 0.000000000000000D+00 0.174385071859783D+03
 0.212675104216478D+03 0.000000000000000D+00 0.000000000000000D+00 -.212675104216478D+03
 0.139789681484225D+03 0.449546081827291D+02 -.788116169242189D+01 0.428150153915223D+02
 0.136266308690935D+03 -.180149561139122D+02 -.177363311586759D+02 -.980517182587683D+02
 0.705727597385035D+02 -.388613327039447D+02 0.204748112063932D+02 0.552367028672460D+02
 0.404314261625974D+02 0.119216806351278D+02 0.514268164470463D+01 -.382900323566957D+02
0.156077617829D-03 0.000000000000D+00 0.000000000000D+00 0.588953952854D-05 0.000000000000D+00  6 -4 4 25 23 21 21 2 0.52913761D-01 0.13417267D-01 0.18291489D+05 0.18291489D+05 0.18291489D+05 0.12381185D+01  1  2  2  1  6  1       -4 0.630045004988D-02 0.100000000000D+01
0.932452534191D-06 0.823644217628D-05 -.599379148642D-06 0.588953952854D-05 0.000000000000D+00  6 -4 4 25 23 21 21 4 0.52913761D-01 0.13417267D-01 0.18291489D+05 0.18291489D+05 0.18291489D+05 0.12381185D+01  1  2  3  1  6  1       -4 0.577008330088D-04 0.100000000000D+01
0.702452852004D-05 0.000000000000D+00 0.000000000000D+00 0.588953952854D-05 0.000000000000D+00  6 -4 4 25 23 21 21 4 0.52913761D-01 0.13417267D-01 0.18291489D+05 0.18291489D+05 0.18291489D+05 0.12381185D+01  1  2 15  1  6  1       -4 0.434682873646D-03 0.100000000000D+01
-.141786381808D-04 0.000000000000D+00 0.000000000000D+00 0.588953952854D-05 0.000000000000D+00  6 -4 4 25 23 21 21 4 0.52913761D-01 0.13417267D-01 0.18291489D+05 0.18291489D+05 0.18291489D+05 0.12381185D+01  1  2  4  1  6  1       -4 -.877384321417D-03 0.100000000000D+01
  </mgrwgt>
  </event>
  <event>
  6     66 0.42185105E-03 0.15872718E+02 0.75467711E-02 0.11921917E+00
       -2 -1    0    0    0  501 0.00000000E+00 0.00000000E+00 0.16947783E+02 0.16950804E+02 0.32000000E+00 0.0000E+00 0.9000E+01
        2 -1    0    0  502    0 -.00000000E+00 -.00000000E+00 -.19119883E+04 0.19119884E+04 0.32000000E+00 0.0000E+00 0.9000E+01
       25  1    1    2    0    0 0.63384729E+02 0.56120153E+02 -.80546231E+03 0.81948864E+03 0.12500000E+03 0.0000E+00 0.9000E+01
       23  1    1    2    0    0 -.60087576E+02 -.69355665E+02 -.99850444E+03 0.10068501E+04 0.91188000E+02 0.0000E+00 0.9000E+01
       21  1    1    2  503  501 -.14516127E+02 0.16043306E+02 -.16732907E+02 0.27361621E+02 0.75000000E+00 0.0000E+00 0.9000E+01
       21  1    1    2  502  503 0.11218975E+02 -.28077943E+01 -.74340899E+02 0.75238826E+02 0.75000000E+00 0.0000E+00 0.9000E+01
#aMCatNLO 2  0  0  5  1 0.99049822D+01 0.00000000D+00  -5  6  0 0.00000000D+00 0.00000000D+00 0.00000000D+00 0.00000000D+00 0.00000000D+00
  <mgrwgt>
 0.6621998203D-01    1    2    0
 0.180019173274245D+03 0.000000000000000D+00 0.000000000000000D+00 0.180019173274245D+03
 0.180019173274245D+03 -.000000000000000D+00 -.000000000000000D+00 -.180019173274245D+03
 0.150776174814294D+03 0.638174517572439D+02 0.543831045781838D+02 -.884678920743067D+01
 0.141774131262900D+03 -.596853419103964D+02 -.709703244521279D+02 -.564404638495190D+02
 0.674880404712950D+02 -.413210984684747D+01 0.165872198739441D+02 0.652872530569496D+02
 0.000000000000000D+00 0.000000000000000D+00 0.000000000000000D+00 0.000000000000000D+00
 0.180019173274245D+03 0.000000000000000D+00 0.000000000000000D+00 0.180019173274245D+03
 0.180019173274245D+03 -.000000000000000D+00 -.000000000000000D+00 -.180019173274245D+03
 0.150989856981005D+03 0.633778523721796D+02 0.561477555499083D+02 -.190112770274754D+01
 0.138678605428437D+03 -.600938930314608D+02 -.693303082071555D+02 -.499853642959635D+02
 0.583672922798641D+02 -.147198209653222D+02 0.160334058645958D+02 0.541571562696297D+02
 0.120025918591841D+02 0.114358616246033D+02 -.285085320734864D+01 -.227066427091878D+01
0.686442391494D-04 0.000000000000D+00 0.000000000000D+00 0.366379222080D-04 0.620635644911D-06  6 -2 2 25 23 21 21 4 0.26075857D-02 0.29415229D+00 0.24631157D+05 0.24631157D+05 0.24631157D+05 0.12239903D+01  1  2  1  3  6  5       21 0.662199820318D-01 0.100000000000D+01
  </mgrwgt>
  </event>
  <event>
  6     66 0.42185105E-03 0.54678687E+02 0.75467711E-02 0.11981120E+00
       -2 -1    0    0    0  501 0.00000000E+00 0.00000000E+00 0.21225153E+02 0.21227566E+02 0.32000000E+00 0.0000E+00 0.9000E+01
        2 -1    0    0  502    0 -.00000000E+00 -.00000000E+00 -.22145889E+04 0.22145889E+04 0.32000000E+00 0.0000E+00 0.9000E+01
       25  1    1    2    0    0 -.83670552E+01 -.54408361E+02 -.75292899E+03 0.76521718E+03 0.12500000E+03 0.0000E+00 0.9000E+01
       23  1    1    2    0    0 -.82274160E+01 0.94455373E+01 -.13036377E+04 0.13068831E+04 0.91188000E+02 0.0000E+00 0.9000E+01
        3  1    1    2  502    0 0.19656974E+02 0.58270611E+02 -.60726620E+02 0.86428196E+02 0.50000000E+00 0.0000E+00 0.9000E+01
       -3  1    1    2    0  501 -.30625026E+01 -.13307787E+02 -.76070436E+02 0.77288016E+02 0.50000000E+00 0.0000E+00 0.9000E+01
#aMCatNLO 2  0  0  5  2 0.12325365D+02 0.00000000D+00  -5  6  0 0.00000000D+00 0.00000000D+00 0.00000000D+00 0.00000000D+00 0.00000000D+00
  <mgrwgt>
 0.4224045599D-03    1    2    0
 0.216812617907704D+03 0.000000000000000D+00 0.000000000000000D+00 0.216812617907704D+03
 0.216812617907704D+03 -.000000000000000D+00 -.000000000000000D+00 -.216812617907704D+03
 0.138695917902415D+03 -.920339208233420D+01 -.566744209857412D+02 -.177444420285160D+02
 0.149417869598997D+03 -.911837811569825D+01 0.703146989692299D+01 -.117804337879089D+03
 0.145511448313996D+03 0.183217701980324D+02 0.496429510888182D+02 0.135548779907605D+03
 0.000000000000000D+00 0.000000000000000D+00 -.000000000000000D+00 0.000000000000000D+00
 0.216812617907704D+03 0.000000000000000D+00 0.000000000000000D+00 0.216812617907704D+03
 0.216812617907704D+03 -.000000000000000D+00 -.000000000000000D+00 -.216812617907704D+03
 0.137066689386684D+03 -.836381117202533D+01 -.543995712515139D+02 -.115330243109034D+02
 0.144343140207403D+03 -.822399965572109D+01 0.945479393513775D+01 -.111187514956675D+03
 0.138440651091595D+03 0.196633090846812D+02 0.583094797347314D+02 0.124012792580322D+03
 0.137747551297255D+02 -.307549825693482D+01 -.133647024183552D+02 -.129225331274415D+01
0.865509635756D-06 0.000000000000D+00 0.000000000000D+00 0.666960127761D-05 0.910243362025D-09  6 -2 2 25 23 3 -3 4 0.32655955D-02 0.34070617D+00 0.23085050D+05 0.23085050D+05 0.23085050D+05 0.12270257D+01  1  2  1  6  6  5       21 0.422404559857D-03 0.100000000000D+01
  </mgrwgt>
  </event>
  <event>
  5     66 0.42185105E-03 0.30736988E+02 0.75467711E-02 0.11029803E+00
       -2 -1    0    0    0  501 0.00000000E+00 0.00000000E+00 0.57803633E+02 0.57804519E+02 0.32000000E+00 0.0000E+00 0.9000E+01
        2 -1    0    0  502    0 0.00000000E+00 0.00000000E+00 -.51054319E+03 0.51054329E+03 0.32000000E+00 0.0000E+00 0.9000E+01
       25  1    1    2    0    0 -.72589378E+02 0.44429793E+02 -.22455126E+03 0.27072402E+03 0.12500000E+03 0.0000E+00 0.9000E+01
       23  1    1    2    0    0 0.80803393E+02 -.14813170E+02 -.80522360E+02 0.14679142E+03 0.91188000E+02 0.0000E+00 0.9000E+01
       21  1    1    2  502  501 -.82140144E+01 -.29616623E+02 -.14766594E+03 0.15083238E+03 0.75000000E+00 0.0000E+00 0.9000E+01
#aMCatNLO 1  0  0  1  2 0.18658883D+03 0.00000000D+00  -5  6  0 0.00000000D+00 0.00000000D+00 0.00000000D+00 0.00000000D+00 0.00000000D+00
  <mgrwgt>
 0.8689507204D-01    5    4    0
 0.171789206933948D+03 0.000000000000000D+00 0.000000000000000D+00 0.171789206933948D+03
 0.171789206933948D+03 0.000000000000000D+00 0.000000000000000D+00 -.171789206933948D+03
 0.151936693586220D+03 -.725890397097335D+02 0.444310146121396D+02 -.147130932324763D+02
 0.136717551524138D+03 0.808036975500153D+02 -.148120712152796D+02 0.602312423856123D+02
 0.549241687575372D+02 -.821465784028180D+01 -.296189433968600D+02 -.455181491531360D+02
 0.000000000000000D+00 0.000000000000000D+00 -.000000000000000D+00 0.000000000000000D+00
 0.314784236897500D+03 0.000000000000000D+00 0.000000000000000D+00 0.314784236897500D+03
 0.268447214516835D+03 0.000000000000000D+00 0.000000000000000D+00 -.268447214516835D+03
 0.214593553947026D+03 -.123259199082479D+03 0.122540149031627D+03 -.147130932324763D+02
 0.124947248418597D+03 0.446304288919267D+02 0.409497961043378D+02 0.602312423856123D+02
 0.514342827792240D+02 -.229179455669441D+02 -.695351088851037D+01 -.455181491531360D+02
 0.192256366269488D+03 0.101546715757496D+03 -.156536434247455D+03 0.463370223806649D+02
 0.171789206933948D+03 0.000000000000000D+00 0.000000000000000D+00 0.171789206933948D+03
 0.171789206933948D+03 0.000000000000000D+00 0.000000000000000D+00 -.171789206933948D+03
 0.151936693586220D+03 -.725890397097335D+02 0.444310146121396D+02 -.147130932324763D+02
 0.136717551524138D+03 0.808036975500153D+02 -.148120712152796D+02 0.602312423856123D+02
 0.000000000000000D+00 0.000000000000000D+00 -.000000000000000D+00 0.000000000000000D+00
 0.549241687575372D+02 -.821465784028180D+01 -.296189433968600D+02 -.455181491531360D+02
 0.314784236897500D+03 0.000000000000000D+00 0.000000000000000D+00 0.314784236897500D+03
 0.268447214516835D+03 0.000000000000000D+00 0.000000000000000D+00 -.268447214516835D+03
 0.214593553947026D+03 -.123259199082479D+03 0.122540149031627D+03 -.147130932324763D+02
 0.124947248418597D+03 0.446304288919267D+02 0.409497961043378D+02 0.602312423856123D+02
 0.192256366269488D+03 0.101546715757496D+03 -.156536434247455D+03 0.463370223806649D+02
 0.514342827792240D+02 -.229179455669441D+02 -.695351088851037D+01 -.455181491531360D+02
0.859885171945D-04 0.000000000000D+00 0.000000000000D+00 0.119772818672D-04 0.000000000000D+00  6 -2 2 25 23 21 21 2 0.88929425D-02 0.78545183D-01 0.23209706D+05 0.23209706D+05 0.23209706D+05 0.12267726D+01  1  2  2  1  6  1       -2 0.611225134926D-01 0.100000000000D+01
0.856628522776D-05 0.453773871968D-05 -.330218547323D-06 0.119772818672D-04 0.000000000000D+00  6 -2 2 25 23 21 21 4 0.88929425D-02 0.78545183D-01 0.23209706D+05 0.23209706D+05 0.23209706D+05 0.12267726D+01  1  2  3  1  6  1       -2 0.916392293323D-02 0.100000000000D+01
0.439605455508D-05 0.000000000000D+00 0.000000000000D+00 0.119772818672D-04 0.000000000000D+00  6 -2 2 25 23 21 21 4 0.88929425D-02 0.78545183D-01 0.23209706D+05 0.23209706D+05 0.23209706D+05 0.12267726D+01  1  2 15  1  6  1       -2 0.470275085197D-02 0.100000000000D+01
0.119907856958D-04 0.000000000000D+00 -.420628583519D-04 0.119772818672D-04 0.000000000000D+00  6 -2 2 25 23 21 21 4 0.25253351D-01 0.78545183D-01 0.23209706D+05 0.23209706D+05 0.23209706D+05 0.12267726D+01  1  2  5  1  6  1       -2 0.230540915209D-02 0.100000000000D+01
0.371159975254D-05 0.000000000000D+00 -.494322752195D-05 0.119772818672D-04 0.000000000000D+00  6 21 2 25 23 2 21 4 0.25253351D-01 0.78545183D-01 0.23209706D+05 0.23209706D+05 0.23209706D+05 0.12267726D+01  3  4  5  4  5  1       -2 0.960047560735D-02 0.100000000000D+01
  </mgrwgt>
  </event>
  <event>
  5     66 -.42185105E-03 0.45747789E+02 0.75467711E-02 0.11763829E+00
       -2 -1    0    0    0  501 0.00000000E+00 0.00000000E+00 0.61408338E+02 0.61409172E+02 0.32000000E+00 0.0000E+00 0.9000E+01
        2 -1    0    0  502    0 0.00000000E+00 0.00000000E+00 -.79598644E+03 0.79598651E+03 0.32000000E+00 0.0000E+00 0.9000E+01
       25  1    1    2    0    0 0.80668454E+02 0.88627709E+00 -.48545276E+03 0.50773769E+03 0.12500000E+03 0.0000E+00 0.9000E+01
       23  1    1    2    0    0 -.47256481E+02 -.32134711E+02 -.27624810E+03 0.29646936E+03 0.91188000E+02 0.0000E+00 0.9000E+01
       21  1    1    2  502  501 -.33411973E+02 0.31248434E+02 0.27122750E+02 0.53188632E+02 0.75000000E+00 0.0000E+00 0.9000E+01
#aMCatNLO 1  0  0  1  5 0.34484932D+02 0.00000000D+00  -5  6  0 0.00000000D+00 0.00000000D+00 0.00000000D+00 0.00000000D+00 0.00000000D+00
  <mgrwgt>
 -.2062436942D-01    7    4    0
 0.221089550799787D+03 0.000000000000000D+00 0.000000000000000D+00 0.221089550799787D+03
 0.221089550799787D+03 0.000000000000000D+00 0.000000000000000D+00 -.221089550799787D+03
 0.178048549533033D+03 0.806686263003865D+02 0.886115942776478D+00 -.978165298922498D+02
 0.115939014102870D+03 -.472563689680648D+02 -.321348156669732D+02 -.431369083401813D+02
 0.148191537963671D+03 -.334122573323218D+02 0.312486997241967D+02 0.140953438232431D+03
 0.000000000000000D+00 -.000000000000000D+00 -.000000000000000D+00 0.000000000000000D+00
 0.263641909018672D+03 0.000000000000000D+00 0.000000000000000D+00 0.263641909018672D+03
 0.228859633372393D+03 0.000000000000000D+00 0.000000000000000D+00 -.228859633372393D+03
 0.179891345086359D+03 0.834030638379096D+02 0.145516823517962D+02 -.978165298922498D+02
 0.113110512532692D+03 -.455065734493222D+02 -.233900750995069D+02 -.431369083401813D+02
 0.150519921347235D+03 -.311302880980832D+02 0.426530202420003D+02 0.140953438232431D+03
 0.489797634247786D+02 -.676620229050421D+01 -.338146274942896D+02 0.347822756462784D+02
 0.221089550799787D+03 0.000000000000000D+00 0.000000000000000D+00 0.221089550799787D+03
 0.221089550799787D+03 0.000000000000000D+00 0.000000000000000D+00 -.221089550799787D+03
 0.178048549533033D+03 0.806686263003865D+02 0.886115942776478D+00 -.978165298922498D+02
 0.115939014102870D+03 -.472563689680648D+02 -.321348156669732D+02 -.431369083401813D+02
 0.000000000000000D+00 -.000000000000000D+00 -.000000000000000D+00 0.000000000000000D+00
 0.148191537963671D+03 -.334122573323218D+02 0.312486997241967D+02 0.140953438232431D+03
 0.263641909018672D+03 0.000000000000000D+00 0.000000000000000D+00 0.263641909018672D+03
 0.228859633372393D+03 0.000000000000000D+00 0.000000000000000D+00 -.228859633372393D+03
 0.179891345086359D+03 0.834030638379096D+02 0.145516823517962D+02 -.978165298922498D+02
 0.113110512532692D+03 -.455065734493222D+02 -.233900750995069D+02 -.431369083401813D+02
 0.489797634247786D+02 -.676620229050421D+01 -.338146274942896D+02 0.347822756462784D+02
 0.150519921347235D+03 -.311302880980832D+02 0.426530202420003D+02 0.140953438232431D+03
0.713232119069D-04 0.000000000000D+00 0.000000000000D+00 0.976446823331D-05 0.000000000000D+00  6 -2 2 25 23 21 21 2 0.94475057D-02 0.12245952D+00 0.22821463D+05 0.22821463D+05 0.22821463D+05 0.12275658D+01  1  2  2  1  6  1       -2 0.275064741084D-01 0.100000000000D+01
0.407063142351D-05 0.376382929770D-05 -.273899913556D-06 0.976446823331D-05 0.000000000000D+00  6 -2 2 25 23 21 21 4 0.94475057D-02 0.12245952D+00 0.22821463D+05 0.22821463D+05 0.22821463D+05 0.12275658D+01  1  2  3  1  6  1       -2 0.236567656245D-02 0.100000000000D+01
0.233808024959D-05 0.000000000000D+00 0.000000000000D+00 0.976446823331D-05 0.000000000000D+00  6 -2 2 25 23 21 21 4 0.94475057D-02 0.12245952D+00 0.22821463D+05 0.22821463D+05 0.22821463D+05 0.12275658D+01  1  2 15  1  6  1       -2 0.135879205757D-02 0.100000000000D+01
-.934246711948D-04 0.000000000000D+00 0.000000000000D+00 0.976446823331D-05 0.000000000000D+00  6 -2 2 25 23 21 21 4 0.94475057D-02 0.12245952D+00 0.22821463D+05 0.22821463D+05 0.22821463D+05 0.12275658D+01  1  2  4  1  6  1       -2 -.542944157811D-01 0.100000000000D+01
-.361265906977D-03 0.000000000000D+00 -.766821997647D-04 0.976446823331D-05 0.000000000000D+00  6 -2 2 25 23 21 21 4 0.11644040D-01 0.12245952D+00 0.22821463D+05 0.22821463D+05 0.22821463D+05 0.12275658D+01  1  2  5  1  6  1       -2 -.150838748585D+00 0.100000000000D+01
0.370809736460D-03 0.000000000000D+00 0.750366964393D-04 0.976446823331D-05 0.000000000000D+00  6 -2 2 25 23 21 21 4 0.94475057D-02 0.12245952D+00 0.22821463D+05 0.22821463D+05 0.22821463D+05 0.12275658D+01  1  2  6  1  6  1       -2 0.215498730149D+00 0.100000000000D+01
-.974085677128D-05 0.000000000000D+00 -.226979320864D-05 0.976446823331D-05 0.000000000000D+00  6 21 2 25 23 2 21 4 0.11644040D-01 0.12245952D+00 0.22821463D+05 0.22821463D+05 0.22821463D+05 0.12275658D+01  3  4  5  4  5  1       -2 -.622208779262D-01 0.100000000000D+01
  </mgrwgt>
  </event>
  <event>
  5     66 0.42185105E-03 0.22152318E+02 0.75467711E-02 0.11074197E+00
       -2 -1    0    0    0  501 0.00000000E+00 0.00000000E+00 0.12736369E+02 0.12740388E+02 0.32000000E+00 0.0000E+00 0.9000E+01
        2 -1    0    0  502    0 0.00000000E+00 0.00000000E+00 -.12500853E+04 0.12500853E+04 0.32000000E+00 0.0000E+00 0.9000E+01
       25  1    1    2    0    0 -.45526536E+02 -.12912723E+01 -.67554861E+03 0.68852397E+03 0.12500000E+03 0.0000E+00 0.9000E+01
       23  1    1    2    0    0 0.25446129E+02 0.10622126E+02 -.48945924E+03 0.49864410E+03 0.91188000E+02 0.0000E+00 0.9000E+01
       21  1    1    2  502  501 0.20080407E+02 -.93308535E+01 -.72341084E+02 0.75657666E+02 0.75000000E+00 0.0000E+00 0.9000E+01
#aMCatNLO 1  0  0  2  2 0.17475987D+02 0.00000000D+00  -5  6  0 0.00000000D+00 0.00000000D+00 0.00000000D+00 0.00000000D+00 0.00000000D+00
  <mgrwgt>
 0.4847749052D+00    3    2    0
 0.126190773483910D+03 0.000000000000000D+00 0.000000000000000D+00 0.126190773483910D+03
 0.126190773483910D+03 0.000000000000000D+00 0.000000000000000D+00 -.126190773483910D+03
 0.133119474773248D+03 -.455317557656218D+02 -.128884664556475D+01 -.458177423378917D+01
 0.953656984575629D+02 0.254423890182004D+02 0.106238634933644D+02 -.437989312880123D+01
 0.238963737370092D+02 0.200893667474214D+02 -.933501684779964D+01 0.896166736259040D+01
 0.000000000000000D+00 -.000000000000000D+00 0.000000000000000D+00 0.000000000000000D+00
 0.448343985847224D+03 0.000000000000000D+00 0.000000000000000D+00 0.448343985847224D+03
 0.195029613059964D+03 0.000000000000000D+00 0.000000000000000D+00 -.195029613059964D+03
 0.160050939933277D+03 -.160664179258840D+02 -.985503979364202D+02 -.458177423378917D+01
 0.119215937583639D+03 0.470090958992033D+02 -.605652529827619D+02 -.437989312880123D+01
 0.420533182933717D+02 0.267176957281853D+02 -.312143369710462D+02 0.896166736259040D+01
 0.322053403096900D+03 -.576603737015046D+02 0.190329987890228D+03 0.253314372787260D+03
0.163483472936D-03 0.000000000000D+00 0.000000000000D+00 0.306089636591D-04 0.000000000000D+00  6 -2 2 25 23 21 21 2 0.19597537D-02 0.19232113D+00 0.15682301D+05 0.15682301D+05 0.15682301D+05 0.12456262D+01  1  2  2  2  6  2        2 0.362962499179D+00 0.100000000000D+01
0.299804282782D-04 0.862725988742D-05 -.627819582262D-06 0.306089636591D-04 0.000000000000D+00  6 -2 2 25 23 21 21 4 0.19597537D-02 0.19232113D+00 0.15682301D+05 0.15682301D+05 0.15682301D+05 0.12456262D+01  1  2  3  2  6  2        2 0.103276426552D+00 0.100000000000D+01
0.538086592395D-05 0.000000000000D+00 0.000000000000D+00 0.306089636591D-04 0.000000000000D+00  6 -2 2 25 23 21 21 4 0.19597537D-02 0.19232113D+00 0.15682301D+05 0.15682301D+05 0.15682301D+05 0.12456262D+01  1  2 15  2  6  2        2 0.185359795138D-01 0.100000000000D+01
  </mgrwgt>
  </event>
  <event>
  6     66 -.42185105E-03 0.18947756E+02 0.75467711E-02 0.12014315E+00
       -2 -1    0    0    0  501 0.00000000E+00 0.00000000E+00 0.22472646E+02 0.22474924E+02 0.32000000E+00 0.0000E+00 0.9000E+01
        2 -1    0    0  502    0 -.00000000E+00 -.00000000E+00 -.10477754E+04 0.10477755E+04 0.32000000E+00 0.0000E+00 0.9000E+01
       25  1    1    2    0    0 -.32252828E+02 0.17469934E+02 -.55730692E+03 0.57232984E+03 0.12500000E+03 0.0000E+00 0.9000E+01
       23  1    1    2    0    0 0.20419482E+02 -.11495844E+02 -.23203735E+03 0.25041104E+03 0.91188000E+02 0.0000E+00 0.9000E+01
       21  1    1    2  502  503 -.92316299E+01 -.36219443E+02 -.13278548E+03 0.13794788E+03 0.75000000E+00 0.0000E+00 0.9000E+01
       21  1    1    2  503  501 0.21064976E+02 0.30245353E+02 -.10317304E+03 0.10956164E+03 0.75000000E+00 0.0000E+00 0.9000E+01
#aMCatNLO 2  0  0  5  2 0.36642393D+02 0.00000000D+00  -5  6  0 0.00000000D+00 0.00000000D+00 0.00000000D+00 0.00000000D+00 0.00000000D+00
  <mgrwgt>
 -.4605282084D-01    2    2    0
 0.153452050152714D+03 0.000000000000000D+00 0.000000000000000D+00 0.153452050152714D+03
 0.153452050152714D+03 -.000000000000000D+00 -.000000000000000D+00 -.153452050152714D+03
 0.147187853470012D+03 -.587448020711378D+02 0.308444626151353D+02 -.404590109211283D+02
 0.936896746502256D+02 0.235477550362189D+01 -.237583894986384D+01 0.212441571656061D+02
 0.660265721851901D+02 0.563900265675159D+02 -.284686236652715D+02 0.192148537555222D+02
 0.000000000000000D+00 0.000000000000000D+00 0.000000000000000D+00 0.000000000000000D+00
 0.153452050152714D+03 0.000000000000000D+00 0.000000000000000D+00 0.153452050152714D+03
 0.153452050152714D+03 -.000000000000000D+00 -.000000000000000D+00 -.153452050152714D+03
 0.134018526223429D+03 -.322775188135551D+02 0.174823989246685D+02 -.314403065853265D+02
 0.980500877812064D+02 0.204014165846197D+02 -.114867237043164D+02 0.273935348172479D+02
 0.368478695949922D+02 -.119190745250424D+02 -.347270800425090D+02 -.311946596025791D+01
 0.379876167057995D+02 0.237951767539778D+02 0.287314048221569D+02 0.716623772833649D+01
-.349171277541D-04 0.000000000000D+00 0.000000000000D+00 0.364995099697D-05 0.000000000000D+00  6 -2 2 25 23 21 21 4 0.34575092D-02 0.16119640D+00 0.22267397D+05 0.22267397D+05 0.22267397D+05 0.12287243D+01  1  2 13  3  6  5       21 -.651118448978D-01 0.100000000000D+01
0.102206653620D-04 0.000000000000D+00 0.000000000000D+00 0.365469279211D-05 0.163614294489D-07  6 -2 2 25 23 21 21 4 0.34575092D-02 0.16119640D+00 0.22267397D+05 0.22267397D+05 0.22267397D+05 0.12287243D+01  1  2  1  3  6  5       21 0.190590240551D-01 0.100000000000D+01
  </mgrwgt>
  </event>
  <event>
  6     66 -.42185105E-03 0.75330949E+02 0.75467711E-02 0.11722526E+00
       -2 -1    0    0    0  503 0.00000000E+00 0.00000000E+00 0.18560284E+02 0.18563042E+02 0.32000000E+00 0.0000E+00 0.9000E+01
        2 -1    0    0  502    0 0.00000000E+00 0.00000000E+00 -.18654389E+04 0.18654389E+04 0.32000000E+00 0.0000E+00 0.9000E+01
       25  1    1    2    0    0 0.34816999E+02 -.45835810E+02 -.89629569E+03 0.90679883E+03 0.12500000E+03 0.0000E+00 0.9000E+01
       23  1    1    2    0    0 0.30201581E+02 0.71110689E+02 -.63240068E+03 0.64359517E+03 0.91188000E+02 0.0000E+00 0.9000E+01
       21  1    1    2  502  501 -.77340036E+02 -.25682158E+02 -.30431243E+03 0.31503599E+03 0.75000000E+00 0.0000E+00 0.9000E+01
       21  1    1    2  501  503 0.12321456E+02 0.40727906E+00 -.13869764E+02 0.18571941E+02 0.75000000E+00 0.0000E+00 0.9000E+01
#aMCatNLO 2  0  0  1  5 0.12328186D+02 0.00000000D+00  -5  6  0 0.00000000D+00 0.00000000D+00 0.00000000D+00 0.00000000D+00 0.00000000D+00
  <mgrwgt>
 -.3149430969D-01    2    2    0
 0.173028717691697D+03 0.000000000000000D+00 0.000000000000000D+00 0.173028717691697D+03
 0.173028717691697D+03 0.000000000000000D+00 0.000000000000000D+00 -.173028717691697D+03
 0.141774891214937D+03 0.398418546568281D+02 -.456693346829852D+02 -.283206332225291D+02
 0.120751540129557D+03 0.344786554245493D+02 0.712523909047097D+02 0.470121005979269D-01
 0.835310040388990D+02 -.743205100813774D+02 -.255830562217245D+02 0.282736211219312D+02
 0.000000000000000D+00 0.000000000000000D+00 0.000000000000000D+00 0.000000000000000D+00
 0.198243522541250D+03 0.000000000000000D+00 0.000000000000000D+00 0.198243522541250D+03
 0.174651962160282D+03 0.000000000000000D+00 0.000000000000000D+00 -.174651962160282D+03
 0.140499997407542D+03 0.348182162407895D+02 -.458353883282757D+02 -.283206332225291D+02
 0.119516661413159D+03 0.302026088611698D+02 0.711110485029529D+02 0.470121005979269D-01
 0.862603007681477D+02 -.773422812552163D+02 -.256829392302324D+02 0.282736211219312D+02
 0.266185251126836D+02 0.123214561532570D+02 0.407279055555259D+00 0.235915603809676D+02
-.109847288962D-03 0.000000000000D+00 0.000000000000D+00 0.227668909652D-05 0.000000000000D+00  6 -2 2 25 23 21 21 4 0.29299258D-02 0.28431493D+00 0.30792525D+05 0.30792525D+05 0.30792525D+05 0.12137117D+01  1  2 13  1  6  1       -2 -.931734555252D-01 0.100000000000D+01
0.714644997755D-04 0.000000000000D+00 0.000000000000D+00 0.228931419238D-05 0.357910043681D-07  6 -2 2 25 23 21 21 4 0.28555568D-02 0.28698219D+00 0.30792525D+05 0.30792525D+05 0.30792525D+05 0.12137117D+01  1  2  1  1  6  1       -2 0.616791458337D-01 0.100000000000D+01
  </mgrwgt>
  </event>
  <event>
  5     66 0.42185105E-03 0.40922620E+02 0.75467711E-02 0.11744877E+00
       -2 -1    0    0    0  501 0.00000000E+00 0.00000000E+00 0.14696269E+03 0.14696304E+03 0.32000000E+00 0.0000E+00 0.9000E+01
        2 -1    0    0  502    0 -.00000000E+00 -.00000000E+00 -.12899930E+04 0.12899931E+04 0.32000000E+00 0.0000E+00 0.9000E+01
       25  1    1    2    0    0 -.43632967E+02 0.68338190E+02 -.90156944E+03 0.91379779E+03 0.12500000E+03 0.0000E+00 0.9000E+01
       23  1    1    2    0    0 0.83536156E+02 -.89067240E+02 -.36293060E+03 0.39363071E+03 0.91188000E+02 0.0000E+00 0.9000E+01
       21  1    1    2  502  501 -.39903189E+02 0.20729050E+02 0.12146969E+03 0.12952763E+03 0.75000000E+00 0.0000E+00 0.9000E+01
#aMCatNLO 1  0  0  5  2 0.10404331D+02 0.00000000D+00  -5  6  0 0.00000000D+00 0.00000000D+00 0.00000000D+00 0.00000000D+00 0.00000000D+00
  <mgrwgt>
 0.1447891656D+00   20    2    0
 0.435409151349360D+03 0.000000000000000D+00 0.000000000000000D+00 0.435409151349360D+03
 0.435409151349360D+03 -.000000000000000D+00 -.000000000000000D+00 -.435409151349360D+03
 0.324483654144312D+03 -.436329367204856D+02 0.683381742530657D+02 -.288254579460152D+03
 0.173158322107305D+03 0.835361715646627D+02 -.890672478836364D+02 -.822027162919278D+02
 0.373176326447103D+03 -.399032348441771D+02 0.207290736305706D+02 0.370457295752080D+03
 0.000000000000000D+00 -.000000000000000D+00 0.000000000000000D+00 0.000000000000000D+00
 0.435409151349360D+03 0.000000000000000D+00 0.000000000000000D+00 0.435409151349360D+03
 0.435409151349360D+03 -.000000000000000D+00 -.000000000000000D+00 -.435409151349360D+03
 0.324297846307829D+03 -.436561551009940D+02 0.683502358195282D+02 -.288039022538803D+03
 0.173094446525629D+03 0.835237799836318D+02 -.890608106612760D+02 -.820876742003097D+02
 0.198896378131208D+03 -.113317914854419D+02 0.810228874286698D+01 0.198407945033888D+03
 0.174529631734053D+03 -.285358333971959D+02 0.126082860988808D+02 0.171718751705224D+03
0.497388996355D-04 0.000000000000D+00 0.000000000000D+00 0.156427743779D-04 0.000000000000D+00  6 -2 2 25 23 21 21 2 0.22609675D-01 0.19846050D+00 0.29991626D+05 0.29991626D+05 0.29991626D+05 0.12149111D+01  1  2  2  3  6  5       21 0.227259702379D-02 0.100000000000D+01
0.948506334654D-05 0.262479384591D-05 -.191010471153D-06 0.156427743779D-04 0.000000000000D+00  6 -2 2 25 23 21 21 4 0.22609675D-01 0.19846050D+00 0.29991626D+05 0.29991626D+05 0.29991626D+05 0.12149111D+01  1  2  3  3  6  5       21 0.639669307779D-03 0.100000000000D+01
0.211991243946D-05 0.000000000000D+00 0.000000000000D+00 0.156427743779D-04 0.000000000000D+00  6 -2 2 25 23 21 21 4 0.22609675D-01 0.19846050D+00 0.29991626D+05 0.29991626D+05 0.29991626D+05 0.12149111D+01  1  2 15  3  6  5       21 0.142966142993D-03 0.100000000000D+01
0.144673137242D-02 0.000000000000D+00 0.000000000000D+00 0.156416691218D-04 0.000000000000D+00  6 -2 2 25 23 21 21 4 0.22609675D-01 0.19846050D+00 0.30019881D+05 0.30019881D+05 0.30019881D+05 0.12148682D+01  1  2 12  3  6  5       21 0.975514715901D-01 0.100000000000D+01
0.182216338567D-02 0.000000000000D+00 0.000000000000D+00 0.156416691218D-04 0.000000000000D+00  6 -2 2 25 23 21 21 4 0.22609675D-01 0.19846050D+00 0.30019881D+05 0.30019881D+05 0.30019881D+05 0.12148682D+01  1  2 12  3  6  5       21 0.122866430589D+00 0.100000000000D+01
-.340209170043D-02 0.000000000000D+00 0.000000000000D+00 0.156427743779D-04 0.000000000000D+00  6 -2 2 25 23 21 21 4 0.22609675D-01 0.19846050D+00 0.29991626D+05 0.29991626D+05 0.29991626D+05 0.12149111D+01  1  2  4  3  6  5       21 -.229435857569D+00 0.100000000000D+01
-.363438785097D-02 0.000000000000D+00 0.000000000000D+00 0.156427743779D-04 0.000000000000D+00  6 -2 2 25 23 21 21 4 0.22609675D-01 0.19846050D+00 0.29991626D+05 0.29991626D+05 0.29991626D+05 0.12149111D+01  1  2  5  3  6  5       21 -.245101827568D+00 0.100000000000D+01
0.590541685827D-02 0.000000000000D+00 -.000000000000D+00 0.156427743779D-04 0.000000000000D+00  6 -2 2 25 23 21 21 4 0.22609675D-01 0.19846050D+00 0.29991626D+05 0.29991626D+05 0.29991626D+05 0.12149111D+01  1  2  6  3  6  5       21 0.398259218296D+00 0.100000000000D+01
0.348575206650D-04 0.000000000000D+00 0.000000000000D+00 0.156416691218D-04 0.000000000000D+00  6 -2 2 25 23 1 -1 4 0.22609675D-01 0.19846050D+00 0.30019881D+05 0.30019881D+05 0.30019881D+05 0.12148682D+01  1  2 12  6  6  5       21 0.235040346929D-02 0.100000000000D+01
0.348575206650D-04 0.000000000000D+00 0.000000000000D+00 0.156416691218D-04 0.000000000000D+00  6 -2 2 25 23 3 -3 4 0.22609675D-01 0.19846050D+00 0.30019881D+05 0.30019881D+05 0.30019881D+05 0.12148682D+01  1  2 12  6  6  5       21 0.235040346929D-02 0.100000000000D+01
0.439055284675D-04 0.000000000000D+00 0.000000000000D+00 0.156416691218D-04 0.000000000000D+00  6 -2 2 25 23 1 -1 4 0.22609675D-01 0.19846050D+00 0.30019881D+05 0.30019881D+05 0.30019881D+05 0.12148682D+01  1  2 12  6  6  5       21 0.296050047342D-02 0.100000000000D+01
0.439055284675D-04 0.000000000000D+00 0.000000000000D+00 0.156416691218D-04 0.000000000000D+00  6 -2 2 25 23 3 -3 4 0.22609675D-01 0.19846050D+00 0.30019881D+05 0.30019881D+05 0.30019881D+05 0.12148682D+01  1  2 12  6  6  5       21 0.296050047342D-02 0.100000000000D+01
-.876677132296D-04 0.000000000000D+00 0.000000000000D+00 0.156427743779D-04 0.000000000000D+00  6 -2 2 25 23 1 -1 4 0.22609675D-01 0.19846050D+00 0.29991626D+05 0.29991626D+05 0.29991626D+05 0.12149111D+01  1  2  5  6  6  5       21 -.591227948485D-02 0.100000000000D+01
-.876677132296D-04 0.000000000000D+00 0.000000000000D+00 0.156427743779D-04 0.000000000000D+00  6 -2 2 25 23 3 -3 4 0.22609675D-01 0.19846050D+00 0.29991626D+05 0.29991626D+05 0.29991626D+05 0.12149111D+01  1  2  5  6  6  5       21 -.591227948485D-02 0.100000000000D+01
0.348575206650D-04 0.000000000000D+00 0.000000000000D+00 0.156416691218D-04 0.000000000000D+00  6 -2 2 25 23 2 -2 4 0.22609675D-01 0.19846050D+00 0.30019881D+05 0.30019881D+05 0.30019881D+05 0.12148682D+01  1  2 12  7  6  5       21 0.235040346929D-02 0.100000000000D+01
0.439055284675D-04 0.000000000000D+00 0.000000000000D+00 0.156416691218D-04 0.000000000000D+00  6 -2 2 25 23 2 -2 4 0.22609675D-01 0.19846050D+00 0.30019881D+05 0.30019881D+05 0.30019881D+05 0.12148682D+01  1  2 12  7  6  5       21 0.296050047342D-02 0.100000000000D+01
-.876677132296D-04 0.000000000000D+00 0.000000000000D+00 0.156427743779D-04 0.000000000000D+00  6 -2 2 25 23 2 -2 4 0.22609675D-01 0.19846050D+00 0.29991626D+05 0.29991626D+05 0.29991626D+05 0.12149111D+01  1  2  5  7  6  5       21 -.591227948485D-02 0.100000000000D+01
0.348575206650D-04 0.000000000000D+00 0.000000000000D+00 0.156416691218D-04 0.000000000000D+00  6 -2 2 25 23 4 -4 4 0.22609675D-01 0.19846050D+00 0.30019881D+05 0.30019881D+05 0.30019881D+05 0.12148682D+01  1  2 12  8  6  5       21 0.235040346929D-02 0.100000000000D+01
0.439055284675D-04 0.000000000000D+00 0.000000000000D+00 0.156416691218D-04 0.000000000000D+00  6 -2 2 25 23 4 -4 4 0.22609675D-01 0.19846050D+00 0.30019881D+05 0.30019881D+05 0.30019881D+05 0.12148682D+01  1  2 12  8  6  5       21 0.296050047342D-02 0.100000000000D+01
-.876677132296D-04 0.000000000000D+00 0.000000000000D+00 0.156427743779D-04 0.000000000000D+00  6 -2 2 25 23 4 -4 4 0.22609675D-01 0.19846050D+00 0.29991626D+05 0.29991626D+05 0.29991626D+05 0.12149111D+01  1  2  5  8  6  5       21 -.591227948485D-02 0.100000000000D+01
  </mgrwgt>
  </event>
  <event>
  5     66 0.42185105E-03 0.22040539E+02 0.75467711E-02 0.11746927E+00
       -2 -1    0    0    0  501 0.00000000E+00 0.00000000E+00 0.43713997E+02 0.43715168E+02 0.32000000E+00 0.0000E+00 0.9000E+01
        2 -1    0    0  502    0 0.00000000E+00 0.00000000E+00 -.57324220E+03 0.57324229E+03 0.32000000E+00 0.0000E+00 0.9000E+01
       25  1    1    2    0    0 0.37165043E+01 -.94709042E+01 -.45887783E+03 0.47570724E+03 0.12500000E+03 0.0000E+00 0.9000E+01
       23  1    1    2    0    0 0.87590306E+01 0.27637438E+02 -.71075982E+02 0.11919562E+03 0.91188000E+02 0.0000E+00 0.9000E+01
       21  1    1    2  502  501 -.12475535E+02 -.18166534E+02 0.42560982E+00 0.22054605E+02 0.75000000E+00 0.0000E+00 0.9000E+01
#aMCatNLO 1  0  0  2  1 0.89688765D+02 0.00000000D+00  -5  6  0 0.00000000D+00 0.00000000D+00 0.00000000D+00 0.00000000D+00 0.00000000D+00
  <mgrwgt>
 0.2113732283D+00    7    4    0
 0.158300652488344D+03 0.000000000000000D+00 0.000000000000000D+00 0.158300652488344D+03
 0.158300652488344D+03 0.000000000000000D+00 0.000000000000000D+00 -.158300652488344D+03
 0.159515775670789D+03 0.371743069912831D+01 -.946955523103352D+01 -.985737841445545D+02
 0.113397004773723D+03 0.875968912769323D+01 0.276383973902026D+02 0.608524131299587D+02
 0.436885245321749D+02 -.124771198268215D+02 -.181688421591691D+02 0.377213710145958D+02
 0.000000000000000D+00 -.000000000000000D+00 -.000000000000000D+00 -.000000000000000D+00
 0.204165114586525D+03 0.000000000000000D+00 0.000000000000000D+00 0.204165114586525D+03
 0.215268268774672D+03 0.000000000000000D+00 0.000000000000000D+00 -.215268268774672D+03
 0.166766929168225D+03 0.490218622811382D+02 -.814093128037619D+01 -.985737841445545D+02
 0.120569268079236D+03 0.412459620553206D+02 0.285911086100996D+02 0.608524131299587D+02
 0.417237683014964D+02 -.617602544546759D+00 -.178210430994691D+02 0.377213710145958D+02
 0.903734178122388D+02 -.896502217919121D+02 -.262913423025429D+01 -.111031541881468D+02
 0.158300652488344D+03 0.000000000000000D+00 0.000000000000000D+00 0.158300652488344D+03
 0.158300652488344D+03 0.000000000000000D+00 0.000000000000000D+00 -.158300652488344D+03
 0.159515775670789D+03 0.371743069912831D+01 -.946955523103352D+01 -.985737841445545D+02
 0.113397004773723D+03 0.875968912769323D+01 0.276383973902026D+02 0.608524131299587D+02
 0.000000000000000D+00 -.000000000000000D+00 -.000000000000000D+00 -.000000000000000D+00
 0.436885245321749D+02 -.124771198268215D+02 -.181688421591691D+02 0.377213710145958D+02
 0.204165114586525D+03 0.000000000000000D+00 0.000000000000000D+00 0.204165114586525D+03
 0.215268268774672D+03 0.000000000000000D+00 0.000000000000000D+00 -.215268268774672D+03
 0.166766929168225D+03 0.490218622811382D+02 -.814093128037619D+01 -.985737841445545D+02
 0.120569268079236D+03 0.412459620553206D+02 0.285911086100996D+02 0.608524131299587D+02
 0.903734178122388D+02 -.896502217919121D+02 -.262913423025429D+01 -.111031541881468D+02
 0.417237683014964D+02 -.617602544546759D+00 -.178210430994691D+02 0.377213710145958D+02
0.105761323139D-03 0.000000000000D+00 0.000000000000D+00 0.196862772322D-04 0.000000000000D+00  6 -2 2 25 23 21 21 2 0.67253273D-02 0.88191205D-01 0.14779278D+05 0.14779278D+05 0.14779278D+05 0.12485571D+01  1  2  2  2  6  2        2 0.104037877488D+00 0.100000000000D+01
0.108689745626D-04 0.558117835628D-05 -.406151328451D-06 0.196862772322D-04 0.000000000000D+00  6 -2 2 25 23 21 21 4 0.67253273D-02 0.88191205D-01 0.14779278D+05 0.14779278D+05 0.14779278D+05 0.12485571D+01  1  2  3  2  6  2        2 0.166674833456D-01 0.100000000000D+01
0.373915287118D-05 0.000000000000D+00 0.000000000000D+00 0.196862772322D-04 0.000000000000D+00  6 -2 2 25 23 21 21 4 0.67253273D-02 0.88191205D-01 0.14779278D+05 0.14779278D+05 0.14779278D+05 0.12485571D+01  1  2 15  2  6  2        2 0.573396025980D-02 0.100000000000D+01
-.204842310852D-04 0.000000000000D+00 0.000000000000D+00 0.196862772322D-04 0.000000000000D+00  6 -2 2 25 23 21 21 4 0.67253273D-02 0.88191205D-01 0.14779278D+05 0.14779278D+05 0.14779278D+05 0.12485571D+01  1  2  4  2  6  2        2 -.314124003596D-01 0.100000000000D+01
-.923800952798D-04 0.000000000000D+00 -.823268101298D-04 0.196862772322D-04 0.000000000000D+00  6 -2 2 25 23 21 21 4 0.67253273D-02 0.14592637D+00 0.14779278D+05 0.14779278D+05 0.14779278D+05 0.12485571D+01  1  2  5  2  6  2        2 -.770186254018D-01 0.100000000000D+01
0.126850842598D-03 0.000000000000D+00 0.728874115136D-04 0.196862772322D-04 0.000000000000D+00  6 -2 2 25 23 21 21 4 0.67253273D-02 0.88191205D-01 0.14779278D+05 0.14779278D+05 0.14779278D+05 0.12485571D+01  1  2  6  2  6  2        2 0.194524726706D+00 0.100000000000D+01
-.149503172464D-05 0.000000000000D+00 -.466827056592D-05 0.196862772322D-04 0.000000000000D+00  6 -2 21 25 23 -2 21 4 0.67253273D-02 0.14592637D+00 0.14779278D+05 0.14779278D+05 0.14779278D+05 0.12485571D+01  3  4  5  5  5  2        2 -.115979377704D-02 0.100000000000D+01
  </mgrwgt>
  </event>
  <event>
  5     66 0.42185105E-03 0.82201781E+02 0.75467711E-02 0.11504580E+00
       -2 -1    0    0    0  501 0.00000000E+00 0.00000000E+00 0.78455533E+03 0.78455539E+03 0.32000000E+00 0.0000E+00 0.9000E+01
        2 -1    0    0  502    0 0.00000000E+00 0.00000000E+00 -.70410915E+02 0.70411642E+02 0.32000000E+00 0.0000E+00 0.9000E+01
       25  1    1    2    0    0 0.61823274E+02 0.55187005E+02 0.29126757E+03 0.32761184E+03 0.12500000E+03 0.0000E+00 0.9000E+01
       23  1    1    2    0    0 0.14400183E+02 -.24413893E+02 -.10845214E+01 0.95497806E+02 0.91188000E+02 0.0000E+00 0.9000E+01
       21  1    1    2  502  501 -.76223457E+02 -.30773112E+02 0.42396136E+03 0.43185738E+03 0.75000000E+00 0.0000E+00 0.9000E+01
#aMCatNLO 1  0  0  1  5 0.71037345D+02 0.00000000D+00  -5  6  0 0.00000000D+00 0.00000000D+00 0.00000000D+00 0.00000000D+00 0.00000000D+00
  <mgrwgt>
 0.1301439186D-01    4    2    0
 0.235035309726226D+03 0.000000000000000D+00 0.000000000000000D+00 0.235035309726226D+03
 0.235035309726226D+03 0.000000000000000D+00 0.000000000000000D+00 -.235035309726226D+03
 0.153360482390859D+03 0.618236242727942D+02 0.551871462623216D+02 0.320414720066759D+02
 0.175340087878660D+03 0.144005832011259D+02 -.244137316573729D+02 -.147056070882250D+03
 0.141370049182932D+03 -.762242074739201D+02 -.307734146049487D+02 0.115014598875574D+03
 0.000000000000000D+00 -.000000000000000D+00 -.000000000000000D+00 -.000000000000000D+00
 0.247962359371865D+03 0.000000000000000D+00 0.000000000000000D+00 0.247962359371865D+03
 0.360683785501332D+03 0.000000000000000D+00 0.000000000000000D+00 -.360683785501332D+03
 0.166069250883806D+03 0.697870732752694D+02 0.778274024006074D+02 0.320414720066759D+02
 0.174572642713735D+03 0.231239796014020D+02 0.387071215435739D+00 -.147056070882250D+03
 0.134766027661306D+03 -.693400782378925D+02 -.112016876880957D+02 0.115014598875574D+03
 0.133238223614351D+03 -.235709746387789D+02 -.670127859279474D+02 -.112721426129467D+03
0.351563462571D-03 0.000000000000D+00 0.000000000000D+00 0.163206175934D-05 0.000000000000D+00  6 -2 2 25 23 21 21 2 0.12070088D+00 0.10832509D-01 0.26841806D+05 0.26841806D+05 0.26841806D+05 0.12200016D+01  1  2  2  1  6  1       -2 0.165435123426D-01 0.100000000000D+01
-.197530899518D-04 0.185525136214D-04 -.135009626506D-05 0.163206175934D-05 0.000000000000D+00  6 -2 2 25 23 21 21 4 0.12070088D+00 0.10832509D-01 0.26841806D+05 0.26841806D+05 0.26841806D+05 0.12200016D+01  1  2  3  1  6  1       -2 -.138350209000D-02 0.100000000000D+01
0.103010598276D-04 0.000000000000D+00 0.000000000000D+00 0.163206175934D-05 0.000000000000D+00  6 -2 2 25 23 21 21 4 0.12070088D+00 0.10832509D-01 0.26841806D+05 0.26841806D+05 0.26841806D+05 0.12200016D+01  1  2 15  1  6  1       -2 0.721483972150D-03 0.100000000000D+01
-.409353418031D-04 0.000000000000D+00 0.000000000000D+00 0.163206175934D-05 0.000000000000D+00  6 -2 2 25 23 21 21 4 0.12070088D+00 0.10832509D-01 0.26841806D+05 0.26841806D+05 0.26841806D+05 0.12200016D+01  1  2  4  1  6  1       -2 -.286710236614D-02 0.100000000000D+01
  </mgrwgt>
  </event>
  <event>
  5     66 0.42185105E-03 0.42969360E+02 0.75467711E-02 0.12189690E+00
       -2 -1    0    0    0  501 0.00000000E+00 0.00000000E+00 0.30808821E+02 0.30810483E+02 0.32000000E+00 0.0000E+00 0.9000E+01
        2 -1    0    0  502    0 -.00000000E+00 -.00000000E+00 -.74720613E+03 0.74720620E+03 0.32000000E+00 0.0000E+00 0.9000E+01
       25  1    1    2    0    0 0.27629817E+02 0.16748864E+02 -.17289107E+03 0.21577825E+03 0.12500000E+03 0.0000E+00 0.9000E+01
       23  1    1    2    0    0 0.76037328E+01 -.41336010E+02 -.40213806E+03 0.41448372E+03 0.91188000E+02 0.0000E+00 0.9000E+01
       21  1    1    2  502  501 -.35233549E+02 0.24587146E+02 -.14136818E+03 0.14775471E+03 0.75000000E+00 0.0000E+00 0.9000E+01
#aMCatNLO 1  0  0  5  2 0.45626373D+01 0.00000000D+00  -5  6  0 0.00000000D+00 0.00000000D+00 0.00000000D+00 0.00000000D+00 0.00000000D+00
  <mgrwgt>
 0.1008289560D+00   19    2    0
 0.151727430798280D+03 0.000000000000000D+00 0.000000000000000D+00 0.151727430798280D+03
 0.151727430798280D+03 -.000000000000000D+00 -.000000000000000D+00 -.151727430798280D+03
 0.145064683107882D+03 0.276321481588717D+02 0.167472367815627D+02 0.661419438291526D+02
 0.113310764314140D+03 0.760555390306660D+01 -.413372807359765D+02 -.525115486025419D+02
 0.450794141745382D+02 -.352377020619384D+02 0.245900439544138D+02 -.136303952266107D+02
 0.000000000000000D+00 0.000000000000000D+00 0.000000000000000D+00 0.000000000000000D+00
 0.151727430798280D+03 0.000000000000000D+00 0.000000000000000D+00 0.151727430798280D+03
 0.151727430798280D+03 -.000000000000000D+00 -.000000000000000D+00 -.151727430798280D+03
 0.144552444961034D+03 0.257783365771817D+02 0.180408883425196D+02 0.654248657265655D+02
 0.113119326821000D+03 0.615619651115999D+01 -.403258708003913D+02 -.530721786357254D+02
 0.412190759383130D+02 -.343393026053880D+02 0.210900502109039D+02 -.866223411629828D+01
 0.456401387621284D+01 0.240476951704630D+01 0.119493224696785D+01 -.369045297454183D+01
0.485124395614D-04 0.000000000000D+00 0.000000000000D+00 0.603141570128D-05 0.000000000000D+00  6 -2 2 25 23 21 21 2 0.47399517D-02 0.11495492D+00 0.18562204D+05 0.18562204D+05 0.18562204D+05 0.12374091D+01  1  2  2  3  6  5       21 0.587763972159D-01 0.100000000000D+01
0.141423353858D-05 0.256007176966D-05 -.186300541535D-06 0.603141570128D-05 0.000000000000D+00  6 -2 2 25 23 21 21 4 0.47399517D-02 0.11495492D+00 0.18562204D+05 0.18562204D+05 0.18562204D+05 0.12374091D+01  1  2  3  3  6  5       21 0.262359971275D-02 0.100000000000D+01
0.141702928538D-05 0.000000000000D+00 0.000000000000D+00 0.603141570128D-05 0.000000000000D+00  6 -2 2 25 23 21 21 4 0.47399517D-02 0.11495492D+00 0.18562204D+05 0.18562204D+05 0.18562204D+05 0.12374091D+01  1  2 15  3  6  5       21 0.262878621150D-02 0.100000000000D+01
0.454097073752D-05 0.000000000000D+00 0.000000000000D+00 0.603385936666D-05 0.000000000000D+00  6 -2 2 25 23 21 21 4 0.47399517D-02 0.11495492D+00 0.18466044D+05 0.18466044D+05 0.18466044D+05 0.12376597D+01  1  2 12  3  6  5       21 0.842975409386D-02 0.100000000000D+01
0.381570215870D-05 0.000000000000D+00 0.000000000000D+00 0.603385936666D-05 0.000000000000D+00  6 -2 2 25 23 21 21 4 0.47399517D-02 0.11495492D+00 0.18466044D+05 0.18466044D+05 0.18466044D+05 0.12376597D+01  1  2 12  3  6  5       21 0.708338211201D-02 0.100000000000D+01
-.690246921570D-04 0.000000000000D+00 0.000000000000D+00 0.603141570128D-05 0.000000000000D+00  6 -2 2 25 23 21 21 4 0.47399517D-02 0.11495492D+00 0.18562204D+05 0.18562204D+05 0.18562204D+05 0.12374091D+01  1  2  4  3  6  5       21 -.128050394489D+00 0.100000000000D+01
0.757196388954D-04 0.000000000000D+00 0.000000000000D+00 0.603141570128D-05 0.269544268082D-05  6 -2 2 25 23 21 21 4 0.47399517D-02 0.11495492D+00 0.18466044D+05 0.18466044D+05 0.18466044D+05 0.12376597D+01  1  2 11  3  6  5       21 0.140564203748D+00 0.100000000000D+01
0.142374025096D-06 0.000000000000D+00 0.000000000000D+00 0.603385936666D-05 0.000000000000D+00  6 -2 2 25 23 1 -1 4 0.47399517D-02 0.11495492D+00 0.18466044D+05 0.18466044D+05 0.18466044D+05 0.12376597D+01  1  2 12  6  6  5       21 0.264299879978D-03 0.100000000000D+01
0.142374025096D-06 0.000000000000D+00 0.000000000000D+00 0.603385936666D-05 0.000000000000D+00  6 -2 2 25 23 3 -3 4 0.47399517D-02 0.11495492D+00 0.18466044D+05 0.18466044D+05 0.18466044D+05 0.12376597D+01  1  2 12  6  6  5       21 0.264299879978D-03 0.100000000000D+01
0.136595043701D-06 0.000000000000D+00 0.000000000000D+00 0.603385936666D-05 0.000000000000D+00  6 -2 2 25 23 1 -1 4 0.47399517D-02 0.11495492D+00 0.18466044D+05 0.18466044D+05 0.18466044D+05 0.12376597D+01  1  2 12  6  6  5       21 0.253571911249D-03 0.100000000000D+01
0.136595043701D-06 0.000000000000D+00 0.000000000000D+00 0.603385936666D-05 0.000000000000D+00  6 -2 2 25 23 3 -3 4 0.47399517D-02 0.11495492D+00 0.18466044D+05 0.18466044D+05 0.18466044D+05 0.12376597D+01  1  2 12  6  6  5       21 0.253571911249D-03 0.100000000000D+01
0.903787543501D-06 0.000000000000D+00 0.000000000000D+00 0.603385936666D-05 0.203577122898D-07  6 -2 2 25 23 1 -1 4 0.47399517D-02 0.11495492D+00 0.18466044D+05 0.18466044D+05 0.18466044D+05 0.12376597D+01  1  2 11  6  6  5       21 0.167777050001D-02 0.100000000000D+01
0.903787543501D-06 0.000000000000D+00 0.000000000000D+00 0.603385936666D-05 0.203577122898D-07  6 -2 2 25 23 3 -3 4 0.47399517D-02 0.11495492D+00 0.18466044D+05 0.18466044D+05 0.18466044D+05 0.12376597D+01  1  2 11  6  6  5       21 0.167777050001D-02 0.100000000000D+01
0.142374025096D-06 0.000000000000D+00 0.000000000000D+00 0.603385936666D-05 0.000000000000D+00  6 -2 2 25 23 2 -2 4 0.47399517D-02 0.11495492D+00 0.18466044D+05 0.18466044D+05 0.18466044D+05 0.12376597D+01  1  2 12  7  6  5       21 0.264299879978D-03 0.100000000000D+01
0.136595043701D-06 0.000000000000D+00 0.000000000000D+00 0.603385936666D-05 0.000000000000D+00  6 -2 2 25 23 2 -2 4 0.47399517D-02 0.11495492D+00 0.18466044D+05 0.18466044D+05 0.18466044D+05 0.12376597D+01  1  2 12  7  6  5       21 0.253571911249D-03 0.100000000000D+01
0.895831310361D-06 0.000000000000D+00 0.000000000000D+00 0.603385936666D-05 0.217804122844D-07  6 -2 2 25 23 2 -2 4 0.47399517D-02 0.11495492D+00 0.18466044D+05 0.18466044D+05 0.18466044D+05 0.12376597D+01  1  2 11  7  6  5       21 0.166300073100D-02 0.100000000000D+01
0.142374025096D-06 0.000000000000D+00 0.000000000000D+00 0.603385936666D-05 0.000000000000D+00  6 -2 2 25 23 4 -4 4 0.47399517D-02 0.11495492D+00 0.18466044D+05 0.18466044D+05 0.18466044D+05 0.12376597D+01  1  2 12  8  6  5       21 0.264299879978D-03 0.100000000000D+01
0.136595043701D-06 0.000000000000D+00 0.000000000000D+00 0.603385936666D-05 0.000000000000D+00  6 -2 2 25 23 4 -4 4 0.47399517D-02 0.11495492D+00 0.18466044D+05 0.18466044D+05 0.18466044D+05 0.12376597D+01  1  2 12  8  6  5       21 0.253571911249D-03 0.100000000000D+01
0.906711527961D-06 0.000000000000D+00 0.000000000000D+00 0.603385936666D-05 0.204235747094D-07  6 -2 2 25 23 4 -4 4 0.47399517D-02 0.11495492D+00 0.18466044D+05 0.18466044D+05 0.18466044D+05 0.12376597D+01  1  2 11  8  6  5       21 0.168319851780D-02 0.100000000000D+01
  </mgrwgt>
  </event>
  <event>
  5     66 -.42185105E-03 0.20842795E+02 0.75467711E-02 0.12366544E+00
       -2 -1    0    0    0  501 0.00000000E+00 0.00000000E+00 0.15013424E+02 0.15016834E+02 0.32000000E+00 0.0000E+00 0.9000E+01
        2 -1    0    0  502    0 0.00000000E+00 0.00000000E+00 -.12144759E+04 0.12144759E+04 0.32000000E+00 0.0000E+00 0.9000E+01
       25  1    1    2    0    0 0.35266882E+02 -.68403917E+01 -.85829728E+03 0.86809549E+03 0.12500000E+03 0.0000E+00 0.9000E+01
       23  1    1    2    0    0 -.14455206E+02 0.78950183E+01 -.31250784E+03 0.32595657E+03 0.91188000E+02 0.0000E+00 0.9000E+01
       21  1    1    2  502  501 -.20811676E+02 -.10546266E+01 -.28657330E+02 0.35440699E+02 0.75000000E+00 0.0000E+00 0.9000E+01
#aMCatNLO 1  0  0  1  1 0.43799638D+01 0.00000000D+00  -5  6  0 0.00000000D+00 0.00000000D+00 0.00000000D+00 0.00000000D+00 0.00000000D+00
  <mgrwgt>
 -.5111537024D+00    9    4    0
 0.135039119700623D+03 0.000000000000000D+00 0.000000000000000D+00 0.135039119700623D+03
 0.135039119700623D+03 0.000000000000000D+00 0.000000000000000D+00 -.135039119700623D+03
 0.140041857990068D+03 0.352694983563369D+02 -.684025915540480D+01 -.519229749695617D+02
 0.959706598956829D+02 -.144534135925533D+02 0.789510919023521D+01 0.249776360612786D+02
 0.340657215154947D+02 -.208160847637836D+02 -.105485003483041D+01 0.269453389082831D+02
 0.000000000000000D+00 0.000000000000000D+00 -.000000000000000D+00 0.000000000000000D+00
 0.141482528256733D+03 0.000000000000000D+00 0.000000000000000D+00 0.141482528256733D+03
 0.135803263060571D+03 0.000000000000000D+00 0.000000000000000D+00 -.135803263060571D+03
 0.139916428248568D+03 0.351381420457994D+02 -.457411605845370D+01 -.519229749695617D+02
 0.961246668442848D+02 -.145435446393284D+02 0.945003904959748D+01 0.249776360612786D+02
 0.340726577607066D+02 -.208480552627746D+02 -.503298873731428D+00 0.269453389082831D+02
 0.717203846374440D+01 0.253457856303563D+00 -.437262411741235D+01 0.567926519616147D+01
 0.135039119700623D+03 0.000000000000000D+00 0.000000000000000D+00 0.135039119700623D+03
 0.135039119700623D+03 0.000000000000000D+00 0.000000000000000D+00 -.135039119700623D+03
 0.140041857990068D+03 0.352694983563369D+02 -.684025915540480D+01 -.519229749695617D+02
 0.959706598956829D+02 -.144534135925533D+02 0.789510919023521D+01 0.249776360612786D+02
 0.000000000000000D+00 0.000000000000000D+00 -.000000000000000D+00 0.000000000000000D+00
 0.340657215154947D+02 -.208160847637836D+02 -.105485003483041D+01 0.269453389082831D+02
 0.141482528256733D+03 0.000000000000000D+00 0.000000000000000D+00 0.141482528256733D+03
 0.135803263060571D+03 0.000000000000000D+00 0.000000000000000D+00 -.135803263060571D+03
 0.139916428248568D+03 0.351381420457994D+02 -.457411605845370D+01 -.519229749695617D+02
 0.961246668442848D+02 -.145435446393284D+02 0.945003904959748D+01 0.249776360612786D+02
 0.717203846374440D+01 0.253457856303563D+00 -.437262411741235D+01 0.567926519616147D+01
 0.340726577607066D+02 -.208480552627746D+02 -.503298873731428D+00 0.269453389082831D+02
0.548986478026D-04 0.000000000000D+00 0.000000000000D+00 0.317791652181D-04 0.000000000000D+00  6 -2 2 25 23 21 21 2 0.23100231D-02 0.18684271D+00 0.14831167D+05 0.14831167D+05 0.14831167D+05 0.12483833D+01  1  2  2  1  6  1       -2 0.100693508490D+00 0.100000000000D+01
0.778995562298D-05 0.289708123735D-05 -.210825262708D-06 0.317791652181D-04 0.000000000000D+00  6 -2 2 25 23 21 21 4 0.23100231D-02 0.18684271D+00 0.14831167D+05 0.14831167D+05 0.14831167D+05 0.12483833D+01  1  2  3  1  6  1       -2 0.222674630858D-01 0.100000000000D+01
0.198902496059D-05 0.000000000000D+00 0.000000000000D+00 0.317791652181D-04 0.000000000000D+00  6 -2 2 25 23 21 21 4 0.23100231D-02 0.18684271D+00 0.14831167D+05 0.14831167D+05 0.14831167D+05 0.12483833D+01  1  2 15  1  6  1       -2 0.568559591738D-02 0.100000000000D+01
-.229918790888D-03 0.000000000000D+00 0.000000000000D+00 0.317791652181D-04 0.000000000000D+00  6 -2 2 25 23 21 21 4 0.23100231D-02 0.18684271D+00 0.14831167D+05 0.14831167D+05 0.14831167D+05 0.12483833D+01  1  2  4  1  6  1       -2 -.657219172562D+00 0.100000000000D+01
-.207406675891D-02 0.000000000000D+00 -.215390411542D-03 0.317791652181D-04 0.000000000000D+00  6 -2 2 25 23 21 21 4 0.24342124D-02 0.18684271D+00 0.14831167D+05 0.14831167D+05 0.14831167D+05 0.12483833D+01  1  2  5  1  6  1       -2 -.549385289534D+01 0.100000000000D+01
0.208278448894D-02 0.000000000000D+00 0.215095430131D-03 0.317791652181D-04 0.000000000000D+00  6 -2 2 25 23 21 21 4 0.23100231D-02 0.18684271D+00 0.14831167D+05 0.14831167D+05 0.14831167D+05 0.12483833D+01  1  2  6  1  6  1       -2 0.595360602393D+01 0.100000000000D+01
0.168168546805D-03 0.000000000000D+00 0.000000000000D+00 0.317791652181D-04 0.567587031907D-05  6 -2 2 25 23 21 21 4 0.24202462D-02 0.18789999D+00 0.15373803D+05 0.15373803D+05 0.15373803D+05 0.12466057D+01  1  2 11  1  6  1       -2 0.443219274881D+00 0.100000000000D+01
-.186494351483D-04 0.000000000000D+00 -.195825560688D-05 0.317791652181D-04 0.000000000000D+00  6 21 2 25 23 2 21 4 0.24342124D-02 0.18684271D+00 0.14831167D+05 0.14831167D+05 0.14831167D+05 0.12483833D+01  3  4  5  4  5  1       -2 -.100561651890D+01 0.100000000000D+01
0.223680989782D-05 0.000000000000D+00 0.000000000000D+00 0.317791652181D-04 0.149572964885D-06  6 21 2 25 23 2 21 4 0.24202462D-02 0.18789999D+00 0.15373803D+05 0.15373803D+05 0.15373803D+05 0.12466057D+01  3  4 11  4  5  1       -2 0.120063018139D+00 0.100000000000D+01
  </mgrwgt>
  </event>
  <event>
  5     66 0.42185105E-03 0.20793838E+02 0.75467711E-02 0.12434432E+00
       -2 -1    0    0    0  501 0.00000000E+00 0.00000000E+00 0.19788552E+02 0.19791139E+02 0.32000000E+00 0.0000E+00 0.9000E+01
        2 -1    0    0  502    0 -.00000000E+00 -.00000000E+00 -.11751915E+04 0.11751916E+04 0.32000000E+00 0.0000E+00 0.9000E+01
       25  1    1    2    0    0 0.14751939E+02 0.20502395E+01 -.95773813E+03 0.96597575E+03 0.12500000E+03 0.0000E+00 0.9000E+01
       23  1    1    2    0    0 -.63490632E+01 0.16965578E+02 -.17552903E+03 0.19862989E+03 0.91188000E+02 0.0000E+00 0.9000E+01
       21  1    1    2  502  501 -.84028755E+01 -.19015817E+02 -.22135816E+02 0.30377072E+02 0.75000000E+00 0.0000E+00 0.9000E+01
#aMCatNLO 1  0  0  5  2 0.22928911D+01 0.00000000D+00  -5  6  0 0.00000000D+00 0.00000000D+00 0.00000000D+00 0.00000000D+00 0.00000000D+00
  <mgrwgt>
 0.2830142474D+00   25    2    0
 0.152502165620478D+03 0.000000000000000D+00 0.000000000000000D+00 0.152502165620478D+03
 0.152502165620478D+03 -.000000000000000D+00 -.000000000000000D+00 -.152502165620478D+03
 0.156559978803204D+03 0.147529203058928D+02 0.205246076886786D+01 -.930815003644654D+02
 0.113284175133167D+03 -.634835298137847D+01 0.169671852357941D+02 0.647291744980588D+02
 0.351601773045850D+02 -.840456732451434D+01 -.190196460046620D+02 0.283523258664065D+02
 0.000000000000000D+00 0.000000000000000D+00 -.000000000000000D+00 0.000000000000000D+00
 0.152502165620478D+03 0.000000000000000D+00 0.000000000000000D+00 0.152502165620478D+03
 0.152502165620478D+03 -.000000000000000D+00 -.000000000000000D+00 -.152502165620478D+03
 0.156480786558875D+03 0.147157061003880D+02 0.196824453408549D+01 -.929559603764337D+02
 0.113328528520319D+03 -.637529264118283D+01 0.169062204325888D+02 0.648200538954165D+02
 0.158119957103521D+02 -.399406659105723D+01 -.653643011299068D+01 0.138326324966863D+02
 0.193830204514108D+02 -.434634686814797D+01 -.123380348536836D+02 0.143032739843309D+02
0.177847400051D-04 0.000000000000D+00 0.000000000000D+00 0.218355373358D-04 0.000000000000D+00  6 -2 2 25 23 21 21 2 0.30445950D-02 0.18079890D+00 0.14357821D+05 0.14357821D+05 0.14357821D+05 0.12499947D+01  1  2  2  3  6  5       21 0.229561320360D-01 0.100000000000D+01
0.216564464708D-05 0.938526514630D-06 -.682980844492D-07 0.218355373358D-04 0.000000000000D+00  6 -2 2 25 23 21 21 4 0.30445950D-02 0.18079890D+00 0.14357821D+05 0.14357821D+05 0.14357821D+05 0.12499947D+01  1  2  3  3  6  5       21 0.436771943514D-02 0.100000000000D+01
0.267376483288D-06 0.000000000000D+00 0.000000000000D+00 0.218355373358D-04 0.000000000000D+00  6 -2 2 25 23 21 21 4 0.30445950D-02 0.18079890D+00 0.14357821D+05 0.14357821D+05 0.14357821D+05 0.12499947D+01  1  2 15  3  6  5       21 0.539250732631D-03 0.100000000000D+01
0.248916094281D-06 0.000000000000D+00 0.000000000000D+00 0.218365168457D-04 0.000000000000D+00  6 -2 2 25 23 21 21 4 0.30445950D-02 0.18079890D+00 0.14349736D+05 0.14349736D+05 0.14349736D+05 0.12500227D+01  1  2 12  3  6  5       21 0.502057602732D-03 0.100000000000D+01
0.251301783815D-06 0.000000000000D+00 0.000000000000D+00 0.218365168457D-04 0.000000000000D+00  6 -2 2 25 23 21 21 4 0.30445950D-02 0.18079890D+00 0.14349736D+05 0.14349736D+05 0.14349736D+05 0.12500227D+01  1  2 12  3  6  5       21 0.506869479490D-03 0.100000000000D+01
-.374060637224D-03 0.000000000000D+00 0.000000000000D+00 0.218355373358D-04 0.000000000000D+00  6 -2 2 25 23 21 21 4 0.30445950D-02 0.18079890D+00 0.14357821D+05 0.14357821D+05 0.14357821D+05 0.12499947D+01  1  2  4  3  6  5       21 -.754413664923D+00 0.100000000000D+01
-.172444625651D-03 0.000000000000D+00 0.000000000000D+00 0.218355373358D-04 0.000000000000D+00  6 -2 2 25 23 21 21 4 0.30445950D-02 0.18079890D+00 0.14357821D+05 0.14357821D+05 0.14357821D+05 0.12499947D+01  1  2  5  3  6  5       21 -.347790088257D+00 0.100000000000D+01
0.461737383617D-03 0.000000000000D+00 -.000000000000D+00 0.218355373358D-04 0.000000000000D+00  6 -2 2 25 23 21 21 4 0.30445950D-02 0.18079890D+00 0.14357821D+05 0.14357821D+05 0.14357821D+05 0.12499947D+01  1  2  6  3  6  5       21 0.931242042442D+00 0.100000000000D+01
0.208385858368D-03 0.000000000000D+00 0.000000000000D+00 0.218355373358D-04 0.285607142390D-04  6 -2 2 25 23 21 21 4 0.30445950D-02 0.18079890D+00 0.14349736D+05 0.14349736D+05 0.14349736D+05 0.12500227D+01  1  2 11  3  6  5       21 0.420309119819D+00 0.100000000000D+01
0.592856983747D-08 0.000000000000D+00 0.000000000000D+00 0.218365168457D-04 0.000000000000D+00  6 -2 2 25 23 1 -1 4 0.30445950D-02 0.18079890D+00 0.14349736D+05 0.14349736D+05 0.14349736D+05 0.12500227D+01  1  2 12  6  6  5       21 0.119577786596D-04 0.100000000000D+01
0.592856983747D-08 0.000000000000D+00 0.000000000000D+00 0.218365168457D-04 0.000000000000D+00  6 -2 2 25 23 3 -3 4 0.30445950D-02 0.18079890D+00 0.14349736D+05 0.14349736D+05 0.14349736D+05 0.12500227D+01  1  2 12  6  6  5       21 0.119577786596D-04 0.100000000000D+01
0.598669862886D-08 0.000000000000D+00 0.000000000000D+00 0.218365168457D-04 0.000000000000D+00  6 -2 2 25 23 1 -1 4 0.30445950D-02 0.18079890D+00 0.14349736D+05 0.14349736D+05 0.14349736D+05 0.12500227D+01  1  2 12  6  6  5       21 0.120750229935D-04 0.100000000000D+01
0.598669862886D-08 0.000000000000D+00 0.000000000000D+00 0.218365168457D-04 0.000000000000D+00  6 -2 2 25 23 3 -3 4 0.30445950D-02 0.18079890D+00 0.14349736D+05 0.14349736D+05 0.14349736D+05 0.12500227D+01  1  2 12  6  6  5       21 0.120750229935D-04 0.100000000000D+01
-.311241386186D-05 0.000000000000D+00 0.000000000000D+00 0.218355373358D-04 0.000000000000D+00  6 -2 2 25 23 1 -1 4 0.30445950D-02 0.18079890D+00 0.14357821D+05 0.14357821D+05 0.14357821D+05 0.12499947D+01  1  2  5  6  6  5       21 -.627718427074D-02 0.100000000000D+01
-.311241386186D-05 0.000000000000D+00 0.000000000000D+00 0.218355373358D-04 0.000000000000D+00  6 -2 2 25 23 3 -3 4 0.30445950D-02 0.18079890D+00 0.14357821D+05 0.14357821D+05 0.14357821D+05 0.12499947D+01  1  2  5  6  6  5       21 -.627718427074D-02 0.100000000000D+01
0.369801586093D-05 0.000000000000D+00 0.000000000000D+00 0.218355373358D-04 0.399636284334D-06  6 -2 2 25 23 1 -1 4 0.30445950D-02 0.18079890D+00 0.14349736D+05 0.14349736D+05 0.14349736D+05 0.12500227D+01  1  2 11  6  6  5       21 0.745880648404D-02 0.100000000000D+01
0.369801586093D-05 0.000000000000D+00 0.000000000000D+00 0.218355373358D-04 0.399636284334D-06  6 -2 2 25 23 3 -3 4 0.30445950D-02 0.18079890D+00 0.14349736D+05 0.14349736D+05 0.14349736D+05 0.12500227D+01  1  2 11  6  6  5       21 0.745880648404D-02 0.100000000000D+01
0.592856983747D-08 0.000000000000D+00 0.000000000000D+00 0.218365168457D-04 0.000000000000D+00  6 -2 2 25 23 2 -2 4 0.30445950D-02 0.18079890D+00 0.14349736D+05 0.14349736D+05 0.14349736D+05 0.12500227D+01  1  2 12  7  6  5       21 0.119577786596D-04 0.100000000000D+01
0.598669862886D-08 0.000000000000D+00 0.000000000000D+00 0.218365168457D-04 0.000000000000D+00  6 -2 2 25 23 2 -2 4 0.30445950D-02 0.18079890D+00 0.14349736D+05 0.14349736D+05 0.14349736D+05 0.12500227D+01  1  2 12  7  6  5       21 0.120750229935D-04 0.100000000000D+01
-.311241386186D-05 0.000000000000D+00 0.000000000000D+00 0.218355373358D-04 0.000000000000D+00  6 -2 2 25 23 2 -2 4 0.30445950D-02 0.18079890D+00 0.14357821D+05 0.14357821D+05 0.14357821D+05 0.12499947D+01  1  2  5  7  6  5       21 -.627718427074D-02 0.100000000000D+01
0.368253732688D-05 0.000000000000D+00 0.000000000000D+00 0.218355373358D-04 0.398648226708D-06  6 -2 2 25 23 2 -2 4 0.30445950D-02 0.18079890D+00 0.14349736D+05 0.14349736D+05 0.14349736D+05 0.12500227D+01  1  2 11  7  6  5       21 0.742758666390D-02 0.100000000000D+01
0.592856983747D-08 0.000000000000D+00 0.000000000000D+00 0.218365168457D-04 0.000000000000D+00  6 -2 2 25 23 4 -4 4 0.30445950D-02 0.18079890D+00 0.14349736D+05 0.14349736D+05 0.14349736D+05 0.12500227D+01  1  2 12  8  6  5       21 0.119577786596D-04 0.100000000000D+01
0.598669862886D-08 0.000000000000D+00 0.000000000000D+00 0.218365168457D-04 0.000000000000D+00  6 -2 2 25 23 4 -4 4 0.30445950D-02 0.18079890D+00 0.14349736D+05 0.14349736D+05 0.14349736D+05 0.12500227D+01  1  2 12  8  6  5       21 0.120750229935D-04 0.100000000000D+01
-.311241386186D-05 0.000000000000D+00 0.000000000000D+00 0.218355373358D-04 0.000000000000D+00  6 -2 2 25 23 4 -4 4 0.30445950D-02 0.18079890D+00 0.14357821D+05 0.14357821D+05 0.14357821D+05 0.12499947D+01  1  2  5  8  6  5       21 -.627718427074D-02 0.100000000000D+01
0.369970591013D-05 0.000000000000D+00 0.000000000000D+00 0.218355373358D-04 0.399818924163D-06  6 -2 2 25 23 4 -4 4 0.30445950D-02 0.18079890D+00 0.14349736D+05 0.14349736D+05 0.14349736D+05 0.12500227D+01  1  2 11  8  6  5       21 0.746221527147D-02 0.100000000000D+01
  </mgrwgt>
  </event>
  <event>
  6     66 0.42185105E-03 0.36887745E+02 0.75467711E-02 0.11422915E+00
       -2 -1    0    0    0  501 0.00000000E+00 0.00000000E+00 0.13535736E+03 0.13535774E+03 0.32000000E+00 0.0000E+00 0.9000E+01
        2 -1    0    0  503    0 0.00000000E+00 0.00000000E+00 -.38674178E+03 0.38674192E+03 0.32000000E+00 0.0000E+00 0.9000E+01
       25  1    1    2    0    0 0.97143355E+02 -.13638572E+02 -.79744351E+02 0.17778359E+03 0.12500000E+03 0.0000E+00 0.9000E+01
       23  1    1    2    0    0 -.16271519E+03 -.16162700E+02 -.70184385E+02 0.19994641E+03 0.91188000E+02 0.0000E+00 0.9000E+01
       21  1    1    2  502  501 0.21003273E+02 0.10397792E+02 0.78607220E+01 0.24730649E+02 0.75000000E+00 0.0000E+00 0.9000E+01
       21  1    1    2  503  502 0.44568566E+02 0.19403480E+02 -.10931641E+03 0.11963901E+03 0.75000000E+00 0.0000E+00 0.9000E+01
#aMCatNLO 2  0  0  2  1 0.48609177D+02 0.00000000D+00  -5  6  0 0.00000000D+00 0.00000000D+00 0.00000000D+00 0.00000000D+00 0.00000000D+00
  <mgrwgt>
 0.5635203403D-01    1    2    0
 0.186700560527704D+03 0.000000000000000D+00 0.000000000000000D+00 0.186700560527704D+03
 0.186700560527704D+03 0.000000000000000D+00 0.000000000000000D+00 -.186700560527704D+03
 0.172163436927826D+03 0.116876249117751D+03 -.504776283681989D+01 -.181579596130707D+02
 0.168545152911899D+03 -.141575443887542D+03 -.695939600525978D+01 0.421570139634689D+00
 0.326925312156830D+02 0.246991947697908D+02 0.120071588420797D+02 0.177363894734360D+02
 0.000000000000000D+00 0.000000000000000D+00 0.000000000000000D+00 -.000000000000000D+00
 0.195738034843408D+03 0.000000000000000D+00 0.000000000000000D+00 0.195738034843408D+03
 0.267437230231533D+03 0.000000000000000D+00 0.000000000000000D+00 -.267437230231533D+03
 0.159928248879409D+03 0.971405430610104D+02 -.136399481720477D+02 -.181579596130707D+02
 0.187227155471210D+03 -.162718453488370D+03 -.161642684588986D+02 0.421570139634689D+00
 0.293963839955635D+02 0.210093445496250D+02 0.104007366112385D+02 0.177363894734360D+02
 0.866234767287579D+02 0.445685658777342D+02 0.194034800197079D+02 -.716991953881250D+02
0.169457826248D-03 0.000000000000D+00 0.000000000000D+00 0.129068994468D-04 0.364957221973D-07  6 -2 2 25 23 21 21 4 0.20824081D-01 0.59498297D-01 0.43717126D+05 0.43717126D+05 0.43717126D+05 0.11981009D+01  1  2  1  2  6  2        2 0.563520340270D-01 0.100000000000D+01
  </mgrwgt>
  </event>
  <event>
  6     66 0.42185105E-03 0.17753179E+03 0.75467711E-02 0.10809427E+00
       21 -1    0    0  503  501 0.00000000E+00 0.00000000E+00 0.18476144E+03 0.18476296E+03 0.75000000E+00 0.0000E+00 0.9000E+01
        2 -1    0    0  502    0 0.00000000E+00 0.00000000E+00 -.12730253E+04 0.12730254E+04 0.32000000E+00 0.0000E+00 0.9000E+01
       25  1    1    2    0    0 -.99683977E+02 0.61746789E+02 -.36983220E+03 0.40761552E+03 0.12500000E+03 0.0000E+00 0.9000E+01
       23  1    1    2    0    0 -.13734740E+03 -.11130371E+03 -.42721928E+03 0.47125831E+03 0.91188000E+02 0.0000E+00 0.9000E+01
        2  1    1    2  503    0 0.37500117E+02 0.27412084E+02 0.11597193E+03 0.12492907E+03 0.32000000E+00 0.0000E+00 0.9000E+01
       21  1    1    2  502  501 0.19953126E+03 0.22144835E+02 -.40718435E+03 0.45398544E+03 0.75000000E+00 0.0000E+00 0.9000E+01
#aMCatNLO 2  0  0  1  5 0.46450846D+02 0.00000000D+00  -5  6  0 0.00000000D+00 0.00000000D+00 0.00000000D+00 0.00000000D+00 0.00000000D+00
  <mgrwgt>
 0.4527883556D-02    2    2    0
 0.284680611531377D+03 0.000000000000000D+00 0.000000000000000D+00 0.284680611531377D+03
 0.284680611531377D+03 0.000000000000000D+00 0.000000000000000D+00 -.284680611531377D+03
 0.168405378587050D+03 -.885116071042855D+02 0.699138635386367D+02 -.362196493150027D+01
 0.185201936746766D+03 -.124718162240127D+03 -.102071661995796D+03 -.335586883153285D+01
 0.000000000000000D+00 0.000000000000000D+00 0.000000000000000D+00 0.000000000000000D+00
 0.215753907728939D+03 0.213229769344413D+03 0.321577984571595D+02 0.697783376303312D+01
 0.820580928907735D+03 0.000000000000000D+00 0.000000000000000D+00 0.820580928907735D+03
 0.286634801360240D+03 0.000000000000000D+00 0.000000000000000D+00 -.286634801360240D+03
 0.171428557134652D+03 -.996843709635721D+02 0.617467226409682D+02 -.362196493150027D+01
 0.198945911176864D+03 -.137347840270336D+03 -.111303787659955D+03 -.335586883153285D+01
 0.535962823550676D+03 0.375001169307422D+02 0.274120837520302D+02 0.533946127547495D+03
 0.200878438405783D+03 0.199532094303166D+03 0.221449812669568D+02 0.697783376303312D+01
-.356385955955D-04 0.000000000000D+00 0.000000000000D+00 0.348163728448D-06 0.000000000000D+00  6 21 2 25 23 2 21 4 0.28467452D-01 0.19451489D+00 0.95331487D+05 0.95331487D+05 0.95331487D+05 0.11654839D+01  1  2 13  4  5  1       -2 -.174080014933D-01 0.100000000000D+01
0.452831434847D-04 0.000000000000D+00 0.000000000000D+00 0.352114388510D-06 0.284685689594D-09  6 21 2 25 23 2 21 4 0.28424952D-01 0.19585014D+00 0.95331487D+05 0.95331487D+05 0.95331487D+05 0.11654839D+01  1  2  1  4  5  1       -2 0.219358850489D-01 0.100000000000D+01
  </mgrwgt>
  </event>
  <event>
  5     66 0.42185105E-03 0.86204699E+02 0.75467711E-02 0.10917520E+00
       -2 -1    0    0    0  501 0.00000000E+00 0.00000000E+00 0.67967276E+02 0.67968029E+02 0.32000000E+00 0.0000E+00 0.9000E+01
        2 -1    0    0  502    0 0.00000000E+00 0.00000000E+00 -.23903702E+04 0.23903702E+04 0.32000000E+00 0.0000E+00 0.9000E+01
       25  1    1    2    0    0 0.20493371E+03 -.96452339E+02 -.19824530E+04 0.19992613E+04 0.12500000E+03 0.0000E+00 0.9000E+01
       23  1    1    2    0    0 -.14793221E+03 0.31787222E+02 -.97552731E+02 0.20180722E+03 0.91188000E+02 0.0000E+00 0.9000E+01
       21  1    1    2  502  501 -.57001498E+02 0.64665117E+02 -.24239721E+03 0.25726974E+03 0.75000000E+00 0.0000E+00 0.9000E+01
#aMCatNLO 1  0  0  2  5 0.52962756D+02 0.00000000D+00  -5  6  0 0.00000000D+00 0.00000000D+00 0.00000000D+00 0.00000000D+00 0.00000000D+00
  <mgrwgt>
 0.1436514190D+00    7    4    0
 0.403073071014559D+03 0.000000000000000D+00 0.000000000000000D+00 0.403073071014559D+03
 0.403073071014559D+03 0.000000000000000D+00 0.000000000000000D+00 -.403073071014559D+03
 0.385546216484018D+03 0.204934744010594D+03 -.964535091279243D+02 -.285865976148550D+03
 0.334372673787533D+03 -.147931320382071D+03 0.317862075467764D+02 0.283893985655975D+03
 0.862272517575666D+02 -.570034236285228D+02 0.646673015811479D+02 0.197199049257561D+01
 0.000000000000000D+00 -.000000000000000D+00 -.000000000000000D+00 -.000000000000000D+00
 0.427524774702782D+03 0.000000000000000D+00 0.000000000000000D+00 0.427524774702782D+03
 0.433678322981212D+03 0.000000000000000D+00 0.000000000000000D+00 -.433678322981212D+03
 0.392031788212119D+03 0.223757785069316D+03 -.792276483956309D+02 -.285865976148550D+03
 0.329333631492326D+03 -.131864802348169D+03 0.464894428657379D+02 0.283893985655975D+03
 0.865186411835459D+02 -.528217170782880D+02 0.684941802684406D+02 0.197199049257561D+01
 0.533190367960032D+02 -.390712656428598D+02 -.357559747385476D+02 -.615354827843047D+01
 0.403073071014559D+03 0.000000000000000D+00 0.000000000000000D+00 0.403073071014559D+03
 0.403073071014559D+03 0.000000000000000D+00 0.000000000000000D+00 -.403073071014559D+03
 0.385546216484018D+03 0.204934744010594D+03 -.964535091279243D+02 -.285865976148550D+03
 0.334372673787533D+03 -.147931320382071D+03 0.317862075467764D+02 0.283893985655975D+03
 0.000000000000000D+00 -.000000000000000D+00 -.000000000000000D+00 -.000000000000000D+00
 0.862272517575666D+02 -.570034236285228D+02 0.646673015811479D+02 0.197199049257561D+01
 0.427524774702782D+03 0.000000000000000D+00 0.000000000000000D+00 0.427524774702782D+03
 0.433678322981212D+03 0.000000000000000D+00 0.000000000000000D+00 -.433678322981212D+03
 0.392031788212119D+03 0.223757785069316D+03 -.792276483956309D+02 -.285865976148550D+03
 0.329333631492326D+03 -.131864802348169D+03 0.464894428657379D+02 0.283893985655975D+03
 0.533190367960032D+02 -.390712656428598D+02 -.357559747385476D+02 -.615354827843047D+01
 0.865186411835459D+02 -.528217170782880D+02 0.684941802684406D+02 0.197199049257561D+01
0.930612680288D-03 0.000000000000D+00 0.000000000000D+00 0.389426386473D-06 0.000000000000D+00  6 -2 2 25 23 21 21 2 0.10456564D-01 0.36774932D+00 0.68008251D+05 0.68008251D+05 0.68008251D+05 0.11792737D+01  1  2  2  2  6  2        2 0.369724987991D-01 0.100000000000D+01
0.162551355480D-04 0.491097803538D-04 -.357379772825D-05 0.389426386473D-06 0.000000000000D+00  6 -2 2 25 23 21 21 4 0.10456564D-01 0.36774932D+00 0.68008251D+05 0.68008251D+05 0.68008251D+05 0.11792737D+01  1  2  3  2  6  2        2 0.898110273339D-03 0.100000000000D+01
0.216462014460D-04 0.000000000000D+00 0.000000000000D+00 0.389426386473D-06 0.000000000000D+00  6 -2 2 25 23 21 21 4 0.10456564D-01 0.36774932D+00 0.68008251D+05 0.68008251D+05 0.68008251D+05 0.11792737D+01  1  2 15  2  6  2        2 0.119597131872D-02 0.100000000000D+01
-.376422542233D-03 0.000000000000D+00 0.000000000000D+00 0.389426386473D-06 0.000000000000D+00  6 -2 2 25 23 21 21 4 0.10456564D-01 0.36774932D+00 0.68008251D+05 0.68008251D+05 0.68008251D+05 0.11792737D+01  1  2  4  2  6  2        2 -.207976704529D-01 0.100000000000D+01
-.800132188071D-02 0.000000000000D+00 -.190204020231D-02 0.389426386473D-06 0.000000000000D+00  6 -2 2 25 23 21 21 4 0.10456564D-01 0.40543263D+00 0.68008251D+05 0.68008251D+05 0.68008251D+05 0.11792737D+01  1  2  5  2  6  2        2 -.324455404975D+00 0.100000000000D+01
0.815704219818D-02 0.000000000000D+00 0.189302544680D-02 0.389426386473D-06 0.000000000000D+00  6 -2 2 25 23 21 21 4 0.10456564D-01 0.36774932D+00 0.68008251D+05 0.68008251D+05 0.68008251D+05 0.11792737D+01  1  2  6  2  6  2        2 0.450683624052D+00 0.100000000000D+01
-.121214338119D-03 0.000000000000D+00 -.302383167987D-04 0.389426386473D-06 0.000000000000D+00  6 -2 21 25 23 -2 21 4 0.10456564D-01 0.40543263D+00 0.68008251D+05 0.68008251D+05 0.68008251D+05 0.11792737D+01  3  4  5  5  5  2        2 -.845709996636D-03 0.100000000000D+01
  </mgrwgt>
  </event>
  <event>
  5     66 0.42185105E-03 0.33708399E+02 0.75467711E-02 0.12302095E+00
       -4 -1    0    0    0  501 0.00000000E+00 0.00000000E+00 0.14156665E+03 0.14157514E+03 0.15500000E+01 0.0000E+00 0.9000E+01
        4 -1    0    0  502    0 0.00000000E+00 0.00000000E+00 -.13793295E+03 0.13794166E+03 0.15500000E+01 0.0000E+00 0.9000E+01
       25  1    1    2    0    0 -.14065612E+02 -.31129452E+02 -.51251607E+02 0.13935068E+03 0.12500000E+03 0.0000E+00 0.9000E+01
       23  1    1    2    0    0 -.13810369E+02 0.12190193E+02 0.51378382E+02 0.10627472E+03 0.91188000E+02 0.0000E+00 0.9000E+01
       21  1    1    2  502  501 0.27875981E+02 0.18939259E+02 0.35069249E+01 0.33891398E+02 0.75000000E+00 0.0000E+00 0.9000E+01
#aMCatNLO 1  0  0  5  1 0.12581502D+02 0.00000000D+00  -5  6  0 0.00000000D+00 0.00000000D+00 0.00000000D+00 0.00000000D+00 0.00000000D+00
  <mgrwgt>
 0.5490317631D-01   14    2    0
 0.139746589067142D+03 0.000000000000000D+00 0.000000000000000D+00 0.139746589067142D+03
 0.139746589067142D+03 -.000000000000000D+00 -.000000000000000D+00 -.139746589067142D+03
 0.140029783695949D+03 -.140690415149753D+02 -.311317818500822D+02 -.530680181618182D+02
 0.105615732099806D+03 -.138129558754029D+02 0.121884351639214D+02 0.500007582064225D+02
 0.338476623385294D+02 0.278819973903781D+02 0.189433466861608D+02 0.306725995539572D+01
 0.000000000000000D+00 0.000000000000000D+00 0.000000000000000D+00 -.000000000000000D+00
 0.139746589067142D+03 0.000000000000000D+00 0.000000000000000D+00 0.139746589067142D+03
 0.139746589067142D+03 -.000000000000000D+00 -.000000000000000D+00 -.139746589067142D+03
 0.138816196493185D+03 -.958759593766482D+01 -.280870366678217D+02 -.525750205343845D+02
 0.105695154112653D+03 -.104168938779803D+02 0.144957583762488D+02 0.503743542879690D+02
 0.179238923497605D+02 0.339639039532767D+01 0.172324252675520D+02 0.357406892023137D+01
 0.170579351786866D+02 0.166080994203174D+02 -.364114697597916D+01 -.137340267381589D+01
0.492927146435D-03 0.000000000000D+00 0.000000000000D+00 0.105716160001D-04 0.000000000000D+00  6 -4 4 25 23 21 21 2 0.21780808D-01 0.21221777D-01 0.16425367D+05 0.16425367D+05 0.16425367D+05 0.12433531D+01  1  2  2  3  6  5       21 0.488010485188D-01 0.100000000000D+01
0.382555105244D-04 0.260124801699D-04 -.189297003301D-05 0.105716160001D-04 0.000000000000D+00  6 -4 4 25 23 21 21 4 0.21780808D-01 0.21221777D-01 0.16425367D+05 0.16425367D+05 0.16425367D+05 0.12433531D+01  1  2  3  3  6  5       21 0.585503320322D-02 0.100000000000D+01
0.232952834237D-04 0.000000000000D+00 0.000000000000D+00 0.105716160001D-04 0.000000000000D+00  6 -4 4 25 23 21 21 4 0.21780808D-01 0.21221777D-01 0.16425367D+05 0.16425367D+05 0.16425367D+05 0.12433531D+01  1  2 15  3  6  5       21 0.356535976268D-02 0.100000000000D+01
0.134488044413D-03 0.000000000000D+00 0.000000000000D+00 0.105739754358D-04 0.000000000000D+00  6 -4 4 25 23 21 21 4 0.21780808D-01 0.21221777D-01 0.16378898D+05 0.16378898D+05 0.16378898D+05 0.12434918D+01  1  2 12  3  6  5       21 0.205866076890D-01 0.100000000000D+01
0.136413165365D-03 0.000000000000D+00 0.000000000000D+00 0.105739754358D-04 0.000000000000D+00  6 -4 4 25 23 21 21 4 0.21780808D-01 0.21221777D-01 0.16378898D+05 0.16378898D+05 0.16378898D+05 0.12434918D+01  1  2 12  3  6  5       21 0.208812934358D-01 0.100000000000D+01
-.330805452377D-03 0.000000000000D+00 0.000000000000D+00 0.105716160001D-04 0.000000000000D+00  6 -4 4 25 23 21 21 4 0.21780808D-01 0.21221777D-01 0.16425367D+05 0.16425367D+05 0.16425367D+05 0.12433531D+01  1  2  4  3  6  5       21 -.506300107077D-01 0.100000000000D+01
0.473821574151D-05 0.000000000000D+00 0.000000000000D+00 0.105739754358D-04 0.000000000000D+00  6 -4 4 25 23 1 -1 4 0.21780808D-01 0.21221777D-01 0.16378898D+05 0.16378898D+05 0.16378898D+05 0.12434918D+01  1  2 12  6  6  5       21 0.725297100141D-03 0.100000000000D+01
0.473821574151D-05 0.000000000000D+00 0.000000000000D+00 0.105739754358D-04 0.000000000000D+00  6 -4 4 25 23 3 -3 4 0.21780808D-01 0.21221777D-01 0.16378898D+05 0.16378898D+05 0.16378898D+05 0.12434918D+01  1  2 12  6  6  5       21 0.725297100141D-03 0.100000000000D+01
0.480594056673D-05 0.000000000000D+00 0.000000000000D+00 0.105739754358D-04 0.000000000000D+00  6 -4 4 25 23 1 -1 4 0.21780808D-01 0.21221777D-01 0.16378898D+05 0.16378898D+05 0.16378898D+05 0.12434918D+01  1  2 12  6  6  5       21 0.735664002372D-03 0.100000000000D+01
0.480594056673D-05 0.000000000000D+00 0.000000000000D+00 0.105739754358D-04 0.000000000000D+00  6 -4 4 25 23 3 -3 4 0.21780808D-01 0.21221777D-01 0.16378898D+05 0.16378898D+05 0.16378898D+05 0.12434918D+01  1  2 12  6  6  5       21 0.735664002372D-03 0.100000000000D+01
0.473821574151D-05 0.000000000000D+00 0.000000000000D+00 0.105739754358D-04 0.000000000000D+00  6 -4 4 25 23 4 -4 4 0.21780808D-01 0.21221777D-01 0.16378898D+05 0.16378898D+05 0.16378898D+05 0.12434918D+01  1  2 12  7  6  5       21 0.725297100141D-03 0.100000000000D+01
0.480594056673D-05 0.000000000000D+00 0.000000000000D+00 0.105739754358D-04 0.000000000000D+00  6 -4 4 25 23 4 -4 4 0.21780808D-01 0.21221777D-01 0.16378898D+05 0.16378898D+05 0.16378898D+05 0.12434918D+01  1  2 12  7  6  5       21 0.735664002372D-03 0.100000000000D+01
0.473821574151D-05 0.000000000000D+00 0.000000000000D+00 0.105739754358D-04 0.000000000000D+00  6 -4 4 25 23 2 -2 4 0.21780808D-01 0.21221777D-01 0.16378898D+05 0.16378898D+05 0.16378898D+05 0.12434918D+01  1  2 12  8  6  5       21 0.725297100141D-03 0.100000000000D+01
0.480594056673D-05 0.000000000000D+00 0.000000000000D+00 0.105739754358D-04 0.000000000000D+00  6 -4 4 25 23 2 -2 4 0.21780808D-01 0.21221777D-01 0.16378898D+05 0.16378898D+05 0.16378898D+05 0.12434918D+01  1  2 12  8  6  5       21 0.735664002372D-03 0.100000000000D+01
  </mgrwgt>
  </event>
  <event>
  5     66 0.42185105E-03 0.28729731E+02 0.75467711E-02 0.10649360E+00
       -2 -1    0    0    0  501 0.00000000E+00 0.00000000E+00 0.60770335E+02 0.60771177E+02 0.32000000E+00 0.0000E+00 0.9000E+01
        2 -1    0    0  502    0 -.00000000E+00 -.00000000E+00 -.26272764E+04 0.26272764E+04 0.32000000E+00 0.0000E+00 0.9000E+01
       25  1    1    2    0    0 0.48310498E+02 0.27970605E+03 -.86794196E+03 0.92169280E+03 0.12500000E+03 0.0000E+00 0.9000E+01
       23  1    1    2    0    0 -.37474506E+02 -.30631359E+03 -.73490683E+03 0.80226906E+03 0.91188000E+02 0.0000E+00 0.9000E+01
       21  1    1    2  502  501 -.10835992E+02 0.26607545E+02 -.96365726E+03 0.96408571E+03 0.75000000E+00 0.0000E+00 0.9000E+01
#aMCatNLO 1  0  0  5  2 0.35216778D+02 0.00000000D+00  -5  6  0 0.00000000D+00 0.00000000D+00 0.00000000D+00 0.00000000D+00 0.00000000D+00
  <mgrwgt>
 0.1039463772D+01   10    2    0
 0.399576805773971D+03 0.000000000000000D+00 0.000000000000000D+00 0.399576805773971D+03
 0.399576805773971D+03 -.000000000000000D+00 -.000000000000000D+00 -.399576805773971D+03
 0.312800696291637D+03 0.483105525495428D+02 0.279705914621526D+03 0.406197912184005D+02
 0.338351589559540D+03 -.374744475736674D+02 -.306313737670495D+03 0.104566279014065D+03
 0.148001325696765D+03 -.108361049758754D+02 0.266078230489693D+02 -.145186070232465D+03
 0.000000000000000D+00 0.000000000000000D+00 0.000000000000000D+00 -.000000000000000D+00
 0.399576805773971D+03 0.000000000000000D+00 0.000000000000000D+00 0.399576805773971D+03
 0.399576805773971D+03 -.000000000000000D+00 -.000000000000000D+00 -.399576805773971D+03
 0.313212296359694D+03 0.475365660620637D+02 0.281606421819175D+03 0.302496391406666D+02
 0.333311550756011D+03 -.383048747386696D+02 -.304274641601323D+03 0.934399142391407D+02
 0.401318833113043D+02 -.280815076308649D+02 0.256435609874002D+02 -.128220422388677D+02
 0.112497881120932D+03 0.188498163074708D+02 -.297534120525178D+01 -.110867511140940D+03
0.183054816024D-01 0.000000000000D+00 0.000000000000D+00 0.948124693265D-05 0.000000000000D+00  6 -2 2 25 23 21 21 2 0.93493486D-02 0.40419643D+00 0.10912124D+06 0.10912124D+06 0.10912124D+06 0.11601052D+01  1  2  2  3  6  5       21 0.612909556571D+00 0.100000000000D+01
0.590283791919D-02 0.966006803696D-03 -.702978692971D-04 0.948124693265D-05 0.000000000000D+00  6 -2 2 25 23 21 21 4 0.93493486D-02 0.40419643D+00 0.10912124D+06 0.10912124D+06 0.10912124D+06 0.11601052D+01  1  2  3  3  6  5       21 0.265993390855D+00 0.100000000000D+01
0.376971653315D-03 0.000000000000D+00 0.000000000000D+00 0.948124693265D-05 0.000000000000D+00  6 -2 2 25 23 21 21 4 0.93493486D-02 0.40419643D+00 0.10912124D+06 0.10912124D+06 0.10912124D+06 0.11601052D+01  1  2 15  3  6  5       21 0.169870780282D-01 0.100000000000D+01
-.570481286244D-02 0.000000000000D+00 0.000000000000D+00 0.948124693265D-05 0.000000000000D+00  6 -2 2 25 23 21 21 4 0.93493486D-02 0.40419643D+00 0.10912124D+06 0.10912124D+06 0.10912124D+06 0.11601052D+01  1  2  4  3  6  5       21 -.257069995525D+00 0.100000000000D+01
-.250964196348D-02 0.000000000000D+00 0.000000000000D+00 0.948124693265D-05 0.000000000000D+00  6 -2 2 25 23 21 21 4 0.93493486D-02 0.40419643D+00 0.10912124D+06 0.10912124D+06 0.10912124D+06 0.11601052D+01  1  2  5  3  6  5       21 -.113089362241D+00 0.100000000000D+01
0.125551747811D-01 0.000000000000D+00 -.000000000000D+00 0.948124693265D-05 0.000000000000D+00  6 -2 2 25 23 21 21 4 0.93493486D-02 0.40419643D+00 0.10912124D+06 0.10912124D+06 0.10912124D+06 0.11601052D+01  1  2  6  3  6  5       21 0.565760666058D+00 0.100000000000D+01
-.288644637018D-03 0.000000000000D+00 0.000000000000D+00 0.948124693265D-05 0.000000000000D+00  6 -2 2 25 23 1 -1 4 0.93493486D-02 0.40419643D+00 0.10912124D+06 0.10912124D+06 0.10912124D+06 0.11601052D+01  1  2  5  6  6  5       21 -.130068903811D-01 0.100000000000D+01
-.288644637018D-03 0.000000000000D+00 0.000000000000D+00 0.948124693265D-05 0.000000000000D+00  6 -2 2 25 23 3 -3 4 0.93493486D-02 0.40419643D+00 0.10912124D+06 0.10912124D+06 0.10912124D+06 0.11601052D+01  1  2  5  6  6  5       21 -.130068903811D-01 0.100000000000D+01
-.288644637018D-03 0.000000000000D+00 0.000000000000D+00 0.948124693265D-05 0.000000000000D+00  6 -2 2 25 23 2 -2 4 0.93493486D-02 0.40419643D+00 0.10912124D+06 0.10912124D+06 0.10912124D+06 0.11601052D+01  1  2  5  7  6  5       21 -.130068903811D-01 0.100000000000D+01
-.288644637018D-03 0.000000000000D+00 0.000000000000D+00 0.948124693265D-05 0.000000000000D+00  6 -2 2 25 23 4 -4 4 0.93493486D-02 0.40419643D+00 0.10912124D+06 0.10912124D+06 0.10912124D+06 0.11601052D+01  1  2  5  8  6  5       21 -.130068903811D-01 0.100000000000D+01
  </mgrwgt>
  </event>
  <event>
  5     66 0.42185105E-03 0.53919248E+02 0.75467711E-02 0.12090316E+00
       -2 -1    0    0    0  501 0.00000000E+00 0.00000000E+00 0.42638752E+03 0.42638764E+03 0.32000000E+00 0.0000E+00 0.9000E+01
        2 -1    0    0  502    0 0.00000000E+00 0.00000000E+00 -.45336850E+02 0.45337980E+02 0.32000000E+00 0.0000E+00 0.9000E+01
       25  1    1    2    0    0 -.25074623E+02 -.25070796E+01 0.17590898E+03 0.21726480E+03 0.12500000E+03 0.0000E+00 0.9000E+01
       23  1    1    2    0    0 -.27752185E+02 -.82711796E+01 0.11705288E+03 0.15117945E+03 0.91188000E+02 0.0000E+00 0.9000E+01
       21  1    1    2  502  501 0.52826808E+02 0.10778259E+02 0.88088796E+02 0.10328137E+03 0.75000000E+00 0.0000E+00 0.9000E+01
#aMCatNLO 1  0  0  1  1 0.92269996D+01 0.00000000D+00  -5  6  0 0.00000000D+00 0.00000000D+00 0.00000000D+00 0.00000000D+00 0.00000000D+00
  <mgrwgt>
 0.4375117394D-02    9    4    0
 0.139037266980057D+03 0.000000000000000D+00 0.000000000000000D+00 0.139037266980057D+03
 0.139037266980057D+03 0.000000000000000D+00 0.000000000000000D+00 -.139037266980057D+03
 0.127517117494885D+03 -.250769177062486D+02 -.250754772191356D+01 0.689678896732735D+00
 0.960616264951861D+02 -.277539134869314D+02 -.827153230635088D+01 -.859574199040141D+01
 0.544957899700434D+02 0.528308311931800D+02 0.107790800282644D+02 0.790606309366867D+01
 0.000000000000000D+00 0.000000000000000D+00 -.000000000000000D+00 0.000000000000000D+00
 0.144145767672088D+03 0.000000000000000D+00 0.000000000000000D+00 0.144145767672088D+03
 0.143343610257024D+03 0.000000000000000D+00 0.000000000000000D+00 -.143343610257024D+03
 0.128012169411641D+03 -.275827969767381D+02 0.910588509796483D+00 0.689678896732735D+00
 0.964376369899021D+02 -.296416811075886D+02 -.569652920176908D+01 -.859574199040141D+01
 0.537777694397630D+02 0.517690332624935D+02 0.122274219417698D+02 0.790606309366867D+01
 0.926180208780629D+01 0.545544482183317D+01 -.744148124979724D+01 0.802157415064272D+00
 0.139037266980057D+03 0.000000000000000D+00 0.000000000000000D+00 0.139037266980057D+03
 0.139037266980057D+03 0.000000000000000D+00 0.000000000000000D+00 -.139037266980057D+03
 0.127517117494885D+03 -.250769177062486D+02 -.250754772191356D+01 0.689678896732735D+00
 0.960616264951861D+02 -.277539134869314D+02 -.827153230635088D+01 -.859574199040141D+01
 0.000000000000000D+00 0.000000000000000D+00 -.000000000000000D+00 0.000000000000000D+00
 0.544957899700434D+02 0.528308311931800D+02 0.107790800282644D+02 0.790606309366867D+01
 0.144145767672088D+03 0.000000000000000D+00 0.000000000000000D+00 0.144145767672088D+03
 0.143343610257024D+03 0.000000000000000D+00 0.000000000000000D+00 -.143343610257024D+03
 0.128012169411641D+03 -.275827969767381D+02 0.910588509796483D+00 0.689678896732735D+00
 0.964376369899021D+02 -.296416811075886D+02 -.569652920176908D+01 -.859574199040141D+01
 0.926180208780629D+01 0.545544482183317D+01 -.744148124979724D+01 0.802157415064272D+00
 0.537777694397630D+02 0.517690332624935D+02 0.122274219417698D+02 0.790606309366867D+01
0.391304797020D-04 0.000000000000D+00 0.000000000000D+00 0.570488551509D-05 0.000000000000D+00  6 -2 2 25 23 21 21 2 0.65598175D-01 0.69749961D-02 0.19197595D+05 0.19197595D+05 0.19197595D+05 0.12357886D+01  1  2  2  1  6  1       -2 0.128102888182D-01 0.100000000000D+01
-.276725999921D-06 0.206497214578D-05 -.150271345348D-06 0.570488551509D-05 0.000000000000D+00  6 -2 2 25 23 21 21 4 0.65598175D-01 0.69749961D-02 0.19197595D+05 0.19197595D+05 0.19197595D+05 0.12357886D+01  1  2  3  1  6  1       -2 -.138350937702D-03 0.100000000000D+01
0.223313435256D-05 0.000000000000D+00 0.000000000000D+00 0.570488551509D-05 0.000000000000D+00  6 -2 2 25 23 21 21 4 0.65598175D-01 0.69749961D-02 0.19197595D+05 0.19197595D+05 0.19197595D+05 0.12357886D+01  1  2 15  1  6  1       -2 0.111646983579D-02 0.100000000000D+01
-.338783374196D-04 0.000000000000D+00 0.000000000000D+00 0.570488551509D-05 0.000000000000D+00  6 -2 2 25 23 21 21 4 0.65598175D-01 0.69749961D-02 0.19197595D+05 0.19197595D+05 0.19197595D+05 0.12357886D+01  1  2  4  1  6  1       -2 -.169376919810D-01 0.100000000000D+01
-.720337367549D-03 0.000000000000D+00 -.121323542200D-03 0.570488551509D-05 0.000000000000D+00  6 -2 2 25 23 21 21 4 0.69822361D-01 0.69749961D-02 0.19197595D+05 0.19197595D+05 0.19197595D+05 0.12357886D+01  1  2  5  1  6  1       -2 -.315725043568D+00 0.100000000000D+01
0.726729000769D-03 0.000000000000D+00 0.121087673827D-03 0.570488551509D-05 0.000000000000D+00  6 -2 2 25 23 21 21 4 0.65598175D-01 0.69749961D-02 0.19197595D+05 0.19197595D+05 0.19197595D+05 0.12357886D+01  1  2  6  1  6  1       -2 0.363332822867D+00 0.100000000000D+01
0.217994880336D-08 0.000000000000D+00 0.000000000000D+00 0.570488551509D-05 0.395747878637D-06  6 -2 2 25 23 21 21 4 0.68008380D-01 0.71910298D-02 0.20518349D+05 0.20518349D+05 0.20518349D+05 0.12326045D+01  1  2 11  1  6  1       -2 0.963601736213D-06 0.100000000000D+01
-.753001524866D-05 0.000000000000D+00 -.129581827094D-05 0.570488551509D-05 0.000000000000D+00  6 21 2 25 23 2 21 4 0.69822361D-01 0.69749961D-02 0.19197595D+05 0.19197595D+05 0.19197595D+05 0.12357886D+01  3  4  5  4  5  1       -2 -.400844370118D-01 0.100000000000D+01
0.178438737392D-10 0.000000000000D+00 0.000000000000D+00 0.570488551509D-05 0.597974819443D-08  6 21 2 25 23 2 21 4 0.68008380D-01 0.71910298D-02 0.20518349D+05 0.20518349D+05 0.20518349D+05 0.12326045D+01  3  4 11  4  5  1       -2 0.957704189543D-07 0.100000000000D+01
  </mgrwgt>
  </event>
  <event>
  5     66 0.42185105E-03 0.81139894E+02 0.75467711E-02 0.11066508E+00
       -2 -1    0    0    0  501 0.00000000E+00 0.00000000E+00 0.42308823E+02 0.42310033E+02 0.32000000E+00 0.0000E+00 0.9000E+01
        2 -1    0    0  502    0 -.00000000E+00 -.00000000E+00 -.16672536E+04 0.16672536E+04 0.32000000E+00 0.0000E+00 0.9000E+01
       25  1    1    2    0    0 -.84911978E+01 0.82467041E+02 -.50472032E+03 0.52653633E+03 0.12500000E+03 0.0000E+00 0.9000E+01
       23  1    1    2    0    0 -.86120091E+02 -.19047395E+03 -.55916215E+03 0.60388290E+03 0.91188000E+02 0.0000E+00 0.9000E+01
       21  1    1    2  502  501 0.94611289E+02 0.10800691E+03 -.56106229E+03 0.57914440E+03 0.75000000E+00 0.0000E+00 0.9000E+01
#aMCatNLO 1  0  0  5  1 0.19997407D+01 0.00000000D+00  -5  6  0 0.00000000D+00 0.00000000D+00 0.00000000D+00 0.00000000D+00 0.00000000D+00
  <mgrwgt>
 0.1580262980D-01    1    2    0
 0.265594796836705D+03 0.000000000000000D+00 0.000000000000000D+00 0.265594796836705D+03
 0.265594796836705D+03 -.000000000000000D+00 -.000000000000000D+00 -.265594796836705D+03
 0.150614077647644D+03 -.849154430350355D+01 0.824666457665848D+02 -.136655185412317D+02
 0.233003508771748D+03 -.861206272850725D+02 -.190474563200091D+03 0.477290486570415D+02
 0.147572007254018D+03 0.946121715885761D+02 0.108007917433506D+03 -.340635301158099D+02
 0.000000000000000D+00 0.000000000000000D+00 0.000000000000000D+00 0.000000000000000D+00
 0.265594796836705D+03 0.000000000000000D+00 0.000000000000000D+00 0.265594796836705D+03
 0.265594796836705D+03 -.000000000000000D+00 -.000000000000000D+00 -.265594796836705D+03
 0.153918414834468D+03 -.329855431658934D+01 0.883948897157743D+02 -.155351677400638D+02
 0.222386668410139D+03 -.783551615675398D+02 -.181609617327173D+03 0.449332225926876D+02
 0.150239735660947D+02 -.112403582669907D+02 -.850219592007737D+01 -.520449731300005D+01
 0.139860536862708D+03 0.928940741511198D+02 0.101716923531476D+03 -.241935575396237D+02
0.562730027992D-04 0.000000000000D+00 0.000000000000D+00 0.468907401992D-06 0.000000000000D+00  6 -2 2 25 23 21 21 4 0.65091451D-02 0.25650064D+00 0.68027675D+05 0.68027675D+05 0.68027675D+05 0.11792618D+01  1  2 14  3  6  5       21 0.158026298015D-01 0.100000000000D+01
  </mgrwgt>
  </event>
  <event>
  5     66 0.42185105E-03 0.69110929E+02 0.75467711E-02 0.11987278E+00
       -2 -1    0    0    0  501 0.00000000E+00 0.00000000E+00 0.37881250E+02 0.37882602E+02 0.32000000E+00 0.0000E+00 0.9000E+01
        2 -1    0    0  502    0 -.00000000E+00 -.00000000E+00 -.77619589E+03 0.77619596E+03 0.32000000E+00 0.0000E+00 0.9000E+01
       25  1    1    2    0    0 0.33244742E+02 -.11249545E+02 -.27696573E+03 0.30588687E+03 0.12500000E+03 0.0000E+00 0.9000E+01
       23  1    1    2    0    0 -.24457085E+02 0.79797272E+02 -.38886021E+03 0.40803586E+03 0.91188000E+02 0.0000E+00 0.9000E+01
       21  1    1    2  502  501 -.87876569E+01 -.68547727E+02 -.72488710E+02 0.10015583E+03 0.75000000E+00 0.0000E+00 0.9000E+01
#aMCatNLO 1  0  0  5  2 0.30681940D+02 0.00000000D+00  -5  6  0 0.00000000D+00 0.00000000D+00 0.00000000D+00 0.00000000D+00 0.00000000D+00
  <mgrwgt>
 0.2159908067D-01    9    2    0
 0.171475502111104D+03 0.000000000000000D+00 0.000000000000000D+00 0.171475502111104D+03
 0.171475502111104D+03 -.000000000000000D+00 -.000000000000000D+00 -.171475502111104D+03
 0.129837996750344D+03 0.332448823255664D+02 -.112484513931045D+02 0.107496072413609D+01
 0.131425090691080D+03 -.244569432413040D+02 0.797983797217131D+02 -.446248769212814D+02
 0.816879167807850D+02 -.878793908426237D+01 -.685499283286086D+02 0.435499161971453D+02
 0.000000000000000D+00 0.000000000000000D+00 0.000000000000000D+00 -.000000000000000D+00
 0.171475502111104D+03 0.000000000000000D+00 0.000000000000000D+00 0.171475502111104D+03
 0.171475502111104D+03 -.000000000000000D+00 -.000000000000000D+00 -.171475502111104D+03
 0.130774503681053D+03 0.321195591409207D+02 -.200264848904154D+02 0.665166419421223D+01
 0.124763634760688D+03 -.255631645926148D+02 0.711693492265279D+02 -.391428353773941D+02
 0.498810449288863D+02 -.942742297165719D+01 -.163163733274256D+02 0.461846110815185D+02
 0.375318208515814D+02 0.287102842335127D+01 -.348264910086869D+02 -.136934398983366D+02
0.304141536722D-04 0.000000000000D+00 0.000000000000D+00 0.293193414262D-05 0.000000000000D+00  6 -2 2 25 23 21 21 2 0.58279937D-02 0.11941486D+00 0.26011484D+05 0.26011484D+05 0.26011484D+05 0.12214552D+01  1  2  2  3  6  5       21 0.252994681274D-01 0.100000000000D+01
-.929430647109D-06 0.160499898414D-05 -.116798358332D-06 0.293193414262D-05 0.000000000000D+00  6 -2 2 25 23 21 21 4 0.58279937D-02 0.11941486D+00 0.26011484D+05 0.26011484D+05 0.26011484D+05 0.12214552D+01  1  2  3  3  6  5       21 -.115347377495D-02 0.100000000000D+01
0.123271090249D-05 0.000000000000D+00 0.000000000000D+00 0.293193414262D-05 0.000000000000D+00  6 -2 2 25 23 21 21 4 0.58279937D-02 0.11941486D+00 0.26011484D+05 0.26011484D+05 0.26011484D+05 0.12214552D+01  1  2 15  3  6  5       21 0.152986099882D-02 0.100000000000D+01
0.104073050922D-04 0.000000000000D+00 0.000000000000D+00 0.296025796333D-05 0.000000000000D+00  6 -2 2 25 23 21 21 4 0.58279937D-02 0.11941486D+00 0.22930791D+05 0.22930791D+05 0.22930791D+05 0.12273409D+01  1  2 12  3  6  5       21 0.131303951933D-01 0.100000000000D+01
-.150589368345D-04 0.000000000000D+00 0.000000000000D+00 0.293193414262D-05 0.000000000000D+00  6 -2 2 25 23 21 21 4 0.58279937D-02 0.11941486D+00 0.26011484D+05 0.26011484D+05 0.26011484D+05 0.12214552D+01  1  2  4  3  6  5       21 -.186889562673D-01 0.100000000000D+01
0.293620315323D-06 0.000000000000D+00 0.000000000000D+00 0.296025796333D-05 0.000000000000D+00  6 -2 2 25 23 1 -1 4 0.58279937D-02 0.11941486D+00 0.22930791D+05 0.22930791D+05 0.22930791D+05 0.12273409D+01  1  2 12  6  6  5       21 0.370446599077D-03 0.100000000000D+01
0.293620315323D-06 0.000000000000D+00 0.000000000000D+00 0.296025796333D-05 0.000000000000D+00  6 -2 2 25 23 3 -3 4 0.58279937D-02 0.11941486D+00 0.22930791D+05 0.22930791D+05 0.22930791D+05 0.12273409D+01  1  2 12  6  6  5       21 0.370446599077D-03 0.100000000000D+01
0.293620315323D-06 0.000000000000D+00 0.000000000000D+00 0.296025796333D-05 0.000000000000D+00  6 -2 2 25 23 2 -2 4 0.58279937D-02 0.11941486D+00 0.22930791D+05 0.22930791D+05 0.22930791D+05 0.12273409D+01  1  2 12  7  6  5       21 0.370446599077D-03 0.100000000000D+01
0.293620315323D-06 0.000000000000D+00 0.000000000000D+00 0.296025796333D-05 0.000000000000D+00  6 -2 2 25 23 4 -4 4 0.58279937D-02 0.11941486D+00 0.22930791D+05 0.22930791D+05 0.22930791D+05 0.12273409D+01  1  2 12  8  6  5       21 0.370446599077D-03 0.100000000000D+01
  </mgrwgt>
  </event>
  <event>
  5     66 0.42185105E-03 0.33874439E+02 0.75467711E-02 0.11746930E+00
       -2 -1    0    0    0  501 0.00000000E+00 0.00000000E+00 0.16127512E+02 0.16130686E+02 0.32000000E+00 0.0000E+00 0.9000E+01
        2 -1    0    0  502    0 -.00000000E+00 -.00000000E+00 -.19313264E+04 0.19313264E+04 0.32000000E+00 0.0000E+00 0.9000E+01
       25  1    1    2    0    0 -.12297432E+03 0.31212281E+02 -.99429030E+03 0.10101164E+04 0.12500000E+03 0.0000E+00 0.9000E+01
       23  1    1    2    0    0 0.10009087E+03 -.62435116E+01 -.81354343E+03 0.82475774E+03 0.91188000E+02 0.0000E+00 0.9000E+01
       21  1    1    2  502  501 0.22883450E+02 -.24968770E+02 -.10736514E+03 0.11258298E+03 0.75000000E+00 0.0000E+00 0.9000E+01
#aMCatNLO 1  0  0  5  2 0.14952481D+01 0.00000000D+00  -5  6  0 0.00000000D+00 0.00000000D+00 0.00000000D+00 0.00000000D+00 0.00000000D+00
  <mgrwgt>
 0.2326182516D+00    9    2    0
 0.176495342262517D+03 0.000000000000000D+00 0.000000000000000D+00 0.176495342262517D+03
 0.176495342262517D+03 -.000000000000000D+00 -.000000000000000D+00 -.176495342262517D+03
 0.178178463494238D+03 -.122976503083784D+03 0.312146613148886D+02 -.499894603374671D+01
 0.136214465323669D+03 0.100089204651396D+03 -.624169218365086D+01 -.135026519746436D+02
 0.385977557071265D+02 0.228872984323880D+02 -.249729691312378D+02 0.185015980083903D+02
 0.000000000000000D+00 0.000000000000000D+00 0.000000000000000D+00 0.000000000000000D+00
 0.176495342262517D+03 0.000000000000000D+00 0.000000000000000D+00 0.176495342262517D+03
 0.176495342262517D+03 -.000000000000000D+00 -.000000000000000D+00 -.176495342262517D+03
 0.176851013407124D+03 -.121494187817634D+03 0.295972658195799D+02 -.380067436979181D+01
 0.137029518544305D+03 0.101230050003749D+03 -.748650034010442D+01 -.125804172180459D+02
 0.268061843500641D+01 -.145132949636063D+01 0.476608687772200D+00 -.220277144657142D+01
 0.364295341385979D+02 0.217154673102456D+02 -.225873741672477D+02 0.185838630344091D+02
0.327135864153D-03 0.000000000000D+00 0.000000000000D+00 0.910422125834D-05 0.000000000000D+00  6 -2 2 25 23 21 21 2 0.24814019D-02 0.29712738D+00 0.30193638D+05 0.30193638D+05 0.30193638D+05 0.12146052D+01  1  2  2  3  6  5       21 0.218251145425D+00 0.100000000000D+01
0.481346516029D-04 0.172634338374D-04 -.125628785520D-05 0.910422125834D-05 0.000000000000D+00  6 -2 2 25 23 21 21 4 0.24814019D-02 0.29712738D+00 0.30193638D+05 0.30193638D+05 0.30193638D+05 0.12146052D+01  1  2  3  3  6  5       21 0.473757951462D-01 0.100000000000D+01
0.558560684704D-05 0.000000000000D+00 0.000000000000D+00 0.910422125834D-05 0.000000000000D+00  6 -2 2 25 23 21 21 4 0.24814019D-02 0.29712738D+00 0.30193638D+05 0.30193638D+05 0.30193638D+05 0.12146052D+01  1  2 15  3  6  5       21 0.549754816832D-02 0.100000000000D+01
-.611265316973D-04 0.000000000000D+00 0.000000000000D+00 0.910422125834D-05 0.000000000000D+00  6 -2 2 25 23 21 21 4 0.24814019D-02 0.29712738D+00 0.30193638D+05 0.30193638D+05 0.30193638D+05 0.12146052D+01  1  2  4  3  6  5       21 -.601628545602D-01 0.100000000000D+01
0.437868149317D-05 0.000000000000D+00 0.000000000000D+00 0.910422125834D-05 0.136084064416D-04  6 -2 2 25 23 21 21 4 0.24814019D-02 0.29712738D+00 0.29950017D+05 0.29950017D+05 0.29950017D+05 0.12149744D+01  1  2 11  3  6  5       21 0.431473916903D-02 0.100000000000D+01
0.532336617893D-05 0.000000000000D+00 0.000000000000D+00 0.910975632173D-05 0.312738435847D-07  6 -2 2 25 23 1 -1 4 0.24814019D-02 0.29712738D+00 0.29950017D+05 0.29950017D+05 0.29950017D+05 0.12149744D+01  1  2 11  6  6  5       21 0.524562852977D-02 0.100000000000D+01
0.532336617893D-05 0.000000000000D+00 0.000000000000D+00 0.910975632173D-05 0.312738435847D-07  6 -2 2 25 23 3 -3 4 0.24814019D-02 0.29712738D+00 0.29950017D+05 0.29950017D+05 0.29950017D+05 0.12149744D+01  1  2 11  6  6  5       21 0.524562852977D-02 0.100000000000D+01
0.162423743396D-05 0.000000000000D+00 0.000000000000D+00 0.910975632173D-05 0.396419788786D-07  6 -2 2 25 23 2 -2 4 0.24814019D-02 0.29712738D+00 0.29950017D+05 0.29950017D+05 0.29950017D+05 0.12149744D+01  1  2 11  7  6  5       21 0.160051853213D-02 0.100000000000D+01
0.532790660945D-05 0.000000000000D+00 0.000000000000D+00 0.910975632173D-05 0.313005178184D-07  6 -2 2 25 23 4 -4 4 0.24814019D-02 0.29712738D+00 0.29950017D+05 0.29950017D+05 0.29950017D+05 0.12149744D+01  1  2 11  8  6  5       21 0.525010265592D-02 0.100000000000D+01
  </mgrwgt>
  </event>
  <event>
  5     66 0.42185105E-03 0.61121404E+02 0.75467711E-02 0.11721180E+00
       -2 -1    0    0    0  501 0.00000000E+00 0.00000000E+00 0.44784693E+02 0.44785836E+02 0.32000000E+00 0.0000E+00 0.9000E+01
        2 -1    0    0  502    0 0.00000000E+00 0.00000000E+00 -.67071083E+03 0.67071090E+03 0.32000000E+00 0.0000E+00 0.9000E+01
       25  1    1    2    0    0 0.64538683E+02 0.10047131E+03 -.34574548E+03 0.38655487E+03 0.12500000E+03 0.0000E+00 0.9000E+01
       23  1    1    2    0    0 -.38506073E+02 -.45175067E+02 -.15195240E+03 0.18689111E+03 0.91188000E+02 0.0000E+00 0.9000E+01
       21  1    1    2  502  501 -.26032610E+02 -.55296247E+02 -.12822825E+03 0.14205076E+03 0.75000000E+00 0.0000E+00 0.9000E+01
#aMCatNLO 1  0  0  1  5 0.82909381D+01 0.00000000D+00  -5  6  0 0.00000000D+00 0.00000000D+00 0.00000000D+00 0.00000000D+00 0.00000000D+00
  <mgrwgt>
 0.7308851523D-01   11    4    0
 0.173314785215777D+03 0.000000000000000D+00 0.000000000000000D+00 0.173314785215777D+03
 0.173314785215777D+03 0.000000000000000D+00 0.000000000000000D+00 -.173314785215777D+03
 0.173580515570272D+03 0.645396473873970D+02 0.100473362155727D+03 -.156503290021700D+02
 0.111383336552762D+03 -.385054541824298D+02 -.451737525411450D+02 0.238255828298507D+02
 0.616657183085200D+02 -.260341932049672D+02 -.552996096145820D+02 -.817525382768071D+01
 0.000000000000000D+00 0.000000000000000D+00 0.000000000000000D+00 0.000000000000000D+00
 0.189543472289291D+03 0.000000000000000D+00 0.000000000000000D+00 0.189543472289291D+03
 0.174426521655732D+03 0.000000000000000D+00 0.000000000000000D+00 -.174426521655732D+03
 0.170774965104487D+03 0.622193394197523D+02 0.970716730603330D+02 -.156503290021700D+02
 0.112826794827963D+03 -.400162085727765D+02 -.473885950565021D+02 0.238255828298507D+02
 0.631269506650111D+02 -.268750609720652D+02 -.565323643841607D+02 -.817525382768071D+01
 0.172412833475624D+02 0.467193012508943D+01 0.684928638032981D+01 0.151169506335585D+02
 0.173314785215777D+03 0.000000000000000D+00 0.000000000000000D+00 0.173314785215777D+03
 0.173314785215777D+03 0.000000000000000D+00 0.000000000000000D+00 -.173314785215777D+03
 0.173580515570272D+03 0.645396473873970D+02 0.100473362155727D+03 -.156503290021700D+02
 0.111383336552762D+03 -.385054541824298D+02 -.451737525411450D+02 0.238255828298507D+02
 0.000000000000000D+00 0.000000000000000D+00 0.000000000000000D+00 0.000000000000000D+00
 0.616657183085200D+02 -.260341932049672D+02 -.552996096145820D+02 -.817525382768071D+01
 0.189543472289291D+03 0.000000000000000D+00 0.000000000000000D+00 0.189543472289291D+03
 0.174426521655732D+03 0.000000000000000D+00 0.000000000000000D+00 -.174426521655732D+03
 0.170774965104487D+03 0.622193394197523D+02 0.970716730603330D+02 -.156503290021700D+02
 0.112826794827963D+03 -.400162085727765D+02 -.473885950565021D+02 0.238255828298507D+02
 0.172412833475624D+02 0.467193012508943D+01 0.684928638032981D+01 0.151169506335585D+02
 0.631269506650111D+02 -.268750609720652D+02 -.565323643841607D+02 -.817525382768071D+01
0.142543580896D-04 0.000000000000D+00 0.000000000000D+00 0.308745996325D-05 0.000000000000D+00  6 -2 2 25 23 21 21 2 0.68900466D-02 0.10318637D+00 0.29378000D+05 0.29378000D+05 0.29378000D+05 0.12158545D+01  1  2  2  1  6  1       -2 0.108811428451D-01 0.100000000000D+01
0.145521775041D-06 0.752223142554D-06 -.547404883229D-07 0.308745996325D-05 0.000000000000D+00  6 -2 2 25 23 21 21 4 0.68900466D-02 0.10318637D+00 0.29378000D+05 0.29378000D+05 0.29378000D+05 0.12158545D+01  1  2  3  1  6  1       -2 0.164216983142D-03 0.100000000000D+01
0.407327665519D-06 0.000000000000D+00 0.000000000000D+00 0.308745996325D-05 0.000000000000D+00  6 -2 2 25 23 21 21 4 0.68900466D-02 0.10318637D+00 0.29378000D+05 0.29378000D+05 0.29378000D+05 0.12158545D+01  1  2 15  1  6  1       -2 0.459657122536D-03 0.100000000000D+01
0.209252965797D-03 0.000000000000D+00 0.000000000000D+00 0.307623361189D-05 0.000000000000D+00  6 -2 2 25 23 21 21 4 0.76459617D-02 0.10318637D+00 0.30839768D+05 0.30839768D+05 0.30839768D+05 0.12136420D+01  1  2 12  1  6  1       -2 0.199823725029D+00 0.100000000000D+01
-.144557950596D-03 0.000000000000D+00 0.000000000000D+00 0.308745996325D-05 0.000000000000D+00  6 -2 2 25 23 21 21 4 0.68900466D-02 0.10318637D+00 0.29378000D+05 0.29378000D+05 0.29378000D+05 0.12158545D+01  1  2  4  1  6  1       -2 -.163129336001D+00 0.100000000000D+01
-.360180481226D-03 0.000000000000D+00 -.313479360995D-04 0.308745996325D-05 0.000000000000D+00  6 -2 2 25 23 21 21 4 0.75788714D-02 0.10318637D+00 0.29378000D+05 0.29378000D+05 0.29378000D+05 0.12158545D+01  1  2  5  1  6  1       -2 -.350896319357D+00 0.100000000000D+01
0.361666172247D-03 0.000000000000D+00 0.312061605910D-04 0.308745996325D-05 0.000000000000D+00  6 -2 2 25 23 21 21 4 0.68900466D-02 0.10318637D+00 0.29378000D+05 0.29378000D+05 0.29378000D+05 0.12158545D+01  1  2  6  1  6  1       -2 0.408129489171D+00 0.100000000000D+01
0.353367723876D-06 0.000000000000D+00 0.000000000000D+00 0.308745996325D-05 0.122694797505D-06  6 -2 2 25 23 21 21 4 0.75352103D-02 0.10384827D+00 0.30839768D+05 0.30839768D+05 0.30839768D+05 0.12136420D+01  1  2 11  1  6  1       -2 0.342548582406D-03 0.100000000000D+01
0.354921977303D-05 0.000000000000D+00 0.000000000000D+00 0.307623361189D-05 0.000000000000D+00  6 21 2 25 23 2 21 4 0.76459617D-02 0.10318637D+00 0.30839768D+05 0.30839768D+05 0.30839768D+05 0.12136420D+01  3  4 12  4  5  1       -2 0.556557017358D-01 0.100000000000D+01
-.551594099091D-05 0.000000000000D+00 -.488295369816D-06 0.308745996325D-05 0.000000000000D+00  6 21 2 25 23 2 21 4 0.75788714D-02 0.10318637D+00 0.29378000D+05 0.29378000D+05 0.29378000D+05 0.12158545D+01  3  4  5  4  5  1       -2 -.884680638758D-01 0.100000000000D+01
0.787880968150D-08 0.000000000000D+00 0.000000000000D+00 0.308745996325D-05 0.538028893370D-08  6 21 2 25 23 2 21 4 0.75352103D-02 0.10384827D+00 0.30839768D+05 0.30839768D+05 0.30839768D+05 0.12136420D+01  3  4 11  4  5  1       -2 0.125752989201D-03 0.100000000000D+01
  </mgrwgt>
  </event>
  <event>
  5     66 0.42185105E-03 0.63979151E+02 0.75467711E-02 0.97921980E-01
       -2 -1    0    0    0  501 0.00000000E+00 0.00000000E+00 0.23062486E+03 0.23062508E+03 0.32000000E+00 0.0000E+00 0.9000E+01
        2 -1    0    0  502    0 0.00000000E+00 0.00000000E+00 -.46413221E+03 0.46413232E+03 0.32000000E+00 0.0000E+00 0.9000E+01
       25  1    1    2    0    0 -.10031040E+03 0.11465767E+03 -.20598046E+03 0.28506404E+03 0.12500000E+03 0.0000E+00 0.9000E+01
       23  1    1    2    0    0 0.90951095E+02 -.17794821E+03 -.15378608E+03 0.26814749E+03 0.91188000E+02 0.0000E+00 0.9000E+01
       21  1    1    2  502  501 0.93593022E+01 0.63290544E+02 0.12625919E+03 0.14154587E+03 0.75000000E+00 0.0000E+00 0.9000E+01
#aMCatNLO 1  0  0  2  5 0.16663570D+03 0.00000000D+00  -5  6  0 0.00000000D+00 0.00000000D+00 0.00000000D+00 0.00000000D+00 0.00000000D+00
  <mgrwgt>
 0.6669461577D-01    3    2    0
 0.327170509752394D+03 0.000000000000000D+00 0.000000000000000D+00 0.327170509752394D+03
 0.327170509752394D+03 0.000000000000000D+00 0.000000000000000D+00 -.327170509752394D+03
 0.229165693060145D+03 -.100310421870189D+03 0.114657506307547D+03 -.116976024839692D+03
 0.229830380681737D+03 0.909510712647341D+02 -.177948377510051D+03 -.675946012463255D+02
 0.195344945762905D+03 0.935935060545476D+01 0.632908712025041D+02 0.184570626086018D+03
 0.000000000000000D+00 0.000000000000000D+00 0.000000000000000D+00 0.000000000000000D+00
 0.919116666510097D+03 0.000000000000000D+00 0.000000000000000D+00 0.919116666510097D+03
 0.619706093905447D+03 0.000000000000000D+00 0.000000000000000D+00 -.619706093905447D+03
 0.235346372652442D+03 -.151567297339561D+03 -.557393856312300D+02 -.116976024839692D+03
 0.438362676044640D+03 0.172188889895931D+02 -.423061537071538D+03 -.675946012463255D+02
 0.205694036704765D+03 -.348935476506430D+02 -.838221990553152D+02 0.184570626086018D+03
 0.659419675013696D+03 0.169241956000611D+03 0.562623121758084D+03 0.299410572604651D+03
0.806793939537D-03 0.000000000000D+00 0.000000000000D+00 0.288891404936D-05 0.000000000000D+00  6 -2 2 25 23 21 21 2 0.35480774D-01 0.71404981D-01 0.57769801D+05 0.57769801D+05 0.57769801D+05 0.11861187D+01  1  2  2  2  6  2        2 0.578639601925D-01 0.100000000000D+01
0.558550358796D-04 0.425756858903D-04 -.309830116155D-05 0.288891404936D-05 0.000000000000D+00  6 -2 2 25 23 21 21 4 0.35480774D-01 0.71404981D-01 0.57769801D+05 0.57769801D+05 0.57769801D+05 0.11861187D+01  1  2  3  2  6  2        2 0.563591124836D-02 0.100000000000D+01
0.316617049875D-04 0.000000000000D+00 0.000000000000D+00 0.288891404936D-05 0.000000000000D+00  6 -2 2 25 23 21 21 4 0.35480774D-01 0.71404981D-01 0.57769801D+05 0.57769801D+05 0.57769801D+05 0.11861187D+01  1  2 15  2  6  2        2 0.319474433184D-02 0.100000000000D+01
  </mgrwgt>
  </event>
  <event>
  5     66 -.42185105E-03 0.25433260E+02 0.75467711E-02 0.11482626E+00
       -2 -1    0    0    0  501 0.00000000E+00 0.00000000E+00 0.37863175E+02 0.37864528E+02 0.32000000E+00 0.0000E+00 0.9000E+01
        2 -1    0    0  502    0 -.00000000E+00 -.00000000E+00 -.16363841E+04 0.16363841E+04 0.32000000E+00 0.0000E+00 0.9000E+01
       25  1    1    2    0    0 0.81641350E+02 -.11702286E+03 -.28025545E+03 0.33841953E+03 0.12500000E+03 0.0000E+00 0.9000E+01
       23  1    1    2    0    0 -.83062516E+02 0.14241210E+03 -.10914609E+04 0.11076023E+04 0.91188000E+02 0.0000E+00 0.9000E+01
       21  1    1    2  502  501 0.14211659E+01 -.25389246E+02 -.22680452E+03 0.22822683E+03 0.75000000E+00 0.0000E+00 0.9000E+01
#aMCatNLO 1  0  0  5  1 0.21921285D+00 0.00000000D+00  -5  6  0 0.00000000D+00 0.00000000D+00 0.00000000D+00 0.00000000D+00 0.00000000D+00
  <mgrwgt>
 -.1200949408D+01   15    2    0
 0.248917364679310D+03 0.000000000000000D+00 0.000000000000000D+00 0.248917364679310D+03
 0.248917364679310D+03 -.000000000000000D+00 -.000000000000000D+00 -.248917364679310D+03
 0.238240629085019D+03 0.816412263168010D+02 -.117020641152184D+03 0.144133538972184D+03
 0.220311157882634D+03 -.830626308941847D+02 0.142414150847117D+03 -.114195288567515D+03
 0.392829423909665D+02 0.142140457738363D+01 -.253935096949334D+02 -.299382504046698D+02
 0.000000000000000D+00 0.000000000000000D+00 0.000000000000000D+00 -.000000000000000D+00
 0.248917364679310D+03 0.000000000000000D+00 0.000000000000000D+00 0.248917364679310D+03
 0.248917364679310D+03 -.000000000000000D+00 -.000000000000000D+00 -.248917364679310D+03
 0.238238956548749D+03 0.816416878214925D+02 -.117028885971458D+03 0.144123818556734D+03
 0.220310728013786D+03 -.830622041202501D+02 0.142406526495671D+03 -.114204277468439D+03
 0.936247041692885D+00 -.271890022231994D-01 -.750555392868433D+00 -.559004368026566D+00
 0.383487977543908D+02 0.144770530098080D+01 -.246270851313441D+02 -.293605367202681D+02
0.268575612804D-03 0.000000000000D+00 0.000000000000D+00 0.927216659890D-05 0.000000000000D+00  6 -2 2 25 23 21 21 2 0.58252103D-02 0.25175150D+00 0.40709733D+05 0.40709733D+05 0.40709733D+05 0.12012254D+01  1  2  2  3  6  5       21 0.695219255357D-01 0.100000000000D+01
0.591382062905D-04 0.141731244723D-04 -.103140107075D-05 0.927216659890D-05 0.000000000000D+00  6 -2 2 25 23 21 21 4 0.58252103D-02 0.25175150D+00 0.40709733D+05 0.40709733D+05 0.40709733D+05 0.12012254D+01  1  2  3  3  6  5       21 0.220888118908D-01 0.100000000000D+01
0.555966066530D-05 0.000000000000D+00 0.000000000000D+00 0.927216659890D-05 0.000000000000D+00  6 -2 2 25 23 21 21 4 0.58252103D-02 0.25175150D+00 0.40709733D+05 0.40709733D+05 0.40709733D+05 0.12012254D+01  1  2 15  3  6  5       21 0.207659829940D-02 0.100000000000D+01
-.104203965936D-01 0.000000000000D+00 0.000000000000D+00 0.927216659890D-05 0.000000000000D+00  6 -2 2 25 23 21 21 4 0.58252103D-02 0.25175150D+00 0.40709733D+05 0.40709733D+05 0.40709733D+05 0.12012254D+01  1  2  4  3  6  5       21 -.389214003302D+01 0.100000000000D+01
-.267928885108D-04 0.000000000000D+00 0.000000000000D+00 0.927216659890D-05 0.000000000000D+00  6 -2 2 25 23 21 21 4 0.58252103D-02 0.25175150D+00 0.40709733D+05 0.40709733D+05 0.40709733D+05 0.12012254D+01  1  2  5  3  6  5       21 -.100074573013D-01 0.100000000000D+01
0.697757512877D-02 0.000000000000D+00 -.000000000000D+00 0.927216659890D-05 0.000000000000D+00  6 -2 2 25 23 21 21 4 0.58252103D-02 0.25175150D+00 0.40709733D+05 0.40709733D+05 0.40709733D+05 0.12012254D+01  1  2  6  3  6  5       21 0.260620593929D+01 0.100000000000D+01
0.227006910260D-04 0.000000000000D+00 0.000000000000D+00 0.927216659890D-05 0.132456671896D-02  6 -2 2 25 23 21 21 4 0.58252103D-02 0.25175150D+00 0.40707054D+05 0.40707054D+05 0.40707054D+05 0.12012283D+01  1  2 11  3  6  5       21 0.847905796989D-02 0.100000000000D+01
-.245072782965D-03 0.000000000000D+00 0.000000000000D+00 0.927216659890D-05 0.000000000000D+00  6 -2 2 25 23 1 -1 4 0.58252103D-02 0.25175150D+00 0.40709733D+05 0.40709733D+05 0.40709733D+05 0.12012254D+01  1  2  5  6  6  5       21 -.915375514752D-01 0.100000000000D+01
-.245072782965D-03 0.000000000000D+00 0.000000000000D+00 0.927216659890D-05 0.000000000000D+00  6 -2 2 25 23 3 -3 4 0.58252103D-02 0.25175150D+00 0.40709733D+05 0.40709733D+05 0.40709733D+05 0.12012254D+01  1  2  5  6  6  5       21 -.915375514752D-01 0.100000000000D+01
0.239659636202D-03 0.000000000000D+00 0.000000000000D+00 0.927216659890D-05 0.572354045572D-05  6 -2 2 25 23 1 -1 4 0.58252103D-02 0.25175150D+00 0.40707054D+05 0.40707054D+05 0.40707054D+05 0.12012283D+01  1  2 11  6  6  5       21 0.895165678468D-01 0.100000000000D+01
0.239659636202D-03 0.000000000000D+00 0.000000000000D+00 0.927216659890D-05 0.572354045572D-05  6 -2 2 25 23 3 -3 4 0.58252103D-02 0.25175150D+00 0.40707054D+05 0.40707054D+05 0.40707054D+05 0.12012283D+01  1  2 11  6  6  5       21 0.895165678468D-01 0.100000000000D+01
-.245072782965D-03 0.000000000000D+00 0.000000000000D+00 0.927216659890D-05 0.000000000000D+00  6 -2 2 25 23 2 -2 4 0.58252103D-02 0.25175150D+00 0.40709733D+05 0.40709733D+05 0.40709733D+05 0.12012254D+01  1  2  5  7  6  5       21 -.915375514752D-01 0.100000000000D+01
0.242098360102D-03 0.000000000000D+00 0.000000000000D+00 0.927216659890D-05 0.578858855497D-05  6 -2 2 25 23 2 -2 4 0.58252103D-02 0.25175150D+00 0.40707054D+05 0.40707054D+05 0.40707054D+05 0.12012283D+01  1  2 11  7  6  5       21 0.904274688100D-01 0.100000000000D+01
-.245072782965D-03 0.000000000000D+00 0.000000000000D+00 0.927216659890D-05 0.000000000000D+00  6 -2 2 25 23 4 -4 4 0.58252103D-02 0.25175150D+00 0.40709733D+05 0.40709733D+05 0.40709733D+05 0.12012254D+01  1  2  5  8  6  5       21 -.915375514752D-01 0.100000000000D+01
0.239656377210D-03 0.000000000000D+00 0.000000000000D+00 0.927216659890D-05 0.572346262463D-05  6 -2 2 25 23 4 -4 4 0.58252103D-02 0.25175150D+00 0.40707054D+05 0.40707054D+05 0.40707054D+05 0.12012283D+01  1  2 11  8  6  5       21 0.895153505633D-01 0.100000000000D+01
  </mgrwgt>
  </event>
  <event>
  5     66 -.42185105E-03 0.83558937E+02 0.75467711E-02 0.11179760E+00
       -2 -1    0    0    0  501 0.00000000E+00 0.00000000E+00 0.50388969E+02 0.50389985E+02 0.32000000E+00 0.0000E+00 0.9000E+01
        2 -1    0    0  502    0 -.00000000E+00 -.00000000E+00 -.20896082E+04 0.20896082E+04 0.32000000E+00 0.0000E+00 0.9000E+01
       25  1    1    2    0    0 -.73955975E+02 -.12540434E+03 -.28833665E+03 0.34635062E+03 0.12500000E+03 0.0000E+00 0.9000E+01
       23  1    1    2    0    0 0.15692861E+03 0.97729479E+02 -.51572026E+03 0.55539200E+03 0.91188000E+02 0.0000E+00 0.9000E+01
       21  1    1    2  502  501 -.82972633E+02 0.27674857E+02 -.12351623E+04 0.12382556E+04 0.75000000E+00 0.0000E+00 0.9000E+01
#aMCatNLO 1  0  0  5  2 0.23515424D+01 0.00000000D+00  -5  6  0 0.00000000D+00 0.00000000D+00 0.00000000D+00 0.00000000D+00 0.00000000D+00
  <mgrwgt>
 -.1265693143D+00   25    2    0
 0.324490857475579D+03 0.000000000000000D+00 0.000000000000000D+00 0.324490857475579D+03
 0.324490857475579D+03 -.000000000000000D+00 -.000000000000000D+00 -.324490857475579D+03
 0.236074813366594D+03 -.739557667124998D+02 -.125404405028524D+03 0.137515807365846D+03
 0.210901700275124D+03 0.156928793773292D+03 0.977294167418282D+02 0.445711860185454D+02
 0.202005201309440D+03 -.829730270607923D+02 0.276749882866960D+02 -.182086993384392D+03
 0.000000000000000D+00 0.000000000000000D+00 0.000000000000000D+00 -.000000000000000D+00
 0.324490857475579D+03 0.000000000000000D+00 0.000000000000000D+00 0.324490857475579D+03
 0.324490857475579D+03 -.000000000000000D+00 -.000000000000000D+00 -.324490857475579D+03
 0.236062384912704D+03 -.739666484735074D+02 -.125400775504339D+03 0.137491926989117D+03
 0.210891461668380D+03 0.156919072335541D+03 0.977326592494889D+02 0.445498520087579D+02
 0.507082496266428D+02 -.223150883048539D+02 0.848872705831890D+01 -.447359466992022D+02
 0.151319618743431D+03 -.606373355571801D+02 0.191793891965313D+02 -.137305832298673D+03
0.255646839943D-04 0.000000000000D+00 0.000000000000D+00 0.158966441638D-05 0.000000000000D+00  6 -2 2 25 23 21 21 2 0.77522291D-02 0.32147827D+00 0.58925653D+05 0.58925653D+05 0.58925653D+05 0.11852810D+01  1  2  2  3  6  5       21 0.239076023884D-02 0.100000000000D+01
0.207378973480D-06 0.134908543841D-05 -.981751178740D-07 0.158966441638D-05 0.000000000000D+00  6 -2 2 25 23 21 21 4 0.77522291D-02 0.32147827D+00 0.58925653D+05 0.58925653D+05 0.58925653D+05 0.11852810D+01  1  2  3  3  6  5       21 0.272460152641D-04 0.100000000000D+01
0.134180867341D-05 0.000000000000D+00 0.000000000000D+00 0.158966441638D-05 0.000000000000D+00  6 -2 2 25 23 21 21 4 0.77522291D-02 0.32147827D+00 0.58925653D+05 0.58925653D+05 0.58925653D+05 0.11852810D+01  1  2 15  3  6  5       21 0.176290483957D-03 0.100000000000D+01
0.273981407871D-05 0.000000000000D+00 0.000000000000D+00 0.158966320596D-05 0.000000000000D+00  6 -2 2 25 23 21 21 4 0.77522291D-02 0.32147827D+00 0.58926283D+05 0.58926283D+05 0.58926283D+05 0.11852806D+01  1  2 12  3  6  5       21 0.359963618374D-03 0.100000000000D+01
0.272842075838D-05 0.000000000000D+00 0.000000000000D+00 0.158966320596D-05 0.000000000000D+00  6 -2 2 25 23 21 21 4 0.77522291D-02 0.32147827D+00 0.58926283D+05 0.58926283D+05 0.58926283D+05 0.11852806D+01  1  2 12  3  6  5       21 0.358466735486D-03 0.100000000000D+01
-.705094479793D-02 0.000000000000D+00 0.000000000000D+00 0.158966441638D-05 0.000000000000D+00  6 -2 2 25 23 21 21 4 0.77522291D-02 0.32147827D+00 0.58925653D+05 0.58925653D+05 0.58925653D+05 0.11852810D+01  1  2  4  3  6  5       21 -.926372362478D+00 0.100000000000D+01
-.159669406142D-02 0.000000000000D+00 0.000000000000D+00 0.158966441638D-05 0.000000000000D+00  6 -2 2 25 23 21 21 4 0.77522291D-02 0.32147827D+00 0.58925653D+05 0.58925653D+05 0.58925653D+05 0.11852810D+01  1  2  5  3  6  5       21 -.209778021560D+00 0.100000000000D+01
0.619133935886D-02 0.000000000000D+00 -.000000000000D+00 0.158966441638D-05 0.000000000000D+00  6 -2 2 25 23 21 21 4 0.77522291D-02 0.32147827D+00 0.58925653D+05 0.58925653D+05 0.58925653D+05 0.11852810D+01  1  2  6  3  6  5       21 0.813435054896D+00 0.100000000000D+01
0.149655923008D-02 0.000000000000D+00 0.000000000000D+00 0.158966441638D-05 0.153478931776D-05  6 -2 2 25 23 21 21 4 0.77522291D-02 0.32147827D+00 0.58926283D+05 0.58926283D+05 0.58926283D+05 0.11852806D+01  1  2 11  3  6  5       21 0.196621690413D+00 0.100000000000D+01
0.305588796076D-06 0.000000000000D+00 0.000000000000D+00 0.158966320596D-05 0.000000000000D+00  6 -2 2 25 23 1 -1 4 0.77522291D-02 0.32147827D+00 0.58926283D+05 0.58926283D+05 0.58926283D+05 0.11852806D+01  1  2 12  6  6  5       21 0.401490194627D-04 0.100000000000D+01
0.305588796076D-06 0.000000000000D+00 0.000000000000D+00 0.158966320596D-05 0.000000000000D+00  6 -2 2 25 23 3 -3 4 0.77522291D-02 0.32147827D+00 0.58926283D+05 0.58926283D+05 0.58926283D+05 0.11852806D+01  1  2 12  6  6  5       21 0.401490194627D-04 0.100000000000D+01
0.304422118646D-06 0.000000000000D+00 0.000000000000D+00 0.158966320596D-05 0.000000000000D+00  6 -2 2 25 23 1 -1 4 0.77522291D-02 0.32147827D+00 0.58926283D+05 0.58926283D+05 0.58926283D+05 0.11852806D+01  1  2 12  6  6  5       21 0.399957384673D-04 0.100000000000D+01
0.304422118646D-06 0.000000000000D+00 0.000000000000D+00 0.158966320596D-05 0.000000000000D+00  6 -2 2 25 23 3 -3 4 0.77522291D-02 0.32147827D+00 0.58926283D+05 0.58926283D+05 0.58926283D+05 0.11852806D+01  1  2 12  6  6  5       21 0.399957384673D-04 0.100000000000D+01
-.182336789247D-03 0.000000000000D+00 0.000000000000D+00 0.158966441638D-05 0.000000000000D+00  6 -2 2 25 23 1 -1 4 0.77522291D-02 0.32147827D+00 0.58925653D+05 0.58925653D+05 0.58925653D+05 0.11852810D+01  1  2  5  6  6  5       21 -.239559047847D-01 0.100000000000D+01
-.182336789247D-03 0.000000000000D+00 0.000000000000D+00 0.158966441638D-05 0.000000000000D+00  6 -2 2 25 23 3 -3 4 0.77522291D-02 0.32147827D+00 0.58925653D+05 0.58925653D+05 0.58925653D+05 0.11852810D+01  1  2  5  6  6  5       21 -.239559047847D-01 0.100000000000D+01
0.174435622708D-03 0.000000000000D+00 0.000000000000D+00 0.158966441638D-05 0.343624172673D-07  6 -2 2 25 23 1 -1 4 0.77522291D-02 0.32147827D+00 0.58926283D+05 0.58926283D+05 0.58926283D+05 0.11852806D+01  1  2 11  6  6  5       21 0.229177878935D-01 0.100000000000D+01
0.174435622708D-03 0.000000000000D+00 0.000000000000D+00 0.158966441638D-05 0.343624172673D-07  6 -2 2 25 23 3 -3 4 0.77522291D-02 0.32147827D+00 0.58926283D+05 0.58926283D+05 0.58926283D+05 0.11852806D+01  1  2 11  6  6  5       21 0.229177878935D-01 0.100000000000D+01
0.305588796076D-06 0.000000000000D+00 0.000000000000D+00 0.158966320596D-05 0.000000000000D+00  6 -2 2 25 23 2 -2 4 0.77522291D-02 0.32147827D+00 0.58926283D+05 0.58926283D+05 0.58926283D+05 0.11852806D+01  1  2 12  7  6  5       21 0.401490194627D-04 0.100000000000D+01
0.304422118646D-06 0.000000000000D+00 0.000000000000D+00 0.158966320596D-05 0.000000000000D+00  6 -2 2 25 23 2 -2 4 0.77522291D-02 0.32147827D+00 0.58926283D+05 0.58926283D+05 0.58926283D+05 0.11852806D+01  1  2 12  7  6  5       21 0.399957384673D-04 0.100000000000D+01
-.182336789247D-03 0.000000000000D+00 0.000000000000D+00 0.158966441638D-05 0.000000000000D+00  6 -2 2 25 23 2 -2 4 0.77522291D-02 0.32147827D+00 0.58925653D+05 0.58925653D+05 0.58925653D+05 0.11852810D+01  1  2  5  7  6  5       21 -.239559047847D-01 0.100000000000D+01
0.175049290481D-03 0.000000000000D+00 0.000000000000D+00 0.158966441638D-05 0.345061779754D-07  6 -2 2 25 23 2 -2 4 0.77522291D-02 0.32147827D+00 0.58926283D+05 0.58926283D+05 0.58926283D+05 0.11852806D+01  1  2 11  7  6  5       21 0.229984130986D-01 0.100000000000D+01
0.305588796076D-06 0.000000000000D+00 0.000000000000D+00 0.158966320596D-05 0.000000000000D+00  6 -2 2 25 23 4 -4 4 0.77522291D-02 0.32147827D+00 0.58926283D+05 0.58926283D+05 0.58926283D+05 0.11852806D+01  1  2 12  8  6  5       21 0.401490194627D-04 0.100000000000D+01
0.304422118646D-06 0.000000000000D+00 0.000000000000D+00 0.158966320596D-05 0.000000000000D+00  6 -2 2 25 23 4 -4 4 0.77522291D-02 0.32147827D+00 0.58926283D+05 0.58926283D+05 0.58926283D+05 0.11852806D+01  1  2 12  8  6  5       21 0.399957384673D-04 0.100000000000D+01
-.182336789247D-03 0.000000000000D+00 0.000000000000D+00 0.158966441638D-05 0.000000000000D+00  6 -2 2 25 23 4 -4 4 0.77522291D-02 0.32147827D+00 0.58925653D+05 0.58925653D+05 0.58925653D+05 0.11852810D+01  1  2  5  8  6  5       21 -.239559047847D-01 0.100000000000D+01
0.174152941634D-03 0.000000000000D+00 0.000000000000D+00 0.158966441638D-05 0.343067313652D-07  6 -2 2 25 23 4 -4 4 0.77522291D-02 0.32147827D+00 0.58926283D+05 0.58926283D+05 0.58926283D+05 0.11852806D+01  1  2 11  8  6  5       21 0.228806485478D-01 0.100000000000D+01
  </mgrwgt>
  </event>
  <event>
  5     66 0.42185105E-03 0.29300549E+02 0.75467711E-02 0.11771539E+00
       -2 -1    0    0    0  501 0.00000000E+00 0.00000000E+00 0.19309350E+02 0.19312002E+02 0.32000000E+00 0.0000E+00 0.9000E+01
        2 -1    0    0  502    0 0.00000000E+00 0.00000000E+00 -.18314644E+04 0.18314644E+04 0.32000000E+00 0.0000E+00 0.9000E+01
       25  1    1    2    0    0 -.30840877E+00 0.10009377E+03 -.12426000E+04 0.12528762E+04 0.12500000E+03 0.0000E+00 0.9000E+01
       23  1    1    2    0    0 0.28632873E+02 -.11283103E+03 -.42336851E+03 0.44844937E+03 0.91188000E+02 0.0000E+00 0.9000E+01
       21  1    1    2  502  501 -.28324464E+02 0.12737268E+02 -.14618646E+03 0.14945085E+03 0.75000000E+00 0.0000E+00 0.9000E+01
#aMCatNLO 1  0  0  2  5 0.22823641D+01 0.00000000D+00  -5  6  0 0.00000000D+00 0.00000000D+00 0.00000000D+00 0.00000000D+00 0.00000000D+00
  <mgrwgt>
 0.9783442527D-01   11    4    0
 0.188060805230585D+03 0.000000000000000D+00 0.000000000000000D+00 0.188060805230585D+03
 0.188060805230585D+03 0.000000000000000D+00 0.000000000000000D+00 -.188060805230585D+03
 0.178158876500065D+03 -.304499131209708D+00 0.100092007501843D+03 -.780838177236205D+02
 0.166889541334280D+03 0.286365352430717D+02 -.112832680160495D+03 0.773666775804546D+02
 0.310731926268243D+02 -.283320361118620D+02 0.127406726586523D+02 0.717140143165865D+00
 0.000000000000000D+00 0.000000000000000D+00 -.000000000000000D+00 -.000000000000000D+00
 0.188074329139950D+03 0.000000000000000D+00 0.000000000000000D+00 0.188074329139950D+03
 0.317497814296896D+03 0.000000000000000D+00 0.000000000000000D+00 -.317497814296896D+03
 0.178606646207558D+03 -.104459053027477D+01 0.100881912699157D+03 -.780838177236205D+02
 0.166274158509383D+03 0.279454045899087D+02 -.112095031140866D+03 0.773666775804546D+02
 0.312477305497260D+02 -.284613176042964D+02 0.128786557819793D+02 0.717140143165865D+00
 0.129443608170179D+03 0.156050354466250D+01 -.166553734027077D+01 -.129423485156946D+03
 0.188060805230585D+03 0.000000000000000D+00 0.000000000000000D+00 0.188060805230585D+03
 0.188060805230585D+03 0.000000000000000D+00 0.000000000000000D+00 -.188060805230585D+03
 0.178158876500065D+03 -.304499131209708D+00 0.100092007501843D+03 -.780838177236205D+02
 0.166889541334280D+03 0.286365352430717D+02 -.112832680160495D+03 0.773666775804546D+02
 0.000000000000000D+00 0.000000000000000D+00 -.000000000000000D+00 -.000000000000000D+00
 0.310731926268243D+02 -.283320361118620D+02 0.127406726586523D+02 0.717140143165865D+00
 0.188074329139950D+03 0.000000000000000D+00 0.000000000000000D+00 0.188074329139950D+03
 0.317497814296896D+03 0.000000000000000D+00 0.000000000000000D+00 -.317497814296896D+03
 0.178606646207558D+03 -.104459053027477D+01 0.100881912699157D+03 -.780838177236205D+02
 0.166274158509383D+03 0.279454045899087D+02 -.112095031140866D+03 0.773666775804546D+02
 0.129443608170179D+03 0.156050354466250D+01 -.166553734027077D+01 -.129423485156946D+03
 0.312477305497260D+02 -.284613176042964D+02 0.128786557819793D+02 0.717140143165865D+00
0.289721804462D-05 0.000000000000D+00 0.000000000000D+00 0.835945472747D-05 0.000000000000D+00  6 -2 2 25 23 21 21 2 0.29708754D-02 0.28176395D+00 0.28742814D+05 0.28742814D+05 0.28742814D+05 0.12168545D+01  1  2  2  2  6  2        2 0.167508659434D-02 0.100000000000D+01
0.520813614254D-06 0.152890396641D-06 -.111260801464D-07 0.835945472747D-05 0.000000000000D+00  6 -2 2 25 23 21 21 4 0.29708754D-02 0.28176395D+00 0.28742814D+05 0.28742814D+05 0.28742814D+05 0.12168545D+01  1  2  3  2  6  2        2 0.445877696914D-03 0.100000000000D+01
0.459220649791D-07 0.000000000000D+00 0.000000000000D+00 0.835945472747D-05 0.000000000000D+00  6 -2 2 25 23 21 21 4 0.29708754D-02 0.28176395D+00 0.28742814D+05 0.28742814D+05 0.28742814D+05 0.12168545D+01  1  2 15  2  6  2        2 0.393146876542D-04 0.100000000000D+01
0.187986909488D-04 0.000000000000D+00 0.000000000000D+00 0.835110092454D-05 0.000000000000D+00  6 -2 2 25 23 21 21 4 0.29708754D-02 0.47583598D+00 0.29127261D+05 0.29127261D+05 0.29127261D+05 0.12162464D+01  1  2 12  2  6  2        2 0.332392818788D-02 0.100000000000D+01
-.568430071624D-02 0.000000000000D+00 0.000000000000D+00 0.835945472747D-05 0.000000000000D+00  6 -2 2 25 23 21 21 4 0.29708754D-02 0.28176395D+00 0.28742814D+05 0.28742814D+05 0.28742814D+05 0.12168545D+01  1  2  4  2  6  2        2 -.486642983701D+01 0.100000000000D+01
-.663283127086D-02 0.000000000000D+00 -.174048853719D-05 0.835945472747D-05 0.000000000000D+00  6 -2 2 25 23 21 21 4 0.29708754D-02 0.47570090D+00 0.28742814D+05 0.28742814D+05 0.28742814D+05 0.12168545D+01  1  2  5  2  6  2        2 -.117697084706D+01 0.100000000000D+01
0.581770637019D-02 0.000000000000D+00 0.152633659295D-05 0.835945472747D-05 0.000000000000D+00  6 -2 2 25 23 21 21 4 0.29708754D-02 0.28176395D+00 0.28742814D+05 0.28742814D+05 0.28742814D+05 0.12168545D+01  1  2  6  2  6  2        2 0.498064076413D+01 0.100000000000D+01
0.652556547947D-02 0.000000000000D+00 0.000000000000D+00 0.835945472747D-05 0.711508424694D-05  6 -2 2 25 23 21 21 4 0.29710890D-02 0.47569423D+00 0.29127261D+05 0.29127261D+05 0.29127261D+05 0.12162464D+01  1  2 11  2  6  2        2 0.115516329633D+01 0.100000000000D+01
0.110052831448D-05 0.000000000000D+00 0.000000000000D+00 0.835110092454D-05 0.000000000000D+00  6 -2 21 25 23 -2 21 4 0.29708754D-02 0.47583598D+00 0.29127261D+05 0.29127261D+05 0.29127261D+05 0.12162464D+01  3  4 12  5  5  2        2 0.229737092398D-04 0.100000000000D+01
-.388051279578D-03 0.000000000000D+00 -.101848297446D-06 0.835945472747D-05 0.000000000000D+00  6 -2 21 25 23 -2 21 4 0.29708754D-02 0.47570090D+00 0.28742814D+05 0.28742814D+05 0.28742814D+05 0.12168545D+01  3  4  5  5  5  2        2 -.814786896703D-02 0.100000000000D+01
0.385847449440D-03 0.000000000000D+00 0.000000000000D+00 0.835945472747D-05 0.841408454584D-06  6 -2 21 25 23 -2 21 4 0.29710890D-02 0.47569423D+00 0.29127261D+05 0.29127261D+05 0.29127261D+05 0.12162464D+01  3  4 11  5  5  2        2 0.807173696554D-02 0.100000000000D+01
  </mgrwgt>
  </event>
  <event>
  6     66 0.42185105E-03 0.31273657E+02 0.75467711E-02 0.11904862E+00
       -2 -1    0    0    0  503 0.00000000E+00 0.00000000E+00 0.16511872E+03 0.16511903E+03 0.32000000E+00 0.0000E+00 0.9000E+01
        2 -1    0    0  502    0 0.00000000E+00 0.00000000E+00 -.21832216E+03 0.21832240E+03 0.32000000E+00 0.0000E+00 0.9000E+01
       25  1    1    2    0    0 -.66622801E+02 -.30861394E+02 0.48636802E+02 0.15291031E+03 0.12500000E+03 0.0000E+00 0.9000E+01
       23  1    1    2    0    0 0.72185187E+02 0.58705861E+02 -.12276250E+03 0.17900548E+03 0.91188000E+02 0.0000E+00 0.9000E+01
       21  1    1    2  502  501 -.97406210E+01 -.33318205E+02 0.25625129E+02 0.43153125E+02 0.75000000E+00 0.0000E+00 0.9000E+01
       21  1    1    2  501  503 0.41782341E+01 0.54737385E+01 -.47028755E+01 0.83725140E+01 0.75000000E+00 0.0000E+00 0.9000E+01
#aMCatNLO 2  0  0  1  5 0.68861784D+01 0.00000000D+00  -5  6  0 0.00000000D+00 0.00000000D+00 0.00000000D+00 0.00000000D+00 0.00000000D+00
  <mgrwgt>
 0.9070284982D-02    2    2    0
 0.185928052555440D+03 0.000000000000000D+00 0.000000000000000D+00 0.185928052555440D+03
 0.185928052555440D+03 0.000000000000000D+00 0.000000000000000D+00 -.185928052555440D+03
 0.159370881822821D+03 -.648251011523249D+02 -.285051419655830D+02 0.689872532798365D+02
 0.166217665327876D+03 0.740436243235519D+02 0.611417323131163D+02 -.100460396126203D+03
 0.462675579601834D+02 -.921852317122700D+01 -.326365903475333D+02 0.314731428463664D+02
 0.000000000000000D+00 0.000000000000000D+00 0.000000000000000D+00 -.000000000000000D+00
 0.188031647674915D+03 0.000000000000000D+00 0.000000000000000D+00 0.188031647674915D+03
 0.191682169041601D+03 0.000000000000000D+00 0.000000000000000D+00 -.191682169041601D+03
 0.160546188154071D+03 -.666222665303915D+02 -.308595369061091D+02 0.689872532798365D+02
 0.164514188556446D+03 0.721857058409039D+02 0.587077471446715D+02 -.100460396126203D+03
 0.468594834222996D+02 -.974167341934117D+01 -.333219486970359D+02 0.314731428463664D+02
 0.779395658369894D+01 0.417823410882877D+01 0.547373845847352D+01 -.365052136668612D+01
-.503148718241D-04 0.000000000000D+00 0.000000000000D+00 0.697489658351D-05 0.000000000000D+00  6 -2 2 25 23 21 21 4 0.25116336D-01 0.32576682D-01 0.24025449D+05 0.24025449D+05 0.24025449D+05 0.12251534D+01  1  2  8  1  6  1       -2 -.250111039532D-01 0.100000000000D+01
0.726880623973D-04 0.000000000000D+00 0.000000000000D+00 0.697489658351D-05 0.392664964068D-06  6 -2 2 25 23 21 21 4 0.25400502D-01 0.33584868D-01 0.25098538D+05 0.25098538D+05 0.25098538D+05 0.12231145D+01  1  2  1  1  6  1       -2 0.340813889351D-01 0.100000000000D+01
  </mgrwgt>
  </event>
  <event>
  5     66 0.42185105E-03 0.59740343E+02 0.75467711E-02 0.93832256E-01
       -2 -1    0    0    0  501 0.00000000E+00 0.00000000E+00 0.31801019E+03 0.31801035E+03 0.32000000E+00 0.0000E+00 0.9000E+01
        2 -1    0    0  502    0 0.00000000E+00 0.00000000E+00 -.95274381E+03 0.95274387E+03 0.32000000E+00 0.0000E+00 0.9000E+01
       25  1    1    2    0    0 -.59743734E+02 -.58412183E+02 -.79972426E+03 0.81373533E+03 0.12500000E+03 0.0000E+00 0.9000E+01
       23  1    1    2    0    0 0.22186355E+02 0.10487020E+03 -.10810800E+03 0.17746150E+03 0.91188000E+02 0.0000E+00 0.9000E+01
       21  1    1    2  502  501 0.37557378E+02 -.46458013E+02 0.27309864E+03 0.27955739E+03 0.75000000E+00 0.0000E+00 0.9000E+01
#aMCatNLO 1  0  0  1  5 0.68861784D+01 0.00000000D+00  -5  6  0 0.00000000D+00 0.00000000D+00 0.00000000D+00 0.00000000D+00 0.00000000D+00
  <mgrwgt>
 0.1618459529D+00    5    4    0
 0.550438349695418D+03 0.000000000000000D+00 0.000000000000000D+00 0.550438349695418D+03
 0.550438349695418D+03 0.000000000000000D+00 0.000000000000000D+00 -.550438349695418D+03
 0.478206134400846D+03 -.597437535455015D+02 -.584121581514732D+02 -.453954635036346D+03
 0.142513855119928D+03 0.221863494924839D+02 0.104870203159527D+03 -.224711802676436D+02
 0.480156709870062D+03 0.375574040530176D+02 -.464580450080533D+02 0.476425815303989D+03
 0.000000000000000D+00 -.000000000000000D+00 -.000000000000000D+00 0.000000000000000D+00
 0.220208047950431D+04 0.000000000000000D+00 0.000000000000000D+00 0.220208047950431D+04
 0.850921886156399D+03 0.000000000000000D+00 0.000000000000000D+00 -.850921886156399D+03
 0.550760379864062D+03 0.218953072633125D+03 0.183566710875195D+03 -.453954635036346D+03
 0.255002203105664D+03 0.129854055143388D+03 0.198352823687840D+03 -.224711802676436D+02
 0.620230974314878D+03 0.335598740575498D+03 0.212316719397345D+03 0.476425815303989D+03
 0.162700880837611D+04 -.684405868352011D+03 -.594236253960380D+03 0.135115859334791D+04
 0.550438349695418D+03 0.000000000000000D+00 0.000000000000000D+00 0.550438349695418D+03
 0.550438349695418D+03 0.000000000000000D+00 0.000000000000000D+00 -.550438349695418D+03
 0.478206134400846D+03 -.597437535455015D+02 -.584121581514732D+02 -.453954635036346D+03
 0.142513855119928D+03 0.221863494924839D+02 0.104870203159527D+03 -.224711802676436D+02
 0.000000000000000D+00 -.000000000000000D+00 -.000000000000000D+00 0.000000000000000D+00
 0.480156709870062D+03 0.375574040530176D+02 -.464580450080533D+02 0.476425815303989D+03
 0.220208047950431D+04 0.000000000000000D+00 0.000000000000000D+00 0.220208047950431D+04
 0.850921886156399D+03 0.000000000000000D+00 0.000000000000000D+00 -.850921886156399D+03
 0.550760379864062D+03 0.218953072633125D+03 0.183566710875195D+03 -.453954635036346D+03
 0.255002203105664D+03 0.129854055143388D+03 0.198352823687840D+03 -.224711802676436D+02
 0.162700880837611D+04 -.684405868352011D+03 -.594236253960380D+03 0.135115859334791D+04
 0.620230974314878D+03 0.335598740575498D+03 0.212316719397345D+03 0.476425815303989D+03
0.670205053276D-02 0.000000000000D+00 0.000000000000D+00 0.619013966053D-05 0.000000000000D+00  6 -2 2 25 23 21 21 2 0.48924661D-01 0.14657599D+00 0.30769607D+05 0.30769607D+05 0.30769607D+05 0.12137455D+01  1  2  2  1  6  1       -2 0.115149806194D+00 0.100000000000D+01
0.100642985285D-02 0.353676923338D-03 -.257376387362D-04 0.619013966053D-05 0.000000000000D+00  6 -2 2 25 23 21 21 4 0.48924661D-01 0.14657599D+00 0.30769607D+05 0.30769607D+05 0.30769607D+05 0.12137455D+01  1  2  3  1  6  1       -2 0.254738337102D-01 0.100000000000D+01
0.310030231480D-03 0.000000000000D+00 0.000000000000D+00 0.619013966053D-05 0.000000000000D+00  6 -2 2 25 23 21 21 4 0.48924661D-01 0.14657599D+00 0.30769607D+05 0.30769607D+05 0.30769607D+05 0.12137455D+01  1  2 15  1  6  1       -2 0.784720220637D-02 0.100000000000D+01
0.937492403800D-02 0.000000000000D+00 -.422307046483D-02 0.619013966053D-05 0.000000000000D+00  6 -2 2 25 23 21 21 4 0.25094532D+00 0.14657599D+00 0.30769607D+05 0.30769607D+05 0.30769607D+05 0.12137455D+01  1  2  5  1  6  1       -2 0.435967972896D-02 0.100000000000D+01
0.173009275368D-02 0.000000000000D+00 -.842675389766D-03 0.619013966053D-05 0.000000000000D+00  6 21 2 25 23 2 21 4 0.25094532D+00 0.14657599D+00 0.30769607D+05 0.30769607D+05 0.30769607D+05 0.12137455D+01  3  4  5  4  5  1       -2 0.901543106277D-02 0.100000000000D+01
  </mgrwgt>
  </event>
  <event>
  5     66 -.42185105E-03 0.20914796E+02 0.75467711E-02 0.10484674E+00
       -2 -1    0    0    0  501 0.00000000E+00 0.00000000E+00 0.18949314E+03 0.18949341E+03 0.32000000E+00 0.0000E+00 0.9000E+01
        2 -1    0    0  502    0 -.00000000E+00 -.00000000E+00 -.21059935E+04 0.21059935E+04 0.32000000E+00 0.0000E+00 0.9000E+01
       25  1    1    2    0    0 -.13341988E+03 0.34340414E+03 -.18646680E+04 0.19048199E+04 0.12500000E+03 0.0000E+00 0.9000E+01
       23  1    1    2    0    0 0.11566491E+03 -.33236838E+03 -.37851977E+02 0.36550668E+03 0.91188000E+02 0.0000E+00 0.9000E+01
       21  1    1    2  502  501 0.17754974E+02 -.11035753E+02 -.13980349E+02 0.25160278E+02 0.75000000E+00 0.0000E+00 0.9000E+01
#aMCatNLO 1  0  0  5  2 0.25106890D+01 0.00000000D+00  -5  6  0 0.00000000D+00 0.00000000D+00 0.00000000D+00 0.00000000D+00 0.00000000D+00
  <mgrwgt>
 -.3349309316D+01   18    2    0
 0.631721186510364D+03 0.000000000000000D+00 0.000000000000000D+00 0.631721186510364D+03
 0.631721186510364D+03 -.000000000000000D+00 -.000000000000000D+00 -.631721186510364D+03
 0.632287067462792D+03 -.133424044851931D+03 0.343406724478635D+03 -.498429314465855D+03
 0.606649665810198D+03 0.115660911550028D+03 -.332365900031245D+03 0.485658344641027D+03
 0.245056397477385D+02 0.177631333019033D+02 -.110408244473898D+02 0.127709698248283D+02
 0.000000000000000D+00 0.000000000000000D+00 0.000000000000000D+00 0.000000000000000D+00
 0.631721186510364D+03 0.000000000000000D+00 0.000000000000000D+00 0.631721186510364D+03
 0.631721186510364D+03 -.000000000000000D+00 -.000000000000000D+00 -.631721186510364D+03
 0.631865441306308D+03 -.133045956809195D+03 0.343171720685410D+03 -.498157484552582D+03
 0.607051491261249D+03 0.116023910390564D+03 -.332591525004320D+03 0.485919326032099D+03
 0.205325178573799D+02 0.133921957505815D+02 -.898452054600647D+01 0.127087282251261D+02
 0.399292259579244D+01 0.362985066804929D+01 -.159567513508352D+01 -.470569704643331D+00
0.437625960628D-01 0.000000000000D+00 0.000000000000D+00 0.566001715166D-05 0.000000000000D+00  6 -2 2 25 23 21 21 2 0.29152814D-01 0.32399902D+00 0.14957424D+06 0.14957424D+06 0.14957424D+06 0.11478427D+01  1  2  2  3  6  5       21 0.397245763407D+00 0.100000000000D+01
0.264424669794D-01 0.230941564185D-02 -.168059891837D-03 0.566001715166D-05 0.000000000000D+00  6 -2 2 25 23 21 21 4 0.29152814D-01 0.32399902D+00 0.14957424D+06 0.14957424D+06 0.14957424D+06 0.11478427D+01  1  2  3  3  6  5       21 0.316244473489D+00 0.100000000000D+01
0.122382776112D-02 0.000000000000D+00 0.000000000000D+00 0.566001715166D-05 0.000000000000D+00  6 -2 2 25 23 21 21 4 0.29152814D-01 0.32399902D+00 0.14957424D+06 0.14957424D+06 0.14957424D+06 0.11478427D+01  1  2 15  3  6  5       21 0.146366360694D-01 0.100000000000D+01
-.496946916633D+00 0.000000000000D+00 0.000000000000D+00 0.566001715166D-05 0.000000000000D+00  6 -2 2 25 23 21 21 4 0.29152814D-01 0.32399902D+00 0.14957424D+06 0.14957424D+06 0.14957424D+06 0.11478427D+01  1  2  4  3  6  5       21 -.594334545731D+01 0.100000000000D+01
-.269733937661D+00 0.000000000000D+00 0.000000000000D+00 0.566001715166D-05 0.000000000000D+00  6 -2 2 25 23 21 21 4 0.29152814D-01 0.32399902D+00 0.14957424D+06 0.14957424D+06 0.14957424D+06 0.11478427D+01  1  2  5  3  6  5       21 -.322594208642D+01 0.100000000000D+01
0.433644390717D+00 0.000000000000D+00 -.000000000000D+00 0.566001715166D-05 0.000000000000D+00  6 -2 2 25 23 21 21 4 0.29152814D-01 0.32399902D+00 0.14957424D+06 0.14957424D+06 0.14957424D+06 0.11478427D+01  1  2  6  3  6  5       21 0.518626503836D+01 0.100000000000D+01
0.834609177464D-05 0.000000000000D+00 0.000000000000D+00 0.566083526405D-05 0.000000000000D+00  6 -2 2 25 23 1 -1 4 0.29152814D-01 0.32399902D+00 0.14925030D+06 0.14925030D+06 0.14925030D+06 0.11479257D+01  1  2 12  6  6  5       21 0.998554742676D-04 0.100000000000D+01
0.834609177464D-05 0.000000000000D+00 0.000000000000D+00 0.566083526405D-05 0.000000000000D+00  6 -2 2 25 23 3 -3 4 0.29152814D-01 0.32399902D+00 0.14925030D+06 0.14925030D+06 0.14925030D+06 0.11479257D+01  1  2 12  6  6  5       21 0.998554742676D-04 0.100000000000D+01
0.837835651681D-05 0.000000000000D+00 0.000000000000D+00 0.566083526405D-05 0.000000000000D+00  6 -2 2 25 23 1 -1 4 0.29152814D-01 0.32399902D+00 0.14925030D+06 0.14925030D+06 0.14925030D+06 0.11479257D+01  1  2 12  6  6  5       21 0.100241500592D-03 0.100000000000D+01
0.837835651681D-05 0.000000000000D+00 0.000000000000D+00 0.566083526405D-05 0.000000000000D+00  6 -2 2 25 23 3 -3 4 0.29152814D-01 0.32399902D+00 0.14925030D+06 0.14925030D+06 0.14925030D+06 0.11479257D+01  1  2 12  6  6  5       21 0.100241500592D-03 0.100000000000D+01
-.199030746116D-02 0.000000000000D+00 0.000000000000D+00 0.566001715166D-05 0.000000000000D+00  6 -2 2 25 23 1 -1 4 0.29152814D-01 0.32399902D+00 0.14957424D+06 0.14957424D+06 0.14957424D+06 0.11478427D+01  1  2  5  6  6  5       21 -.238035178648D-01 0.100000000000D+01
-.199030746116D-02 0.000000000000D+00 0.000000000000D+00 0.566001715166D-05 0.000000000000D+00  6 -2 2 25 23 3 -3 4 0.29152814D-01 0.32399902D+00 0.14957424D+06 0.14957424D+06 0.14957424D+06 0.11478427D+01  1  2  5  6  6  5       21 -.238035178648D-01 0.100000000000D+01
0.834609177464D-05 0.000000000000D+00 0.000000000000D+00 0.566083526405D-05 0.000000000000D+00  6 -2 2 25 23 2 -2 4 0.29152814D-01 0.32399902D+00 0.14925030D+06 0.14925030D+06 0.14925030D+06 0.11479257D+01  1  2 12  7  6  5       21 0.998554742676D-04 0.100000000000D+01
0.837835651681D-05 0.000000000000D+00 0.000000000000D+00 0.566083526405D-05 0.000000000000D+00  6 -2 2 25 23 2 -2 4 0.29152814D-01 0.32399902D+00 0.14925030D+06 0.14925030D+06 0.14925030D+06 0.11479257D+01  1  2 12  7  6  5       21 0.100241500592D-03 0.100000000000D+01
-.199030746116D-02 0.000000000000D+00 0.000000000000D+00 0.566001715166D-05 0.000000000000D+00  6 -2 2 25 23 2 -2 4 0.29152814D-01 0.32399902D+00 0.14957424D+06 0.14957424D+06 0.14957424D+06 0.11478427D+01  1  2  5  7  6  5       21 -.238035178648D-01 0.100000000000D+01
0.834609177464D-05 0.000000000000D+00 0.000000000000D+00 0.566083526405D-05 0.000000000000D+00  6 -2 2 25 23 4 -4 4 0.29152814D-01 0.32399902D+00 0.14925030D+06 0.14925030D+06 0.14925030D+06 0.11479257D+01  1  2 12  8  6  5       21 0.998554742676D-04 0.100000000000D+01
0.837835651681D-05 0.000000000000D+00 0.000000000000D+00 0.566083526405D-05 0.000000000000D+00  6 -2 2 25 23 4 -4 4 0.29152814D-01 0.32399902D+00 0.14925030D+06 0.14925030D+06 0.14925030D+06 0.11479257D+01  1  2 12  8  6  5       21 0.100241500592D-03 0.100000000000D+01
-.199030746116D-02 0.000000000000D+00 0.000000000000D+00 0.566001715166D-05 0.000000000000D+00  6 -2 2 25 23 4 -4 4 0.29152814D-01 0.32399902D+00 0.14957424D+06 0.14957424D+06 0.14957424D+06 0.11478427D+01  1  2  5  8  6  5       21 -.238035178648D-01 0.100000000000D+01
  </mgrwgt>
  </event>
  <event>
  5     66 0.42185105E-03 0.44361303E+02 0.75467711E-02 0.12095378E+00
       -2 -1    0    0    0  501 0.00000000E+00 0.00000000E+00 0.12558517E+02 0.12562594E+02 0.32000000E+00 0.0000E+00 0.9000E+01
        2 -1    0    0  502    0 0.00000000E+00 0.00000000E+00 -.18763272E+04 0.18763272E+04 0.32000000E+00 0.0000E+00 0.9000E+01
       25  1    1    2    0    0 -.35989357E+02 0.19374009E+02 -.50070579E+03 0.51768897E+03 0.12500000E+03 0.0000E+00 0.9000E+01
       23  1    1    2    0    0 0.42877670E+02 0.24444014E+02 -.10274220E+04 0.10326409E+04 0.91188000E+02 0.0000E+00 0.9000E+01
       21  1    1    2  502  501 -.68883128E+01 -.43818023E+02 -.33564084E+03 0.33855990E+03 0.75000000E+00 0.0000E+00 0.9000E+01
#aMCatNLO 1  0  0  1  2 0.60410361D+01 0.00000000D+00  -5  6  0 0.00000000D+00 0.00000000D+00 0.00000000D+00 0.00000000D+00 0.00000000D+00
  <mgrwgt>
 0.9567379889D-01    6    4    0
 0.153517956816531D+03 0.000000000000000D+00 0.000000000000000D+00 0.153517956816531D+03
 0.153517956816531D+03 0.000000000000000D+00 0.000000000000000D+00 -.153517956816531D+03
 0.145448222145177D+03 -.359889123994412D+02 0.193768397958676D+02 0.621250480001686D+02
 0.116168978468276D+03 0.428780256137246D+02 0.244462745284625D+02 -.523816265069216D+02
 0.454187130196089D+02 -.688911321428346D+01 -.438231143243301D+02 -.974342149324703D+01
 0.000000000000000D+00 -.000000000000000D+00 -.000000000000000D+00 -.000000000000000D+00
 0.153715020163392D+03 0.000000000000000D+00 0.000000000000000D+00 0.153715020163392D+03
 0.208064878418418D+03 0.000000000000000D+00 0.000000000000000D+00 -.208064878418418D+03
 0.144889686787370D+03 -.332283946307746D+02 0.201090412148463D+02 0.621250480001686D+02
 0.117130218646218D+03 0.450962222709163D+02 0.250346303646049D+02 -.523816265069216D+02
 0.450754321695391D+02 -.602869957876000D+01 -.435948976861365D+02 -.974342149324703D+01
 0.546845609786828D+02 -.583912806138171D+01 -.154877389331466D+01 -.543498582550263D+02
 0.153517956816531D+03 0.000000000000000D+00 0.000000000000000D+00 0.153517956816531D+03
 0.153517956816531D+03 0.000000000000000D+00 0.000000000000000D+00 -.153517956816531D+03
 0.145448222145177D+03 -.359889123994412D+02 0.193768397958676D+02 0.621250480001686D+02
 0.116168978468276D+03 0.428780256137246D+02 0.244462745284625D+02 -.523816265069216D+02
 0.000000000000000D+00 -.000000000000000D+00 -.000000000000000D+00 -.000000000000000D+00
 0.454187130196089D+02 -.688911321428346D+01 -.438231143243301D+02 -.974342149324703D+01
 0.153715020163392D+03 0.000000000000000D+00 0.000000000000000D+00 0.153715020163392D+03
 0.208064878418418D+03 0.000000000000000D+00 0.000000000000000D+00 -.208064878418418D+03
 0.144889686787370D+03 -.332283946307746D+02 0.201090412148463D+02 0.621250480001686D+02
 0.117130218646218D+03 0.450962222709163D+02 0.250346303646049D+02 -.523816265069216D+02
 0.546845609786828D+02 -.583912806138171D+01 -.154877389331466D+01 -.543498582550263D+02
 0.450754321695391D+02 -.602869957876000D+01 -.435948976861365D+02 -.974342149324703D+01
0.846454984995D-04 0.000000000000D+00 0.000000000000D+00 0.563369229547D-05 0.000000000000D+00  6 -2 2 25 23 21 21 2 0.19323953D-02 0.28866604D+00 0.19538899D+05 0.19538899D+05 0.19538899D+05 0.12349428D+01  1  2  2  1  6  1       -2 0.894526309601D-01 0.100000000000D+01
0.257179382990D-05 0.446686567603D-05 -.325061001910D-06 0.563369229547D-05 0.000000000000D+00  6 -2 2 25 23 21 21 4 0.19323953D-02 0.28866604D+00 0.19538899D+05 0.19538899D+05 0.19538899D+05 0.12349428D+01  1  2  3  1  6  1       -2 0.414494813318D-02 0.100000000000D+01
0.249668697110D-05 0.000000000000D+00 0.000000000000D+00 0.563369229547D-05 0.000000000000D+00  6 -2 2 25 23 21 21 4 0.19323953D-02 0.28866604D+00 0.19538899D+05 0.19538899D+05 0.19538899D+05 0.12349428D+01  1  2 15  1  6  1       -2 0.402389875879D-02 0.100000000000D+01
-.159719089001D-05 0.000000000000D+00 0.000000000000D+00 0.563369229547D-05 0.000000000000D+00  6 -2 2 25 23 21 21 4 0.19323953D-02 0.28866604D+00 0.19538899D+05 0.19538899D+05 0.19538899D+05 0.12349428D+01  1  2  4  1  6  1       -2 -.257418511582D-02 0.100000000000D+01
0.335370258201D-06 0.000000000000D+00 0.000000000000D+00 0.563369229547D-05 0.683475290692D-06  6 -2 2 25 23 21 21 4 0.19348758D-02 0.39123282D+00 0.20407631D+05 0.20407631D+05 0.20407631D+05 0.12328625D+01  1  2 11  1  6  1       -2 0.240925047288D-03 0.100000000000D+01
0.255018816280D-07 0.000000000000D+00 0.000000000000D+00 0.561472806972D-05 0.962728227860D-09  6 21 2 25 23 2 21 4 0.19348758D-02 0.39123282D+00 0.20407631D+05 0.20407631D+05 0.20407631D+05 0.12328625D+01  3  4 11  4  5  1       -2 0.385581107124D-03 0.100000000000D+01
  </mgrwgt>
  </event>
  <event>
  5     66 -.42185105E-03 0.29899510E+02 0.75467711E-02 0.11706203E+00
       -2 -1    0    0    0  501 0.00000000E+00 0.00000000E+00 0.62723697E+02 0.62724513E+02 0.32000000E+00 0.0000E+00 0.9000E+01
        2 -1    0    0  502    0 -.00000000E+00 -.00000000E+00 -.54816908E+03 0.54816917E+03 0.32000000E+00 0.0000E+00 0.9000E+01
       25  1    1    2    0    0 0.12466782E+03 0.11810270E+02 -.32921244E+03 0.37374774E+03 0.12500000E+03 0.0000E+00 0.9000E+01
       23  1    1    2    0    0 -.10954971E+03 -.37598579E+02 -.13912013E+03 0.20269301E+03 0.91188000E+02 0.0000E+00 0.9000E+01
       21  1    1    2  502  501 -.15118107E+02 0.25788309E+02 -.17112813E+02 0.34452938E+02 0.75000000E+00 0.0000E+00 0.9000E+01
#aMCatNLO 1  0  0  5  1 0.22762065D+00 0.00000000D+00  -5  6  0 0.00000000D+00 0.00000000D+00 0.00000000D+00 0.00000000D+00 0.00000000D+00
  <mgrwgt>
 -.4696693266D-01   15    2    0
 0.185427800236912D+03 0.000000000000000D+00 0.000000000000000D+00 0.185427800236912D+03
 0.185427800236912D+03 -.000000000000000D+00 -.000000000000000D+00 -.185427800236912D+03
 0.184724377208508D+03 0.124669611819490D+03 0.118072075019117D+02 -.530676292560336D+02
 0.151779673240342D+03 -.109548233779308D+03 -.376010951612970D+02 0.361546675195664D+02
 0.343515500249741D+02 -.151213780401822D+02 0.257938876593853D+02 0.169129617364672D+02
 0.000000000000000D+00 0.000000000000000D+00 0.000000000000000D+00 0.000000000000000D+00
 0.185427800236912D+03 0.000000000000000D+00 0.000000000000000D+00 0.185427800236912D+03
 0.185427800236912D+03 -.000000000000000D+00 -.000000000000000D+00 -.185427800236912D+03
 0.184721503428608D+03 0.124666372455990D+03 0.118127331741074D+02 -.530640060921411D+02
 0.151781178801901D+03 -.109550895451816D+03 -.375965549083188D+02 0.361576445475316D+02
 0.186050684054369D+01 -.767614633872314D+00 0.152677982994362D+01 0.735660810735759D+00
 0.324924114027724D+02 -.143478623703013D+02 0.242570419042677D+02 0.161707007338737D+02
0.882088392065D-05 0.000000000000D+00 0.000000000000D+00 0.104396434821D-04 0.000000000000D+00  6 -2 2 25 23 21 21 2 0.96498695D-02 0.84333774D-01 0.31372879D+05 0.31372879D+05 0.31372879D+05 0.12128641D+01  1  2  2  3  6  5       21 0.501220393125D-02 0.100000000000D+01
0.164062199882D-05 0.465490833131D-06 -.338745168474D-07 0.104396434821D-04 0.000000000000D+00  6 -2 2 25 23 21 21 4 0.96498695D-02 0.84333774D-01 0.31372879D+05 0.31372879D+05 0.31372879D+05 0.12128641D+01  1  2  3  3  6  5       21 0.137135356023D-02 0.100000000000D+01
0.965522541062D-07 0.000000000000D+00 0.000000000000D+00 0.104396434821D-04 0.000000000000D+00  6 -2 2 25 23 21 21 4 0.96498695D-02 0.84333774D-01 0.31372879D+05 0.31372879D+05 0.31372879D+05 0.12128641D+01  1  2 15  3  6  5       21 0.807055357734D-04 0.100000000000D+01
-.811344534548D-03 0.000000000000D+00 0.000000000000D+00 0.104396434821D-04 0.000000000000D+00  6 -2 2 25 23 21 21 4 0.96498695D-02 0.84333774D-01 0.31372879D+05 0.31372879D+05 0.31372879D+05 0.12128641D+01  1  2  4  3  6  5       21 -.678181943691D+00 0.100000000000D+01
-.142769578664D-04 0.000000000000D+00 0.000000000000D+00 0.104396434821D-04 0.000000000000D+00  6 -2 2 25 23 21 21 4 0.96498695D-02 0.84333774D-01 0.31372879D+05 0.31372879D+05 0.31372879D+05 0.12128641D+01  1  2  5  3  6  5       21 -.119337403822D-01 0.100000000000D+01
0.749321924449D-03 0.000000000000D+00 -.000000000000D+00 0.104396434821D-04 0.000000000000D+00  6 -2 2 25 23 21 21 4 0.96498695D-02 0.84333774D-01 0.31372879D+05 0.31372879D+05 0.31372879D+05 0.12128641D+01  1  2  6  3  6  5       21 0.626338845626D+00 0.100000000000D+01
0.136310454069D-04 0.000000000000D+00 0.000000000000D+00 0.104396434821D-04 0.152333543596D-02  6 -2 2 25 23 21 21 4 0.96498695D-02 0.84333774D-01 0.31371283D+05 0.31371283D+05 0.31371283D+05 0.12128664D+01  1  2 11  3  6  5       21 0.113939142764D-01 0.100000000000D+01
-.256172111359D-04 0.000000000000D+00 0.000000000000D+00 0.104396434821D-04 0.000000000000D+00  6 -2 2 25 23 1 -1 4 0.96498695D-02 0.84333774D-01 0.31372879D+05 0.31372879D+05 0.31372879D+05 0.12128641D+01  1  2  5  6  6  5       21 -.214127652315D-01 0.100000000000D+01
-.256172111359D-04 0.000000000000D+00 0.000000000000D+00 0.104396434821D-04 0.000000000000D+00  6 -2 2 25 23 3 -3 4 0.96498695D-02 0.84333774D-01 0.31372879D+05 0.31372879D+05 0.31372879D+05 0.12128641D+01  1  2  5  6  6  5       21 -.214127652315D-01 0.100000000000D+01
0.253158932703D-04 0.000000000000D+00 0.000000000000D+00 0.104396434821D-04 0.125684656690D-04  6 -2 2 25 23 1 -1 4 0.96498695D-02 0.84333774D-01 0.31371283D+05 0.31371283D+05 0.31371283D+05 0.12128664D+01  1  2 11  6  6  5       21 0.211610415153D-01 0.100000000000D+01
0.253158932703D-04 0.000000000000D+00 0.000000000000D+00 0.104396434821D-04 0.125684656690D-04  6 -2 2 25 23 3 -3 4 0.96498695D-02 0.84333774D-01 0.31371283D+05 0.31371283D+05 0.31371283D+05 0.12128664D+01  1  2 11  6  6  5       21 0.211610415153D-01 0.100000000000D+01
-.256172111359D-04 0.000000000000D+00 0.000000000000D+00 0.104396434821D-04 0.000000000000D+00  6 -2 2 25 23 2 -2 4 0.96498695D-02 0.84333774D-01 0.31372879D+05 0.31372879D+05 0.31372879D+05 0.12128641D+01  1  2  5  7  6  5       21 -.214127652315D-01 0.100000000000D+01
0.252667473688D-04 0.000000000000D+00 0.000000000000D+00 0.104396434821D-04 0.125445229165D-04  6 -2 2 25 23 2 -2 4 0.96498695D-02 0.84333774D-01 0.31371283D+05 0.31371283D+05 0.31371283D+05 0.12128664D+01  1  2 11  7  6  5       21 0.211199614534D-01 0.100000000000D+01
-.256172111359D-04 0.000000000000D+00 0.000000000000D+00 0.104396434821D-04 0.000000000000D+00  6 -2 2 25 23 4 -4 4 0.96498695D-02 0.84333774D-01 0.31372879D+05 0.31372879D+05 0.31372879D+05 0.12128641D+01  1  2  5  8  6  5       21 -.214127652315D-01 0.100000000000D+01
0.253155384420D-04 0.000000000000D+00 0.000000000000D+00 0.104396434821D-04 0.125682895090D-04  6 -2 2 25 23 4 -4 4 0.96498695D-02 0.84333774D-01 0.31371283D+05 0.31371283D+05 0.31371283D+05 0.12128664D+01  1  2 11  8  6  5       21 0.211607449215D-01 0.100000000000D+01
  </mgrwgt>
  </event>
  <event>
  5     66 0.42185105E-03 0.21474214E+02 0.75467711E-02 0.10257769E+00
       -4 -1    0    0    0  501 0.00000000E+00 0.00000000E+00 0.17009992E+04 0.17009999E+04 0.15500000E+01 0.0000E+00 0.9000E+01
        4 -1    0    0  502    0 0.00000000E+00 0.00000000E+00 -.19996205E+02 0.20056189E+02 0.15500000E+01 0.0000E+00 0.9000E+01
       25  1    1    2    0    0 -.71097075E+01 0.11314922E+03 0.61140987E+03 0.63427149E+03 0.12500000E+03 0.0000E+00 0.9000E+01
       23  1    1    2    0    0 0.27947150E+02 -.10796657E+03 0.61354088E+03 0.63022653E+03 0.91188000E+02 0.0000E+00 0.9000E+01
       21  1    1    2  502  501 -.20837443E+02 -.51826513E+01 0.45605227E+03 0.45655810E+03 0.75000000E+00 0.0000E+00 0.9000E+01
#aMCatNLO 1  0  0  1  5 0.42506301D+03 0.00000000D+00  -5  6  0 0.00000000D+00 0.00000000D+00 0.00000000D+00 0.00000000D+00 0.00000000D+00
  <mgrwgt>
 0.7325419482D-01    3    2    0
 0.184569102580812D+03 0.000000000000000D+00 0.000000000000000D+00 0.184569102580812D+03
 0.184569102580812D+03 0.000000000000000D+00 0.000000000000000D+00 -.184569102580812D+03
 0.172930415592368D+03 -.710868582641572D+01 0.113149471850346D+03 -.377702560589446D+02
 0.144366556977039D+03 0.279480030888914D+02 -.107966354296821D+03 -.941418571099269D+01
 0.518412325922173D+02 -.208393172624756D+02 -.518311755352499D+01 0.471844417699373D+02
 0.000000000000000D+00 -.000000000000000D+00 -.000000000000000D+00 -.000000000000000D+00
 0.345445608511948D+03 0.000000000000000D+00 0.000000000000000D+00 0.345445608511948D+03
 0.798876221716575D+03 0.000000000000000D+00 0.000000000000000D+00 -.798876221716575D+03
 0.354509879323483D+03 0.110112372600103D+03 0.310645984515442D+03 -.377702560589446D+02
 0.127476193855502D+03 0.883637416764231D+02 -.617664311959919D+01 -.941418571099269D+01
 0.598790349998559D+02 0.398997268952934D+01 0.366497940691374D+02 0.471844417699373D+02
 0.602456722049681D+03 -.202466086966055D+03 -.341119135464981D+03 -.453430613204627D+03
0.659570134730D-02 0.000000000000D+00 0.000000000000D+00 0.233972089121D-04 0.000000000000D+00  6 -4 4 25 23 21 21 2 0.26169686D+00 0.30810077D-02 0.27937242D+05 0.27937242D+05 0.27937242D+05 0.12181589D+01  1  2  2  1  6  1       -4 0.549035368262D-01 0.100000000000D+01
0.133053442712D-02 0.348064722635D-03 -.253292298617D-04 0.233972089121D-04 0.000000000000D+00  6 -4 4 25 23 21 21 4 0.26169686D+00 0.30810077D-02 0.27937242D+05 0.27937242D+05 0.27937242D+05 0.12181589D+01  1  2  3  1  6  1       -4 0.164351373135D-01 0.100000000000D+01
0.155074226532D-03 0.000000000000D+00 0.000000000000D+00 0.233972089121D-04 0.000000000000D+00  6 -4 4 25 23 21 21 4 0.26169686D+00 0.30810077D-02 0.27937242D+05 0.27937242D+05 0.27937242D+05 0.12181589D+01  1  2 15  1  6  1       -4 0.191552067718D-02 0.100000000000D+01
  </mgrwgt>
  </event>
  <event>
  5     66 -.42185105E-03 0.20422002E+02 0.75467711E-02 0.11798633E+00
       -2 -1    0    0    0  501 0.00000000E+00 0.00000000E+00 0.16527611E+02 0.16530709E+02 0.32000000E+00 0.0000E+00 0.9000E+01
        2 -1    0    0  502    0 -.00000000E+00 -.00000000E+00 -.17869833E+04 0.17869833E+04 0.32000000E+00 0.0000E+00 0.9000E+01
       25  1    1    2    0    0 0.15102024E+02 0.10254656E+03 -.10186770E+04 0.10315385E+04 0.12500000E+03 0.0000E+00 0.9000E+01
       23  1    1    2    0    0 -.11968219E+02 -.12271700E+03 -.69246960E+03 0.70924755E+03 0.91188000E+02 0.0000E+00 0.9000E+01
       21  1    1    2  502  501 -.31338043E+01 0.20170438E+02 -.59309040E+02 0.62727921E+02 0.75000000E+00 0.0000E+00 0.9000E+01
#aMCatNLO 1  0  0  5  1 0.66432433D+00 0.00000000D+00  -5  6  0 0.00000000D+00 0.00000000D+00 0.00000000D+00 0.00000000D+00 0.00000000D+00
  <mgrwgt>
 -.2878707278D+01   18    2    0
 0.171864434465761D+03 0.000000000000000D+00 0.000000000000000D+00 0.171864434465761D+03
 0.171864434465761D+03 -.000000000000000D+00 -.000000000000000D+00 -.171864434465761D+03
 0.165452690911037D+03 0.151027833127613D+02 0.102541670688794D+03 -.317286091447732D+02
 0.154634355294281D+03 -.119675095219248D+02 -.122721567192197D+03 0.198173700326680D+02
 0.236418227262053D+02 -.313527379083655D+01 0.201798965034032D+02 0.119112391121052D+02
 0.000000000000000D+00 0.000000000000000D+00 0.000000000000000D+00 0.000000000000000D+00
 0.171864434465761D+03 0.000000000000000D+00 0.000000000000000D+00 0.171864434465761D+03
 0.171864434465761D+03 -.000000000000000D+00 -.000000000000000D+00 -.171864434465761D+03
 0.165498511836961D+03 0.150883345422234D+02 0.102634668848926D+03 -.316737167263642D+02
 0.154573037520783D+03 -.119810089944462D+02 -.122634679099958D+03 0.198686559667896D+02
 0.225296145670422D+02 -.344107884595418D+01 0.194140975586013D+02 0.109011616307859D+02
 0.112770500673735D+01 0.333753298177028D+00 0.585912692430981D+00 0.903899128788568D+00
0.476867189233D-04 0.000000000000D+00 0.000000000000D+00 0.240296289523D-04 0.000000000000D+00  6 -2 2 25 23 21 21 2 0.25429499D-02 0.27492074D+00 0.28251418D+05 0.28251418D+05 0.28251418D+05 0.12176453D+01  1  2  2  3  6  5       21 0.365954205569D-01 0.100000000000D+01
0.140087349161D-04 0.251649729444D-05 -.183129556867D-06 0.240296289523D-04 0.000000000000D+00  6 -2 2 25 23 21 21 4 0.25429499D-02 0.27492074D+00 0.28251418D+05 0.28251418D+05 0.28251418D+05 0.12176453D+01  1  2  3  3  6  5       21 0.159393197537D-01 0.100000000000D+01
0.166730745596D-06 0.000000000000D+00 0.000000000000D+00 0.240296289523D-04 0.000000000000D+00  6 -2 2 25 23 21 21 4 0.25429499D-02 0.27492074D+00 0.28251418D+05 0.28251418D+05 0.28251418D+05 0.12176453D+01  1  2 15  3  6  5       21 0.189708398562D-03 0.100000000000D+01
-.272834499319D-02 0.000000000000D+00 0.000000000000D+00 0.240296289523D-04 0.000000000000D+00  6 -2 2 25 23 21 21 4 0.25429499D-02 0.27492074D+00 0.28251418D+05 0.28251418D+05 0.28251418D+05 0.12176453D+01  1  2  4  3  6  5       21 -.310434621721D+01 0.100000000000D+01
-.158507317485D-02 0.000000000000D+00 0.000000000000D+00 0.240296289523D-04 0.000000000000D+00  6 -2 2 25 23 21 21 4 0.25429499D-02 0.27492074D+00 0.28251418D+05 0.28251418D+05 0.28251418D+05 0.12176453D+01  1  2  5  3  6  5       21 -.180351675709D+01 0.100000000000D+01
0.176054573417D-02 0.000000000000D+00 -.000000000000D+00 0.240296289523D-04 0.000000000000D+00  6 -2 2 25 23 21 21 4 0.25429499D-02 0.27492074D+00 0.28251418D+05 0.28251418D+05 0.28251418D+05 0.12176453D+01  1  2  6  3  6  5       21 0.200317170436D+01 0.100000000000D+01
0.291516264275D-12 0.000000000000D+00 0.000000000000D+00 0.240300823905D-04 0.000000000000D+00  6 -2 2 25 23 1 -1 4 0.25429499D-02 0.27492074D+00 0.28244347D+05 0.28244347D+05 0.28244347D+05 0.12176567D+01  1  2 12  6  6  5       21 0.331702842582D-09 0.100000000000D+01
0.291516264275D-12 0.000000000000D+00 0.000000000000D+00 0.240300823905D-04 0.000000000000D+00  6 -2 2 25 23 3 -3 4 0.25429499D-02 0.27492074D+00 0.28244347D+05 0.28244347D+05 0.28244347D+05 0.12176567D+01  1  2 12  6  6  5       21 0.331702842582D-09 0.100000000000D+01
0.292506073663D-12 0.000000000000D+00 0.000000000000D+00 0.240300823905D-04 0.000000000000D+00  6 -2 2 25 23 1 -1 4 0.25429499D-02 0.27492074D+00 0.28244347D+05 0.28244347D+05 0.28244347D+05 0.12176567D+01  1  2 12  6  6  5       21 0.332829100798D-09 0.100000000000D+01
0.292506073663D-12 0.000000000000D+00 0.000000000000D+00 0.240300823905D-04 0.000000000000D+00  6 -2 2 25 23 3 -3 4 0.25429499D-02 0.27492074D+00 0.28244347D+05 0.28244347D+05 0.28244347D+05 0.12176567D+01  1  2 12  6  6  5       21 0.332829100798D-09 0.100000000000D+01
-.587540780122D-05 0.000000000000D+00 0.000000000000D+00 0.240296289523D-04 0.000000000000D+00  6 -2 2 25 23 1 -1 4 0.25429499D-02 0.27492074D+00 0.28251418D+05 0.28251418D+05 0.28251418D+05 0.12176453D+01  1  2  5  6  6  5       21 -.668511497915D-02 0.100000000000D+01
-.587540780122D-05 0.000000000000D+00 0.000000000000D+00 0.240296289523D-04 0.000000000000D+00  6 -2 2 25 23 3 -3 4 0.25429499D-02 0.27492074D+00 0.28251418D+05 0.28251418D+05 0.28251418D+05 0.12176453D+01  1  2  5  6  6  5       21 -.668511497915D-02 0.100000000000D+01
0.291516264275D-12 0.000000000000D+00 0.000000000000D+00 0.240300823905D-04 0.000000000000D+00  6 -2 2 25 23 2 -2 4 0.25429499D-02 0.27492074D+00 0.28244347D+05 0.28244347D+05 0.28244347D+05 0.12176567D+01  1  2 12  7  6  5       21 0.331702842582D-09 0.100000000000D+01
0.292506073663D-12 0.000000000000D+00 0.000000000000D+00 0.240300823905D-04 0.000000000000D+00  6 -2 2 25 23 2 -2 4 0.25429499D-02 0.27492074D+00 0.28244347D+05 0.28244347D+05 0.28244347D+05 0.12176567D+01  1  2 12  7  6  5       21 0.332829100798D-09 0.100000000000D+01
-.587540780122D-05 0.000000000000D+00 0.000000000000D+00 0.240296289523D-04 0.000000000000D+00  6 -2 2 25 23 2 -2 4 0.25429499D-02 0.27492074D+00 0.28251418D+05 0.28251418D+05 0.28251418D+05 0.12176453D+01  1  2  5  7  6  5       21 -.668511497915D-02 0.100000000000D+01
0.291516264275D-12 0.000000000000D+00 0.000000000000D+00 0.240300823905D-04 0.000000000000D+00  6 -2 2 25 23 4 -4 4 0.25429499D-02 0.27492074D+00 0.28244347D+05 0.28244347D+05 0.28244347D+05 0.12176567D+01  1  2 12  8  6  5       21 0.331702842582D-09 0.100000000000D+01
0.292506073663D-12 0.000000000000D+00 0.000000000000D+00 0.240300823905D-04 0.000000000000D+00  6 -2 2 25 23 4 -4 4 0.25429499D-02 0.27492074D+00 0.28244347D+05 0.28244347D+05 0.28244347D+05 0.12176567D+01  1  2 12  8  6  5       21 0.332829100798D-09 0.100000000000D+01
-.587540780122D-05 0.000000000000D+00 0.000000000000D+00 0.240296289523D-04 0.000000000000D+00  6 -2 2 25 23 4 -4 4 0.25429499D-02 0.27492074D+00 0.28251418D+05 0.28251418D+05 0.28251418D+05 0.12176453D+01  1  2  5  8  6  5       21 -.668511497915D-02 0.100000000000D+01
  </mgrwgt>
  </event>
  <event>
  6     66 0.42185105E-03 0.61311132E+02 0.75467711E-02 0.11632449E+00
       21 -1    0    0  503  501 0.00000000E+00 0.00000000E+00 0.65748150E+02 0.65752427E+02 0.75000000E+00 0.0000E+00 0.9000E+01
        2 -1    0    0  502    0 0.00000000E+00 0.00000000E+00 -.22190252E+04 0.22190252E+04 0.32000000E+00 0.0000E+00 0.9000E+01
       25  1    1    2    0    0 -.54172333E+02 -.20863038E+02 -.71857007E+03 0.73166786E+03 0.12500000E+03 0.0000E+00 0.9000E+01
       23  1    1    2    0    0 0.77678681E+02 -.31319057E+02 -.14209655E+04 0.14263495E+04 0.91188000E+02 0.0000E+00 0.9000E+01
        2  1    1    2  503    0 0.31026974E+02 -.19745902E+01 -.35196420E+02 0.46962352E+02 0.32000000E+00 0.0000E+00 0.9000E+01
       21  1    1    2  502  501 -.54533321E+02 0.54156685E+02 0.21454917E+02 0.79797905E+02 0.75000000E+00 0.0000E+00 0.9000E+01
#aMCatNLO 2  0  0  1  5 0.31089743D+02 0.00000000D+00  -5  6  0 0.00000000D+00 0.00000000D+00 0.00000000D+00 0.00000000D+00 0.00000000D+00
  <mgrwgt>
 0.1163613174D+00    1    2    0
 0.360757947322026D+03 0.000000000000000D+00 0.000000000000000D+00 0.360757947322026D+03
 0.360757947322026D+03 0.000000000000000D+00 0.000000000000000D+00 -.360757947322026D+03
 0.157596861303568D+03 -.473527450796371D+02 -.212970764466378D+02 -.807212658534596D+02
 0.255932753952325D+03 0.886006897735818D+02 -.320141986991850D+02 -.219798389563973D+03
 0.000000000000000D+00 0.000000000000000D+00 -.000000000000000D+00 0.000000000000000D+00
 0.307986279388158D+03 -.412479446939448D+02 0.533112751458228D+02 0.300519655417433D+03
 0.396575448794243D+03 0.000000000000000D+00 0.000000000000000D+00 0.396575448794243D+03
 0.367902857758449D+03 0.000000000000000D+00 0.000000000000000D+00 -.367902857758449D+03
 0.159721100031889D+03 -.541723108789469D+02 -.208630718842270D+02 -.807212658534596D+02
 0.252272575804163D+03 0.776787121103935D+02 -.313191121972185D+02 -.219798389563973D+03
 0.422929021583139D+02 0.310269735816607D+02 -.197459024350248D+01 0.286725910357941D+02
 0.310191728558327D+03 -.545333748131073D+02 0.541567743249480D+02 0.300519655417433D+03
0.921168285025D-04 0.000000000000D+00 0.000000000000D+00 0.738973787980D-05 0.187876375668D-07  6 21 2 25 23 2 21 4 0.10115414D-01 0.34138827D+00 0.34147828D+05 0.34147828D+05 0.34147828D+05 0.12090396D+01  1  2  1  4  5  1       -2 0.116361317398D+00 0.100000000000D+01
  </mgrwgt>
  </event>
  <event>
  5     66 0.42185105E-03 0.79531500E+02 0.75467711E-02 0.10830095E+00
       -2 -1    0    0    0  501 0.00000000E+00 0.00000000E+00 0.13628142E+03 0.13628180E+03 0.32000000E+00 0.0000E+00 0.9000E+01
        2 -1    0    0  502    0 -.00000000E+00 -.00000000E+00 -.93785230E+03 0.93785236E+03 0.32000000E+00 0.0000E+00 0.9000E+01
       25  1    1    2    0    0 0.11945529E+01 0.32472300E+02 -.60527282E+03 0.61889908E+03 0.12500000E+03 0.0000E+00 0.9000E+01
       23  1    1    2    0    0 -.33424737E+02 0.40235717E+02 -.30382017E+03 0.32149350E+03 0.91188000E+02 0.0000E+00 0.9000E+01
       21  1    1    2  502  501 0.32230184E+02 -.72708017E+02 0.10752211E+03 0.13374157E+03 0.75000000E+00 0.0000E+00 0.9000E+01
#aMCatNLO 1  0  0  5  2 0.58649142D+02 0.00000000D+00  -5  6  0 0.00000000D+00 0.00000000D+00 0.00000000D+00 0.00000000D+00 0.00000000D+00
  <mgrwgt>
 0.6207651386D-01    3    2    0
 0.357508148910295D+03 0.000000000000000D+00 0.000000000000000D+00 0.357508148910295D+03
 0.357508148910295D+03 -.000000000000000D+00 -.000000000000000D+00 -.357508148910295D+03
 0.251199528215899D+03 0.119452211765562D+01 0.324723693867547D+02 -.215453756799947D+03
 0.142365767818335D+03 -.334247547015653D+02 0.402357564568978D+02 -.960032821209018D+02
 0.321451001786357D+03 0.322302325839097D+02 -.727081258436525D+02 0.311457038920849D+03
 0.000000000000000D+00 -.000000000000000D+00 0.000000000000000D+00 0.000000000000000D+00
 0.357508148910295D+03 0.000000000000000D+00 0.000000000000000D+00 0.357508148910295D+03
 0.357508148910295D+03 -.000000000000000D+00 -.000000000000000D+00 -.357508148910295D+03
 0.181527615700556D+03 0.997105911483938D+01 0.126733947811144D+02 -.130641640784167D+03
 0.110023227178007D+03 -.283058214813856D+02 0.286879638746039D+02 -.465364413514476D+02
 0.243845654658387D+03 0.965944161355204D+02 -.191211080959275D+03 0.116484095848322D+03
 0.179619800283640D+03 -.782596537689742D+02 0.149849722303556D+03 0.606939862872922D+02
0.661225367728D-03 0.000000000000D+00 0.000000000000D+00 0.108074306471D-04 0.000000000000D+00  6 -2 2 25 23 21 21 2 0.20966406D-01 0.14428500D+00 0.24619421D+05 0.24619421D+05 0.24619421D+05 0.12240126D+01  1  2  2  3  6  5       21 0.559085429612D-01 0.100000000000D+01
0.209663645528D-04 0.348938213086D-04 -.253927951671D-05 0.108074306471D-04 0.000000000000D+00  6 -2 2 25 23 21 21 4 0.20966406D-01 0.14428500D+00 0.24619421D+05 0.24619421D+05 0.24619421D+05 0.12240126D+01  1  2  3  3  6  5       21 0.265597233048D-02 0.100000000000D+01
0.277238740154D-04 0.000000000000D+00 0.000000000000D+00 0.108074306471D-04 0.000000000000D+00  6 -2 2 25 23 21 21 4 0.20966406D-01 0.14428500D+00 0.24619421D+05 0.24619421D+05 0.24619421D+05 0.12240126D+01  1  2 15  3  6  5       21 0.351199856766D-02 0.100000000000D+01
  </mgrwgt>
  </event>
  <event>
  5     66 -.42185105E-03 0.77021447E+02 0.75467711E-02 0.11475074E+00
       -4 -1    0    0    0  501 0.00000000E+00 0.00000000E+00 0.15515479E+04 0.15515487E+04 0.15500000E+01 0.0000E+00 0.9000E+01
        4 -1    0    0  502    0 0.00000000E+00 0.00000000E+00 -.14272200E+03 0.14273042E+03 0.15500000E+01 0.0000E+00 0.9000E+01
       25  1    1    2    0    0 0.65806951E+02 0.27433788E+02 -.43979331E+01 0.14397052E+03 0.12500000E+03 0.0000E+00 0.9000E+01
       23  1    1    2    0    0 0.62807563E+02 -.58797193E+02 -.54353751E+01 0.12548583E+03 0.91188000E+02 0.0000E+00 0.9000E+01
       21  1    1    2  502  501 -.12861451E+03 0.31363405E+02 0.14186592E+04 0.14248228E+04 0.75000000E+00 0.0000E+00 0.9000E+01
#aMCatNLO 1  0  0  1  5 0.43790431D+01 0.00000000D+00  -5  6  0 0.00000000D+00 0.00000000D+00 0.00000000D+00 0.00000000D+00 0.00000000D+00
  <mgrwgt>
 -.7933528456D-02   11    4    0
 0.470582420183903D+03 0.000000000000000D+00 0.000000000000000D+00 0.470582420183903D+03
 0.470582420183903D+03 0.000000000000000D+00 0.000000000000000D+00 -.470582420183903D+03
 0.265758234428859D+03 0.658070038065902D+02 0.274337753124254D+02 -.223426196738098D+03
 0.234035154758185D+03 0.628076094223966D+02 -.587972043074674D+02 -.197624126267410D+03
 0.441371451180761D+03 -.128614613228987D+03 0.313634289950420D+02 0.421050323005508D+03
 0.000000000000000D+00 -.000000000000000D+00 -.000000000000000D+00 0.000000000000000D+00
 0.497731185803612D+03 0.000000000000000D+00 0.000000000000000D+00 0.497731185803612D+03
 0.470764129773368D+03 0.000000000000000D+00 0.000000000000000D+00 -.470764129773368D+03
 0.266092607480714D+03 0.669304820001887D+02 0.279521188151590D+02 -.223426196738098D+03
 0.234188429686338D+03 0.637966818190167D+02 -.583408721299116D+02 -.197624126267410D+03
 0.440893990531504D+03 -.126750921557144D+03 0.322232876684926D+02 0.421050323005508D+03
 0.273202878784244D+02 -.397624226206117D+01 -.183453435373999D+01 0.269670560302442D+02
 0.470582420183903D+03 0.000000000000000D+00 0.000000000000000D+00 0.470582420183903D+03
 0.470582420183903D+03 0.000000000000000D+00 0.000000000000000D+00 -.470582420183903D+03
 0.265758234428859D+03 0.658070038065902D+02 0.274337753124254D+02 -.223426196738098D+03
 0.234035154758185D+03 0.628076094223966D+02 -.587972043074674D+02 -.197624126267410D+03
 0.000000000000000D+00 -.000000000000000D+00 -.000000000000000D+00 0.000000000000000D+00
 0.441371451180761D+03 -.128614613228987D+03 0.313634289950420D+02 0.421050323005508D+03
 0.497731185803612D+03 0.000000000000000D+00 0.000000000000000D+00 0.497731185803612D+03
 0.470764129773368D+03 0.000000000000000D+00 0.000000000000000D+00 -.470764129773368D+03
 0.266092607480714D+03 0.669304820001887D+02 0.279521188151590D+02 -.223426196738098D+03
 0.234188429686338D+03 0.637966818190167D+02 -.583408721299116D+02 -.197624126267410D+03
 0.273202878784244D+02 -.397624226206117D+01 -.183453435373999D+01 0.269670560302442D+02
 0.440893990531504D+03 -.126750921557144D+03 0.322232876684926D+02 0.421050323005508D+03
0.189354924067D-03 0.000000000000D+00 0.000000000000D+00 0.585295784877D-05 0.000000000000D+00  6 -4 4 25 23 21 21 2 0.23870039D+00 0.21957938D-01 0.40331667D+05 0.40331667D+05 0.40331667D+05 0.12016363D+01  1  2  2  1  6  1       -4 0.779400541474D-04 0.100000000000D+01
-.635733805468D-06 0.999253387240D-05 -.727172766715D-06 0.585295784877D-05 0.000000000000D+00  6 -4 4 25 23 21 21 4 0.23870039D+00 0.21957938D-01 0.40331667D+05 0.40331667D+05 0.40331667D+05 0.12016363D+01  1  2  3  1  6  1       -4 -.377837842478D-06 0.100000000000D+01
0.672578497548D-05 0.000000000000D+00 0.000000000000D+00 0.585295784877D-05 0.000000000000D+00  6 -4 4 25 23 21 21 4 0.23870039D+00 0.21957938D-01 0.40331667D+05 0.40331667D+05 0.40331667D+05 0.12016363D+01  1  2 15  1  6  1       -4 0.399735874080D-05 0.100000000000D+01
0.368750212268D-02 0.000000000000D+00 0.000000000000D+00 0.584513732463D-05 0.000000000000D+00  6 -4 4 25 23 21 21 4 0.25464426D+00 0.21957938D-01 0.41074267D+05 0.41074267D+05 0.41074267D+05 0.12008332D+01  1  2 12  1  6  1       -4 0.176181973102D-02 0.100000000000D+01
-.703730766593D-01 0.000000000000D+00 0.000000000000D+00 0.585295784877D-05 0.000000000000D+00  6 -4 4 25 23 21 21 4 0.23870039D+00 0.21957938D-01 0.40331667D+05 0.40331667D+05 0.40331667D+05 0.12016363D+01  1  2  4  1  6  1       -4 -.418250708469D-01 0.100000000000D+01
-.376810616771D-01 0.000000000000D+00 -.529054958294D-03 0.585295784877D-05 0.000000000000D+00  6 -4 4 25 23 21 21 4 0.25250712D+00 0.21957938D-01 0.40331667D+05 0.40331667D+05 0.40331667D+05 0.12016363D+01  1  2  5  1  6  1       -4 -.185746706628D-01 0.100000000000D+01
0.376521051405D-01 0.000000000000D+00 0.528219663958D-03 0.585295784877D-05 0.000000000000D+00  6 -4 4 25 23 21 21 4 0.23870039D+00 0.21957938D-01 0.40331667D+05 0.40331667D+05 0.40331667D+05 0.12016363D+01  1  2  6  1  6  1       -4 0.223779041616D-01 0.100000000000D+01
0.598997794916D-01 0.000000000000D+00 0.000000000000D+00 0.585295784877D-05 0.355677915075D-05  6 -4 4 25 23 21 21 4 0.25247145D+00 0.21966417D-01 0.41074267D+05 0.41074267D+05 0.41074267D+05 0.12008332D+01  1  2 11  1  6  1       -4 0.294494147070D-01 0.100000000000D+01
0.681042737849D-04 0.000000000000D+00 0.000000000000D+00 0.584513732463D-05 0.000000000000D+00  6 21 4 25 23 4 21 4 0.25464426D+00 0.21957938D-01 0.41074267D+05 0.41074267D+05 0.41074267D+05 0.12008332D+01  3  4 12  4  5  1       -4 0.703204566771D-03 0.100000000000D+01
-.392554442429D-03 0.000000000000D+00 -.513645069185D-05 0.585295784877D-05 0.000000000000D+00  6 21 4 25 23 4 21 4 0.25250712D+00 0.21957938D-01 0.40331667D+05 0.40331667D+05 0.40331667D+05 0.12016363D+01  3  4  5  4  5  1       -4 -.418828519427D-02 0.100000000000D+01
0.214623044706D-03 0.000000000000D+00 0.000000000000D+00 0.585295784877D-05 0.254790840226D-07  6 21 4 25 23 4 21 4 0.25247145D+00 0.21966417D-01 0.41074267D+05 0.41074267D+05 0.41074267D+05 0.12008332D+01  3  4 11  4  5  1       -4 0.228059550618D-02 0.100000000000D+01
  </mgrwgt>
  </event>
  <event>
  5     66 0.42185105E-03 0.20177692E+02 0.75467711E-02 0.11089887E+00
       -2 -1    0    0    0  501 0.00000000E+00 0.00000000E+00 0.16825603E+04 0.16825604E+04 0.32000000E+00 0.0000E+00 0.9000E+01
        2 -1    0    0  502    0 0.00000000E+00 0.00000000E+00 -.11894203E+02 0.11898507E+02 0.32000000E+00 0.0000E+00 0.9000E+01
       25  1    1    2    0    0 -.17612509E+02 0.59462716E+01 0.66583023E+03 0.67771709E+03 0.12500000E+03 0.0000E+00 0.9000E+01
       23  1    1    2    0    0 0.17173558E+02 -.26117561E+02 0.39573656E+03 0.40730791E+03 0.91188000E+02 0.0000E+00 0.9000E+01
       21  1    1    2  502  501 0.43895132E+00 0.20171290E+02 0.60909936E+03 0.60943389E+03 0.75000000E+00 0.0000E+00 0.9000E+01
#aMCatNLO 1  0  0  2  5 0.68718421D+00 0.00000000D+00  -5  6  0 0.00000000D+00 0.00000000D+00 0.00000000D+00 0.00000000D+00 0.00000000D+00
  <mgrwgt>
 0.1777941670D+00    5    4    0
 0.141479281618033D+03 0.000000000000000D+00 0.000000000000000D+00 0.141479281618033D+03
 0.141479281618033D+03 0.000000000000000D+00 0.000000000000000D+00 -.141479281618033D+03
 0.127169785457817D+03 -.176125288902208D+02 0.594537120399392D+01 -.141987929319744D+02
 0.102569997209493D+03 0.171735421778910D+02 -.261182873018392D+02 -.350465048334083D+02
 0.532187805687571D+02 0.438986712329797D+00 0.201729160978452D+02 0.492452977653827D+02
 0.000000000000000D+00 -.000000000000000D+00 -.000000000000000D+00 -.000000000000000D+00
 0.217881940131541D+03 0.000000000000000D+00 0.000000000000000D+00 0.217881940131541D+03
 0.376988813528243D+03 0.000000000000000D+00 0.000000000000000D+00 -.376988813528243D+03
 0.150115718855102D+03 0.354721514340167D+02 0.738230980066606D+02 -.141987929319744D+02
 0.117623501601368D+03 0.593282935516191D+02 0.277836798891322D+02 -.350465048334083D+02
 0.757150193026443D+02 0.251226050144196D+02 0.517350897678554D+02 0.492452977653827D+02
 0.251416513900670D+03 -.119923050000055D+03 -.153341867663648D+03 -.159106873396702D+03
 0.141479281618033D+03 0.000000000000000D+00 0.000000000000000D+00 0.141479281618033D+03
 0.141479281618033D+03 0.000000000000000D+00 0.000000000000000D+00 -.141479281618033D+03
 0.127169785457817D+03 -.176125288902208D+02 0.594537120399392D+01 -.141987929319744D+02
 0.102569997209493D+03 0.171735421778910D+02 -.261182873018392D+02 -.350465048334083D+02
 0.000000000000000D+00 -.000000000000000D+00 -.000000000000000D+00 -.000000000000000D+00
 0.532187805687571D+02 0.438986712329797D+00 0.201729160978452D+02 0.492452977653827D+02
 0.217881940131541D+03 0.000000000000000D+00 0.000000000000000D+00 0.217881940131541D+03
 0.376988813528243D+03 0.000000000000000D+00 0.000000000000000D+00 -.376988813528243D+03
 0.150115718855102D+03 0.354721514340167D+02 0.738230980066606D+02 -.141987929319744D+02
 0.117623501601368D+03 0.593282935516191D+02 0.277836798891322D+02 -.350465048334083D+02
 0.251416513900670D+03 -.119923050000055D+03 -.153341867663648D+03 -.159106873396702D+03
 0.757150193026443D+02 0.251226050144196D+02 0.517350897678554D+02 0.492452977653827D+02
0.170366700084D-02 0.000000000000D+00 0.000000000000D+00 0.409454411640D-04 0.000000000000D+00  6 -2 2 25 23 21 21 2 0.25885577D+00 0.18302109D-02 0.14756072D+05 0.14756072D+05 0.14756072D+05 0.12486351D+01  1  2  2  2  6  2        2 0.102883880541D+00 0.100000000000D+01
0.243788418838D-03 0.899049776340D-04 -.654252986904D-05 0.409454411640D-04 0.000000000000D+00  6 -2 2 25 23 21 21 4 0.25885577D+00 0.18302109D-02 0.14756072D+05 0.14756072D+05 0.14756072D+05 0.12486351D+01  1  2  3  2  6  2        2 0.229533865156D-01 0.100000000000D+01
0.505659562443D-04 0.000000000000D+00 0.000000000000D+00 0.409454411640D-04 0.000000000000D+00  6 -2 2 25 23 21 21 4 0.25885577D+00 0.18302109D-02 0.14756072D+05 0.14756072D+05 0.14756072D+05 0.12486351D+01  1  2 15  2  6  2        2 0.476093140002D-02 0.100000000000D+01
0.119709674081D-02 0.000000000000D+00 -.153775070142D-02 0.409454411640D-04 0.000000000000D+00  6 -2 2 25 23 21 21 4 0.25885577D+00 0.81842094D-02 0.14756072D+05 0.14756072D+05 0.14756072D+05 0.12486351D+01  1  2  5  2  6  2        2 0.156798262448D-01 0.100000000000D+01
0.204950166360D-03 0.000000000000D+00 -.278324035542D-03 0.409454411640D-04 0.000000000000D+00  6 -2 21 25 23 -2 21 4 0.25885577D+00 0.81842094D-02 0.14756072D+05 0.14756072D+05 0.14756072D+05 0.12486351D+01  3  4  5  5  5  2        2 0.315161422838D-01 0.100000000000D+01
  </mgrwgt>
  </event>
  <event>
  5     66 0.42185105E-03 0.56313480E+02 0.75467711E-02 0.11936448E+00
       -2 -1    0    0    0  501 0.00000000E+00 0.00000000E+00 0.27605894E+03 0.27605913E+03 0.32000000E+00 0.0000E+00 0.9000E+01
        2 -1    0    0  502    0 0.00000000E+00 0.00000000E+00 -.98748681E+02 0.98749199E+02 0.32000000E+00 0.0000E+00 0.9000E+01
       25  1    1    2    0    0 0.52780456E+02 -.44958922E+02 0.53038682E+02 0.15246371E+03 0.12500000E+03 0.0000E+00 0.9000E+01
       23  1    1    2    0    0 -.88891961E+02 0.17532391E+01 0.77049639E+02 0.14885145E+03 0.91188000E+02 0.0000E+00 0.9000E+01
       21  1    1    2  502  501 0.36111506E+02 0.43205683E+02 0.47221939E+02 0.73493169E+02 0.75000000E+00 0.0000E+00 0.9000E+01
#aMCatNLO 1  0  0  5  1 0.20754184D+02 0.00000000D+00  -5  6  0 0.00000000D+00 0.00000000D+00 0.00000000D+00 0.00000000D+00 0.00000000D+00
  <mgrwgt>
 0.4391527022D-01   20    2    0
 0.165107807216147D+03 0.000000000000000D+00 0.000000000000000D+00 0.165107807216147D+03
 0.165107807216147D+03 -.000000000000000D+00 -.000000000000000D+00 -.165107807216147D+03
 0.144573399495834D+03 0.527791365528949D+02 -.449605002966085D+02 -.216652717405433D+02
 0.127581253649469D+03 -.888931254087651D+02 0.175184626770752D+01 0.752783026415505D+01
 0.580609612869910D+02 0.361139888558701D+02 0.432086540289009D+02 0.141374414763882D+02
 0.000000000000000D+00 0.000000000000000D+00 0.000000000000000D+00 0.000000000000000D+00
 0.165107807216147D+03 0.000000000000000D+00 0.000000000000000D+00 0.165107807216147D+03
 0.165107807216147D+03 -.000000000000000D+00 -.000000000000000D+00 -.165107807216147D+03
 0.144462037488795D+03 0.574735040159592D+02 -.393439149782270D+02 -.198275809348392D+02
 0.125029782813077D+03 -.847903446468207D+02 0.666062649707472D+01 0.913393429060107D+01
 0.272344088182875D+02 0.455693739567806D+01 0.120339744780602D+02 0.240027249185355D+02
 0.334893853121342D+02 0.227599032351835D+02 0.206493140030921D+02 -.133090782742974D+02
0.854072064066D-04 0.000000000000D+00 0.000000000000D+00 0.389847999286D-05 0.000000000000D+00  6 -2 2 25 23 21 21 2 0.42470660D-01 0.15192159D-01 0.26669061D+05 0.26669061D+05 0.26669061D+05 0.12202998D+01  1  2  2  3  6  5       21 0.253151195958D-01 0.100000000000D+01
0.136666931270D-05 0.450706210662D-05 -.327986160835D-06 0.389847999286D-05 0.000000000000D+00  6 -2 2 25 23 21 21 4 0.42470660D-01 0.15192159D-01 0.26669061D+05 0.26669061D+05 0.26669061D+05 0.12202998D+01  1  2  3  3  6  5       21 0.603228720101D-03 0.100000000000D+01
0.283074465039D-05 0.000000000000D+00 0.000000000000D+00 0.389847999286D-05 0.000000000000D+00  6 -2 2 25 23 21 21 4 0.42470660D-01 0.15192159D-01 0.26669061D+05 0.26669061D+05 0.26669061D+05 0.12202998D+01  1  2 15  3  6  5       21 0.124945109729D-02 0.100000000000D+01
0.179459467804D-04 0.000000000000D+00 0.000000000000D+00 0.392687587005D-05 0.000000000000D+00  6 -2 2 25 23 21 21 4 0.42470660D-01 0.15192159D-01 0.24240883D+05 0.24240883D+05 0.24240883D+05 0.12247360D+01  1  2 12  3  6  5       21 0.802005597850D-02 0.100000000000D+01
0.190993868588D-04 0.000000000000D+00 0.000000000000D+00 0.392687587005D-05 0.000000000000D+00  6 -2 2 25 23 21 21 4 0.42470660D-01 0.15192159D-01 0.24240883D+05 0.24240883D+05 0.24240883D+05 0.12247360D+01  1  2 12  3  6  5       21 0.853552914410D-02 0.100000000000D+01
-.426174946555D-04 0.000000000000D+00 0.000000000000D+00 0.389847999286D-05 0.000000000000D+00  6 -2 2 25 23 21 21 4 0.42470660D-01 0.15192159D-01 0.26669061D+05 0.26669061D+05 0.26669061D+05 0.12202998D+01  1  2  4  3  6  5       21 -.188107660837D-01 0.100000000000D+01
-.273483412488D-04 0.000000000000D+00 0.000000000000D+00 0.389847999286D-05 0.000000000000D+00  6 -2 2 25 23 21 21 4 0.42470660D-01 0.15192159D-01 0.26669061D+05 0.26669061D+05 0.26669061D+05 0.12202998D+01  1  2  5  3  6  5       21 -.120711753275D-01 0.100000000000D+01
0.642620341458D-04 0.000000000000D+00 -.000000000000D+00 0.389847999286D-05 0.000000000000D+00  6 -2 2 25 23 21 21 4 0.42470660D-01 0.15192159D-01 0.26669061D+05 0.26669061D+05 0.26669061D+05 0.12202998D+01  1  2  6  3  6  5       21 0.283643630896D-01 0.100000000000D+01
0.830413107419D-06 0.000000000000D+00 0.000000000000D+00 0.392687587005D-05 0.000000000000D+00  6 -2 2 25 23 1 -1 4 0.42470660D-01 0.15192159D-01 0.24240883D+05 0.24240883D+05 0.24240883D+05 0.12247360D+01  1  2 12  6  6  5       21 0.371112189749D-03 0.100000000000D+01
0.830413107419D-06 0.000000000000D+00 0.000000000000D+00 0.392687587005D-05 0.000000000000D+00  6 -2 2 25 23 3 -3 4 0.42470660D-01 0.15192159D-01 0.24240883D+05 0.24240883D+05 0.24240883D+05 0.12247360D+01  1  2 12  6  6  5       21 0.371112189749D-03 0.100000000000D+01
0.882602547095D-06 0.000000000000D+00 0.000000000000D+00 0.392687587005D-05 0.000000000000D+00  6 -2 2 25 23 1 -1 4 0.42470660D-01 0.15192159D-01 0.24240883D+05 0.24240883D+05 0.24240883D+05 0.12247360D+01  1  2 12  6  6  5       21 0.394435686292D-03 0.100000000000D+01
0.882602547095D-06 0.000000000000D+00 0.000000000000D+00 0.392687587005D-05 0.000000000000D+00  6 -2 2 25 23 3 -3 4 0.42470660D-01 0.15192159D-01 0.24240883D+05 0.24240883D+05 0.24240883D+05 0.12247360D+01  1  2 12  6  6  5       21 0.394435686292D-03 0.100000000000D+01
-.199784025849D-06 0.000000000000D+00 0.000000000000D+00 0.389847999286D-05 0.000000000000D+00  6 -2 2 25 23 1 -1 4 0.42470660D-01 0.15192159D-01 0.26669061D+05 0.26669061D+05 0.26669061D+05 0.12202998D+01  1  2  5  6  6  5       21 -.881818747884D-04 0.100000000000D+01
-.199784025849D-06 0.000000000000D+00 0.000000000000D+00 0.389847999286D-05 0.000000000000D+00  6 -2 2 25 23 3 -3 4 0.42470660D-01 0.15192159D-01 0.26669061D+05 0.26669061D+05 0.26669061D+05 0.12202998D+01  1  2  5  6  6  5       21 -.881818747884D-04 0.100000000000D+01
0.830413107419D-06 0.000000000000D+00 0.000000000000D+00 0.392687587005D-05 0.000000000000D+00  6 -2 2 25 23 2 -2 4 0.42470660D-01 0.15192159D-01 0.24240883D+05 0.24240883D+05 0.24240883D+05 0.12247360D+01  1  2 12  7  6  5       21 0.371112189749D-03 0.100000000000D+01
0.882602547095D-06 0.000000000000D+00 0.000000000000D+00 0.392687587005D-05 0.000000000000D+00  6 -2 2 25 23 2 -2 4 0.42470660D-01 0.15192159D-01 0.24240883D+05 0.24240883D+05 0.24240883D+05 0.12247360D+01  1  2 12  7  6  5       21 0.394435686292D-03 0.100000000000D+01
-.199784025849D-06 0.000000000000D+00 0.000000000000D+00 0.389847999286D-05 0.000000000000D+00  6 -2 2 25 23 2 -2 4 0.42470660D-01 0.15192159D-01 0.26669061D+05 0.26669061D+05 0.26669061D+05 0.12202998D+01  1  2  5  7  6  5       21 -.881818747884D-04 0.100000000000D+01
0.830413107419D-06 0.000000000000D+00 0.000000000000D+00 0.392687587005D-05 0.000000000000D+00  6 -2 2 25 23 4 -4 4 0.42470660D-01 0.15192159D-01 0.24240883D+05 0.24240883D+05 0.24240883D+05 0.12247360D+01  1  2 12  8  6  5       21 0.371112189749D-03 0.100000000000D+01
0.882602547095D-06 0.000000000000D+00 0.000000000000D+00 0.392687587005D-05 0.000000000000D+00  6 -2 2 25 23 4 -4 4 0.42470660D-01 0.15192159D-01 0.24240883D+05 0.24240883D+05 0.24240883D+05 0.12247360D+01  1  2 12  8  6  5       21 0.394435686292D-03 0.100000000000D+01
-.199784025849D-06 0.000000000000D+00 0.000000000000D+00 0.389847999286D-05 0.000000000000D+00  6 -2 2 25 23 4 -4 4 0.42470660D-01 0.15192159D-01 0.26669061D+05 0.26669061D+05 0.26669061D+05 0.12202998D+01  1  2  5  8  6  5       21 -.881818747884D-04 0.100000000000D+01
  </mgrwgt>
  </event>
  <event>
  6     66 0.42185105E-03 0.20091230E+02 0.75467711E-02 0.11666160E+00
       -2 -1    0    0    0  501 0.00000000E+00 0.00000000E+00 0.89068624E+02 0.89069199E+02 0.32000000E+00 0.0000E+00 0.9000E+01
        2 -1    0    0  503    0 0.00000000E+00 0.00000000E+00 -.42770523E+03 0.42770535E+03 0.32000000E+00 0.0000E+00 0.9000E+01
       25  1    1    2    0    0 -.55793483E+02 0.77139740E+02 -.72973832E+02 0.17324443E+03 0.12500000E+03 0.0000E+00 0.9000E+01
       23  1    1    2    0    0 0.64548313E+02 -.10899054E+03 -.19453449E+03 0.24940798E+03 0.91188000E+02 0.0000E+00 0.9000E+01
       21  1    1    2  502  501 -.19045816E+02 0.38695166E+01 -.29049197E+01 0.19665129E+02 0.75000000E+00 0.0000E+00 0.9000E+01
       21  1    1    2  503  502 0.10290985E+02 0.27981280E+02 -.68223366E+02 0.74457011E+02 0.75000000E+00 0.0000E+00 0.9000E+01
#aMCatNLO 2  0  0  2  5 0.21936084D+02 0.00000000D+00  -5  6  0 0.00000000D+00 0.00000000D+00 0.00000000D+00 0.00000000D+00 0.00000000D+00
  <mgrwgt>
 0.6628617680D-01    1    2    0
 0.174379348274273D+03 0.000000000000000D+00 0.000000000000000D+00 0.174379348274273D+03
 0.174379348274273D+03 0.000000000000000D+00 0.000000000000000D+00 -.174379348274273D+03
 0.167678055113413D+03 -.509253317090588D+02 0.903613236881637D+02 0.416217724065411D+02
 0.158644798369965D+03 0.693174312852767D+02 -.960374187058301D+02 -.531491169651857D+02
 0.224358430651671D+02 -.183920995762179D+02 0.567609501766645D+01 0.115273445586445D+02
 0.000000000000000D+00 0.000000000000000D+00 0.000000000000000D+00 -.000000000000000D+00
 0.181358486903265D+03 0.000000000000000D+00 0.000000000000000D+00 0.181358486903265D+03
 0.210047530447808D+03 0.000000000000000D+00 0.000000000000000D+00 -.210047530447808D+03
 0.162542504161732D+03 -.557884491212723D+02 0.771384642415691D+02 0.416217724065411D+02
 0.164883210761072D+03 0.645528742328705D+02 -.108992291658522D+03 -.531491169651857D+02
 0.226049763166663D+02 -.190554101631692D+02 0.387254763905153D+01 0.115273445586445D+02
 0.413753261116031D+02 0.102909850515710D+02 0.279812797779012D+02 -.286890435445427D+02
0.106339639761D-03 0.000000000000D+00 0.000000000000D+00 0.249728145584D-04 0.993773840441D-07  6 -2 2 25 23 21 21 4 0.13702668D-01 0.65799655D-01 0.32845034D+05 0.32845034D+05 0.32845034D+05 0.12107902D+01  1  2  1  2  6  2        2 0.662861767953D-01 0.100000000000D+01
  </mgrwgt>
  </event>
  <event>
  6     66 0.42185105E-03 0.17715537E+02 0.75467711E-02 0.12000621E+00
       -2 -1    0    0    0  503 0.00000000E+00 0.00000000E+00 0.50978908E+02 0.50979912E+02 0.32000000E+00 0.0000E+00 0.9000E+01
        2 -1    0    0  502    0 0.00000000E+00 0.00000000E+00 -.48000124E+03 0.48000134E+03 0.32000000E+00 0.0000E+00 0.9000E+01
       25  1    1    2    0    0 -.16715920E+02 -.67526659E+02 -.20631818E+03 0.25106067E+03 0.12500000E+03 0.0000E+00 0.9000E+01
       23  1    1    2    0    0 0.38780137E+02 0.79319410E+02 -.20174066E+03 0.23834851E+03 0.91188000E+02 0.0000E+00 0.9000E+01
       21  1    1    2  502  501 -.21808341E+02 -.31482884E+01 -.38471644E+01 0.22380318E+02 0.75000000E+00 0.0000E+00 0.9000E+01
       21  1    1    2  501  503 -.25587523E+00 -.86444619E+01 -.17116329E+02 0.19191753E+02 0.75000000E+00 0.0000E+00 0.9000E+01
#aMCatNLO 2  0  0  1  2 0.86482480D+01 0.00000000D+00  -5  6  0 0.00000000D+00 0.00000000D+00 0.00000000D+00 0.00000000D+00 0.00000000D+00
  <mgrwgt>
 0.3393680848D-01    2    2    0
 0.151811684043368D+03 0.000000000000000D+00 0.000000000000000D+00 0.151811684043368D+03
 0.151811684043368D+03 0.000000000000000D+00 0.000000000000000D+00 -.151811684043368D+03
 0.145227299676366D+03 -.168346809944280D+02 -.716316942101410D+02 -.717373484941449D+01
 0.125783769355746D+03 0.386756060871257D+02 0.757075629246485D+02 -.166993322963345D+02
 0.326122990546231D+02 -.218409250926977D+02 -.407586871450751D+01 0.238730671457489D+02
 0.000000000000000D+00 -.000000000000000D+00 -.000000000000000D+00 -.000000000000000D+00
 0.155013605909222D+03 0.000000000000000D+00 0.000000000000000D+00 0.155013605909222D+03
 0.157827380949046D+03 0.000000000000000D+00 0.000000000000000D+00 -.157827380949046D+03
 0.143232586338457D+03 -.167131574516765D+02 -.675261555658934D+02 -.717373484941449D+01
 0.128022847430679D+03 0.387825307610267D+02 0.793198949122196D+02 -.166993322963345D+02
 0.324910754165588D+02 -.218134980808517D+02 -.314927741803646D+01 0.238730671457489D+02
 0.909447767257400D+01 -.255875228498528D+00 -.864446192828974D+01 -.281377503982410D+01
-.192242640606D-04 0.000000000000D+00 0.000000000000D+00 0.246978400692D-04 0.000000000000D+00  6 -2 2 25 23 21 21 4 0.76802315D-02 0.71024694D-01 0.21306995D+05 0.21306995D+05 0.21306995D+05 0.12308108D+01  1  2  8  1  6  1       -2 -.291475269722D-01 0.100000000000D+01
0.451654925077D-04 0.000000000000D+00 0.000000000000D+00 0.246978400692D-04 0.134804484019D-05  6 -2 2 25 23 21 21 4 0.78422183D-02 0.73839122D-01 0.22600579D+05 0.22600579D+05 0.22600579D+05 0.12280238D+01  1  2  1  1  6  1       -2 0.630843354571D-01 0.100000000000D+01
  </mgrwgt>
  </event>
  <event>
  5     66 0.42185105E-03 0.43589302E+02 0.75467711E-02 0.11271844E+00
       -2 -1    0    0    0  501 0.00000000E+00 0.00000000E+00 0.12573524E+02 0.12577595E+02 0.32000000E+00 0.0000E+00 0.9000E+01
        2 -1    0    0  502    0 0.00000000E+00 0.00000000E+00 -.31679749E+04 0.31679749E+04 0.32000000E+00 0.0000E+00 0.9000E+01
       25  1    1    2    0    0 -.58211223E+02 -.23758938E+02 -.20874988E+04 0.20921829E+04 0.12500000E+03 0.0000E+00 0.9000E+01
       23  1    1    2    0    0 0.10166007E+03 0.20276538E+02 -.98570627E+03 0.99532809E+03 0.91188000E+02 0.0000E+00 0.9000E+01
       21  1    1    2  502  501 -.43448843E+02 0.34823998E+01 -.82196272E+02 0.93041489E+02 0.75000000E+00 0.0000E+00 0.9000E+01
#aMCatNLO 1  0  0  2  5 0.21987041D+02 0.00000000D+00  -5  6  0 0.00000000D+00 0.00000000D+00 0.00000000D+00 0.00000000D+00 0.00000000D+00
  <mgrwgt>
 0.1304346034D+00    7    4    0
 0.199597364422110D+03 0.000000000000000D+00 0.000000000000000D+00 0.199597364422110D+03
 0.199597364422110D+03 0.000000000000000D+00 0.000000000000000D+00 -.199597364422110D+03
 0.168842794575807D+03 -.582106063823388D+02 -.237589869457343D+02 -.944982810641594D+02
 0.138765476943031D+03 0.101660572333323D+03 0.202764971344885D+02 0.139498367030996D+02
 0.915864573253813D+02 -.434499659509845D+02 0.348248981124587D+01 0.805484443610598D+02
 0.000000000000000D+00 0.000000000000000D+00 0.000000000000000D+00 -.000000000000000D+00
 0.243310698115605D+03 0.000000000000000D+00 0.000000000000000D+00 0.243310698115605D+03
 0.291876236169380D+03 0.000000000000000D+00 0.000000000000000D+00 -.291876236169380D+03
 0.189153886697953D+03 -.831876755166872D+02 -.656054751601686D+02 -.944982810641594D+02
 0.124722430759875D+03 0.832772854733880D+02 -.105227929178794D+02 0.139498367030996D+02
 0.100392834378189D+03 -.568441684452153D+02 -.189581069537995D+02 0.805484443610598D+02
 0.120917782448968D+03 0.567545584885145D+02 0.950863750318475D+02 -.485655380537741D+02
 0.199597364422110D+03 0.000000000000000D+00 0.000000000000000D+00 0.199597364422110D+03
 0.199597364422110D+03 0.000000000000000D+00 0.000000000000000D+00 -.199597364422110D+03
 0.168842794575807D+03 -.582106063823388D+02 -.237589869457343D+02 -.944982810641594D+02
 0.138765476943031D+03 0.101660572333323D+03 0.202764971344885D+02 0.139498367030996D+02
 0.000000000000000D+00 0.000000000000000D+00 0.000000000000000D+00 -.000000000000000D+00
 0.915864573253813D+02 -.434499659509845D+02 0.348248981124587D+01 0.805484443610598D+02
 0.243310698115605D+03 0.000000000000000D+00 0.000000000000000D+00 0.243310698115605D+03
 0.291876236169380D+03 0.000000000000000D+00 0.000000000000000D+00 -.291876236169380D+03
 0.189153886697953D+03 -.831876755166872D+02 -.656054751601686D+02 -.944982810641594D+02
 0.124722430759875D+03 0.832772854733880D+02 -.105227929178794D+02 0.139498367030996D+02
 0.120917782448968D+03 0.567545584885145D+02 0.950863750318475D+02 -.485655380537741D+02
 0.100392834378189D+03 -.568441684452153D+02 -.189581069537995D+02 0.805484443610598D+02
0.289238948995D-03 0.000000000000D+00 0.000000000000D+00 0.616510742257D-05 0.000000000000D+00  6 -2 2 25 23 21 21 2 0.19347027D-02 0.48738106D+00 0.25852315D+05 0.25852315D+05 0.25852315D+05 0.12217398D+01  1  2  2  2  6  2        2 0.591783309389D-01 0.100000000000D+01
0.117233896941D-04 0.152635586811D-04 -.111075372251D-05 0.616510742257D-05 0.000000000000D+00  6 -2 2 25 23 21 21 4 0.19347027D-02 0.48738106D+00 0.25852315D+05 0.25852315D+05 0.25852315D+05 0.12217398D+01  1  2  3  2  6  2        2 0.358027640872D-02 0.100000000000D+01
0.102715749877D-04 0.000000000000D+00 0.000000000000D+00 0.616510742257D-05 0.000000000000D+00  6 -2 2 25 23 21 21 4 0.19347027D-02 0.48738106D+00 0.25852315D+05 0.25852315D+05 0.25852315D+05 0.12217398D+01  1  2 15  2  6  2        2 0.313689799354D-02 0.100000000000D+01
-.106044691923D-03 0.000000000000D+00 0.000000000000D+00 0.616510742257D-05 0.000000000000D+00  6 -2 2 25 23 21 21 4 0.19347027D-02 0.48738106D+00 0.25852315D+05 0.25852315D+05 0.25852315D+05 0.12217398D+01  1  2  4  2  6  2        2 -.323856255461D-01 0.100000000000D+01
-.293071176341D-03 0.000000000000D+00 -.143248974525D-03 0.616510742257D-05 0.000000000000D+00  6 -2 2 25 23 21 21 4 0.19347027D-02 0.73377763D+00 0.25852315D+05 0.25852315D+05 0.25852315D+05 0.12217398D+01  1  2  5  2  6  2        2 -.522656685839D-02 0.100000000000D+01
0.334498305106D-03 0.000000000000D+00 0.132041289020D-03 0.616510742257D-05 0.000000000000D+00  6 -2 2 25 23 21 21 4 0.19347027D-02 0.48738106D+00 0.25852315D+05 0.25852315D+05 0.25852315D+05 0.12217398D+01  1  2  6  2  6  2        2 0.102154446946D+00 0.100000000000D+01
-.914371465615D-05 0.000000000000D+00 -.693315366461D-05 0.616510742257D-05 0.000000000000D+00  6 -2 21 25 23 -2 21 4 0.19347027D-02 0.73377763D+00 0.25852315D+05 0.25852315D+05 0.25852315D+05 0.12217398D+01  3  4  5  5  5  2        2 -.315651656973D-05 0.100000000000D+01
  </mgrwgt>
  </event>
  <event>
  5     66 -.42185105E-03 0.23766571E+02 0.75467711E-02 0.11672133E+00
       -2 -1    0    0    0  501 0.00000000E+00 0.00000000E+00 0.25906171E+03 0.25906190E+03 0.32000000E+00 0.0000E+00 0.9000E+01
        2 -1    0    0  502    0 -.00000000E+00 -.00000000E+00 -.27515117E+03 0.27515135E+03 0.32000000E+00 0.0000E+00 0.9000E+01
       25  1    1    2    0    0 -.90089389E+02 0.80739468E+02 -.91289337E+02 0.19645280E+03 0.12500000E+03 0.0000E+00 0.9000E+01
       23  1    1    2    0    0 0.86846003E+02 -.10428351E+03 -.79106668E+02 0.18163258E+03 0.91188000E+02 0.0000E+00 0.9000E+01
       21  1    1    2  502  501 0.32433860E+01 0.23544038E+02 0.15430654E+03 0.15612788E+03 0.75000000E+00 0.0000E+00 0.9000E+01
#aMCatNLO 1  0  0  5  1 0.23837866D+01 0.00000000D+00  -5  6  0 0.00000000D+00 0.00000000D+00 0.00000000D+00 0.00000000D+00 0.00000000D+00
  <mgrwgt>
 -.1691034109D-01    1    2    0
 0.266985454793393D+03 0.000000000000000D+00 0.000000000000000D+00 0.266985454793393D+03
 0.266985454793393D+03 -.000000000000000D+00 -.000000000000000D+00 -.266985454793393D+03
 0.193791501289786D+03 -.900894018502916D+02 0.807393754127651D+02 -.854119365449728D+02
 0.179331678795350D+03 0.868459912290025D+02 -.104283592600560D+03 -.736702504226172D+02
 0.160847729501649D+03 0.324341062128905D+01 0.235442171877946D+02 0.159082186967590D+03
 0.000000000000000D+00 -.000000000000000D+00 0.000000000000000D+00 0.000000000000000D+00
 0.266985454793393D+03 0.000000000000000D+00 0.000000000000000D+00 0.266985454793393D+03
 0.266985454793393D+03 -.000000000000000D+00 -.000000000000000D+00 -.266985454793393D+03
 0.184336647752657D+03 -.894829285121401D+02 0.851418213745317D+02 -.556657476605306D+02
 0.167787227499540D+03 0.874027293675655D+02 -.100242179045021D+03 -.463634641435301D+02
 0.110127759360351D+03 0.231215969131189D+02 0.778451261833833D+02 0.743885170400095D+02
 0.717192749742366D+02 -.210413977685443D+02 -.627447685128937D+02 0.276406947640512D+02
-.109160503228D-03 0.000000000000D+00 0.000000000000D+00 0.249926921329D-04 0.000000000000D+00  6 -2 2 25 23 21 21 4 0.39855677D-01 0.42330978D-01 0.32620214D+05 0.32620214D+05 0.32620214D+05 0.12111001D+01  1  2 14  3  6  5       21 -.169103410883D-01 0.100000000000D+01
  </mgrwgt>
  </event>
  <event>
  6     66 0.42185105E-03 0.30208793E+02 0.75467711E-02 0.10991021E+00
       21 -1    0    0  503  501 0.00000000E+00 0.00000000E+00 0.15956674E+03 0.15956850E+03 0.75000000E+00 0.0000E+00 0.9000E+01
        2 -1    0    0  502    0 0.00000000E+00 0.00000000E+00 -.17522904E+04 0.17522905E+04 0.32000000E+00 0.0000E+00 0.9000E+01
       25  1    1    2    0    0 -.12158839E+03 -.19678388E+03 -.57956026E+03 0.63641396E+03 0.12500000E+03 0.0000E+00 0.9000E+01
       23  1    1    2    0    0 0.13832593E+03 0.17121280E+03 -.11267616E+04 0.11516748E+04 0.91188000E+02 0.0000E+00 0.9000E+01
        2  1    1    2  503    0 0.10535799E+02 0.26307856E+01 0.46925806E+02 0.48166978E+02 0.32000000E+00 0.0000E+00 0.9000E+01
       21  1    1    2  502  501 -.27273341E+02 0.22940301E+02 0.66672326E+02 0.75603268E+02 0.75000000E+00 0.0000E+00 0.9000E+01
#aMCatNLO 2  0  0  1  5 0.10859286D+02 0.00000000D+00  -5  6  0 0.00000000D+00 0.00000000D+00 0.00000000D+00 0.00000000D+00 0.00000000D+00
  <mgrwgt>
 0.3074263310D+00    2    2    0
 0.442938887016737D+03 0.000000000000000D+00 0.000000000000000D+00 0.442938887016737D+03
 0.442938887016737D+03 0.000000000000000D+00 0.000000000000000D+00 -.442938887016737D+03
 0.264150694823884D+03 -.118434967373656D+03 -.195996506135405D+03 -.413414762902358D+02
 0.339528811810538D+03 0.142350889173146D+03 0.172217786996567D+03 -.238834295902192D+03
 0.000000000000000D+00 0.000000000000000D+00 0.000000000000000D+00 0.000000000000000D+00
 0.282198267399051D+03 -.239159217994904D+02 0.237787191388376D+02 0.280175772192427D+03
 0.630987450557586D+03 0.000000000000000D+00 0.000000000000000D+00 0.630987450557586D+03
 0.443128965856650D+03 0.000000000000000D+00 0.000000000000000D+00 -.443128965856650D+03
 0.266161144201978D+03 -.121588364635047D+03 -.196783908403164D+03 -.413414762902358D+02
 0.337349898353356D+03 0.138325960227856D+03 0.171212763551570D+03 -.238834295902192D+03
 0.188172087113086D+03 0.105357990472015D+02 0.263078558606884D+01 0.187858484700936D+03
 0.282433286745816D+03 -.272733946400106D+02 0.229403592655251D+02 0.280175772192427D+03
-.130596956117D-02 0.000000000000D+00 0.000000000000D+00 0.930772587903D-05 0.000000000000D+00  6 21 2 25 23 2 21 4 0.26321918D-01 0.26946756D+00 0.74987998D+05 0.74987998D+05 0.74987998D+05 0.11752329D+01  1  2 13  4  5  1       -2 -.424836240747D+00 0.100000000000D+01
0.196957456826D-02 0.000000000000D+00 0.000000000000D+00 0.933603694446D-05 0.426268776970D-07  6 21 2 25 23 2 21 4 0.24548860D-01 0.26958320D+00 0.74987998D+05 0.74987998D+05 0.74987998D+05 0.11752329D+01  1  2  1  4  5  1       -2 0.732262571741D+00 0.100000000000D+01
  </mgrwgt>
  </event>
  <event>
  5     66 0.42185105E-03 0.11052104E+03 0.75467711E-02 0.88508207E-01
       -2 -1    0    0    0  501 0.00000000E+00 0.00000000E+00 0.48448923E+03 0.48448934E+03 0.32000000E+00 0.0000E+00 0.9000E+01
        2 -1    0    0  502    0 0.00000000E+00 0.00000000E+00 -.11387824E+04 0.11387825E+04 0.32000000E+00 0.0000E+00 0.9000E+01
       25  1    1    2    0    0 0.36783137E+03 -.21880561E+03 0.16403056E+03 0.47508614E+03 0.12500000E+03 0.0000E+00 0.9000E+01
       23  1    1    2    0    0 -.28452482E+03 0.14617708E+03 -.10449322E+02 0.33278605E+03 0.91188000E+02 0.0000E+00 0.9000E+01
       21  1    1    2  502  501 -.83306549E+02 0.72628532E+02 -.80787444E+03 0.81539963E+03 0.75000000E+00 0.0000E+00 0.9000E+01
#aMCatNLO 1  0  0  1  1 0.11582808D+03 0.00000000D+00  -5  6  0 0.00000000D+00 0.00000000D+00 0.00000000D+00 0.00000000D+00 0.00000000D+00
  <mgrwgt>
 0.4913899389D+00    3    2    0
 0.742783918158297D+03 0.000000000000000D+00 0.000000000000000D+00 0.742783918158297D+03
 0.742783918158297D+03 0.000000000000000D+00 0.000000000000000D+00 -.742783918158297D+03
 0.591368663031160D+03 0.367831404426793D+03 -.218805639312461D+03 0.388479144533835D+03
 0.359031282627972D+03 -.284524803388529D+03 0.146177061278326D+03 0.135152186716451D+03
 0.535167890657461D+03 -.833066010382642D+02 0.726285780341353D+02 -.523631331250286D+03
 0.000000000000000D+00 0.000000000000000D+00 0.000000000000000D+00 -.000000000000000D+00
 0.168660965072856D+04 0.000000000000000D+00 0.000000000000000D+00 0.168660965072856D+04
 0.176994282576328D+04 0.000000000000000D+00 0.000000000000000D+00 -.176994282576328D+04
 0.969110922044371D+03 0.277419097087634D+03 -.834070487464359D+03 0.388479144533835D+03
 0.396762016679741D+03 -.328314556689646D+03 -.151816615781073D+03 0.135152186716451D+03
 0.680634744465737D+03 -.153748741109708D+03 -.406737272590270D+03 -.523631331250286D+03
 0.141004479330200D+04 0.204644200711720D+03 0.139262437583570D+04 -.833331750347215D+02
0.910181811923D-01 0.000000000000D+00 0.000000000000D+00 0.948638644142D-06 0.000000000000D+00  6 -2 2 25 23 21 21 2 0.74536817D-01 0.17519731D+00 0.19758641D+06 0.19758641D+06 0.19758641D+06 0.11373426D+01  1  2  2  1  6  1       -2 0.416018387201D+00 0.100000000000D+01
0.113308588269D-01 0.480316138093D-02 -.349533781416D-03 0.948638644142D-06 0.000000000000D+00  6 -2 2 25 23 21 21 4 0.74536817D-01 0.17519731D+00 0.19758641D+06 0.19758641D+06 0.19758641D+06 0.11373426D+01  1  2  3  1  6  1       -2 0.669930559747D-01 0.100000000000D+01
0.141709541803D-02 0.000000000000D+00 0.000000000000D+00 0.948638644142D-06 0.000000000000D+00  6 -2 2 25 23 21 21 4 0.74536817D-01 0.17519731D+00 0.19758641D+06 0.19758641D+06 0.19758641D+06 0.11373426D+01  1  2 15  1  6  1       -2 0.837849576200D-02 0.100000000000D+01
  </mgrwgt>
  </event>
  <event>
  6     66 0.42185105E-03 0.11420113E+02 0.75467711E-02 0.11810969E+00
       -2 -1    0    0    0  501 0.00000000E+00 0.00000000E+00 0.56104003E+02 0.56104915E+02 0.32000000E+00 0.0000E+00 0.9000E+01
        2 -1    0    0  503    0 0.00000000E+00 0.00000000E+00 -.96220504E+03 0.96220509E+03 0.32000000E+00 0.0000E+00 0.9000E+01
       25  1    1    2    0    0 -.85484454E+02 0.53355527E+02 -.36002087E+03 0.39420101E+03 0.12500000E+03 0.0000E+00 0.9000E+01
       23  1    1    2    0    0 0.76339233E+02 -.61339047E+02 -.79309980E+02 0.15554897E+03 0.91188000E+02 0.0000E+00 0.9000E+01
       21  1    1    2  502  501 -.50628100E+01 0.20143671E+02 -.30578754E+03 0.30649304E+03 0.75000000E+00 0.0000E+00 0.9000E+01
       21  1    1    2  503  502 0.14208031E+02 -.12160152E+02 -.16098264E+03 0.16206699E+03 0.75000000E+00 0.0000E+00 0.9000E+01
#aMCatNLO 2  0  0  2  5 0.29989938D+02 0.00000000D+00  -5  6  0 0.00000000D+00 0.00000000D+00 0.00000000D+00 0.00000000D+00 0.00000000D+00
  <mgrwgt>
 0.6309851127D-01    1    2    0
 0.210713630667004D+03 0.000000000000000D+00 0.000000000000000D+00 0.210713630667004D+03
 0.210713630667004D+03 0.000000000000000D+00 0.000000000000000D+00 -.210713630667004D+03
 0.159956770723961D+03 -.800224858077482D+02 0.486805663753591D+02 -.344640787336720D+02
 0.180157676706544D+03 0.823340048034173D+02 -.664700479252766D+02 0.113773377879634D+03
 0.813128139035040D+02 -.231151899566908D+01 0.177894815499175D+02 -.793092991459619D+02
 0.000000000000000D+00 0.000000000000000D+00 -.000000000000000D+00 -.000000000000000D+00
 0.212976041167558D+03 0.000000000000000D+00 0.000000000000000D+00 0.212976041167558D+03
 0.253467296230614D+03 0.000000000000000D+00 0.000000000000000D+00 -.253467296230614D+03
 0.164216736066117D+03 -.854844035593872D+02 0.533552286973253D+02 -.344640787336720D+02
 0.175641188131923D+03 0.763392393609326D+02 -.613393401011614D+02 0.113773377879634D+03
 0.819840770803646D+02 -.506286717487058D+01 0.201442631948926D+02 -.793092991459619D+02
 0.446013361197666D+02 0.142080313733251D+02 -.121601517910564D+02 -.404912550630562D+02
0.124099907952D-03 0.000000000000D+00 0.000000000000D+00 0.259160914735D-04 0.150454442437D-06  6 -2 2 25 23 21 21 4 0.86313327D-02 0.14802945D+00 0.27862750D+05 0.27862750D+05 0.27862750D+05 0.12182816D+01  1  2  1  2  6  2        2 0.630985112679D-01 0.100000000000D+01
  </mgrwgt>
  </event>
  <event>
  5     66 0.42185105E-03 0.48245502E+02 0.75467711E-02 0.12196542E+00
       -2 -1    0    0    0  501 0.00000000E+00 0.00000000E+00 0.15776261E+03 0.15776294E+03 0.32000000E+00 0.0000E+00 0.9000E+01
        2 -1    0    0  502    0 0.00000000E+00 0.00000000E+00 -.12126083E+03 0.12126126E+03 0.32000000E+00 0.0000E+00 0.9000E+01
       25  1    1    2    0    0 -.35808124E+01 -.36639832E+02 -.99978369E+01 0.13069145E+03 0.12500000E+03 0.0000E+00 0.9000E+01
       23  1    1    2    0    0 -.98565576E+01 -.96920486E+01 0.25324000E+02 0.95643316E+02 0.91188000E+02 0.0000E+00 0.9000E+01
       21  1    1    2  502  501 0.13437370E+02 0.46331881E+02 0.21175616E+02 0.52689423E+02 0.75000000E+00 0.0000E+00 0.9000E+01
#aMCatNLO 1  0  0  2  2 0.17848333D-01 0.00000000D+00  -5  6  0 0.00000000D+00 0.00000000D+00 0.00000000D+00 0.00000000D+00 0.00000000D+00
  <mgrwgt>
 0.1829931990D-01    9    4    0
 0.138313159563620D+03 0.000000000000000D+00 0.000000000000000D+00 0.138313159563620D+03
 0.138313159563620D+03 0.000000000000000D+00 0.000000000000000D+00 -.138313159563620D+03
 0.133144430814530D+03 -.358153002979438D+01 -.366423061607080D+02 -.273304500291468D+02
 0.931309496891165D+02 -.985705956380488D+01 -.969377932046147D+01 0.129225177592659D+02
 0.503509386235939D+02 0.134385895935993D+02 0.463360854811695D+02 0.144079322698810D+02
 0.000000000000000D+00 -.000000000000000D+00 -.000000000000000D+00 -.000000000000000D+00
 0.138314640518285D+03 0.000000000000000D+00 0.000000000000000D+00 0.138314640518285D+03
 0.138366946934177D+03 0.000000000000000D+00 0.000000000000000D+00 -.138366946934177D+03
 0.133142059528949D+03 -.358020481375255D+01 -.366338183964771D+02 -.273304500291468D+02
 0.931302338027296D+02 -.985613260612102D+01 -.968784232753023D+01 0.129225177592659D+02
 0.503540263713618D+02 0.134390907674851D+02 0.463392954074360D+02 0.144079322698810D+02
 0.552677494214083D-01 -.275334761150448D-02 -.176346834286532D-01 -.523064158914467D-01
 0.138313159563620D+03 0.000000000000000D+00 0.000000000000000D+00 0.138313159563620D+03
 0.138313159563620D+03 0.000000000000000D+00 0.000000000000000D+00 -.138313159563620D+03
 0.133144430814530D+03 -.358153002979438D+01 -.366423061607080D+02 -.273304500291468D+02
 0.931309496891165D+02 -.985705956380488D+01 -.969377932046147D+01 0.129225177592659D+02
 0.000000000000000D+00 -.000000000000000D+00 -.000000000000000D+00 -.000000000000000D+00
 0.503509386235939D+02 0.134385895935993D+02 0.463360854811695D+02 0.144079322698810D+02
 0.138314640518285D+03 0.000000000000000D+00 0.000000000000000D+00 0.138314640518285D+03
 0.138366946934177D+03 0.000000000000000D+00 0.000000000000000D+00 -.138366946934177D+03
 0.133142059528949D+03 -.358020481375255D+01 -.366338183964771D+02 -.273304500291468D+02
 0.931302338027296D+02 -.985613260612102D+01 -.968784232753023D+01 0.129225177592659D+02
 0.552677494214083D-01 -.275334761150448D-02 -.176346834286532D-01 -.523064158914467D-01
 0.503540263713618D+02 0.134390907674851D+02 0.463392954074360D+02 0.144079322698810D+02
0.442984233532D-05 0.000000000000D+00 0.000000000000D+00 0.678970057466D-05 0.000000000000D+00  6 -2 2 25 23 21 21 2 0.24271229D-01 0.18655570D-01 0.18331095D+05 0.18331095D+05 0.18331095D+05 0.12380140D+01  1  2  2  2  6  2        2 0.292877040861D-02 0.100000000000D+01
0.353947302484D-07 0.233769202481D-06 -.170117609719D-07 0.678970057466D-05 0.000000000000D+00  6 -2 2 25 23 21 21 4 0.24271229D-01 0.18655570D-01 0.18331095D+05 0.18331095D+05 0.18331095D+05 0.12380140D+01  1  2  3  2  6  2        2 0.358663138537D-04 0.100000000000D+01
0.106124108857D-06 0.000000000000D+00 0.000000000000D+00 0.678970057466D-05 0.000000000000D+00  6 -2 2 25 23 21 21 4 0.24271229D-01 0.18655570D-01 0.18331095D+05 0.18331095D+05 0.18331095D+05 0.12380140D+01  1  2 15  2  6  2        2 0.107538059168D-03 0.100000000000D+01
-.476174723470D-01 0.000000000000D+00 0.000000000000D+00 0.678970057466D-05 0.000000000000D+00  6 -2 2 25 23 21 21 4 0.24271229D-01 0.18655570D-01 0.18331095D+05 0.18331095D+05 0.18331095D+05 0.12380140D+01  1  2  4  2  6  2        2 -.482519063184D+02 0.100000000000D+01
-.110349137641D+00 0.000000000000D+00 -.328520777477D-02 0.678970057466D-05 0.000000000000D+00  6 -2 2 25 23 21 21 4 0.24271229D-01 0.18662955D-01 0.18331095D+05 0.18331095D+05 0.18331095D+05 0.12380140D+01  1  2  5  2  6  2        2 -.111768918621D+03 0.100000000000D+01
0.110350429498D+00 0.000000000000D+00 0.328520751746D-02 0.678970057466D-05 0.000000000000D+00  6 -2 2 25 23 21 21 4 0.24271229D-01 0.18655570D-01 0.18331095D+05 0.18331095D+05 0.18331095D+05 0.12380140D+01  1  2  6  2  6  2        2 0.111820689421D+03 0.100000000000D+01
0.476304002412D-01 0.000000000000D+00 0.000000000000D+00 0.678970057466D-05 0.680610061543D-01  6 -2 2 25 23 21 21 4 0.24271488D-01 0.18662825D-01 0.18333522D+05 0.18333522D+05 0.18333522D+05 0.12380076D+01  1  2 11  2  6  2        2 0.482419064030D+02 0.100000000000D+01
-.818396128366D-05 0.000000000000D+00 -.243650720655D-06 0.678970057466D-05 0.000000000000D+00  6 -2 21 25 23 -2 21 4 0.24271229D-01 0.18662955D-01 0.18331095D+05 0.18331095D+05 0.18331095D+05 0.12380140D+01  3  4  5  5  5  2        2 -.600290573643D-01 0.100000000000D+01
0.456527847398D-05 0.000000000000D+00 0.000000000000D+00 0.678970057466D-05 0.129893066859D-04  6 -2 21 25 23 -2 21 4 0.24271488D-01 0.18662825D-01 0.18333522D+05 0.18333522D+05 0.18333522D+05 0.12380076D+01  3  4 11  5  5  2        2 0.334853181721D-01 0.100000000000D+01
  </mgrwgt>
  </event>
  <event>
  6     66 0.42185105E-03 0.63511459E+02 0.75467711E-02 0.11429797E+00
       -2 -1    0    0    0  503 0.00000000E+00 0.00000000E+00 0.26029090E+02 0.26031057E+02 0.32000000E+00 0.0000E+00 0.9000E+01
        2 -1    0    0  502    0 0.00000000E+00 0.00000000E+00 -.21151259E+04 0.21151259E+04 0.32000000E+00 0.0000E+00 0.9000E+01
       25  1    1    2    0    0 0.69910861E+02 0.14241812E+03 -.10121347E+04 0.10320911E+04 0.12500000E+03 0.0000E+00 0.9000E+01
       23  1    1    2    0    0 -.19665212E+02 -.64924718E+02 -.87823977E+03 0.88556325E+03 0.91188000E+02 0.0000E+00 0.9000E+01
       21  1    1    2  502  501 -.26160208E+02 -.71296828E+02 -.16455326E+03 0.18123447E+03 0.75000000E+00 0.0000E+00 0.9000E+01
       21  1    1    2  501  503 -.24085440E+02 -.61965715E+01 -.34169083E+02 0.42268128E+02 0.75000000E+00 0.0000E+00 0.9000E+01
#aMCatNLO 2  0  0  1  5 0.24869780D+02 0.00000000D+00  -5  6  0 0.00000000D+00 0.00000000D+00 0.00000000D+00 0.00000000D+00 0.00000000D+00
  <mgrwgt>
 0.3524209419D-01    1    2    0
 0.213300224489261D+03 0.000000000000000D+00 0.000000000000000D+00 0.213300224489261D+03
 0.213300224489261D+03 0.000000000000000D+00 0.000000000000000D+00 -.213300224489261D+03
 0.196471690089281D+03 0.586681186421483D+02 0.139526456993668D+03 -.815749105567056D+01
 0.128587515193022D+03 -.268547597725682D+02 -.667738749678386D+02 -.551322883513165D+02
 0.101541243696218D+03 -.318133588695800D+02 -.727525820258295D+02 0.632897794069871D+02
 0.000000000000000D+00 -.000000000000000D+00 -.000000000000000D+00 0.000000000000000D+00
 0.253022100981920D+03 0.000000000000000D+00 0.000000000000000D+00 0.253022100981920D+03
 0.217590925292557D+03 0.000000000000000D+00 0.000000000000000D+00 -.217590925292557D+03
 0.202144303459980D+03 0.699113067793980D+02 0.142419043478722D+03 -.815749105567056D+01
 0.126319724143806D+03 -.196649578183305D+02 -.649241217030917D+02 -.551322883513165D+02
 0.988607306388652D+02 -.261609085490005D+02 -.712983502540978D+02 0.632897794069871D+02
 0.432882680318254D+02 -.240854404120669D+02 -.619657152153216D+01 0.354311756893624D+02
0.959015459846D-04 0.000000000000D+00 0.000000000000D+00 0.179406685244D-05 0.209035342993D-07  6 -2 2 25 23 21 21 4 0.40045696D-02 0.32539935D+00 0.43357485D+05 0.43357485D+05 0.43357485D+05 0.11984618D+01  1  2  1  1  6  1       -2 0.352420941946D-01 0.100000000000D+01
  </mgrwgt>
  </event>
  <event>
  6     66 0.42185105E-03 0.37980032E+02 0.75467711E-02 0.11522285E+00
       21 -1    0    0  503  501 0.00000000E+00 0.00000000E+00 0.33093984E+02 0.33102482E+02 0.75000000E+00 0.0000E+00 0.9000E+01
        2 -1    0    0  502    0 0.00000000E+00 0.00000000E+00 -.20734062E+04 0.20734062E+04 0.32000000E+00 0.0000E+00 0.9000E+01
       25  1    1    2    0    0 -.12763127E+03 0.75346249E+02 -.10691563E+04 0.10865942E+04 0.12500000E+03 0.0000E+00 0.9000E+01
       23  1    1    2    0    0 0.11498795E+03 -.30541871E+02 -.93769360E+03 0.94959969E+03 0.91188000E+02 0.0000E+00 0.9000E+01
        2  1    1    2  503    0 0.49717450E+01 -.41814029E+02 -.71225494E+01 0.42707896E+02 0.32000000E+00 0.0000E+00 0.9000E+01
       21  1    1    2  502  501 0.76715674E+01 -.29903482E+01 -.26339713E+02 0.27606849E+02 0.75000000E+00 0.0000E+00 0.9000E+01
#aMCatNLO 2  0  0  1  5 0.24869780D+02 0.00000000D+00  -5  6  0 0.00000000D+00 0.00000000D+00 0.00000000D+00 0.00000000D+00 0.00000000D+00
  <mgrwgt>
 0.2149335713D+00    1    2    0
 0.175812705800703D+03 0.000000000000000D+00 0.000000000000000D+00 0.175812705800703D+03
 0.175812705800703D+03 0.000000000000000D+00 0.000000000000000D+00 -.175812705800703D+03
 0.184669671266120D+03 -.124974666669049D+03 0.529155552362459D+02 0.769182621597690D+01
 0.156762213004507D+03 0.117142615242992D+03 -.487378395767366D+02 -.127031795033836D+02
 0.000000000000000D+00 0.000000000000000D+00 -.000000000000000D+00 0.000000000000000D+00
 0.101935273307778D+02 0.783205142605709D+01 -.417771565950928D+01 0.501135328740669D+01
 0.382910584908335D+03 0.000000000000000D+00 0.000000000000000D+00 0.382910584908335D+03
 0.179222399124143D+03 0.000000000000000D+00 0.000000000000000D+00 -.179222399124143D+03
 0.194048718884056D+03 -.127642546356711D+03 0.753533109397419D+02 0.769182621597690D+01
 0.150430231709007D+03 0.114978599698013D+03 -.305377489349584D+02 -.127031795033836D+02
 0.207995212275202D+03 0.497174499615789D+01 -.418140293806284D+02 0.203688185784192D+03
 0.965882116421298D+01 0.769220166253975D+01 -.300153262415513D+01 0.501135328740669D+01
0.446133957571D-04 0.000000000000D+00 0.000000000000D+00 0.120624641817D-03 0.713998714218D-07  6 21 2 25 23 2 21 4 0.50920343D-02 0.31898600D+00 0.38839492D+05 0.38839492D+05 0.38839492D+05 0.12033009D+01  1  2  1  4  5  1       -2 0.214933571339D+00 0.100000000000D+01
  </mgrwgt>
  </event>
  <event>
  5     66 0.42185105E-03 0.24533060E+02 0.75467711E-02 0.12279423E+00
       -2 -1    0    0    0  501 0.00000000E+00 0.00000000E+00 0.41443587E+02 0.41444822E+02 0.32000000E+00 0.0000E+00 0.9000E+01
        2 -1    0    0  502    0 -.00000000E+00 -.00000000E+00 -.67876570E+03 0.67876577E+03 0.32000000E+00 0.0000E+00 0.9000E+01
       25  1    1    2    0    0 0.37609070E+02 0.15442828E+02 -.32694576E+03 0.35237970E+03 0.12500000E+03 0.0000E+00 0.9000E+01
       23  1    1    2    0    0 -.14996289E+02 -.59294671E+01 -.32589249E+03 0.33879376E+03 0.91188000E+02 0.0000E+00 0.9000E+01
       21  1    1    2  502  501 -.22612781E+02 -.95133612E+01 0.15516140E+02 0.29037131E+02 0.75000000E+00 0.0000E+00 0.9000E+01
#aMCatNLO 1  0  0  5  2 0.11128675D+02 0.00000000D+00  -5  6  0 0.00000000D+00 0.00000000D+00 0.00000000D+00 0.00000000D+00 0.00000000D+00
  <mgrwgt>
 0.2630888927D+00   15    2    0
 0.167722857552563D+03 0.000000000000000D+00 0.000000000000000D+00 0.167722857552563D+03
 0.167722857552563D+03 -.000000000000000D+00 -.000000000000000D+00 -.167722857552563D+03
 0.135395858645931D+03 0.376093743059489D+02 0.154429563674172D+02 -.324667306857021D+02
 0.108227704838054D+03 -.149960457818735D+02 -.592936470853685D+01 -.560173722658790D+02
 0.918221516211403D+02 -.226133285240754D+02 -.951359165888037D+01 0.884841029515811D+02
 0.000000000000000D+00 -.000000000000000D+00 0.000000000000000D+00 0.000000000000000D+00
 0.167722857552563D+03 0.000000000000000D+00 0.000000000000000D+00 0.167722857552563D+03
 0.167722857552563D+03 -.000000000000000D+00 -.000000000000000D+00 -.167722857552563D+03
 0.134849871699843D+03 0.371689648023151D+02 0.152576728884371D+02 -.307434443583977D+02
 0.107579745981181D+03 -.153477392283311D+02 -.607732469749380D+01 -.546412246062975D+02
 0.191425463257430D+02 0.245360075514993D+01 -.107736328045571D+02 0.156315629212217D+02
 0.738735510983576D+02 -.242748263291340D+02 0.159328461361379D+01 0.697531060434735D+02
0.144625728376D-03 0.000000000000D+00 0.000000000000D+00 0.323919668355D-04 0.000000000000D+00  6 -2 2 25 23 21 21 2 0.63760372D-02 0.10442559D+00 0.15448195D+05 0.15448195D+05 0.15448195D+05 0.12463675D+01  1  2  2  3  6  5       21 0.126855277789D+00 0.100000000000D+01
0.190129371290D-04 0.763210936676D-05 -.555400877792D-06 0.323919668355D-04 0.000000000000D+00  6 -2 2 25 23 21 21 4 0.63760372D-02 0.10442559D+00 0.15448195D+05 0.15448195D+05 0.15448195D+05 0.12463675D+01  1  2  3  3  6  5       21 0.259062420369D-01 0.100000000000D+01
0.534135092763D-05 0.000000000000D+00 0.000000000000D+00 0.323919668355D-04 0.000000000000D+00  6 -2 2 25 23 21 21 4 0.63760372D-02 0.10442559D+00 0.15448195D+05 0.15448195D+05 0.15448195D+05 0.12463675D+01  1  2 15  3  6  5       21 0.727790393437D-02 0.100000000000D+01
0.256905000312D-04 0.000000000000D+00 0.000000000000D+00 0.321760641863D-04 0.000000000000D+00  6 -2 2 25 23 21 21 4 0.63760372D-02 0.10442559D+00 0.16814987D+05 0.16814987D+05 0.16814987D+05 0.12422068D+01  1  2 12  3  6  5       21 0.346153191600D-01 0.100000000000D+01
-.985582222618D-04 0.000000000000D+00 0.000000000000D+00 0.323919668355D-04 0.000000000000D+00  6 -2 2 25 23 21 21 4 0.63760372D-02 0.10442559D+00 0.15448195D+05 0.15448195D+05 0.15448195D+05 0.12463675D+01  1  2  4  3  6  5       21 -.134291358737D+00 0.100000000000D+01
-.404542100654D-04 0.000000000000D+00 0.000000000000D+00 0.323919668355D-04 0.000000000000D+00  6 -2 2 25 23 21 21 4 0.63760372D-02 0.10442559D+00 0.15448195D+05 0.15448195D+05 0.15448195D+05 0.12463675D+01  1  2  5  3  6  5       21 -.551212340447D-01 0.100000000000D+01
0.220758047920D-03 0.000000000000D+00 -.000000000000D+00 0.323919668355D-04 0.000000000000D+00  6 -2 2 25 23 21 21 4 0.63760372D-02 0.10442559D+00 0.15448195D+05 0.15448195D+05 0.15448195D+05 0.12463675D+01  1  2  6  3  6  5       21 0.300795788794D+00 0.100000000000D+01
0.553372778322D-05 0.000000000000D+00 0.000000000000D+00 0.321760641863D-04 0.000000000000D+00  6 -2 2 25 23 1 -1 4 0.63760372D-02 0.10442559D+00 0.16814987D+05 0.16814987D+05 0.16814987D+05 0.12422068D+01  1  2 12  6  6  5       21 0.745613176575D-02 0.100000000000D+01
0.553372778322D-05 0.000000000000D+00 0.000000000000D+00 0.321760641863D-04 0.000000000000D+00  6 -2 2 25 23 3 -3 4 0.63760372D-02 0.10442559D+00 0.16814987D+05 0.16814987D+05 0.16814987D+05 0.12422068D+01  1  2 12  6  6  5       21 0.745613176575D-02 0.100000000000D+01
-.133523744160D-04 0.000000000000D+00 0.000000000000D+00 0.323919668355D-04 0.000000000000D+00  6 -2 2 25 23 1 -1 4 0.63760372D-02 0.10442559D+00 0.15448195D+05 0.15448195D+05 0.15448195D+05 0.12463675D+01  1  2  5  6  6  5       21 -.181933933216D-01 0.100000000000D+01
-.133523744160D-04 0.000000000000D+00 0.000000000000D+00 0.323919668355D-04 0.000000000000D+00  6 -2 2 25 23 3 -3 4 0.63760372D-02 0.10442559D+00 0.15448195D+05 0.15448195D+05 0.15448195D+05 0.12463675D+01  1  2  5  6  6  5       21 -.181933933216D-01 0.100000000000D+01
0.553372778322D-05 0.000000000000D+00 0.000000000000D+00 0.321760641863D-04 0.000000000000D+00  6 -2 2 25 23 2 -2 4 0.63760372D-02 0.10442559D+00 0.16814987D+05 0.16814987D+05 0.16814987D+05 0.12422068D+01  1  2 12  7  6  5       21 0.745613176575D-02 0.100000000000D+01
-.133523744160D-04 0.000000000000D+00 0.000000000000D+00 0.323919668355D-04 0.000000000000D+00  6 -2 2 25 23 2 -2 4 0.63760372D-02 0.10442559D+00 0.15448195D+05 0.15448195D+05 0.15448195D+05 0.12463675D+01  1  2  5  7  6  5       21 -.181933933216D-01 0.100000000000D+01
0.553372778322D-05 0.000000000000D+00 0.000000000000D+00 0.321760641863D-04 0.000000000000D+00  6 -2 2 25 23 4 -4 4 0.63760372D-02 0.10442559D+00 0.16814987D+05 0.16814987D+05 0.16814987D+05 0.12422068D+01  1  2 12  8  6  5       21 0.745613176575D-02 0.100000000000D+01
-.133523744160D-04 0.000000000000D+00 0.000000000000D+00 0.323919668355D-04 0.000000000000D+00  6 -2 2 25 23 4 -4 4 0.63760372D-02 0.10442559D+00 0.15448195D+05 0.15448195D+05 0.15448195D+05 0.12463675D+01  1  2  5  8  6  5       21 -.181933933216D-01 0.100000000000D+01
  </mgrwgt>
  </event>
  <event>
  5     66 0.42185105E-03 0.11873876E+03 0.75467711E-02 0.10555814E+00
       -2 -1    0    0    0  501 0.00000000E+00 0.00000000E+00 0.47221214E+03 0.47221225E+03 0.32000000E+00 0.0000E+00 0.9000E+01
        2 -1    0    0  502    0 -.00000000E+00 -.00000000E+00 -.12354963E+04 0.12354964E+04 0.32000000E+00 0.0000E+00 0.9000E+01
       25  1    1    2    0    0 0.21709191E+03 -.12277032E+03 0.29266841E+03 0.40432814E+03 0.12500000E+03 0.0000E+00 0.9000E+01
       23  1    1    2    0    0 -.66425780E+02 0.70581875E+02 0.80676461E+02 0.15562175E+03 0.91188000E+02 0.0000E+00 0.9000E+01
       21  1    1    2  502  501 -.15066613E+03 0.52188444E+02 -.11366291E+04 0.11477587E+04 0.75000000E+00 0.0000E+00 0.9000E+01
#aMCatNLO 1  0  0  5  1 0.13079921D+03 0.00000000D+00  -5  6  0 0.00000000D+00 0.00000000D+00 0.00000000D+00 0.00000000D+00 0.00000000D+00
  <mgrwgt>
 0.4381369228D-01   15    2    0
 0.763817058559158D+03 0.000000000000000D+00 0.000000000000000D+00 0.763817058559158D+03
 0.763817058559158D+03 -.000000000000000D+00 -.000000000000000D+00 -.763817058559158D+03
 0.598221817431642D+03 0.217091939581759D+03 -.122770330263942D+03 0.529190777155771D+03
 0.214276259332091D+03 -.664257682566325D+02 0.705818710423063D+02 0.167943087863230D+03
 0.715136040354584D+03 -.150666171325127D+03 0.521884592216362D+02 -.697133865019002D+03
 0.000000000000000D+00 0.000000000000000D+00 0.000000000000000D+00 -.000000000000000D+00
 0.763817058559158D+03 0.000000000000000D+00 0.000000000000000D+00 0.763817058559158D+03
 0.763817058559158D+03 -.000000000000000D+00 -.000000000000000D+00 -.763817058559158D+03
 0.574633199023066D+03 0.211870699606673D+03 -.120961772529120D+03 0.505032048145734D+03
 0.208355394876617D+03 -.683072124732941D+02 0.712335745661660D+02 0.159237626862641D+03
 0.539573416809485D+03 -.197061393646619D+03 -.589938266749161D+02 -.498824626172129D+03
 0.205072106409148D+03 0.534979065132400D+02 0.108722024637870D+03 -.165445048836247D+03
0.452157578087D-02 0.000000000000D+00 0.000000000000D+00 0.211933820474D-05 0.000000000000D+00  6 -2 2 25 23 21 21 2 0.72648033D-01 0.19007637D+00 0.81652943D+05 0.81652943D+05 0.81652943D+05 0.11717458D+01  1  2  2  3  6  5       21 0.211013897648D-01 0.100000000000D+01
0.190974744426D-03 0.238610109399D-03 -.173640415568D-04 0.211933820474D-05 0.000000000000D+00  6 -2 2 25 23 21 21 4 0.72648033D-01 0.19007637D+00 0.81652943D+05 0.81652943D+05 0.81652943D+05 0.11717458D+01  1  2  3  3  6  5       21 0.122366909876D-02 0.100000000000D+01
0.230468252609D-03 0.000000000000D+00 0.000000000000D+00 0.211933820474D-05 0.000000000000D+00  6 -2 2 25 23 21 21 4 0.72648033D-01 0.19007637D+00 0.81652943D+05 0.81652943D+05 0.81652943D+05 0.11717458D+01  1  2 15  3  6  5       21 0.147672342649D-02 0.100000000000D+01
0.418038911843D-02 0.000000000000D+00 0.000000000000D+00 0.204755246912D-05 0.000000000000D+00  6 -2 2 25 23 21 21 4 0.72648033D-01 0.19007637D+00 0.13519283D+06 0.13519283D+06 0.13519283D+06 0.11517303D+01  1  2 12  3  6  5       21 0.245086871435D-01 0.100000000000D+01
-.334395504829D-02 0.000000000000D+00 0.000000000000D+00 0.211933820474D-05 0.000000000000D+00  6 -2 2 25 23 21 21 4 0.72648033D-01 0.19007637D+00 0.81652943D+05 0.81652943D+05 0.81652943D+05 0.11717458D+01  1  2  4  3  6  5       21 -.214263643736D-01 0.100000000000D+01
-.102703481090D-01 0.000000000000D+00 0.000000000000D+00 0.211933820474D-05 0.000000000000D+00  6 -2 2 25 23 21 21 4 0.72648033D-01 0.19007637D+00 0.81652943D+05 0.81652943D+05 0.81652943D+05 0.11717458D+01  1  2  5  3  6  5       21 -.658071707449D-01 0.100000000000D+01
0.134610442721D-01 0.000000000000D+00 -.000000000000D+00 0.211933820474D-05 0.000000000000D+00  6 -2 2 25 23 21 21 4 0.72648033D-01 0.19007637D+00 0.81652943D+05 0.81652943D+05 0.81652943D+05 0.11717458D+01  1  2  6  3  6  5       21 0.862515300770D-01 0.100000000000D+01
0.726997528348D-04 0.000000000000D+00 0.000000000000D+00 0.204755246912D-05 0.000000000000D+00  6 -2 2 25 23 1 -1 4 0.72648033D-01 0.19007637D+00 0.13519283D+06 0.13519283D+06 0.13519283D+06 0.11517303D+01  1  2 12  6  6  5       21 0.426222403504D-03 0.100000000000D+01
0.726997528348D-04 0.000000000000D+00 0.000000000000D+00 0.204755246912D-05 0.000000000000D+00  6 -2 2 25 23 3 -3 4 0.72648033D-01 0.19007637D+00 0.13519283D+06 0.13519283D+06 0.13519283D+06 0.11517303D+01  1  2 12  6  6  5       21 0.426222403504D-03 0.100000000000D+01
-.203654641081D-03 0.000000000000D+00 0.000000000000D+00 0.211933820474D-05 0.000000000000D+00  6 -2 2 25 23 1 -1 4 0.72648033D-01 0.19007637D+00 0.81652943D+05 0.81652943D+05 0.81652943D+05 0.11717458D+01  1  2  5  6  6  5       21 -.130491543192D-02 0.100000000000D+01
-.203654641081D-03 0.000000000000D+00 0.000000000000D+00 0.211933820474D-05 0.000000000000D+00  6 -2 2 25 23 3 -3 4 0.72648033D-01 0.19007637D+00 0.81652943D+05 0.81652943D+05 0.81652943D+05 0.11717458D+01  1  2  5  6  6  5       21 -.130491543192D-02 0.100000000000D+01
0.726997528348D-04 0.000000000000D+00 0.000000000000D+00 0.204755246912D-05 0.000000000000D+00  6 -2 2 25 23 2 -2 4 0.72648033D-01 0.19007637D+00 0.13519283D+06 0.13519283D+06 0.13519283D+06 0.11517303D+01  1  2 12  7  6  5       21 0.426222403504D-03 0.100000000000D+01
-.203654641081D-03 0.000000000000D+00 0.000000000000D+00 0.211933820474D-05 0.000000000000D+00  6 -2 2 25 23 2 -2 4 0.72648033D-01 0.19007637D+00 0.81652943D+05 0.81652943D+05 0.81652943D+05 0.11717458D+01  1  2  5  7  6  5       21 -.130491543192D-02 0.100000000000D+01
0.726997528348D-04 0.000000000000D+00 0.000000000000D+00 0.204755246912D-05 0.000000000000D+00  6 -2 2 25 23 4 -4 4 0.72648033D-01 0.19007637D+00 0.13519283D+06 0.13519283D+06 0.13519283D+06 0.11517303D+01  1  2 12  8  6  5       21 0.426222403504D-03 0.100000000000D+01
-.203654641081D-03 0.000000000000D+00 0.000000000000D+00 0.211933820474D-05 0.000000000000D+00  6 -2 2 25 23 4 -4 4 0.72648033D-01 0.19007637D+00 0.81652943D+05 0.81652943D+05 0.81652943D+05 0.11717458D+01  1  2  5  8  6  5       21 -.130491543192D-02 0.100000000000D+01
  </mgrwgt>
  </event>
  <event>
  6     66 0.42185105E-03 0.13000055E+03 0.75467711E-02 0.11349073E+00
       -2 -1    0    0    0  501 0.00000000E+00 0.00000000E+00 0.95499230E+03 0.95499235E+03 0.32000000E+00 0.0000E+00 0.9000E+01
        2 -1    0    0  502    0 0.00000000E+00 0.00000000E+00 -.55051326E+02 0.55052256E+02 0.32000000E+00 0.0000E+00 0.9000E+01
       25  1    1    2    0    0 -.21440999E+02 0.45476162E+02 0.37327282E+03 0.39684430E+03 0.12500000E+03 0.0000E+00 0.9000E+01
       23  1    1    2    0    0 -.11472847E+03 -.72608375E+02 0.20484901E+03 0.26213158E+03 0.91188000E+02 0.0000E+00 0.9000E+01
       21  1    1    2  503  501 0.61093842E+02 0.93416933E+01 0.16739012E+03 0.17843693E+03 0.75000000E+00 0.0000E+00 0.9000E+01
       21  1    1    2  502  503 0.75075624E+02 0.17790519E+02 0.15442902E+03 0.17263180E+03 0.75000000E+00 0.0000E+00 0.9000E+01
#aMCatNLO 2  0  0  5  2 0.99296225D+01 0.00000000D+00  -5  6  0 0.00000000D+00 0.00000000D+00 0.00000000D+00 0.00000000D+00 0.00000000D+00
  <mgrwgt>
 0.1414828328D-02    3    2    0
 0.229290404651272D+03 0.000000000000000D+00 0.000000000000000D+00 0.229290404651272D+03
 0.229290404651272D+03 -.000000000000000D+00 -.000000000000000D+00 -.229290404651272D+03
 0.141557768987100D+03 -.218704242343176D+02 0.453905980239333D+02 0.433010405815584D+02
 0.175771727965258D+03 -.115261079627456D+03 -.727144998284895D+02 -.633082462693342D+02
 0.141251312350185D+03 0.137131503861774D+03 0.273239018045562D+02 0.200072056877759D+02
 0.000000000000000D+00 0.000000000000000D+00 0.000000000000000D+00 0.000000000000000D+00
 0.229290404651272D+03 0.000000000000000D+00 0.000000000000000D+00 0.229290404651272D+03
 0.229290404651272D+03 -.000000000000000D+00 -.000000000000000D+00 -.229290404651272D+03
 0.141538962675847D+03 -.214468040780876D+02 0.454750057291308D+02 0.433628458951479D+02
 0.175356609857464D+03 -.114735658367904D+03 -.726098079196449D+02 -.632315883831699D+02
 0.641819777112086D+02 0.607752369126283D+02 0.929066456286065D+01 0.184222798023583D+02
 0.775032590580243D+02 0.754072255333636D+02 0.178441376276535D+02 0.144646268566368D+01
-.171865320322D-03 0.000000000000D+00 0.000000000000D+00 0.599513412346D-06 0.000000000000D+00  6 -2 2 25 23 21 21 4 0.14692197D+00 0.84695105D-02 0.47799813D+05 0.47799813D+05 0.47799813D+05 0.11942222D+01  1  2 13  3  6  5       21 -.923386649057D-02 0.100000000000D+01
-.172183294522D-03 0.000000000000D+00 0.000000000000D+00 0.599513412346D-06 0.000000000000D+00  6 -2 2 25 23 21 21 4 0.14692197D+00 0.84695105D-02 0.47799813D+05 0.47799813D+05 0.47799813D+05 0.11942222D+01  1  2 13  3  6  5       21 -.925095039853D-02 0.100000000000D+01
0.370382104074D-03 0.000000000000D+00 0.000000000000D+00 0.599253626266D-06 0.334152716800D-07  6 -2 2 25 23 21 21 4 0.14692197D+00 0.84695105D-02 0.47799813D+05 0.47799813D+05 0.47799813D+05 0.11942222D+01  1  2  1  3  6  5       21 0.198996452171D-01 0.100000000000D+01
  </mgrwgt>
  </event>
  <event>
  5     66 0.42185105E-03 0.80259067E+02 0.75467711E-02 0.11933905E+00
       -2 -1    0    0    0  501 0.00000000E+00 0.00000000E+00 0.16616807E+03 0.16616838E+03 0.32000000E+00 0.0000E+00 0.9000E+01
        2 -1    0    0  502    0 -.00000000E+00 -.00000000E+00 -.21092354E+03 0.21092378E+03 0.32000000E+00 0.0000E+00 0.9000E+01
       25  1    1    2    0    0 0.58739900E+02 -.22096786E+02 -.34057896E+02 0.14395688E+03 0.12500000E+03 0.0000E+00 0.9000E+01
       23  1    1    2    0    0 0.17187593E+02 0.52766758E+02 -.73780828E+02 0.12976365E+03 0.91188000E+02 0.0000E+00 0.9000E+01
       21  1    1    2  502  501 -.75927494E+02 -.30669973E+02 0.63083257E+02 0.10337162E+03 0.75000000E+00 0.0000E+00 0.9000E+01
#aMCatNLO 1  0  0  5  2 0.39509223D+02 0.00000000D+00  -5  6  0 0.00000000D+00 0.00000000D+00 0.00000000D+00 0.00000000D+00 0.00000000D+00
  <mgrwgt>
 0.2466477290D-01   15    2    0
 0.187213408688676D+03 0.000000000000000D+00 0.000000000000000D+00 0.187213408688676D+03
 0.187213408688676D+03 -.000000000000000D+00 -.000000000000000D+00 -.187213408688676D+03
 0.140910977220515D+03 0.587405450254667D+02 -.220965252984359D+02 -.170937251963171D+02
 0.121868747910380D+03 0.171881510477001D+02 0.527669835447954D+02 -.587958611161403D+02
 0.111647092246457D+03 -.759286960731668D+02 -.306704582463595D+02 0.758895863124574D+02
 0.000000000000000D+00 0.000000000000000D+00 0.000000000000000D+00 0.000000000000000D+00
 0.187213408688676D+03 0.000000000000000D+00 0.000000000000000D+00 0.187213408688676D+03
 0.187213408688676D+03 -.000000000000000D+00 -.000000000000000D+00 -.187213408688676D+03
 0.137607608739314D+03 0.508609015485389D+02 -.252794098829734D+02 -.921814040848571D+01
 0.116778054891127D+03 0.104365308048205D+02 0.500397500024866D+02 -.520477185340893D+02
 0.563364137012020D+02 -.483040748571008D+02 -.289757107130786D+02 -.957104792887634D+00
 0.637047400457091D+02 -.129933574962586D+02 0.421537059356544D+01 0.622229637354626D+02
0.454318796599D-04 0.000000000000D+00 0.000000000000D+00 0.256929010579D-05 0.000000000000D+00  6 -2 2 25 23 21 21 2 0.25564361D-01 0.32449817D-01 0.26979227D+05 0.26979227D+05 0.26979227D+05 0.12197659D+01  1  2  2  3  6  5       21 0.145515938430D-01 0.100000000000D+01
-.236240076354D-05 0.239750615742D-05 -.174470380383D-06 0.256929010579D-05 0.000000000000D+00  6 -2 2 25 23 21 21 4 0.25564361D-01 0.32449817D-01 0.26979227D+05 0.26979227D+05 0.26979227D+05 0.12197659D+01  1  2  3  3  6  5       21 -.112578739538D-02 0.100000000000D+01
0.161296957800D-05 0.000000000000D+00 0.000000000000D+00 0.256929010579D-05 0.000000000000D+00  6 -2 2 25 23 21 21 4 0.25564361D-01 0.32449817D-01 0.26979227D+05 0.26979227D+05 0.26979227D+05 0.12197659D+01  1  2 15  3  6  5       21 0.768650623580D-03 0.100000000000D+01
0.114314677319D-04 0.000000000000D+00 0.000000000000D+00 0.258971905130D-05 0.000000000000D+00  6 -2 2 25 23 21 21 4 0.25564361D-01 0.32449817D-01 0.24308648D+05 0.24308648D+05 0.24308648D+05 0.12246056D+01  1  2 12  3  6  5       21 0.552356502880D-02 0.100000000000D+01
-.597889871773D-05 0.000000000000D+00 0.000000000000D+00 0.256929010579D-05 0.000000000000D+00  6 -2 2 25 23 21 21 4 0.25564361D-01 0.32449817D-01 0.26979227D+05 0.26979227D+05 0.26979227D+05 0.12197659D+01  1  2  4  3  6  5       21 -.284920700948D-02 0.100000000000D+01
-.161282499759D-04 0.000000000000D+00 0.000000000000D+00 0.256929010579D-05 0.000000000000D+00  6 -2 2 25 23 21 21 4 0.25564361D-01 0.32449817D-01 0.26979227D+05 0.26979227D+05 0.26979227D+05 0.12197659D+01  1  2  5  3  6  5       21 -.768581724684D-02 0.100000000000D+01
0.316219684935D-04 0.000000000000D+00 -.000000000000D+00 0.256929010579D-05 0.000000000000D+00  6 -2 2 25 23 21 21 4 0.25564361D-01 0.32449817D-01 0.26979227D+05 0.26979227D+05 0.26979227D+05 0.12197659D+01  1  2  6  3  6  5       21 0.150692524725D-01 0.100000000000D+01
0.481970524939D-06 0.000000000000D+00 0.000000000000D+00 0.258971905130D-05 0.000000000000D+00  6 -2 2 25 23 1 -1 4 0.25564361D-01 0.32449817D-01 0.24308648D+05 0.24308648D+05 0.24308648D+05 0.12246056D+01  1  2 12  6  6  5       21 0.232883090684D-03 0.100000000000D+01
0.481970524939D-06 0.000000000000D+00 0.000000000000D+00 0.258971905130D-05 0.000000000000D+00  6 -2 2 25 23 3 -3 4 0.25564361D-01 0.32449817D-01 0.24308648D+05 0.24308648D+05 0.24308648D+05 0.12246056D+01  1  2 12  6  6  5       21 0.232883090684D-03 0.100000000000D+01
-.272278117873D-06 0.000000000000D+00 0.000000000000D+00 0.256929010579D-05 0.000000000000D+00  6 -2 2 25 23 1 -1 4 0.25564361D-01 0.32449817D-01 0.26979227D+05 0.26979227D+05 0.26979227D+05 0.12197659D+01  1  2  5  6  6  5       21 -.129752444153D-03 0.100000000000D+01
-.272278117873D-06 0.000000000000D+00 0.000000000000D+00 0.256929010579D-05 0.000000000000D+00  6 -2 2 25 23 3 -3 4 0.25564361D-01 0.32449817D-01 0.26979227D+05 0.26979227D+05 0.26979227D+05 0.12197659D+01  1  2  5  6  6  5       21 -.129752444153D-03 0.100000000000D+01
0.481970524939D-06 0.000000000000D+00 0.000000000000D+00 0.258971905130D-05 0.000000000000D+00  6 -2 2 25 23 2 -2 4 0.25564361D-01 0.32449817D-01 0.24308648D+05 0.24308648D+05 0.24308648D+05 0.12246056D+01  1  2 12  7  6  5       21 0.232883090684D-03 0.100000000000D+01
-.272278117873D-06 0.000000000000D+00 0.000000000000D+00 0.256929010579D-05 0.000000000000D+00  6 -2 2 25 23 2 -2 4 0.25564361D-01 0.32449817D-01 0.26979227D+05 0.26979227D+05 0.26979227D+05 0.12197659D+01  1  2  5  7  6  5       21 -.129752444153D-03 0.100000000000D+01
0.481970524939D-06 0.000000000000D+00 0.000000000000D+00 0.258971905130D-05 0.000000000000D+00  6 -2 2 25 23 4 -4 4 0.25564361D-01 0.32449817D-01 0.24308648D+05 0.24308648D+05 0.24308648D+05 0.12246056D+01  1  2 12  8  6  5       21 0.232883090684D-03 0.100000000000D+01
-.272278117873D-06 0.000000000000D+00 0.000000000000D+00 0.256929010579D-05 0.000000000000D+00  6 -2 2 25 23 4 -4 4 0.25564361D-01 0.32449817D-01 0.26979227D+05 0.26979227D+05 0.26979227D+05 0.12197659D+01  1  2  5  8  6  5       21 -.129752444153D-03 0.100000000000D+01
  </mgrwgt>
  </event>
  <event>
  5     66 0.42185105E-03 0.30366308E+02 0.75467711E-02 0.11975941E+00
       -2 -1    0    0    0  501 0.00000000E+00 0.00000000E+00 0.60105406E+03 0.60105414E+03 0.32000000E+00 0.0000E+00 0.9000E+01
        2 -1    0    0  502    0 0.00000000E+00 0.00000000E+00 -.42090220E+02 0.42091436E+02 0.32000000E+00 0.0000E+00 0.9000E+01
       25  1    1    2    0    0 0.65484961E+02 0.12340775E+02 0.29679616E+03 0.32886705E+03 0.12500000E+03 0.0000E+00 0.9000E+01
       23  1    1    2    0    0 -.92704171E+02 -.25793352E+02 0.24700616E+03 0.28033311E+03 0.91188000E+02 0.0000E+00 0.9000E+01
       21  1    1    2  502  501 0.27219210E+02 0.13452578E+02 0.15161519E+02 0.33945418E+02 0.75000000E+00 0.0000E+00 0.9000E+01
#aMCatNLO 1  0  0  5  1 0.23810238D+01 0.00000000D+00  -5  6  0 0.00000000D+00 0.00000000D+00 0.00000000D+00 0.00000000D+00 0.00000000D+00
  <mgrwgt>
 0.3756303702D-01   25    2    0
 0.159056329845574D+03 0.000000000000000D+00 0.000000000000000D+00 0.159056329845574D+03
 0.159056329845574D+03 -.000000000000000D+00 -.000000000000000D+00 -.159056329845574D+03
 0.143379579482956D+03 0.654830030513844D+02 0.123398070301539D+02 0.221902971260025D+02
 0.132745365415145D+03 -.927059831786779D+02 -.257942481351891D+02 0.680721244089516D+01
 0.419877147930463D+02 0.272229801272935D+02 0.134544411050352D+02 -.289975095668977D+02
 0.000000000000000D+00 0.000000000000000D+00 0.000000000000000D+00 0.000000000000000D+00
 0.159056329845574D+03 0.000000000000000D+00 0.000000000000000D+00 0.159056329845574D+03
 0.159056329845574D+03 -.000000000000000D+00 -.000000000000000D+00 -.159056329845574D+03
 0.143409348741254D+03 0.655718415979894D+02 0.123837137952312D+02 0.220956676404339D+02
 0.132675600644990D+03 -.926237637812651D+02 -.257536127589368D+02 0.671963357363243D+01
 0.278957784427014D+02 0.184835482989632D+02 0.665205511491936D+01 -.198061369265248D+02
 0.141319318622033D+02 0.856837388431242D+01 0.671784384878617D+01 -.900916428754161D+01
0.414589584890D-04 0.000000000000D+00 0.000000000000D+00 0.130875264520D-04 0.000000000000D+00  6 -2 2 25 23 21 21 2 0.92469955D-01 0.64755186D-02 0.23193621D+05 0.23193621D+05 0.23193621D+05 0.12268052D+01  1  2  2  3  6  5       21 0.699796746037D-02 0.100000000000D+01
0.500618590942D-05 0.218784934723D-05 -.159213316992D-06 0.130875264520D-04 0.000000000000D+00  6 -2 2 25 23 21 21 4 0.92469955D-01 0.64755186D-02 0.23193621D+05 0.23193621D+05 0.23193621D+05 0.12268052D+01  1  2  3  3  6  5       21 0.127177919013D-02 0.100000000000D+01
0.113186432720D-05 0.000000000000D+00 0.000000000000D+00 0.130875264520D-04 0.000000000000D+00  6 -2 2 25 23 21 21 4 0.92469955D-01 0.64755186D-02 0.23193621D+05 0.23193621D+05 0.23193621D+05 0.12268052D+01  1  2 15  3  6  5       21 0.287540559503D-03 0.100000000000D+01
0.170394555145D-05 0.000000000000D+00 0.000000000000D+00 0.130865708434D-04 0.000000000000D+00  6 -2 2 25 23 21 21 4 0.92469955D-01 0.64755186D-02 0.23215747D+05 0.23215747D+05 0.23215747D+05 0.12267604D+01  1  2 12  3  6  5       21 0.432819163062D-03 0.100000000000D+01
0.169182688724D-05 0.000000000000D+00 0.000000000000D+00 0.130865708434D-04 0.000000000000D+00  6 -2 2 25 23 21 21 4 0.92469955D-01 0.64755186D-02 0.23215747D+05 0.23215747D+05 0.23215747D+05 0.12267604D+01  1  2 12  3  6  5       21 0.429740901498D-03 0.100000000000D+01
-.146525951588D-02 0.000000000000D+00 0.000000000000D+00 0.130875264520D-04 0.000000000000D+00  6 -2 2 25 23 21 21 4 0.92469955D-01 0.64755186D-02 0.23193621D+05 0.23193621D+05 0.23193621D+05 0.12268052D+01  1  2  4  3  6  5       21 -.372236787476D+00 0.100000000000D+01
-.907895698869D-03 0.000000000000D+00 0.000000000000D+00 0.130875264520D-04 0.000000000000D+00  6 -2 2 25 23 21 21 4 0.92469955D-01 0.64755186D-02 0.23193621D+05 0.23193621D+05 0.23193621D+05 0.12268052D+01  1  2  5  3  6  5       21 -.230643223707D+00 0.100000000000D+01
0.161276179488D-02 0.000000000000D+00 -.000000000000D+00 0.130875264520D-04 0.000000000000D+00  6 -2 2 25 23 21 21 4 0.92469955D-01 0.64755186D-02 0.23193621D+05 0.23193621D+05 0.23193621D+05 0.12268052D+01  1  2  6  3  6  5       21 0.409708493944D+00 0.100000000000D+01
0.875160634061D-03 0.000000000000D+00 0.000000000000D+00 0.130875264520D-04 0.114241320192D-04  6 -2 2 25 23 21 21 4 0.92469955D-01 0.64755186D-02 0.23215747D+05 0.23215747D+05 0.23215747D+05 0.12267604D+01  1  2 11  3  6  5       21 0.222299528795D+00 0.100000000000D+01
0.541032451536D-07 0.000000000000D+00 0.000000000000D+00 0.130865708434D-04 0.000000000000D+00  6 -2 2 25 23 1 -1 4 0.92469955D-01 0.64755186D-02 0.23215747D+05 0.23215747D+05 0.23215747D+05 0.12267604D+01  1  2 12  6  6  5       21 0.137427638262D-04 0.100000000000D+01
0.541032451536D-07 0.000000000000D+00 0.000000000000D+00 0.130865708434D-04 0.000000000000D+00  6 -2 2 25 23 3 -3 4 0.92469955D-01 0.64755186D-02 0.23215747D+05 0.23215747D+05 0.23215747D+05 0.12267604D+01  1  2 12  6  6  5       21 0.137427638262D-04 0.100000000000D+01
0.538110991586D-07 0.000000000000D+00 0.000000000000D+00 0.130865708434D-04 0.000000000000D+00  6 -2 2 25 23 1 -1 4 0.92469955D-01 0.64755186D-02 0.23215747D+05 0.23215747D+05 0.23215747D+05 0.12267604D+01  1  2 12  6  6  5       21 0.136685558300D-04 0.100000000000D+01
0.538110991586D-07 0.000000000000D+00 0.000000000000D+00 0.130865708434D-04 0.000000000000D+00  6 -2 2 25 23 3 -3 4 0.92469955D-01 0.64755186D-02 0.23215747D+05 0.23215747D+05 0.23215747D+05 0.12267604D+01  1  2 12  6  6  5       21 0.136685558300D-04 0.100000000000D+01
-.326655403593D-04 0.000000000000D+00 0.000000000000D+00 0.130875264520D-04 0.000000000000D+00  6 -2 2 25 23 1 -1 4 0.92469955D-01 0.64755186D-02 0.23193621D+05 0.23193621D+05 0.23193621D+05 0.12268052D+01  1  2  5  6  6  5       21 -.829840425722D-02 0.100000000000D+01
-.326655403593D-04 0.000000000000D+00 0.000000000000D+00 0.130875264520D-04 0.000000000000D+00  6 -2 2 25 23 3 -3 4 0.92469955D-01 0.64755186D-02 0.23193621D+05 0.23193621D+05 0.23193621D+05 0.12268052D+01  1  2  5  6  6  5       21 -.829840425722D-02 0.100000000000D+01
0.315707529497D-04 0.000000000000D+00 0.000000000000D+00 0.130875264520D-04 0.657778814801D-06  6 -2 2 25 23 1 -1 4 0.92469955D-01 0.64755186D-02 0.23215747D+05 0.23215747D+05 0.23215747D+05 0.12267604D+01  1  2 11  6  6  5       21 0.801928609591D-02 0.100000000000D+01
0.315707529497D-04 0.000000000000D+00 0.000000000000D+00 0.130875264520D-04 0.657778814801D-06  6 -2 2 25 23 3 -3 4 0.92469955D-01 0.64755186D-02 0.23215747D+05 0.23215747D+05 0.23215747D+05 0.12267604D+01  1  2 11  6  6  5       21 0.801928609591D-02 0.100000000000D+01
0.541032451536D-07 0.000000000000D+00 0.000000000000D+00 0.130865708434D-04 0.000000000000D+00  6 -2 2 25 23 2 -2 4 0.92469955D-01 0.64755186D-02 0.23215747D+05 0.23215747D+05 0.23215747D+05 0.12267604D+01  1  2 12  7  6  5       21 0.137427638262D-04 0.100000000000D+01
0.538110991586D-07 0.000000000000D+00 0.000000000000D+00 0.130865708434D-04 0.000000000000D+00  6 -2 2 25 23 2 -2 4 0.92469955D-01 0.64755186D-02 0.23215747D+05 0.23215747D+05 0.23215747D+05 0.12267604D+01  1  2 12  7  6  5       21 0.136685558300D-04 0.100000000000D+01
-.326655403593D-04 0.000000000000D+00 0.000000000000D+00 0.130875264520D-04 0.000000000000D+00  6 -2 2 25 23 2 -2 4 0.92469955D-01 0.64755186D-02 0.23193621D+05 0.23193621D+05 0.23193621D+05 0.12268052D+01  1  2  5  7  6  5       21 -.829840425722D-02 0.100000000000D+01
0.316561705392D-04 0.000000000000D+00 0.000000000000D+00 0.130875264520D-04 0.660341054561D-06  6 -2 2 25 23 2 -2 4 0.92469955D-01 0.64755186D-02 0.23215747D+05 0.23215747D+05 0.23215747D+05 0.12267604D+01  1  2 11  7  6  5       21 0.804098301549D-02 0.100000000000D+01
0.541032451536D-07 0.000000000000D+00 0.000000000000D+00 0.130865708434D-04 0.000000000000D+00  6 -2 2 25 23 4 -4 4 0.92469955D-01 0.64755186D-02 0.23215747D+05 0.23215747D+05 0.23215747D+05 0.12267604D+01  1  2 12  8  6  5       21 0.137427638262D-04 0.100000000000D+01
0.538110991586D-07 0.000000000000D+00 0.000000000000D+00 0.130865708434D-04 0.000000000000D+00  6 -2 2 25 23 4 -4 4 0.92469955D-01 0.64755186D-02 0.23215747D+05 0.23215747D+05 0.23215747D+05 0.12267604D+01  1  2 12  8  6  5       21 0.136685558300D-04 0.100000000000D+01
-.326655403593D-04 0.000000000000D+00 0.000000000000D+00 0.130875264520D-04 0.000000000000D+00  6 -2 2 25 23 4 -4 4 0.92469955D-01 0.64755186D-02 0.23193621D+05 0.23193621D+05 0.23193621D+05 0.12268052D+01  1  2  5  8  6  5       21 -.829840425722D-02 0.100000000000D+01
0.315719680018D-04 0.000000000000D+00 0.000000000000D+00 0.130875264520D-04 0.657804130496D-06  6 -2 2 25 23 4 -4 4 0.92469955D-01 0.64755186D-02 0.23215747D+05 0.23215747D+05 0.23215747D+05 0.12267604D+01  1  2 11  8  6  5       21 0.801959473127D-02 0.100000000000D+01
  </mgrwgt>
  </event>
  <event>
  6     66 -.42185105E-03 0.29314359E+02 0.75467711E-02 0.11687198E+00
       -2 -1    0    0    0  501 0.00000000E+00 0.00000000E+00 0.22748101E+02 0.22750352E+02 0.32000000E+00 0.0000E+00 0.9000E+01
        2 -1    0    0  502    0 -.00000000E+00 -.00000000E+00 -.34175454E+04 0.34175454E+04 0.32000000E+00 0.0000E+00 0.9000E+01
       25  1    1    2    0    0 0.22246345E+02 0.76570404E+02 -.22159090E+04 0.22208637E+04 0.12500000E+03 0.0000E+00 0.9000E+01
       23  1    1    2    0    0 -.19511487E+02 -.12712715E+03 -.10688195E+04 0.10803853E+04 0.91188000E+02 0.0000E+00 0.9000E+01
       21  1    1    2  502  503 -.76672176E+01 0.36216001E+02 -.10723611E+02 0.38547935E+02 0.75000000E+00 0.0000E+00 0.9000E+01
       21  1    1    2  503  501 0.49323601E+01 0.14340745E+02 -.99345128E+02 0.10049877E+03 0.75000000E+00 0.0000E+00 0.9000E+01
#aMCatNLO 2  0  0  5  2 0.14980495D+02 0.00000000D+00  -5  6  0 0.00000000D+00 0.00000000D+00 0.00000000D+00 0.00000000D+00 0.00000000D+00
  <mgrwgt>
 -.1900323310D-01    3    2    0
 0.278830710885110D+03 0.000000000000000D+00 0.000000000000000D+00 0.278830710885110D+03
 0.278830710885110D+03 -.000000000000000D+00 -.000000000000000D+00 -.278830710885110D+03
 0.214265818559493D+03 0.223238301691830D+02 0.751380061207026D+02 -.155372995226816D+03
 0.159820015478414D+03 -.194535270882615D+02 -.128198608629253D+03 -.203436238873636D+02
 0.183575587732314D+03 -.287030308092153D+01 0.530606025085504D+02 0.175716619114180D+03
 0.000000000000000D+00 0.000000000000000D+00 0.000000000000000D+00 0.000000000000000D+00
 0.278830710885110D+03 0.000000000000000D+00 0.000000000000000D+00 0.278830710885110D+03
 0.278830710885110D+03 -.000000000000000D+00 -.000000000000000D+00 -.278830710885110D+03
 0.211344301047503D+03 0.222459782180311D+02 0.765771821652273D+02 -.150606989246895D+03
 0.158548094985425D+03 -.195117624953685D+02 -.127122065246442D+03 -.167785199380306D+02
 0.172483075873584D+03 -.769384158317712D+01 0.361274926059289D+02 0.168481513948902D+03
 0.152859498637087D+02 0.495962586051450D+01 0.144173904752862D+02 -.109600476397686D+01
-.298027859343D-03 0.000000000000D+00 0.000000000000D+00 0.521496458527D-05 0.000000000000D+00  6 -2 2 25 23 21 21 4 0.34998821D-02 0.52577639D+00 0.32061036D+05 0.32061036D+05 0.32061036D+05 0.12118814D+01  1  2 13  3  6  5       21 -.256245451180D-01 0.100000000000D+01
-.167751438794D-03 0.000000000000D+00 0.000000000000D+00 0.521260021852D-05 0.000000000000D+00  6 -2 2 25 23 21 21 4 0.34998821D-02 0.52577639D+00 0.32256446D+05 0.32256446D+05 0.32256446D+05 0.12116067D+01  1  2  8  3  6  5       21 -.144068954249D-01 0.100000000000D+01
0.244569869332D-03 0.000000000000D+00 0.000000000000D+00 0.521260021852D-05 0.185035458829D-06  6 -2 2 25 23 21 21 4 0.34998821D-02 0.52577639D+00 0.32061036D+05 0.32061036D+05 0.32061036D+05 0.12118814D+01  1  2  1  3  6  5       21 0.210282074468D-01 0.100000000000D+01
  </mgrwgt>
  </event>
  <event>
  6     66 -.42185105E-03 0.14814787E+02 0.75467711E-02 0.12211124E+00
       -2 -1    0    0    0  501 0.00000000E+00 0.00000000E+00 0.15377856E+03 0.15377889E+03 0.32000000E+00 0.0000E+00 0.9000E+01
        2 -1    0    0  502    0 -.00000000E+00 -.00000000E+00 -.17564536E+03 0.17564565E+03 0.32000000E+00 0.0000E+00 0.9000E+01
       25  1    1    2    0    0 -.21863862E+02 0.18729357E+02 -.76551200E+02 0.14937839E+03 0.12500000E+03 0.0000E+00 0.9000E+01
       23  1    1    2    0    0 0.48729017E+01 -.28189586E+02 -.18467441E+01 0.95587969E+02 0.91188000E+02 0.0000E+00 0.9000E+01
       21  1    1    2  502  503 0.40188158E+01 0.24396126E+02 0.59502591E+02 0.64439450E+02 0.75000000E+00 0.0000E+00 0.9000E+01
       21  1    1    2  503  501 0.12972145E+02 -.14935897E+02 -.29714496E+01 0.20018731E+02 0.75000000E+00 0.0000E+00 0.9000E+01
#aMCatNLO 2  0  0  5  2 0.20117804D+02 0.00000000D+00  -5  6  0 0.00000000D+00 0.00000000D+00 0.00000000D+00 0.00000000D+00 0.00000000D+00
  <mgrwgt>
 -.1755776079D+00    2    2    0
 0.164348996270317D+03 0.000000000000000D+00 0.000000000000000D+00 0.164348996270317D+03
 0.164348996270317D+03 -.000000000000000D+00 -.000000000000000D+00 -.164348996270317D+03
 0.149883079043250D+03 -.246652328935242D+02 0.171696095316010D+02 -.770504262046984D+02
 0.958234124646641D+02 0.305129333777545D+01 -.292038211606641D+02 -.216828756301800D+01
 0.829915010327203D+02 0.216139395557487D+02 0.120342116290631D+02 0.792187137677164D+02
 0.000000000000000D+00 0.000000000000000D+00 0.000000000000000D+00 -.000000000000000D+00
 0.164348996270317D+03 0.000000000000000D+00 0.000000000000000D+00 0.164348996270317D+03
 0.164348996270317D+03 -.000000000000000D+00 -.000000000000000D+00 -.164348996270317D+03
 0.144562031432799D+03 -.218333982032574D+02 0.187463187600734D+02 -.666712770825724D+02
 0.956776310407962D+02 0.489306037321468D+01 -.281783619092981D+02 0.458209754058382D+01
 0.683387896814065D+02 0.376591859184156D+01 0.245566467325955D+02 0.636630122875885D+02
 0.201195403856330D+02 0.131744192382012D+02 -.151246035833708D+02 -.157383274559996D+01
-.304930205557D-03 0.000000000000D+00 0.000000000000D+00 0.277461443056D-04 0.000000000000D+00  6 -2 2 25 23 21 21 4 0.23658287D-01 0.27022411D-01 0.18055188D+05 0.18055188D+05 0.18055188D+05 0.12387474D+01  1  2 13  3  6  5       21 -.214030597003D+00 0.100000000000D+01
0.547841198301D-04 0.000000000000D+00 0.000000000000D+00 0.280793069752D-04 0.234747694310D-06  6 -2 2 25 23 21 21 4 0.23658287D-01 0.27022411D-01 0.18055188D+05 0.18055188D+05 0.18055188D+05 0.12387474D+01  1  2  1  3  6  5       21 0.384529891098D-01 0.100000000000D+01
  </mgrwgt>
  </event>
  <event>
  6     66 0.42185105E-03 0.45170213E+02 0.75467711E-02 0.12087417E+00
       -2 -1    0    0    0  503 0.00000000E+00 0.00000000E+00 0.48511337E+03 0.48511347E+03 0.32000000E+00 0.0000E+00 0.9000E+01
        2 -1    0    0  502    0 0.00000000E+00 0.00000000E+00 -.49673041E+02 0.49674071E+02 0.32000000E+00 0.0000E+00 0.9000E+01
       25  1    1    2    0    0 -.19320908E+02 -.50058638E+02 0.21085716E+03 0.25092809E+03 0.12500000E+03 0.0000E+00 0.9000E+01
       23  1    1    2    0    0 0.39783469E+02 0.45217992E+01 0.72135349E+02 0.12297126E+03 0.91188000E+02 0.0000E+00 0.9000E+01
       21  1    1    2  502  501 -.18190267E+02 0.26570714E+02 0.10045165E+03 0.10548927E+03 0.75000000E+00 0.0000E+00 0.9000E+01
       21  1    1    2  501  503 -.22722943E+01 0.18966125E+02 0.51996163E+02 0.55398923E+02 0.75000000E+00 0.0000E+00 0.9000E+01
#aMCatNLO 2  0  0  1  1 0.19101759D+02 0.00000000D+00  -5  6  0 0.00000000D+00 0.00000000D+00 0.00000000D+00 0.00000000D+00 0.00000000D+00
  <mgrwgt>
 0.9907955257D-02    1    2    0
 0.143543674553079D+03 0.000000000000000D+00 0.000000000000000D+00 0.143543674553079D+03
 0.143543674553079D+03 0.000000000000000D+00 0.000000000000000D+00 -.143543674553079D+03
 0.134226268469516D+03 -.203921382400176D+02 -.411088616276726D+02 0.169089722019822D+02
 0.108979834872665D+03 0.389237674830763D+02 0.117044034155159D+02 -.436955413112558D+02
 0.438812457639770D+02 -.185316292430588D+02 0.294044582121567D+02 0.267865691092736D+02
 0.000000000000000D+00 -.000000000000000D+00 0.000000000000000D+00 0.000000000000000D+00
 0.161760650842366D+03 0.000000000000000D+00 0.000000000000000D+00 0.161760650842366D+03
 0.148957232391798D+03 0.000000000000000D+00 0.000000000000000D+00 -.148957232391798D+03
 0.137077466657773D+03 -.193196403731042D+02 -.500606634019094D+02 0.169089722019822D+02
 0.108755642596082D+03 0.397845032743732D+02 0.452011296479817D+01 -.436955413112558D+02
 0.418890192461515D+02 -.181925685728295D+02 0.265744256284394D+02 0.267865691092736D+02
 0.229957547341575D+02 -.227229432843956D+01 0.189661248086719D+02 0.128034184505682D+02
0.295301739642D-04 0.000000000000D+00 0.000000000000D+00 0.112950733313D-04 0.784379969630D-06  6 -2 2 25 23 21 21 4 0.74629907D-01 0.76417859D-02 0.20582073D+05 0.20582073D+05 0.20582073D+05 0.12324568D+01  1  2  1  1  6  1       -2 0.990795525729D-02 0.100000000000D+01
  </mgrwgt>
  </event>
  <event>
  5     66 -.42185105E-03 0.91757167E+02 0.75467711E-02 0.10944610E+00
       -2 -1    0    0    0  501 0.00000000E+00 0.00000000E+00 0.45574252E+02 0.45575375E+02 0.32000000E+00 0.0000E+00 0.9000E+01
        2 -1    0    0  502    0 0.00000000E+00 0.00000000E+00 -.18647330E+04 0.18647330E+04 0.32000000E+00 0.0000E+00 0.9000E+01
       25  1    1    2    0    0 0.14864910E+03 -.13028058E+03 -.56185048E+03 0.60858076E+03 0.12500000E+03 0.0000E+00 0.9000E+01
       23  1    1    2    0    0 0.42993459E+02 0.35174704E+01 -.51046909E+03 0.52034100E+03 0.91188000E+02 0.0000E+00 0.9000E+01
       21  1    1    2  502  501 -.19164256E+03 0.12676311E+03 -.74683913E+03 0.78138659E+03 0.75000000E+00 0.0000E+00 0.9000E+01
#aMCatNLO 1  0  0  1  1 0.19101759D+02 0.00000000D+00  -5  6  0 0.00000000D+00 0.00000000D+00 0.00000000D+00 0.00000000D+00 0.00000000D+00
  <mgrwgt>
 -.1555472514D-03    1    2    0
 0.291521711880314D+03 0.000000000000000D+00 0.000000000000000D+00 0.291521711880314D+03
 0.291521711880314D+03 0.000000000000000D+00 0.000000000000000D+00 -.291521711880314D+03
 0.240945987504660D+03 0.148649524823188D+03 -.130280859647539D+03 0.579671051022436D+02
 0.112148605816163D+03 0.429936551396389D+02 0.351734068850673D+01 -.490023711132827D+02
 0.229948830439805D+03 -.191643179962827D+03 0.126763518959032D+03 -.896473398896085D+01
 0.000000000000000D+00 0.000000000000000D+00 0.000000000000000D+00 0.000000000000000D+00
 0.548319772008460D+03 0.000000000000000D+00 0.000000000000000D+00 0.548319772008460D+03
 0.292907274530899D+03 0.000000000000000D+00 0.000000000000000D+00 -.292907274530899D+03
 0.247327490118160D+03 0.147106659914121D+03 -.143336431876635D+03 0.579671051022436D+02
 0.111851186359191D+03 0.422858521668700D+02 -.247201896355895D+01 -.490023711132827D+02
 0.224710677766182D+03 -.193079830186385D+03 0.114606725028861D+03 -.896473398896085D+01
 0.257337692295826D+03 0.368731810539431D+01 0.312017258113333D+02 0.255412497477561D+03
-.808958552812D-06 0.000000000000D+00 0.000000000000D+00 0.313468429900D-06 0.000000000000D+00  6 -2 2 25 23 21 21 4 0.70115119D-02 0.28688208D+00 0.79670629D+05 0.79670629D+05 0.79670629D+05 0.11727490D+01  1  2 14  1  6  1       -2 -.155547251404D-03 0.100000000000D+01
  </mgrwgt>
  </event>
  <event>
  5     66 0.42185105E-03 0.14896152E+03 0.75467711E-02 0.10136254E+00
       -2 -1    0    0    0  501 0.00000000E+00 0.00000000E+00 0.23614295E+02 0.23616463E+02 0.32000000E+00 0.0000E+00 0.9000E+01
        2 -1    0    0  502    0 0.00000000E+00 0.00000000E+00 -.25975854E+04 0.25975854E+04 0.32000000E+00 0.0000E+00 0.9000E+01
       25  1    1    2    0    0 0.41562285E+02 0.12488040E+03 -.12357925E+04 0.12490519E+04 0.12500000E+03 0.0000E+00 0.9000E+01
       23  1    1    2    0    0 -.76980208E+02 0.19808407E+02 -.92622290E+03 0.93408909E+03 0.91188000E+02 0.0000E+00 0.9000E+01
       21  1    1    2  502  501 0.35417923E+02 -.14468880E+03 -.41195570E+03 0.43806088E+03 0.75000000E+00 0.0000E+00 0.9000E+01
#aMCatNLO 1  0  0  1  2 0.13999631D+03 0.00000000D+00  -5  6  0 0.00000000D+00 0.00000000D+00 0.00000000D+00 0.00000000D+00 0.00000000D+00
  <mgrwgt>
 0.1447578937D-01    5    4    0
 0.247675219877170D+03 0.000000000000000D+00 0.000000000000000D+00 0.247675219877170D+03
 0.247675219877170D+03 0.000000000000000D+00 0.000000000000000D+00 -.247675219877170D+03
 0.187994554308960D+03 0.415621651225987D+02 0.124880886068325D+03 -.489316173341561D+02
 0.129938723006402D+03 -.769802912548505D+02 0.198087460824641D+02 -.474391054879128D+02
 0.177417162438979D+03 0.354181261322518D+02 -.144689632150790D+03 0.963707228220689D+02
 0.000000000000000D+00 -.000000000000000D+00 0.000000000000000D+00 0.000000000000000D+00
 0.678302947199515D+03 0.000000000000000D+00 0.000000000000000D+00 0.678302947199515D+03
 0.427759902950347D+03 0.000000000000000D+00 0.000000000000000D+00 -.427759902950347D+03
 0.232199689130298D+03 0.177461771978732D+03 0.663680039133289D+02 -.489316173341561D+02
 0.103582667939201D+03 -.145458923129962D+01 -.127095709635574D+02 -.474391054879128D+02
 0.299794215018748D+03 0.189758266665742D+03 -.211142263352159D+03 0.963707228220689D+02
 0.470486278061613D+03 -.365765449413174D+03 0.157483830402388D+03 0.250543044249168D+03
 0.247675219877170D+03 0.000000000000000D+00 0.000000000000000D+00 0.247675219877170D+03
 0.247675219877170D+03 0.000000000000000D+00 0.000000000000000D+00 -.247675219877170D+03
 0.187994554308960D+03 0.415621651225987D+02 0.124880886068325D+03 -.489316173341561D+02
 0.129938723006402D+03 -.769802912548505D+02 0.198087460824641D+02 -.474391054879128D+02
 0.000000000000000D+00 -.000000000000000D+00 0.000000000000000D+00 0.000000000000000D+00
 0.177417162438979D+03 0.354181261322518D+02 -.144689632150790D+03 0.963707228220689D+02
 0.678302947199515D+03 0.000000000000000D+00 0.000000000000000D+00 0.678302947199515D+03
 0.427759902950347D+03 0.000000000000000D+00 0.000000000000000D+00 -.427759902950347D+03
 0.232199689130298D+03 0.177461771978732D+03 0.663680039133289D+02 -.489316173341561D+02
 0.103582667939201D+03 -.145458923129962D+01 -.127095709635574D+02 -.474391054879128D+02
 0.470486278061613D+03 -.365765449413174D+03 0.157483830402388D+03 0.250543044249168D+03
 0.299794215018748D+03 0.189758266665742D+03 -.211142263352159D+03 0.963707228220689D+02
0.741635810612D-04 0.000000000000D+00 0.000000000000D+00 0.811648431574D-06 0.000000000000D+00  6 -2 2 25 23 21 21 2 0.36331368D-02 0.39962868D+00 0.50950832D+05 0.50950832D+05 0.50950832D+05 0.11914724D+01  1  2  2  1  6  1       -2 0.119371433392D-01 0.100000000000D+01
-.634054861156D-05 0.391371969598D-05 -.284807678994D-06 0.811648431574D-06 0.000000000000D+00  6 -2 2 25 23 21 21 4 0.36331368D-02 0.39962868D+00 0.50950832D+05 0.50950832D+05 0.50950832D+05 0.11914724D+01  1  2  3  1  6  1       -2 -.144878687527D-02 0.100000000000D+01
0.155422077835D-05 0.000000000000D+00 0.000000000000D+00 0.811648431574D-06 0.000000000000D+00  6 -2 2 25 23 21 21 4 0.36331368D-02 0.39962868D+00 0.50950832D+05 0.50950832D+05 0.50950832D+05 0.11914724D+01  1  2 15  1  6  1       -2 0.355132466113D-03 0.100000000000D+01
0.110210559127D-03 0.000000000000D+00 -.630773958533D-04 0.811648431574D-06 0.000000000000D+00  6 -2 2 25 23 21 21 4 0.26152800D-01 0.39962868D+00 0.50950832D+05 0.50950832D+05 0.50950832D+05 0.11914724D+01  1  2  5  1  6  1       -2 0.106295107433D-02 0.100000000000D+01
0.202834730233D-04 0.000000000000D+00 -.152017593186D-04 0.811648431574D-06 0.000000000000D+00  6 21 2 25 23 2 21 4 0.26152800D-01 0.39962868D+00 0.50950832D+05 0.50950832D+05 0.50950832D+05 0.11914724D+01  3  4  5  4  5  1       -2 0.256934936926D-02 0.100000000000D+01
  </mgrwgt>
  </event>
  <event>
  5     66 0.42185105E-03 0.35029243E+02 0.75467711E-02 0.11907400E+00
       -2 -1    0    0    0  501 0.00000000E+00 0.00000000E+00 0.35204143E+02 0.35205598E+02 0.32000000E+00 0.0000E+00 0.9000E+01
        2 -1    0    0  502    0 -.00000000E+00 -.00000000E+00 -.93515809E+03 0.93515815E+03 0.32000000E+00 0.0000E+00 0.9000E+01
       25  1    1    2    0    0 0.10750309E+03 -.30964883E+01 -.70161853E+03 0.72073578E+03 0.12500000E+03 0.0000E+00 0.9000E+01
       23  1    1    2    0    0 -.72496656E+02 0.19969353E+01 -.15008119E+03 0.18999834E+03 0.91188000E+02 0.0000E+00 0.9000E+01
       21  1    1    2  502  501 -.35006435E+02 0.10995530E+01 -.48254228E+02 0.59629628E+02 0.75000000E+00 0.0000E+00 0.9000E+01
#aMCatNLO 1  0  0  5  1 0.49858540D+01 0.00000000D+00  -5  6  0 0.00000000D+00 0.00000000D+00 0.00000000D+00 0.00000000D+00 0.00000000D+00
  <mgrwgt>
 0.1944030161D+00   13    2    0
 0.181444679188625D+03 0.000000000000000D+00 0.000000000000000D+00 0.181444679188625D+03
 0.181444679188625D+03 -.000000000000000D+00 -.000000000000000D+00 -.181444679188625D+03
 0.187253962479595D+03 0.107506302305617D+03 -.309658915954621D+01 -.887234611839500D+02
 0.135855875080061D+03 -.724943261870480D+02 0.199686207689701D+01 0.698724027231120D+02
 0.397795208175950D+02 -.350119761185687D+02 0.109972708264920D+01 0.188510584608381D+02
 0.000000000000000D+00 0.000000000000000D+00 0.000000000000000D+00 0.000000000000000D+00
 0.181444679188625D+03 0.000000000000000D+00 0.000000000000000D+00 0.181444679188625D+03
 0.181444679188625D+03 -.000000000000000D+00 -.000000000000000D+00 -.181444679188625D+03
 0.187223817391378D+03 0.107469969384721D+03 -.309544794155369D+01 -.887038989057876D+02
 0.135877257876741D+03 -.725206905241462D+02 0.199769018141258D+01 0.698865977419317D+02
 0.874814488014746D-01 -.332883585580847D-01 0.639421904525420D-01 -.495609256315225D-01
 0.397008016603296D+02 -.349159905020173D+02 0.103381556968856D+01 0.188668620894875D+02
0.174241307850D-03 0.000000000000D+00 0.000000000000D+00 0.675709628111D-05 0.000000000000D+00  6 -2 2 25 23 21 21 2 0.54161381D-02 0.14387059D+00 0.25033595D+05 0.25033595D+05 0.25033595D+05 0.12232351D+01  1  2  2  3  6  5       21 0.127744206584D+00 0.100000000000D+01
0.183647867419D-04 0.919496643268D-05 -.669132500934D-06 0.675709628111D-05 0.000000000000D+00  6 -2 2 25 23 21 21 4 0.54161381D-02 0.14387059D+00 0.25033595D+05 0.25033595D+05 0.25033595D+05 0.12232351D+01  1  2  3  3  6  5       21 0.201463262823D-01 0.100000000000D+01
0.420298835829D-05 0.000000000000D+00 0.000000000000D+00 0.675709628111D-05 0.000000000000D+00  6 -2 2 25 23 21 21 4 0.54161381D-02 0.14387059D+00 0.25033595D+05 0.25033595D+05 0.25033595D+05 0.12232351D+01  1  2 15  3  6  5       21 0.461071375434D-02 0.100000000000D+01
-.836334961004D-04 0.000000000000D+00 0.000000000000D+00 0.675709628111D-05 0.000000000000D+00  6 -2 2 25 23 21 21 4 0.54161381D-02 0.14387059D+00 0.25033595D+05 0.25033595D+05 0.25033595D+05 0.12232351D+01  1  2  4  3  6  5       21 -.917466521251D-01 0.100000000000D+01
0.120895223706D-03 0.000000000000D+00 -.000000000000D+00 0.675709628111D-05 0.000000000000D+00  6 -2 2 25 23 21 21 4 0.54161381D-02 0.14387059D+00 0.25033595D+05 0.25033595D+05 0.25033595D+05 0.12232351D+01  1  2  6  3  6  5       21 0.132623082259D+00 0.100000000000D+01
-.549507614027D-05 0.000000000000D+00 0.000000000000D+00 0.675709628111D-05 0.000000000000D+00  6 -2 2 25 23 1 -1 4 0.54161381D-02 0.14387059D+00 0.25033595D+05 0.25033595D+05 0.25033595D+05 0.12232351D+01  1  2  5  6  6  5       21 -.602814497240D-02 0.100000000000D+01
-.549507614027D-05 0.000000000000D+00 0.000000000000D+00 0.675709628111D-05 0.000000000000D+00  6 -2 2 25 23 3 -3 4 0.54161381D-02 0.14387059D+00 0.25033595D+05 0.25033595D+05 0.25033595D+05 0.12232351D+01  1  2  5  6  6  5       21 -.602814497240D-02 0.100000000000D+01
0.608793775059D-05 0.000000000000D+00 0.000000000000D+00 0.675709628111D-05 0.157900215851D-05  6 -2 2 25 23 1 -1 4 0.54161381D-02 0.14387059D+00 0.25028351D+05 0.25028351D+05 0.25028351D+05 0.12232449D+01  1  2 11  6  6  5       21 0.667870666064D-02 0.100000000000D+01
0.608793775059D-05 0.000000000000D+00 0.000000000000D+00 0.675709628111D-05 0.157900215851D-05  6 -2 2 25 23 3 -3 4 0.54161381D-02 0.14387059D+00 0.25028351D+05 0.25028351D+05 0.25028351D+05 0.12232449D+01  1  2 11  6  6  5       21 0.667870666064D-02 0.100000000000D+01
-.549507614027D-05 0.000000000000D+00 0.000000000000D+00 0.675709628111D-05 0.000000000000D+00  6 -2 2 25 23 2 -2 4 0.54161381D-02 0.14387059D+00 0.25033595D+05 0.25033595D+05 0.25033595D+05 0.12232351D+01  1  2  5  7  6  5       21 -.602814497240D-02 0.100000000000D+01
0.465041692043D-05 0.000000000000D+00 0.000000000000D+00 0.675709628111D-05 0.158512278868D-05  6 -2 2 25 23 2 -2 4 0.54161381D-02 0.14387059D+00 0.25028351D+05 0.25028351D+05 0.25028351D+05 0.12232449D+01  1  2 11  7  6  5       21 0.510168988804D-02 0.100000000000D+01
-.549507614027D-05 0.000000000000D+00 0.000000000000D+00 0.675709628111D-05 0.000000000000D+00  6 -2 2 25 23 4 -4 4 0.54161381D-02 0.14387059D+00 0.25033595D+05 0.25033595D+05 0.25033595D+05 0.12232351D+01  1  2  5  8  6  5       21 -.602814497240D-02 0.100000000000D+01
0.608803742671D-05 0.000000000000D+00 0.000000000000D+00 0.675709628111D-05 0.157902801107D-05  6 -2 2 25 23 4 -4 4 0.54161381D-02 0.14387059D+00 0.25028351D+05 0.25028351D+05 0.25028351D+05 0.12232449D+01  1  2 11  8  6  5       21 0.667881600926D-02 0.100000000000D+01
  </mgrwgt>
  </event>
  <event>
  5     66 -.42185105E-03 0.21706478E+02 0.75467711E-02 0.12386312E+00
       -2 -1    0    0    0  501 0.00000000E+00 0.00000000E+00 0.24001126E+03 0.24001148E+03 0.32000000E+00 0.0000E+00 0.9000E+01
        2 -1    0    0  502    0 0.00000000E+00 0.00000000E+00 -.62787037E+02 0.62787852E+02 0.32000000E+00 0.0000E+00 0.9000E+01
       25  1    1    2    0    0 -.34719071E+02 -.17571305E+02 0.96147318E+02 0.16242990E+03 0.12500000E+03 0.0000E+00 0.9000E+01
       23  1    1    2    0    0 0.16753519E+02 0.54099716E+01 0.66326196E+02 0.11412433E+03 0.91188000E+02 0.0000E+00 0.9000E+01
       21  1    1    2  502  501 0.17965552E+02 0.12161333E+02 0.14750712E+02 0.26245096E+02 0.75000000E+00 0.0000E+00 0.9000E+01
#aMCatNLO 1  0  0  5  2 0.18183072D+01 0.00000000D+00  -5  6  0 0.00000000D+00 0.00000000D+00 0.00000000D+00 0.00000000D+00 0.00000000D+00
  <mgrwgt>
 -.3371110815D+01   20    2    0
 0.122758917164380D+03 0.000000000000000D+00 0.000000000000000D+00 0.122758917164380D+03
 0.122758917164380D+03 -.000000000000000D+00 -.000000000000000D+00 -.122758917164380D+03
 0.130925438088124D+03 -.347247876960928D+02 -.175751744496357D+02 0.133142821563422D+01
 0.928728627662256D+02 0.167494642579854D+02 0.540722665216868D+01 -.578481976138210D+00
 0.217195334744102D+02 0.179753234381074D+02 0.121679477974671D+02 -.752946239496008D+00
 0.000000000000000D+00 0.000000000000000D+00 0.000000000000000D+00 -.000000000000000D+00
 0.122758917164380D+03 0.000000000000000D+00 0.000000000000000D+00 0.122758917164380D+03
 0.122758917164380D+03 -.000000000000000D+00 -.000000000000000D+00 -.122758917164380D+03
 0.130794493016219D+03 -.343555532608690D+02 -.173252303889183D+02 0.131596180800871D+01
 0.929310592108151D+02 0.170115964001729D+02 0.558467048138034D+01 -.589462107393746D+00
 0.192116214312522D+02 0.152013121711679D+02 0.117260335913573D+02 0.711788245766628D+00
 0.258066067047411D+01 0.214264468952823D+01 0.145263161806817D-01 -.143828794638159D+01
0.313478462975D-03 0.000000000000D+00 0.000000000000D+00 0.327710306746D-04 0.000000000000D+00  6 -2 2 25 23 21 21 2 0.36924889D-01 0.96596232D-02 0.15067097D+05 0.15067097D+05 0.15067097D+05 0.12476016D+01  1  2  2  3  6  5       21 0.214544148177D+00 0.100000000000D+01
0.613102516421D-04 0.165427129766D-04 -.120383983860D-05 0.327710306746D-04 0.000000000000D+00  6 -2 2 25 23 21 21 4 0.36924889D-01 0.96596232D-02 0.15067097D+05 0.15067097D+05 0.15067097D+05 0.12476016D+01  1  2  3  3  6  5       21 0.653121417331D-01 0.100000000000D+01
0.112614035945D-04 0.000000000000D+00 0.000000000000D+00 0.327710306746D-04 0.000000000000D+00  6 -2 2 25 23 21 21 4 0.36924889D-01 0.96596232D-02 0.15067097D+05 0.15067097D+05 0.15067097D+05 0.12476016D+01  1  2 15  3  6  5       21 0.119964666264D-01 0.100000000000D+01
0.594865101839D-07 0.000000000000D+00 0.000000000000D+00 0.327803180300D-04 0.000000000000D+00  6 -2 2 25 23 21 21 4 0.36924889D-01 0.96596232D-02 0.15013379D+05 0.15013379D+05 0.15013379D+05 0.12477784D+01  1  2 12  3  6  5       21 0.633972484545D-04 0.100000000000D+01
0.593473777976D-07 0.000000000000D+00 0.000000000000D+00 0.327803180300D-04 0.000000000000D+00  6 -2 2 25 23 21 21 4 0.36924889D-01 0.96596232D-02 0.15013379D+05 0.15013379D+05 0.15013379D+05 0.12477784D+01  1  2 12  3  6  5       21 0.632489692827D-04 0.100000000000D+01
-.393763671635D-02 0.000000000000D+00 0.000000000000D+00 0.327710306746D-04 0.000000000000D+00  6 -2 2 25 23 21 21 4 0.36924889D-01 0.96596232D-02 0.15067097D+05 0.15067097D+05 0.15067097D+05 0.12476016D+01  1  2  4  3  6  5       21 -.419465718088D+01 0.100000000000D+01
-.228583107454D-02 0.000000000000D+00 0.000000000000D+00 0.327710306746D-04 0.000000000000D+00  6 -2 2 25 23 21 21 4 0.36924889D-01 0.96596232D-02 0.15067097D+05 0.15067097D+05 0.15067097D+05 0.12476016D+01  1  2  5  3  6  5       21 -.243503360564D+01 0.100000000000D+01
0.286149538500D-02 0.000000000000D+00 -.000000000000D+00 0.327710306746D-04 0.000000000000D+00  6 -2 2 25 23 21 21 4 0.36924889D-01 0.96596232D-02 0.15067097D+05 0.15067097D+05 0.15067097D+05 0.12476016D+01  1  2  6  3  6  5       21 0.304827312152D+01 0.100000000000D+01
0.711840317003D-08 0.000000000000D+00 0.000000000000D+00 0.327803180300D-04 0.000000000000D+00  6 -2 2 25 23 1 -1 4 0.36924889D-01 0.96596232D-02 0.15013379D+05 0.15013379D+05 0.15013379D+05 0.12477784D+01  1  2 12  6  6  5       21 0.758637837343D-05 0.100000000000D+01
0.711840317003D-08 0.000000000000D+00 0.000000000000D+00 0.327803180300D-04 0.000000000000D+00  6 -2 2 25 23 3 -3 4 0.36924889D-01 0.96596232D-02 0.15013379D+05 0.15013379D+05 0.15013379D+05 0.12477784D+01  1  2 12  6  6  5       21 0.758637837343D-05 0.100000000000D+01
0.711247885896D-08 0.000000000000D+00 0.000000000000D+00 0.327803180300D-04 0.000000000000D+00  6 -2 2 25 23 1 -1 4 0.36924889D-01 0.96596232D-02 0.15013379D+05 0.15013379D+05 0.15013379D+05 0.12477784D+01  1  2 12  6  6  5       21 0.758006458867D-05 0.100000000000D+01
0.711247885896D-08 0.000000000000D+00 0.000000000000D+00 0.327803180300D-04 0.000000000000D+00  6 -2 2 25 23 3 -3 4 0.36924889D-01 0.96596232D-02 0.15013379D+05 0.15013379D+05 0.15013379D+05 0.12477784D+01  1  2 12  6  6  5       21 0.758006458867D-05 0.100000000000D+01
-.191812886303D-04 0.000000000000D+00 0.000000000000D+00 0.327710306746D-04 0.000000000000D+00  6 -2 2 25 23 1 -1 4 0.36924889D-01 0.96596232D-02 0.15067097D+05 0.15067097D+05 0.15067097D+05 0.12476016D+01  1  2  5  6  6  5       21 -.204333045142D-01 0.100000000000D+01
-.191812886303D-04 0.000000000000D+00 0.000000000000D+00 0.327710306746D-04 0.000000000000D+00  6 -2 2 25 23 3 -3 4 0.36924889D-01 0.96596232D-02 0.15067097D+05 0.15067097D+05 0.15067097D+05 0.12476016D+01  1  2  5  6  6  5       21 -.204333045142D-01 0.100000000000D+01
0.711840317003D-08 0.000000000000D+00 0.000000000000D+00 0.327803180300D-04 0.000000000000D+00  6 -2 2 25 23 2 -2 4 0.36924889D-01 0.96596232D-02 0.15013379D+05 0.15013379D+05 0.15013379D+05 0.12477784D+01  1  2 12  7  6  5       21 0.758637837343D-05 0.100000000000D+01
0.711247885896D-08 0.000000000000D+00 0.000000000000D+00 0.327803180300D-04 0.000000000000D+00  6 -2 2 25 23 2 -2 4 0.36924889D-01 0.96596232D-02 0.15013379D+05 0.15013379D+05 0.15013379D+05 0.12477784D+01  1  2 12  7  6  5       21 0.758006458867D-05 0.100000000000D+01
-.191812886303D-04 0.000000000000D+00 0.000000000000D+00 0.327710306746D-04 0.000000000000D+00  6 -2 2 25 23 2 -2 4 0.36924889D-01 0.96596232D-02 0.15067097D+05 0.15067097D+05 0.15067097D+05 0.12476016D+01  1  2  5  7  6  5       21 -.204333045142D-01 0.100000000000D+01
0.711840317003D-08 0.000000000000D+00 0.000000000000D+00 0.327803180300D-04 0.000000000000D+00  6 -2 2 25 23 4 -4 4 0.36924889D-01 0.96596232D-02 0.15013379D+05 0.15013379D+05 0.15013379D+05 0.12477784D+01  1  2 12  8  6  5       21 0.758637837343D-05 0.100000000000D+01
0.711247885896D-08 0.000000000000D+00 0.000000000000D+00 0.327803180300D-04 0.000000000000D+00  6 -2 2 25 23 4 -4 4 0.36924889D-01 0.96596232D-02 0.15013379D+05 0.15013379D+05 0.15013379D+05 0.12477784D+01  1  2 12  8  6  5       21 0.758006458867D-05 0.100000000000D+01
-.191812886303D-04 0.000000000000D+00 0.000000000000D+00 0.327710306746D-04 0.000000000000D+00  6 -2 2 25 23 4 -4 4 0.36924889D-01 0.96596232D-02 0.15067097D+05 0.15067097D+05 0.15067097D+05 0.12476016D+01  1  2  5  8  6  5       21 -.204333045142D-01 0.100000000000D+01
  </mgrwgt>
  </event>
  <event>
  6     66 -.42185105E-03 0.29351671E+02 0.75467711E-02 0.12216778E+00
       -4 -1    0    0    0  503 0.00000000E+00 0.00000000E+00 0.22451970E+04 0.22451975E+04 0.15500000E+01 0.0000E+00 0.9000E+01
        4 -1    0    0  502    0 0.00000000E+00 0.00000000E+00 -.15349756E+02 0.15427816E+02 0.15500000E+01 0.0000E+00 0.9000E+01
       25  1    1    2    0    0 0.21476874E+02 0.67114920E+01 0.17099161E+04 0.17146266E+04 0.12500000E+03 0.0000E+00 0.9000E+01
       23  1    1    2    0    0 0.21366572E+01 -.17806849E+02 0.23645896E+03 0.25406641E+03 0.91188000E+02 0.0000E+00 0.9000E+01
       21  1    1    2  502  501 -.35026498E+02 0.61650823E+01 0.74165135E+02 0.82255052E+02 0.75000000E+00 0.0000E+00 0.9000E+01
       21  1    1    2  501  503 0.11412967E+02 0.49302745E+01 0.20930704E+03 0.20967728E+03 0.75000000E+00 0.0000E+00 0.9000E+01
#aMCatNLO 2  0  0  1  5 0.12432354D+02 0.00000000D+00  -5  6  0 0.00000000D+00 0.00000000D+00 0.00000000D+00 0.00000000D+00 0.00000000D+00
  <mgrwgt>
 -.6069304012D-02    2    2    0
 0.175820004083244D+03 0.000000000000000D+00 0.000000000000000D+00 0.175820004083244D+03
 0.175820004083244D+03 0.000000000000000D+00 0.000000000000000D+00 -.175820004083244D+03
 0.176130878926635D+03 0.271786967667172D+02 0.917352918708555D+01 0.120723863903479D+03
 0.122962319454369D+03 0.612921625707748D+01 -.160828664245148D+02 -.806737551948801D+02
 0.525468097854832D+02 -.333079130237947D+02 0.690933723742925D+01 -.400501087085985D+02
 0.000000000000000D+00 0.000000000000000D+00 0.000000000000000D+00 0.000000000000000D+00
 0.194026757230601D+03 0.000000000000000D+00 0.000000000000000D+00 0.194026757230601D+03
 0.178065077047655D+03 0.000000000000000D+00 0.000000000000000D+00 -.178065077047655D+03
 0.175230183617702D+03 0.214785206025361D+02 0.671111672037106D+01 0.120723863903479D+03
 0.123065709329327D+03 0.213787158377203D+01 -.178070827643994D+02 -.806737551948801D+02
 0.535638216762807D+02 -.350293595831961D+02 0.616569154182966D+01 -.400501087085985D+02
 0.202321196549472D+02 0.114129673968879D+02 0.493027450219868D+01 0.159616801829458D+02
-.408387063669D-02 0.000000000000D+00 0.000000000000D+00 0.650637661308D-05 0.000000000000D+00  6 -4 4 25 23 21 21 4 0.35298103D+00 0.23376059D-02 0.17948566D+05 0.17948566D+05 0.17948566D+05 0.12390342D+01  1  2 13  1  6  1       -4 -.237221193363D-01 0.100000000000D+01
0.278770099285D-02 0.000000000000D+00 0.000000000000D+00 0.655689925675D-05 0.140681957356D-06  6 -4 4 25 23 21 21 4 0.34540761D+00 0.23674551D-02 0.17948566D+05 0.17948566D+05 0.17948566D+05 0.12390342D+01  1  2  1  1  6  1       -4 0.176528153243D-01 0.100000000000D+01
  </mgrwgt>
  </event>
  <event>
  5     66 0.42185105E-03 0.63647443E+02 0.75467711E-02 0.11937492E+00
       -2 -1    0    0    0  501 0.00000000E+00 0.00000000E+00 0.76772384E+01 0.76839046E+01 0.32000000E+00 0.0000E+00 0.9000E+01
        2 -1    0    0  502    0 0.00000000E+00 0.00000000E+00 -.34549092E+04 0.34549092E+04 0.32000000E+00 0.0000E+00 0.9000E+01
       25  1    1    2    0    0 0.67414955E+02 0.35073985E+02 -.19983495E+04 0.20036967E+04 0.12500000E+03 0.0000E+00 0.9000E+01
       23  1    1    2    0    0 -.30159401E+02 0.16527643E+02 -.10955890E+04 0.10999152E+04 0.91188000E+02 0.0000E+00 0.9000E+01
       21  1    1    2  502  501 -.37255554E+02 -.51601629E+02 -.35329340E+03 0.35898119E+03 0.75000000E+00 0.0000E+00 0.9000E+01
#aMCatNLO 1  0  0  2  2 0.39038728D+01 0.00000000D+00  -5  6  0 0.00000000D+00 0.00000000D+00 0.00000000D+00 0.00000000D+00 0.00000000D+00
  <mgrwgt>
 0.3351557981D-01    6    4    0
 0.162897907009223D+03 0.000000000000000D+00 0.000000000000000D+00 0.162897907009223D+03
 0.162897907009223D+03 0.000000000000000D+00 0.000000000000000D+00 -.162897907009223D+03
 0.151053539685283D+03 0.674157722812021D+02 0.350751171936859D+02 -.376433480582133D+02
 0.976350532080899D+02 -.301588729229327D+02 0.165283749989985D+02 -.588281181557192D+01
 0.771072211250733D+02 -.372568993582694D+02 -.516034921926843D+02 0.435261598737852D+02
 0.000000000000000D+00 0.000000000000000D+00 -.000000000000000D+00 0.000000000000000D+00
 0.165319281779035D+03 0.000000000000000D+00 0.000000000000000D+00 0.165319281779035D+03
 0.164490746707184D+03 0.000000000000000D+00 0.000000000000000D+00 -.164490746707184D+03
 0.151403048377270D+03 0.672372611318340D+02 0.368783421588858D+02 -.376433480582133D+02
 0.978747524436538D+02 -.302742636318711D+02 0.176939907481905D+02 -.588281181557192D+01
 0.765414015818885D+02 -.373475834211094D+02 -.506874498802700D+02 0.435261598737852D+02
 0.399082608340659D+01 0.384585921146481D+00 -.388488302680630D+01 0.828535071850712D+00
 0.162897907009223D+03 0.000000000000000D+00 0.000000000000000D+00 0.162897907009223D+03
 0.162897907009223D+03 0.000000000000000D+00 0.000000000000000D+00 -.162897907009223D+03
 0.151053539685283D+03 0.674157722812021D+02 0.350751171936859D+02 -.376433480582133D+02
 0.976350532080899D+02 -.301588729229327D+02 0.165283749989985D+02 -.588281181557192D+01
 0.000000000000000D+00 0.000000000000000D+00 -.000000000000000D+00 0.000000000000000D+00
 0.771072211250733D+02 -.372568993582694D+02 -.516034921926843D+02 0.435261598737852D+02
 0.165319281779035D+03 0.000000000000000D+00 0.000000000000000D+00 0.165319281779035D+03
 0.164490746707184D+03 0.000000000000000D+00 0.000000000000000D+00 -.164490746707184D+03
 0.151403048377270D+03 0.672372611318340D+02 0.368783421588858D+02 -.376433480582133D+02
 0.978747524436538D+02 -.302742636318711D+02 0.176939907481905D+02 -.588281181557192D+01
 0.399082608340659D+01 0.384585921146481D+00 -.388488302680630D+01 0.828535071850712D+00
 0.765414015818885D+02 -.373475834211094D+02 -.506874498802700D+02 0.435261598737852D+02
0.225988817790D-03 0.000000000000D+00 0.000000000000D+00 0.379345848752D-05 0.000000000000D+00  6 -2 2 25 23 21 21 2 0.11816275D-02 0.53152500D+00 0.23622615D+05 0.23622615D+05 0.23622615D+05 0.12259452D+01  1  2  2  2  6  2        2 0.631561348846D-01 0.100000000000D+01
-.561555837763D-05 0.119257575564D-04 -.867856564534D-06 0.379345848752D-05 0.000000000000D+00  6 -2 2 25 23 21 21 4 0.11816275D-02 0.53152500D+00 0.23622615D+05 0.23622615D+05 0.23622615D+05 0.12259452D+01  1  2  3  2  6  2        2 -.235865079103D-02 0.100000000000D+01
0.997940236862D-05 0.000000000000D+00 0.000000000000D+00 0.379345848752D-05 0.000000000000D+00  6 -2 2 25 23 21 21 4 0.11816275D-02 0.53152500D+00 0.23622615D+05 0.23622615D+05 0.23622615D+05 0.12259452D+01  1  2 15  2  6  2        2 0.419155562241D-02 0.100000000000D+01
-.474990353221D-03 0.000000000000D+00 0.000000000000D+00 0.379345848752D-05 0.000000000000D+00  6 -2 2 25 23 21 21 4 0.11816275D-02 0.53152500D+00 0.23622615D+05 0.23622615D+05 0.23622615D+05 0.12259452D+01  1  2  4  2  6  2        2 -.199505783222D+00 0.100000000000D+01
0.431501246766D-03 0.000000000000D+00 0.000000000000D+00 0.379345848752D-05 0.314101529062D-05  6 -2 2 25 23 21 21 4 0.11991917D-02 0.53672233D+00 0.24213105D+05 0.24213105D+05 0.24213105D+05 0.12247896D+01  1  2 11  2  6  2        2 0.168017782795D+00 0.100000000000D+01
0.476126711086D-06 0.000000000000D+00 0.000000000000D+00 0.378631022335D-05 0.650744663223D-08  6 -2 21 25 23 -2 21 4 0.11991917D-02 0.53672233D+00 0.24213105D+05 0.24213105D+05 0.24213105D+05 0.12247896D+01  3  4 11  5  5  2        2 0.145405219720D-04 0.100000000000D+01
  </mgrwgt>
  </event>
  <event>
  6     66 0.42185105E-03 0.64718917E+02 0.75467711E-02 0.11515335E+00
       21 -1    0    0  503  501 0.00000000E+00 0.00000000E+00 0.83493195E+02 0.83496564E+02 0.75000000E+00 0.0000E+00 0.9000E+01
        2 -1    0    0  502    0 0.00000000E+00 0.00000000E+00 -.96581228E+03 0.96581234E+03 0.32000000E+00 0.0000E+00 0.9000E+01
       25  1    1    2    0    0 -.42306198E+02 0.13261505E+03 -.73572840E+03 0.75914284E+03 0.12500000E+03 0.0000E+00 0.9000E+01
       23  1    1    2    0    0 0.63005218E+02 -.74175478E+02 -.15699004E+03 0.20599219E+03 0.91188000E+02 0.0000E+00 0.9000E+01
        2  1    1    2  503    0 0.53122014E+01 0.46618606E+01 -.10614226E+02 0.12756042E+02 0.32000000E+00 0.0000E+00 0.9000E+01
       21  1    1    2  502  501 -.26011221E+02 -.63101430E+02 0.21013575E+02 0.71417833E+02 0.75000000E+00 0.0000E+00 0.9000E+01
#aMCatNLO 2  0  0  1  1 0.70677032D+01 0.00000000D+00  -5  6  0 0.00000000D+00 0.00000000D+00 0.00000000D+00 0.00000000D+00 0.00000000D+00
  <mgrwgt>
 0.1689862034D-01    1    2    0
 0.280411531655248D+03 0.000000000000000D+00 0.000000000000000D+00 0.280411531655248D+03
 0.280411531655248D+03 0.000000000000000D+00 0.000000000000000D+00 -.280411531655248D+03
 0.260238057619882D+03 -.398445886287908D+02 0.134775492187667D+03 -.179852222939678D+03
 0.136694872209275D+03 0.643000668610709D+02 -.730390469365329D+02 0.300172578456940D+02
 0.000000000000000D+00 0.000000000000000D+00 0.000000000000000D+00 0.000000000000000D+00
 0.163890133481339D+03 -.244554782322800D+02 -.617364452511337D+02 0.149834965093984D+03
 0.284073763636942D+03 0.000000000000000D+00 0.000000000000000D+00 0.284073763636942D+03
 0.283864629486441D+03 0.000000000000000D+00 0.000000000000000D+00 -.283864629486441D+03
 0.259515810471401D+03 -.423060847659935D+02 0.132615342174490D+03 -.179852222939678D+03
 0.136703806232644D+03 0.630052813246544D+02 -.741753196900335D+02 0.300172578456940D+02
 0.707079665412809D+01 0.531220140087404D+01 0.466186062722547D+01 0.209134150501341D+00
 0.164647979765210D+03 -.260113979595349D+02 -.631018831116823D+02 0.149834965093984D+03
0.444015047101D-05 0.000000000000D+00 0.000000000000D+00 0.217540981799D-05 0.170271724495D-08  6 21 2 25 23 2 21 4 0.12845206D-01 0.14858487D+00 0.39159507D+05 0.39159507D+05 0.39159507D+05 0.12029380D+01  1  2  1  4  5  1       -2 0.168986203390D-01 0.100000000000D+01
  </mgrwgt>
  </event>
  <event>
  5     66 0.42185105E-03 0.13876007E+03 0.75467711E-02 0.98938750E-01
       -2 -1    0    0    0  501 0.00000000E+00 0.00000000E+00 0.24141708E+03 0.24141729E+03 0.32000000E+00 0.0000E+00 0.9000E+01
        2 -1    0    0  502    0 0.00000000E+00 0.00000000E+00 -.34837172E+03 0.34837187E+03 0.32000000E+00 0.0000E+00 0.9000E+01
       25  1    1    2    0    0 0.11564010E+03 0.92047566E+01 0.12458048E+03 0.21119341E+03 0.12500000E+03 0.0000E+00 0.9000E+01
       23  1    1    2    0    0 -.49667735E+02 0.11286743E+03 -.16308519E+03 0.22387043E+03 0.91188000E+02 0.0000E+00 0.9000E+01
       21  1    1    2  502  501 -.65972361E+02 -.12207218E+03 -.68449934E+02 0.15472532E+03 0.75000000E+00 0.0000E+00 0.9000E+01
#aMCatNLO 1  0  0  1  1 0.70677032D+01 0.00000000D+00  -5  6  0 0.00000000D+00 0.00000000D+00 0.00000000D+00 0.00000000D+00 0.00000000D+00
  <mgrwgt>
 0.2029023228D-01    3    2    0
 0.290005155305262D+03 0.000000000000000D+00 0.000000000000000D+00 0.290005155305262D+03
 0.290005155305262D+03 0.000000000000000D+00 0.000000000000000D+00 -.290005155305262D+03
 0.237727243497705D+03 0.115640459576935D+03 0.920542858110102D+01 0.165625440360141D+03
 0.197571845791163D+03 -.496674335766451D+02 0.112867984447498D+03 -.124552587423932D+03
 0.144711221321656D+03 -.659730260002897D+02 -.122073413028599D+03 -.410728529362091D+02
 0.000000000000000D+00 0.000000000000000D+00 0.000000000000000D+00 -.000000000000000D+00
 0.611557062549865D+03 0.000000000000000D+00 0.000000000000000D+00 0.611557062549865D+03
 0.714465976089000D+03 0.000000000000000D+00 0.000000000000000D+00 -.714465976089000D+03
 0.272135608745969D+03 0.365344397706404D+02 -.172238897359726D+03 0.165625440360141D+03
 0.191253008810326D+03 -.109994218542310D+03 -.255026839425381D+02 -.124552587423932D+03
 0.322479634427134D+03 -.138458418739827D+03 -.288332103054802D+03 -.410728529362091D+02
 0.540154786655436D+03 0.211918197511497D+03 0.486073684357066D+03 -.102908913539135D+03
0.246519787155D-03 0.000000000000D+00 0.000000000000D+00 0.303407177589D-06 0.000000000000D+00  6 -2 2 25 23 21 21 2 0.37141117D-01 0.53595677D-01 0.53514119D+05 0.53514119D+05 0.53514119D+05 0.11893714D+01  1  2  2  1  6  1       -2 0.223137489946D-01 0.100000000000D+01
-.211792155027D-04 0.130092065759D-04 -.946700892825D-06 0.303407177589D-06 0.000000000000D+00  6 -2 2 25 23 21 21 4 0.37141117D-01 0.53595677D-01 0.53514119D+05 0.53514119D+05 0.53514119D+05 0.11893714D+01  1  2  3  1  6  1       -2 -.271184950511D-02 0.100000000000D+01
0.537579554370D-05 0.000000000000D+00 0.000000000000D+00 0.303407177589D-06 0.000000000000D+00  6 -2 2 25 23 21 21 4 0.37141117D-01 0.53595677D-01 0.53514119D+05 0.53514119D+05 0.53514119D+05 0.11893714D+01  1  2 15  1  6  1       -2 0.688332789422D-03 0.100000000000D+01
  </mgrwgt>
  </event>
  <event>
  5     66 0.42185105E-03 0.66568111E+02 0.75467711E-02 0.10897857E+00
       -2 -1    0    0    0  501 0.00000000E+00 0.00000000E+00 0.16575263E+03 0.16575294E+03 0.32000000E+00 0.0000E+00 0.9000E+01
        2 -1    0    0  502    0 0.00000000E+00 0.00000000E+00 -.18700235E+03 0.18700262E+03 0.32000000E+00 0.0000E+00 0.9000E+01
       25  1    1    2    0    0 -.26205053E+02 -.15201471E+02 0.34717617E+02 0.13322200E+03 0.12500000E+03 0.0000E+00 0.9000E+01
       23  1    1    2    0    0 0.85768103E+02 0.44919179E+02 -.71748742E+02 0.15111927E+03 0.91188000E+02 0.0000E+00 0.9000E+01
       21  1    1    2  502  501 -.59563050E+02 -.29717708E+02 0.15781407E+02 0.68414285E+02 0.75000000E+00 0.0000E+00 0.9000E+01
#aMCatNLO 1  0  0  1  2 0.19859779D+03 0.00000000D+00  -5  6  0 0.00000000D+00 0.00000000D+00 0.00000000D+00 0.00000000D+00 0.00000000D+00
  <mgrwgt>
 0.3196845939D-01    3    2    0
 0.176057471842787D+03 0.000000000000000D+00 0.000000000000000D+00 0.176057471842787D+03
 0.176057471842787D+03 0.000000000000000D+00 0.000000000000000D+00 -.176057471842787D+03
 0.135559072602623D+03 -.262037177740115D+02 -.152008047416765D+02 0.428201223130972D+02
 0.147065527285628D+03 0.857695523266042D+02 0.449199022045154D+02 -.627598936537533D+02
 0.694903437973235D+02 -.595658345525927D+02 -.297190974628389D+02 0.199397713406561D+02
 0.000000000000000D+00 -.000000000000000D+00 -.000000000000000D+00 -.000000000000000D+00
 0.237260976496278D+03 0.000000000000000D+00 0.000000000000000D+00 0.237260976496278D+03
 0.482800973208780D+03 0.000000000000000D+00 0.000000000000000D+00 -.482800973208780D+03
 0.138770221564252D+03 0.294822230147272D+02 0.304862271229609D+02 0.428201223130972D+02
 0.222313327224413D+03 0.160749547019938D+03 0.106436567959715D+03 -.627598936537533D+02
 0.431762897103956D+02 -.366957014104831D+02 -.109555013591818D+02 0.199397713406561D+02
 0.315802111205998D+03 -.153536068624182D+03 -.125967293723494D+03 -.245539996712501D+03
0.835090208060D-04 0.000000000000D+00 0.000000000000D+00 0.242445218558D-05 0.000000000000D+00  6 -2 2 25 23 21 21 2 0.25500449D-01 0.28769637D-01 0.26926888D+05 0.26926888D+05 0.26926888D+05 0.12198555D+01  1  2  2  1  6  1       -2 0.306271819815D-01 0.100000000000D+01
-.164396857611D-05 0.440689210046D-05 -.320696628325D-06 0.242445218558D-05 0.000000000000D+00  6 -2 2 25 23 21 21 4 0.25500449D-01 0.28769637D-01 0.26926888D+05 0.26926888D+05 0.26926888D+05 0.12198555D+01  1  2  3  1  6  1       -2 -.897188969339D-03 0.100000000000D+01
0.410166476778D-05 0.000000000000D+00 0.000000000000D+00 0.242445218558D-05 0.000000000000D+00  6 -2 2 25 23 21 21 4 0.25500449D-01 0.28769637D-01 0.26926888D+05 0.26926888D+05 0.26926888D+05 0.12198555D+01  1  2 15  1  6  1       -2 0.223846637889D-02 0.100000000000D+01
  </mgrwgt>
  </event>
  <event>
  5     66 -.42185105E-03 0.23720736E+02 0.75467711E-02 0.12323227E+00
       -2 -1    0    0    0  501 0.00000000E+00 0.00000000E+00 0.21536397E+03 0.21536421E+03 0.32000000E+00 0.0000E+00 0.9000E+01
        2 -1    0    0  502    0 0.00000000E+00 0.00000000E+00 -.78330523E+02 0.78331177E+02 0.32000000E+00 0.0000E+00 0.9000E+01
       25  1    1    2    0    0 0.25751084E+02 -.39533416E+02 0.43423992E+02 0.14048720E+03 0.12500000E+03 0.0000E+00 0.9000E+01
       23  1    1    2    0    0 -.26310733E+02 0.15827613E+02 0.65360619E+02 0.11631866E+03 0.91188000E+02 0.0000E+00 0.9000E+01
       21  1    1    2  502  501 0.55964809E+00 0.23705802E+02 0.28248834E+02 0.36889530E+02 0.75000000E+00 0.0000E+00 0.9000E+01
#aMCatNLO 1  0  0  2  2 0.31711353D+02 0.00000000D+00  -5  6  0 0.00000000D+00 0.00000000D+00 0.00000000D+00 0.00000000D+00 0.00000000D+00
  <mgrwgt>
 -.1580957265D-01    1    2    0
 0.129883421429436D+03 0.000000000000000D+00 0.000000000000000D+00 0.129883421429436D+03
 0.129883421429436D+03 0.000000000000000D+00 0.000000000000000D+00 -.129883421429436D+03
 0.135931071776102D+03 0.257509697908114D+02 -.395382739143370D+02 -.250173684648739D+02
 0.970310868268515D+02 -.263108144526913D+02 0.158241454047531D+02 0.125346691956857D+02
 0.268046842559186D+02 0.559844661879908D+00 0.237141285095839D+02 0.124826992691883D+02
 0.000000000000000D+00 0.000000000000000D+00 -.000000000000000D+00 0.000000000000000D+00
 0.219317104867357D+03 0.000000000000000D+00 0.000000000000000D+00 0.219317104867357D+03
 0.149177490360794D+03 0.000000000000000D+00 0.000000000000000D+00 -.149177490360794D+03
 0.131263070450921D+03 -.853018141654105D+01 -.301058290750678D+02 -.250173684648739D+02
 0.108539807427943D+03 -.526856700204140D+02 0.230811762081084D+02 0.125346691956857D+02
 0.293293107700487D+02 -.664217689188204D+01 0.256957618166508D+02 0.124826992691883D+02
 0.993624065792381D+02 0.678580283288371D+02 -.186711089496914D+02 0.701396145065633D+02
-.160240506340D-04 0.000000000000D+00 0.000000000000D+00 0.256452942587D-04 0.000000000000D+00  6 -2 2 25 23 21 21 4 0.33132987D-01 0.12050918D-01 0.16071631D+05 0.16071631D+05 0.16071631D+05 0.12444205D+01  1  2 14  2  6  2        2 -.158095726522D-01 0.100000000000D+01
  </mgrwgt>
  </event>
  <event>
  6     66 0.42185105E-03 0.17232896E+02 0.75467711E-02 0.12127696E+00
       -2 -1    0    0    0  501 0.00000000E+00 0.00000000E+00 0.30876071E+02 0.30877729E+02 0.32000000E+00 0.0000E+00 0.9000E+01
        2 -1    0    0  503    0 0.00000000E+00 0.00000000E+00 -.87131495E+03 0.87131501E+03 0.32000000E+00 0.0000E+00 0.9000E+01
       25  1    1    2    0    0 -.23518927E+02 -.65840080E+02 -.26991565E+03 0.30556098E+03 0.12500000E+03 0.0000E+00 0.9000E+01
       23  1    1    2    0    0 0.32288690E+02 0.45292128E+02 -.27972208E+03 0.29942216E+03 0.91188000E+02 0.0000E+00 0.9000E+01
       21  1    1    2  502  501 -.89482984E+01 -.12049126E+01 -.45616957E+01 0.10143738E+02 0.75000000E+00 0.0000E+00 0.9000E+01
       21  1    1    2  503  502 0.17853536E+00 0.21752865E+02 -.28623946E+03 0.28706586E+03 0.75000000E+00 0.0000E+00 0.9000E+01
#aMCatNLO 2  0  0  2  2 0.31711353D+02 0.00000000D+00  -5  6  0 0.00000000D+00 0.00000000D+00 0.00000000D+00 0.00000000D+00 0.00000000D+00
  <mgrwgt>
 0.4430496478D+00    1    2    0
 0.133013962472286D+03 0.000000000000000D+00 0.000000000000000D+00 0.133013962472286D+03
 0.133013962472286D+03 0.000000000000000D+00 0.000000000000000D+00 -.133013962472286D+03
 0.138837909162505D+03 -.234173984724763D+02 -.543053307117993D+02 0.123903803686362D+02
 0.113343695671058D+03 0.323688564908391D+02 0.543775706056572D+02 -.229538438801802D+02
 0.138463201110078D+02 -.895145801836287D+01 -.722398938579031D-01 0.105634635115440D+02
 0.000000000000000D+00 0.000000000000000D+00 0.000000000000000D+00 -.000000000000000D+00
 0.135266051434968D+03 0.000000000000000D+00 0.000000000000000D+00 0.135266051434968D+03
 0.198887562592357D+03 0.000000000000000D+00 0.000000000000000D+00 -.198887562592357D+03
 0.143757529072603D+03 -.235120675154199D+02 -.658398687766850D+02 0.123903803686362D+02
 0.109253879964133D+03 0.322942866408141D+02 0.452919313421555D+02 -.229538438801802D+02
 0.139044500886124D+02 -.896075448426534D+01 -.120492737528536D+01 0.105634635115440D+02
 0.672377549019758D+02 0.178535358871062D+00 0.217528648098149D+02 -.636215111573887D+02
0.292607791862D-03 0.000000000000D+00 0.000000000000D+00 0.144902697411D-03 0.142610926463D-05  6 -2 2 25 23 21 21 4 0.47502243D-02 0.13404654D+00 0.19716791D+05 0.19716791D+05 0.19716791D+05 0.12345085D+01  1  2  1  2  6  2        2 0.443049647839D+00 0.100000000000D+01
  </mgrwgt>
  </event>
  <event>
  6     66 0.42185105E-03 0.22360888E+02 0.75467711E-02 0.11314174E+00
       -2 -1    0    0    0  501 0.00000000E+00 0.00000000E+00 0.68032818E+02 0.68033570E+02 0.32000000E+00 0.0000E+00 0.9000E+01
        2 -1    0    0  502    0 -.00000000E+00 -.00000000E+00 -.77177860E+03 0.77177866E+03 0.32000000E+00 0.0000E+00 0.9000E+01
       25  1    1    2    0    0 0.94320699E+02 -.16217774E+03 -.42241961E+03 0.47881243E+03 0.12500000E+03 0.0000E+00 0.9000E+01
       23  1    1    2    0    0 -.10273564E+03 0.13555811E+03 -.25330281E+03 0.31844651E+03 0.91188000E+02 0.0000E+00 0.9000E+01
       21  1    1    2  502  503 0.59552255E+01 0.23900134E+02 -.29580097E+02 0.38499685E+02 0.75000000E+00 0.0000E+00 0.9000E+01
       21  1    1    2  503  501 0.24597197E+01 0.27194937E+01 0.15567367E+01 0.40536152E+01 0.75000000E+00 0.0000E+00 0.9000E+01
#aMCatNLO 2  0  0  5  2 0.69851005D+01 0.00000000D+00  -5  6  0 0.00000000D+00 0.00000000D+00 0.00000000D+00 0.00000000D+00 0.00000000D+00
  <mgrwgt>
 0.4907374417D+00    4    2    0
 0.229143222453699D+03 0.000000000000000D+00 0.000000000000000D+00 0.229143222453699D+03
 0.229143222453699D+03 -.000000000000000D+00 -.000000000000000D+00 -.229143222453699D+03
 0.229826094939628D+03 0.938173471608346D+02 -.163770027203095D+03 -.396575021502867D+02
 0.193782406472690D+03 -.103161922141319D+03 0.134209631078195D+03 0.241197524927239D+02
 0.346779434950803D+02 0.934457498048411D+01 0.295603961248999D+02 0.155377496575629D+02
 0.000000000000000D+00 0.000000000000000D+00 0.000000000000000D+00 0.000000000000000D+00
 0.229143222453699D+03 0.000000000000000D+00 0.000000000000000D+00 0.229143222453699D+03
 0.229143222453699D+03 -.000000000000000D+00 -.000000000000000D+00 -.229143222453699D+03
 0.228742246042548D+03 0.943279759157352D+02 -.162154716897473D+03 -.388084510400792D+02
 0.194594116525041D+03 -.102729453951417D+03 0.135577690196092D+03 0.248388416416248D+02
 0.247463886250096D+02 0.582102838306553D+01 0.236173985940708D+02 0.455168783994845D+01
 0.102036937147997D+02 0.258044965261596D+01 0.295962810731113D+01 0.941792155850590D+01
-.118909733891D-03 0.000000000000D+00 0.000000000000D+00 0.865482396840D-05 0.000000000000D+00  6 -2 2 25 23 21 21 4 0.10466650D-01 0.11873523D+00 0.49880576D+05 0.49880576D+05 0.49880576D+05 0.11923846D+01  1  2 13  3  6  5       21 -.548100842807D-01 0.100000000000D+01
-.122871224613D-03 0.000000000000D+00 0.000000000000D+00 0.865482396840D-05 0.000000000000D+00  6 -2 2 25 23 21 21 4 0.10466650D-01 0.11873523D+00 0.49880576D+05 0.49880576D+05 0.49880576D+05 0.11923846D+01  1  2 13  3  6  5       21 -.566360882020D-01 0.100000000000D+01
-.661013691667D-03 0.000000000000D+00 0.000000000000D+00 0.864653426098D-05 0.000000000000D+00  6 -2 2 25 23 21 21 4 0.10466650D-01 0.11873523D+00 0.50547721D+05 0.50547721D+05 0.50547721D+05 0.11918134D+01  1  2  8  3  6  5       21 -.304137772938D+00 0.100000000000D+01
0.196625194747D-02 0.000000000000D+00 0.000000000000D+00 0.864653426098D-05 0.531595806365D-05  6 -2 2 25 23 21 21 4 0.10466650D-01 0.11873523D+00 0.49880576D+05 0.49880576D+05 0.49880576D+05 0.11923846D+01  1  2  1  3  6  5       21 0.906321387083D+00 0.100000000000D+01
  </mgrwgt>
  </event>
  <event>
  6     66 -.42185105E-03 0.75979135E+02 0.75467711E-02 0.11831092E+00
       -2 -1    0    0    0  501 0.00000000E+00 0.00000000E+00 0.65537871E+02 0.65538653E+02 0.32000000E+00 0.0000E+00 0.9000E+01
        2 -1    0    0  503    0 0.00000000E+00 0.00000000E+00 -.88036683E+03 0.88036689E+03 0.32000000E+00 0.0000E+00 0.9000E+01
       25  1    1    2    0    0 -.23901498E+02 0.68797229E+02 -.10831452E+03 0.18072459E+03 0.12500000E+03 0.0000E+00 0.9000E+01
       23  1    1    2    0    0 -.37303273E+02 -.78362209E+01 -.64471686E+03 0.65224844E+03 0.91188000E+02 0.0000E+00 0.9000E+01
       21  1    1    2  502  501 0.55162764E+02 -.57271873E+02 -.38077476E+02 0.88167197E+02 0.75000000E+00 0.0000E+00 0.9000E+01
       21  1    1    2  503  502 0.60420071E+01 -.36891344E+01 -.23720099E+02 0.24765321E+02 0.75000000E+00 0.0000E+00 0.9000E+01
#aMCatNLO 2  0  0  2  5 0.70792346D+01 0.00000000D+00  -5  6  0 0.00000000D+00 0.00000000D+00 0.00000000D+00 0.00000000D+00 0.00000000D+00
  <mgrwgt>
 -.3681642648D-01    3    2    0
 0.235900381552849D+03 0.000000000000000D+00 0.000000000000000D+00 0.235900381552849D+03
 0.235900381552849D+03 0.000000000000000D+00 0.000000000000000D+00 -.235900381552849D+03
 0.170380932066318D+03 -.217148743562136D+02 0.674623180908232D+02 0.915530550079779D+02
 0.191976983579781D+03 -.348429239958178D+02 -.933823772012298D+01 -.165041445837388D+03
 0.109442847459598D+03 0.565577983520315D+02 -.581240803707003D+02 0.734883908294103D+02
 0.000000000000000D+00 0.000000000000000D+00 -.000000000000000D+00 -.000000000000000D+00
 0.237807017438144D+03 0.000000000000000D+00 0.000000000000000D+00 0.237807017438144D+03
 0.242590948702580D+03 0.000000000000000D+00 0.000000000000000D+00 -.242590948702580D+03
 0.171205703019747D+03 -.239019762923375D+02 0.687977208526012D+02 0.915530550079779D+02
 0.192371783035358D+03 -.373038221846448D+02 -.783566018428204D+01 -.165041445837388D+03
 0.108276384999917D+03 0.551637913683460D+02 -.572729262725741D+02 0.734883908294103D+02
 0.854409508570231D+01 0.604200710863637D+01 -.368913439574506D+01 -.478393126443522D+01
-.153499600300D-03 0.000000000000D+00 0.000000000000D+00 0.944043225408D-06 0.000000000000D+00  6 -2 2 25 23 21 21 4 0.10001286D-01 0.13679444D+00 0.27241897D+05 0.27241897D+05 0.27241897D+05 0.12193190D+01  1  2 13  2  6  2        2 -.690414178547D-01 0.100000000000D+01
-.520634077422D-03 0.000000000000D+00 0.000000000000D+00 0.947222506646D-06 0.000000000000D+00  6 -2 2 25 23 21 21 4 0.10001286D-01 0.13169664D+00 0.26059103D+05 0.26059103D+05 0.26059103D+05 0.12213704D+01  1  2  8  2  6  2        2 -.247588108230D+00 0.100000000000D+01
0.621872686483D-03 0.000000000000D+00 0.000000000000D+00 0.947222506646D-06 0.130363291414D-06  6 -2 2 25 23 21 21 4 0.10082121D-01 0.13543180D+00 0.27241897D+05 0.27241897D+05 0.27241897D+05 0.12193190D+01  1  2  1  2  6  2        2 0.279813099606D+00 0.100000000000D+01
  </mgrwgt>
  </event>
  <event>
  6     66 0.42185105E-03 0.15066520E+02 0.75467711E-02 0.12169568E+00
       -4 -1    0    0    0  501 0.00000000E+00 0.00000000E+00 0.83427499E+02 0.83441896E+02 0.15500000E+01 0.0000E+00 0.9000E+01
        4 -1    0    0  503    0 0.00000000E+00 0.00000000E+00 -.53671474E+03 0.53671697E+03 0.15500000E+01 0.0000E+00 0.9000E+01
       25  1    1    2    0    0 -.17682981E+02 -.26958950E+02 -.13635252E+03 0.18776710E+03 0.12500000E+03 0.0000E+00 0.9000E+01
       23  1    1    2    0    0 0.11175397E+02 0.27242887E+02 -.22754786E+03 0.24690149E+03 0.91188000E+02 0.0000E+00 0.9000E+01
       21  1    1    2  502  501 -.11017156E+02 -.20336263E+02 0.43868466E+02 0.49597844E+02 0.75000000E+00 0.0000E+00 0.9000E+01
       21  1    1    2  503  502 0.17524739E+02 0.20052326E+02 -.13325532E+03 0.13589244E+03 0.75000000E+00 0.0000E+00 0.9000E+01
#aMCatNLO 2  0  0  2  1 0.41064933D+01 0.00000000D+00  -5  6  0 0.00000000D+00 0.00000000D+00 0.00000000D+00 0.00000000D+00 0.00000000D+00
  <mgrwgt>
 0.3451902492D-02    1    2    0
 0.181234885459968D+03 0.000000000000000D+00 0.000000000000000D+00 0.181234885459968D+03
 0.181234885459968D+03 0.000000000000000D+00 0.000000000000000D+00 -.181234885459968D+03
 0.128125714337423D+03 -.114484493344603D+02 -.198251422457908D+02 -.163430540978510D+02
 0.131006510669981D+03 0.174430209942141D+02 0.344145611848156D+02 -.857836434932426D+02
 0.103337545912534D+03 -.599457165975388D+01 -.145894189390249D+02 0.102126697591094D+03
 0.000000000000000D+00 0.000000000000000D+00 0.000000000000000D+00 -.000000000000000D+00
 0.184639142837376D+03 0.000000000000000D+00 0.000000000000000D+00 0.184639142837376D+03
 0.242531840019652D+03 0.000000000000000D+00 0.000000000000000D+00 -.242531840019652D+03
 0.130121325355510D+03 -.176829291915836D+02 -.269588187841126D+02 -.163430540978510D+02
 0.128612422755003D+03 0.111754215170218D+02 0.272429881960987D+02 -.857836434932426D+02
 0.104713011500822D+03 -.110172314005941D+02 -.203364950021975D+02 0.102126697591094D+03
 0.637242232456923D+02 0.175247390751559D+02 0.200523255902114D+02 -.578926971822759D+02
0.134078429113D-03 0.000000000000D+00 0.000000000000D+00 0.710132679126D-04 0.196191484898D-06  6 -4 4 25 23 21 21 4 0.12836128D-01 0.82571805D-01 0.18861647D+05 0.18861647D+05 0.18861647D+05 0.12366378D+01  1  2  1  2  6  2        4 0.345190249190D-02 0.100000000000D+01
  </mgrwgt>
  </event>
  <event>
  5     66 0.42185105E-03 0.10559894E+03 0.75467711E-02 0.11502094E+00
       -2 -1    0    0    0  501 0.00000000E+00 0.00000000E+00 0.74006833E+02 0.74007525E+02 0.32000000E+00 0.0000E+00 0.9000E+01
        2 -1    0    0  502    0 -.00000000E+00 -.00000000E+00 -.11539639E+04 0.11539640E+04 0.32000000E+00 0.0000E+00 0.9000E+01
       25  1    1    2    0    0 -.14913075E+02 0.76611770E+01 -.27299517E+03 0.30071990E+03 0.12500000E+03 0.0000E+00 0.9000E+01
       23  1    1    2    0    0 0.74418447E+02 0.10196527E+03 -.55211766E+02 0.16522292E+03 0.91188000E+02 0.0000E+00 0.9000E+01
       21  1    1    2  502  501 -.59505372E+02 -.10962645E+03 -.75175014E+03 0.76202866E+03 0.75000000E+00 0.0000E+00 0.9000E+01
#aMCatNLO 1  0  0  5  1 0.30232841D+02 0.00000000D+00  -5  6  0 0.00000000D+00 0.00000000D+00 0.00000000D+00 0.00000000D+00 0.00000000D+00
  <mgrwgt>
 0.7753433657D-02   15    2    0
 0.292235634553838D+03 0.000000000000000D+00 0.000000000000000D+00 0.292235634553838D+03
 0.292235634553838D+03 -.000000000000000D+00 -.000000000000000D+00 -.292235634553838D+03
 0.127384141665099D+03 -.149129937241589D+02 0.766132653475897D+01 -.179060392511847D+02
 0.245115546028780D+03 0.744186028243383D+02 0.101965561171243D+03 0.189291509185420D+03
 0.211971581413797D+03 -.595056091001794D+02 -.109626887706002D+03 -.171385469934235D+03
 0.000000000000000D+00 -.000000000000000D+00 0.000000000000000D+00 0.000000000000000D+00
 0.292235634553838D+03 0.000000000000000D+00 0.000000000000000D+00 0.292235634553838D+03
 0.292235634553838D+03 -.000000000000000D+00 -.000000000000000D+00 -.292235634553838D+03
 0.127824528534598D+03 -.158741102788726D+02 0.589066628593105D+01 -.206742053935373D+02
 0.239120912850826D+03 0.725949669868060D+02 0.986058859372453D+02 0.184039152479378D+03
 0.175538000827804D+03 -.302923408647116D+02 -.725027224902399D+02 -.156969165924590D+03
 0.419878268944483D+02 -.264285158432217D+02 -.319938297329363D+02 -.639578116125113D+01
0.877757300783D-04 0.000000000000D+00 0.000000000000D+00 0.767034688904D-06 0.000000000000D+00  6 -2 2 25 23 21 21 2 0.11385723D-01 0.17753297D+00 0.41326870D+05 0.41326870D+05 0.41326870D+05 0.12005637D+01  1  2  2  3  6  5       21 0.145267142676D-01 0.100000000000D+01
-.612342120632D-05 0.463205253469D-05 -.337081915381D-06 0.767034688904D-06 0.000000000000D+00  6 -2 2 25 23 21 21 4 0.11385723D-01 0.17753297D+00 0.41326870D+05 0.41326870D+05 0.41326870D+05 0.12005637D+01  1  2  3  3  6  5       21 -.146068811546D-02 0.100000000000D+01
0.544347786784D-05 0.000000000000D+00 0.000000000000D+00 0.767034688904D-06 0.000000000000D+00  6 -2 2 25 23 21 21 4 0.11385723D-01 0.17753297D+00 0.41326870D+05 0.41326870D+05 0.41326870D+05 0.12005637D+01  1  2 15  3  6  5       21 0.129849362969D-02 0.100000000000D+01
0.170609162821D-03 0.000000000000D+00 0.000000000000D+00 0.769186014501D-06 0.000000000000D+00  6 -2 2 25 23 21 21 4 0.11385723D-01 0.17753297D+00 0.39777671D+05 0.39777671D+05 0.39777671D+05 0.12022462D+01  1  2 12  3  6  5       21 0.409321026933D-01 0.100000000000D+01
-.248289473736D-03 0.000000000000D+00 0.000000000000D+00 0.767034688904D-06 0.000000000000D+00  6 -2 2 25 23 21 21 4 0.11385723D-01 0.17753297D+00 0.41326870D+05 0.41326870D+05 0.41326870D+05 0.12005637D+01  1  2  4  3  6  5       21 -.592272638546D-01 0.100000000000D+01
-.297376027827D-03 0.000000000000D+00 0.000000000000D+00 0.767034688904D-06 0.000000000000D+00  6 -2 2 25 23 21 21 4 0.11385723D-01 0.17753297D+00 0.41326870D+05 0.41326870D+05 0.41326870D+05 0.12005637D+01  1  2  5  3  6  5       21 -.709364283515D-01 0.100000000000D+01
0.349917458768D-03 0.000000000000D+00 -.000000000000D+00 0.767034688904D-06 0.000000000000D+00  6 -2 2 25 23 21 21 4 0.11385723D-01 0.17753297D+00 0.41326870D+05 0.41326870D+05 0.41326870D+05 0.12005637D+01  1  2  6  3  6  5       21 0.834697232465D-01 0.100000000000D+01
0.213631482815D-05 0.000000000000D+00 0.000000000000D+00 0.769186014501D-06 0.000000000000D+00  6 -2 2 25 23 1 -1 4 0.11385723D-01 0.17753297D+00 0.39777671D+05 0.39777671D+05 0.39777671D+05 0.12022462D+01  1  2 12  6  6  5       21 0.512539048226D-03 0.100000000000D+01
0.213631482815D-05 0.000000000000D+00 0.000000000000D+00 0.769186014501D-06 0.000000000000D+00  6 -2 2 25 23 3 -3 4 0.11385723D-01 0.17753297D+00 0.39777671D+05 0.39777671D+05 0.39777671D+05 0.12022462D+01  1  2 12  6  6  5       21 0.512539048226D-03 0.100000000000D+01
-.303865359909D-05 0.000000000000D+00 0.000000000000D+00 0.767034688904D-06 0.000000000000D+00  6 -2 2 25 23 1 -1 4 0.11385723D-01 0.17753297D+00 0.41326870D+05 0.41326870D+05 0.41326870D+05 0.12005637D+01  1  2  5  6  6  5       21 -.724844012789D-03 0.100000000000D+01
-.303865359909D-05 0.000000000000D+00 0.000000000000D+00 0.767034688904D-06 0.000000000000D+00  6 -2 2 25 23 3 -3 4 0.11385723D-01 0.17753297D+00 0.41326870D+05 0.41326870D+05 0.41326870D+05 0.12005637D+01  1  2  5  6  6  5       21 -.724844012789D-03 0.100000000000D+01
0.213631482815D-05 0.000000000000D+00 0.000000000000D+00 0.769186014501D-06 0.000000000000D+00  6 -2 2 25 23 2 -2 4 0.11385723D-01 0.17753297D+00 0.39777671D+05 0.39777671D+05 0.39777671D+05 0.12022462D+01  1  2 12  7  6  5       21 0.512539048226D-03 0.100000000000D+01
-.303865359909D-05 0.000000000000D+00 0.000000000000D+00 0.767034688904D-06 0.000000000000D+00  6 -2 2 25 23 2 -2 4 0.11385723D-01 0.17753297D+00 0.41326870D+05 0.41326870D+05 0.41326870D+05 0.12005637D+01  1  2  5  7  6  5       21 -.724844012789D-03 0.100000000000D+01
0.213631482815D-05 0.000000000000D+00 0.000000000000D+00 0.769186014501D-06 0.000000000000D+00  6 -2 2 25 23 4 -4 4 0.11385723D-01 0.17753297D+00 0.39777671D+05 0.39777671D+05 0.39777671D+05 0.12022462D+01  1  2 12  8  6  5       21 0.512539048226D-03 0.100000000000D+01
-.303865359909D-05 0.000000000000D+00 0.000000000000D+00 0.767034688904D-06 0.000000000000D+00  6 -2 2 25 23 4 -4 4 0.11385723D-01 0.17753297D+00 0.41326870D+05 0.41326870D+05 0.41326870D+05 0.12005637D+01  1  2  5  8  6  5       21 -.724844012789D-03 0.100000000000D+01
  </mgrwgt>
  </event>
  <event>
  5     66 0.42185105E-03 0.28527967E+02 0.75467711E-02 0.95051473E-01
       -2 -1    0    0    0  501 0.00000000E+00 0.00000000E+00 0.88406984E+02 0.88407563E+02 0.32000000E+00 0.0000E+00 0.9000E+01
        2 -1    0    0  502    0 0.00000000E+00 0.00000000E+00 -.35647805E+03 0.35647820E+03 0.32000000E+00 0.0000E+00 0.9000E+01
       25  1    1    2    0    0 -.38835487E+02 -.17786376E+02 -.90445713E+01 0.13240602E+03 0.12500000E+03 0.0000E+00 0.9000E+01
       23  1    1    2    0    0 0.24126772E+02 -.66529096E+01 -.26667059E+03 0.28293960E+03 0.91188000E+02 0.0000E+00 0.9000E+01
       21  1    1    2  502  501 0.14708715E+02 0.24439285E+02 0.76440951E+01 0.29540136E+02 0.75000000E+00 0.0000E+00 0.9000E+01
#aMCatNLO 1  0  0  1  2 0.24991185D+02 0.00000000D+00  -5  6  0 0.00000000D+00 0.00000000D+00 0.00000000D+00 0.00000000D+00 0.00000000D+00
  <mgrwgt>
 0.3173313413D+00    3    2    0
 0.177525520140732D+03 0.000000000000000D+00 0.000000000000000D+00 0.177525520140732D+03
 0.177525520140732D+03 0.000000000000000D+00 0.000000000000000D+00 -.177525520140732D+03
 0.159077651735472D+03 -.388365000612777D+02 -.177880582762981D+02 0.886341386116075D+02
 0.153188369745913D+03 0.241257969429103D+02 -.665452995995307D+01 -.120520074818646D+03
 0.427850188000780D+02 0.147107031183675D+02 0.244425882362512D+02 0.318859362070390D+02
 0.000000000000000D+00 0.000000000000000D+00 -.000000000000000D+00 -.000000000000000D+00
 0.565178238749154D+03 0.000000000000000D+00 0.000000000000000D+00 0.565178238749154D+03
 0.187178141850588D+04 0.000000000000000D+00 0.000000000000000D+00 -.187178141850588D+04
 0.462102684776723D+03 -.402927496859652D+03 0.166455138174970D+03 0.886341386116075D+02
 0.329056965981078D+03 -.258531548542397D+03 0.136380297296385D+03 -.120520074818646D+03
 0.102909672460196D+03 -.706849899697751D+02 0.676558936903372D+02 0.318859362070390D+02
 0.154289033403704D+04 0.732144035371825D+03 -.370491329161692D+03 -.130660317975673D+04
0.495358216313D-03 0.000000000000D+00 0.000000000000D+00 0.850291200251D-05 0.000000000000D+00  6 -2 2 25 23 21 21 2 0.13601130D-01 0.54842833D-01 0.16279873D+05 0.16279873D+05 0.16279873D+05 0.12437890D+01  1  2  2  1  6  1       -2 0.269500169685D+00 0.100000000000D+01
0.319330663197D-04 0.261407712520D-04 -.190230598145D-05 0.850291200251D-05 0.000000000000D+00  6 -2 2 25 23 21 21 4 0.13601130D-01 0.54842833D-01 0.16279873D+05 0.16279873D+05 0.16279873D+05 0.12437890D+01  1  2  3  1  6  1       -2 0.268765602019D-01 0.100000000000D+01
0.248969730635D-04 0.000000000000D+00 0.000000000000D+00 0.850291200251D-05 0.000000000000D+00  6 -2 2 25 23 21 21 4 0.13601130D-01 0.54842833D-01 0.16279873D+05 0.16279873D+05 0.16279873D+05 0.12437890D+01  1  2 15  1  6  1       -2 0.209546113952D-01 0.100000000000D+01
  </mgrwgt>
  </event>
  <event>
  5     66 0.42185105E-03 0.20228184E+03 0.75467711E-02 0.92358701E-01
       -2 -1    0    0    0  501 0.00000000E+00 0.00000000E+00 0.46639855E+03 0.46639866E+03 0.32000000E+00 0.0000E+00 0.9000E+01
        2 -1    0    0  502    0 0.00000000E+00 0.00000000E+00 -.15398097E+04 0.15398097E+04 0.32000000E+00 0.0000E+00 0.9000E+01
       25  1    1    2    0    0 0.30130358E+03 -.24953004E+03 -.18910968E+03 0.45214661E+03 0.12500000E+03 0.0000E+00 0.9000E+01
       23  1    1    2    0    0 -.49870546E+03 0.29369326E+03 0.59419693E+02 0.58890476E+03 0.91188000E+02 0.0000E+00 0.9000E+01
       21  1    1    2  502  501 0.19740188E+03 -.44163222E+02 -.94372116E+03 0.96515703E+03 0.75000000E+00 0.0000E+00 0.9000E+01
#aMCatNLO 1  0  0  1  1 0.80067314D+03 0.00000000D+00  -5  6  0 0.00000000D+00 0.00000000D+00 0.00000000D+00 0.00000000D+00 0.00000000D+00
  <mgrwgt>
 0.1455823136D+00    5    4    0
 0.847446257200464D+03 0.000000000000000D+00 0.000000000000000D+00 0.847446257200464D+03
 0.847446257200464D+03 0.000000000000000D+00 0.000000000000000D+00 -.847446257200464D+03
 0.415429206305673D+03 0.301303535007648D+03 -.249530025476634D+03 0.625089723902683D+02
 0.734706029418237D+03 -.498705539793517D+03 0.293693275666609D+03 0.443299833890095D+03
 0.544757278677017D+03 0.197402004785869D+03 -.441632501899747D+02 -.505808806280363D+03
 0.000000000000000D+00 0.000000000000000D+00 0.000000000000000D+00 0.000000000000000D+00
 0.137332534012860D+04 0.000000000000000D+00 0.000000000000000D+00 0.137332534012860D+04
 0.130477380999858D+04 0.000000000000000D+00 0.000000000000000D+00 -.130477380999858D+04
 0.331974664664434D+03 0.134813276683459D+03 -.269258587197596D+03 0.625089723902683D+02
 0.103018851560923D+04 -.891850076675809D+03 0.247106908757150D+03 0.443299833890095D+03
 0.512333583694965D+03 -.380735360619649D+02 -.720663466723374D+02 -.505808806280363D+03
 0.803602386158557D+03 0.795110336054315D+03 0.942180251127829D+02 0.685515301300252D+02
 0.847446257200464D+03 0.000000000000000D+00 0.000000000000000D+00 0.847446257200464D+03
 0.847446257200464D+03 0.000000000000000D+00 0.000000000000000D+00 -.847446257200464D+03
 0.415429206305673D+03 0.301303535007648D+03 -.249530025476634D+03 0.625089723902683D+02
 0.734706029418237D+03 -.498705539793517D+03 0.293693275666609D+03 0.443299833890095D+03
 0.000000000000000D+00 0.000000000000000D+00 0.000000000000000D+00 0.000000000000000D+00
 0.544757278677017D+03 0.197402004785869D+03 -.441632501899747D+02 -.505808806280363D+03
 0.137332534012860D+04 0.000000000000000D+00 0.000000000000000D+00 0.137332534012860D+04
 0.130477380999858D+04 0.000000000000000D+00 0.000000000000000D+00 -.130477380999858D+04
 0.331974664664434D+03 0.134813276683459D+03 -.269258587197596D+03 0.625089723902683D+02
 0.103018851560923D+04 -.891850076675809D+03 0.247106908757150D+03 0.443299833890095D+03
 0.803602386158557D+03 0.795110336054315D+03 0.942180251127829D+02 0.685515301300252D+02
 0.512333583694965D+03 -.380735360619649D+02 -.720663466723374D+02 -.505808806280363D+03
0.450769530733D-01 0.000000000000D+00 0.000000000000D+00 0.198681389182D-06 0.000000000000D+00  6 -2 2 25 23 21 21 2 0.71753635D-01 0.23689381D+00 0.35932879D+06 0.35932879D+06 0.35932879D+06 0.11157491D+01  1  2  2  1  6  1       -2 0.124565116724D+00 0.100000000000D+01
0.115893350509D-02 0.237877616686D-02 -.173107368836D-03 0.198681389182D-06 0.000000000000D+00  6 -2 2 25 23 21 21 4 0.71753635D-01 0.23689381D+00 0.35932879D+06 0.35932879D+06 0.35932879D+06 0.11157491D+01  1  2  3  1  6  1       -2 0.398688285317D-02 0.100000000000D+01
0.145849428919D-02 0.000000000000D+00 0.000000000000D+00 0.198681389182D-06 0.000000000000D+00  6 -2 2 25 23 21 21 4 0.71753635D-01 0.23689381D+00 0.35932879D+06 0.35932879D+06 0.35932879D+06 0.11157491D+01  1  2 15  1  6  1       -2 0.501741113489D-02 0.100000000000D+01
0.862384958179D-02 0.000000000000D+00 -.202391883855D-01 0.198681389182D-06 0.000000000000D+00  6 -2 2 25 23 21 21 4 0.17319700D+00 0.23689381D+00 0.35932879D+06 0.35932879D+06 0.35932879D+06 0.11157491D+01  1  2  5  1  6  1       -2 0.345267501839D-02 0.100000000000D+01
0.210163226395D-02 0.000000000000D+00 -.195282415478D-02 0.198681389182D-06 0.000000000000D+00  6 21 2 25 23 2 21 4 0.17319700D+00 0.23689381D+00 0.35932879D+06 0.35932879D+06 0.35932879D+06 0.11157491D+01  3  4  5  4  5  1       -2 0.856022784718D-02 0.100000000000D+01
  </mgrwgt>
  </event>
  <event>
  5     66 0.42185105E-03 0.74058228E+02 0.75467711E-02 0.11508635E+00
       -2 -1    0    0    0  501 0.00000000E+00 0.00000000E+00 0.20182766E+03 0.20182792E+03 0.32000000E+00 0.0000E+00 0.9000E+01
        2 -1    0    0  502    0 -.00000000E+00 -.00000000E+00 -.29788806E+03 0.29788824E+03 0.32000000E+00 0.0000E+00 0.9000E+01
       25  1    1    2    0    0 0.14519316E+03 -.49446801E+02 -.25336087E+02 0.19948172E+03 0.12500000E+03 0.0000E+00 0.9000E+01
       23  1    1    2    0    0 -.71141758E+02 0.48519053E+02 -.14746258E+03 0.19358644E+03 0.91188000E+02 0.0000E+00 0.9000E+01
       21  1    1    2  502  501 -.74051399E+02 0.92774822E+00 0.76738264E+02 0.10664799E+03 0.75000000E+00 0.0000E+00 0.9000E+01
#aMCatNLO 1  0  0  5  1 0.18723640D+01 0.00000000D+00  -5  6  0 0.00000000D+00 0.00000000D+00 0.00000000D+00 0.00000000D+00 0.00000000D+00
  <mgrwgt>
 0.1170712429D-02    1    2    0
 0.245198202539609D+03 0.000000000000000D+00 0.000000000000000D+00 0.245198202539609D+03
 0.245198202539609D+03 -.000000000000000D+00 -.000000000000000D+00 -.245198202539609D+03
 0.198310215931038D+03 0.145193706951297D+03 -.494468077432569D+02 0.132567872562322D+02
 0.168380243185682D+03 -.711412902999538D+02 0.485190467763587D+02 -.112345333083492D+03
 0.123705945962499D+03 -.740524166513435D+02 0.927760966898195D+00 0.990885458272594D+02
 0.000000000000000D+00 0.000000000000000D+00 0.000000000000000D+00 0.000000000000000D+00
 0.245198202539609D+03 0.000000000000000D+00 0.000000000000000D+00 0.245198202539609D+03
 0.245198202539609D+03 -.000000000000000D+00 -.000000000000000D+00 -.245198202539609D+03
 0.197930342040910D+03 0.144602263465601D+03 -.494393978813649D+02 0.140481898543755D+02
 0.168147756731840D+03 -.716436045868213D+02 0.485253399887823D+02 -.111673193071258D+03
 0.677865348895312D+02 -.483036288755046D+02 0.670307441313819D+01 0.470833573908985D+02
 0.565317714169376D+02 -.246550300032751D+02 -.578901652055564D+01 0.505416458259841D+02
0.531108268042D-05 0.000000000000D+00 0.000000000000D+00 0.186986149418D-05 0.000000000000D+00  6 -2 2 25 23 21 21 4 0.31050443D-01 0.45828966D-01 0.39470935D+05 0.39470935D+05 0.39470935D+05 0.12025879D+01  1  2 14  3  6  5       21 0.117071242930D-02 0.100000000000D+01
  </mgrwgt>
  </event>
  <event>
  5     66 0.42185105E-03 0.26475415E+02 0.75467711E-02 0.11824884E+00
       -2 -1    0    0    0  501 0.00000000E+00 0.00000000E+00 0.12356778E+02 0.12360921E+02 0.32000000E+00 0.0000E+00 0.9000E+01
        2 -1    0    0  502    0 -.00000000E+00 -.00000000E+00 -.25928633E+04 0.25928633E+04 0.32000000E+00 0.0000E+00 0.9000E+01
       25  1    1    2    0    0 -.83943906E+02 0.87410041E+02 -.14878180E+04 0.14979701E+04 0.12500000E+03 0.0000E+00 0.9000E+01
       23  1    1    2    0    0 0.76565770E+02 -.61986532E+02 -.10362782E+04 0.10449365E+04 0.91188000E+02 0.0000E+00 0.9000E+01
       21  1    1    2  502  501 0.73781367E+01 -.25423509E+02 -.56410360E+02 0.62317597E+02 0.75000000E+00 0.0000E+00 0.9000E+01
#aMCatNLO 1  0  0  5  2 0.48951869D+01 0.00000000D+00  -5  6  0 0.00000000D+00 0.00000000D+00 0.00000000D+00 0.00000000D+00 0.00000000D+00
  <mgrwgt>
 0.2480086377D+00   14    2    0
 0.179010777756638D+03 0.000000000000000D+00 0.000000000000000D+00 0.179010777756638D+03
 0.179010777756638D+03 -.000000000000000D+00 -.000000000000000D+00 -.179010777756638D+03
 0.176594225465614D+03 -.839443720627625D+02 0.874116457962780D+02 -.295477079648237D+02
 0.134548221191018D+03 0.765654146065649D+02 -.619853091954705D+02 -.913954111177875D+01
 0.468791088566433D+02 0.737895745619763D+01 -.254263366008075D+02 0.386872490766024D+02
 0.000000000000000D+00 0.000000000000000D+00 0.000000000000000D+00 -.000000000000000D+00
 0.179010777756638D+03 0.000000000000000D+00 0.000000000000000D+00 0.179010777756638D+03
 0.179010777756638D+03 -.000000000000000D+00 -.000000000000000D+00 -.179010777756638D+03
 0.174095808311001D+03 -.831069955819602D+02 0.845262224300549D+02 -.251574139868474D+02
 0.135767247714608D+03 0.772108729722361D+02 -.642094230712834D+02 -.575545755938968D+01
 0.418016329089712D+02 0.290544580220782D+01 -.201315786266510D+02 0.365192338439046D+02
 0.635686657869511D+01 0.299067680751633D+01 -.185220732120439D+00 -.560636229766750D+01
0.238298974607D-03 0.000000000000D+00 0.000000000000D+00 0.154183172998D-04 0.000000000000D+00  6 -2 2 25 23 21 21 2 0.19013630D-02 0.39890237D+00 0.28025704D+05 0.28025704D+05 0.28025704D+05 0.12180136D+01  1  2  2  3  6  5       21 0.105767847590D+00 0.100000000000D+01
0.385879689625D-04 0.125753823791D-04 -.915130808051D-06 0.154183172998D-04 0.000000000000D+00  6 -2 2 25 23 21 21 4 0.19013630D-02 0.39890237D+00 0.28025704D+05 0.28025704D+05 0.28025704D+05 0.12180136D+01  1  2  3  3  6  5       21 0.254090076517D-01 0.100000000000D+01
0.704911121316D-05 0.000000000000D+00 0.000000000000D+00 0.154183172998D-04 0.000000000000D+00  6 -2 2 25 23 21 21 4 0.19013630D-02 0.39890237D+00 0.28025704D+05 0.28025704D+05 0.28025704D+05 0.12180136D+01  1  2 15  3  6  5       21 0.464162601891D-02 0.100000000000D+01
0.567782810952D-04 0.000000000000D+00 0.000000000000D+00 0.154432765983D-04 0.000000000000D+00  6 -2 2 25 23 21 21 4 0.19013630D-02 0.39890237D+00 0.27431694D+05 0.27431694D+05 0.27431694D+05 0.12189991D+01  1  2 12  3  6  5       21 0.375129463066D-01 0.100000000000D+01
-.207287873719D-03 0.000000000000D+00 0.000000000000D+00 0.154183172998D-04 0.000000000000D+00  6 -2 2 25 23 21 21 4 0.19013630D-02 0.39890237D+00 0.28025704D+05 0.28025704D+05 0.28025704D+05 0.12180136D+01  1  2  4  3  6  5       21 -.136492780290D+00 0.100000000000D+01
0.314050167688D-03 0.000000000000D+00 0.000000000000D+00 0.154183172998D-04 0.116401856643D-04  6 -2 2 25 23 21 21 4 0.19013630D-02 0.39890237D+00 0.27431694D+05 0.27431694D+05 0.27431694D+05 0.12189991D+01  1  2 11  3  6  5       21 0.207490379258D+00 0.100000000000D+01
0.819048731003D-06 0.000000000000D+00 0.000000000000D+00 0.154432765983D-04 0.000000000000D+00  6 -2 2 25 23 1 -1 4 0.19013630D-02 0.39890237D+00 0.27431694D+05 0.27431694D+05 0.27431694D+05 0.12189991D+01  1  2 12  6  6  5       21 0.541138803007D-03 0.100000000000D+01
0.819048731003D-06 0.000000000000D+00 0.000000000000D+00 0.154432765983D-04 0.000000000000D+00  6 -2 2 25 23 3 -3 4 0.19013630D-02 0.39890237D+00 0.27431694D+05 0.27431694D+05 0.27431694D+05 0.12189991D+01  1  2 12  6  6  5       21 0.541138803007D-03 0.100000000000D+01
0.576510478623D-06 0.000000000000D+00 0.000000000000D+00 0.154432765983D-04 0.541396176739D-08  6 -2 2 25 23 1 -1 4 0.19013630D-02 0.39890237D+00 0.27431694D+05 0.27431694D+05 0.27431694D+05 0.12189991D+01  1  2 11  6  6  5       21 0.380895761771D-03 0.100000000000D+01
0.576510478623D-06 0.000000000000D+00 0.000000000000D+00 0.154432765983D-04 0.541396176739D-08  6 -2 2 25 23 3 -3 4 0.19013630D-02 0.39890237D+00 0.27431694D+05 0.27431694D+05 0.27431694D+05 0.12189991D+01  1  2 11  6  6  5       21 0.380895761771D-03 0.100000000000D+01
0.819048731003D-06 0.000000000000D+00 0.000000000000D+00 0.154432765983D-04 0.000000000000D+00  6 -2 2 25 23 2 -2 4 0.19013630D-02 0.39890237D+00 0.27431694D+05 0.27431694D+05 0.27431694D+05 0.12189991D+01  1  2 12  7  6  5       21 0.541138803007D-03 0.100000000000D+01
0.563143874647D-06 0.000000000000D+00 0.000000000000D+00 0.154432765983D-04 0.584279009326D-08  6 -2 2 25 23 2 -2 4 0.19013630D-02 0.39890237D+00 0.27431694D+05 0.27431694D+05 0.27431694D+05 0.12189991D+01  1  2 11  7  6  5       21 0.372064555761D-03 0.100000000000D+01
0.819048731003D-06 0.000000000000D+00 0.000000000000D+00 0.154432765983D-04 0.000000000000D+00  6 -2 2 25 23 4 -4 4 0.19013630D-02 0.39890237D+00 0.27431694D+05 0.27431694D+05 0.27431694D+05 0.12189991D+01  1  2 12  8  6  5       21 0.541138803007D-03 0.100000000000D+01
0.576970722087D-06 0.000000000000D+00 0.000000000000D+00 0.154432765983D-04 0.541828387533D-08  6 -2 2 25 23 4 -4 4 0.19013630D-02 0.39890237D+00 0.27431694D+05 0.27431694D+05 0.27431694D+05 0.12189991D+01  1  2 11  8  6  5       21 0.381199840866D-03 0.100000000000D+01
  </mgrwgt>
  </event>
  <event>
  5     66 0.42185105E-03 0.58691464E+02 0.75467711E-02 0.11631089E+00
       -2 -1    0    0    0  501 0.00000000E+00 0.00000000E+00 0.54055238E+02 0.54056185E+02 0.32000000E+00 0.0000E+00 0.9000E+01
        2 -1    0    0  502    0 -.00000000E+00 -.00000000E+00 -.73850256E+03 0.73850263E+03 0.32000000E+00 0.0000E+00 0.9000E+01
       25  1    1    2    0    0 0.83918084E+02 -.27627378E+02 -.30384435E+03 0.34022332E+03 0.12500000E+03 0.0000E+00 0.9000E+01
       23  1    1    2    0    0 -.10671570E+03 -.26537655E+02 -.36435406E+03 0.39135868E+03 0.91188000E+02 0.0000E+00 0.9000E+01
       21  1    1    2  502  501 0.22797611E+02 0.54165033E+02 -.16248910E+02 0.60976811E+02 0.75000000E+00 0.0000E+00 0.9000E+01
#aMCatNLO 1  0  0  5  2 0.30325632D+02 0.00000000D+00  -5  6  0 0.00000000D+00 0.00000000D+00 0.00000000D+00 0.00000000D+00 0.00000000D+00
  <mgrwgt>
 0.4533375389D-01   15    2    0
 0.199800736278824D+03 0.000000000000000D+00 0.000000000000000D+00 0.199800736278824D+03
 0.199800736278824D+03 -.000000000000000D+00 -.000000000000000D+00 -.199800736278824D+03
 0.154357716109202D+03 0.839177985587218D+02 -.276280568513315D+02 -.198946747177820D+02
 0.152136229898756D+03 -.106715977297412D+03 -.265383241812170D+02 -.523220665008354D+02
 0.931075265496902D+02 0.227981787386906D+02 0.541663810325485D+02 0.722167412186174D+02
 0.000000000000000D+00 0.000000000000000D+00 0.000000000000000D+00 0.000000000000000D+00
 0.199800736278824D+03 0.000000000000000D+00 0.000000000000000D+00 0.199800736278824D+03
 0.199800736278824D+03 -.000000000000000D+00 -.000000000000000D+00 -.199800736278824D+03
 0.153990063592605D+03 0.859682905431065D+02 -.227562760216692D+02 -.133994256584414D+02
 0.147895329134144D+03 -.104720787620826D+03 -.217979365610962D+02 -.460019960159253D+02
 0.502103507593433D+02 0.391668126654032D+02 0.200039135569156D+02 0.242256795862767D+02
 0.475057290715553D+02 -.204143155876838D+02 0.245502990258497D+02 0.351757420880900D+02
0.596603546148D-04 0.000000000000D+00 0.000000000000D+00 0.357135288713D-05 0.000000000000D+00  6 -2 2 25 23 21 21 2 0.83162686D-02 0.11361586D+00 0.31452118D+05 0.31452118D+05 0.31452118D+05 0.12127497D+01  1  2  2  3  6  5       21 0.302001415333D-01 0.100000000000D+01
0.551468339170D-06 0.314836340942D-05 -.229111470653D-06 0.357135288713D-05 0.000000000000D+00  6 -2 2 25 23 21 21 4 0.83162686D-02 0.11361586D+00 0.31452118D+05 0.31452118D+05 0.31452118D+05 0.12127497D+01  1  2  3  3  6  5       21 0.410568952134D-03 0.100000000000D+01
0.163912014634D-05 0.000000000000D+00 0.000000000000D+00 0.357135288713D-05 0.000000000000D+00  6 -2 2 25 23 21 21 4 0.83162686D-02 0.11361586D+00 0.31452118D+05 0.31452118D+05 0.31452118D+05 0.12127497D+01  1  2 15  3  6  5       21 0.122032724837D-02 0.100000000000D+01
0.200419962629D-04 0.000000000000D+00 0.000000000000D+00 0.354911972470D-05 0.000000000000D+00  6 -2 2 25 23 21 21 4 0.83162686D-02 0.11361586D+00 0.34201606D+05 0.34201606D+05 0.34201606D+05 0.12089689D+01  1  2 12  3  6  5       21 0.147549397580D-01 0.100000000000D+01
-.247105539382D-04 0.000000000000D+00 0.000000000000D+00 0.357135288713D-05 0.000000000000D+00  6 -2 2 25 23 21 21 4 0.83162686D-02 0.11361586D+00 0.31452118D+05 0.31452118D+05 0.31452118D+05 0.12127497D+01  1  2  4  3  6  5       21 -.183970420720D-01 0.100000000000D+01
-.268473455766D-04 0.000000000000D+00 0.000000000000D+00 0.357135288713D-05 0.000000000000D+00  6 -2 2 25 23 21 21 4 0.83162686D-02 0.11361586D+00 0.31452118D+05 0.31452118D+05 0.31452118D+05 0.12127497D+01  1  2  5  3  6  5       21 -.199878864444D-01 0.100000000000D+01
0.545673564652D-04 0.000000000000D+00 -.000000000000D+00 0.357135288713D-05 0.000000000000D+00  6 -2 2 25 23 21 21 4 0.83162686D-02 0.11361586D+00 0.31452118D+05 0.31452118D+05 0.31452118D+05 0.12127497D+01  1  2  6  3  6  5       21 0.406254734377D-01 0.100000000000D+01
0.702118600744D-06 0.000000000000D+00 0.000000000000D+00 0.354911972470D-05 0.000000000000D+00  6 -2 2 25 23 1 -1 4 0.83162686D-02 0.11361586D+00 0.34201606D+05 0.34201606D+05 0.34201606D+05 0.12089689D+01  1  2 12  6  6  5       21 0.516900488406D-03 0.100000000000D+01
0.702118600744D-06 0.000000000000D+00 0.000000000000D+00 0.354911972470D-05 0.000000000000D+00  6 -2 2 25 23 3 -3 4 0.83162686D-02 0.11361586D+00 0.34201606D+05 0.34201606D+05 0.34201606D+05 0.12089689D+01  1  2 12  6  6  5       21 0.516900488406D-03 0.100000000000D+01
-.186714573459D-05 0.000000000000D+00 0.000000000000D+00 0.357135288713D-05 0.000000000000D+00  6 -2 2 25 23 1 -1 4 0.83162686D-02 0.11361586D+00 0.31452118D+05 0.31452118D+05 0.31452118D+05 0.12127497D+01  1  2  5  6  6  5       21 -.139009261871D-02 0.100000000000D+01
-.186714573459D-05 0.000000000000D+00 0.000000000000D+00 0.357135288713D-05 0.000000000000D+00  6 -2 2 25 23 3 -3 4 0.83162686D-02 0.11361586D+00 0.31452118D+05 0.31452118D+05 0.31452118D+05 0.12127497D+01  1  2  5  6  6  5       21 -.139009261871D-02 0.100000000000D+01
0.702118600744D-06 0.000000000000D+00 0.000000000000D+00 0.354911972470D-05 0.000000000000D+00  6 -2 2 25 23 2 -2 4 0.83162686D-02 0.11361586D+00 0.34201606D+05 0.34201606D+05 0.34201606D+05 0.12089689D+01  1  2 12  7  6  5       21 0.516900488406D-03 0.100000000000D+01
-.186714573459D-05 0.000000000000D+00 0.000000000000D+00 0.357135288713D-05 0.000000000000D+00  6 -2 2 25 23 2 -2 4 0.83162686D-02 0.11361586D+00 0.31452118D+05 0.31452118D+05 0.31452118D+05 0.12127497D+01  1  2  5  7  6  5       21 -.139009261871D-02 0.100000000000D+01
0.702118600744D-06 0.000000000000D+00 0.000000000000D+00 0.354911972470D-05 0.000000000000D+00  6 -2 2 25 23 4 -4 4 0.83162686D-02 0.11361586D+00 0.34201606D+05 0.34201606D+05 0.34201606D+05 0.12089689D+01  1  2 12  8  6  5       21 0.516900488406D-03 0.100000000000D+01
-.186714573459D-05 0.000000000000D+00 0.000000000000D+00 0.357135288713D-05 0.000000000000D+00  6 -2 2 25 23 4 -4 4 0.83162686D-02 0.11361586D+00 0.31452118D+05 0.31452118D+05 0.31452118D+05 0.12127497D+01  1  2  5  8  6  5       21 -.139009261871D-02 0.100000000000D+01
  </mgrwgt>
  </event>
  <event>
  5     66 -.42185105E-03 0.49813434E+02 0.75467711E-02 0.12049041E+00
       -2 -1    0    0    0  501 0.00000000E+00 0.00000000E+00 0.26703042E+02 0.26704959E+02 0.32000000E+00 0.0000E+00 0.9000E+01
        2 -1    0    0  502    0 0.00000000E+00 0.00000000E+00 -.11192189E+04 0.11192189E+04 0.32000000E+00 0.0000E+00 0.9000E+01
       25  1    1    2    0    0 0.18848327E+01 -.54546833E+02 -.22417716E+03 0.26241057E+03 0.12500000E+03 0.0000E+00 0.9000E+01
       23  1    1    2    0    0 -.39684832E+02 0.22111398E+02 -.71663551E+03 0.72384080E+03 0.91188000E+02 0.0000E+00 0.9000E+01
       21  1    1    2  502  501 0.37799999E+02 0.32435435E+02 -.15170320E+03 0.15967254E+03 0.75000000E+00 0.0000E+00 0.9000E+01
#aMCatNLO 1  0  0  1  5 0.46151974D+01 0.00000000D+00  -5  6  0 0.00000000D+00 0.00000000D+00 0.00000000D+00 0.00000000D+00 0.00000000D+00
  <mgrwgt>
 -.4770958633D-01   11    4    0
 0.172880519347504D+03 0.000000000000000D+00 0.000000000000000D+00 0.172880519347504D+03
 0.172880519347504D+03 0.000000000000000D+00 0.000000000000000D+00 -.172880519347504D+03
 0.161341548726201D+03 0.188283562398414D+01 -.545485461412391D+02 0.861800811629875D+02
 0.134575382955475D+03 -.396864978047687D+02 0.221099686146751D+02 -.879284569036836D+02
 0.498441070133315D+02 0.378036621807846D+02 0.324385775265640D+02 0.174837574069611D+01
 0.000000000000000D+00 0.000000000000000D+00 0.000000000000000D+00 0.000000000000000D+00
 0.289399071219191D+03 0.000000000000000D+00 0.000000000000000D+00 0.289399071219191D+03
 0.172941626523064D+03 0.000000000000000D+00 0.000000000000000D+00 -.172941626523064D+03
 0.161722117075040D+03 0.574583507002659D-01 -.556959016491508D+02 0.861800811629875D+02
 0.134878811495762D+03 -.412089703537087D+02 0.211530062977683D+02 -.879284569036836D+02
 0.491909104393843D+02 0.372440936212280D+02 0.320868562258454D+02 0.174837574069611D+01
 0.116548858732069D+03 0.390741838178038D+01 0.245603912553701D+01 0.116457444696126D+03
 0.172880519347504D+03 0.000000000000000D+00 0.000000000000000D+00 0.172880519347504D+03
 0.172880519347504D+03 0.000000000000000D+00 0.000000000000000D+00 -.172880519347504D+03
 0.161341548726201D+03 0.188283562398414D+01 -.545485461412391D+02 0.861800811629875D+02
 0.134575382955475D+03 -.396864978047687D+02 0.221099686146751D+02 -.879284569036836D+02
 0.000000000000000D+00 0.000000000000000D+00 0.000000000000000D+00 0.000000000000000D+00
 0.498441070133315D+02 0.378036621807846D+02 0.324385775265640D+02 0.174837574069611D+01
 0.289399071219191D+03 0.000000000000000D+00 0.000000000000000D+00 0.289399071219191D+03
 0.172941626523064D+03 0.000000000000000D+00 0.000000000000000D+00 -.172941626523064D+03
 0.161722117075040D+03 0.574583507002659D-01 -.556959016491508D+02 0.861800811629875D+02
 0.134878811495762D+03 -.412089703537087D+02 0.211530062977683D+02 -.879284569036836D+02
 0.116548858732069D+03 0.390741838178038D+01 0.245603912553701D+01 0.116457444696126D+03
 0.491909104393843D+02 0.372440936212280D+02 0.320868562258454D+02 0.174837574069611D+01
0.217999418088D-05 0.000000000000D+00 0.000000000000D+00 0.331649917022D-05 0.000000000000D+00  6 -2 2 25 23 21 21 2 0.41083113D-02 0.17218767D+00 0.20748704D+05 0.20748704D+05 0.20748704D+05 0.12320727D+01  1  2  2  1  6  1       -2 0.190257718453D-02 0.100000000000D+01
0.226471532701D-07 0.115041453511D-06 -.837175166024D-08 0.331649917022D-05 0.000000000000D+00  6 -2 2 25 23 21 21 4 0.41083113D-02 0.17218767D+00 0.20748704D+05 0.20748704D+05 0.20748704D+05 0.12320727D+01  1  2  3  1  6  1       -2 0.300035932120D-04 0.100000000000D+01
0.995785575088D-07 0.000000000000D+00 0.000000000000D+00 0.331649917022D-05 0.000000000000D+00  6 -2 2 25 23 21 21 4 0.41083113D-02 0.17218767D+00 0.20748704D+05 0.20748704D+05 0.20748704D+05 0.12320727D+01  1  2 15  1  6  1       -2 0.131924507089D-03 0.100000000000D+01
0.237244611371D-03 0.000000000000D+00 0.000000000000D+00 0.330803089238D-05 0.000000000000D+00  6 -2 2 25 23 21 21 4 0.68831607D-02 0.17218767D+00 0.21447637D+05 0.21447637D+05 0.21447637D+05 0.12304988D+01  1  2 12  1  6  1       -2 0.143553945071D+00 0.100000000000D+01
-.874694308114D-03 0.000000000000D+00 0.000000000000D+00 0.331649917022D-05 0.000000000000D+00  6 -2 2 25 23 21 21 4 0.41083113D-02 0.17218767D+00 0.20748704D+05 0.20748704D+05 0.20748704D+05 0.12320727D+01  1  2  4  1  6  1       -2 -.115881991403D+01 0.100000000000D+01
-.935078126095D-03 0.000000000000D+00 -.122677188315D-05 0.331649917022D-05 0.000000000000D+00  6 -2 2 25 23 21 21 4 0.68782068D-02 0.17218767D+00 0.20748704D+05 0.20748704D+05 0.20748704D+05 0.12320727D+01  1  2  5  1  6  1       -2 -.569171410725D+00 0.100000000000D+01
0.823994932782D-03 0.000000000000D+00 0.108013707736D-05 0.331649917022D-05 0.000000000000D+00  6 -2 2 25 23 21 21 4 0.41083113D-02 0.17218767D+00 0.20748704D+05 0.20748704D+05 0.20748704D+05 0.12320727D+01  1  2  6  1  6  1       -2 0.109165193864D+01 0.100000000000D+01
0.726112810078D-03 0.000000000000D+00 0.000000000000D+00 0.331649917022D-05 0.741784999059D-06  6 -2 2 25 23 21 21 4 0.68772438D-02 0.17224854D+00 0.21447637D+05 0.21447637D+05 0.21447637D+05 0.12304988D+01  1  2 11  1  6  1       -2 0.439713099354D+00 0.100000000000D+01
0.137186490572D-04 0.000000000000D+00 0.000000000000D+00 0.330803089238D-05 0.000000000000D+00  6 21 2 25 23 2 21 4 0.68831607D-02 0.17218767D+00 0.21447637D+05 0.21447637D+05 0.21447637D+05 0.12304988D+01  3  4 12  4  5  1       -2 0.139844578685D+00 0.100000000000D+01
-.539528724799D-04 0.000000000000D+00 -.708583155746D-07 0.331649917022D-05 0.000000000000D+00  6 21 2 25 23 2 21 4 0.68782068D-02 0.17218767D+00 0.20748704D+05 0.20748704D+05 0.20748704D+05 0.12320727D+01  3  4  5  4  5  1       -2 -.553616338811D+00 0.100000000000D+01
0.408752068250D-04 0.000000000000D+00 0.000000000000D+00 0.331649917022D-05 0.835134847172D-07  6 21 2 25 23 2 21 4 0.68772438D-02 0.17224854D+00 0.21447637D+05 0.21447637D+05 0.21447637D+05 0.12304988D+01  3  4 11  4  5  1       -2 0.417070010201D+00 0.100000000000D+01
  </mgrwgt>
  </event>
</LesHouchesEvents>
