<event>
 5    0  0.1911311E+001  0.2926283E+03  0.7546771E-02  0.1088985E+00
         21   -1    0    0  504  501  0.00000000000E+00  0.00000000000E+00  0.22633236220E+03  0.22633236220E+03  0.00000000000E+00 0.  1.
         21   -1    0    0  503  502 -0.00000000000E+00 -0.00000000000E+00 -0.10017672999E+04  0.10017672999E+04  0.00000000000E+00 0.  1.
         25    1    1    2    0    0  0.21100497911E+03  0.26712423139E+03 -0.96049284440E+02  0.37513853607E+03  0.12500000000E+03 0.  0.
         21    1    1    2  503  501 -0.73449278762E+02 -0.98714304665E+02 -0.61354962087E+03  0.62576548943E+03  0.00000000000E+00 0.  1.
         21    1    1    2  504  502 -0.13755570035E+03 -0.16840992672E+03 -0.65836032371E+02  0.22719563657E+03  0.00000000000E+00 0.  1.
<mgrwt>
<rscale>  4 0.29262833E+03</rscale>
<asrwt>0</asrwt>
<pdfrwt beam="1">  1       21 0.34820363E-01 0.29262833E+03</pdfrwt>
<pdfrwt beam="2">  1       21 0.15411805E+00 0.29262833E+03</pdfrwt>
<totfact> 0.20452627E+03</totfact>
</mgrwt>
</event>
<event>
 5    0  0.1911311E+001  0.2171257E+03  0.7546771E-02  0.1136044E+00
         21   -1    0    0  504  501  0.00000000000E+00  0.00000000000E+00  0.93636579551E+03  0.93636579551E+03  0.00000000000E+00 0. -1.
         21   -1    0    0  503  502 -0.00000000000E+00 -0.00000000000E+00 -0.17589043946E+04  0.17589043946E+04  0.00000000000E+00 0.  1.
         25    1    1    2    0    0 -0.20487377852E+03  0.11945844948E+03 -0.14739799031E+04  0.14981606526E+04  0.12500000000E+03 0.  0.
         21    1    1    2  503  501  0.12888499701E+03  0.40872612382E+02 -0.24685466873E+03  0.28145894971E+03  0.00000000000E+00 0.  1.
         21    1    1    2  504  502  0.75988781504E+02 -0.16033106186E+03  0.89829597273E+03  0.91565058780E+03  0.00000000000E+00 0. -1.
<mgrwt>
<rscale>  4 0.21712574E+03</rscale>
<asrwt>0</asrwt>
<pdfrwt beam="1">  1       21 0.14405628E+00 0.21712574E+03</pdfrwt>
<pdfrwt beam="2">  1       21 0.27060067E+00 0.21712574E+03</pdfrwt>
<totfact> 0.16046763E+01</totfact>
</mgrwt>
</event>
<event>
 5    0  0.1911311E+001  0.2707013E+03  0.7546771E-02  0.1100879E+00
         21   -1    0    0  504  501  0.00000000000E+00  0.00000000000E+00  0.95616180521E+03  0.95616180521E+03  0.00000000000E+00 0.  1.
         21   -1    0    0  503  502 -0.00000000000E+00 -0.00000000000E+00 -0.94129426876E+03  0.94129426876E+03  0.00000000000E+00 0.  1.
         25    1    1    2    0    0  0.22786433170E+02 -0.30994597383E+03 -0.53003659363E+03  0.62701636248E+03  0.12500000000E+03 0.  0.
         21    1    1    2  503  501  0.21669869009E+00  0.19985569526E+03 -0.33137224616E+03  0.38697533696E+03  0.00000000000E+00 0.  1.
         21    1    1    2  504  502 -0.23003131860E+02  0.11009027857E+03  0.87627637624E+03  0.88346437453E+03  0.00000000000E+00 0.  1.
<mgrwt>
<rscale>  4 0.27070128E+03</rscale>
<asrwt>0</asrwt>
<pdfrwt beam="1">  1       21 0.14710182E+00 0.27070128E+03</pdfrwt>
<pdfrwt beam="2">  1       21 0.14481450E+00 0.27070128E+03</pdfrwt>
<totfact> 0.93992209E+01</totfact>
</mgrwt>
</event>
<event>
 5    0  0.1911311E+001  0.1858460E+03  0.7546771E-02  0.1162262E+00
         21   -1    0    0  503  501  0.00000000000E+00  0.00000000000E+00  0.60243474991E+03  0.60243474991E+03  0.00000000000E+00 0. -1.
         21   -1    0    0  504  502 -0.00000000000E+00 -0.00000000000E+00 -0.23301081230E+03  0.23301081230E+03  0.00000000000E+00 0. -1.
         25    1    1    2    0    0 -0.20446742938E+03 -0.10405301413E+03  0.96342408118E+02  0.27846152163E+03  0.12500000000E+03 0.  0.
         21    1    1    2  503  502  0.92482137655E+02  0.43721640220E+02 -0.11185271100E+03  0.15157689985E+03  0.00000000000E+00 0. -1.
         21    1    1    2  504  501  0.11198529172E+03  0.60331373912E+02  0.38493424050E+03  0.40540714072E+03  0.00000000000E+00 0. -1.
<mgrwt>
<rscale>  4 0.18584602E+03</rscale>
<asrwt>0</asrwt>
<pdfrwt beam="1">  1       21 0.92682269E-01 0.18584602E+03</pdfrwt>
<pdfrwt beam="2">  1       21 0.35847818E-01 0.18584602E+03</pdfrwt>
<totfact> 0.74009606E+03</totfact>
</mgrwt>
</event>
