<event>
 5    0  0.1911311E+001  0.2966048E+03  0.7546771E-02  0.1086950E+00
         21   -1    0    0  504  501  0.00000000000E+00  0.00000000000E+00  0.15057471743E+04  0.15057471743E+04  0.00000000000E+00 0. -1.
         21   -1    0    0  503  502 -0.00000000000E+00 -0.00000000000E+00 -0.15098582095E+03  0.15098582095E+03  0.00000000000E+00 0. -1.
         25    1    1    2    0    0 -0.27015568480E+03 -0.72306672390E+02  0.12392029090E+04  0.12765035051E+04  0.12500000000E+03 0.  0.
         21    1    1    2  503  501  0.17907033657E+03  0.10945680730E+03 -0.22101809040E+02  0.21103428173E+03  0.00000000000E+00 0. -1.
         21    1    1    2  504  502  0.91085348230E+02 -0.37150134905E+02  0.13766025342E+03  0.16919520844E+03  0.00000000000E+00 0. -1.
<mgrwt>
<rscale>  4 0.29660483E+03</rscale>
<asrwt>0</asrwt>
<pdfrwt beam="1">  1       21 0.23165340E+00 0.29660483E+03</pdfrwt>
<pdfrwt beam="2">  1       21 0.23228589E-01 0.29660483E+03</pdfrwt>
<totfact> 0.13520184E+03</totfact>
</mgrwt>
</event>
<event>
 5    0  0.1911311E+001  0.3843572E+03  0.7546771E-02  0.1049335E+00
         21   -1    0    0  504  501  0.00000000000E+00  0.00000000000E+00  0.26432005417E+04  0.26432005417E+04  0.00000000000E+00 0.  1.
         21   -1    0    0  501  502 -0.00000000000E+00 -0.00000000000E+00 -0.10648268453E+03  0.10648268453E+03  0.00000000000E+00 0.  1.
         25    1    1    2    0    0 -0.45654583543E+03 -0.35933748969E+02  0.90527207401E+03  0.10221877822E+04  0.12500000000E+03 0.  0.
         21    1    1    2  503  502  0.32352762764E+03  0.87230495639E+02  0.14879683404E+04  0.15252308243E+04  0.00000000000E+00 0.  1.
         21    1    1    2  504  503  0.13301820779E+03 -0.51296746669E+02  0.14347744275E+03  0.20226461974E+03  0.00000000000E+00 0.  1.
<mgrwt>
<rscale>  4 0.38435716E+03</rscale>
<asrwt>0</asrwt>
<pdfrwt beam="1">  1       21 0.40664619E+00 0.38435716E+03</pdfrwt>
<pdfrwt beam="2">  1       21 0.16381953E-01 0.38435716E+03</pdfrwt>
<totfact> 0.21152281E+02</totfact>
</mgrwt>
</event>
<event>
 5    0  0.1911311E+001  0.2788491E+03  0.7546771E-02  0.1096319E+00
         21   -1    0    0  504  501  0.00000000000E+00  0.00000000000E+00  0.56925660160E+03  0.56925660160E+03  0.00000000000E+00 0.  1.
         21   -1    0    0  503  502 -0.00000000000E+00 -0.00000000000E+00 -0.20812687009E+03  0.20812687009E+03  0.00000000000E+00 0.  1.
         25    1    1    2    0    0 -0.16425735947E+03 -0.26848597908E+03  0.16299519396E+03  0.37584256592E+03  0.12500000000E+03 0.  0.
         21    1    1    2  503  501  0.13918168187E+03  0.16586654076E+03  0.54565468554E+02  0.22329496248E+03  0.00000000000E+00 0.  1.
         21    1    1    2  504  502  0.25075677596E+02  0.10261943833E+03  0.14356906899E+03  0.17824594329E+03  0.00000000000E+00 0.  1.
<mgrwt>
<rscale>  4 0.27884908E+03</rscale>
<asrwt>0</asrwt>
<pdfrwt beam="1">  1       21 0.87577938E-01 0.27884908E+03</pdfrwt>
<pdfrwt beam="2">  1       21 0.32019519E-01 0.27884908E+03</pdfrwt>
<totfact> 0.99715507E+03</totfact>
</mgrwt>
</event>
