<event>
 5    0  0.1911311E+001  0.2474998E+03  0.7546771E-02  0.1114895E+00
         21   -1    0    0  503  501  0.00000000000E+00  0.00000000000E+00  0.14314005410E+03  0.14314005410E+03  0.00000000000E+00 0. -1.
         21   -1    0    0  504  502 -0.00000000000E+00 -0.00000000000E+00 -0.56019479425E+03  0.56019479425E+03  0.00000000000E+00 0. -1.
         25    1    1    2    0    0  0.13277804150E+03  0.19018720396E+03 -0.12821943305E+03  0.29302969792E+03  0.12500000000E+03 0.  0.
         21    1    1    2  503  502 -0.11591798757E+03 -0.17115309979E+03 -0.31308376615E+03  0.37516903928E+03  0.00000000000E+00 0. -1.
         21    1    1    2  504  501 -0.16860053927E+02 -0.19034104164E+02  0.24248459054E+02  0.35136111143E+02  0.00000000000E+00 0. -1.
<mgrwt>
<rscale>  4 0.24749981E+03</rscale>
<asrwt>0</asrwt>
<pdfrwt beam="1">  1       21 0.22021547E-01 0.24749981E+03</pdfrwt>
<pdfrwt beam="2">  1       21 0.86183815E-01 0.24749981E+03</pdfrwt>
<totfact> 0.21702927E+04</totfact>
</mgrwt>
</event>
<event>
 5    0  0.1911311E+001  0.1837796E+03  0.7546771E-02  0.1164194E+00
         21   -1    0    0  502  501  0.00000000000E+00  0.00000000000E+00  0.50111027096E+03  0.50111027096E+03  0.00000000000E+00 0. -1.
         21   -1    0    0  504  502 -0.00000000000E+00 -0.00000000000E+00 -0.14035481604E+04  0.14035481604E+04  0.00000000000E+00 0. -1.
         25    1    1    2    0    0  0.14222301413E+03 -0.20564106722E+03 -0.11605061376E+04  0.11936980898E+04  0.12500000000E+03 0.  0.
         21    1    1    2  503  501 -0.91802717936E+02  0.97348616885E+02  0.45850293955E+03  0.47762897505E+03  0.00000000000E+00 0. -1.
         21    1    1    2  504  503 -0.50420296192E+02  0.10829245033E+03 -0.20043469140E+03  0.23333136648E+03  0.00000000000E+00 0. -1.
<mgrwt>
<rscale>  4 0.18377958E+03</rscale>
<asrwt>0</asrwt>
<pdfrwt beam="1">  1       21 0.77093888E-01 0.18377958E+03</pdfrwt>
<pdfrwt beam="2">  1       21 0.21593048E+00 0.18377958E+03</pdfrwt>
<totfact> 0.16137641E+02</totfact>
</mgrwt>
</event>
<event>
 5    0  0.1911311E+001  0.3979864E+03  0.7546771E-02  0.1044479E+00
         21   -1    0    0  502  501  0.00000000000E+00  0.00000000000E+00  0.33871417431E+03  0.33871417431E+03  0.00000000000E+00 0. -1.
         21   -1    0    0  504  502 -0.00000000000E+00 -0.00000000000E+00 -0.83220283727E+03  0.83220283727E+03  0.00000000000E+00 0. -1.
         25    1    1    2    0    0 -0.14756319448E+03 -0.32097738110E+03 -0.34320879252E+03  0.50815219256E+03  0.12500000000E+03 0.  0.
         21    1    1    2  503  501  0.13269433582E+03  0.36314685495E+03  0.10737085948E+03  0.40126291441E+03  0.00000000000E+00 0. -1.
         21    1    1    2  504  503  0.14868858668E+02 -0.42169473850E+02 -0.25765072992E+03  0.26150190460E+03  0.00000000000E+00 0. -1.
<mgrwt>
<rscale>  4 0.39798640E+03</rscale>
<asrwt>0</asrwt>
<pdfrwt beam="1">  1       21 0.52109874E-01 0.39798640E+03</pdfrwt>
<pdfrwt beam="2">  1       21 0.12803120E+00 0.39798640E+03</pdfrwt>
<totfact> 0.13691802E+03</totfact>
</mgrwt>
</event>
<event>
 5    0  0.1911311E+001  0.2293109E+03  0.7546771E-02  0.1127126E+00
         21   -1    0    0  502  501  0.00000000000E+00  0.00000000000E+00  0.74902847993E+03  0.74902847993E+03  0.00000000000E+00 0.  1.
         21   -1    0    0  504  502 -0.00000000000E+00 -0.00000000000E+00 -0.11486722285E+03  0.11486722285E+03  0.00000000000E+00 0. -1.
         25    1    1    2    0    0  0.17908204966E+03 -0.10115396219E+03  0.17179624449E+03  0.29570501213E+03  0.12500000000E+03 0.  0.
         21    1    1    2  503  501 -0.13659734044E+03  0.13173403320E+03  0.47739467904E+03  0.51372985946E+03  0.00000000000E+00 0.  1.
         21    1    1    2  504  503 -0.42484709219E+02 -0.30580071012E+02 -0.15029666449E+02  0.54460831192E+02  0.00000000000E+00 0.  1.
<mgrwt>
<rscale>  4 0.22931086E+03</rscale>
<asrwt>0</asrwt>
<pdfrwt beam="1">  1       21 0.11523515E+00 0.22931086E+03</pdfrwt>
<pdfrwt beam="2">  1       21 0.17671881E-01 0.22931086E+03</pdfrwt>
<totfact> 0.16560941E+04</totfact>
</mgrwt>
</event>
<event>
 5    0  0.3077223E+001  0.2262025E+03  0.7546771E-02  0.1129341E+00
         21   -1    0    0  502  501  0.00000000000E+00  0.00000000000E+00  0.13368643877E+03  0.13368643877E+03  0.00000000000E+00 0. -1.
         21   -1    0    0  504  502 -0.00000000000E+00 -0.00000000000E+00 -0.59012767211E+03  0.59012767211E+03  0.00000000000E+00 0.  1.
         25    1    1    2    0    0 -0.16850547306E+03 -0.12753723859E+03 -0.38269746299E+02  0.24849429603E+03  0.12500000000E+03 0.  0.
         21    1    1    2  503  501  0.22948865253E+02  0.14648143920E+02 -0.12850915323E+02  0.30105889147E+02  0.00000000000E+00 0. -1.
         21    1    1    2  504  503  0.14555660781E+03  0.11288909467E+03 -0.40532057173E+03  0.44521392570E+03  0.00000000000E+00 0.  1.
<mgrwt>
<rscale>  4 0.22620254E+03</rscale>
<asrwt>0</asrwt>
<pdfrwt beam="1">  1       21 0.20567144E-01 0.22620254E+03</pdfrwt>
<pdfrwt beam="2">  1       21 0.90788873E-01 0.22620254E+03</pdfrwt>
<totfact> 0.22121810E+04</totfact>
</mgrwt>
</event>
<event>
 5    0  0.1911311E+001  0.3421358E+03  0.7546771E-02  0.1065890E+00
         21   -1    0    0  503  501  0.00000000000E+00  0.00000000000E+00  0.10580352357E+04  0.10580352357E+04  0.00000000000E+00 0. -1.
         21   -1    0    0  501  502 -0.00000000000E+00 -0.00000000000E+00 -0.13132827736E+03  0.13132827736E+03  0.00000000000E+00 0. -1.
         25    1    1    2    0    0  0.29153115382E+03 -0.12822427976E+03  0.20949928570E+03  0.40118179206E+03  0.12500000000E+03 0.  0.
         21    1    1    2  503  504 -0.26558788199E+03  0.12448465263E+03  0.59717471920E+03  0.66532022144E+03  0.00000000000E+00 0. -1.
         21    1    1    2  504  502 -0.25943271832E+02  0.37396271270E+01  0.12003295341E+03  0.12286149954E+03  0.00000000000E+00 0. -1.
<mgrwt>
<rscale>  4 0.34213576E+03</rscale>
<asrwt>0</asrwt>
<pdfrwt beam="1">  1       21 0.16277465E+00 0.34213576E+03</pdfrwt>
<pdfrwt beam="2">  1       21 0.20204351E-01 0.34213576E+03</pdfrwt>
<totfact> 0.49397856E+03</totfact>
</mgrwt>
</event>
<event>
 5    0  0.1911311E+001  0.2204366E+03  0.7546771E-02  0.1133558E+00
         21   -1    0    0  504  501  0.00000000000E+00  0.00000000000E+00  0.18107877832E+04  0.18107877832E+04  0.00000000000E+00 0. -1.
         21   -1    0    0  503  502 -0.00000000000E+00 -0.00000000000E+00 -0.42131360178E+02  0.42131360178E+02  0.00000000000E+00 0. -1.
         25    1    1    2    0    0 -0.15554474219E+03  0.12608974190E+03  0.10469463752E+04  0.10732262121E+04  0.12500000000E+03 0.  0.
         21    1    1    2  503  501  0.13638737300E+03 -0.11246826731E+03  0.24348907407E+03  0.30089459260E+03  0.00000000000E+00 0. -1.
         21    1    1    2  504  502  0.19157369198E+02 -0.13621474586E+02  0.47822097376E+03  0.47879833867E+03  0.00000000000E+00 0. -1.
<mgrwt>
<rscale>  4 0.22043662E+03</rscale>
<asrwt>0</asrwt>
<pdfrwt beam="1">  1       21 0.27858268E+00 0.22043662E+03</pdfrwt>
<pdfrwt beam="2">  1       21 0.64817491E-02 0.22043662E+03</pdfrwt>
<totfact> 0.76166122E+03</totfact>
</mgrwt>
</event>
