<event>
 5    0  0.1911311E+001  0.1883871E+03  0.7546771E-02  0.1159924E+00
         21   -1    0    0  502  501  0.00000000000E+00  0.00000000000E+00  0.24801319134E+04  0.24801319134E+04  0.00000000000E+00 0. -1.
         21   -1    0    0  504  502 -0.00000000000E+00 -0.00000000000E+00 -0.12356114456E+03  0.12356114456E+03  0.00000000000E+00 0. -1.
         25    1    1    2    0    0  0.14318087346E+03 -0.16816070735E+03  0.25566709230E+03  0.36023526772E+03  0.12500000000E+03 0.  0.
         21    1    1    2  503  501 -0.38159117157E+02  0.96598151475E+02  0.21132253853E+04  0.21157761815E+04  0.00000000000E+00 0. -1.
         21    1    1    2  504  503 -0.10502175631E+03  0.71562555874E+02 -0.12321708791E+02  0.12768160873E+03  0.00000000000E+00 0. -1.
<mgrwt>
<rscale>  4 0.18838709E+03</rscale>
<asrwt>0</asrwt>
<pdfrwt beam="1">  1       21 0.38155872E+00 0.18838709E+03</pdfrwt>
<pdfrwt beam="2">  1       21 0.19009409E-01 0.18838709E+03</pdfrwt>
<totfact> 0.28919767E+02</totfact>
</mgrwt>
</event>
<event>
 5    0  0.2007285E+001  0.2246854E+03  0.7546771E-02  0.1130437E+00
         21   -1    0    0  503  501  0.00000000000E+00  0.00000000000E+00  0.59519966232E+03  0.59519966232E+03  0.00000000000E+00 0. -1.
         21   -1    0    0  504  502 -0.00000000000E+00 -0.00000000000E+00 -0.23432519248E+03  0.23432519248E+03  0.00000000000E+00 0. -1.
         25    1    1    2    0    0  0.19304861626E+03 -0.11044784959E+03 -0.92364331460E+02  0.27133496907E+03  0.12500000000E+03 0.  0.
         21    1    1    2  503  502 -0.49624426451E+02 -0.40811889604E+01 -0.17624446240E+02  0.52819133931E+02  0.00000000000E+00 0.  1.
         21    1    1    2  504  501 -0.14342418980E+03  0.11452903855E+03  0.47086324753E+03  0.50537075179E+03  0.00000000000E+00 0. -1.
<mgrwt>
<rscale>  4 0.22468544E+03</rscale>
<asrwt>0</asrwt>
<pdfrwt beam="1">  1       21 0.91569178E-01 0.22468544E+03</pdfrwt>
<pdfrwt beam="2">  1       21 0.36050030E-01 0.22468544E+03</pdfrwt>
<totfact> 0.73215757E+03</totfact>
</mgrwt>
</event>
<event>
 5    0  0.1911311E+001  0.2662386E+03  0.7546771E-02  0.1103452E+00
         21   -1    0    0  503  501  0.00000000000E+00  0.00000000000E+00  0.33484091191E+03  0.33484091191E+03  0.00000000000E+00 0.  1.
         21   -1    0    0  504  502 -0.00000000000E+00 -0.00000000000E+00 -0.28952421471E+03  0.28952421471E+03  0.00000000000E+00 0.  1.
         25    1    1    2    0    0 -0.22199079366E+02  0.23137538776E+03  0.16834592060E+03  0.31303788616E+03  0.12500000000E+03 0.  0.
         21    1    1    2  503  502 -0.39713175447E+02  0.42934618694E+01 -0.32114364491E+02  0.51253317215E+02  0.00000000000E+00 0.  1.
         21    1    1    2  504  501  0.61912254813E+02 -0.23566884963E+03 -0.90914858919E+02  0.26007392325E+03  0.00000000000E+00 0.  1.
<mgrwt>
<rscale>  4 0.26623856E+03</rscale>
<asrwt>0</asrwt>
<pdfrwt beam="1">  1       21 0.51513987E-01 0.26623856E+03</pdfrwt>
<pdfrwt beam="2">  1       21 0.44542187E-01 0.26623856E+03</pdfrwt>
<totfact> 0.16642180E+04</totfact>
</mgrwt>
</event>
<event>
 5    0  0.1911311E+001  0.2960011E+03  0.7546771E-02  0.1087257E+00
         21   -1    0    0  502  501  0.00000000000E+00  0.00000000000E+00  0.25637201913E+03  0.25637201913E+03  0.00000000000E+00 0. -1.
         21   -1    0    0  504  502 -0.00000000000E+00 -0.00000000000E+00 -0.41009544318E+03  0.41009544318E+03  0.00000000000E+00 0.  1.
         25    1    1    2    0    0  0.26063087278E+03  0.12242599125E+03 -0.20091473689E+02  0.31455562702E+03  0.12500000000E+03 0.  0.
         21    1    1    2  503  501 -0.65630465694E+02  0.35331322054E+02 -0.35742851280E+02  0.82663243119E+02  0.00000000000E+00 0.  1.
         21    1    1    2  504  503 -0.19500040708E+03 -0.15775731331E+03 -0.97889099080E+02  0.26924859216E+03  0.00000000000E+00 0.  1.
<mgrwt>
<rscale>  4 0.29600115E+03</rscale>
<asrwt>0</asrwt>
<pdfrwt beam="1">  1       21 0.39441849E-01 0.29600115E+03</pdfrwt>
<pdfrwt beam="2">  1       21 0.63091606E-01 0.29600115E+03</pdfrwt>
<totfact> 0.13632136E+04</totfact>
</mgrwt>
</event>
