<LesHouchesEvents version="3.0">
  <!--
  <scalesfunctionalform>
    muR  H_T/2 := sum_i mT(i)/2, i=final state
    muF1 H_T/2 := sum_i mT(i)/2, i=final state
    muF2 H_T/2 := sum_i mT(i)/2, i=final state
    QES  H_T/2 := sum_i mT(i)/2, i=final state
  </scalesfunctionalform>
HERWIG6   
  -->
  <header>
       33
  </header>
  <init>
   2212   2212 0.65000000D+04 0.65000000D+04 -1 -1   244800   244800 -4   1
 0.52633055D-04 0.20477897D-05 0.18444242D-05     66
  </init>
  <event>
  6     66 -.18444242E-05 0.22862466E+02 0.75467711E-02 0.94328452E-01
       -1 -1    0    0    0  501 0.00000000E+00 0.00000000E+00 0.78287537E+02 0.78288191E+02 0.32000000E+00 0.0000E+00 0.9000E+01
        1 -1    0    0  501    0 -.00000000E+00 -.00000000E+00 -.36670595E+04 0.36670595E+04 0.32000000E+00 0.0000E+00 0.9000E+01
       23  2    1    2    0    0 -.36345703E+03 0.35106570E+03 -.22741087E+04 0.23313772E+04 0.91657365E+02 0.0000E+00 0.0000E+00
       25  1    1    2    0    0 0.36345703E+03 -.35106570E+03 -.13146633E+04 0.14139706E+04 0.12500000E+03 0.0000E+00 0.9000E+01
        3  1    3    3  502    0 -.24408713E+02 0.18873505E+02 -.27324675E+03 0.27498369E+03 0.50000000E+00 0.0000E+00 0.9000E+01
       -3  1    3    3    0  502 -.33904831E+03 0.33219220E+03 -.20008619E+04 0.20563935E+04 0.50000000E+00 0.0000E+00 0.9000E+01
#aMCatNLO 1  0  0  4  2 0.73227418D+00 0.00000000D+00  -5  6  0 0.00000000D+00 0.00000000D+00 0.00000000D+00 0.00000000D+00 0.00000000D+00
  <mgrwgt>
 -.4514820496D-02    5    2    0
 0.535804358003000D+03 0.000000000000000D+00 0.000000000000000D+00 0.535804358003000D+03
 0.535804358003000D+03 -.000000000000000D+00 -.000000000000000D+00 -.535804358003000D+03
 0.539174957426162D+03 0.363457025285662D+03 -.351065703495727D+03 0.140486644614539D+03
 0.459824714994293D+02 -.243993489327693D+02 0.188641803382649D+02 -.341057496181835D+02
 0.486451287080408D+03 -.339057676352892D+03 0.332201523157462D+03 -.106380894996355D+03
 0.000000000000000D+00 0.000000000000000D+00 -.000000000000000D+00 0.000000000000000D+00
 0.535804358003000D+03 0.000000000000000D+00 0.000000000000000D+00 0.535804358003000D+03
 0.535804358003000D+03 -.000000000000000D+00 -.000000000000000D+00 -.535804358003000D+03
 0.538870110246063D+03 0.363259265362285D+03 -.350912806839815D+03 0.140210213040492D+03
 0.452817414145206D+02 -.241273672272970D+02 0.191749800857378D+02 -.331756898183328D+02
 0.486724585960393D+03 -.339236198746673D+03 0.332339546456362D+03 -.106630436083714D+03
 0.732278385023453D+00 0.104300611685440D+00 -.601719702284886D+00 -.404087138445148D+00
0.744806135467D-04 0.000000000000D+00 0.000000000000D+00 0.216688698281D-04 0.000000000000D+00  6 -1 1 25 3 -3 21 0 0.12044288D-01 0.56416306D+00 0.26320429D+06 0.26320429D+06 0.26320429D+06 0.10887815D+01  1  2  2  3  6  4        3 0.718650214819D-04 0.100000000000D+01
0.185460854105D-04 0.000000000000D+00 -.286025167215D-06 0.216688698281D-04 0.000000000000D+00  6 -1 1 25 3 -3 21 2 0.12044288D-01 0.56416306D+00 0.26320429D+06 0.26320429D+06 0.26320429D+06 0.10887815D+01  1  2  3  3  6  4        3 0.212132894529D-04 0.100000000000D+01
-.210389625087D-04 0.000000000000D+00 0.000000000000D+00 0.216688698281D-04 0.000000000000D+00  6 -1 1 25 3 -3 21 2 0.12044288D-01 0.56416306D+00 0.26320429D+06 0.26320429D+06 0.26320429D+06 0.10887815D+01  1  2 15  3  6  4        3 -.240646795055D-04 0.100000000000D+01
-.520554054339D-02 0.000000000000D+00 0.000000000000D+00 0.216688698281D-04 0.000000000000D+00  6 -1 1 25 3 -3 21 2 0.12044288D-01 0.56416306D+00 0.26320429D+06 0.26320429D+06 0.26320429D+06 0.10887815D+01  1  2  4  3  6  4        3 -.595417501114D-02 0.100000000000D+01
0.119821183365D-02 0.000000000000D+00 0.000000000000D+00 0.216688698281D-04 0.902643539782D-04  6 -1 1 25 3 -3 21 2 0.12044288D-01 0.56416306D+00 0.26349747D+06 0.26349747D+06 0.26349747D+06 0.10887453D+01  1  2 11  3  6  4        3 0.137034088326D-02 0.100000000000D+01
  </mgrwgt>
  </event>
  <event>
  6     66 0.18444242E-05 0.26103586E+02 0.75467711E-02 0.95047941E-01
       -1 -1    0    0    0  501 0.00000000E+00 0.00000000E+00 0.36121309E+03 0.36121323E+03 0.32000000E+00 0.0000E+00 0.9000E+01
        1 -1    0    0  501    0 -.00000000E+00 -.00000000E+00 -.66627100E+03 0.66627107E+03 0.32000000E+00 0.0000E+00 0.9000E+01
       25  1    1    2    0    0 0.39866519E+03 0.23584382E+03 -.22500396E+03 0.52991322E+03 0.12500000E+03 0.0000E+00 0.9000E+01
        3  1    1    2  502    0 -.37334864E+03 -.23922667E+03 -.47927698E+02 0.44599991E+03 0.50000000E+00 0.0000E+00 0.9000E+01
       -3  1    1    2    0  503 -.32723630E+02 0.33221664E+01 -.26359023E+02 0.42153539E+02 0.50000000E+00 0.0000E+00 0.9000E+01
       21  1    1    2  503  502 0.74070741E+01 0.60686796E-01 -.57672249E+01 0.94176331E+01 0.75000000E+00 0.0000E+00 0.9000E+01
#aMCatNLO 2  0  0  5  4 0.70253037D+01 0.00000000D+00  -5  6  0 0.00000000D+00 0.00000000D+00 0.00000000D+00 0.00000000D+00 0.00000000D+00
  <mgrwgt>
 0.7411405249D-03    3    2    0
 0.490577128366678D+03 0.000000000000000D+00 0.000000000000000D+00 0.490577128366678D+03
 0.490577128366678D+03 -.000000000000000D+00 -.000000000000000D+00 -.490577128366678D+03
 0.488475081514244D+03 0.403953776550916D+03 0.235137386059591D+03 -.671912296930348D+02
 0.449192893477601D+03 -.368481269613029D+03 -.239899674805017D+03 0.918909980552866D+02
 0.434862817415120D+02 -.354725069378872D+02 0.476228874542536D+01 -.246997683622518D+02
 0.000000000000000D+00 0.000000000000000D+00 0.000000000000000D+00 0.000000000000000D+00
 0.490577128366678D+03 0.000000000000000D+00 0.000000000000000D+00 0.490577128366678D+03
 0.490577128366678D+03 -.000000000000000D+00 -.000000000000000D+00 -.490577128366678D+03
 0.484894129242366D+03 0.398533411110013D+03 0.235865086117005D+03 -.709654701509613D+02
 0.452267483876378D+03 -.373501198969490D+03 -.239225734473735D+03 0.883955841981107D+02
 0.357314164799513D+02 -.326290961413431D+02 0.329593415887987D+01 -.141849577610600D+02
 0.826122713466106D+01 0.759688400081976D+01 0.647141978504115D-01 -.324515628608940D+01
-.255860818309D-06 0.000000000000D+00 0.000000000000D+00 0.326876950593D-08 0.000000000000D+00  6 -1 1 25 3 -3 21 2 0.55571262D-01 0.10250325D+00 0.23213618D+06 0.23213618D+06 0.23213618D+06 0.10928896D+01  1  2 13  4  6  5       -3 -.358000293983D-05 0.100000000000D+01
-.646137583801D-05 0.000000000000D+00 0.000000000000D+00 0.326876950593D-08 0.000000000000D+00  6 -1 1 25 3 -3 21 2 0.55571262D-01 0.10250325D+00 0.23007180D+06 0.23007180D+06 0.23007180D+06 0.10931836D+01  1  2  8  4  6  5       -3 -.904794717813D-04 0.100000000000D+01
0.596912792921D-04 0.000000000000D+00 0.000000000000D+00 0.326876950593D-08 0.361019283245D-08  6 -1 1 25 3 -3 21 2 0.55571262D-01 0.10250325D+00 0.23213618D+06 0.23213618D+06 0.23213618D+06 0.10928896D+01  1  2  1  4  6  5       -3 0.835199999592D-03 0.100000000000D+01
  </mgrwgt>
  </event>
  <event>
  6     66 0.18444242E-05 0.22318619E+02 0.75467711E-02 0.94333203E-01
       -1 -1    0    0    0  501 0.00000000E+00 0.00000000E+00 0.52804661E+03 0.52804671E+03 0.32000000E+00 0.0000E+00 0.9000E+01
        1 -1    0    0  501    0 0.00000000E+00 0.00000000E+00 -.50247613E+03 0.50247623E+03 0.32000000E+00 0.0000E+00 0.9000E+01
       23  2    1    2    0    0 -.33267810E+03 0.37723782E+03 0.41889714E+02 0.51199193E+03 0.86011063E+02 0.0000E+00 0.0000E+00
       25  1    1    2    0    0 0.33267810E+03 -.37723782E+03 -.16319231E+02 0.51853101E+03 0.12500000E+03 0.0000E+00 0.9000E+01
        3  1    3    3  502    0 -.54099941E+01 0.31128916E+02 -.92320110E+01 0.32920472E+02 0.50000000E+00 0.0000E+00 0.9000E+01
       -3  1    3    3    0  502 -.32726811E+03 0.34610890E+03 0.51121725E+02 0.47907146E+03 0.50000000E+00 0.0000E+00 0.9000E+01
#aMCatNLO 1  0  0  5  4 0.47775660D+00 0.00000000D+00  -5  6  0 0.00000000D+00 0.00000000D+00 0.00000000D+00 0.00000000D+00 0.00000000D+00
  <mgrwgt>
 0.9429307656D-04    7    2    0
 0.515102824275852D+03 0.000000000000000D+00 0.000000000000000D+00 0.515102824275852D+03
 0.515102824275852D+03 -.000000000000000D+00 -.000000000000000D+00 -.515102824275852D+03
 0.519095763541465D+03 0.332678099354676D+03 -.377237816150845D+03 -.291945885773153D+02
 0.331447237039110D+02 -.539911647514465D+01 0.311182703033043D+02 -.100536313850725D+02
 0.477965161306328D+03 -.327278982879531D+03 0.346119545847541D+03 0.392482199623879D+02
 0.000000000000000D+00 -.000000000000000D+00 0.000000000000000D+00 0.000000000000000D+00
 0.515102824275852D+03 0.000000000000000D+00 0.000000000000000D+00 0.515102824275852D+03
 0.515102824275852D+03 -.000000000000000D+00 -.000000000000000D+00 -.515102824275852D+03
 0.519089420718689D+03 0.332673620530907D+03 -.377233079493345D+03 -.291940514641194D+02
 0.331450438389119D+02 -.539940245513260D+01 0.311185727463841D+02 -.100535970895447D+02
 0.469005329306466D+03 -.320804264722835D+03 0.339936002750752D+03 0.386540643056881D+02
 0.896585468763724D+01 -.646995335293925D+01 0.617850399620907D+01 0.593584247976053D+00
0.310885473601D-07 0.000000000000D+00 0.000000000000D+00 0.111532414469D-05 0.000000000000D+00  6 -1 1 25 3 -3 21 0 0.81237956D-01 0.77304035D-01 0.26327588D+06 0.26327588D+06 0.26327588D+06 0.10887726D+01  1  2  2  4  6  5       -3 0.260670571364D-06 0.100000000000D+01
0.936779317983D-08 0.000000000000D+00 -.119388207665D-09 0.111532414469D-05 0.000000000000D+00  6 -1 1 25 3 -3 21 2 0.81237956D-01 0.77304035D-01 0.26327588D+06 0.26327588D+06 0.26327588D+06 0.10887726D+01  1  2  3  4  6  5       -3 0.931114867882D-07 0.100000000000D+01
-.890911606796D-08 0.000000000000D+00 0.000000000000D+00 0.111532414469D-05 0.000000000000D+00  6 -1 1 25 3 -3 21 2 0.81237956D-01 0.77304035D-01 0.26327588D+06 0.26327588D+06 0.26327588D+06 0.10887726D+01  1  2 15  4  6  5       -3 -.885524506286D-07 0.100000000000D+01
-.408301486933D-03 0.000000000000D+00 0.000000000000D+00 0.111532414469D-05 0.000000000000D+00  6 -1 1 25 3 -3 21 2 0.81237956D-01 0.77304035D-01 0.26327588D+06 0.26327588D+06 0.26327588D+06 0.10887726D+01  1  2  4  4  6  5       -3 -.405832598739D-02 0.100000000000D+01
-.448448893569D-03 0.000000000000D+00 0.000000000000D+00 0.111532414469D-05 0.000000000000D+00  6 -1 1 25 3 -3 21 2 0.81237956D-01 0.77304035D-01 0.26327588D+06 0.26327588D+06 0.26327588D+06 0.10887726D+01  1  2  5  4  6  5       -3 -.445737244911D-02 0.100000000000D+01
0.456939956018D-03 0.000000000000D+00 -.000000000000D+00 0.111532414469D-05 0.000000000000D+00  6 -1 1 25 3 -3 21 2 0.81237956D-01 0.77304035D-01 0.26327588D+06 0.26327588D+06 0.26327588D+06 0.10887726D+01  1  2  6  4  6  5       -3 0.454176964211D-02 0.100000000000D+01
0.409270333669D-03 0.000000000000D+00 0.000000000000D+00 0.111532414469D-05 0.277682173247D-04  6 -1 1 25 3 -3 21 2 0.81237956D-01 0.77304035D-01 0.26327534D+06 0.26327534D+06 0.26327534D+06 0.10887727D+01  1  2 11  4  6  5       -3 0.406795664134D-02 0.100000000000D+01
  </mgrwgt>
  </event>
  <event>
  7     66 0.18444242E-05 0.38002773E+02 0.75467711E-02 0.90953935E-01
       21 -1    0    0  503  501 0.00000000E+00 0.00000000E+00 0.11428512E+04 0.11428514E+04 0.75000000E+00 0.0000E+00 0.9000E+01
        1 -1    0    0  501    0 0.00000000E+00 0.00000000E+00 -.12843826E+04 0.12843827E+04 0.32000000E+00 0.0000E+00 0.9000E+01
       23  2    1    2    0    0 0.12876816E+03 0.67315055E+03 -.10325784E+02 0.69168652E+03 0.92793953E+02 0.0000E+00 0.0000E+00
       25  1    1    2    0    0 -.11020209E+03 -.67002084E+03 -.80554632E+03 0.10609441E+04 0.12500000E+03 0.0000E+00 0.9000E+01
        3  1    3    3  502    0 0.62380276E+02 0.12774072E+03 -.39406479E+01 0.14221382E+03 0.50000000E+00 0.0000E+00 0.9000E+01
        1  1    1    2  503    0 -.18566065E+02 -.31297101E+01 0.67434065E+03 0.67460352E+03 0.32000000E+00 0.0000E+00 0.9000E+01
       -3  1    3    3    0  502 0.66387880E+02 0.54540983E+03 -.63851363E+01 0.54947270E+03 0.50000000E+00 0.0000E+00 0.9000E+01
#aMCatNLO 2  0  0  1  2 0.14066087D+03 0.00000000D+00  -5  6  0 0.00000000D+00 0.00000000D+00 0.00000000D+00 0.00000000D+00 0.00000000D+00
  <mgrwgt>
 0.3780717268D-03    1    2    0
 0.775517920406831D+03 0.000000000000000D+00 0.000000000000000D+00 0.775517920406831D+03
 0.775517920406831D+03 0.000000000000000D+00 0.000000000000000D+00 -.775517920406831D+03
 0.777779081033781D+03 -.119495518973857D+03 -.671587448972681D+03 -.352145450377096D+03
 0.157607349869722D+03 0.604877104978209D+02 0.127409583892157D+03 0.703428144455148D+02
 0.000000000000000D+00 -.000000000000000D+00 -.000000000000000D+00 0.000000000000000D+00
 0.615649409910160D+03 0.590078084760365D+02 0.544177865080524D+03 0.281802635931581D+03
 0.189241298469823D+04 0.000000000000000D+00 0.000000000000000D+00 0.189241298469823D+04
 0.775654408671524D+03 0.000000000000000D+00 0.000000000000000D+00 -.775654408671524D+03
 0.775050867464532D+03 -.110202090989152D+03 -.670020841524989D+03 -.352145450377096D+03
 0.158600095453338D+03 0.623801592647830D+02 0.127728596891190D+03 0.703428144455148D+02
 0.111691728027830D+04 -.185660650000089D+02 -.312971012969694D+01 0.111675857602670D+04
 0.617499150173583D+03 0.663879967243785D+02 0.545421954763496D+03 0.281802635931581D+03
0.220142893552D-03 0.000000000000D+00 0.000000000000D+00 0.114703118911D-04 0.278191013272D-07  6 21 1 25 3 1 -3 2 0.17582328D+00 0.19759735D+00 0.49059910D+06 0.49059910D+06 0.49059910D+06 0.10690935D+01  1  2  1  5  5  1       -1 0.378071726822D-03 0.100000000000D+01
  </mgrwgt>
  </event>
  <event>
  7     66 0.18444242E-05 0.54986597E+02 0.75467711E-02 0.93324953E-01
       -1 -1    0    0    0  503 0.00000000E+00 0.00000000E+00 0.20229605E+03 0.20229631E+03 0.32000000E+00 0.0000E+00 0.9000E+01
        1 -1    0    0  501    0 0.00000000E+00 0.00000000E+00 -.16213199E+04 0.16213199E+04 0.32000000E+00 0.0000E+00 0.9000E+01
       23  2    1    2    0    0 0.25850740E+03 -.48161723E+03 -.58279947E+03 0.80408399E+03 0.90081068E+02 0.0000E+00 0.0000E+00
       25  1    1    2    0    0 -.27345645E+03 0.46514274E+03 -.82722939E+03 0.99552482E+03 0.12500000E+03 0.0000E+00 0.9000E+01
        3  1    3    3  502    0 0.17879118E+03 -.30630692E+03 -.43535821E+03 0.56154006E+03 0.50000000E+00 0.0000E+00 0.9000E+01
       -3  1    3    3    0  502 0.79716221E+02 -.17531032E+03 -.14744126E+03 0.24254393E+03 0.50000000E+00 0.0000E+00 0.9000E+01
       21  1    1    2  501  503 0.14949054E+02 0.16474493E+02 -.89949376E+01 0.24007385E+02 0.75000000E+00 0.0000E+00 0.9000E+01
#aMCatNLO 2  0  0  1  2 0.19612875D+02 0.00000000D+00  -5  6  0 0.00000000D+00 0.00000000D+00 0.00000000D+00 0.00000000D+00 0.00000000D+00
  <mgrwgt>
 0.1045278794D-03    1    2    0
 0.558998115901768D+03 0.000000000000000D+00 0.000000000000000D+00 0.558998115901768D+03
 0.558998115901768D+03 0.000000000000000D+00 0.000000000000000D+00 -.558998115901768D+03
 0.562356982840705D+03 -.265959875034997D+03 0.473404287243990D+03 -.759875110796530D+02
 0.352699267861751D+03 0.183523532372326D+03 -.301099061965139D+03 0.743246254700330D+01
 0.202939981101080D+03 0.824363426626715D+02 -.172305225278850D+03 0.685550485326497D+02
 0.000000000000000D+00 0.000000000000000D+00 0.000000000000000D+00 0.000000000000000D+00
 0.580648735226098D+03 0.000000000000000D+00 0.000000000000000D+00 0.580648735226098D+03
 0.564852545457893D+03 0.000000000000000D+00 0.000000000000000D+00 -.564852545457893D+03
 0.559048568202107D+03 -.273456453519556D+03 0.465142739164283D+03 -.759875110796530D+02
 0.354752051963550D+03 0.178794231417696D+03 -.306310952603056D+03 0.743246254700330D+01
 0.204416915669256D+03 0.797131682098385D+02 -.175306279255388D+03 0.685550485326497D+02
 0.272837448490793D+02 0.149490538920216D+02 0.164744926941608D+02 0.157961897682048D+02
0.144683835533D-04 0.000000000000D+00 0.000000000000D+00 0.394681511802D-04 0.499187764182D-06  6 -1 1 25 3 -3 21 2 0.31122209D-01 0.24943158D+00 0.31548382D+06 0.31548382D+06 0.31548382D+06 0.10829386D+01  1  2  1  1  6  1       -1 0.104527879363D-03 0.100000000000D+01
  </mgrwgt>
  </event>
  <event>
  7     66 0.18444242E-05 0.39630341E+02 0.75467711E-02 0.94883497E-01
       -1 -1    0    0    0  503 0.00000000E+00 0.00000000E+00 0.42352302E+03 0.42352314E+03 0.32000000E+00 0.0000E+00 0.9000E+01
        1 -1    0    0  501    0 0.00000000E+00 0.00000000E+00 -.88196450E+03 0.88196456E+03 0.32000000E+00 0.0000E+00 0.9000E+01
       23  2    1    2    0    0 -.42951614E+03 0.20270023E+03 0.70019235E+02 0.48749213E+03 0.84701704E+02 0.0000E+00 0.0000E+00
       25  1    1    2    0    0 0.42521930E+03 -.18971235E+03 -.58601000E+03 0.75883790E+03 0.12500000E+03 0.0000E+00 0.9000E+01
        3  1    3    3  502    0 -.34888063E+03 0.12724929E+03 0.64499950E+02 0.37692250E+03 0.50000000E+00 0.0000E+00 0.9000E+01
       -3  1    3    3    0  502 -.80635514E+02 0.75450938E+02 0.55192849E+01 0.11056963E+03 0.50000000E+00 0.0000E+00 0.9000E+01
       21  1    1    2  501  503 0.42968407E+01 -.12987883E+02 0.57549283E+02 0.59157675E+02 0.75000000E+00 0.0000E+00 0.9000E+01
#aMCatNLO 2  0  0  1  2 0.19612875D+02 0.00000000D+00  -5  6  0 0.00000000D+00 0.00000000D+00 0.00000000D+00 0.00000000D+00 0.00000000D+00
  <mgrwgt>
 0.6228364206D-03    1    2    0
 0.567209155556416D+03 0.000000000000000D+00 0.000000000000000D+00 0.567209155556416D+03
 0.567209155556416D+03 0.000000000000000D+00 0.000000000000000D+00 -.567209155556416D+03
 0.570933805166731D+03 0.427374509899547D+03 -.196226807899922D+03 -.298641052154073D+03
 0.440676936730992D+03 -.347215682810314D+03 0.122190281753840D+03 0.242295206766653D+03
 0.122807569215110D+03 -.801588270892323D+02 0.740365261460819D+02 0.563458453874207D+02
 0.000000000000000D+00 0.000000000000000D+00 -.000000000000000D+00 0.000000000000000D+00
 0.657894249932461D+03 0.000000000000000D+00 0.000000000000000D+00 0.657894249932461D+03
 0.567766560035277D+03 0.000000000000000D+00 0.000000000000000D+00 -.567766560035277D+03
 0.567109961260692D+03 0.425219301807383D+03 -.189712349360427D+03 -.298641052154073D+03
 0.443423077242393D+03 -.348889976506750D+03 0.127251100200107D+03 0.242295206766653D+03
 0.123967755915667D+03 -.806261660381883D+02 0.754491322967059D+02 0.563458453874207D+02
 0.911600155489858D+02 0.429684073755543D+01 -.129878831363859D+02 0.901276898971842D+02
0.936106646937D-04 0.000000000000D+00 0.000000000000D+00 0.100893642264D-05 0.346990328770D-07  6 -1 1 25 3 -3 21 2 0.65157224D-01 0.13568649D+00 0.23891651D+06 0.23891651D+06 0.23891651D+06 0.10919438D+01  1  2  1  1  6  1       -1 0.622836420572D-03 0.100000000000D+01
  </mgrwgt>
  </event>
  <event>
  6     66 0.18444242E-05 0.38623322E+02 0.75467711E-02 0.93060834E-01
       -1 -1    0    0    0  501 0.00000000E+00 0.00000000E+00 0.29425155E+03 0.29425173E+03 0.32000000E+00 0.0000E+00 0.9000E+01
        1 -1    0    0  501    0 -.00000000E+00 -.00000000E+00 -.11317650E+04 0.11317651E+04 0.32000000E+00 0.0000E+00 0.9000E+01
       25  1    1    2    0    0 0.53167373E+03 0.15732691E+03 -.45337732E+03 0.72705206E+03 0.12500000E+03 0.0000E+00 0.9000E+01
        3  1    1    2  503    0 -.36091939E+03 -.16435479E+03 -.24158432E+03 0.46436897E+03 0.50000000E+00 0.0000E+00 0.9000E+01
       -3  1    1    2    0  502 -.15388048E+03 -.18623238E+02 -.12568082E+03 0.19955436E+03 0.50000000E+00 0.0000E+00 0.9000E+01
       21  1    1    2  502  503 -.16873860E+02 0.25651117E+02 -.16871031E+02 0.35041420E+02 0.75000000E+00 0.0000E+00 0.9000E+01
#aMCatNLO 2  0  0  4  5 0.18422061D+02 0.00000000D+00  -5  6  0 0.00000000D+00 0.00000000D+00 0.00000000D+00 0.00000000D+00 0.00000000D+00
  <mgrwgt>
 0.4233879624D-03    1    2    0
 0.577082123412074D+03 0.000000000000000D+00 0.000000000000000D+00 0.577082123412074D+03
 0.577082123412074D+03 -.000000000000000D+00 -.000000000000000D+00 -.577082123412074D+03
 0.581445359956567D+03 0.543313090510527D+03 0.161600210162717D+03 -.339111245800964D+02
 0.420528031922695D+03 -.392518328504743D+03 -.144120526127768D+03 0.447488700334839D+02
 0.152190854944886D+03 -.150794762005785D+03 -.174796840349491D+02 -.108377454533875D+02
 0.000000000000000D+00 0.000000000000000D+00 0.000000000000000D+00 0.000000000000000D+00
 0.577082123412074D+03 0.000000000000000D+00 0.000000000000000D+00 0.577082123412074D+03
 0.577082123412074D+03 -.000000000000000D+00 -.000000000000000D+00 -.577082123412074D+03
 0.569290308980268D+03 0.531653593959232D+03 0.157319205543752D+03 -.325818890821840D+02
 0.398386806914547D+03 -.360841198419836D+03 -.164394235823412D+03 0.384735321297777D+02
 0.155387886751255D+03 -.153911214701973D+03 -.186239485688828D+02 -.104824557088335D+02
 0.310992441780791D+02 -.169011808374235D+02 0.256989788485437D+02 0.459081266123973D+01
0.519898541676D-04 0.000000000000D+00 0.000000000000D+00 0.258398576174D-06 0.161395527083D-07  6 -1 1 25 3 -3 21 2 0.45269487D-01 0.17411772D+00 0.33101284D+06 0.33101284D+06 0.33101284D+06 0.10814051D+01  1  2  1  3  6  4        3 0.423387962372D-03 0.100000000000D+01
  </mgrwgt>
  </event>
  <event>
  7     66 0.18444242E-05 0.70293518E+02 0.75467711E-02 0.93666180E-01
       21 -1    0    0  503  501 0.00000000E+00 0.00000000E+00 0.29209021E+03 0.29209117E+03 0.75000000E+00 0.0000E+00 0.9000E+01
        3 -1    0    0  501    0 0.00000000E+00 0.00000000E+00 -.10446088E+04 0.10446089E+04 0.50000000E+00 0.0000E+00 0.9000E+01
       23  2    1    2    0    0 -.21992761E+03 -.48065855E+03 -.39219589E+03 0.66461259E+03 0.92149194E+02 0.0000E+00 0.0000E+00
       25  1    1    2    0    0 0.18469156E+03 0.47496859E+03 -.36008613E+03 0.63639072E+03 0.12500000E+03 0.0000E+00 0.9000E+01
        1  1    3    3  502    0 -.10691120E+03 -.25329459E+03 -.14755259E+03 0.31202567E+03 0.32000000E+00 0.0000E+00 0.9000E+01
        3  1    1    2  503    0 0.35236055E+02 0.56899654E+01 -.23659389E+00 0.35696797E+02 0.50000000E+00 0.0000E+00 0.9000E+01
       -1  1    3    3    0  502 -.11301641E+03 -.22736396E+03 -.24464330E+03 0.35258691E+03 0.32000000E+00 0.0000E+00 0.9000E+01
#aMCatNLO 2  0  0  1  1 0.40157231D+03 0.00000000D+00  -5  6  0 0.00000000D+00 0.00000000D+00 0.00000000D+00 0.00000000D+00 0.00000000D+00
  <mgrwgt>
 0.2695389912D-05    1    2    0
 0.530426106565426D+03 0.000000000000000D+00 0.000000000000000D+00 0.530426106565426D+03
 0.530426106565426D+03 0.000000000000000D+00 0.000000000000000D+00 -.530426106565426D+03
 0.533788274261206D+03 0.202267168321302D+03 0.477806721575648D+03 0.967735372759893D+01
 0.273117360334425D+03 -.977632336869155D+02 -.251817688411034D+03 0.402901285483786D+02
 0.000000000000000D+00 0.000000000000000D+00 0.000000000000000D+00 0.000000000000000D+00
 0.253946578535221D+03 -.104503934634386D+03 -.225989033164614D+03 -.499674822759776D+02
 0.565022058183325D+03 0.000000000000000D+00 0.000000000000000D+00 0.565022058183325D+03
 0.540012762574637D+03 0.000000000000000D+00 0.000000000000000D+00 -.540012762574637D+03
 0.524809281925257D+03 0.184691557128778D+03 0.474968588377255D+03 0.967735372759893D+01
 0.277869736461921D+03 -.106911124619402D+03 -.253294902071849D+03 0.402901285483786D+02
 0.435823378777023D+02 0.352360554312376D+02 0.568996535052914D+01 0.250092956086878D+02
 0.258773464493082D+03 -.113016487940614D+03 -.227363651655935D+03 -.499674822759776D+02
0.295526115697D-06 0.000000000000D+00 0.000000000000D+00 0.269452122699D-04 0.145787653643D-08  6 21 3 25 1 3 -1 2 0.44936920D-01 0.16070871D+00 0.29661599D+06 0.29661599D+06 0.29661599D+06 0.10849166D+01  1  2  1  5  5  1       -3 0.269538991151D-05 0.100000000000D+01
  </mgrwgt>
  </event>
  <event>
  7     66 0.18444242E-05 0.84173377E+02 0.75467711E-02 0.92952354E-01
       -1 -1    0    0    0  501 0.00000000E+00 0.00000000E+00 0.78418789E+03 0.78418795E+03 0.32000000E+00 0.0000E+00 0.9000E+01
        1 -1    0    0  503    0 0.00000000E+00 0.00000000E+00 -.54852586E+03 0.54852595E+03 0.32000000E+00 0.0000E+00 0.9000E+01
       23  2    1    2    0    0 0.16283147E+03 0.43033825E+03 0.13717587E+03 0.48853347E+03 0.90236537E+02 0.0000E+00 0.0000E+00
       25  1    1    2    0    0 -.21801935E+03 -.52599208E+03 0.26821324E+03 0.64168797E+03 0.12500000E+03 0.0000E+00 0.9000E+01
        3  1    3    3  502    0 0.87625104E+02 0.34048256E+03 0.97975977E+02 0.36497408E+03 0.50000000E+00 0.0000E+00 0.9000E+01
       -3  1    3    3    0  502 0.75206361E+02 0.89855691E+02 0.39199891E+02 0.12355939E+03 0.50000000E+00 0.0000E+00 0.9000E+01
       21  1    1    2  503  501 0.55187888E+02 0.95653824E+02 -.16972708E+03 0.20249247E+03 0.75000000E+00 0.0000E+00 0.9000E+01
#aMCatNLO 2  0  0  2  4 0.73258491D+02 0.00000000D+00  -5  6  0 0.00000000D+00 0.00000000D+00 0.00000000D+00 0.00000000D+00 0.00000000D+00
  <mgrwgt>
 0.6735012754D-04    1    2    0
 0.524610523901216D+03 0.000000000000000D+00 0.000000000000000D+00 0.524610523901216D+03
 0.524610523901216D+03 0.000000000000000D+00 0.000000000000000D+00 -.524610523901216D+03
 0.528176201268529D+03 -.188840613162289D+03 -.475418333980479D+03 0.407643241348405D+02
 0.390952734319413D+03 0.107146345452477D+03 0.374324582071974D+03 -.352818421379328D+02
 0.130092112214490D+03 0.816942677098121D+02 0.101093751908506D+03 -.548248199690764D+01
 0.000000000000000D+00 0.000000000000000D+00 0.000000000000000D+00 -.000000000000000D+00
 0.538763313024751D+03 0.000000000000000D+00 0.000000000000000D+00 0.538763313024751D+03
 0.798396345479876D+03 0.000000000000000D+00 0.000000000000000D+00 -.798396345479876D+03
 0.584368748770520D+03 -.218019353481249D+03 -.525992077815884D+03 0.407643241348405D+02
 0.353350604810955D+03 0.876254857782160D+02 0.340490257977748D+03 -.352818421379328D+02
 0.117297311779671D+03 0.752059799690522D+02 0.898479956303166D+02 -.548248199690764D+01
 0.282142993143481D+03 0.551878877339809D+02 0.956538242078193D+02 -.259633032455124D+03
0.190816274905D-04 0.000000000000D+00 0.000000000000D+00 0.294518993649D-04 0.161442609084D-07  6 -1 1 25 3 -3 21 2 0.12064419D+00 0.84388529D-01 0.33763750D+06 0.33763750D+06 0.33763750D+06 0.10807746D+01  1  2  1  2  6  2        1 0.673501275382D-04 0.100000000000D+01
  </mgrwgt>
  </event>
  <event>
  6     66 -.18444242E-05 0.18390838E+02 0.75467711E-02 0.95113167E-01
       -1 -1    0    0    0  501 0.00000000E+00 0.00000000E+00 0.29971505E+03 0.29971522E+03 0.32000000E+00 0.0000E+00 0.9000E+01
        1 -1    0    0  501    0 -.00000000E+00 -.00000000E+00 -.79929049E+03 0.79929055E+03 0.32000000E+00 0.0000E+00 0.9000E+01
       23  2    1    2    0    0 -.45262656E+03 0.12810120E+03 -.15898351E+03 0.50494468E+03 0.91720526E+02 0.0000E+00 0.0000E+00
       25  1    1    2    0    0 0.45262656E+03 -.12810120E+03 -.34059193E+03 0.59406109E+03 0.12500000E+03 0.0000E+00 0.9000E+01
        3  1    3    3  502    0 -.15977901E+02 0.10771179E+02 -.28406469E+02 0.34329129E+02 0.50000000E+00 0.0000E+00 0.9000E+01
       -3  1    3    3    0  502 -.43664866E+03 0.11733002E+03 -.13057704E+03 0.47061555E+03 0.50000000E+00 0.0000E+00 0.9000E+01
#aMCatNLO 1  0  0  4  5 0.55150461D+01 0.00000000D+00  -5  6  0 0.00000000D+00 0.00000000D+00 0.00000000D+00 0.00000000D+00 0.00000000D+00
  <mgrwgt>
 -.2006382638D-03    7    2    0
 0.489448173906995D+03 0.000000000000000D+00 0.000000000000000D+00 0.489448173906995D+03
 0.489448173906995D+03 -.000000000000000D+00 -.000000000000000D+00 -.489448173906995D+03
 0.493132090597714D+03 0.452626556674349D+03 -.128101197863479D+03 -.792056947216329D+02
 0.240311485525286D+02 -.159653991957230D+02 0.107680122631059D+02 -.143753970789160D+02
 0.461733108663747D+03 -.436661157478626D+03 0.117333185600373D+03 0.935810918005489D+02
 0.000000000000000D+00 0.000000000000000D+00 0.000000000000000D+00 0.000000000000000D+00
 0.489448173906995D+03 0.000000000000000D+00 0.000000000000000D+00 0.489448173906995D+03
 0.489448173906995D+03 -.000000000000000D+00 -.000000000000000D+00 -.489448173906995D+03
 0.492260499036838D+03 0.451706347603279D+03 -.127480554280414D+03 -.800342597095848D+02
 0.137599286889730D+02 -.964191953235256D+01 0.773241939210304D+00 -.978627212786904D+01
 0.462540915398224D+03 -.437524290964754D+03 0.117915334023309D+03 0.928039182113958D+02
 0.103350046899551D+02 -.454013710617221D+01 0.879197831789469D+01 -.298338637394197D+01
0.157620396445D-04 0.000000000000D+00 0.000000000000D+00 0.175239721254D-04 0.000000000000D+00  6 -1 1 25 3 -3 21 0 0.46110025D-01 0.12296779D+00 0.22950681D+06 0.22950681D+06 0.22950681D+06 0.10932645D+01  1  2  2  3  6  4        3 0.195969052709D-03 0.100000000000D+01
0.501982374538D-05 0.000000000000D+00 -.605303824753D-07 0.175239721254D-04 0.000000000000D+00  6 -1 1 25 3 -3 21 2 0.46110025D-01 0.12296779D+00 0.22950681D+06 0.22950681D+06 0.22950681D+06 0.10932645D+01  1  2  3  3  6  4        3 0.745957447510D-04 0.100000000000D+01
-.451412304493D-05 0.000000000000D+00 0.000000000000D+00 0.175239721254D-04 0.000000000000D+00  6 -1 1 25 3 -3 21 2 0.46110025D-01 0.12296779D+00 0.22950681D+06 0.22950681D+06 0.22950681D+06 0.10932645D+01  1  2 15  3  6  4        3 -.670809150907D-04 0.100000000000D+01
0.105876678207D-05 0.000000000000D+00 0.000000000000D+00 0.175239721254D-04 0.000000000000D+00  6 -1 1 25 3 -3 21 2 0.46110025D-01 0.12296779D+00 0.22963929D+06 0.22963929D+06 0.22963929D+06 0.10932455D+01  1  2 12  3  6  4        3 0.157327123388D-04 0.100000000000D+01
-.738940357904D-04 0.000000000000D+00 0.000000000000D+00 0.175239721254D-04 0.000000000000D+00  6 -1 1 25 3 -3 21 2 0.46110025D-01 0.12296779D+00 0.22950681D+06 0.22950681D+06 0.22950681D+06 0.10932645D+01  1  2  4  3  6  4        3 -.109808250489D-02 0.100000000000D+01
-.226347514687D-04 0.000000000000D+00 0.000000000000D+00 0.175239721254D-04 0.000000000000D+00  6 -1 1 25 3 -3 21 2 0.46110025D-01 0.12296779D+00 0.22950681D+06 0.22950681D+06 0.22950681D+06 0.10932645D+01  1  2  5  3  6  4        3 -.336357654910D-03 0.100000000000D+01
0.682751999364D-04 0.000000000000D+00 -.000000000000D+00 0.175239721254D-04 0.000000000000D+00  6 -1 1 25 3 -3 21 2 0.46110025D-01 0.12296779D+00 0.22950681D+06 0.22950681D+06 0.22950681D+06 0.10932645D+01  1  2  6  3  6  4        3 0.101458530132D-02 0.100000000000D+01
  </mgrwgt>
  </event>
  <event>
  7     66 0.18444242E-05 0.61427447E+02 0.75467711E-02 0.95215249E-01
       21 -1    0    0  503  501 0.00000000E+00 0.00000000E+00 0.20043305E+03 0.20043446E+03 0.75000000E+00 0.0000E+00 0.9000E+01
        1 -1    0    0  501    0 0.00000000E+00 0.00000000E+00 -.14030553E+04 0.14030554E+04 0.32000000E+00 0.0000E+00 0.9000E+01
       23  2    1    2    0    0 0.44927975E+03 0.38438580E+02 -.48169219E+03 0.66655960E+03 0.94575494E+02 0.0000E+00 0.0000E+00
       25  1    1    2    0    0 -.45653006E+03 -.58457386E+02 -.75719389E+03 0.89487683E+03 0.12500000E+03 0.0000E+00 0.9000E+01
        3  1    3    3  502    0 0.28201794E+03 0.34500380E+02 -.23621877E+03 0.36949147E+03 0.50000000E+00 0.0000E+00 0.9000E+01
        1  1    1    2  503    0 0.72503108E+01 0.20018806E+02 0.36263816E+02 0.42053375E+02 0.32000000E+00 0.0000E+00 0.9000E+01
       -3  1    3    3    0  502 0.16726181E+03 0.39381998E+01 -.24547343E+03 0.29706813E+03 0.50000000E+00 0.0000E+00 0.9000E+01
#aMCatNLO 2  0  0  1  2 0.52380785D+02 0.00000000D+00  -5  6  0 0.00000000D+00 0.00000000D+00 0.00000000D+00 0.00000000D+00 0.00000000D+00
  <mgrwgt>
 0.1087713396D-03    1    2    0
 0.475076757656835D+03 0.000000000000000D+00 0.000000000000000D+00 0.475076757656835D+03
 0.475076757656835D+03 0.000000000000000D+00 0.000000000000000D+00 -.475076757656835D+03
 0.478592230259152D+03 -.452861009302577D+03 -.483267919173144D+02 -.775045179383781D+02
 0.302086134352556D+03 0.284314707566935D+03 0.408339795621814D+02 0.935615612434629D+02
 0.000000000000000D+00 0.000000000000000D+00 0.000000000000000D+00 0.000000000000000D+00
 0.169475150701962D+03 0.168546301735642D+03 0.749281235513303D+01 -.160570433050848D+02
 0.590576232985709D+03 0.000000000000000D+00 0.000000000000000D+00 0.590576232985709D+03
 0.476178247963224D+03 0.000000000000000D+00 0.000000000000000D+00 -.476178247963224D+03
 0.483186205705957D+03 -.456530057154768D+03 -.584573861708054D+02 -.775045179383781D+02
 0.299132123616336D+03 0.282021145478609D+03 0.345012338886295D+02 0.935615612434629D+02
 0.116362444860821D+03 0.725031079155428D+01 0.200188059136598D+02 0.114397985022485D+03
 0.168073706765819D+03 0.167258600884605D+03 0.393734636851611D+01 -.160570433050848D+02
0.967101579495D-06 0.000000000000D+00 0.000000000000D+00 0.417313908629D-05 0.184391249970D-08  6 21 1 25 3 1 -3 2 0.30835951D-01 0.21585468D+00 0.22545861D+06 0.22545861D+06 0.22545861D+06 0.10938510D+01  1  2  1  5  5  1       -1 0.108771339556D-03 0.100000000000D+01
  </mgrwgt>
  </event>
  <event>
  6     66 0.18444242E-05 0.14483054E+03 0.75467711E-02 0.87275235E-01
       -1 -1    0    0    0  501 0.00000000E+00 0.00000000E+00 0.22863188E+04 0.22863188E+04 0.32000000E+00 0.0000E+00 0.9000E+01
        1 -1    0    0  501    0 0.00000000E+00 0.00000000E+00 -.71136099E+03 0.71136106E+03 0.32000000E+00 0.0000E+00 0.9000E+01
       25  1    1    2    0    0 -.91062962E+03 -.29066244E+03 0.15972169E+04 0.18655985E+04 0.12500000E+03 0.0000E+00 0.9000E+01
        3  1    1    2  503    0 0.12712223E+03 0.18435135E+02 -.16924583E+02 0.12956314E+03 0.50000000E+00 0.0000E+00 0.9000E+01
       -3  1    1    2    0  502 0.65600335E+03 0.38327208E+03 -.15650229E+03 0.77571328E+03 0.50000000E+00 0.0000E+00 0.9000E+01
       21  1    1    2  502  503 0.12750405E+03 -.11104477E+03 0.15116778E+03 0.22680495E+03 0.75000000E+00 0.0000E+00 0.9000E+01
#aMCatNLO 2  0  0  4  5 0.94195633D+02 0.00000000D+00  -5  6  0 0.00000000D+00 0.00000000D+00 0.00000000D+00 0.00000000D+00 0.00000000D+00
  <mgrwgt>
 0.1029535058D-01    2    2    0
 0.127530316127798D+04 0.000000000000000D+00 0.000000000000000D+00 0.127530316127798D+04
 0.127530316127798D+04 -.000000000000000D+00 -.000000000000000D+00 -.127530316127798D+04
 0.122733894060851D+04 -.936234131934795D+03 -.281351438023646D+03 0.731466262828540D+03
 0.328959998570641D+03 0.301290855421362D+03 -.109580637985242D+03 -.736925021817532D+02
 0.994307383376816D+03 0.634943276513434D+03 0.390932076008887D+03 -.657773760646787D+03
 0.000000000000000D+00 0.000000000000000D+00 -.000000000000000D+00 0.000000000000000D+00
 0.127530316127798D+04 0.000000000000000D+00 0.000000000000000D+00 0.127530316127798D+04
 0.127530316127798D+04 -.000000000000000D+00 -.000000000000000D+00 -.127530316127798D+04
 0.120635697774261D+04 -.910639791133108D+03 -.290660197793133D+03 0.725206162392597D+03
 0.162147869073166D+03 0.126492780017417D+03 0.186441542984849D+02 -.997191233361383D+02
 0.100831972401325D+04 0.656004215268661D+03 0.383272131925492D+03 -.662925039709004D+03
 0.173781751726945D+03 0.128142795847030D+03 -.111256088430845D+03 0.374380006525445D+02
-.416021841393D-03 0.000000000000D+00 0.000000000000D+00 0.176749027374D-10 0.000000000000D+00  6 -1 1 25 3 -3 21 2 0.35174137D+00 0.10944016D+00 0.10214772D+07 0.10214772D+07 0.10214772D+07 0.10472502D+01  1  2 13  3  6  4        3 -.870551611179D-05 0.100000000000D+01
0.492413354543D+00 0.000000000000D+00 0.000000000000D+00 0.176749027374D-10 0.449179438845D-11  6 -1 1 25 3 -3 21 2 0.35174137D+00 0.10944016D+00 0.10214772D+07 0.10214772D+07 0.10214772D+07 0.10472502D+01  1  2  1  3  6  4        3 0.103040560978D-01 0.100000000000D+01
  </mgrwgt>
  </event>
  <event>
  7     66 0.18444242E-05 0.68225472E+02 0.75467711E-02 0.89743311E-01
       -1 -1    0    0    0  501 0.00000000E+00 0.00000000E+00 0.16740840E+04 0.16740840E+04 0.32000000E+00 0.0000E+00 0.9000E+01
        1 -1    0    0  503    0 0.00000000E+00 0.00000000E+00 -.42559544E+03 0.42559556E+03 0.32000000E+00 0.0000E+00 0.9000E+01
       23  2    1    2    0    0 -.49169703E+03 -.60554740E+03 0.83634694E+03 0.11475391E+04 0.94425743E+02 0.0000E+00 0.0000E+00
       25  1    1    2    0    0 0.47867925E+03 0.60549953E+03 0.45683317E+03 0.90558547E+03 0.12500000E+03 0.0000E+00 0.9000E+01
        3  1    3    3  502    0 -.19709334E+03 -.22801887E+03 0.25858726E+03 0.39712216E+03 0.50000000E+00 0.0000E+00 0.9000E+01
       -3  1    3    3    0  502 -.29460369E+03 -.37752853E+03 0.57775968E+03 0.75041697E+03 0.50000000E+00 0.0000E+00 0.9000E+01
       21  1    1    2  503  501 0.13017777E+02 0.47869224E-01 -.44691583E+02 0.46554966E+02 0.75000000E+00 0.0000E+00 0.9000E+01
#aMCatNLO 2  0  0  2  1 0.15417898D+02 0.00000000D+00  -5  6  0 0.00000000D+00 0.00000000D+00 0.00000000D+00 0.00000000D+00 0.00000000D+00
  <mgrwgt>
 0.4137270487D-03    1    2    0
 0.797313668118494D+03 0.000000000000000D+00 0.000000000000000D+00 0.797313668118494D+03
 0.797313668118494D+03 0.000000000000000D+00 0.000000000000000D+00 -.797313668118494D+03
 0.799417225240937D+03 0.485189070810877D+03 0.605523464247359D+03 -.146204650485111D+03
 0.299979811184107D+03 -.194635197974191D+03 -.228005646092073D+03 0.108835737575663D+02
 0.495230299811943D+03 -.290553872836687D+03 -.377517818155286D+03 0.135321076727545D+03
 0.000000000000000D+00 0.000000000000000D+00 0.000000000000000D+00 -.000000000000000D+00
 0.797782771828269D+03 0.000000000000000D+00 0.000000000000000D+00 0.797782771828269D+03
 0.893075256946234D+03 0.000000000000000D+00 0.000000000000000D+00 -.893075256946234D+03
 0.795464833706984D+03 0.478679251272828D+03 0.605499526211120D+03 -.146204650485111D+03
 0.301585560331349D+03 -.197090603367294D+03 -.228014675157002D+03 0.108835737575663D+02
 0.497630077489506D+03 -.294606424463592D+03 -.377532720277709D+03 0.135321076727545D+03
 0.961775572466658D+02 0.130177765580582D+02 0.478692235910581D-01 -.952924851179650D+02
0.120597295527D-02 0.000000000000D+00 0.000000000000D+00 0.824170128997D-05 0.294333542568D-06  6 -1 1 25 3 -3 21 2 0.25755092D+00 0.65476113D-01 0.62031225D+06 0.62031225D+06 0.62031225D+06 0.10619547D+01  1  2  1  2  6  2        1 0.413727048661D-03 0.100000000000D+01
  </mgrwgt>
  </event>
  <event>
  7     66 0.18444242E-05 0.60548560E+02 0.75467711E-02 0.91547755E-01
       -1 -1    0    0    0  501 0.00000000E+00 0.00000000E+00 0.70347807E+03 0.70347814E+03 0.32000000E+00 0.0000E+00 0.9000E+01
        1 -1    0    0  503    0 0.00000000E+00 0.00000000E+00 -.76868016E+03 0.76868023E+03 0.32000000E+00 0.0000E+00 0.9000E+01
       23  2    1    2    0    0 -.14659500E+03 -.63566067E+03 0.19715259E+03 0.68739749E+03 0.89953242E+02 0.0000E+00 0.0000E+00
       25  1    1    2    0    0 0.13039128E+03 0.62789604E+03 -.14919186E+03 0.67017799E+03 0.12500000E+03 0.0000E+00 0.9000E+01
        3  1    3    3  502    0 -.44448864E+02 -.24097474E+03 0.30382637E+02 0.24691675E+03 0.50000000E+00 0.0000E+00 0.9000E+01
       -3  1    3    3    0  502 -.10214614E+03 -.39468593E+03 0.16676995E+03 0.44048074E+03 0.50000000E+00 0.0000E+00 0.9000E+01
       21  1    1    2  503  501 0.16203718E+02 0.77646339E+01 -.11316283E+03 0.11458289E+03 0.75000000E+00 0.0000E+00 0.9000E+01
#aMCatNLO 2  0  0  2  2 0.16482517D+03 0.00000000D+00  -5  6  0 0.00000000D+00 0.00000000D+00 0.00000000D+00 0.00000000D+00 0.00000000D+00
  <mgrwgt>
 0.6417762359D-03    1    2    0
 0.678304522940718D+03 0.000000000000000D+00 0.000000000000000D+00 0.678304522940718D+03
 0.678304522940718D+03 0.000000000000000D+00 0.000000000000000D+00 -.678304522940718D+03
 0.681081083479107D+03 0.138494833330619D+03 0.631779166687796D+03 -.172976032886271D+03
 0.244102590244859D+03 -.415203013725044D+02 -.239567510830533D+03 0.216690307270181D+02
 0.431425372157470D+03 -.969745319581143D+02 -.392211655857263D+03 0.151307002159253D+03
 0.000000000000000D+00 0.000000000000000D+00 0.000000000000000D+00 -.000000000000000D+00
 0.679048205706466D+03 0.000000000000000D+00 0.000000000000000D+00 0.679048205706466D+03
 0.796332049533110D+03 0.000000000000000D+00 0.000000000000000D+00 -.796332049533110D+03
 0.675870572901820D+03 0.130391283721472D+03 0.627896039556732D+03 -.172976032886271D+03
 0.245991109369895D+03 -.444470811065374D+02 -.240969989786057D+03 0.216690307270181D+02
 0.434866349934905D+03 -.102147920348893D+03 -.394690683664669D+03 0.151307002159253D+03
 0.118652223032955D+03 0.162037177339575D+02 0.776463389399373D+01 -.117283843826644D+03
0.238710628447D-03 0.000000000000D+00 0.000000000000D+00 0.334013284250D-04 0.642652162795D-06  6 -1 1 25 3 -3 21 2 0.10822722D+00 0.11825829D+00 0.43828261D+06 0.43828261D+06 0.43828261D+06 0.10725777D+01  1  2  1  2  6  2        1 0.641776235885D-03 0.100000000000D+01
  </mgrwgt>
  </event>
  <event>
  7     66 0.18444242E-05 0.59067322E+02 0.75467711E-02 0.91173326E-01
       -1 -1    0    0    0  501 0.00000000E+00 0.00000000E+00 0.75818711E+03 0.75818718E+03 0.32000000E+00 0.0000E+00 0.9000E+01
        1 -1    0    0  503    0 0.00000000E+00 0.00000000E+00 -.67848945E+03 0.67848953E+03 0.32000000E+00 0.0000E+00 0.9000E+01
       23  2    1    2    0    0 -.14084124E+02 -.66921825E+03 -.12454741E+02 0.67565632E+03 0.91131263E+02 0.0000E+00 0.0000E+00
       25  1    1    2    0    0 -.13041030E+02 0.66139159E+03 0.15612384E+03 0.69109230E+03 0.12500000E+03 0.0000E+00 0.9000E+01
        3  1    3    3  502    0 0.12629409E+02 -.26322001E+03 0.35738536E+02 0.26593565E+03 0.50000000E+00 0.0000E+00 0.9000E+01
       -3  1    3    3    0  502 -.26713533E+02 -.40599824E+03 -.48193277E+02 0.40972067E+03 0.50000000E+00 0.0000E+00 0.9000E+01
       21  1    1    2  503  501 0.27125154E+02 0.78266594E+01 -.63971437E+02 0.69928090E+02 0.75000000E+00 0.0000E+00 0.9000E+01
#aMCatNLO 2  0  0  2  2 0.91613606D+02 0.00000000D+00  -5  6  0 0.00000000D+00 0.00000000D+00 0.00000000D+00 0.00000000D+00 0.00000000D+00
  <mgrwgt>
 0.2943238943D-03    1    2    0
 0.679441670752145D+03 0.000000000000000D+00 0.000000000000000D+00 0.679441670752145D+03
 0.679441670752145D+03 0.000000000000000D+00 0.000000000000000D+00 -.679441670752145D+03
 0.682135092896586D+03 0.536963701187169D+00 0.665309371655810D+03 0.839430558055214D+02
 0.262427887036808D+03 0.178804900716833D+02 -.261700913965142D+03 0.783042777946308D+01
 0.414320361570897D+03 -.184174537728705D+02 -.403608457690668D+03 -.917734835849844D+02
 0.000000000000000D+00 0.000000000000000D+00 0.000000000000000D+00 -.000000000000000D+00
 0.682266571402078D+03 0.000000000000000D+00 0.000000000000000D+00 0.682266571402078D+03
 0.753985817005479D+03 0.000000000000000D+00 0.000000000000000D+00 -.753985817005479D+03
 0.678439640212189D+03 -.130410295162418D+02 0.661391593794805D+03 0.839430558055214D+02
 0.263634897145590D+03 0.126305932878075D+02 -.263215712880053D+03 0.783042777946308D+01
 0.417102039247667D+03 -.267147177484690D+02 -.406002540276362D+03 -.917734835849844D+02
 0.770758118021100D+02 0.271251539769033D+02 0.782665936160975D+01 -.717192456034007D+02
0.108686700528D-03 0.000000000000D+00 0.000000000000D+00 0.449814624348D-04 0.346851603482D-06  6 -1 1 25 3 -3 21 2 0.11664387D+00 0.10438273D+00 0.47049811D+06 0.47049811D+06 0.47049811D+06 0.10703821D+01  1  2  1  2  6  2        1 0.294323894284D-03 0.100000000000D+01
  </mgrwgt>
  </event>
  <event>
  7     66 0.18444242E-05 0.75101917E+02 0.75467711E-02 0.94361727E-01
       -3 -1    0    0    0  501 0.00000000E+00 0.00000000E+00 0.44315358E+03 0.44315386E+03 0.50000000E+00 0.0000E+00 0.9000E+01
       21 -1    0    0  501  503 0.00000000E+00 0.00000000E+00 -.87854524E+03 0.87854556E+03 0.75000000E+00 0.0000E+00 0.9000E+01
       23  2    1    2    0    0 0.36923119E+03 -.31593150E+03 0.11969419E+03 0.50857151E+03 0.90409613E+02 0.0000E+00 0.0000E+00
       25  1    1    2    0    0 -.36120311E+03 0.33539882E+03 -.37504085E+03 0.63185496E+03 0.12500000E+03 0.0000E+00 0.9000E+01
        1  1    3    3  502    0 0.20215024E+03 -.11446089E+03 0.64226973E+02 0.24102121E+03 0.32000000E+00 0.0000E+00 0.9000E+01
       -1  1    3    3    0  502 0.16708095E+03 -.20147061E+03 0.55467222E+02 0.26755031E+03 0.32000000E+00 0.0000E+00 0.9000E+01
       -3  1    1    2    0  503 -.80280782E+01 -.19467316E+02 -.18004500E+03 0.18127294E+03 0.50000000E+00 0.0000E+00 0.9000E+01
#aMCatNLO 2  0  0  2  2 0.91613606D+02 0.00000000D+00  -5  6  0 0.00000000D+00 0.00000000D+00 0.00000000D+00 0.00000000D+00 0.00000000D+00
  <mgrwgt>
 0.1614010842D-04    1    2    0
 0.555636393838214D+03 0.000000000000000D+00 0.000000000000000D+00 0.555636393838214D+03
 0.555636393838214D+03 0.000000000000000D+00 0.000000000000000D+00 -.555636393838214D+03
 0.558988901899684D+03 -.365252440630548D+03 0.325579588528277D+03 -.239650117033562D+03
 0.262646674255085D+03 0.200255574392875D+03 -.119055255585934D+03 0.121271705435375D+03
 0.289637211521659D+03 0.164996866237673D+03 -.206524332942344D+03 0.118378411598187D+03
 0.000000000000000D+00 -.000000000000000D+00 -.000000000000000D+00 -.000000000000000D+00
 0.556506725137144D+03 0.000000000000000D+00 0.000000000000000D+00 0.556506725137144D+03
 0.699596684888004D+03 0.000000000000000D+00 0.000000000000000D+00 -.699596684888004D+03
 0.562154102255247D+03 -.361203112692581D+03 0.335398818527129D+03 -.239650117033562D+03
 0.262054900404596D+03 0.202150683881576D+03 -.114459797715485D+03 0.121271705435375D+03
 0.287263279972340D+03 0.167080507012290D+03 -.201471704873099D+03 0.118378411598187D+03
 0.144631127392965D+03 -.802807820128533D+01 -.194673159385451D+02 -.143089959750860D+03
0.312558023583D-05 0.000000000000D+00 0.000000000000D+00 0.329168143356D-04 0.153907994383D-07  6 -3 21 25 1 -1 -3 2 0.68177467D-01 0.13516075D+00 0.26194637D+06 0.26194637D+06 0.26194637D+06 0.10889373D+01  1  2  1  6  6  2        3 0.161401084166D-04 0.100000000000D+01
  </mgrwgt>
  </event>
  <event>
  7     66 0.18444242E-05 0.62357086E+02 0.75467711E-02 0.89775673E-01
       -1 -1    0    0    0  503 0.00000000E+00 0.00000000E+00 0.14394154E+04 0.14394154E+04 0.32000000E+00 0.0000E+00 0.9000E+01
        1 -1    0    0  501    0 0.00000000E+00 0.00000000E+00 -.44304424E+03 0.44304436E+03 0.32000000E+00 0.0000E+00 0.9000E+01
       23  2    1    2    0    0 0.36185513E+03 0.68528866E+03 0.37607076E+03 0.86651504E+03 0.94124519E+02 0.0000E+00 0.0000E+00
       25  1    1    2    0    0 -.37036440E+03 -.67951998E+03 0.58219484E+03 0.97646967E+03 0.12500000E+03 0.0000E+00 0.9000E+01
        3  1    3    3  502    0 0.13980463E+03 0.22410760E+03 0.83902738E+02 0.27714521E+03 0.50000000E+00 0.0000E+00 0.9000E+01
       -3  1    3    3    0  502 0.22205051E+03 0.46118106E+03 0.29216802E+03 0.58936983E+03 0.50000000E+00 0.0000E+00 0.9000E+01
       21  1    1    2  501  503 0.85092617E+01 -.57686720E+01 0.38105526E+02 0.39475040E+02 0.75000000E+00 0.0000E+00 0.9000E+01
#aMCatNLO 2  0  0  1  2 0.68527911D+01 0.00000000D+00  -5  6  0 0.00000000D+00 0.00000000D+00 0.00000000D+00 0.00000000D+00 0.00000000D+00
  <mgrwgt>
 0.2105226515D-03    1    2    0
 0.787117213130404D+03 0.000000000000000D+00 0.000000000000000D+00 0.787117213130404D+03
 0.787117213130404D+03 0.000000000000000D+00 0.000000000000000D+00 -.787117213130404D+03
 0.789266059249430D+03 -.366099559844748D+03 -.682411238431087D+03 0.871890258436031D+02
 0.273313501700142D+03 0.141279800897391D+03 0.223099269819949D+03 -.704769740822665D+02
 0.511654865311237D+03 0.224819758947357D+03 0.459311968611138D+03 -.167120517613366D+02
 0.000000000000000D+00 0.000000000000000D+00 -.000000000000000D+00 0.000000000000000D+00
 0.808927393446032D+03 0.000000000000000D+00 0.000000000000000D+00 0.808927393446032D+03
 0.788346348967724D+03 0.000000000000000D+00 0.000000000000000D+00 -.788346348967724D+03
 0.788761130310575D+03 -.370364395814940D+03 -.679519984087218D+03 0.871890258436031D+02
 0.273373196728809D+03 0.139802304748206D+03 0.224100906738517D+03 -.704769740822665D+02
 0.512133666009049D+03 0.222052829338582D+03 0.461187749369521D+03 -.167120517613366D+02
 0.230057493653238D+02 0.850926172815195D+01 -.576867202082070D+01 0.205810444783083D+02
0.325161593066D-03 0.000000000000D+00 0.000000000000D+00 0.938929285200D-05 0.534736234250D-06  6 -1 1 25 3 -3 21 2 0.22144681D+00 0.68160137D-01 0.61638281D+06 0.61638281D+06 0.61638281D+06 0.10621461D+01  1  2  1  1  6  1       -1 0.210522651510D-03 0.100000000000D+01
  </mgrwgt>
  </event>
  <event>
  7     66 0.18444242E-05 0.66161431E+02 0.75467711E-02 0.94052855E-01
       -1 -1    0    0    0  501 0.00000000E+00 0.00000000E+00 0.75917186E+03 0.75917193E+03 0.32000000E+00 0.0000E+00 0.9000E+01
        1 -1    0    0  503    0 0.00000000E+00 0.00000000E+00 -.39376678E+03 0.39376691E+03 0.32000000E+00 0.0000E+00 0.9000E+01
       23  2    1    2    0    0 0.27699261E+03 -.43282435E+03 0.16863941E+03 0.54850028E+03 0.91386433E+02 0.0000E+00 0.0000E+00
       25  1    1    2    0    0 -.27983165E+03 0.41432205E+03 0.23150697E+03 0.56496813E+03 0.12500000E+03 0.0000E+00 0.9000E+01
        3  1    3    3  502    0 0.13785898E+03 -.27529525E+03 0.67232863E+02 0.31513978E+03 0.50000000E+00 0.0000E+00 0.9000E+01
       -3  1    3    3    0  502 0.13913363E+03 -.15752910E+03 0.10140655E+03 0.23336050E+03 0.50000000E+00 0.0000E+00 0.9000E+01
       21  1    1    2  503  501 0.28390434E+01 0.18502300E+02 -.34741288E+02 0.39470430E+02 0.75000000E+00 0.0000E+00 0.9000E+01
#aMCatNLO 2  0  0  2  1 0.51880710D+01 0.00000000D+00  -5  6  0 0.00000000D+00 0.00000000D+00 0.00000000D+00 0.00000000D+00 0.00000000D+00
  <mgrwgt>
 0.5402665443D-03    1    2    0
 0.519457500351304D+03 0.000000000000000D+00 0.000000000000000D+00 0.519457500351304D+03
 0.519457500351304D+03 0.000000000000000D+00 0.000000000000000D+00 -.519457500351304D+03
 0.522958036894485D+03 -.278411828885488D+03 0.423575150223702D+03 0.305131775162678D+02
 0.307336076387661D+03 0.138704840957355D+03 -.269785941327427D+03 -.493150768673332D+02
 0.208620887420463D+03 0.139706987928134D+03 -.153789208896275D+03 0.188018993510654D+02
 0.000000000000000D+00 0.000000000000000D+00 0.000000000000000D+00 -.000000000000000D+00
 0.521162550516431D+03 0.000000000000000D+00 0.000000000000000D+00 0.521162550516431D+03
 0.573590489247527D+03 0.000000000000000D+00 0.000000000000000D+00 -.573590489247527D+03
 0.516260174751887D+03 -.279831649652281D+03 0.414322050928494D+03 0.305131775162678D+02
 0.311811606105771D+03 0.137858937058189D+03 -.275298772915929D+03 -.493150768673332D+02
 0.211011841366524D+03 0.139133669200574D+03 -.157525578470509D+03 0.188018993510654D+02
 0.556694175397753D+02 0.283904339351771D+01 0.185023004579444D+02 -.524279387310956D+02
0.874719978494D-04 0.000000000000D+00 0.000000000000D+00 0.703328010090D-04 0.127106254024D-05  6 -1 1 25 3 -3 21 2 0.11679512D+00 0.60579227D-01 0.27674763D+06 0.27674763D+06 0.27674763D+06 0.10871536D+01  1  2  1  2  6  2        1 0.540266544309D-03 0.100000000000D+01
  </mgrwgt>
  </event>
  <event>
  7     66 0.18444242E-05 0.74826184E+02 0.75467711E-02 0.93582612E-01
       21 -1    0    0  503  501 0.00000000E+00 0.00000000E+00 0.39216759E+03 0.39216831E+03 0.75000000E+00 0.0000E+00 0.9000E+01
        1 -1    0    0  501    0 0.00000000E+00 0.00000000E+00 -.79486077E+03 0.79486084E+03 0.32000000E+00 0.0000E+00 0.9000E+01
       23  2    1    2    0    0 0.49113708E+03 -.21835236E+03 -.99433579E+02 0.55420116E+03 0.91424876E+02 0.0000E+00 0.0000E+00
       25  1    1    2    0    0 -.48199938E+03 0.20933527E+03 -.30424726E+03 0.61994842E+03 0.12500000E+03 0.0000E+00 0.9000E+01
        3  1    3    3  502    0 0.29369226E+03 -.83315461E+02 -.69867144E+02 0.31317451E+03 0.50000000E+00 0.0000E+00 0.9000E+01
        1  1    1    2  503    0 -.91376992E+01 0.90170898E+01 0.98765695E+00 0.12879570E+02 0.32000000E+00 0.0000E+00 0.9000E+01
       -3  1    3    3    0  502 0.19744482E+03 -.13503689E+03 -.29566436E+02 0.24102665E+03 0.50000000E+00 0.0000E+00 0.9000E+01
#aMCatNLO 2  0  0  1  2 0.14914383D+01 0.00000000D+00  -5  6  0 0.00000000D+00 0.00000000D+00 0.00000000D+00 0.00000000D+00 0.00000000D+00
  <mgrwgt>
 0.4967348550D-04    1    2    0
 0.551249538035985D+03 0.000000000000000D+00 0.000000000000000D+00 0.551249538035985D+03
 0.551249538035985D+03 0.000000000000000D+00 0.000000000000000D+00 -.551249538035985D+03
 0.554545002051624D+03 -.486571580281449D+03 0.213847120631108D+03 -.970188928025540D+02
 0.304831814950790D+03 0.291155897601197D+03 -.808081932478458D+02 0.402580998341080D+02
 0.000000000000000D+00 -.000000000000000D+00 0.000000000000000D+00 0.000000000000000D+00
 0.243122259069557D+03 0.195415682680252D+03 -.133038927383262D+03 0.567607929684460D+02
 0.561207373774355D+03 0.000000000000000D+00 0.000000000000000D+00 0.561207373774355D+03
 0.555440075776743D+03 0.000000000000000D+00 0.000000000000000D+00 -.555440075776743D+03
 0.548800800267662D+03 -.481999376749016D+03 0.209335266086135D+03 -.970188928025540D+02
 0.307926541030127D+03 0.293695134088846D+03 -.833139140903880D+02 0.402580998341080D+02
 0.140736342469829D+02 -.913769920729176D+01 0.901708977007844D+01 0.576729799761164D+01
 0.245846474006326D+03 0.197441941867462D+03 -.135038441765825D+03 0.567607929684460D+02
0.662644418185D-06 0.000000000000D+00 0.000000000000D+00 0.610506097596D-04 0.760284452829D-08  6 21 1 25 3 1 -3 2 0.60333339D-01 0.12228593D+00 0.30111700D+06 0.30111700D+06 0.30111700D+06 0.10844325D+01  1  2  1  5  5  1       -1 0.496734855012D-04 0.100000000000D+01
  </mgrwgt>
  </event>
  <event>
  7     66 0.18444242E-05 0.48327817E+02 0.75467711E-02 0.88562935E-01
       -1 -1    0    0    0  501 0.00000000E+00 0.00000000E+00 0.40570301E+03 0.40570314E+03 0.32000000E+00 0.0000E+00 0.9000E+01
        1 -1    0    0  503    0 0.00000000E+00 0.00000000E+00 -.22468367E+04 0.22468367E+04 0.32000000E+00 0.0000E+00 0.9000E+01
       23  2    1    2    0    0 0.81048379E+03 0.25355107E+03 -.80728973E+03 0.11751295E+04 0.89668635E+02 0.0000E+00 0.0000E+00
       25  1    1    2    0    0 -.81166076E+03 -.17258121E+03 -.58897026E+03 0.10252260E+04 0.12500000E+03 0.0000E+00 0.9000E+01
        3  1    3    3  502    0 0.28904289E+03 0.59603539E+02 -.23798976E+03 0.37912762E+03 0.50000000E+00 0.0000E+00 0.9000E+01
       -3  1    3    3    0  502 0.52144090E+03 0.19394753E+03 -.56929997E+03 0.79600186E+03 0.50000000E+00 0.0000E+00 0.9000E+01
       21  1    1    2  503  501 0.11769721E+01 -.80969863E+02 -.44487371E+03 0.45218434E+03 0.75000000E+00 0.0000E+00 0.9000E+01
#aMCatNLO 2  0  0  2  1 0.54652922D+02 0.00000000D+00  -5  6  0 0.00000000D+00 0.00000000D+00 0.00000000D+00 0.00000000D+00 0.00000000D+00
  <mgrwgt>
 0.1069319114D-03    1    2    0
 0.849332817903741D+03 0.000000000000000D+00 0.000000000000000D+00 0.849332817903741D+03
 0.849332817903741D+03 0.000000000000000D+00 0.000000000000000D+00 -.849332817903741D+03
 0.851565316066895D+03 -.811074048169470D+03 -.212944163110432D+03 0.797004348250103D+02
 0.292830004897619D+03 0.289239246281300D+03 0.455941132185719D+02 0.335365752238334D+01
 0.554270314842969D+03 0.521834801888171D+03 0.167350049891860D+03 -.830540923473936D+02
 0.000000000000000D+00 0.000000000000000D+00 -.000000000000000D+00 -.000000000000000D+00
 0.858027425663040D+03 0.000000000000000D+00 0.000000000000000D+00 0.858027425663040D+03
 0.106237543574031D+04 0.000000000000000D+00 0.000000000000000D+00 -.106237543574031D+04
 0.842944022028483D+03 -.811660761150737D+03 -.172581209204442D+03 0.797004348250103D+02
 0.295135473432545D+03 0.289035667008576D+03 0.595993612078385D+02 0.335365752238334D+01
 0.562515237657578D+03 0.521448122059260D+03 0.193951711366987D+03 -.830540923473936D+02
 0.219808128284747D+03 0.117697208290115D+01 -.809698633703836D+02 -.204348010077273D+03
0.150675005314D-03 0.000000000000D+00 0.000000000000D+00 0.186345395890D-04 0.173238500334D-07  6 -1 1 25 3 -3 21 2 0.62415813D-01 0.34566694D+00 0.78465283D+06 0.78465283D+06 0.78465283D+06 0.10549477D+01  1  2  1  2  6  2        1 0.106931911389D-03 0.100000000000D+01
  </mgrwgt>
  </event>
  <event>
  7     66 0.18444242E-05 0.43416584E+02 0.75467711E-02 0.90065442E-01
       -1 -1    0    0    0  501 0.00000000E+00 0.00000000E+00 0.41354905E+03 0.41354918E+03 0.32000000E+00 0.0000E+00 0.9000E+01
       21 -1    0    0  501  503 0.00000000E+00 0.00000000E+00 -.18724515E+04 0.18724517E+04 0.75000000E+00 0.0000E+00 0.9000E+01
       23  2    1    2    0    0 0.45495803E+03 -.53215628E+03 -.25135071E+03 0.74900316E+03 0.87472527E+02 0.0000E+00 0.0000E+00
       25  1    1    2    0    0 -.52808070E+03 0.51363618E+03 -.70000662E+03 0.10238777E+04 0.12500000E+03 0.0000E+00 0.9000E+01
        3  1    3    3  502    0 0.23679548E+03 -.22280919E+03 -.88863953E+02 0.33706540E+03 0.50000000E+00 0.0000E+00 0.9000E+01
       -3  1    3    3    0  502 0.21816255E+03 -.30934709E+03 -.16248676E+03 0.41193776E+03 0.50000000E+00 0.0000E+00 0.9000E+01
       -1  1    1    2    0  503 0.73122674E+02 0.18520097E+02 -.50754513E+03 0.51311994E+03 0.32000000E+00 0.0000E+00 0.9000E+01
#aMCatNLO 2  0  0  2  2 0.14059840D+04 0.00000000D+00  -5  6  0 0.00000000D+00 0.00000000D+00 0.00000000D+00 0.00000000D+00 0.00000000D+00
  <mgrwgt>
 0.5767785722D-05    1    2    0
 0.747050197292543D+03 0.000000000000000D+00 0.000000000000000D+00 0.747050197292543D+03
 0.747050197292543D+03 0.000000000000000D+00 0.000000000000000D+00 -.747050197292543D+03
 0.749718544416927D+03 -.490959720358387D+03 0.523037972870097D+03 -.178445307487169D+03
 0.352199999155362D+03 0.253795567273993D+03 -.218500826255487D+03 0.109041452497564D+03
 0.392181851012798D+03 0.237164153084394D+03 -.304537146614610D+03 0.694038549896055D+02
 0.000000000000000D+00 0.000000000000000D+00 0.000000000000000D+00 -.000000000000000D+00
 0.753077468593826D+03 0.000000000000000D+00 0.000000000000000D+00 0.753077468593826D+03
 0.102824837612925D+04 0.000000000000000D+00 0.000000000000000D+00 -.102824837612925D+04
 0.768218121994724D+03 -.528080703295599D+03 0.513636180582848D+03 -.178445307487169D+03
 0.342935998667158D+03 0.236796088912875D+03 -.222806357841575D+03 0.109041452497564D+03
 0.384849191032162D+03 0.218161939954104D+03 -.309349919518582D+03 0.694038549896055D+02
 0.285322533029029D+03 0.731226744286195D+02 0.185200967773092D+02 -.275170907535419D+03
0.836856800886D-05 0.000000000000D+00 0.000000000000D+00 0.504898207415D-05 0.229679688808D-09  6 -1 21 25 3 -3 -1 2 0.63622945D-01 0.28806945D+00 0.58240943D+06 0.58240943D+06 0.58240943D+06 0.10638589D+01  1  2  1  6  6  2        1 0.576778572241D-05 0.100000000000D+01
  </mgrwgt>
  </event>
  <event>
  7     66 0.18444242E-05 0.33896040E+02 0.75467711E-02 0.94504605E-01
       -1 -1    0    0    0  501 0.00000000E+00 0.00000000E+00 0.12075219E+04 0.12075220E+04 0.32000000E+00 0.0000E+00 0.9000E+01
       21 -1    0    0  501  503 0.00000000E+00 0.00000000E+00 -.29521455E+03 0.29521551E+03 0.75000000E+00 0.0000E+00 0.9000E+01
       23  2    1    2    0    0 0.45468057E+03 -.13713123E+03 0.75903764E+03 0.90035135E+03 0.94630972E+02 0.0000E+00 0.0000E+00
       25  1    1    2    0    0 -.45142776E+03 0.76083316E+02 0.21003915E+03 0.51895774E+03 0.12500000E+03 0.0000E+00 0.9000E+01
        3  1    3    3  502    0 0.11602145E+03 -.29617023E+02 0.27464605E+03 0.29961450E+03 0.50000000E+00 0.0000E+00 0.9000E+01
       -3  1    3    3    0  502 0.33865912E+03 -.10751420E+03 0.48439159E+03 0.60073685E+03 0.50000000E+00 0.0000E+00 0.9000E+01
       -1  1    1    2    0  503 -.32528042E+01 0.61047911E+02 -.56769405E+02 0.83428388E+02 0.32000000E+00 0.0000E+00 0.9000E+01
#aMCatNLO 2  0  0  2  1 0.12830298D+02 0.00000000D+00  -5  6  0 0.00000000D+00 0.00000000D+00 0.00000000D+00 0.00000000D+00 0.00000000D+00
  <mgrwgt>
 0.4645829561D-04    1    2    0
 0.517588412803241D+03 0.000000000000000D+00 0.000000000000000D+00 0.517588412803241D+03
 0.517588412803241D+03 0.000000000000000D+00 0.000000000000000D+00 -.517588412803241D+03
 0.520810075059235D+03 -.453052190183693D+03 0.106570166280163D+03 -.197495941507624D+03
 0.151569192442122D+03 0.115536487967500D+03 -.206297581388602D+02 0.959111730969063D+02
 0.362797558105126D+03 0.337515702216192D+03 -.859404081413032D+02 0.101584768410718D+03
 0.000000000000000D+00 -.000000000000000D+00 0.000000000000000D+00 -.000000000000000D+00
 0.524277430724353D+03 0.000000000000000D+00 0.000000000000000D+00 0.524277430724353D+03
 0.679942658849296D+03 0.000000000000000D+00 0.000000000000000D+00 -.679942658849296D+03
 0.514009090503320D+03 -.451427765190742D+03 0.760833163246702D+02 -.197495941507624D+03
 0.153412933142721D+03 0.116015238848514D+03 -.296148490718812D+02 0.959111730969063D+02
 0.369558443123338D+03 0.338665330510414D+03 -.107516378384683D+03 0.101584768410718D+03
 0.167239622804270D+03 -.325280416818593D+01 0.610479111318944D+02 -.155665228124942D+03
0.409724117103D-05 0.000000000000D+00 0.000000000000D+00 0.278011120438D-05 0.182458057503D-09  6 -1 21 25 3 -3 -1 2 0.18577263D+00 0.45417687D-01 0.25540160D+06 0.25540160D+06 0.25540160D+06 0.10897614D+01  1  2  1  6  6  2        1 0.464582956129D-04 0.100000000000D+01
  </mgrwgt>
  </event>
  <event>
  7     66 0.18444242E-05 0.29061294E+03 0.75467711E-02 0.90139255E-01
       -1 -1    0    0    0  503 0.00000000E+00 0.00000000E+00 0.76420860E+03 0.76420866E+03 0.32000000E+00 0.0000E+00 0.9000E+01
        1 -1    0    0  501    0 0.00000000E+00 0.00000000E+00 -.19575487E+04 0.19575487E+04 0.32000000E+00 0.0000E+00 0.9000E+01
       23  2    1    2    0    0 0.27821655E+03 0.31535720E+03 -.45940878E+03 0.62941173E+03 0.90819023E+02 0.0000E+00 0.0000E+00
       25  1    1    2    0    0 -.49401704E+03 -.56128827E+03 -.12613744E+04 0.14716616E+04 0.12500000E+03 0.0000E+00 0.9000E+01
        3  1    3    3  502    0 0.20408410E+03 0.16498382E+03 -.27218907E+03 0.37809671E+03 0.50000000E+00 0.0000E+00 0.9000E+01
       -3  1    3    3    0  502 0.74132445E+02 0.15037338E+03 -.18721971E+03 0.25131502E+03 0.50000000E+00 0.0000E+00 0.9000E+01
       21  1    1    2  501  503 0.21580049E+03 0.24593107E+03 0.52744310E+03 0.62068408E+03 0.75000000E+00 0.0000E+00 0.9000E+01
#aMCatNLO 2  0  0  1  2 0.27703122D+02 0.00000000D+00  -5  6  0 0.00000000D+00 0.00000000D+00 0.00000000D+00 0.00000000D+00 0.00000000D+00
  <mgrwgt>
 0.2478729523D-04    1    2    0
 0.580164258349799D+03 0.000000000000000D+00 0.000000000000000D+00 0.580164258349799D+03
 0.580164258349799D+03 0.000000000000000D+00 0.000000000000000D+00 -.580164258349799D+03
 0.583343058570102D+03 -.371087734783674D+03 -.421195279251835D+03 -.977371669888786D+02
 0.353909444241273D+03 0.261036477764677D+03 0.229883974208417D+03 0.653085783149695D+02
 0.223076013888223D+03 0.110051257018997D+03 0.191311305043418D+03 0.324285886739091D+02
 0.000000000000000D+00 0.000000000000000D+00 0.000000000000000D+00 0.000000000000000D+00
 0.242265496290068D+04 0.000000000000000D+00 0.000000000000000D+00 0.242265496290068D+04
 0.617494162811680D+03 0.000000000000000D+00 0.000000000000000D+00 -.617494162811680D+03
 0.764378772746427D+03 -.494017040798850D+03 -.561288266236405D+03 -.977371669888786D+02
 0.270438432348282D+03 0.204088041226976D+03 0.164984262030079D+03 0.653085783149695D+02
 0.170759093294987D+03 0.741285055390787D+02 0.150372933888009D+03 0.324285886739091D+02
 0.183457282732267D+04 0.215800494032795D+03 0.245931070318318D+03 0.180516080008900D+04
0.831241288072D-04 0.000000000000D+00 0.000000000000D+00 0.494263429357D-04 0.534594199035D-08  6 -1 1 25 3 -3 21 2 0.11757055D+00 0.30116131D+00 0.57409279D+06 0.57409279D+06 0.57409279D+06 0.10642947D+01  1  2  1  1  6  1       -1 0.247872952271D-04 0.100000000000D+01
  </mgrwgt>
  </event>
  <event>
  7     66 0.18444242E-05 0.80673705E+02 0.75467711E-02 0.94102928E-01
       -1 -1    0    0    0  503 0.00000000E+00 0.00000000E+00 0.52270174E+03 0.52270184E+03 0.32000000E+00 0.0000E+00 0.9000E+01
        1 -1    0    0  501    0 0.00000000E+00 0.00000000E+00 -.70393610E+03 0.70393617E+03 0.32000000E+00 0.0000E+00 0.9000E+01
       23  2    1    2    0    0 -.40043968E+03 0.29201559E+03 -.22411810E+03 0.55142774E+03 0.90656423E+02 0.0000E+00 0.0000E+00
       25  1    1    2    0    0 0.40611970E+03 -.30988948E+03 -.96389399E+02 0.53467805E+03 0.12500000E+03 0.0000E+00 0.9000E+01
        3  1    3    3  502    0 -.22735584E+03 0.11345500E+03 -.13109842E+03 0.28591915E+03 0.50000000E+00 0.0000E+00 0.9000E+01
       -3  1    3    3    0  502 -.17308384E+03 0.17856059E+03 -.93019674E+02 0.26550858E+03 0.50000000E+00 0.0000E+00 0.9000E+01
       21  1    1    2  501  503 -.56800155E+01 0.17873890E+02 0.13927314E+03 0.14053223E+03 0.75000000E+00 0.0000E+00 0.9000E+01
#aMCatNLO 2  0  0  1  2 0.27703122D+02 0.00000000D+00  -5  6  0 0.00000000D+00 0.00000000D+00 0.00000000D+00 0.00000000D+00 0.00000000D+00
  <mgrwgt>
 0.3016411574D-03    1    2    0
 0.518784391587132D+03 0.000000000000000D+00 0.000000000000000D+00 0.518784391587132D+03
 0.518784391587132D+03 0.000000000000000D+00 0.000000000000000D+00 -.518784391587132D+03
 0.522353510603723D+03 0.403239925961651D+03 -.300827401959525D+03 0.642543880272674D+02
 0.261997053375224D+03 -.228782768584498D+03 0.117938081166712D+03 -.489030652089025D+02
 0.253218219195316D+03 -.174457157377153D+03 0.182889320792813D+03 -.153513228183648D+02
 0.000000000000000D+00 -.000000000000000D+00 0.000000000000000D+00 0.000000000000000D+00
 0.708500691924412D+03 0.000000000000000D+00 0.000000000000000D+00 0.708500691924412D+03
 0.519332848393798D+03 0.000000000000000D+00 0.000000000000000D+00 -.519332848393798D+03
 0.529828578743981D+03 0.406119697664248D+03 -.309889476494780D+03 0.642543880272674D+02
 0.258755729213769D+03 -.227357493299421D+03 0.113453020474234D+03 -.489030652089025D+02
 0.249153962680145D+03 -.173082188910969D+03 0.178562565754228D+03 -.153513228183648D+02
 0.190095269680314D+03 -.568001545385759D+01 0.178738902663178D+02 0.189167843530614D+03
0.487579581293D-04 0.000000000000D+00 0.000000000000D+00 0.560798169424D-04 0.105660230328D-05  6 -1 1 25 3 -3 21 2 0.80415551D-01 0.10829772D+00 0.27428566D+06 0.27428566D+06 0.27428566D+06 0.10874430D+01  1  2  1  1  6  1       -1 0.301641157377D-03 0.100000000000D+01
  </mgrwgt>
  </event>
  <event>
  7     66 0.18444242E-05 0.49360143E+02 0.75467711E-02 0.95139375E-01
       -1 -1    0    0    0  501 0.00000000E+00 0.00000000E+00 0.15563539E+03 0.15563572E+03 0.32000000E+00 0.0000E+00 0.9000E+01
        1 -1    0    0  503    0 0.00000000E+00 0.00000000E+00 -.15530144E+04 0.15530144E+04 0.32000000E+00 0.0000E+00 0.9000E+01
       23  2    1    2    0    0 0.41884014E+03 0.33461152E+02 -.49364012E+03 0.65460408E+03 0.90990202E+02 0.0000E+00 0.0000E+00
       25  1    1    2    0    0 -.44068497E+03 -.93208750E+02 -.70947495E+03 0.84962981E+03 0.12500000E+03 0.0000E+00 0.9000E+01
        3  1    3    3  502    0 0.23621079E+03 -.12535798E+02 -.22453473E+03 0.32614226E+03 0.50000000E+00 0.0000E+00 0.9000E+01
       -3  1    3    3    0  502 0.18262936E+03 0.45996950E+02 -.26910540E+03 0.32846182E+03 0.50000000E+00 0.0000E+00 0.9000E+01
       21  1    1    2  503  501 0.21844822E+02 0.59747598E+02 -.19426394E+03 0.20441627E+03 0.75000000E+00 0.0000E+00 0.9000E+01
#aMCatNLO 2  0  0  2  1 0.12830298D+02 0.00000000D+00  -5  6  0 0.00000000D+00 0.00000000D+00 0.00000000D+00 0.00000000D+00 0.00000000D+00
  <mgrwgt>
 0.3009467696D-03    1    2    0
 0.450329532631764D+03 0.000000000000000D+00 0.000000000000000D+00 0.450329532631764D+03
 0.450329532631764D+03 0.000000000000000D+00 0.000000000000000D+00 -.450329532631764D+03
 0.454407536997923D+03 -.429487193217586D+03 -.625818094253765D+02 -.498545652036527D+02
 0.249667809371638D+03 0.242193695841933D+03 0.382181039676021D+01 0.605113418802568D+02
 0.196583718893966D+03 0.187293497375653D+03 0.587599990286163D+02 -.106567766766042D+02
 0.000000000000000D+00 0.000000000000000D+00 0.000000000000000D+00 -.000000000000000D+00
 0.466670638808404D+03 0.000000000000000D+00 0.000000000000000D+00 0.466670638808404D+03
 0.517929675234139D+03 0.000000000000000D+00 0.000000000000000D+00 -.517929675234139D+03
 0.470108060680490D+03 -.440684966852566D+03 -.932087497785419D+02 -.498545652036527D+02
 0.244162065234095D+03 0.236212406652316D+03 -.125375654235511D+02 0.605113418802568D+02
 0.188632816569103D+03 0.182627737733091D+03 0.459987174620242D+02 -.106567766766042D+02
 0.816973715588548D+02 0.218448224671596D+02 0.597475977400688D+02 -.512590364257345D+02
0.234533121242D-04 0.000000000000D+00 0.000000000000D+00 0.437099244872D-04 0.694757721316D-07  6 -1 1 25 3 -3 21 2 0.23943848D-01 0.23892446D+00 0.22845978D+06 0.22845978D+06 0.22845978D+06 0.10934151D+01  1  2  1  2  6  2        1 0.300946769559D-03 0.100000000000D+01
  </mgrwgt>
  </event>
  <event>
  7     66 0.18444242E-05 0.80322669E+02 0.75467711E-02 0.94907293E-01
       -1 -1    0    0    0  503 0.00000000E+00 0.00000000E+00 0.22707609E+03 0.22707631E+03 0.32000000E+00 0.0000E+00 0.9000E+01
        1 -1    0    0  501    0 0.00000000E+00 0.00000000E+00 -.11811266E+04 0.11811266E+04 0.32000000E+00 0.0000E+00 0.9000E+01
       23  2    1    2    0    0 0.89276773E+02 -.46394324E+03 -.44462952E+03 0.65515240E+03 0.91189843E+02 0.0000E+00 0.0000E+00
       25  1    1    2    0    0 -.10312303E+03 0.46137680E+03 -.53439762E+03 0.72436781E+03 0.12500000E+03 0.0000E+00 0.9000E+01
        3  1    3    3  502    0 0.42704338E+02 -.22351247E+03 -.15241126E+03 0.27388123E+03 0.50000000E+00 0.0000E+00 0.9000E+01
       -3  1    3    3    0  502 0.46572435E+02 -.24043077E+03 -.29221826E+03 0.38127117E+03 0.50000000E+00 0.0000E+00 0.9000E+01
       21  1    1    2  501  503 0.13846261E+02 0.25664391E+01 0.24976627E+02 0.28682746E+02 0.75000000E+00 0.0000E+00 0.9000E+01
#aMCatNLO 2  0  0  1  2 0.27703122D+02 0.00000000D+00  -5  6  0 0.00000000D+00 0.00000000D+00 0.00000000D+00 0.00000000D+00 0.00000000D+00
  <mgrwgt>
 0.5377887732D-03    1    2    0
 0.485896997084569D+03 0.000000000000000D+00 0.000000000000000D+00 0.485896997084569D+03
 0.485896997084569D+03 0.000000000000000D+00 0.000000000000000D+00 -.485896997084569D+03
 0.489657780045981D+03 -.961452649820200D+02 0.462670145211643D+03 -.288472929567525D+02
 0.235263085592897D+03 0.460558030995363D+02 -.222890737341027D+03 0.595592280937302D+02
 0.246873128530259D+03 0.500894618824838D+02 -.239779407870616D+03 -.307119351369777D+02
 0.000000000000000D+00 0.000000000000000D+00 0.000000000000000D+00 0.000000000000000D+00
 0.551054502199299D+03 0.000000000000000D+00 0.000000000000000D+00 0.551054502199299D+03
 0.486709475801107D+03 0.000000000000000D+00 0.000000000000000D+00 -.486709475801107D+03
 0.489857199981364D+03 -.103123033810555D+03 0.461376798246678D+03 -.288472929567525D+02
 0.235220214005249D+03 0.427042221954945D+02 -.223511961273289D+03 0.595592280937302D+02
 0.246818605473922D+03 0.465725511024732D+02 -.240431276110328D+03 -.307119351369777D+02
 0.658679585398703D+02 0.138462605125877D+02 0.256643913693861D+01 0.643450263981919D+02
0.441057273871D-04 0.000000000000D+00 0.000000000000D+00 0.422253141275D-04 0.136519095999D-05  6 -1 1 25 3 -3 21 2 0.34934650D-01 0.18171101D+00 0.23792176D+06 0.23792176D+06 0.23792176D+06 0.10920807D+01  1  2  1  1  6  1       -1 0.537788773243D-03 0.100000000000D+01
  </mgrwgt>
  </event>
  <event>
  7     66 0.18444242E-05 0.69059861E+02 0.75467711E-02 0.94971692E-01
       -1 -1    0    0    0  503 0.00000000E+00 0.00000000E+00 0.37450218E+03 0.37450232E+03 0.32000000E+00 0.0000E+00 0.9000E+01
        1 -1    0    0  501    0 0.00000000E+00 0.00000000E+00 -.10427325E+04 0.10427326E+04 0.32000000E+00 0.0000E+00 0.9000E+01
       23  2    1    2    0    0 0.32042896E+03 0.34754258E+03 -.73533039E+03 0.87890178E+03 0.91087790E+02 0.0000E+00 0.0000E+00
       25  1    1    2    0    0 -.30976114E+03 -.34693186E+03 0.11527936E+02 0.48173808E+03 0.12500000E+03 0.0000E+00 0.9000E+01
        3  1    3    3  502    0 0.10243275E+03 0.16116903E+03 -.34787908E+03 0.39684761E+03 0.50000000E+00 0.0000E+00 0.9000E+01
       -3  1    3    3    0  502 0.21799621E+03 0.18637355E+03 -.38745131E+03 0.48205416E+03 0.50000000E+00 0.0000E+00 0.9000E+01
       21  1    1    2  501  503 -.10667826E+02 -.61071498E+00 0.55572114E+02 0.56595034E+02 0.75000000E+00 0.0000E+00 0.9000E+01
#aMCatNLO 2  0  0  1  2 0.20456570D+02 0.00000000D+00  -5  6  0 0.00000000D+00 0.00000000D+00 0.00000000D+00 0.00000000D+00 0.00000000D+00
  <mgrwgt>
 0.6977578981D-03    1    2    0
 0.576050484715395D+03 0.000000000000000D+00 0.000000000000000D+00 0.576050484715395D+03
 0.576050484715395D+03 0.000000000000000D+00 0.000000000000000D+00 -.576050484715395D+03
 0.579230767838017D+03 -.315110139469954D+03 -.347238085757625D+03 0.316250840651570D+03
 0.249090312637198D+03 0.100118144680896D+03 0.161035960559033D+03 -.161523250221700D+03
 0.323779888955574D+03 0.214991994789058D+03 0.186202125198592D+03 -.154727590429870D+03
 0.000000000000000D+00 -.000000000000000D+00 -.000000000000000D+00 0.000000000000000D+00
 0.677538654285899D+03 0.000000000000000D+00 0.000000000000000D+00 0.677538654285899D+03
 0.576356581531103D+03 0.000000000000000D+00 0.000000000000000D+00 -.576356581531103D+03
 0.576153864987349D+03 -.309761139099117D+03 -.346931864536905D+03 0.316250840651570D+03
 0.250113428183123D+03 0.102429272004999D+03 0.161168268687909D+03 -.161523250221700D+03
 0.325883226182273D+03 0.217999692957325D+03 0.186374310829698D+03 -.154727590429870D+03
 0.101744716464258D+03 -.106678258632070D+02 -.610714980701687D+00 0.101182072754796D+03
0.110703943369D-03 0.000000000000D+00 0.000000000000D+00 0.497607899373D-04 0.280623792356D-05  6 -1 1 25 3 -3 21 2 0.57615596D-01 0.16042002D+00 0.23525285D+06 0.23525285D+06 0.23525285D+06 0.10924511D+01  1  2  1  1  6  1       -1 0.697757898108D-03 0.100000000000D+01
  </mgrwgt>
  </event>
  <event>
  7     66 0.18444242E-05 0.52370714E+02 0.75467711E-02 0.93576315E-01
       -1 -1    0    0    0  501 0.00000000E+00 0.00000000E+00 0.15268658E+03 0.15268692E+03 0.32000000E+00 0.0000E+00 0.9000E+01
        1 -1    0    0  503    0 0.00000000E+00 0.00000000E+00 -.34486930E+04 0.34486930E+04 0.32000000E+00 0.0000E+00 0.9000E+01
       23  2    1    2    0    0 -.44563663E+03 0.23765129E+03 -.60072182E+03 0.79010957E+03 0.91303251E+02 0.0000E+00 0.0000E+00
       25  1    1    2    0    0 0.47595319E+03 -.18808685E+03 -.11503378E+04 0.12652313E+04 0.12500000E+03 0.0000E+00 0.9000E+01
        3  1    3    3  502    0 -.21663268E+03 0.64301946E+02 -.26943850E+03 0.35165582E+03 0.50000000E+00 0.0000E+00 0.9000E+01
       -3  1    3    3    0  502 -.22900395E+03 0.17334934E+03 -.33128332E+03 0.43845375E+03 0.50000000E+00 0.0000E+00 0.9000E+01
       21  1    1    2  503  501 -.30316566E+02 -.49564441E+02 -.15449468E+04 0.15460391E+04 0.75000000E+00 0.0000E+00 0.9000E+01
#aMCatNLO 2  0  0  2  4 0.67698400D+02 0.00000000D+00  -5  6  0 0.00000000D+00 0.00000000D+00 0.00000000D+00 0.00000000D+00 0.00000000D+00
  <mgrwgt>
 0.9717186914D-04    1    2    0
 0.537317510099128D+03 0.000000000000000D+00 0.000000000000000D+00 0.537317510099128D+03
 0.537317510099128D+03 0.000000000000000D+00 0.000000000000000D+00 -.537317510099128D+03
 0.540708762152265D+03 0.460654601561191D+03 -.213098461956872D+03 -.138301659571931D+03
 0.236683333177576D+03 -.223255376041457D+03 0.534706471226388D+02 0.575927701098082D+02
 0.297242924868416D+03 -.237399225519734D+03 0.159627814834233D+03 0.807088894621230D+02
 0.000000000000000D+00 -.000000000000000D+00 -.000000000000000D+00 -.000000000000000D+00
 0.540033605240240D+03 0.000000000000000D+00 0.000000000000000D+00 0.540033605240240D+03
 0.975067395213009D+03 0.000000000000000D+00 0.000000000000000D+00 -.975067395213009D+03
 0.544665452921775D+03 0.475953194922523D+03 -.188086849112784D+03 -.138301659571931D+03
 0.233196920797170D+03 -.216632308315835D+03 0.642986756793115D+02 0.575927701098082D+02
 0.298342139649238D+03 -.229004320253336D+03 0.173352613933519D+03 0.807088894621230D+02
 0.438896487085065D+03 -.303165663533516D+02 -.495644405000464D+02 -.435033789972769D+03
0.165999058565D-03 0.000000000000D+00 0.000000000000D+00 0.568520759425D-04 0.126384560600D-06  6 -1 1 25 3 -3 21 2 0.23490257D-01 0.53056787D+00 0.30145929D+06 0.30145929D+06 0.30145929D+06 0.10843960D+01  1  2  1  2  6  2        1 0.971718691418D-04 0.100000000000D+01
  </mgrwgt>
  </event>
  <event>
  6     66 0.18444242E-05 0.72385428E+02 0.75467711E-02 0.90173565E-01
       -1 -1    0    0    0  501 0.00000000E+00 0.00000000E+00 0.32496984E+03 0.32497000E+03 0.32000000E+00 0.0000E+00 0.9000E+01
        1 -1    0    0  501    0 -.00000000E+00 -.00000000E+00 -.20977398E+04 0.20977399E+04 0.32000000E+00 0.0000E+00 0.9000E+01
       25  1    1    2    0    0 0.45584415E+03 0.52717903E+03 -.12985362E+04 0.14790310E+04 0.12500000E+03 0.0000E+00 0.9000E+01
        3  1    1    2  503    0 -.10949725E+03 -.27554282E+03 -.16021693E+03 0.33702108E+03 0.50000000E+00 0.0000E+00 0.9000E+01
       -3  1    1    2    0  502 -.24185993E+03 -.30432996E+03 -.17894407E+03 0.42794180E+03 0.50000000E+00 0.0000E+00 0.9000E+01
       21  1    1    2  502  503 -.10448697E+03 0.52693750E+02 -.13507282E+03 0.17871594E+03 0.75000000E+00 0.0000E+00 0.9000E+01
#aMCatNLO 2  0  0  4  4 0.31000039D+03 0.00000000D+00  -5  6  0 0.00000000D+00 0.00000000D+00 0.00000000D+00 0.00000000D+00 0.00000000D+00
  <mgrwgt>
 0.1478743211D-02    1    2    0
 0.825652707875319D+03 0.000000000000000D+00 0.000000000000000D+00 0.825652707875319D+03
 0.825652707875319D+03 -.000000000000000D+00 -.000000000000000D+00 -.825652707875319D+03
 0.829405878397344D+03 0.490883769522001D+03 0.563670263496678D+03 -.337043127788605D+03
 0.414253821887556D+03 -.267341787839178D+03 -.278391722368114D+03 0.150441504713008D+03
 0.407645715465737D+03 -.223541981682823D+03 -.285278541128564D+03 0.186601623075597D+03
 0.000000000000000D+00 0.000000000000000D+00 0.000000000000000D+00 -.000000000000000D+00
 0.825652707875319D+03 0.000000000000000D+00 0.000000000000000D+00 0.825652707875319D+03
 0.825652707875319D+03 -.000000000000000D+00 -.000000000000000D+00 -.825652707875319D+03
 0.775837076405714D+03 0.455796707850766D+03 0.527132961900688D+03 -.317298551392811D+03
 0.322095249771532D+03 -.109084489728039D+03 -.275352491228720D+03 0.126597510245251D+03
 0.435962709534239D+03 -.241981396567518D+03 -.304480105203907D+03 0.196978052977195D+03
 0.117410380039153D+03 -.104730821555209D+03 0.526996345319390D+02 -.627701182963445D+01
0.104680572176D-02 0.000000000000D+00 0.000000000000D+00 0.105836130558D-06 0.234988856604D-09  6 -1 1 25 3 -3 21 2 0.49995374D-01 0.32272922D+00 0.57027227D+06 0.57027227D+06 0.57027227D+06 0.10644973D+01  1  2  1  3  6  4        3 0.147874321117D-02 0.100000000000D+01
  </mgrwgt>
  </event>
  <event>
  7     66 0.18444242E-05 0.41286020E+02 0.75467711E-02 0.92177894E-01
       -1 -1    0    0    0  503 0.00000000E+00 0.00000000E+00 0.11250366E+04 0.11250366E+04 0.32000000E+00 0.0000E+00 0.9000E+01
        1 -1    0    0  501    0 0.00000000E+00 0.00000000E+00 -.36187843E+03 0.36187857E+03 0.32000000E+00 0.0000E+00 0.9000E+01
       23  2    1    2    0    0 -.47227968E+03 0.36727949E+03 0.34572288E+03 0.69722373E+03 0.93028514E+02 0.0000E+00 0.0000E+00
       25  1    1    2    0    0 0.47387483E+03 -.38664152E+03 0.34198782E+03 0.71177924E+03 0.12500000E+03 0.0000E+00 0.9000E+01
        3  1    3    3  502    0 -.34425345E+03 0.31360907E+03 0.28260720E+03 0.54472761E+03 0.50000000E+00 0.0000E+00 0.9000E+01
       -3  1    3    3    0  502 -.12802623E+03 0.53670421E+02 0.63115683E+02 0.15249613E+03 0.50000000E+00 0.0000E+00 0.9000E+01
       21  1    1    2  501  503 -.15951586E+01 0.19362030E+02 0.75447453E+02 0.77912216E+02 0.75000000E+00 0.0000E+00 0.9000E+01
#aMCatNLO 2  0  0  1  1 0.56547670D+02 0.00000000D+00  -5  6  0 0.00000000D+00 0.00000000D+00 0.00000000D+00 0.00000000D+00 0.00000000D+00
  <mgrwgt>
 0.1361619229D-03    1    2    0
 0.614810123815434D+03 0.000000000000000D+00 0.000000000000000D+00 0.614810123815434D+03
 0.614810123815434D+03 0.000000000000000D+00 0.000000000000000D+00 -.614810123815434D+03
 0.617644615087632D+03 0.473069330284942D+03 -.376864326648893D+03 -.620955634343185D+01
 0.471530811416997D+03 -.344867831770669D+03 0.320998156075411D+03 0.191746843925872D+02
 0.140444821126239D+03 -.128201498514272D+03 0.558661705734814D+02 -.129651280491554D+02
 0.000000000000000D+00 -.000000000000000D+00 0.000000000000000D+00 0.000000000000000D+00
 0.659858264706984D+03 0.000000000000000D+00 0.000000000000000D+00 0.659858264706984D+03
 0.616985038338049D+03 0.000000000000000D+00 0.000000000000000D+00 -.616985038338049D+03
 0.624269641189090D+03 0.473874833663672D+03 -.386641524335656D+03 -.620955634343185D+01
 0.466087723645220D+03 -.344259694055737D+03 0.313616582246344D+03 0.191746843925872D+02
 0.139416348543855D+03 -.128019981057165D+03 0.536629122028780D+02 -.129651280491554D+02
 0.470695896668669D+02 -.159515855076970D+01 0.193620298864338D+02 0.428732263689353D+02
0.609931321379D-04 0.000000000000D+00 0.000000000000D+00 0.114392582839D-04 0.187650031307D-06  6 -1 1 25 3 -3 21 2 0.17308173D+00 0.55673350D-01 0.38948315D+06 0.38948315D+06 0.38948315D+06 0.10762628D+01  1  2  1  1  6  1       -1 0.136161922915D-03 0.100000000000D+01
  </mgrwgt>
  </event>
  <event>
  7     66 0.18444242E-05 0.69888771E+02 0.75467711E-02 0.94873108E-01
       -1 -1    0    0    0  503 0.00000000E+00 0.00000000E+00 0.15574541E+03 0.15574574E+03 0.32000000E+00 0.0000E+00 0.9000E+01
        1 -1    0    0  501    0 0.00000000E+00 0.00000000E+00 -.17600690E+04 0.17600691E+04 0.32000000E+00 0.0000E+00 0.9000E+01
       23  2    1    2    0    0 0.10397927E+03 0.45761328E+03 -.10961610E+04 0.11958000E+04 0.90260913E+02 0.0000E+00 0.0000E+00
       25  1    1    2    0    0 -.12194451E+03 -.44814309E+03 -.50817506E+03 0.69969249E+03 0.12500000E+03 0.0000E+00 0.9000E+01
        3  1    3    3  502    0 0.34149007E+01 0.20883229E+03 -.51160532E+03 0.55259645E+03 0.50000000E+00 0.0000E+00 0.9000E+01
       -3  1    3    3    0  502 0.10056437E+03 0.24878099E+03 -.58455568E+03 0.64320352E+03 0.50000000E+00 0.0000E+00 0.9000E+01
       21  1    1    2  501  503 0.17965240E+02 -.94701937E+01 0.12453071E-01 0.20322330E+02 0.75000000E+00 0.0000E+00 0.9000E+01
#aMCatNLO 2  0  0  1  2 0.23981752D+02 0.00000000D+00  -5  6  0 0.00000000D+00 0.00000000D+00 0.00000000D+00 0.00000000D+00 0.00000000D+00
  <mgrwgt>
 0.7108515188D-03    1    2    0
 0.504624871111864D+03 0.000000000000000D+00 0.000000000000000D+00 0.504624871111864D+03
 0.504624871111864D+03 0.000000000000000D+00 0.000000000000000D+00 -.504624871111864D+03
 0.508329587254113D+03 -.112915875428404D+03 -.452902437413803D+03 0.157807973622406D+03
 0.222677779320147D+03 0.739180779075225D+01 0.206733101962775D+03 -.824146779001517D+02
 0.278242375649468D+03 0.105524067637652D+03 0.246169335451028D+03 -.753932957222544D+02
 0.000000000000000D+00 0.000000000000000D+00 -.000000000000000D+00 0.000000000000000D+00
 0.539973988184408D+03 0.000000000000000D+00 0.000000000000000D+00 0.539973988184408D+03
 0.507652343205163D+03 0.000000000000000D+00 0.000000000000000D+00 -.507652343205163D+03
 0.506192695030310D+03 -.121944508845383D+03 -.448143085103069D+03 0.157807973622406D+03
 0.224531137686412D+03 0.341191947980764D+01 0.208831059621963D+03 -.824146779001517D+02
 0.278730216066041D+03 0.100567349148846D+03 0.248782219206945D+03 -.753932957222544D+02
 0.381722826068092D+02 0.179652402167295D+02 -.947019372583995D+01 0.323216449792454D+02
0.764683179310D-04 0.000000000000D+00 0.000000000000D+00 0.376199045716D-04 0.581439150780D-06  6 -1 1 25 3 -3 21 2 0.23960687D-01 0.27077792D+00 0.23935227D+06 0.23935227D+06 0.23935227D+06 0.10918840D+01  1  2  1  1  6  1       -1 0.710851518763D-03 0.100000000000D+01
  </mgrwgt>
  </event>
  <event>
  7     66 0.18444242E-05 0.21279192E+02 0.75467711E-02 0.95190096E-01
       -1 -1    0    0    0  503 0.00000000E+00 0.00000000E+00 0.47854078E+03 0.47854089E+03 0.32000000E+00 0.0000E+00 0.9000E+01
        1 -1    0    0  501    0 0.00000000E+00 0.00000000E+00 -.56624637E+03 0.56624646E+03 0.32000000E+00 0.0000E+00 0.9000E+01
       23  2    1    2    0    0 0.13328478E+03 0.44541892E+03 0.84353794E+02 0.48132336E+03 0.91617488E+02 0.0000E+00 0.0000E+00
       25  1    1    2    0    0 -.14061224E+03 -.43091977E+03 -.21538695E+03 0.51718487E+03 0.12500000E+03 0.0000E+00 0.9000E+01
        3  1    3    3  502    0 0.76324086E+01 0.44116761E+02 -.18446753E+02 0.48425974E+02 0.50000000E+00 0.0000E+00 0.9000E+01
       -3  1    3    3    0  502 0.12565237E+03 0.40130216E+03 0.10280055E+03 0.43289739E+03 0.50000000E+00 0.0000E+00 0.9000E+01
       21  1    1    2  501  503 0.73274598E+01 -.14499156E+02 0.43327567E+02 0.46279129E+02 0.75000000E+00 0.0000E+00 0.9000E+01
#aMCatNLO 2  0  0  1  5 0.18680277D+01 0.00000000D+00  -5  6  0 0.00000000D+00 0.00000000D+00 0.00000000D+00 0.00000000D+00 0.00000000D+00
  <mgrwgt>
 0.2918520562D-03    1    2    0
 0.494869950241659D+03 0.000000000000000D+00 0.000000000000000D+00 0.494869950241659D+03
 0.494869950241659D+03 0.000000000000000D+00 0.000000000000000D+00 -.494869950241659D+03
 0.498523049367826D+03 -.136941471887192D+03 -.438183271519937D+03 -.148804182026079D+03
 0.458111140272443D+02 0.797018868909136D+01 0.434307853902810D+02 -.122025055239005D+02
 0.445405737088248D+03 0.128971283198100D+03 0.394752486129656D+03 0.161006687549979D+03
 0.000000000000000D+00 0.000000000000000D+00 -.000000000000000D+00 0.000000000000000D+00
 0.546058630810634D+03 0.000000000000000D+00 0.000000000000000D+00 0.546058630810634D+03
 0.496227232749202D+03 0.000000000000000D+00 0.000000000000000D+00 -.496227232749202D+03
 0.493184886906471D+03 -.140612239678565D+03 -.430919767633229D+03 -.148804182026079D+03
 0.463945156853813D+02 0.762889318932557D+01 0.441061212682110D+02 -.122025055239005D+02
 0.450293815445027D+03 0.125655886650464D+03 0.401312801866958D+03 0.161006687549979D+03
 0.524126455229568D+02 0.732745983877548D+01 -.144991555019405D+02 0.498313980614311D+02
0.281106312586D-04 0.000000000000D+00 0.000000000000D+00 0.301390074598D-04 0.732120679790D-06  6 -1 1 25 3 -3 21 2 0.73621277D-01 0.87114372D-01 0.22644860D+06 0.22644860D+06 0.22644860D+06 0.10937066D+01  1  2  1  1  6  1       -1 0.291852056159D-03 0.100000000000D+01
  </mgrwgt>
  </event>
  <event>
  7     66 0.18444242E-05 0.38326773E+02 0.75467711E-02 0.91412367E-01
       -1 -1    0    0    0  503 0.00000000E+00 0.00000000E+00 0.35340859E+03 0.35340873E+03 0.32000000E+00 0.0000E+00 0.9000E+01
        1 -1    0    0  501    0 0.00000000E+00 0.00000000E+00 -.20330478E+04 0.20330478E+04 0.32000000E+00 0.0000E+00 0.9000E+01
       23  2    1    2    0    0 0.32141903E+02 0.63756852E+03 -.13104671E+03 0.65807930E+03 0.91478970E+02 0.0000E+00 0.0000E+00
       25  1    1    2    0    0 -.85935570E+02 -.62648822E+03 -.15441270E+04 0.16732680E+04 0.12500000E+03 0.0000E+00 0.9000E+01
        3  1    3    3  502    0 -.19413234E+02 0.21786922E+03 -.76483477E+02 0.23171932E+03 0.50000000E+00 0.0000E+00 0.9000E+01
       -3  1    3    3    0  502 0.51555137E+02 0.41969930E+03 -.54563232E+02 0.42635998E+03 0.50000000E+00 0.0000E+00 0.9000E+01
       21  1    1    2  501  503 0.53793667E+02 -.11080294E+02 -.44654743E+01 0.55109295E+02 0.75000000E+00 0.0000E+00 0.9000E+01
#aMCatNLO 2  0  0  1  2 0.36330674D+02 0.00000000D+00  -5  6  0 0.00000000D+00 0.00000000D+00 0.00000000D+00 0.00000000D+00 0.00000000D+00
  <mgrwgt>
 0.2018220694D-03    1    2    0
 0.810240166546522D+03 0.000000000000000D+00 0.000000000000000D+00 0.810240166546522D+03
 0.810240166546522D+03 0.000000000000000D+00 0.000000000000000D+00 -.810240166546522D+03
 0.812479193437847D+03 -.590036185915929D+02 -.632035605544152D+03 -.491474318847841D+03
 0.252161051275686D+03 -.110139950606327D+02 0.216132696888562D+03 0.129423896668816D+03
 0.555840088379511D+03 0.700176136522256D+02 0.415902908655590D+03 0.362050422179025D+03
 0.000000000000000D+00 0.000000000000000D+00 -.000000000000000D+00 0.000000000000000D+00
 0.873274102459666D+03 0.000000000000000D+00 0.000000000000000D+00 0.873274102459666D+03
 0.822758287800521D+03 0.000000000000000D+00 0.000000000000000D+00 -.822758287800521D+03
 0.810582768288271D+03 -.859355697087765D+02 -.626488224963371D+03 -.491474318847841D+03
 0.254149306908009D+03 -.194153538123499D+02 0.217863189201899D+03 0.129423896668816D+03
 0.556678743018874D+03 0.515572569371297D+02 0.419705329947312D+03 0.362050422179025D+03
 0.746215720450327D+02 0.537936665839967D+02 -.110802941858396D+02 0.505158146591446D+02
0.146771984106D-03 0.000000000000D+00 0.000000000000D+00 0.387581576385D-04 0.790430393462D-07  6 -1 1 25 3 -3 21 2 0.54370442D-01 0.31277589D+00 0.44963771D+06 0.44963771D+06 0.44963771D+06 0.10717843D+01  1  2  1  1  6  1       -1 0.201822069385D-03 0.100000000000D+01
  </mgrwgt>
  </event>
</LesHouchesEvents>
