<event>
 5    0  0.2159162E+000  0.2577816E+03  0.7546771E-02  0.1108483E+00
         21   -1    0    0  502  501  0.00000000000E+00  0.00000000000E+00  0.55036268084E+02  0.55036268084E+02  0.00000000000E+00 0. -1.
         21   -1    0    0  503  502 -0.00000000000E+00 -0.00000000000E+00 -0.11282878010E+04  0.11282878010E+04  0.00000000000E+00 0. -1.
         25    1    1    2    0    0  0.19799751496E+01  0.22543829004E+03 -0.46936910507E+03  0.53549855248E+03  0.12500000000E+03 0.  0.
         21    1    1    2  503  504 -0.14193232558E+02 -0.16487799604E+03 -0.50305982365E+03  0.52958038823E+03  0.00000000000E+00 0. -1.
         21    1    1    2  504  501  0.12213257408E+02 -0.60560294006E+02 -0.10082260420E+03  0.11824512838E+03  0.00000000000E+00 0. -1.
<mgrwt>
<rscale>  4 0.25778158E+03</rscale>
<asrwt>0</asrwt>
<pdfrwt beam="1">  1       21 0.84671182E-02 0.25778158E+03</pdfrwt>
<pdfrwt beam="2">  1       21 0.17358274E+00 0.25778158E+03</pdfrwt>
<totfact> 0.21017992E+04</totfact>
</mgrwt>
</event>
<event>
 5    0  0.2159162E+000  0.2775436E+03  0.7546771E-02  0.1097038E+00
         21   -1    0    0  502  501  0.00000000000E+00  0.00000000000E+00  0.16858313284E+04  0.16858313284E+04  0.00000000000E+00 0.  1.
         21   -1    0    0  503  502 -0.00000000000E+00 -0.00000000000E+00 -0.14309667622E+03  0.14309667622E+03  0.00000000000E+00 0.  1.
         25    1    1    2    0    0  0.10711089412E+02 -0.24756958111E+03  0.15480334802E+04  0.15727167834E+04  0.12500000000E+03 0.  0.
         21    1    1    2  503  504  0.57451363041E+01  0.30255676776E+02  0.20137419021E+02  0.36795763522E+02  0.00000000000E+00 0.  1.
         21    1    1    2  504  501 -0.16456225716E+02  0.21731390434E+03 -0.25436247105E+02  0.21941545764E+03  0.00000000000E+00 0.  1.
<mgrwt>
<rscale>  4 0.27754356E+03</rscale>
<asrwt>0</asrwt>
<pdfrwt beam="1">  1       21 0.25935865E+00 0.27754356E+03</pdfrwt>
<pdfrwt beam="2">  1       21 0.22014875E-01 0.27754356E+03</pdfrwt>
<totfact> 0.10342303E+03</totfact>
</mgrwt>
</event>
<event>
 5    0  0.2623081E+000  0.2458932E+03  0.7546771E-02  0.1115928E+00
         21   -1    0    0  502  501  0.00000000000E+00  0.00000000000E+00  0.46894387656E+03  0.46894387656E+03  0.00000000000E+00 0.  1.
         21   -1    0    0  503  502 -0.00000000000E+00 -0.00000000000E+00 -0.19776273802E+03  0.19776273802E+03  0.00000000000E+00 0.  1.
         25    1    1    2    0    0 -0.19358586678E+03  0.18135430443E+03  0.21884463553E+03  0.36590004927E+03  0.12500000000E+03 0.  0.
         21    1    1    2  503  504  0.53434015417E+02 -0.44461668054E+02  0.76550600529E+02  0.10340226483E+03  0.00000000000E+00 0.  1.
         21    1    1    2  504  501  0.14015185137E+03 -0.13689263638E+03 -0.24214097519E+02  0.19740430050E+03  0.00000000000E+00 0.  1.
<mgrwt>
<rscale>  4 0.24589315E+03</rscale>
<asrwt>0</asrwt>
<pdfrwt beam="1">  1       21 0.72145211E-01 0.24589315E+03</pdfrwt>
<pdfrwt beam="2">  1       21 0.30425037E-01 0.24589315E+03</pdfrwt>
<totfact> 0.17433543E+04</totfact>
</mgrwt>
</event>
<event>
 5    0  0.2159162E+000  0.5012551E+03  0.7546771E-02  0.1013452E+00
         21   -1    0    0  502  501  0.00000000000E+00  0.00000000000E+00  0.53257657545E+03  0.53257657545E+03  0.00000000000E+00 0.  1.
         21   -1    0    0  503  502 -0.00000000000E+00 -0.00000000000E+00 -0.97406268440E+03  0.97406268440E+03  0.00000000000E+00 0. -1.
         25    1    1    2    0    0  0.43267522294E+03 -0.22005413819E+03  0.32479433877E+03  0.59728388123E+03  0.12500000000E+03 0.  0.
         21    1    1    2  503  504 -0.18150721437E+02  0.15778957103E+02 -0.66866571447E+02  0.71060274085E+02  0.00000000000E+00 0.  1.
         21    1    1    2  504  501 -0.41452450150E+03  0.20427518109E+03 -0.69941387627E+03  0.83829510453E+03  0.00000000000E+00 0. -1.
<mgrwt>
<rscale>  4 0.50125510E+03</rscale>
<asrwt>0</asrwt>
<pdfrwt beam="1">  1       21 0.81934858E-01 0.50125510E+03</pdfrwt>
<pdfrwt beam="2">  1       21 0.14985580E+00 0.50125510E+03</pdfrwt>
<totfact> 0.31463475E+02</totfact>
</mgrwt>
</event>
<event>
 5    0  0.2159162E+000  0.3519367E+03  0.7546771E-02  0.1061823E+00
         21   -1    0    0  502  501  0.00000000000E+00  0.00000000000E+00  0.17728005530E+03  0.17728005530E+03  0.00000000000E+00 0.  1.
         21   -1    0    0  503  502 -0.00000000000E+00 -0.00000000000E+00 -0.93030920135E+03  0.93030920135E+03  0.00000000000E+00 0.  1.
         25    1    1    2    0    0  0.31840090426E+03 -0.82796686002E+02 -0.88507702971E+02  0.36289535755E+03  0.12500000000E+03 0.  0.
         21    1    1    2  503  504 -0.11811000114E+03  0.12006839876E+02 -0.17970671375E+03  0.21538022086E+03  0.00000000000E+00 0.  1.
         21    1    1    2  504  501 -0.20029090312E+03  0.70789846126E+02 -0.48481472933E+03  0.52931367823E+03  0.00000000000E+00 0.  1.
<mgrwt>
<rscale>  4 0.35193668E+03</rscale>
<asrwt>0</asrwt>
<pdfrwt beam="1">  1       21 0.27273854E-01 0.35193668E+03</pdfrwt>
<pdfrwt beam="2">  1       21 0.14312450E+00 0.35193668E+03</pdfrwt>
<totfact> 0.39138032E+03</totfact>
</mgrwt>
</event>
<event>
 5    0  0.2159162E+000  0.2326690E+03  0.7546771E-02  0.1124775E+00
         21   -1    0    0  502  501  0.00000000000E+00  0.00000000000E+00  0.43265098189E+03  0.43265098189E+03  0.00000000000E+00 0. -1.
         21   -1    0    0  503  502 -0.00000000000E+00 -0.00000000000E+00 -0.18839137089E+03  0.18839137089E+03  0.00000000000E+00 0. -1.
         25    1    1    2    0    0 -0.10671909861E+03  0.17630628766E+03  0.20558927835E+03  0.31680407896E+03  0.12500000000E+03 0.  0.
         21    1    1    2  503  504  0.17275943987E+03 -0.95459391909E+02  0.24975911683E+02  0.19895254644E+03  0.00000000000E+00 0. -1.
         21    1    1    2  504  501 -0.66040341266E+02 -0.80846895748E+02  0.13694420973E+02  0.10528572739E+03  0.00000000000E+00 0. -1.
<mgrwt>
<rscale>  4 0.23266902E+03</rscale>
<asrwt>0</asrwt>
<pdfrwt beam="1">  1       21 0.66561689E-01 0.23266902E+03</pdfrwt>
<pdfrwt beam="2">  1       21 0.28983288E-01 0.23266902E+03</pdfrwt>
<totfact> 0.23065969E+04</totfact>
</mgrwt>
</event>
<event>
 5    0  0.3476140E+000  0.2665042E+03  0.7546771E-02  0.1103297E+00
         21   -1    0    0  502  501  0.00000000000E+00  0.00000000000E+00  0.36000401507E+03  0.36000401507E+03  0.00000000000E+00 0. -1.
         21   -1    0    0  503  502 -0.00000000000E+00 -0.00000000000E+00 -0.18093319624E+03  0.18093319624E+03  0.00000000000E+00 0. -1.
         25    1    1    2    0    0  0.23379930811E+03  0.27155050959E+02  0.11601409670E+03  0.29066094319E+03  0.12500000000E+03 0.  0.
         21    1    1    2  503  504 -0.29457176428E+02  0.15692758889E+02  0.10265583386E+02  0.34919480622E+02  0.00000000000E+00 0. -1.
         21    1    1    2  504  501 -0.20434213168E+03 -0.42847809847E+02  0.52791138745E+02  0.21535678749E+03  0.00000000000E+00 0. -1.
<mgrwt>
<rscale>  4 0.26650425E+03</rscale>
<asrwt>0</asrwt>
<pdfrwt beam="1">  1       21 0.55385233E-01 0.26650425E+03</pdfrwt>
<pdfrwt beam="2">  1       21 0.27835876E-01 0.26650425E+03</pdfrwt>
<totfact> 0.36598533E+04</totfact>
</mgrwt>
</event>
