<event>
 5    0  0.1911311E+001  0.4018631E+03  0.7546771E-02  0.1043136E+00
         21   -1    0    0  504  501  0.00000000000E+00  0.00000000000E+00  0.67156793207E+03  0.67156793207E+03  0.00000000000E+00 0. -1.
         21   -1    0    0  503  502 -0.00000000000E+00 -0.00000000000E+00 -0.35861577990E+03  0.35861577990E+03  0.00000000000E+00 0. -1.
         25    1    1    2    0    0  0.23617333914E+03 -0.27378485226E+03  0.33630267154E+03  0.50937263210E+03  0.12500000000E+03 0.  0.
         21    1    1    2  503  501 -0.25808807729E+03  0.29060033601E+03 -0.13063417678E+03  0.41002841251E+03  0.00000000000E+00 0. -1.
         21    1    1    2  504  502  0.21914738149E+02 -0.16815483750E+02  0.10728365741E+03  0.11078266737E+03  0.00000000000E+00 0.  1.
<mgrwt>
<rscale>  4 0.40186305E+03</rscale>
<asrwt>0</asrwt>
<pdfrwt beam="1">  1       21 0.10331814E+00 0.40186305E+03</pdfrwt>
<pdfrwt beam="2">  1       21 0.55171658E-01 0.40186305E+03</pdfrwt>
<totfact> 0.20690654E+03</totfact>
</mgrwt>
</event>
<event>
 5    0  0.1911311E+001  0.2367956E+03  0.7546771E-02  0.1121946E+00
         21   -1    0    0  502  501  0.00000000000E+00  0.00000000000E+00  0.13823574264E+04  0.13823574264E+04  0.00000000000E+00 0.  1.
         21   -1    0    0  504  502 -0.00000000000E+00 -0.00000000000E+00 -0.47189508242E+02  0.47189508242E+02  0.00000000000E+00 0.  1.
         25    1    1    2    0    0  0.12086477039E+03 -0.16695876933E+03  0.52187533041E+03  0.57485857727E+03  0.12500000000E+03 0.  0.
         21    1    1    2  503  501 -0.85876735172E+02  0.18043106910E+03  0.77780855820E+03  0.80306683256E+03  0.00000000000E+00 0.  1.
         21    1    1    2  504  503 -0.34988035217E+02 -0.13472299769E+02  0.35484029502E+02  0.51621524765E+02  0.00000000000E+00 0.  1.
<mgrwt>
<rscale>  4 0.23679564E+03</rscale>
<asrwt>0</asrwt>
<pdfrwt beam="1">  1       21 0.21267034E+00 0.23679564E+03</pdfrwt>
<pdfrwt beam="2">  1       21 0.72599254E-02 0.23679564E+03</pdfrwt>
<totfact> 0.15336342E+04</totfact>
</mgrwt>
</event>
<event>
 5    0  0.1911311E+001  0.2951983E+03  0.7546771E-02  0.1087666E+00
         21   -1    0    0  502  501  0.00000000000E+00  0.00000000000E+00  0.13251553352E+04  0.13251553352E+04  0.00000000000E+00 0. -1.
         21   -1    0    0  504  502 -0.00000000000E+00 -0.00000000000E+00 -0.90443424372E+02  0.90443424372E+02  0.00000000000E+00 0. -1.
         25    1    1    2    0    0  0.18375206628E+03  0.21073666032E+03  0.89948716724E+03  0.95019836134E+03  0.12500000000E+03 0.  0.
         21    1    1    2  503  501 -0.18380628395E+03 -0.16792276890E+03  0.34098483092E+03  0.42220073573E+03  0.00000000000E+00 0. -1.
         21    1    1    2  504  503  0.54217668977E-01 -0.42813891416E+02 -0.57600872931E+01  0.43199662537E+02  0.00000000000E+00 0. -1.
<mgrwt>
<rscale>  4 0.29519826E+03</rscale>
<asrwt>0</asrwt>
<pdfrwt beam="1">  1       21 0.20387004E+00 0.29519826E+03</pdfrwt>
<pdfrwt beam="2">  1       21 0.13914374E-01 0.29519826E+03</pdfrwt>
<totfact> 0.52780081E+03</totfact>
</mgrwt>
</event>
<event>
 5    0  0.5226367E+001  0.2598927E+03  0.7546771E-02  0.1107208E+00
         21   -1    0    0  502  501  0.00000000000E+00  0.00000000000E+00  0.85023873825E+03  0.85023873825E+03  0.00000000000E+00 0.  1.
         21   -1    0    0  504  502 -0.00000000000E+00 -0.00000000000E+00 -0.16266265979E+03  0.16266265979E+03  0.00000000000E+00 0.  1.
         25    1    1    2    0    0  0.13557224166E+03 -0.20144241242E+03  0.63259439887E+03  0.68902797600E+03  0.12500000000E+03 0.  0.
         21    1    1    2  503  501  0.17497568336E+02  0.35178231420E+02  0.87152409783E+02  0.95599243692E+02  0.00000000000E+00 0. -1.
         21    1    1    2  504  503 -0.15306981000E+03  0.16626418100E+03 -0.32170730199E+02  0.22827417834E+03  0.00000000000E+00 0.  1.
<mgrwt>
<rscale>  4 0.25989274E+03</rscale>
<asrwt>0</asrwt>
<pdfrwt beam="1">  1       21 0.13080596E+00 0.25989274E+03</pdfrwt>
<pdfrwt beam="2">  1       21 0.25025025E-01 0.25989274E+03</pdfrwt>
<totfact> 0.61380786E+03</totfact>
</mgrwt>
</event>
