<event>
 5    0  0.2159162E+000  0.2738011E+03  0.7546771E-02  0.1099124E+00
         21   -1    0    0  502  501  0.00000000000E+00  0.00000000000E+00  0.11905978663E+04  0.11905978663E+04  0.00000000000E+00 0. -1.
         21   -1    0    0  503  502 -0.00000000000E+00 -0.00000000000E+00 -0.68581134708E+03  0.68581134708E+03  0.00000000000E+00 0.  1.
         25    1    1    2    0    0  0.23677086917E+03  0.67966181537E+02  0.11355725916E+04  0.11686872794E+04  0.12500000000E+03 0.  0.
         21    1    1    2  503  504 -0.13081239872E+03 -0.91593525593E+02 -0.54913283441E+03  0.57188121793E+03  0.00000000000E+00 0.  1.
         21    1    1    2  504  501 -0.10595847045E+03  0.23627344057E+02 -0.81653237999E+02  0.13584071600E+03  0.00000000000E+00 0. -1.
<mgrwt>
<rscale>  4 0.27380109E+03</rscale>
<asrwt>0</asrwt>
<pdfrwt beam="1">  1       21 0.18316890E+00 0.27380109E+03</pdfrwt>
<pdfrwt beam="2">  1       21 0.10550944E+00 0.27380109E+03</pdfrwt>
<totfact> 0.11372467E+02</totfact>
</mgrwt>
</event>
<event>
 5    0  0.6324289E+000  0.2230616E+03  0.7546771E-02  0.1131621E+00
         21   -1    0    0  502  501  0.00000000000E+00  0.00000000000E+00  0.28640837845E+03  0.28640837845E+03  0.00000000000E+00 0.  1.
         21   -1    0    0  503  502 -0.00000000000E+00 -0.00000000000E+00 -0.49607056567E+03  0.49607056567E+03  0.00000000000E+00 0.  1.
         25    1    1    2    0    0  0.13380676735E+03  0.20689131282E+03  0.15772690114E+03  0.31813682851E+03  0.12500000000E+03 0.  0.
         21    1    1    2  503  504 -0.26166453580E+02 -0.63618320822E+02 -0.17111495282E+02  0.70885663628E+02  0.00000000000E+00 0. -1.
         21    1    1    2  504  501 -0.10764031377E+03 -0.14327299200E+03 -0.35027759308E+03  0.39345645197E+03  0.00000000000E+00 0.  1.
<mgrwt>
<rscale>  4 0.22306156E+03</rscale>
<asrwt>0</asrwt>
<pdfrwt beam="1">  1       21 0.44062828E-01 0.22306156E+03</pdfrwt>
<pdfrwt beam="2">  1       21 0.76318548E-01 0.22306156E+03</pdfrwt>
<totfact> 0.74060032E+03</totfact>
</mgrwt>
</event>
<event>
 5    0  0.2159162E+000  0.2521957E+03  0.7546771E-02  0.1111925E+00
         21   -1    0    0  502  501  0.00000000000E+00  0.00000000000E+00  0.15668811374E+04  0.15668811374E+04  0.00000000000E+00 0. -1.
         21   -1    0    0  503  502 -0.00000000000E+00 -0.00000000000E+00 -0.38786566648E+03  0.38786566648E+03  0.00000000000E+00 0. -1.
         25    1    1    2    0    0 -0.18761984909E+03  0.11414853631E+03  0.15182310504E+04  0.15391171556E+04  0.12500000000E+03 0.  0.
         21    1    1    2  503  504  0.11294472918E+02 -0.21322285704E+02 -0.23539025878E+01  0.24243470121E+02  0.00000000000E+00 0.  1.
         21    1    1    2  504  501  0.17632537617E+03 -0.92826250611E+02 -0.33686167693E+03  0.39138617818E+03  0.00000000000E+00 0. -1.
<mgrwt>
<rscale>  4 0.25219570E+03</rscale>
<asrwt>0</asrwt>
<pdfrwt beam="1">  1       21 0.24105863E+00 0.25219570E+03</pdfrwt>
<pdfrwt beam="2">  1       21 0.59671642E-01 0.25219570E+03</pdfrwt>
<totfact> 0.18271349E+02</totfact>
</mgrwt>
</event>
<event>
 5    0  0.2159162E+000  0.2325484E+03  0.7546771E-02  0.1124859E+00
         21   -1    0    0  502  501  0.00000000000E+00  0.00000000000E+00  0.31392257345E+03  0.31392257345E+03  0.00000000000E+00 0. -1.
         21   -1    0    0  503  502 -0.00000000000E+00 -0.00000000000E+00 -0.81171692455E+03  0.81171692455E+03  0.00000000000E+00 0. -1.
         25    1    1    2    0    0 -0.21504633266E+03  0.62644634534E+02  0.22542333882E+03  0.34148200116E+03  0.12500000000E+03 0.  0.
         21    1    1    2  503  504  0.12211385148E+03 -0.27037833951E+02 -0.12186377770E+03  0.17462421797E+03  0.00000000000E+00 0. -1.
         21    1    1    2  504  501  0.92932481190E+02 -0.35606800583E+02 -0.60135391222E+03  0.60953327887E+03  0.00000000000E+00 0. -1.
<mgrwt>
<rscale>  4 0.23254840E+03</rscale>
<asrwt>0</asrwt>
<pdfrwt beam="1">  1       21 0.48295781E-01 0.23254840E+03</pdfrwt>
<pdfrwt beam="2">  1       21 0.12487953E+00 0.23254840E+03</pdfrwt>
<totfact> 0.18911390E+03</totfact>
</mgrwt>
</event>
<event>
 5    0  0.2159162E+000  0.2458958E+03  0.7546771E-02  0.1115926E+00
         21   -1    0    0  502  501  0.00000000000E+00  0.00000000000E+00  0.27549591809E+03  0.27549591809E+03  0.00000000000E+00 0.  1.
         21   -1    0    0  503  502 -0.00000000000E+00 -0.00000000000E+00 -0.24228350868E+03  0.24228350868E+03  0.00000000000E+00 0.  1.
         25    1    1    2    0    0  0.19352188805E+03 -0.85959500438E+02  0.13419207661E+03  0.28012902437E+03  0.12500000000E+03 0.  0.
         21    1    1    2  503  504 -0.14928617424E+03  0.79416076377E+02 -0.68789458135E+02  0.18255208724E+03  0.00000000000E+00 0.  1.
         21    1    1    2  504  501 -0.44235713806E+02  0.65434240613E+01 -0.32190209062E+02  0.55098315164E+02  0.00000000000E+00 0.  1.
<mgrwt>
<rscale>  4 0.24589583E+03</rscale>
<asrwt>0</asrwt>
<pdfrwt beam="1">  1       21 0.42383987E-01 0.24589583E+03</pdfrwt>
<pdfrwt beam="2">  1       21 0.37274386E-01 0.24589583E+03</pdfrwt>
<totfact> 0.36235346E+04</totfact>
</mgrwt>
</event>
<event>
 5    0  0.2159162E+000  0.3173471E+03  0.7546771E-02  0.1076877E+00
         21   -1    0    0  502  501  0.00000000000E+00  0.00000000000E+00  0.90920282204E+03  0.90920282204E+03  0.00000000000E+00 0. -1.
         21   -1    0    0  503  502 -0.00000000000E+00 -0.00000000000E+00 -0.36146540210E+03  0.36146540210E+03  0.00000000000E+00 0. -1.
         25    1    1    2    0    0  0.31203207875E+03  0.46283984353E+02  0.77383772725E+03  0.84495920227E+03  0.12500000000E+03 0.  0.
         21    1    1    2  503  504 -0.28286047465E+03 -0.63097807260E+02 -0.25134833261E+03  0.38362399000E+03  0.00000000000E+00 0. -1.
         21    1    1    2  504  501 -0.29171604103E+02  0.16813822906E+02  0.25248025294E+02  0.42085031875E+02  0.00000000000E+00 0. -1.
<mgrwt>
<rscale>  4 0.31734713E+03</rscale>
<asrwt>0</asrwt>
<pdfrwt beam="1">  1       21 0.13987736E+00 0.31734713E+03</pdfrwt>
<pdfrwt beam="2">  1       21 0.55610062E-01 0.31734713E+03</pdfrwt>
<totfact> 0.98856588E+02</totfact>
</mgrwt>
</event>
<event>
 5    0  0.2159162E+000  0.2387781E+03  0.7546771E-02  0.1120609E+00
         21   -1    0    0  502  501  0.00000000000E+00  0.00000000000E+00  0.50824671268E+02  0.50824671268E+02  0.00000000000E+00 0.  1.
         21   -1    0    0  503  502 -0.00000000000E+00 -0.00000000000E+00 -0.10300481792E+04  0.10300481792E+04  0.00000000000E+00 0. -1.
         25    1    1    2    0    0 -0.68232899109E+02 -0.19166186217E+03 -0.42635012601E+03  0.48866085159E+03  0.12500000000E+03 0.  0.
         21    1    1    2  503  504  0.36933934073E+02  0.74611221412E+02 -0.30726163681E+03  0.31834048329E+03  0.00000000000E+00 0. -1.
         21    1    1    2  504  501  0.31298965037E+02  0.11705064075E+03 -0.24561174513E+03  0.27387151560E+03  0.00000000000E+00 0. -1.
<mgrwt>
<rscale>  4 0.23877814E+03</rscale>
<asrwt>0</asrwt>
<pdfrwt beam="1">  1       21 0.78191808E-02 0.23877814E+03</pdfrwt>
<pdfrwt beam="2">  1       21 0.15846894E+00 0.23877814E+03</pdfrwt>
<totfact> 0.31386120E+04</totfact>
</mgrwt>
</event>
<event>
 5    0  0.2521775E+000  0.3089021E+03  0.7546771E-02  0.1080873E+00
         21   -1    0    0  502  501  0.00000000000E+00  0.00000000000E+00  0.11874316653E+04  0.11874316653E+04  0.00000000000E+00 0. -1.
         21   -1    0    0  503  502 -0.00000000000E+00 -0.00000000000E+00 -0.13883070174E+03  0.13883070174E+03  0.00000000000E+00 0. -1.
         25    1    1    2    0    0 -0.34160652496E+03  0.12414624844E+03  0.58777860834E+03  0.70229338693E+03  0.12500000000E+03 0.  0.
         21    1    1    2  503  504  0.23649736147E+03  0.19334532010E+02  0.31249788687E+03  0.39237705770E+03  0.00000000000E+00 0. -1.
         21    1    1    2  504  501  0.10510916349E+03 -0.14348078045E+03  0.14832446830E+03  0.23159192236E+03  0.00000000000E+00 0. -1.
<mgrwt>
<rscale>  4 0.30890211E+03</rscale>
<asrwt>0</asrwt>
<pdfrwt beam="1">  1       21 0.18268179E+00 0.30890211E+03</pdfrwt>
<pdfrwt beam="2">  1       21 0.21358570E-01 0.30890211E+03</pdfrwt>
<totfact> 0.32642156E+03</totfact>
</mgrwt>
</event>
<event>
 5    0  0.2159162E+000  0.2385194E+03  0.7546771E-02  0.1120783E+00
         21   -1    0    0  502  501  0.00000000000E+00  0.00000000000E+00  0.13288124782E+03  0.13288124782E+03  0.00000000000E+00 0. -1.
         21   -1    0    0  503  502 -0.00000000000E+00 -0.00000000000E+00 -0.44958039407E+03  0.44958039407E+03  0.00000000000E+00 0. -1.
         25    1    1    2    0    0  0.10505969259E+03  0.17386479658E+03 -0.52708641643E+02  0.24427383692E+03  0.12500000000E+03 0.  0.
         21    1    1    2  503  504 -0.82686818317E+02 -0.10637961438E+03 -0.20737949808E+03  0.24730545587E+03  0.00000000000E+00 0. -1.
         21    1    1    2  504  501 -0.22372874276E+02 -0.67485182203E+02 -0.56611006521E+02  0.90882349109E+02  0.00000000000E+00 0. -1.
<mgrwt>
<rscale>  4 0.23851940E+03</rscale>
<asrwt>0</asrwt>
<pdfrwt beam="1">  1       21 0.20443269E-01 0.23851940E+03</pdfrwt>
<pdfrwt beam="2">  1       21 0.69166214E-01 0.23851940E+03</pdfrwt>
<totfact> 0.41227669E+04</totfact>
</mgrwt>
</event>
