<event>
 5    0  0.6154943E+000  0.2434242E+03  0.7546771E-02  0.1117532E+00
         21   -1    0    0  502  501  0.00000000000E+00  0.00000000000E+00  0.34375542177E+02  0.34375542177E+02  0.00000000000E+00 0. -1.
         21   -1    0    0  503  502 -0.00000000000E+00 -0.00000000000E+00 -0.17876776730E+04  0.17876776730E+04  0.00000000000E+00 0. -1.
         25    1    1    2    0    0 -0.12396580815E+03 -0.16811555854E+03 -0.58556419915E+03  0.63414571980E+03  0.12500000000E+03 0.  0.
         21    1    1    2  503  504  0.91002097193E+02  0.12343689900E+03 -0.98670804727E+03  0.99855436521E+03  0.00000000000E+00 0. -1.
         21    1    1    2  504  501  0.32963710962E+02  0.44678659533E+02 -0.18102988442E+03  0.18935313018E+03  0.00000000000E+00 0.  1.
<mgrwt>
<rscale>  4 0.24342424E+03</rscale>
<asrwt>0</asrwt>
<pdfrwt beam="1">  1       21 0.52885449E-02 0.24342424E+03</pdfrwt>
<pdfrwt beam="2">  1       21 0.27502734E+00 0.24342424E+03</pdfrwt>
<totfact> 0.11103413E+04</totfact>
</mgrwt>
</event>
<event>
 5    0  0.2159162E+000  0.2401654E+03  0.7546771E-02  0.1119683E+00
         21   -1    0    0  502  501  0.00000000000E+00  0.00000000000E+00  0.14456371405E+03  0.14456371405E+03  0.00000000000E+00 0.  1.
         21   -1    0    0  503  502 -0.00000000000E+00 -0.00000000000E+00 -0.77187285309E+03  0.77187285309E+03  0.00000000000E+00 0. -1.
         25    1    1    2    0    0  0.30985327995E+02 -0.20271735294E+03  0.10724145338E+02  0.24040470675E+03  0.12500000000E+03 0.  0.
         21    1    1    2  503  504 -0.14807550737E+02  0.11900177286E+03 -0.23219513645E+03  0.26133363139E+03  0.00000000000E+00 0. -1.
         21    1    1    2  504  501 -0.16177777258E+02  0.83715580078E+02 -0.40583814792E+03  0.41469822900E+03  0.00000000000E+00 0. -1.
<mgrwt>
<rscale>  4 0.24016539E+03</rscale>
<asrwt>0</asrwt>
<pdfrwt beam="1">  1       21 0.22240571E-01 0.24016539E+03</pdfrwt>
<pdfrwt beam="2">  1       21 0.11874967E+00 0.24016539E+03</pdfrwt>
<totfact> 0.99297982E+03</totfact>
</mgrwt>
</event>
<event>
 5    0  0.2159162E+000  0.2876155E+03  0.7546771E-02  0.1091601E+00
         21   -1    0    0  502  501  0.00000000000E+00  0.00000000000E+00  0.60927700918E+03  0.60927700918E+03  0.00000000000E+00 0. -1.
         21   -1    0    0  503  502 -0.00000000000E+00 -0.00000000000E+00 -0.44176451730E+03  0.44176451730E+03  0.00000000000E+00 0.  1.
         25    1    1    2    0    0 -0.18027932484E+03  0.18600284635E+03  0.53040281389E+03  0.60336542724E+03  0.12500000000E+03 0.  0.
         21    1    1    2  503  504  0.23889776131E+02 -0.41199239800E+02 -0.49612024887E+02  0.68771009714E+02  0.00000000000E+00 0. -1.
         21    1    1    2  504  501  0.15638954871E+03 -0.14480360655E+03 -0.31327829713E+03  0.37890508952E+03  0.00000000000E+00 0.  1.
<mgrwt>
<rscale>  4 0.28761553E+03</rscale>
<asrwt>0</asrwt>
<pdfrwt beam="1">  1       21 0.93734924E-01 0.28761553E+03</pdfrwt>
<pdfrwt beam="2">  1       21 0.67963772E-01 0.28761553E+03</pdfrwt>
<totfact> 0.17574071E+03</totfact>
</mgrwt>
</event>
<event>
 5    0  0.2159162E+000  0.2739499E+03  0.7546771E-02  0.1099040E+00
         21   -1    0    0  502  501  0.00000000000E+00  0.00000000000E+00  0.17355609882E+03  0.17355609882E+03  0.00000000000E+00 0. -1.
         21   -1    0    0  503  502 -0.00000000000E+00 -0.00000000000E+00 -0.58870468868E+03  0.58870468868E+03  0.00000000000E+00 0. -1.
         25    1    1    2    0    0  0.19492300636E+03 -0.14638508962E+03 -0.41491968830E+03  0.49719907543E+03  0.12500000000E+03 0.  0.
         21    1    1    2  503  504 -0.13485497687E+03  0.80921171629E+02 -0.47677764600E+02  0.16433888779E+03  0.00000000000E+00 0. -1.
         21    1    1    2  504  501 -0.60068029498E+02  0.65463917993E+02  0.47448863031E+02  0.10072282427E+03  0.00000000000E+00 0. -1.
<mgrwt>
<rscale>  4 0.27394995E+03</rscale>
<asrwt>0</asrwt>
<pdfrwt beam="1">  1       21 0.26700938E-01 0.27394995E+03</pdfrwt>
<pdfrwt beam="2">  1       21 0.90569952E-01 0.27394995E+03</pdfrwt>
<totfact> 0.13194654E+04</totfact>
</mgrwt>
</event>
<event>
 5    0  0.2159162E+000  0.2531737E+03  0.7546771E-02  0.1111315E+00
         21   -1    0    0  502  501  0.00000000000E+00  0.00000000000E+00  0.31044413559E+03  0.31044413559E+03  0.00000000000E+00 0.  1.
         21   -1    0    0  503  502 -0.00000000000E+00 -0.00000000000E+00 -0.20476953647E+03  0.20476953647E+03  0.00000000000E+00 0.  1.
         25    1    1    2    0    0 -0.21625699596E+03  0.41289521520E+02  0.13724868739E+03  0.28798283817E+03  0.12500000000E+03 0.  0.
         21    1    1    2  503  504  0.18111730622E+03 -0.17698279730E+02 -0.18421306231E+02  0.18290995665E+03  0.00000000000E+00 0.  1.
         21    1    1    2  504  501  0.35139689736E+02 -0.23591241791E+02 -0.13152782045E+02  0.44320877242E+02  0.00000000000E+00 0.  1.
<mgrwt>
<rscale>  4 0.25317368E+03</rscale>
<asrwt>0</asrwt>
<pdfrwt beam="1">  1       21 0.47760636E-01 0.25317368E+03</pdfrwt>
<pdfrwt beam="2">  1       21 0.31503006E-01 0.25317368E+03</pdfrwt>
<totfact> 0.39460041E+04</totfact>
</mgrwt>
</event>
<event>
 5    0  0.2159162E+000  0.4868191E+03  0.7546771E-02  0.1017278E+00
         21   -1    0    0  502  501  0.00000000000E+00  0.00000000000E+00  0.36659547025E+03  0.36659547025E+03  0.00000000000E+00 0. -1.
         21   -1    0    0  503  502 -0.00000000000E+00 -0.00000000000E+00 -0.14590247299E+04  0.14590247299E+04  0.00000000000E+00 0. -1.
         25    1    1    2    0    0 -0.45717705973E+03  0.11116198433E+03  0.13855088529E+03  0.50615135930E+03  0.12500000000E+03 0.  0.
         21    1    1    2  503  504  0.22767284964E+02 -0.21476303252E+02 -0.72187038894E+02  0.78680044803E+02  0.00000000000E+00 0.  1.
         21    1    1    2  504  501  0.43440977477E+03 -0.89685681078E+02 -0.11587931061E+04  0.12407887961E+04  0.00000000000E+00 0. -1.
<mgrwt>
<rscale>  4 0.48681911E+03</rscale>
<asrwt>0</asrwt>
<pdfrwt beam="1">  1       21 0.56399304E-01 0.48681911E+03</pdfrwt>
<pdfrwt beam="2">  1       21 0.22446534E+00 0.48681911E+03</pdfrwt>
<totfact> 0.22045977E+02</totfact>
</mgrwt>
</event>
<event>
 5    0  0.3052091E+000  0.2417767E+03  0.7546771E-02  0.1118615E+00
         21   -1    0    0  502  501  0.00000000000E+00  0.00000000000E+00  0.73994255212E+03  0.73994255212E+03  0.00000000000E+00 0.  1.
         21   -1    0    0  503  502 -0.00000000000E+00 -0.00000000000E+00 -0.21764620286E+03  0.21764620286E+03  0.00000000000E+00 0.  1.
         25    1    1    2    0    0 -0.56520043021E+02  0.20216687033E+03  0.65281609846E+03  0.69703645323E+03  0.12500000000E+03 0.  0.
         21    1    1    2  503  504  0.19844925874E+02 -0.23124985343E+02  0.76769443563E+01  0.31424854887E+02  0.00000000000E+00 0.  1.
         21    1    1    2  504  501  0.36675117148E+02 -0.17904188498E+03 -0.13819669356E+03  0.22912744687E+03  0.00000000000E+00 0.  1.
<mgrwt>
<rscale>  4 0.24177668E+03</rscale>
<asrwt>0</asrwt>
<pdfrwt beam="1">  1       21 0.11383731E+00 0.24177668E+03</pdfrwt>
<pdfrwt beam="2">  1       21 0.33484032E-01 0.24177668E+03</pdfrwt>
<totfact> 0.49788269E+03</totfact>
</mgrwt>
</event>
<event>
 5    0  0.4703988E+000  0.2641088E+03  0.7546771E-02  0.1104699E+00
         21   -1    0    0  502  501  0.00000000000E+00  0.00000000000E+00  0.73004561399E+03  0.73004561399E+03  0.00000000000E+00 0. -1.
         21   -1    0    0  503  502 -0.00000000000E+00 -0.00000000000E+00 -0.94995937065E+02  0.94995937065E+02  0.00000000000E+00 0. -1.
         25    1    1    2    0    0  0.19910921830E+03 -0.12034928775E+03  0.46217261748E+03  0.53231284056E+03  0.12500000000E+03 0.  0.
         21    1    1    2  503  504 -0.18638308928E+03  0.10029477825E+03  0.16234715772E+03  0.26674763004E+03  0.00000000000E+00 0. -1.
         21    1    1    2  504  501 -0.12726129020E+02  0.20054509504E+02  0.10529901715E+02  0.25981080451E+02  0.00000000000E+00 0. -1.
<mgrwt>
<rscale>  4 0.26410875E+03</rscale>
<asrwt>0</asrwt>
<pdfrwt beam="1">  1       21 0.11231471E+00 0.26410875E+03</pdfrwt>
<pdfrwt beam="2">  1       21 0.14614760E-01 0.26410875E+03</pdfrwt>
<totfact> 0.24581106E+04</totfact>
</mgrwt>
</event>
<event>
 5    0  0.2159162E+000  0.4289578E+03  0.7546771E-02  0.1034190E+00
         21   -1    0    0  502  501  0.00000000000E+00  0.00000000000E+00  0.89218314134E+03  0.89218314134E+03  0.00000000000E+00 0.  1.
         21   -1    0    0  503  502 -0.00000000000E+00 -0.00000000000E+00 -0.55998066690E+03  0.55998066690E+03  0.00000000000E+00 0. -1.
         25    1    1    2    0    0 -0.46283770449E+02 -0.40772245896E+03  0.74975103954E+03  0.86378898594E+03  0.12500000000E+03 0.  0.
         21    1    1    2  503  504  0.36742185341E+02  0.35233476262E+03 -0.32876663846E+03  0.48329832991E+03  0.00000000000E+00 0. -1.
         21    1    1    2  504  501  0.95415851073E+01  0.55387696336E+02 -0.88781926649E+02  0.10507649238E+03  0.00000000000E+00 0. -1.
<mgrwt>
<rscale>  4 0.42895780E+03</rscale>
<asrwt>0</asrwt>
<pdfrwt beam="1">  1       21 0.13725894E+00 0.42895780E+03</pdfrwt>
<pdfrwt beam="2">  1       21 0.86150872E-01 0.42895780E+03</pdfrwt>
<totfact> 0.36634601E+02</totfact>
</mgrwt>
</event>
<event>
 5    0  0.2159162E+000  0.2985068E+03  0.7546771E-02  0.1085989E+00
         21   -1    0    0  502  501  0.00000000000E+00  0.00000000000E+00  0.61327692406E+03  0.61327692406E+03  0.00000000000E+00 0. -1.
         21   -1    0    0  503  502 -0.00000000000E+00 -0.00000000000E+00 -0.28708043295E+03  0.28708043295E+03  0.00000000000E+00 0. -1.
         25    1    1    2    0    0 -0.12418003383E+02  0.33647935408E+03 -0.39519271572E+02  0.36132995358E+03  0.12500000000E+03 0.  0.
         21    1    1    2  503  504  0.59969514574E+02 -0.13185245596E+03  0.27372884227E+03  0.30969160776E+03  0.00000000000E+00 0. -1.
         21    1    1    2  504  501 -0.47551511191E+02 -0.20462689812E+03  0.91986920408E+02  0.22933579567E+03  0.00000000000E+00 0. -1.
<mgrwt>
<rscale>  4 0.29850682E+03</rscale>
<asrwt>0</asrwt>
<pdfrwt beam="1">  1       21 0.94350296E-01 0.29850682E+03</pdfrwt>
<pdfrwt beam="2">  1       21 0.44166221E-01 0.29850682E+03</pdfrwt>
<totfact> 0.43238130E+03</totfact>
</mgrwt>
</event>
