<LesHouchesEvents version="3.0">
  <!--
  <scalesfunctionalform>
    muR  H_T/2 := sum_i mT(i)/2, i=final state
    muF1 H_T/2 := sum_i mT(i)/2, i=final state
    muF2 H_T/2 := sum_i mT(i)/2, i=final state
    QES  H_T/2 := sum_i mT(i)/2, i=final state
  </scalesfunctionalform>
HERWIG6   
  -->
  <header>
        7
  </header>
  <init>
   2212   2212 0.65000000D+04 0.65000000D+04 -1 -1   244800   244800 -4   1
 0.79350759D-05 0.44260666D-06 0.21357055D-05     66
  </init>
  <event>
  5     66 0.21357055E-05 0.11129492E+03 0.75467711E-02 0.92245028E-01
       -3 -1    0    0    0  501 0.00000000E+00 0.00000000E+00 0.38972184E+03 0.38972216E+03 0.50000000E+00 0.0000E+00 0.9000E+01
       -2 -1    0    0    0  502 -.00000000E+00 -.00000000E+00 -.22826252E+04 0.22826252E+04 0.32000000E+00 0.0000E+00 0.9000E+01
       25  1    1    2    0    0 0.51198884E+03 -.25644867E+03 -.11293940E+04 0.12724207E+04 0.12500000E+03 0.0000E+00 0.9000E+01
       -1  1    1    2    0  502 -.43309211E+03 0.33508595E+03 -.99910155E+03 0.11393223E+04 0.32000000E+00 0.0000E+00 0.9000E+01
       -4  1    1    2    0  501 -.78896732E+02 -.78637277E+02 0.23559225E+03 0.26060435E+03 0.15500000E+01 0.0000E+00 0.9000E+01
#aMCatNLO 1  0  0  4  2 0.27863989D+02 0.00000000D+00  -5  6  0 0.00000000D+00 0.00000000D+00 0.00000000D+00 0.00000000D+00 0.00000000D+00
  <mgrwgt>
 0.4361325650D-04    7    2    0
 0.943180439146181D+03 0.000000000000000D+00 0.000000000000000D+00 0.943180439146181D+03
 0.943180439146181D+03 -.000000000000000D+00 -.000000000000000D+00 -.943180439146181D+03
 0.669513027887733D+03 0.512337812595250D+03 -.256726074028304D+03 -.322838013887040D+03
 0.611786618439855D+03 -.433510912248220D+03 0.335293748334034D+03 -.271899352319757D+03
 0.605061231964774D+03 -.788269003470301D+02 -.785676743057293D+02 0.594737366206797D+03
 0.000000000000000D+00 0.000000000000000D+00 0.000000000000000D+00 0.000000000000000D+00
 0.943180439146181D+03 0.000000000000000D+00 0.000000000000000D+00 0.943180439146181D+03
 0.943180439146181D+03 -.000000000000000D+00 -.000000000000000D+00 -.943180439146181D+03
 0.667740921189774D+03 0.509996540172708D+03 -.254915245317317D+03 -.324306467015456D+03
 0.565409993473268D+03 -.401240748995504D+03 0.291134681815849D+03 -.271909762805517D+03
 0.603825674916567D+03 -.809434269641367D+02 -.769306725075091D+02 0.593409874325741D+03
 0.493842887127534D+02 -.278123642130668D+02 0.407112360089777D+02 0.280635549523202D+01
0.235977002167D-03 0.000000000000D+00 0.000000000000D+00 0.165982935896D-05 0.000000000000D+00  6 -3 -2 25 -1 -4 21 0 0.59957232D-01 0.35117313D+00 0.38805125D+06 0.38805125D+06 0.38805125D+06 0.10763784D+01  1  2  2  3  6  4       -1 0.512171235451D-05 0.100000000000D+01
0.496212601175D-04 0.000000000000D+00 -.906213822491D-06 0.165982935896D-05 0.000000000000D+00  6 -3 -2 25 -1 -4 21 2 0.59957232D-01 0.35117313D+00 0.38805125D+06 0.38805125D+06 0.38805125D+06 0.10763784D+01  1  2  3  3  6  4       -1 0.124779497579D-05 0.100000000000D+01
-.144068512011D-03 0.000000000000D+00 0.000000000000D+00 0.165982935896D-05 0.000000000000D+00  6 -3 -2 25 -1 -4 21 2 0.59957232D-01 0.35117313D+00 0.38805125D+06 0.38805125D+06 0.38805125D+06 0.10763784D+01  1  2 15  3  6  4       -1 -.362280129588D-05 0.100000000000D+01
0.235338944136D-02 0.000000000000D+00 0.000000000000D+00 0.165982935896D-05 0.000000000000D+00  6 -3 -2 25 -1 -4 21 2 0.59957232D-01 0.35117313D+00 0.38465279D+06 0.38465279D+06 0.38465279D+06 0.10766546D+01  1  2 12  3  6  4       -1 0.592466945876D-04 0.100000000000D+01
-.109671333762D-02 0.000000000000D+00 0.000000000000D+00 0.165982935896D-05 0.000000000000D+00  6 -3 -2 25 -1 -4 21 2 0.59957232D-01 0.35117313D+00 0.38805125D+06 0.38805125D+06 0.38805125D+06 0.10763784D+01  1  2  4  3  6  4       -1 -.275783684116D-04 0.100000000000D+01
-.435627495111D-02 0.000000000000D+00 0.000000000000D+00 0.165982935896D-05 0.000000000000D+00  6 -3 -2 25 -1 -4 21 2 0.59957232D-01 0.35117313D+00 0.38805125D+06 0.38805125D+06 0.38805125D+06 0.10763784D+01  1  2  5  3  6  4       -1 -.109544537650D-03 0.100000000000D+01
0.472206219081D-02 0.000000000000D+00 -.000000000000D+00 0.165982935896D-05 0.000000000000D+00  6 -3 -2 25 -1 -4 21 2 0.59957232D-01 0.35117313D+00 0.38805125D+06 0.38805125D+06 0.38805125D+06 0.10763784D+01  1  2  6  3  6  4       -1 0.118742761935D-03 0.100000000000D+01
  </mgrwgt>
  </event>
  <event>
  5     66 0.21357055E-05 0.52222909E+02 0.75467711E-02 0.94406470E-01
       -3 -1    0    0    0  501 0.00000000E+00 0.00000000E+00 0.16230679E+04 0.16230680E+04 0.50000000E+00 0.0000E+00 0.9000E+01
       -2 -1    0    0    0  502 0.00000000E+00 0.00000000E+00 -.13608950E+04 0.13608951E+04 0.32000000E+00 0.0000E+00 0.9000E+01
       25  1    1    2    0    0 0.44465698E+03 0.92815148E+02 0.18646025E+02 0.47149459E+03 0.12500000E+03 0.0000E+00 0.9000E+01
       -1  1    1    2    0  502 0.46786909E+02 -.23142729E+02 -.10891277E+04 0.10903778E+04 0.32000000E+00 0.0000E+00 0.9000E+01
       -4  1    1    2    0  501 -.49144389E+03 -.69672419E+02 0.13326545E+04 0.14220906E+04 0.15500000E+01 0.0000E+00 0.9000E+01
#aMCatNLO 1  0  0  2  5 0.12047608D+03 0.00000000D+00  -5  6  0 0.00000000D+00 0.00000000D+00 0.00000000D+00 0.00000000D+00 0.00000000D+00
  <mgrwgt>
 0.2499888124D-02    7    4    0
 0.148621168757197D+04 0.000000000000000D+00 0.000000000000000D+00 0.148621168757197D+04
 0.148621168757197D+04 0.000000000000000D+00 0.000000000000000D+00 -.148621168757197D+04
 0.471579601290035D+03 0.444571196292444D+03 0.928177484453023D+02 -.224418660881498D+02
 0.119094460003576D+04 0.468092916481923D+02 -.231543170777097D+02 -.118979906209847D+04
 0.130989917381814D+04 -.491380487940636D+03 -.696634313675926D+02 0.121224092818662D+04
 0.000000000000000D+00 0.000000000000000D+00 -.000000000000000D+00 -.000000000000000D+00
 0.149014792464048D+04 0.000000000000000D+00 0.000000000000000D+00 0.149014792464048D+04
 0.282346050940386D+04 0.000000000000000D+00 0.000000000000000D+00 -.282346050940386D+04
 0.466513405940287D+03 0.435350748895084D+03 0.109434208568335D+03 -.224418660881498D+02
 0.119018128022079D+04 0.234053799292264D+02 0.190226130691434D+02 -.118979906209847D+04
 0.131816921109458D+04 -.517211579434747D+03 -.231124037168939D+02 0.121224092818662D+04
 0.133874453678867D+04 0.584554506104367D+02 -.105344417920585D+03 -.133331258476338D+04
 0.148621168757197D+04 0.000000000000000D+00 0.000000000000000D+00 0.148621168757197D+04
 0.148621168757197D+04 0.000000000000000D+00 0.000000000000000D+00 -.148621168757197D+04
 0.471579601290035D+03 0.444571196292444D+03 0.928177484453023D+02 -.224418660881498D+02
 0.000000000000000D+00 0.000000000000000D+00 -.000000000000000D+00 -.000000000000000D+00
 0.119094460003576D+04 0.468092916481923D+02 -.231543170777097D+02 -.118979906209847D+04
 0.130989917381814D+04 -.491380487940636D+03 -.696634313675926D+02 0.121224092818662D+04
 0.149014792464048D+04 0.000000000000000D+00 0.000000000000000D+00 0.149014792464048D+04
 0.282346050940386D+04 0.000000000000000D+00 0.000000000000000D+00 -.282346050940386D+04
 0.466513405940287D+03 0.435350748895084D+03 0.109434208568335D+03 -.224418660881498D+02
 0.133874453678867D+04 0.584554506104367D+02 -.105344417920585D+03 -.133331258476338D+04
 0.119018128022079D+04 0.234053799292264D+02 0.190226130691434D+02 -.118979906209847D+04
 0.131816921109458D+04 -.517211579434747D+03 -.231124037168939D+02 0.121224092818662D+04
0.346293127229D-01 0.000000000000D+00 0.000000000000D+00 0.781860850597D-03 0.000000000000D+00  6 -3 -2 25 -1 -4 21 0 0.24970276D+00 0.20936847D+00 0.25987680D+06 0.25987680D+06 0.25987680D+06 0.10891954D+01  1  2  2  2  6  2       -2 0.500648465366D-04 0.100000000000D+01
0.162055347426D-01 0.000000000000D+00 -.132985678963D-03 0.781860850597D-03 0.000000000000D+00  6 -3 -2 25 -1 -4 21 2 0.24970276D+00 0.20936847D+00 0.25987680D+06 0.25987680D+06 0.25987680D+06 0.10891954D+01  1  2  3  2  6  2       -2 0.277948290948D-04 0.100000000000D+01
-.231890978465D-01 0.000000000000D+00 0.000000000000D+00 0.781860850597D-03 0.000000000000D+00  6 -3 -2 25 -1 -4 21 2 0.24970276D+00 0.20936847D+00 0.25987680D+06 0.25987680D+06 0.25987680D+06 0.10891954D+01  1  2 15  2  6  2       -2 -.397726469225D-04 0.100000000000D+01
-.884264712567D-01 0.000000000000D+00 0.000000000000D+00 0.781860850597D-03 0.000000000000D+00  6 -3 -2 25 -1 -4 21 2 0.24970276D+00 0.20936847D+00 0.25987680D+06 0.25987680D+06 0.25987680D+06 0.10891954D+01  1  2  4  2  6  2       -2 -.151664150247D-03 0.100000000000D+01
-.204869864209D+01 0.000000000000D+00 -.159864844426D-01 0.781860850597D-03 0.000000000000D+00  6 -3 -2 25 -1 -4 21 2 0.24970276D+00 0.39797235D+00 0.25987680D+06 0.25987680D+06 0.25987680D+06 0.10891954D+01  1  2  5  2  6  2       -2 -.198618878061D-03 0.100000000000D+01
0.169909728133D+01 0.000000000000D+00 0.131743491426D-01 0.781860850597D-03 0.000000000000D+00  6 -3 -2 25 -1 -4 21 2 0.24970276D+00 0.20936847D+00 0.25987680D+06 0.25987680D+06 0.25987680D+06 0.10891954D+01  1  2  6  2  6  2       -2 0.291419686546D-02 0.100000000000D+01
-.142056888758D+00 0.000000000000D+00 -.111563070404D-02 0.781860850597D-03 0.000000000000D+00  6 -3 21 25 2 -1 -4 2 0.24970276D+00 0.39797235D+00 0.25987680D+06 0.25987680D+06 0.25987680D+06 0.10891954D+01  3  4  5  6  4  2       -2 -.102112741975D-03 0.100000000000D+01
  </mgrwgt>
  </event>
  <event>
  5     66 0.21357055E-05 0.22805191E+03 0.75467711E-02 0.92197729E-01
       -3 -1    0    0    0  501 0.00000000E+00 0.00000000E+00 0.13653293E+04 0.13653294E+04 0.50000000E+00 0.0000E+00 0.9000E+01
       -2 -1    0    0    0  502 -.00000000E+00 -.00000000E+00 -.14072168E+04 0.14072169E+04 0.32000000E+00 0.0000E+00 0.9000E+01
       25  1    1    2    0    0 -.41530509E+03 -.23264563E+03 -.77184186E+03 0.91540546E+03 0.12500000E+03 0.0000E+00 0.9000E+01
       -1  1    1    2    0  502 0.52007388E+03 0.30042780E+02 -.42968369E+03 0.67528333E+03 0.32000000E+00 0.0000E+00 0.9000E+01
       -4  1    1    2    0  501 -.10476878E+03 0.20260285E+03 0.11596380E+04 0.11818575E+04 0.15500000E+01 0.0000E+00 0.9000E+01
#aMCatNLO 1  0  0  5  1 0.23105514D+02 0.00000000D+00  -5  6  0 0.00000000D+00 0.00000000D+00 0.00000000D+00 0.00000000D+00 0.00000000D+00
  <mgrwgt>
 0.1723512782D-04    7    2    0
 0.138611490526161D+04 0.000000000000000D+00 0.000000000000000D+00 0.138611490526161D+04
 0.138611490526161D+04 -.000000000000000D+00 -.000000000000000D+00 -.138611490526161D+04
 0.903957007965262D+03 -.415555006584621D+03 -.232715980698300D+03 -.758070300882176D+03
 0.668952656901282D+03 0.520306934108491D+03 0.301457327828497D+02 -.419368079721015D+03
 0.119932014565668D+04 -.104751927523870D+03 0.202570247915451D+03 0.117743838060319D+04
 0.000000000000000D+00 0.000000000000000D+00 0.000000000000000D+00 0.000000000000000D+00
 0.138611490526161D+04 0.000000000000000D+00 0.000000000000000D+00 0.138611490526161D+04
 0.138611490526161D+04 -.000000000000000D+00 -.000000000000000D+00 -.138611490526161D+04
 0.903641228003951D+03 -.415588374445681D+03 -.232651453619446D+03 -.757695237613940D+03
 0.668761627868952D+03 0.520282240200572D+03 0.301934860907582D+02 -.419090513898240D+03
 0.893550578198776D+03 -.916702976151511D+02 0.132337295012391D+03 0.878928912189899D+03
 0.306276376451543D+03 -.130235681397404D+02 0.701206725162970D+02 0.297856839322281D+03
0.410171854268D-04 0.000000000000D+00 0.000000000000D+00 0.118116984086D-05 0.000000000000D+00  6 -3 -2 25 -1 -4 21 0 0.21005067D+00 0.21649491D+00 0.38541840D+06 0.38541840D+06 0.38541840D+06 0.10765922D+01  1  2  2  4  6  5       -4 0.155289160498D-06 0.100000000000D+01
0.378861849969D-05 0.000000000000D+00 -.157516792112D-06 0.118116984086D-05 0.000000000000D+00  6 -3 -2 25 -1 -4 21 2 0.21005067D+00 0.21649491D+00 0.38541840D+06 0.38541840D+06 0.38541840D+06 0.10765922D+01  1  2  3  4  6  5       -4 0.166248830688D-07 0.100000000000D+01
-.266760885367D-04 0.000000000000D+00 0.000000000000D+00 0.118116984086D-05 0.000000000000D+00  6 -3 -2 25 -1 -4 21 2 0.21005067D+00 0.21649491D+00 0.38541840D+06 0.38541840D+06 0.38541840D+06 0.10765922D+01  1  2 15  4  6  5       -4 -.117057669621D-06 0.100000000000D+01
0.721981726148D-02 0.000000000000D+00 0.000000000000D+00 0.118116984086D-05 0.000000000000D+00  6 -3 -2 25 -1 -4 21 2 0.21005067D+00 0.21649491D+00 0.38804899D+06 0.38804899D+06 0.38804899D+06 0.10763786D+01  1  2 12  4  6  5       -4 0.316483244418D-04 0.100000000000D+01
-.558742339687D-02 0.000000000000D+00 0.000000000000D+00 0.118116984086D-05 0.000000000000D+00  6 -3 -2 25 -1 -4 21 2 0.21005067D+00 0.21649491D+00 0.38541840D+06 0.38541840D+06 0.38541840D+06 0.10765922D+01  1  2  4  4  6  5       -4 -.245182407878D-04 0.100000000000D+01
-.799093001807D-02 0.000000000000D+00 0.000000000000D+00 0.118116984086D-05 0.000000000000D+00  6 -3 -2 25 -1 -4 21 2 0.21005067D+00 0.21649491D+00 0.38541840D+06 0.38541840D+06 0.38541840D+06 0.10765922D+01  1  2  5  4  6  5       -4 -.350650975209D-04 0.100000000000D+01
0.102812515338D-01 0.000000000000D+00 -.000000000000D+00 0.118116984086D-05 0.000000000000D+00  6 -3 -2 25 -1 -4 21 2 0.21005067D+00 0.21649491D+00 0.38541840D+06 0.38541840D+06 0.38541840D+06 0.10765922D+01  1  2  6  4  6  5       -4 0.451152853113D-04 0.100000000000D+01
  </mgrwgt>
  </event>
  <event>
  5     66 -.21357055E-05 0.14696755E+02 0.75467711E-02 0.94394852E-01
       -3 -1    0    0    0  501 0.00000000E+00 0.00000000E+00 0.19372417E+03 0.19372481E+03 0.50000000E+00 0.0000E+00 0.9000E+01
       -2 -1    0    0    0  502 -.00000000E+00 -.00000000E+00 -.21950562E+04 0.21950562E+04 0.32000000E+00 0.0000E+00 0.9000E+01
       25  1    1    2    0    0 -.39425800E+03 0.30865395E+03 -.48063069E+03 0.70522158E+03 0.12500000E+03 0.0000E+00 0.9000E+01
       -1  1    1    2    0  502 0.19280171E+01 -.14552033E+02 -.86337095E+03 0.86349579E+03 0.32000000E+00 0.0000E+00 0.9000E+01
       -4  1    1    2    0  501 0.39232998E+03 -.29410191E+03 -.65733036E+03 0.82006362E+03 0.15500000E+01 0.0000E+00 0.9000E+01
#aMCatNLO 1  0  0  5  1 0.23105514D+02 0.00000000D+00  -5  6  0 0.00000000D+00 0.00000000D+00 0.00000000D+00 0.00000000D+00 0.00000000D+00
  <mgrwgt>
 -.2627375353D-03    4    2    0
 0.652101394782161D+03 0.000000000000000D+00 0.000000000000000D+00 0.652101394782161D+03
 0.652101394782161D+03 -.000000000000000D+00 -.000000000000000D+00 -.652101394782161D+03
 0.554031318519716D+03 -.393988634018907D+03 0.308467317837365D+03 0.202352593239703D+03
 0.257175501677799D+03 0.193075452354238D+01 -.145693782186792D+02 -.256755222086170D+03
 0.492995969366807D+03 0.392057879495365D+03 -.293897939618686D+03 0.544026288464670D+02
 0.000000000000000D+00 0.000000000000000D+00 0.000000000000000D+00 0.000000000000000D+00
 0.652101394782161D+03 0.000000000000000D+00 0.000000000000000D+00 0.652101394782161D+03
 0.652101394782161D+03 -.000000000000000D+00 -.000000000000000D+00 -.652101394782161D+03
 0.552888253155385D+03 -.392927702981224D+03 0.307672013209248D+03 0.202499809863813D+03
 0.257132590373230D+03 0.242369496090670D+01 -.149389006450174D+02 -.256686820819266D+03
 0.942859630663167D+02 0.607410394635308D+02 -.719443452458717D+02 0.493762527693575D+01
 0.399895982969392D+03 0.329762968556787D+03 -.220788767318359D+03 0.492493856785174D+02
0.457635161829D-03 0.000000000000D+00 0.000000000000D+00 0.351964957876D-05 0.000000000000D+00  6 -3 -2 25 -1 -4 21 0 0.29803770D-01 0.33770100D+00 0.26032328D+06 0.26032328D+06 0.26032328D+06 0.10891396D+01  1  2  2  4  6  5       -4 0.519504514012D-04 0.100000000000D+01
0.326386842921D-03 0.000000000000D+00 -.175743951953D-05 0.351964957876D-05 0.000000000000D+00  6 -3 -2 25 -1 -4 21 2 0.29803770D-01 0.33770100D+00 0.26032328D+06 0.26032328D+06 0.26032328D+06 0.10891396D+01  1  2  3  4  6  5       -4 0.439510894891D-04 0.100000000000D+01
-.322977976466D-03 0.000000000000D+00 0.000000000000D+00 0.351964957876D-05 0.000000000000D+00  6 -3 -2 25 -1 -4 21 2 0.29803770D-01 0.33770100D+00 0.26032328D+06 0.26032328D+06 0.26032328D+06 0.10891396D+01  1  2 15  4  6  5       -4 -.434920532324D-04 0.100000000000D+01
-.234032519067D-02 0.000000000000D+00 0.000000000000D+00 0.351964957876D-05 0.000000000000D+00  6 -3 -2 25 -1 -4 21 2 0.29803770D-01 0.33770100D+00 0.26032328D+06 0.26032328D+06 0.26032328D+06 0.10891396D+01  1  2  5  4  6  5       -4 -.315147022987D-03 0.100000000000D+01
  </mgrwgt>
  </event>
  <event>
  6     66 -.21357055E-05 0.14870199E+03 0.75467711E-02 0.94812933E-01
       -3 -1    0    0    0  503 0.00000000E+00 0.00000000E+00 0.97509255E+03 0.97509268E+03 0.50000000E+00 0.0000E+00 0.9000E+01
       -2 -1    0    0    0  502 0.00000000E+00 0.00000000E+00 -.12438907E+04 0.12438908E+04 0.32000000E+00 0.0000E+00 0.9000E+01
       25  1    1    2    0    0 0.29940704E+03 -.34825781E+03 0.28331197E+03 0.55391222E+03 0.12500000E+03 0.0000E+00 0.9000E+01
       -1  1    1    2    0  502 -.14552080E+03 0.47368249E+02 -.10292979E+04 0.10406125E+04 0.32000000E+00 0.0000E+00 0.9000E+01
       -4  1    1    2    0  501 -.16043407E+03 0.30693343E+03 0.33452158E+03 0.48151253E+03 0.15500000E+01 0.0000E+00 0.9000E+01
       21  1    1    2  501  503 0.65478318E+01 -.60438717E+01 0.14266621E+03 0.14294619E+03 0.75000000E+00 0.0000E+00 0.9000E+01
#aMCatNLO 2  0  0  1  5 0.89108073D+01 0.00000000D+00  -5  6  0 0.00000000D+00 0.00000000D+00 0.00000000D+00 0.00000000D+00 0.00000000D+00
  <mgrwgt>
 -.1306658636D-03    2    2    0
 0.101741686396211D+04 0.000000000000000D+00 0.000000000000000D+00 0.101741686396211D+04
 0.101741686396211D+04 0.000000000000000D+00 0.000000000000000D+00 -.101741686396211D+04
 0.624750981632801D+03 0.301330375986177D+03 -.349775633810588D+03 0.401927604863835D+03
 0.853292277126311D+03 -.142887658668469D+03 0.448757276070041D+02 -.840045829866080D+03
 0.556790469165099D+03 -.158442717317708D+03 0.304899906203584D+03 0.438118225002245D+03
 0.000000000000000D+00 0.000000000000000D+00 -.000000000000000D+00 0.000000000000000D+00
 0.119199878755894D+04 0.000000000000000D+00 0.000000000000000D+00 0.119199878755894D+04
 0.101754032943355D+04 0.000000000000000D+00 0.000000000000000D+00 -.101754032943355D+04
 0.622748424731810D+03 0.299323239722296D+03 -.347922978712991D+03 0.401927604863835D+03
 0.853893542879239D+03 -.145634397104603D+03 0.474110606867973D+02 -.840045829866080D+03
 0.558211271024095D+03 -.160236674425508D+03 0.306555789683169D+03 0.438118225002245D+03
 0.174685878357343D+03 0.654783180781418D+01 -.604387165697488D+01 0.174458458125386D+03
-.250831779084D-01 0.000000000000D+00 0.000000000000D+00 0.122223742692D-04 0.000000000000D+00  6 -3 -2 25 -1 -4 21 2 0.15015630D+00 0.19134444D+00 0.24189395D+06 0.24189395D+06 0.24189395D+06 0.10915377D+01  1  2 13  1  6  1       -3 -.674696068057D-03 0.100000000000D+01
0.201694132356D-01 0.000000000000D+00 0.000000000000D+00 0.122223742692D-04 0.791579622084D-06  6 -3 -2 25 -1 -4 21 2 0.15001413D+00 0.19136766D+00 0.24189395D+06 0.24189395D+06 0.24189395D+06 0.10915377D+01  1  2  1  1  6  1       -3 0.544030204411D-03 0.100000000000D+01
  </mgrwgt>
  </event>
  <event>
  5     66 0.21357055E-05 0.41877784E+02 0.75467711E-02 0.91859648E-01
       -3 -1    0    0    0  501 0.00000000E+00 0.00000000E+00 0.69816801E+03 0.69816819E+03 0.50000000E+00 0.0000E+00 0.9000E+01
       -2 -1    0    0    0  502 0.00000000E+00 0.00000000E+00 -.78017997E+03 0.78018003E+03 0.32000000E+00 0.0000E+00 0.9000E+01
       25  1    1    2    0    0 0.58948312E+03 0.71276511E+02 -.63851967E+02 0.61014159E+03 0.12500000E+03 0.0000E+00 0.9000E+01
       -1  1    1    2    0  502 0.36814463E+02 -.19887682E+02 -.20767383E+03 0.21184746E+03 0.32000000E+00 0.0000E+00 0.9000E+01
       -4  1    1    2    0  501 -.62629758E+03 -.51388829E+02 0.18951384E+03 0.65635918E+03 0.15500000E+01 0.0000E+00 0.9000E+01
#aMCatNLO 1  0  0  2  4 0.89916394D+01 0.00000000D+00  -5  6  0 0.00000000D+00 0.00000000D+00 0.00000000D+00 0.00000000D+00 0.00000000D+00
  <mgrwgt>
 0.3764282746D-04   11    4    0
 0.738035823250558D+03 0.000000000000000D+00 0.000000000000000D+00 0.738035823250558D+03
 0.738035823250558D+03 0.000000000000000D+00 0.000000000000000D+00 -.738035823250558D+03
 0.607391610319444D+03 0.589349007164121D+03 0.712869029765219D+02 -.297572429019862D+02
 0.200892389790807D+03 0.368439079416213D+02 -.199066622319927D+02 -.196479015475527D+03
 0.667787646390864D+03 -.626192915105742D+03 -.513802407445291D+02 0.226236258377513D+03
 0.000000000000000D+00 -.000000000000000D+00 -.000000000000000D+00 -.000000000000000D+00
 0.738205540770985D+03 0.000000000000000D+00 0.000000000000000D+00 0.738205540770985D+03
 0.867595987282965D+03 0.000000000000000D+00 0.000000000000000D+00 -.867595987282965D+03
 0.609725911158575D+03 0.591371986275493D+03 0.743933268620613D+02 -.297572429019862D+02
 0.200916979550158D+03 0.375117579615134D+02 -.188811324862386D+02 -.196479015475527D+03
 0.665456142277452D+03 -.623976921754857D+03 -.479774301882101D+02 0.226236258377513D+03
 0.129702495067766D+03 -.490682248214936D+01 -.753476418761259D+01 -.129390446511980D+03
 0.738035823250558D+03 0.000000000000000D+00 0.000000000000000D+00 0.738035823250558D+03
 0.738035823250558D+03 0.000000000000000D+00 0.000000000000000D+00 -.738035823250558D+03
 0.607391610319444D+03 0.589349007164121D+03 0.712869029765219D+02 -.297572429019862D+02
 0.000000000000000D+00 -.000000000000000D+00 -.000000000000000D+00 -.000000000000000D+00
 0.200892389790807D+03 0.368439079416213D+02 -.199066622319927D+02 -.196479015475527D+03
 0.667787646390864D+03 -.626192915105742D+03 -.513802407445291D+02 0.226236258377513D+03
 0.738205540770985D+03 0.000000000000000D+00 0.000000000000000D+00 0.738205540770985D+03
 0.867595987282965D+03 0.000000000000000D+00 0.000000000000000D+00 -.867595987282965D+03
 0.609725911158575D+03 0.591371986275493D+03 0.743933268620613D+02 -.297572429019862D+02
 0.129702495067766D+03 -.490682248214936D+01 -.753476418761259D+01 -.129390446511980D+03
 0.200916979550158D+03 0.375117579615134D+02 -.188811324862386D+02 -.196479015475527D+03
 0.665456142277452D+03 -.623976921754857D+03 -.479774301882101D+02 0.226236258377513D+03
0.258209666553D-05 0.000000000000D+00 0.000000000000D+00 0.150407979566D-05 0.000000000000D+00  6 -3 -2 25 -1 -4 21 0 0.10741048D+00 0.12002771D+00 0.40757839D+06 0.40757839D+06 0.40757839D+06 0.10748405D+01  1  2  2  2  6  2       -2 0.561525799257D-06 0.100000000000D+01
0.841565346156D-06 0.000000000000D+00 -.991593107730D-08 0.150407979566D-05 0.000000000000D+00  6 -3 -2 25 -1 -4 21 2 0.10741048D+00 0.12002771D+00 0.40757839D+06 0.40757839D+06 0.40757839D+06 0.10748405D+01  1  2  3  2  6  2       -2 0.211433165313D-06 0.100000000000D+01
-.185392118004D-05 0.000000000000D+00 0.000000000000D+00 0.150407979566D-05 0.000000000000D+00  6 -3 -2 25 -1 -4 21 2 0.10741048D+00 0.12002771D+00 0.40757839D+06 0.40757839D+06 0.40757839D+06 0.10748405D+01  1  2 15  2  6  2       -2 -.465775385272D-06 0.100000000000D+01
0.985950253398D-03 0.000000000000D+00 0.000000000000D+00 0.150407979566D-05 0.000000000000D+00  6 -3 -2 25 -1 -4 21 2 0.10741048D+00 0.14591893D+00 0.41332379D+06 0.41332379D+06 0.41332379D+06 0.10744033D+01  1  2 12  2  6  2       -2 0.147290592110D-03 0.100000000000D+01
-.827864258357D-03 0.000000000000D+00 0.000000000000D+00 0.150407979566D-05 0.000000000000D+00  6 -3 -2 25 -1 -4 21 2 0.10741048D+00 0.12002771D+00 0.40757839D+06 0.40757839D+06 0.40757839D+06 0.10748405D+01  1  2  4  2  6  2       -2 -.207990931891D-03 0.100000000000D+01
-.125211668764D-02 0.000000000000D+00 -.351344370601D-05 0.150407979566D-05 0.000000000000D+00  6 -3 -2 25 -1 -4 21 2 0.10741048D+00 0.14111109D+00 0.40757839D+06 0.40757839D+06 0.40757839D+06 0.10748405D+01  1  2  5  2  6  2       -2 -.205265289863D-03 0.100000000000D+01
0.123650503635D-02 0.000000000000D+00 0.346793659528D-05 0.150407979566D-05 0.000000000000D+00  6 -3 -2 25 -1 -4 21 2 0.10741048D+00 0.12002771D+00 0.40757839D+06 0.40757839D+06 0.40757839D+06 0.10748405D+01  1  2  6  2  6  2       -2 0.310657009531D-03 0.100000000000D+01
0.158285273602D-06 0.000000000000D+00 0.000000000000D+00 0.150407979566D-05 0.929459581651D-07  6 -3 -2 25 -1 -4 21 2 0.10743518D+00 0.14109824D+00 0.41332379D+06 0.41332379D+06 0.41332379D+06 0.10744033D+01  1  2 11  2  6  2       -2 0.259000587353D-07 0.100000000000D+01
0.277068052966D-04 0.000000000000D+00 0.000000000000D+00 0.150407979566D-05 0.000000000000D+00  6 -3 21 25 2 -1 -4 2 0.10741048D+00 0.14591893D+00 0.41332379D+06 0.41332379D+06 0.41332379D+06 0.10744033D+01  3  4 12  6  4  2       -2 0.350710175594D-04 0.100000000000D+01
-.303306313418D-04 0.000000000000D+00 -.851862200882D-07 0.150407979566D-05 0.000000000000D+00  6 -3 21 25 2 -1 -4 2 0.10741048D+00 0.14111109D+00 0.40757839D+06 0.40757839D+06 0.40757839D+06 0.10748405D+01  3  4  5  6  4  2       -2 -.424606065534D-04 0.100000000000D+01
0.569416251796D-08 0.000000000000D+00 0.000000000000D+00 0.150407979566D-05 0.272024441605D-08  6 -3 21 25 2 -1 -4 2 0.10743518D+00 0.14109824D+00 0.41332379D+06 0.41332379D+06 0.41332379D+06 0.10744033D+01  3  4 11  6  4  2       -2 0.795292576659D-08 0.100000000000D+01
  </mgrwgt>
  </event>
  <event>
  6     66 0.21357055E-05 0.10264091E+03 0.75467711E-02 0.93388500E-01
       -3 -1    0    0    0  503 0.00000000E+00 0.00000000E+00 0.89223780E+03 0.89223794E+03 0.50000000E+00 0.0000E+00 0.9000E+01
       -2 -1    0    0    0  502 0.00000000E+00 0.00000000E+00 -.11502992E+04 0.11502992E+04 0.32000000E+00 0.0000E+00 0.9000E+01
       25  1    1    2    0    0 -.46488684E+03 0.72470439E+02 0.17824048E+03 0.51842685E+03 0.12500000E+03 0.0000E+00 0.9000E+01
       -1  1    1    2    0  502 -.54841659E+02 0.27239098E+01 -.81894206E+03 0.82078087E+03 0.32000000E+00 0.0000E+00 0.9000E+01
       -4  1    1    2    0  501 0.41767538E+03 -.15591143E+03 0.22645554E+03 0.50004560E+03 0.15500000E+01 0.0000E+00 0.9000E+01
       21  1    1    2  501  503 0.10205312E+03 0.80717077E+02 0.15618470E+03 0.20328381E+03 0.75000000E+00 0.0000E+00 0.9000E+01
#aMCatNLO 2  0  0  1  1 0.44810310D+03 0.00000000D+00  -5  6  0 0.00000000D+00 0.00000000D+00 0.00000000D+00 0.00000000D+00 0.00000000D+00
  <mgrwgt>
 0.1802578853D-03    1    2    0
 0.893633442526442D+03 0.000000000000000D+00 0.000000000000000D+00 0.893633442526442D+03
 0.893633442526442D+03 0.000000000000000D+00 0.000000000000000D+00 -.893633442526442D+03
 0.551613849182358D+03 -.432401893520864D+03 0.976947683046976D+02 0.303541057083289D+03
 0.652286462272101D+03 -.176486855338227D+02 0.321796237495384D+02 -.651253118670245D+03
 0.583366573598425D+03 0.450050579054686D+03 -.129874392054236D+03 0.347712061586956D+03
 0.000000000000000D+00 0.000000000000000D+00 0.000000000000000D+00 0.000000000000000D+00
 0.112201994023504D+04 0.000000000000000D+00 0.000000000000000D+00 0.112201994023504D+04
 0.914724657096750D+03 0.000000000000000D+00 0.000000000000000D+00 -.914724657096750D+03
 0.573351780461167D+03 -.464477274408599D+03 0.723253232326592D+02 0.303541057083289D+03
 0.653567190822554D+03 -.548816037696663D+02 0.273091736123449D+01 -.651253118670245D+03
 0.565077960564863D+03 0.417305760109953D+03 -.155773317105813D+03 0.347712061586956D+03
 0.244747665483206D+03 0.102053118068312D+03 0.807170765119197D+02 0.207295283138289D+03
0.410219582194D-02 0.000000000000D+00 0.000000000000D+00 0.392885203355D-04 0.116937594159D-07  6 -3 -2 25 -1 -4 21 2 0.13726728D+00 0.17696900D+00 0.31187048D+06 0.31187048D+06 0.31187048D+06 0.10833072D+01  1  2  1  1  6  1       -3 0.180257885284D-03 0.100000000000D+01
  </mgrwgt>
  </event>
</LesHouchesEvents>
