<event>
 5    0  0.1856407E+000  0.3833728E+03  0.7546771E-02  0.1049694E+00
         21   -1    0    0  502  501  0.00000000000E+00  0.00000000000E+00  0.13591501629E+04  0.13591501629E+04  0.00000000000E+00 0.  1.
         21   -1    0    0  503  502 -0.00000000000E+00 -0.00000000000E+00 -0.12284285029E+03  0.12284285029E+03  0.00000000000E+00 0. -1.
         25    1    1    2    0    0 -0.35036927842E+03  0.10481186477E+03  0.72679988166E+03  0.82316901438E+03  0.12500000000E+03 0.  0.
         21    1    1    2  503  504  0.32744008706E+03 -0.15415816072E+03  0.42381991146E+03  0.55731953714E+03  0.00000000000E+00 0. -1.
         21    1    1    2  504  501  0.22929191362E+02  0.49346295948E+02  0.85687519503E+02  0.10150446167E+03  0.00000000000E+00 0. -1.
<mgrwt>
<rscale>  4 0.38337284E+03</rscale>
<asrwt>0</asrwt>
<pdfrwt beam="1">  1       21 0.20910002E+00 0.38337284E+03</pdfrwt>
<pdfrwt beam="2">  1       21 0.18898901E-01 0.38337284E+03</pdfrwt>
<totfact> 0.26341149E+03</totfact>
</mgrwt>
</event>
<event>
 5    0  0.1933388E+000  0.2541532E+03  0.7546771E-02  0.1110708E+00
         21   -1    0    0  502  501  0.00000000000E+00  0.00000000000E+00  0.17530440340E+03  0.17530440340E+03  0.00000000000E+00 0. -1.
         21   -1    0    0  503  502 -0.00000000000E+00 -0.00000000000E+00 -0.34239344093E+03  0.34239344093E+03  0.00000000000E+00 0. -1.
         25    1    1    2    0    0 -0.67166527863E+02 -0.21084948703E+03 -0.66947267053E+02  0.26282272583E+03  0.12500000000E+03 0.  0.
         21    1    1    2  503  504  0.75232574735E+02  0.13778748186E+03 -0.89197543309E+02  0.18055894381E+03  0.00000000000E+00 0. -1.
         21    1    1    2  504  501 -0.80660468718E+01  0.73062005171E+02 -0.10944227161E+02  0.74316174685E+02  0.00000000000E+00 0. -1.
<mgrwt>
<rscale>  4 0.25415320E+03</rscale>
<asrwt>0</asrwt>
<pdfrwt beam="1">  1       21 0.26969908E-01 0.25415320E+03</pdfrwt>
<pdfrwt beam="2">  1       21 0.52675914E-01 0.25415320E+03</pdfrwt>
<totfact> 0.43507970E+04</totfact>
</mgrwt>
</event>
<event>
 5    0  0.1856407E+000  0.2526080E+03  0.7546771E-02  0.1111668E+00
         21   -1    0    0  502  501  0.00000000000E+00  0.00000000000E+00  0.16779168729E+03  0.16779168729E+03  0.00000000000E+00 0.  1.
         21   -1    0    0  503  502 -0.00000000000E+00 -0.00000000000E+00 -0.39336445050E+03  0.39336445050E+03  0.00000000000E+00 0.  1.
         25    1    1    2    0    0 -0.11254942014E+03 -0.18846332234E+03 -0.30526660311E+02  0.25444581512E+03  0.12500000000E+03 0.  0.
         21    1    1    2  503  504  0.73593820275E+02  0.52450560268E+02 -0.10705123936E+03  0.14009667913E+03  0.00000000000E+00 0.  1.
         21    1    1    2  504  501  0.38955599868E+02  0.13601276207E+03 -0.87994863542E+02  0.16661364355E+03  0.00000000000E+00 0.  1.
<mgrwt>
<rscale>  4 0.25260799E+03</rscale>
<asrwt>0</asrwt>
<pdfrwt beam="1">  1       21 0.25814106E-01 0.25260799E+03</pdfrwt>
<pdfrwt beam="2">  1       21 0.60517607E-01 0.25260799E+03</pdfrwt>
<totfact> 0.35207103E+04</totfact>
</mgrwt>
</event>
<event>
 5    0  0.1856407E+000  0.2560193E+03  0.7546771E-02  0.1109559E+00
         21   -1    0    0  502  501  0.00000000000E+00  0.00000000000E+00  0.34030494534E+03  0.34030494534E+03  0.00000000000E+00 0.  1.
         21   -1    0    0  503  502 -0.00000000000E+00 -0.00000000000E+00 -0.19239929146E+03  0.19239929146E+03  0.00000000000E+00 0. -1.
         25    1    1    2    0    0  0.19249731606E+02 -0.22259903924E+03  0.13817062787E+03  0.29092440056E+03  0.12500000000E+03 0.  0.
         21    1    1    2  503  504  0.31539911649E+02  0.13429294066E+03 -0.88400513035E+01  0.13822990431E+03  0.00000000000E+00 0. -1.
         21    1    1    2  504  501 -0.50789643255E+02  0.88306098572E+02  0.18575077314E+02  0.10354993194E+03  0.00000000000E+00 0. -1.
<mgrwt>
<rscale>  4 0.25601930E+03</rscale>
<asrwt>0</asrwt>
<pdfrwt beam="1">  1       21 0.52354607E-01 0.25601930E+03</pdfrwt>
<pdfrwt beam="2">  1       21 0.29599891E-01 0.25601930E+03</pdfrwt>
<totfact> 0.36737466E+04</totfact>
</mgrwt>
</event>
<event>
 5    0  0.5220434E+000  0.2617937E+03  0.7546771E-02  0.1106070E+00
         21   -1    0    0  502  501  0.00000000000E+00  0.00000000000E+00  0.32958726221E+03  0.32958726221E+03  0.00000000000E+00 0.  1.
         21   -1    0    0  503  502 -0.00000000000E+00 -0.00000000000E+00 -0.31334123845E+03  0.31334123845E+03  0.00000000000E+00 0. -1.
         25    1    1    2    0    0 -0.11082877922E+03 -0.20156373202E+03  0.21179884504E+03  0.33674130594E+03  0.12500000000E+03 0.  0.
         21    1    1    2  503  504  0.10685333510E+03  0.17964632436E+03 -0.15609326865E+03  0.26087457828E+03  0.00000000000E+00 0. -1.
         21    1    1    2  504  501  0.39754441252E+01  0.21917407661E+02 -0.39459552631E+02  0.45312616437E+02  0.00000000000E+00 0.  1.
<mgrwt>
<rscale>  4 0.26179373E+03</rscale>
<asrwt>0</asrwt>
<pdfrwt beam="1">  1       21 0.50705733E-01 0.26179373E+03</pdfrwt>
<pdfrwt beam="2">  1       21 0.48206344E-01 0.26179373E+03</pdfrwt>
<totfact> 0.14630572E+04</totfact>
</mgrwt>
</event>
<event>
 5    0  0.1856407E+000  0.4568216E+03  0.7546771E-02  0.1027030E+00
         21   -1    0    0  502  501  0.00000000000E+00  0.00000000000E+00  0.92635486367E+02  0.92635486367E+02  0.00000000000E+00 0. -1.
         21   -1    0    0  503  502 -0.00000000000E+00 -0.00000000000E+00 -0.22123229440E+04  0.22123229440E+04  0.00000000000E+00 0. -1.
         25    1    1    2    0    0 -0.38887992064E+03 -0.16112410081E+03 -0.87303348923E+03  0.97724154735E+03  0.12500000000E+03 0.  0.
         21    1    1    2  503  504  0.29080684302E+03  0.29160894276E+02 -0.81352165677E+03  0.86442840290E+03  0.00000000000E+00 0. -1.
         21    1    1    2  504  501  0.98073077624E+02  0.13196320653E+03 -0.43313231160E+03  0.46328848009E+03  0.00000000000E+00 0. -1.
<mgrwt>
<rscale>  4 0.45232667E+03</rscale>
<asrwt>0</asrwt>
<pdfrwt beam="1">  1       21 0.14251614E-01 0.45682163E+03</pdfrwt>
<pdfrwt beam="2">  1       21 0.34035736E+00 0.45682163E+03</pdfrwt>
<totfact> 0.67635274E+02</totfact>
</mgrwt>
</event>
<event>
 5    0  0.1856407E+000  0.4970414E+03  0.7546771E-02  0.1014554E+00
         21   -1    0    0  502  501  0.00000000000E+00  0.00000000000E+00  0.17884204087E+04  0.17884204087E+04  0.00000000000E+00 0. -1.
         21   -1    0    0  503  502 -0.00000000000E+00 -0.00000000000E+00 -0.16166244408E+03  0.16166244408E+03  0.00000000000E+00 0. -1.
         25    1    1    2    0    0 -0.47856237150E+03 -0.49022716782E+02  0.12241198715E+04  0.13211811495E+04  0.12500000000E+03 0.  0.
         21    1    1    2  503  504  0.45288475231E+03  0.56173821312E+02  0.38333401898E+03  0.59599082811E+03  0.00000000000E+00 0. -1.
         21    1    1    2  504  501  0.25677619192E+02 -0.71511045295E+01  0.19304074189E+02  0.32910875158E+02  0.00000000000E+00 0.  1.
<mgrwt>
<rscale>  4 0.49704142E+03</rscale>
<asrwt>0</asrwt>
<pdfrwt beam="1">  1       21 0.27514159E+00 0.49704142E+03</pdfrwt>
<pdfrwt beam="2">  1       21 0.24871147E-01 0.49704142E+03</pdfrwt>
<totfact> 0.57128926E+02</totfact>
</mgrwt>
</event>
<event>
 5    0  0.1856407E+000  0.3294798E+03  0.7546771E-02  0.1071367E+00
         21   -1    0    0  502  501  0.00000000000E+00  0.00000000000E+00  0.48910180303E+03  0.48910180303E+03  0.00000000000E+00 0. -1.
         21   -1    0    0  503  502 -0.00000000000E+00 -0.00000000000E+00 -0.91487598662E+03  0.91487598662E+03  0.00000000000E+00 0. -1.
         25    1    1    2    0    0 -0.10458525727E+03  0.28634568943E+03  0.40000144465E+03  0.51822590211E+03  0.12500000000E+03 0.  0.
         21    1    1    2  503  504  0.74582838377E+02 -0.87245518264E+02 -0.37214966226E+03  0.38944800855E+03  0.00000000000E+00 0. -1.
         21    1    1    2  504  501  0.30002418895E+02 -0.19910017117E+03 -0.45362596597E+03  0.49630387899E+03  0.00000000000E+00 0. -1.
<mgrwt>
<rscale>  4 0.32947979E+03</rscale>
<asrwt>0</asrwt>
<pdfrwt beam="1">  1       21 0.75246432E-01 0.32947979E+03</pdfrwt>
<pdfrwt beam="2">  1       21 0.14075015E+00 0.32947979E+03</pdfrwt>
<totfact> 0.49549903E+02</totfact>
</mgrwt>
</event>
<event>
 5    0  0.1856407E+000  0.2929039E+03  0.7546771E-02  0.1088843E+00
         21   -1    0    0  502  501  0.00000000000E+00  0.00000000000E+00  0.18162599335E+03  0.18162599335E+03  0.00000000000E+00 0. -1.
         21   -1    0    0  503  502 -0.00000000000E+00 -0.00000000000E+00 -0.13047513665E+04  0.13047513665E+04  0.00000000000E+00 0.  1.
         25    1    1    2    0    0  0.12689056785E+03  0.23415535031E+03  0.31626558679E+02  0.29589725160E+03  0.12500000000E+03 0.  0.
         21    1    1    2  503  504 -0.13601201842E+03 -0.21344126533E+03 -0.11248853898E+04  0.11530063240E+04  0.00000000000E+00 0.  1.
         21    1    1    2  504  501  0.91214505686E+01 -0.20714084985E+02 -0.29866542052E+02  0.37473784321E+02  0.00000000000E+00 0.  1.
<mgrwt>
<rscale>  4 0.29290389E+03</rscale>
<asrwt>0</asrwt>
<pdfrwt beam="1">  1       21 0.27942459E-01 0.29290389E+03</pdfrwt>
<pdfrwt beam="2">  1       21 0.20073099E+00 0.29290389E+03</pdfrwt>
<totfact> 0.14882130E+03</totfact>
</mgrwt>
</event>
