<event>
 5    0  0.2481446E+000  0.2710483E+03  0.7546771E-02  0.1100681E+00
         21   -1    0    0  502  501  0.00000000000E+00  0.00000000000E+00  0.92788197755E+02  0.92788197755E+02  0.00000000000E+00 0.  1.
         21   -1    0    0  503  502 -0.00000000000E+00 -0.00000000000E+00 -0.14209137962E+04  0.14209137962E+04  0.00000000000E+00 0.  1.
         25    1    1    2    0    0 -0.11537571368E+02 -0.24022715088E+03 -0.14929844471E+03  0.30944664349E+03  0.12500000000E+03 0.  0.
         21    1    1    2  503  504  0.21884298324E+02  0.21463836433E+03 -0.97623720213E+03  0.99979379113E+03  0.00000000000E+00 0.  1.
         21    1    1    2  504  501 -0.10346726956E+02  0.25588786547E+02 -0.20258995163E+03  0.20446155937E+03  0.00000000000E+00 0.  1.
<mgrwt>
<rscale>  4 0.27104833E+03</rscale>
<asrwt>0</asrwt>
<pdfrwt beam="1">  1       21 0.14275107E-01 0.27104833E+03</pdfrwt>
<pdfrwt beam="2">  1       21 0.21860213E+00 0.27104833E+03</pdfrwt>
<totfact> 0.41226931E+03</totfact>
</mgrwt>
</event>
<event>
 5    0  0.1856407E+000  0.3494394E+03  0.7546771E-02  0.1062845E+00
         21   -1    0    0  502  501  0.00000000000E+00  0.00000000000E+00  0.60659527509E+03  0.60659527509E+03  0.00000000000E+00 0.  1.
         21   -1    0    0  503  502 -0.00000000000E+00 -0.00000000000E+00 -0.19737629240E+03  0.19737629240E+03  0.00000000000E+00 0. -1.
         25    1    1    2    0    0  0.19020516796E+03  0.26515069015E+03  0.17440003370E+03  0.39054227192E+03  0.12500000000E+03 0.  0.
         21    1    1    2  503  504 -0.57223914238E+02 -0.74609174541E+02  0.18225366468E+02  0.95777185536E+02  0.00000000000E+00 0. -1.
         21    1    1    2  504  501 -0.13298125372E+03 -0.19054151561E+03  0.21659358253E+03  0.31765211003E+03  0.00000000000E+00 0. -1.
<mgrwt>
<rscale>  4 0.34943940E+03</rscale>
<asrwt>0</asrwt>
<pdfrwt beam="1">  1       21 0.93322349E-01 0.34943940E+03</pdfrwt>
<pdfrwt beam="2">  1       21 0.30365584E-01 0.34943940E+03</pdfrwt>
<totfact> 0.92478481E+03</totfact>
</mgrwt>
</event>
<event>
 5    0  0.1856407E+000  0.3191869E+03  0.7546771E-02  0.1076024E+00
         21   -1    0    0  502  501  0.00000000000E+00  0.00000000000E+00  0.87418857883E+03  0.87418857883E+03  0.00000000000E+00 0. -1.
         21   -1    0    0  503  502 -0.00000000000E+00 -0.00000000000E+00 -0.54768302262E+03  0.54768302262E+03  0.00000000000E+00 0.  1.
         25    1    1    2    0    0 -0.22271618091E+03  0.19292062128E+03  0.79787527237E+03  0.85968064630E+03  0.12500000000E+03 0.  0.
         21    1    1    2  503  504  0.24243294691E+02  0.31440427577E+01 -0.20108660330E+02  0.31654076555E+02  0.00000000000E+00 0.  1.
         21    1    1    2  504  501  0.19847288622E+03 -0.19606466404E+03 -0.45126105583E+03  0.53053687860E+03  0.00000000000E+00 0.  1.
<mgrwt>
<rscale>  4 0.31918689E+03</rscale>
<asrwt>0</asrwt>
<pdfrwt beam="1">  1       21 0.13449055E+00 0.31918689E+03</pdfrwt>
<pdfrwt beam="2">  1       21 0.84258927E-01 0.31918689E+03</pdfrwt>
<totfact> 0.43370939E+02</totfact>
</mgrwt>
</event>
<event>
 5    0  0.1856407E+000  0.2620338E+03  0.7546771E-02  0.1105927E+00
         21   -1    0    0  502  501  0.00000000000E+00  0.00000000000E+00  0.10340701554E+03  0.10340701554E+03  0.00000000000E+00 0.  1.
         21   -1    0    0  503  502 -0.00000000000E+00 -0.00000000000E+00 -0.97993790446E+03  0.97993790446E+03  0.00000000000E+00 0.  1.
         25    1    1    2    0    0  0.15275074392E+03 -0.17234818993E+03 -0.13033565458E+03  0.29265862570E+03  0.12500000000E+03 0.  0.
         21    1    1    2  503  504 -0.51738395645E+02  0.14625892346E+03 -0.49318829763E+03  0.51701376306E+03  0.00000000000E+00 0.  1.
         21    1    1    2  504  501 -0.10101234827E+03  0.26089266478E+02 -0.25300693671E+03  0.27367253123E+03  0.00000000000E+00 0.  1.
<mgrwt>
<rscale>  4 0.26203375E+03</rscale>
<asrwt>0</asrwt>
<pdfrwt beam="1">  1       21 0.15908772E-01 0.26203375E+03</pdfrwt>
<pdfrwt beam="2">  1       21 0.15075967E+00 0.26203375E+03</pdfrwt>
<totfact> 0.99221064E+03</totfact>
</mgrwt>
</event>
<event>
 5    0  0.1856407E+000  0.2719912E+03  0.7546771E-02  0.1100145E+00
         21   -1    0    0  502  501  0.00000000000E+00  0.00000000000E+00  0.80552607410E+02  0.80552607410E+02  0.00000000000E+00 0. -1.
         21   -1    0    0  503  502 -0.00000000000E+00 -0.00000000000E+00 -0.14584779532E+04  0.14584779532E+04  0.00000000000E+00 0.  1.
         25    1    1    2    0    0  0.11395910075E+03 -0.21299650664E+03 -0.20421834302E+03  0.34012397756E+03  0.12500000000E+03 0.  0.
         21    1    1    2  503  504 -0.19024173254E+02  0.36277573474E+02 -0.27864534167E+03  0.28164021009E+03  0.00000000000E+00 0.  1.
         21    1    1    2  504  501 -0.94934927492E+02  0.17671893317E+03 -0.89506166106E+03  0.91726637292E+03  0.00000000000E+00 0.  1.
<mgrwt>
<rscale>  4 0.27199116E+03</rscale>
<asrwt>0</asrwt>
<pdfrwt beam="1">  1       21 0.12392709E-01 0.27199116E+03</pdfrwt>
<pdfrwt beam="2">  1       21 0.22438122E+00 0.27199116E+03</pdfrwt>
<totfact> 0.49037834E+03</totfact>
</mgrwt>
</event>
<event>
 5    0  0.1856407E+000  0.2581681E+03  0.7546771E-02  0.1108249E+00
         21   -1    0    0  502  501  0.00000000000E+00  0.00000000000E+00  0.43745975534E+02  0.43745975534E+02  0.00000000000E+00 0.  1.
         21   -1    0    0  503  502 -0.00000000000E+00 -0.00000000000E+00 -0.26740911431E+04  0.26740911431E+04  0.00000000000E+00 0.  1.
         25    1    1    2    0    0 -0.10041977853E+03 -0.20234036904E+03 -0.40865835148E+03  0.48337604936E+03  0.12500000000E+03 0.  0.
         21    1    1    2  503  504  0.48687681015E+02  0.61237274618E+02 -0.10956300899E+04  0.10984196775E+04  0.00000000000E+00 0.  1.
         21    1    1    2  504  501  0.51732097516E+02  0.14110309442E+03 -0.11260567262E+04  0.11360413918E+04  0.00000000000E+00 0.  1.
<mgrwt>
<rscale>  4 0.25816808E+03</rscale>
<asrwt>0</asrwt>
<pdfrwt beam="1">  1       21 0.67301490E-02 0.25816808E+03</pdfrwt>
<pdfrwt beam="2">  1       21 0.41139870E+00 0.25816808E+03</pdfrwt>
<totfact> 0.10969416E+03</totfact>
</mgrwt>
</event>
<event>
 5    0  0.1856407E+000  0.2671166E+03  0.7546771E-02  0.1102941E+00
         21   -1    0    0  502  501  0.00000000000E+00  0.00000000000E+00  0.84774006454E+02  0.84774006454E+02  0.00000000000E+00 0. -1.
         21   -1    0    0  503  502 -0.00000000000E+00 -0.00000000000E+00 -0.14615536271E+04  0.14615536271E+04  0.00000000000E+00 0. -1.
         25    1    1    2    0    0  0.10059656735E+03  0.25764725150E+03 -0.32616586796E+03  0.44554567554E+03  0.12500000000E+03 0.  0.
         21    1    1    2  503  504 -0.11819443195E+03 -0.82425017380E+02 -0.35286219999E+03  0.38115028455E+03  0.00000000000E+00 0. -1.
         21    1    1    2  504  501  0.17597864601E+02 -0.17522223412E+03 -0.69775155271E+03  0.71963167348E+03  0.00000000000E+00 0. -1.
<mgrwt>
<rscale>  4 0.26711662E+03</rscale>
<asrwt>0</asrwt>
<pdfrwt beam="1">  1       21 0.13042156E-01 0.26711662E+03</pdfrwt>
<pdfrwt beam="2">  1       21 0.22485438E+00 0.26711662E+03</pdfrwt>
<totfact> 0.44561741E+03</totfact>
</mgrwt>
</event>
<event>
 5    0  0.1856407E+000  0.2808818E+03  0.7546771E-02  0.1095208E+00
         21   -1    0    0  502  501  0.00000000000E+00  0.00000000000E+00  0.11270685392E+04  0.11270685392E+04  0.00000000000E+00 0.  1.
         21   -1    0    0  503  502 -0.00000000000E+00 -0.00000000000E+00 -0.15149923697E+04  0.15149923697E+04  0.00000000000E+00 0. -1.
         25    1    1    2    0    0  0.17330136974E+01 -0.25324206690E+03  0.10796242666E+04  0.11159516588E+04  0.12500000000E+03 0.  0.
         21    1    1    2  503  504  0.44631122477E+02  0.12680350678E+03 -0.14891051102E+03  0.20061257866E+03  0.00000000000E+00 0. -1.
         21    1    1    2  504  501 -0.46364136174E+02  0.12643856011E+03 -0.13186375861E+04  0.13254966714E+04  0.00000000000E+00 0. -1.
<mgrwt>
<rscale>  4 0.28088175E+03</rscale>
<asrwt>0</asrwt>
<pdfrwt beam="1">  1       21 0.17339516E+00 0.28088175E+03</pdfrwt>
<pdfrwt beam="2">  1       21 0.23307575E+00 0.28088175E+03</pdfrwt>
<totfact> 0.14825013E+01</totfact>
</mgrwt>
</event>
<event>
 5    0  0.2526560E+000  0.3102430E+03  0.7546771E-02  0.1080229E+00
         21   -1    0    0  502  501  0.00000000000E+00  0.00000000000E+00  0.17600623540E+03  0.17600623540E+03  0.00000000000E+00 0.  1.
         21   -1    0    0  503  502 -0.00000000000E+00 -0.00000000000E+00 -0.57146196538E+03  0.57146196538E+03  0.00000000000E+00 0.  1.
         25    1    1    2    0    0 -0.25839056242E+03  0.11772858452E+03 -0.97028137307E+02  0.32506178150E+03  0.12500000000E+03 0.  0.
         21    1    1    2  503  504  0.65815123950E+02 -0.27186078401E+02 -0.14013651476E+03  0.15719082724E+03  0.00000000000E+00 0.  1.
         21    1    1    2  504  501  0.19257543847E+03 -0.90542506122E+02 -0.15829107791E+03  0.26521559204E+03  0.00000000000E+00 0.  1.
<mgrwt>
<rscale>  4 0.31024297E+03</rscale>
<asrwt>0</asrwt>
<pdfrwt beam="1">  1       21 0.27077882E-01 0.31024297E+03</pdfrwt>
<pdfrwt beam="2">  1       21 0.87917226E-01 0.31024297E+03</pdfrwt>
<totfact> 0.13541745E+04</totfact>
</mgrwt>
</event>
<event>
 5    0  0.1856407E+000  0.2545527E+03  0.7546771E-02  0.1110461E+00
         21   -1    0    0  502  501  0.00000000000E+00  0.00000000000E+00  0.15131996411E+03  0.15131996411E+03  0.00000000000E+00 0.  1.
         21   -1    0    0  503  502 -0.00000000000E+00 -0.00000000000E+00 -0.57652224317E+03  0.57652224317E+03  0.00000000000E+00 0.  1.
         25    1    1    2    0    0 -0.15348419832E+03 -0.20031504733E+03 -0.20527339734E+03  0.34849058090E+03  0.12500000000E+03 0.  0.
         21    1    1    2  503  504  0.52585588379E+02  0.20303942929E+02  0.22758107077E+02  0.60790012678E+02  0.00000000000E+00 0.  1.
         21    1    1    2  504  501  0.10089860994E+03  0.18001110440E+03 -0.24268698879E+03  0.31856161370E+03  0.00000000000E+00 0.  1.
<mgrwt>
<rscale>  4 0.25455272E+03</rscale>
<asrwt>0</asrwt>
<pdfrwt beam="1">  1       21 0.23279994E-01 0.25455272E+03</pdfrwt>
<pdfrwt beam="2">  1       21 0.88695731E-01 0.25455272E+03</pdfrwt>
<totfact> 0.18205233E+04</totfact>
</mgrwt>
</event>
<event>
 5    0  0.1856407E+000  0.2358145E+03  0.7546771E-02  0.1122613E+00
         21   -1    0    0  502  501  0.00000000000E+00  0.00000000000E+00  0.20248654895E+03  0.20248654895E+03  0.00000000000E+00 0. -1.
         21   -1    0    0  503  502 -0.00000000000E+00 -0.00000000000E+00 -0.64434383854E+03  0.64434383854E+03  0.00000000000E+00 0. -1.
         25    1    1    2    0    0 -0.17475684274E+03  0.10370109211E+03  0.90791239490E+02  0.25526832894E+03  0.12500000000E+03 0.  0.
         21    1    1    2  503  504  0.12559072020E+03 -0.14563597527E+03 -0.38350670974E+03  0.42902245012E+03  0.00000000000E+00 0. -1.
         21    1    1    2  504  501  0.49166122547E+02  0.41934883159E+02 -0.14914181934E+03  0.16253960843E+03  0.00000000000E+00 0. -1.
<mgrwt>
<rscale>  4 0.23581449E+03</rscale>
<asrwt>0</asrwt>
<pdfrwt beam="1">  1       21 0.31151777E-01 0.23581449E+03</pdfrwt>
<pdfrwt beam="2">  1       21 0.99129821E-01 0.23581449E+03</pdfrwt>
<totfact> 0.80564452E+03</totfact>
</mgrwt>
</event>
<event>
 5    0  0.3331079E+000  0.3199250E+03  0.7546771E-02  0.1075684E+00
         21   -1    0    0  502  501  0.00000000000E+00  0.00000000000E+00  0.32290430847E+03  0.32290430847E+03  0.00000000000E+00 0. -1.
         21   -1    0    0  503  502 -0.00000000000E+00 -0.00000000000E+00 -0.33612212853E+03  0.33612212853E+03  0.00000000000E+00 0. -1.
         25    1    1    2    0    0  0.13712513973E+03  0.26062174614E+03  0.10211534306E+03  0.33582665439E+03  0.12500000000E+03 0.  0.
         21    1    1    2  503  504 -0.12515287515E+01 -0.50245525919E+02 -0.30455336429E+02  0.58768245815E+02  0.00000000000E+00 0. -1.
         21    1    1    2  504  501 -0.13587361098E+03 -0.21037622022E+03 -0.84877826695E+02  0.26443153681E+03  0.00000000000E+00 0. -1.
<mgrwt>
<rscale>  4 0.31992499E+03</rscale>
<asrwt>0</asrwt>
<pdfrwt beam="1">  1       21 0.49677586E-01 0.31992499E+03</pdfrwt>
<pdfrwt beam="2">  1       21 0.51711096E-01 0.31992499E+03</pdfrwt>
<totfact> 0.12842869E+04</totfact>
</mgrwt>
</event>
<event>
 5    0  0.1049704E+001  0.3359561E+03  0.7546771E-02  0.1068531E+00
         21   -1    0    0  502  501  0.00000000000E+00  0.00000000000E+00  0.93296102072E+02  0.93296102072E+02  0.00000000000E+00 0. -1.
         21   -1    0    0  503  502 -0.00000000000E+00 -0.00000000000E+00 -0.11693744761E+04  0.11693744761E+04  0.00000000000E+00 0. -1.
         25    1    1    2    0    0 -0.20577551320E+03 -0.23430314258E+03 -0.44530355980E+03  0.55781877418E+03  0.12500000000E+03 0.  0.
         21    1    1    2  503  504  0.17524957161E+03  0.21787463633E+03 -0.56993539952E+03  0.63482921257E+03  0.00000000000E+00 0. -1.
         21    1    1    2  504  501  0.30525941592E+02  0.16428506251E+02 -0.60839414689E+02  0.70022591407E+02  0.00000000000E+00 0.  1.
<mgrwt>
<rscale>  4 0.33595613E+03</rscale>
<asrwt>0</asrwt>
<pdfrwt beam="1">  1       21 0.14353246E-01 0.33595613E+03</pdfrwt>
<pdfrwt beam="2">  1       21 0.17990377E+00 0.33595613E+03</pdfrwt>
<totfact> 0.70631314E+03</totfact>
</mgrwt>
</event>
<event>
 5    0  0.1856407E+000  0.2630625E+03  0.7546771E-02  0.1105317E+00
         21   -1    0    0  502  501  0.00000000000E+00  0.00000000000E+00  0.79345260392E+03  0.79345260392E+03  0.00000000000E+00 0. -1.
         21   -1    0    0  503  502 -0.00000000000E+00 -0.00000000000E+00 -0.63573201198E+03  0.63573201198E+03  0.00000000000E+00 0. -1.
         25    1    1    2    0    0  0.20522690628E+03 -0.11830518282E+03  0.73805571336E+03  0.78515312861E+03  0.12500000000E+03 0.  0.
         21    1    1    2  503  504 -0.49333714992E+02  0.10864163557E+03 -0.20021912226E+03  0.23307620499E+03  0.00000000000E+00 0. -1.
         21    1    1    2  504  501 -0.15589319129E+03  0.96635472428E+01 -0.38011599915E+03  0.41095528230E+03  0.00000000000E+00 0. -1.
<mgrwt>
<rscale>  4 0.26306255E+03</rscale>
<asrwt>0</asrwt>
<pdfrwt beam="1">  1       21 0.12206963E+00 0.26306255E+03</pdfrwt>
<pdfrwt beam="2">  1       21 0.97804925E-01 0.26306255E+03</pdfrwt>
<totfact> 0.40839864E+02</totfact>
</mgrwt>
</event>
<event>
 5    0  0.1856407E+000  0.3233614E+03  0.7546771E-02  0.1074113E+00
         21   -1    0    0  502  501  0.00000000000E+00  0.00000000000E+00  0.10391913282E+04  0.10391913282E+04  0.00000000000E+00 0. -1.
         21   -1    0    0  503  502 -0.00000000000E+00 -0.00000000000E+00 -0.73589696097E+03  0.73589696097E+03  0.00000000000E+00 0.  1.
         25    1    1    2    0    0 -0.26918844788E+03  0.13019294743E+03  0.97714584800E+03  0.10294909579E+04  0.12500000000E+03 0.  0.
         21    1    1    2  503  504  0.87982060424E+01 -0.30720102395E+02 -0.29299151452E+02  0.43354047061E+02  0.00000000000E+00 0. -1.
         21    1    1    2  504  501  0.26039024184E+03 -0.99472845032E+02 -0.64455232936E+03  0.70224328422E+03  0.00000000000E+00 0.  1.
<mgrwt>
<rscale>  4 0.32336137E+03</rscale>
<asrwt>0</asrwt>
<pdfrwt beam="1">  1       21 0.15987559E+00 0.32336137E+03</pdfrwt>
<pdfrwt beam="2">  1       21 0.11321492E+00 0.32336137E+03</pdfrwt>
<totfact> 0.13439395E+02</totfact>
</mgrwt>
</event>
<event>
 5    0  0.1856407E+000  0.2876246E+03  0.7546771E-02  0.1091596E+00
         21   -1    0    0  502  501  0.00000000000E+00  0.00000000000E+00  0.40084675457E+03  0.40084675457E+03  0.00000000000E+00 0. -1.
         21   -1    0    0  503  502 -0.00000000000E+00 -0.00000000000E+00 -0.38569275237E+03  0.38569275237E+03  0.00000000000E+00 0. -1.
         25    1    1    2    0    0  0.78368706685E+02 -0.24690338359E+03  0.28607329606E+03  0.40566718592E+03  0.12500000000E+03 0.  0.
         21    1    1    2  503  504 -0.49186994237E+02  0.18733510155E+03 -0.23790722637E+03  0.30677947949E+03  0.00000000000E+00 0. -1.
         21    1    1    2  504  501 -0.29181712448E+02  0.59568282037E+02 -0.33012067484E+02  0.74092841529E+02  0.00000000000E+00 0.  1.
<mgrwt>
<rscale>  4 0.28762464E+03</rscale>
<asrwt>0</asrwt>
<pdfrwt beam="1">  1       21 0.61668731E-01 0.28762464E+03</pdfrwt>
<pdfrwt beam="2">  1       21 0.59337347E-01 0.28762464E+03</pdfrwt>
<totfact> 0.61070064E+03</totfact>
</mgrwt>
</event>
<event>
 5    0  0.1856407E+000  0.3124684E+03  0.7546771E-02  0.1079169E+00
         21   -1    0    0  502  501  0.00000000000E+00  0.00000000000E+00  0.37528979114E+02  0.37528979114E+02  0.00000000000E+00 0.  1.
         21   -1    0    0  503  502 -0.00000000000E+00 -0.00000000000E+00 -0.24839371987E+04  0.24839371987E+04  0.00000000000E+00 0. -1.
         25    1    1    2    0    0 -0.25663830021E+03 -0.12707593792E+03 -0.10578475645E+04  0.11030312693E+04  0.12500000000E+03 0.  0.
         21    1    1    2  503  504  0.23836736435E+03  0.11578080886E+03 -0.13278915806E+04  0.13540754211E+04  0.00000000000E+00 0. -1.
         21    1    1    2  504  501  0.18270935857E+02  0.11295129062E+02 -0.60669074408E+02  0.64359487468E+02  0.00000000000E+00 0. -1.
<mgrwt>
<rscale>  4 0.31246842E+03</rscale>
<asrwt>0</asrwt>
<pdfrwt beam="1">  1       21 0.57736905E-02 0.31246842E+03</pdfrwt>
<pdfrwt beam="2">  1       21 0.38214409E+00 0.31246842E+03</pdfrwt>
<totfact> 0.20717740E+03</totfact>
</mgrwt>
</event>
<event>
 5    0  0.2097946E+000  0.2656295E+03  0.7546771E-02  0.1103807E+00
         21   -1    0    0  502  501  0.00000000000E+00  0.00000000000E+00  0.11316098465E+04  0.11316098465E+04  0.00000000000E+00 0.  1.
         21   -1    0    0  503  502 -0.00000000000E+00 -0.00000000000E+00 -0.12470512572E+03  0.12470512572E+03  0.00000000000E+00 0.  1.
         25    1    1    2    0    0 -0.24496601851E+03 -0.17756711332E+03  0.65742328431E+03  0.73441732326E+03  0.12500000000E+03 0.  0.
         21    1    1    2  503  504  0.15334118589E+03  0.57202659144E+01  0.44021038448E+02  0.15963737833E+03  0.00000000000E+00 0.  1.
         21    1    1    2  504  501  0.91624832615E+02  0.17184684741E+03  0.30546039803E+03  0.36226027063E+03  0.00000000000E+00 0.  1.
<mgrwt>
<rscale>  4 0.26562949E+03</rscale>
<asrwt>0</asrwt>
<pdfrwt beam="1">  1       21 0.17409382E+00 0.26562949E+03</pdfrwt>
<pdfrwt beam="2">  1       21 0.19185405E-01 0.26562949E+03</pdfrwt>
<totfact> 0.47118716E+03</totfact>
</mgrwt>
</event>
<event>
 5    0  0.1856407E+000  0.2843976E+03  0.7546771E-02  0.1093311E+00
         21   -1    0    0  502  501  0.00000000000E+00  0.00000000000E+00  0.73837012575E+02  0.73837012575E+02  0.00000000000E+00 0. -1.
         21   -1    0    0  503  502 -0.00000000000E+00 -0.00000000000E+00 -0.10281758331E+04  0.10281758331E+04  0.00000000000E+00 0.  1.
         25    1    1    2    0    0  0.11334509449E+03  0.22893200448E+03 -0.40804753699E+03  0.49737789010E+03  0.12500000000E+03 0.  0.
         21    1    1    2  503  504 -0.17142747324E+02 -0.49318722395E+02 -0.77152740501E+02  0.93159838618E+02  0.00000000000E+00 0. -1.
         21    1    1    2  504  501 -0.96202347169E+02 -0.17961328208E+03 -0.46913854300E+03  0.51147511692E+03  0.00000000000E+00 0.  1.
<mgrwt>
<rscale>  4 0.28439756E+03</rscale>
<asrwt>0</asrwt>
<pdfrwt beam="1">  1       21 0.11359540E-01 0.28439756E+03</pdfrwt>
<pdfrwt beam="2">  1       21 0.15818090E+00 0.28439756E+03</pdfrwt>
<totfact> 0.15896205E+04</totfact>
</mgrwt>
</event>
