<event>
 5    0  0.1856407E+000  0.2727432E+03  0.7546771E-02  0.1099720E+00
         21   -1    0    0  502  501  0.00000000000E+00  0.00000000000E+00  0.44086194354E+03  0.44086194354E+03  0.00000000000E+00 0.  1.
         21   -1    0    0  503  502 -0.00000000000E+00 -0.00000000000E+00 -0.16588358076E+03  0.16588358076E+03  0.00000000000E+00 0.  1.
         25    1    1    2    0    0  0.11432042449E+03  0.21376313987E+03  0.12581178782E+03  0.30036219033E+03  0.12500000000E+03 0.  0.
         21    1    1    2  503  504 -0.70939199389E+02 -0.27191199248E+02  0.38638827338E+02  0.85233152614E+02  0.00000000000E+00 0.  1.
         21    1    1    2  504  501 -0.43381225103E+02 -0.18657194063E+03  0.11052774761E+03  0.22115018135E+03  0.00000000000E+00 0.  1.
<mgrwt>
<rscale>  4 0.27274317E+03</rscale>
<asrwt>0</asrwt>
<pdfrwt beam="1">  1       21 0.67824914E-01 0.27274317E+03</pdfrwt>
<pdfrwt beam="2">  1       21 0.25520551E-01 0.27274317E+03</pdfrwt>
<totfact> 0.27809440E+04</totfact>
</mgrwt>
</event>
<event>
 5    0  0.1856407E+000  0.2522887E+03  0.7546771E-02  0.1111867E+00
         21   -1    0    0  502  501  0.00000000000E+00  0.00000000000E+00  0.43183461235E+03  0.43183461235E+03  0.00000000000E+00 0.  1.
         21   -1    0    0  503  502 -0.00000000000E+00 -0.00000000000E+00 -0.20016860559E+03  0.20016860559E+03  0.00000000000E+00 0.  1.
         25    1    1    2    0    0  0.16453675793E+03 -0.15666317401E+03  0.19696554941E+03  0.32563188182E+03  0.12500000000E+03 0.  0.
         21    1    1    2  503  504  0.36384086715E+02  0.77263290624E+02  0.29217582023E+02  0.90261203977E+02  0.00000000000E+00 0. -1.
         21    1    1    2  504  501 -0.20092084465E+03  0.79399883385E+02  0.54828753259E+01  0.21611013215E+03  0.00000000000E+00 0.  1.
<mgrwt>
<rscale>  4 0.25228868E+03</rscale>
<asrwt>0</asrwt>
<pdfrwt beam="1">  1       21 0.66436094E-01 0.25228868E+03</pdfrwt>
<pdfrwt beam="2">  1       21 0.30795170E-01 0.25228868E+03</pdfrwt>
<totfact> 0.20371352E+04</totfact>
</mgrwt>
</event>
<event>
 5    0  0.1856407E+000  0.4784658E+03  0.7546771E-02  0.1019558E+00
         21   -1    0    0  502  501  0.00000000000E+00  0.00000000000E+00  0.31987858119E+03  0.31987858119E+03  0.00000000000E+00 0. -1.
         21   -1    0    0  503  502 -0.00000000000E+00 -0.00000000000E+00 -0.79538927913E+03  0.79538927913E+03  0.00000000000E+00 0.  1.
         25    1    1    2    0    0 -0.59787345705E+02  0.45796286141E+03 -0.47816858105E+02  0.48084920823E+03  0.12500000000E+03 0.  0.
         21    1    1    2  503  504  0.20625854981E+01 -0.77307143129E+02 -0.36400961177E+02  0.85473262558E+02  0.00000000000E+00 0.  1.
         21    1    1    2  504  501  0.57724760207E+02 -0.38065571828E+03 -0.39129287865E+03  0.54894538953E+03  0.00000000000E+00 0.  1.
<mgrwt>
<rscale>  4 0.47846579E+03</rscale>
<asrwt>0</asrwt>
<pdfrwt beam="1">  1       21 0.49212090E-01 0.47846579E+03</pdfrwt>
<pdfrwt beam="2">  1       21 0.12236758E+00 0.47846579E+03</pdfrwt>
<totfact> 0.16807154E+03</totfact>
</mgrwt>
</event>
<event>
 5    0  0.1856407E+000  0.2512213E+03  0.7546771E-02  0.1112535E+00
         21   -1    0    0  502  501  0.00000000000E+00  0.00000000000E+00  0.39636703065E+03  0.39636703065E+03  0.00000000000E+00 0.  1.
         21   -1    0    0  503  502 -0.00000000000E+00 -0.00000000000E+00 -0.26395659689E+03  0.26395659689E+03  0.00000000000E+00 0.  1.
         25    1    1    2    0    0  0.21612433164E+03 -0.27882050914E+02  0.29074180297E+03  0.38424332327E+03  0.12500000000E+03 0.  0.
         21    1    1    2  503  504 -0.13096137995E+03 -0.65592936527E+01 -0.11542421799E+03  0.17469017565E+03  0.00000000000E+00 0.  1.
         21    1    1    2  504  501 -0.85162951689E+02  0.34441344567E+02 -0.42907151214E+02  0.10139012862E+03  0.00000000000E+00 0.  1.
<mgrwt>
<rscale>  4 0.25122129E+03</rscale>
<asrwt>0</asrwt>
<pdfrwt beam="1">  1       21 0.60979543E-01 0.25122129E+03</pdfrwt>
<pdfrwt beam="2">  1       21 0.40608708E-01 0.25122129E+03</pdfrwt>
<totfact> 0.14129801E+04</totfact>
</mgrwt>
</event>
<event>
 5    0  0.1856407E+000  0.2429247E+03  0.7546771E-02  0.1117860E+00
         21   -1    0    0  502  501  0.00000000000E+00  0.00000000000E+00  0.59573268366E+02  0.59573268366E+02  0.00000000000E+00 0.  1.
         21   -1    0    0  503  502 -0.00000000000E+00 -0.00000000000E+00 -0.16647709467E+04  0.16647709467E+04  0.00000000000E+00 0.  1.
         25    1    1    2    0    0 -0.20802804414E+03  0.66662447255E+02 -0.13439613800E+04  0.13673246651E+04  0.12500000000E+03 0.  0.
         21    1    1    2  503  504  0.32917230805E+02 -0.12233261222E+02  0.31570158193E+01  0.35258523974E+02  0.00000000000E+00 0.  1.
         21    1    1    2  504  501  0.17511081333E+03 -0.54429186033E+02 -0.26439331414E+03  0.32176102592E+03  0.00000000000E+00 0.  1.
<mgrwt>
<rscale>  4 0.24292471E+03</rscale>
<asrwt>0</asrwt>
<pdfrwt beam="1">  1       21 0.91651181E-02 0.24292471E+03</pdfrwt>
<pdfrwt beam="2">  1       21 0.25611861E+00 0.24292471E+03</pdfrwt>
<totfact> 0.55251002E+03</totfact>
</mgrwt>
</event>
<event>
 5    0  0.4938493E+000  0.2524978E+03  0.7546771E-02  0.1111736E+00
         21   -1    0    0  502  501  0.00000000000E+00  0.00000000000E+00  0.25944486876E+03  0.25944486876E+03  0.00000000000E+00 0.  1.
         21   -1    0    0  503  502 -0.00000000000E+00 -0.00000000000E+00 -0.43503374036E+03  0.43503374036E+03  0.00000000000E+00 0.  1.
         25    1    1    2    0    0 -0.99366663151E+02  0.20110341923E+03  0.14508637258E+03  0.29494300209E+03  0.12500000000E+03 0.  0.
         21    1    1    2  503  504  0.34789772325E+01 -0.23521466348E+02 -0.89766007699E+02  0.92861718700E+02  0.00000000000E+00 0. -1.
         21    1    1    2  504  501  0.95887685918E+02 -0.17758195288E+03 -0.23090923648E+03  0.30667388834E+03  0.00000000000E+00 0.  1.
<mgrwt>
<rscale>  4 0.25249783E+03</rscale>
<asrwt>0</asrwt>
<pdfrwt beam="1">  1       21 0.39914595E-01 0.25249783E+03</pdfrwt>
<pdfrwt beam="2">  1       21 0.66928268E-01 0.25249783E+03</pdfrwt>
<totfact> 0.11933271E+04</totfact>
</mgrwt>
</event>
<event>
 5    0  0.2787723E+000  0.2644431E+03  0.7546771E-02  0.1104503E+00
         21   -1    0    0  502  501  0.00000000000E+00  0.00000000000E+00  0.16221744870E+03  0.16221744870E+03  0.00000000000E+00 0.  1.
         21   -1    0    0  503  502 -0.00000000000E+00 -0.00000000000E+00 -0.82906333251E+03  0.82906333251E+03  0.00000000000E+00 0. -1.
         25    1    1    2    0    0  0.20764706022E+03 -0.10577260329E+03  0.18452789027E+02  0.26508611930E+03  0.12500000000E+03 0.  0.
         21    1    1    2  503  504 -0.36779428794E+02  0.35858912742E+00 -0.15115696565E+03  0.15556761627E+03  0.00000000000E+00 0. -1.
         21    1    1    2  504  501 -0.17086763143E+03  0.10541401416E+03 -0.53414170719E+03  0.57062704563E+03  0.00000000000E+00 0. -1.
<mgrwt>
<rscale>  4 0.26444309E+03</rscale>
<asrwt>0</asrwt>
<pdfrwt beam="1">  1       21 0.24956531E-01 0.26444309E+03</pdfrwt>
<pdfrwt beam="2">  1       21 0.12754820E+00 0.26444309E+03</pdfrwt>
<totfact> 0.65620111E+03</totfact>
</mgrwt>
</event>
<event>
 5    0  0.1915999E+000  0.3140161E+03  0.7546771E-02  0.1078437E+00
         21   -1    0    0  502  501  0.00000000000E+00  0.00000000000E+00  0.15357764301E+03  0.15357764301E+03  0.00000000000E+00 0.  1.
         21   -1    0    0  503  502 -0.00000000000E+00 -0.00000000000E+00 -0.64117129655E+03  0.64117129655E+03  0.00000000000E+00 0.  1.
         25    1    1    2    0    0  0.11494634271E+03 -0.26413718360E+03 -0.21201030069E+03  0.37888584173E+03  0.12500000000E+03 0.  0.
         21    1    1    2  503  504 -0.24451903812E+02  0.19546979833E+03 -0.18938486619E+03  0.27326354532E+03  0.00000000000E+00 0.  1.
         21    1    1    2  504  501 -0.90494438902E+02  0.68667385263E+02 -0.86198486660E+02  0.14259955250E+03  0.00000000000E+00 0.  1.
<mgrwt>
<rscale>  4 0.31401610E+03</rscale>
<asrwt>0</asrwt>
<pdfrwt beam="1">  1       21 0.23627330E-01 0.31401610E+03</pdfrwt>
<pdfrwt beam="2">  1       21 0.98641737E-01 0.31401610E+03</pdfrwt>
<totfact> 0.13405406E+04</totfact>
</mgrwt>
</event>
<event>
 5    0  0.1856407E+000  0.3380586E+03  0.7546771E-02  0.1067626E+00
         21   -1    0    0  502  501  0.00000000000E+00  0.00000000000E+00  0.20479749938E+03  0.20479749938E+03  0.00000000000E+00 0. -1.
         21   -1    0    0  503  502 -0.00000000000E+00 -0.00000000000E+00 -0.12479254987E+04  0.12479254987E+04  0.00000000000E+00 0. -1.
         25    1    1    2    0    0 -0.70811135063E+02  0.25901828482E+03 -0.97309378578E+02  0.31176722708E+03  0.12500000000E+03 0.  0.
         21    1    1    2  503  504 -0.65878908958E+02 -0.32616861016E+03 -0.93012525637E+03  0.98785575133E+03  0.00000000000E+00 0. -1.
         21    1    1    2  504  501  0.13669004402E+03  0.67150325336E+02 -0.15693364328E+02  0.15310001963E+03  0.00000000000E+00 0. -1.
<mgrwt>
<rscale>  4 0.33805860E+03</rscale>
<asrwt>0</asrwt>
<pdfrwt beam="1">  1       21 0.31507307E-01 0.33805860E+03</pdfrwt>
<pdfrwt beam="2">  1       21 0.19198854E+00 0.33805860E+03</pdfrwt>
<totfact> 0.13035436E+03</totfact>
</mgrwt>
</event>
<event>
 5    0  0.1856407E+000  0.2617941E+03  0.7546771E-02  0.1106070E+00
         21   -1    0    0  502  501  0.00000000000E+00  0.00000000000E+00  0.92424291684E+03  0.92424291684E+03  0.00000000000E+00 0. -1.
         21   -1    0    0  503  502 -0.00000000000E+00 -0.00000000000E+00 -0.10054528323E+03  0.10054528323E+03  0.00000000000E+00 0. -1.
         25    1    1    2    0    0  0.73932344023E+02  0.21781903801E+03  0.69492267944E+03  0.74259925613E+03  0.12500000000E+03 0.  0.
         21    1    1    2  503  504 -0.63204470001E+02 -0.49503673660E+02  0.24664325172E+02  0.83986592204E+02  0.00000000000E+00 0. -1.
         21    1    1    2  504  501 -0.10727874022E+02 -0.16831536435E+03  0.10411062900E+03  0.19820235173E+03  0.00000000000E+00 0. -1.
<mgrwt>
<rscale>  4 0.26179405E+03</rscale>
<asrwt>0</asrwt>
<pdfrwt beam="1">  1       21 0.14219121E+00 0.26179405E+03</pdfrwt>
<pdfrwt beam="2">  1       21 0.15468506E-01 0.26179405E+03</pdfrwt>
<totfact> 0.12199043E+04</totfact>
</mgrwt>
</event>
<event>
 5    0  0.1856407E+000  0.6722169E+03  0.7546771E-02  0.9765961E-01
         21   -1    0    0  502  501  0.00000000000E+00  0.00000000000E+00  0.63601796983E+03  0.63601796983E+03  0.00000000000E+00 0.  1.
         21   -1    0    0  503  502 -0.00000000000E+00 -0.00000000000E+00 -0.19708473893E+04  0.19708473893E+04  0.00000000000E+00 0.  1.
         25    1    1    2    0    0  0.11175591391E+03 -0.65096936115E+03  0.37659992041E+03  0.77052124792E+03  0.12500000000E+03 0.  0.
         21    1    1    2  503  504 -0.94963289133E+02  0.61387376683E+03 -0.16456247826E+04  0.17589599066E+04  0.00000000000E+00 0.  1.
         21    1    1    2  504  501 -0.16792624774E+02  0.37095594320E+02 -0.65804557256E+02  0.77384204593E+02  0.00000000000E+00 0.  1.
<mgrwt>
<rscale>  4 0.67221685E+03</rscale>
<asrwt>0</asrwt>
<pdfrwt beam="1">  1       21 0.97848920E-01 0.67221685E+03</pdfrwt>
<pdfrwt beam="2">  1       21 0.30320729E+00 0.67221685E+03</pdfrwt>
<totfact> 0.18566207E+01</totfact>
</mgrwt>
</event>
<event>
 5    0  0.1856407E+000  0.2917873E+03  0.7546771E-02  0.1089420E+00
         21   -1    0    0  502  501  0.00000000000E+00  0.00000000000E+00  0.19635617234E+04  0.19635617234E+04  0.00000000000E+00 0. -1.
         21   -1    0    0  503  502 -0.00000000000E+00 -0.00000000000E+00 -0.41243491644E+02  0.41243491644E+02  0.00000000000E+00 0. -1.
         25    1    1    2    0    0  0.26319087884E+03  0.15664097291E+02  0.92488160462E+03  0.96981739787E+03  0.12500000000E+03 0.  0.
         21    1    1    2  503  504 -0.99313017247E+02 -0.15690152015E+02  0.53515839664E+03  0.54452159347E+03  0.00000000000E+00 0.  1.
         21    1    1    2  504  501 -0.16387786159E+03  0.26054724072E-01  0.46227823049E+03  0.49046622369E+03  0.00000000000E+00 0. -1.
<mgrwt>
<rscale>  4 0.29178726E+03</rscale>
<asrwt>0</asrwt>
<pdfrwt beam="1">  1       21 0.30208635E+00 0.29178726E+03</pdfrwt>
<pdfrwt beam="2">  1       21 0.63451541E-02 0.29178726E+03</pdfrwt>
<totfact> 0.54235031E+03</totfact>
</mgrwt>
</event>
