<event>
 5    0  0.2213064E+000  0.2882815E+03  0.7546771E-02  0.1091250E+00
         21   -1    0    0  502  501  0.00000000000E+00  0.00000000000E+00  0.31562796956E+03  0.31562796956E+03  0.00000000000E+00 0. -1.
         21   -1    0    0  503  502 -0.00000000000E+00 -0.00000000000E+00 -0.59954982763E+03  0.59954982763E+03  0.00000000000E+00 0. -1.
         25    1    1    2    0    0 -0.25201861513E+03 -0.62990971271E+02  0.20278188888E+03  0.35245813835E+03  0.12500000000E+03 0.  0.
         21    1    1    2  503  504  0.17714573697E+03  0.15492692914E+02 -0.22737958551E+03  0.28865569727E+03  0.00000000000E+00 0. -1.
         21    1    1    2  504  501  0.74872878162E+02  0.47498278357E+02 -0.25932416143E+03  0.27406396158E+03  0.00000000000E+00 0. -1.
<mgrwt>
<rscale>  4 0.28828154E+03</rscale>
<asrwt>0</asrwt>
<pdfrwt beam="1">  1       21 0.48558149E-01 0.28828154E+03</pdfrwt>
<pdfrwt beam="2">  1       21 0.92238434E-01 0.28828154E+03</pdfrwt>
<totfact> 0.37643407E+03</totfact>
</mgrwt>
</event>
<event>
 5    0  0.2213064E+000  0.3260983E+03  0.7546771E-02  0.1072876E+00
         21   -1    0    0  502  501  0.00000000000E+00  0.00000000000E+00  0.13560923250E+04  0.13560923250E+04  0.00000000000E+00 0.  1.
         21   -1    0    0  503  502 -0.00000000000E+00 -0.00000000000E+00 -0.76883211394E+02  0.76883211394E+02  0.00000000000E+00 0.  1.
         25    1    1    2    0    0 -0.25816647382E+03 -0.15512958468E+03  0.67370069845E+03  0.74847361165E+03  0.12500000000E+03 0.  0.
         21    1    1    2  503  504  0.22150645152E+03  0.10401229899E+03  0.39374662467E+03  0.46359472694E+03  0.00000000000E+00 0.  1.
         21    1    1    2  504  501  0.36660022300E+02  0.51117285695E+02  0.21176179051E+03  0.22090719783E+03  0.00000000000E+00 0.  1.
<mgrwt>
<rscale>  4 0.32609832E+03</rscale>
<asrwt>0</asrwt>
<pdfrwt beam="1">  1       21 0.20862957E+00 0.32609832E+03</pdfrwt>
<pdfrwt beam="2">  1       21 0.11828187E-01 0.32609832E+03</pdfrwt>
<totfact> 0.64902912E+03</totfact>
</mgrwt>
</event>
<event>
 5    0  0.2213064E+000  0.2871041E+03  0.7546771E-02  0.1091871E+00
         21   -1    0    0  502  501  0.00000000000E+00  0.00000000000E+00  0.31326293569E+03  0.31326293569E+03  0.00000000000E+00 0.  1.
         21   -1    0    0  503  502 -0.00000000000E+00 -0.00000000000E+00 -0.31156987091E+03  0.31156987091E+03  0.00000000000E+00 0.  1.
         25    1    1    2    0    0  0.12969178322E+03  0.22357054952E+03 -0.13982779245E+03  0.31934395374E+03  0.12500000000E+03 0.  0.
         21    1    1    2  503  504 -0.99365741905E+02 -0.21805421112E+03  0.12085653778E+03  0.26837938143E+03  0.00000000000E+00 0.  1.
         21    1    1    2  504  501 -0.30326041312E+02 -0.55163383968E+01  0.20664319459E+02  0.37109471428E+02  0.00000000000E+00 0. -1.
<mgrwt>
<rscale>  4 0.28710407E+03</rscale>
<asrwt>0</asrwt>
<pdfrwt beam="1">  1       21 0.48194298E-01 0.28710407E+03</pdfrwt>
<pdfrwt beam="2">  1       21 0.47933826E-01 0.28710407E+03</pdfrwt>
<totfact> 0.16280963E+04</totfact>
</mgrwt>
</event>
<event>
 5    0  0.2213064E+000  0.3633458E+03  0.7546771E-02  0.1057267E+00
         21   -1    0    0  502  501  0.00000000000E+00  0.00000000000E+00  0.58160367534E+03  0.58160367534E+03  0.00000000000E+00 0. -1.
         21   -1    0    0  503  502 -0.00000000000E+00 -0.00000000000E+00 -0.45447544666E+03  0.45447544666E+03  0.00000000000E+00 0. -1.
         25    1    1    2    0    0  0.18848556072E+03  0.28437361421E+03  0.43784958538E+03  0.56897488387E+03  0.12500000000E+03 0.  0.
         21    1    1    2  503  504 -0.19140295671E+03 -0.26103046564E+03 -0.27724477079E+03  0.42618852490E+03  0.00000000000E+00 0. -1.
         21    1    1    2  504  501  0.29173959831E+01 -0.23343148566E+02 -0.33476585909E+02  0.40915713222E+02  0.00000000000E+00 0. -1.
<mgrwt>
<rscale>  4 0.36334578E+03</rscale>
<asrwt>0</asrwt>
<pdfrwt beam="1">  1       21 0.89477489E-01 0.36334578E+03</pdfrwt>
<pdfrwt beam="2">  1       21 0.69919299E-01 0.36334578E+03</pdfrwt>
<totfact> 0.17661660E+03</totfact>
</mgrwt>
</event>
<event>
 5    0  0.2213064E+000  0.2125068E+03  0.7546771E-02  0.1139596E+00
         21   -1    0    0  502  501  0.00000000000E+00  0.00000000000E+00  0.98757511741E+02  0.98757511741E+02  0.00000000000E+00 0. -1.
         21   -1    0    0  503  502 -0.00000000000E+00 -0.00000000000E+00 -0.74904302924E+03  0.74904302924E+03  0.00000000000E+00 0. -1.
         25    1    1    2    0    0  0.12598913046E+03  0.15803109510E+03 -0.26497545003E+03  0.35592706715E+03  0.12500000000E+03 0.  0.
         21    1    1    2  503  504  0.41210534956E+02 -0.12698622006E+03 -0.19885776630E+03  0.23951663720E+03  0.00000000000E+00 0. -1.
         21    1    1    2  504  501 -0.16719966542E+03 -0.31044875032E+02 -0.18645230117E+03  0.25235683663E+03  0.00000000000E+00 0. -1.
<mgrwt>
<rscale>  4 0.21250680E+03</rscale>
<asrwt>0</asrwt>
<pdfrwt beam="1">  1       21 0.15193464E-01 0.21250680E+03</pdfrwt>
<pdfrwt beam="2">  1       21 0.11523739E+00 0.21250680E+03</pdfrwt>
<totfact> 0.22084491E+04</totfact>
</mgrwt>
</event>
<event>
 5    0  0.2213064E+000  0.2458665E+03  0.7546771E-02  0.1115945E+00
         21   -1    0    0  502  501  0.00000000000E+00  0.00000000000E+00  0.63887627995E+03  0.63887627995E+03  0.00000000000E+00 0. -1.
         21   -1    0    0  503  502 -0.00000000000E+00 -0.00000000000E+00 -0.90952734750E+02  0.90952734750E+02  0.00000000000E+00 0. -1.
         25    1    1    2    0    0 -0.10971750674E+03 -0.18107295877E+03  0.34986260058E+03  0.42761453081E+03  0.12500000000E+03 0.  0.
         21    1    1    2  503  504  0.11178051886E+03  0.13122448578E+03  0.17980672846E+03  0.24908875861E+03  0.00000000000E+00 0. -1.
         21    1    1    2  504  501 -0.20630121228E+01  0.49848472989E+02  0.18254216160E+02  0.53125725274E+02  0.00000000000E+00 0.  1.
<mgrwt>
<rscale>  4 0.24586652E+03</rscale>
<asrwt>0</asrwt>
<pdfrwt beam="1">  1       21 0.98288656E-01 0.24586652E+03</pdfrwt>
<pdfrwt beam="2">  1       21 0.13992729E-01 0.24586652E+03</pdfrwt>
<totfact> 0.37055880E+04</totfact>
</mgrwt>
</event>
<event>
 5    0  0.2213064E+000  0.3188856E+03  0.7546771E-02  0.1076163E+00
         21   -1    0    0  502  501  0.00000000000E+00  0.00000000000E+00  0.53528595956E+03  0.53528595956E+03  0.00000000000E+00 0. -1.
         21   -1    0    0  503  502 -0.00000000000E+00 -0.00000000000E+00 -0.32142097552E+03  0.32142097552E+03  0.00000000000E+00 0. -1.
         25    1    1    2    0    0  0.27760854140E+03  0.12555522159E+03  0.36649252566E+03  0.49271937986E+03  0.12500000000E+03 0.  0.
         21    1    1    2  503  504 -0.30698496891E+02 -0.35804180289E+02 -0.77530879613E+02  0.90748963251E+02  0.00000000000E+00 0. -1.
         21    1    1    2  504  501 -0.24691004451E+03 -0.89751041306E+02 -0.75096661999E+02  0.27323859197E+03  0.00000000000E+00 0. -1.
<mgrwt>
<rscale>  4 0.31888557E+03</rscale>
<asrwt>0</asrwt>
<pdfrwt beam="1">  1       21 0.82351686E-01 0.31888557E+03</pdfrwt>
<pdfrwt beam="2">  1       21 0.49449381E-01 0.31888557E+03</pdfrwt>
<totfact> 0.46437122E+03</totfact>
</mgrwt>
</event>
<event>
 5    0  0.2213064E+000  0.2924795E+03  0.7546771E-02  0.1089062E+00
         21   -1    0    0  502  501  0.00000000000E+00  0.00000000000E+00  0.29383320909E+03  0.29383320909E+03  0.00000000000E+00 0.  1.
         21   -1    0    0  503  502 -0.00000000000E+00 -0.00000000000E+00 -0.62786871355E+03  0.62786871355E+03  0.00000000000E+00 0.  1.
         25    1    1    2    0    0 -0.15945151407E+03 -0.21093717954E+03  0.17961720334E+03  0.34322968809E+03  0.12500000000E+03 0.  0.
         21    1    1    2  503  504  0.15337606129E+03  0.18954148157E+03 -0.47089324356E+03  0.53027411425E+03  0.00000000000E+00 0.  1.
         21    1    1    2  504  501  0.60754527758E+01  0.21395697970E+02 -0.42759464244E+02  0.48198120300E+02  0.00000000000E+00 0.  1.
<mgrwt>
<rscale>  4 0.29247954E+03</rscale>
<asrwt>0</asrwt>
<pdfrwt beam="1">  1       21 0.45205110E-01 0.29247954E+03</pdfrwt>
<pdfrwt beam="2">  1       21 0.96595185E-01 0.29247954E+03</pdfrwt>
<totfact> 0.39093472E+03</totfact>
</mgrwt>
</event>
<event>
 5    0  0.2213064E+000  0.3382587E+03  0.7546771E-02  0.1067540E+00
         21   -1    0    0  502  501  0.00000000000E+00  0.00000000000E+00  0.11770039549E+03  0.11770039549E+03  0.00000000000E+00 0.  1.
         21   -1    0    0  503  502 -0.00000000000E+00 -0.00000000000E+00 -0.12578455994E+04  0.12578455994E+04  0.00000000000E+00 0.  1.
         25    1    1    2    0    0 -0.29974903753E+03  0.94575147452E+02 -0.22579864221E+03  0.40669886997E+03  0.12500000000E+03 0.  0.
         21    1    1    2  503  504  0.28705540659E+03 -0.74684766988E+02 -0.85458055889E+03  0.90459192595E+03  0.00000000000E+00 0.  1.
         21    1    1    2  504  501  0.12693630939E+02 -0.19890380464E+02 -0.59766002827E+02  0.64255198975E+02  0.00000000000E+00 0.  1.
<mgrwt>
<rscale>  4 0.33825869E+03</rscale>
<asrwt>0</asrwt>
<pdfrwt beam="1">  1       21 0.18107754E-01 0.33825869E+03</pdfrwt>
<pdfrwt beam="2">  1       21 0.19351470E+00 0.33825869E+03</pdfrwt>
<totfact> 0.37012008E+03</totfact>
</mgrwt>
</event>
<event>
 5    0  0.2213064E+000  0.4534724E+03  0.7546771E-02  0.1026692E+00
         21   -1    0    0  502  501  0.00000000000E+00  0.00000000000E+00  0.68001296155E+03  0.68001296155E+03  0.00000000000E+00 0.  1.
         21   -1    0    0  503  502 -0.00000000000E+00 -0.00000000000E+00 -0.38242998397E+03  0.38242998397E+03  0.00000000000E+00 0.  1.
         25    1    1    2    0    0 -0.38434877571E+03 -0.20564105296E+03  0.40919279835E+03  0.61079945176E+03  0.12500000000E+03 0.  0.
         21    1    1    2  503  504  0.36562546473E+03  0.19565398406E+03 -0.11456564149E+03  0.43021825641E+03  0.00000000000E+00 0.  1.
         21    1    1    2  504  501  0.18723310974E+02  0.99870689017E+01  0.29558207309E+01  0.21425237345E+02  0.00000000000E+00 0. -1.
<mgrwt>
<rscale>  4 0.45347241E+03</rscale>
<asrwt>0</asrwt>
<pdfrwt beam="1">  1       21 0.10461738E+00 0.45347241E+03</pdfrwt>
<pdfrwt beam="2">  1       21 0.58835382E-01 0.45347241E+03</pdfrwt>
<totfact> 0.17094680E+03</totfact>
</mgrwt>
</event>
<event>
 5    0  0.2213064E+000  0.3606521E+03  0.7546771E-02  0.1058326E+00
         21   -1    0    0  502  501  0.00000000000E+00  0.00000000000E+00  0.10387839364E+03  0.10387839364E+03  0.00000000000E+00 0.  1.
         21   -1    0    0  503  502 -0.00000000000E+00 -0.00000000000E+00 -0.12693744232E+04  0.12693744232E+04  0.00000000000E+00 0.  1.
         25    1    1    2    0    0  0.31762360723E+03  0.11644831926E+03 -0.42920412324E+03  0.56061229592E+03  0.12500000000E+03 0.  0.
         21    1    1    2  503  504 -0.28621973269E+03 -0.90212848230E+02 -0.67770702533E+03  0.74117940173E+03  0.00000000000E+00 0.  1.
         21    1    1    2  504  501 -0.31403874537E+02 -0.26235471032E+02 -0.58584881029E+02  0.71461119228E+02  0.00000000000E+00 0. -1.
<mgrwt>
<rscale>  4 0.36065214E+03</rscale>
<asrwt>0</asrwt>
<pdfrwt beam="1">  1       21 0.15981292E-01 0.36065214E+03</pdfrwt>
<pdfrwt beam="2">  1       21 0.19528837E+00 0.36065214E+03</pdfrwt>
<totfact> 0.44945720E+03</totfact>
</mgrwt>
</event>
<event>
 5    0  0.2213064E+000  0.2492245E+03  0.7546771E-02  0.1113796E+00
         21   -1    0    0  502  501  0.00000000000E+00  0.00000000000E+00  0.55767480935E+03  0.55767480935E+03  0.00000000000E+00 0. -1.
         21   -1    0    0  503  502 -0.00000000000E+00 -0.00000000000E+00 -0.17209884101E+03  0.17209884101E+03  0.00000000000E+00 0.  1.
         25    1    1    2    0    0  0.20527050703E+03  0.65968562672E+02  0.42981763454E+03  0.49684608409E+03  0.12500000000E+03 0.  0.
         21    1    1    2  503  504 -0.38494062155E+02 -0.30750026035E+02 -0.38240641733E+02  0.62367488346E+02  0.00000000000E+00 0.  1.
         21    1    1    2  504  501 -0.16677644487E+03 -0.35218536637E+02 -0.60010244591E+01  0.17056007793E+03  0.00000000000E+00 0.  1.
<mgrwt>
<rscale>  4 0.24922446E+03</rscale>
<asrwt>0</asrwt>
<pdfrwt beam="1">  1       21 0.85796124E-01 0.24922446E+03</pdfrwt>
<pdfrwt beam="2">  1       21 0.26476745E-01 0.24922446E+03</pdfrwt>
<totfact> 0.15399784E+04</totfact>
</mgrwt>
</event>
<event>
 5    0  0.2213064E+000  0.2746549E+03  0.7546771E-02  0.1098645E+00
         21   -1    0    0  502  501  0.00000000000E+00  0.00000000000E+00  0.14681859395E+03  0.14681859395E+03  0.00000000000E+00 0.  1.
         21   -1    0    0  503  502 -0.00000000000E+00 -0.00000000000E+00 -0.47459039450E+03  0.47459039450E+03  0.00000000000E+00 0.  1.
         25    1    1    2    0    0 -0.96907547485E+02  0.22454228108E+03 -0.18325156984E+03  0.33017638710E+03  0.12500000000E+03 0.  0.
         21    1    1    2  503  504 -0.77817410462E+01 -0.37579917464E+02 -0.26082036241E+02  0.46401274818E+02  0.00000000000E+00 0.  1.
         21    1    1    2  504  501  0.10468928853E+03 -0.18696236361E+03 -0.11843819446E+03  0.24483132653E+03  0.00000000000E+00 0.  1.
<mgrwt>
<rscale>  4 0.27465489E+03</rscale>
<asrwt>0</asrwt>
<pdfrwt beam="1">  1       21 0.22587476E-01 0.27465489E+03</pdfrwt>
<pdfrwt beam="2">  1       21 0.73013906E-01 0.27465489E+03</pdfrwt>
<totfact> 0.29798116E+04</totfact>
</mgrwt>
</event>
<event>
 5    0  0.2213064E+000  0.2497807E+03  0.7546771E-02  0.1113443E+00
         21   -1    0    0  502  501  0.00000000000E+00  0.00000000000E+00  0.51619763538E+02  0.51619763538E+02  0.00000000000E+00 0.  1.
         21   -1    0    0  503  502 -0.00000000000E+00 -0.00000000000E+00 -0.17802213166E+04  0.17802213166E+04  0.00000000000E+00 0.  1.
         25    1    1    2    0    0 -0.13151604460E+03 -0.17166518373E+03 -0.31859120963E+03  0.40483424280E+03  0.12500000000E+03 0.  0.
         21    1    1    2  503  504  0.34049680578E+02  0.20641597054E+02 -0.26452186866E+03  0.26750191640E+03  0.00000000000E+00 0. -1.
         21    1    1    2  504  501  0.97466364022E+02  0.15102358667E+03 -0.11454884748E+04  0.11595049209E+04  0.00000000000E+00 0.  1.
<mgrwt>
<rscale>  4 0.24978071E+03</rscale>
<asrwt>0</asrwt>
<pdfrwt beam="1">  1       21 0.79415034E-02 0.24978071E+03</pdfrwt>
<pdfrwt beam="2">  1       21 0.27388016E+00 0.24978071E+03</pdfrwt>
<totfact> 0.55544104E+03</totfact>
</mgrwt>
</event>
<event>
 5    0  0.2213064E+000  0.3285223E+03  0.7546771E-02  0.1071793E+00
         21   -1    0    0  502  501  0.00000000000E+00  0.00000000000E+00  0.98009660935E+02  0.98009660935E+02  0.00000000000E+00 0.  1.
         21   -1    0    0  503  502 -0.00000000000E+00 -0.00000000000E+00 -0.10983414894E+04  0.10983414894E+04  0.00000000000E+00 0.  1.
         25    1    1    2    0    0  0.22573147410E+03 -0.20334012213E+03 -0.52073224549E+03  0.61570201815E+03  0.12500000000E+03 0.  0.
         21    1    1    2  503  504 -0.16999684044E+03  0.20659471118E+03 -0.42730704698E+03  0.50415435418E+03  0.00000000000E+00 0.  1.
         21    1    1    2  504  501 -0.55734633655E+02 -0.32545890492E+01 -0.52292535981E+02  0.76494777977E+02  0.00000000000E+00 0.  1.
<mgrwt>
<rscale>  4 0.32852230E+03</rscale>
<asrwt>0</asrwt>
<pdfrwt beam="1">  1       21 0.15078409E-01 0.32852230E+03</pdfrwt>
<pdfrwt beam="2">  1       21 0.16897561E+00 0.32852230E+03</pdfrwt>
<totfact> 0.77389633E+03</totfact>
</mgrwt>
</event>
<event>
 5    0  0.2213064E+000  0.3441278E+03  0.7546771E-02  0.1065051E+00
         21   -1    0    0  502  501  0.00000000000E+00  0.00000000000E+00  0.24360128414E+03  0.24360128414E+03  0.00000000000E+00 0. -1.
         21   -1    0    0  503  502 -0.00000000000E+00 -0.00000000000E+00 -0.56617895879E+03  0.56617895879E+03  0.00000000000E+00 0. -1.
         25    1    1    2    0    0  0.31982618114E+03 -0.22586284518E+02  0.48920255910E+00  0.34412812398E+03  0.12500000000E+03 0.  0.
         21    1    1    2  503  504 -0.21106748018E+02 -0.25035839986E+02 -0.28058544413E+02  0.43122731944E+02  0.00000000000E+00 0. -1.
         21    1    1    2  504  501 -0.29871943312E+03  0.47622124504E+02 -0.29500833280E+03  0.42252938701E+03  0.00000000000E+00 0. -1.
<mgrwt>
<rscale>  4 0.34412778E+03</rscale>
<asrwt>0</asrwt>
<pdfrwt beam="1">  1       21 0.37477121E-01 0.34412778E+03</pdfrwt>
<pdfrwt beam="2">  1       21 0.87104455E-01 0.34412778E+03</pdfrwt>
<totfact> 0.71506967E+03</totfact>
</mgrwt>
</event>
<event>
 5    0  0.2213064E+000  0.6559236E+03  0.7546771E-02  0.9808460E-01
         21   -1    0    0  502  501  0.00000000000E+00  0.00000000000E+00  0.10593855941E+04  0.10593855941E+04  0.00000000000E+00 0.  1.
         21   -1    0    0  503  502 -0.00000000000E+00 -0.00000000000E+00 -0.49317656179E+03  0.49317656179E+03  0.00000000000E+00 0.  1.
         25    1    1    2    0    0 -0.45609496204E+03 -0.41482979729E+03  0.63401381689E+03  0.89314326686E+03  0.12500000000E+03 0.  0.
         21    1    1    2  503  504  0.38775514472E+03  0.23540935031E+03  0.61790299555E+01  0.45366264435E+03  0.00000000000E+00 0.  1.
         21    1    1    2  504  501  0.68339817324E+02  0.17942044698E+03 -0.73983814505E+02  0.20575624471E+03  0.00000000000E+00 0.  1.
<mgrwt>
<rscale>  4 0.64910508E+03</rscale>
<asrwt>0</asrwt>
<pdfrwt beam="1">  1       21 0.16298240E+00 0.65592361E+03</pdfrwt>
<pdfrwt beam="2">  1       21 0.75873317E-01 0.65592361E+03</pdfrwt>
<totfact> 0.28080121E+02</totfact>
</mgrwt>
</event>
<event>
 5    0  0.2213064E+000  0.2817071E+03  0.7546771E-02  0.1094760E+00
         21   -1    0    0  502  501  0.00000000000E+00  0.00000000000E+00  0.25830476760E+04  0.25830476760E+04  0.00000000000E+00 0. -1.
         21   -1    0    0  503  502 -0.00000000000E+00 -0.00000000000E+00 -0.50142017935E+02  0.50142017935E+02  0.00000000000E+00 0. -1.
         25    1    1    2    0    0  0.12393240932E+03  0.23494046341E+03  0.20371057668E+04  0.20581499383E+04  0.12500000000E+03 0.  0.
         21    1    1    2  503  504 -0.91553518386E+02 -0.20216831389E+03  0.47540813151E+03  0.52465890383E+03  0.00000000000E+00 0. -1.
         21    1    1    2  504  501 -0.32378890932E+02 -0.32772149520E+02  0.20391759770E+02  0.50380851805E+02  0.00000000000E+00 0. -1.
<mgrwt>
<rscale>  4 0.28170706E+03</rscale>
<asrwt>0</asrwt>
<pdfrwt beam="1">  1       21 0.39739185E+00 0.28170706E+03</pdfrwt>
<pdfrwt beam="2">  1       21 0.77141586E-02 0.28170706E+03</pdfrwt>
<totfact> 0.10336478E+03</totfact>
</mgrwt>
</event>
<event>
 5    0  0.2213064E+000  0.2726043E+03  0.7546771E-02  0.1099798E+00
         21   -1    0    0  502  501  0.00000000000E+00  0.00000000000E+00  0.13180735630E+03  0.13180735630E+03  0.00000000000E+00 0. -1.
         21   -1    0    0  503  502 -0.00000000000E+00 -0.00000000000E+00 -0.58037706083E+03  0.58037706083E+03  0.00000000000E+00 0. -1.
         25    1    1    2    0    0  0.68520965841E+02  0.23236391041E+03 -0.12243780831E+03  0.29883796031E+03  0.12500000000E+03 0.  0.
         21    1    1    2  503  504 -0.21030317855E+02 -0.11911364408E+03 -0.21989517730E+03  0.25096657840E+03  0.00000000000E+00 0. -1.
         21    1    1    2  504  501 -0.47490647987E+02 -0.11325026633E+03 -0.10623671892E+03  0.16237987842E+03  0.00000000000E+00 0. -1.
<mgrwt>
<rscale>  4 0.27260431E+03</rscale>
<asrwt>0</asrwt>
<pdfrwt beam="1">  1       21 0.20278055E-01 0.27260431E+03</pdfrwt>
<pdfrwt beam="2">  1       21 0.89288780E-01 0.27260431E+03</pdfrwt>
<totfact> 0.23095314E+04</totfact>
</mgrwt>
</event>
<event>
 5    0  0.2213064E+000  0.2944614E+03  0.7546771E-02  0.1088043E+00
         21   -1    0    0  502  501  0.00000000000E+00  0.00000000000E+00  0.10216505906E+03  0.10216505906E+03  0.00000000000E+00 0.  1.
         21   -1    0    0  503  502 -0.00000000000E+00 -0.00000000000E+00 -0.93733048135E+03  0.93733048135E+03  0.00000000000E+00 0.  1.
         25    1    1    2    0    0 -0.23852323156E+03 -0.11911835129E+03 -0.64579972033E+03  0.70976389904E+03  0.12500000000E+03 0.  0.
         21    1    1    2  503  504  0.20348357308E+03  0.11101744454E+03 -0.17718202137E+03  0.29176001474E+03  0.00000000000E+00 0.  1.
         21    1    1    2  504  501  0.35039658479E+02  0.81009067508E+01 -0.12183680589E+02  0.37971626633E+02  0.00000000000E+00 0.  1.
<mgrwt>
<rscale>  4 0.29446140E+03</rscale>
<asrwt>0</asrwt>
<pdfrwt beam="1">  1       21 0.15717701E-01 0.29446140E+03</pdfrwt>
<pdfrwt beam="2">  1       21 0.14420469E+00 0.29446140E+03</pdfrwt>
<totfact> 0.11222066E+04</totfact>
</mgrwt>
</event>
<event>
 5    0  0.2213064E+000  0.2278239E+03  0.7546771E-02  0.1128181E+00
         21   -1    0    0  502  501  0.00000000000E+00  0.00000000000E+00  0.18366807959E+03  0.18366807959E+03  0.00000000000E+00 0.  1.
         21   -1    0    0  503  502 -0.00000000000E+00 -0.00000000000E+00 -0.55913939161E+03  0.55913939161E+03  0.00000000000E+00 0.  1.
         25    1    1    2    0    0  0.19284360034E+03 -0.11235559638E+03  0.98423507513E+01  0.25599669158E+03  0.12500000000E+03 0.  0.
         21    1    1    2  503  504 -0.95140566005E+01  0.77234738600E+02 -0.26251426692E+02  0.82127093720E+02  0.00000000000E+00 0.  1.
         21    1    1    2  504  501 -0.18332954374E+03  0.35120857779E+02 -0.35906223608E+03  0.40468368590E+03  0.00000000000E+00 0.  1.
<mgrwt>
<rscale>  4 0.22782392E+03</rscale>
<asrwt>0</asrwt>
<pdfrwt beam="1">  1       21 0.28256627E-01 0.22782392E+03</pdfrwt>
<pdfrwt beam="2">  1       21 0.86021446E-01 0.22782392E+03</pdfrwt>
<totfact> 0.13651787E+04</totfact>
</mgrwt>
</event>
<event>
 5    0  0.2213064E+000  0.2612121E+03  0.7546771E-02  0.1106417E+00
         21   -1    0    0  502  501  0.00000000000E+00  0.00000000000E+00  0.28619231039E+03  0.28619231039E+03  0.00000000000E+00 0. -1.
         21   -1    0    0  503  502 -0.00000000000E+00 -0.00000000000E+00 -0.57126556166E+03  0.57126556166E+03  0.00000000000E+00 0. -1.
         25    1    1    2    0    0 -0.22850093584E+03  0.19851218693E+02  0.19056429258E+03  0.32333650918E+03  0.12500000000E+03 0.  0.
         21    1    1    2  503  504  0.15882752632E+03  0.17014635877E+02 -0.26758197422E+03  0.31163407047E+03  0.00000000000E+00 0. -1.
         21    1    1    2  504  501  0.69673409516E+02 -0.36865854570E+02 -0.20805556963E+03  0.22248729240E+03  0.00000000000E+00 0. -1.
<mgrwt>
<rscale>  4 0.26121208E+03</rscale>
<asrwt>0</asrwt>
<pdfrwt beam="1">  1       21 0.44029587E-01 0.26121208E+03</pdfrwt>
<pdfrwt beam="2">  1       21 0.87887008E-01 0.26121208E+03</pdfrwt>
<totfact> 0.52472104E+03</totfact>
</mgrwt>
</event>
<event>
 5    0  0.2213064E+000  0.2358834E+03  0.7546771E-02  0.1122566E+00
         21   -1    0    0  502  501  0.00000000000E+00  0.00000000000E+00  0.42969323832E+03  0.42969323832E+03  0.00000000000E+00 0. -1.
         21   -1    0    0  503  502 -0.00000000000E+00 -0.00000000000E+00 -0.11462531277E+03  0.11462531277E+03  0.00000000000E+00 0. -1.
         25    1    1    2    0    0  0.19902494602E+03 -0.20125845608E+02  0.12977063366E+03  0.26922369167E+03  0.12500000000E+03 0.  0.
         21    1    1    2  503  504 -0.14976653037E+03  0.28620260566E+02  0.12820240736E+03  0.19921091884E+03  0.00000000000E+00 0. -1.
         21    1    1    2  504  501 -0.49258415650E+02 -0.84944149586E+01  0.57094884529E+02  0.75883940575E+02  0.00000000000E+00 0.  1.
<mgrwt>
<rscale>  4 0.23588340E+03</rscale>
<asrwt>0</asrwt>
<pdfrwt beam="1">  1       21 0.66106651E-01 0.23588340E+03</pdfrwt>
<pdfrwt beam="2">  1       21 0.17634664E-01 0.23588340E+03</pdfrwt>
<totfact> 0.60094756E+04</totfact>
</mgrwt>
</event>
<event>
 5    0  0.2213064E+000  0.2850638E+03  0.7546771E-02  0.1092955E+00
         21   -1    0    0  502  501  0.00000000000E+00  0.00000000000E+00  0.10833733382E+04  0.10833733382E+04  0.00000000000E+00 0. -1.
         21   -1    0    0  503  502 -0.00000000000E+00 -0.00000000000E+00 -0.48990808910E+03  0.48990808910E+03  0.00000000000E+00 0.  1.
         25    1    1    2    0    0 -0.21924007635E+03  0.20210604865E+03  0.98298975664E+03  0.10347980130E+04  0.12500000000E+03 0.  0.
         21    1    1    2  503  504  0.31401586715E+02 -0.30089292453E+02  0.26321154671E+02  0.50835306154E+02  0.00000000000E+00 0.  1.
         21    1    1    2  504  501  0.18783848964E+03 -0.17201675620E+03 -0.41584566223E+03  0.48764810816E+03  0.00000000000E+00 0.  1.
<mgrwt>
<rscale>  4 0.28506379E+03</rscale>
<asrwt>0</asrwt>
<pdfrwt beam="1">  1       21 0.16667282E+00 0.28506379E+03</pdfrwt>
<pdfrwt beam="2">  1       21 0.75370475E-01 0.28506379E+03</pdfrwt>
<totfact> 0.32282854E+02</totfact>
</mgrwt>
</event>
<event>
 5    0  0.2213064E+000  0.3398367E+03  0.7546771E-02  0.1066865E+00
         21   -1    0    0  502  501  0.00000000000E+00  0.00000000000E+00  0.10360183394E+04  0.10360183394E+04  0.00000000000E+00 0. -1.
         21   -1    0    0  503  502 -0.00000000000E+00 -0.00000000000E+00 -0.16917598555E+03  0.16917598555E+03  0.00000000000E+00 0. -1.
         25    1    1    2    0    0 -0.31556940567E+03 -0.16732037000E+02  0.81283806547E+03  0.88101914368E+03  0.12500000000E+03 0.  0.
         21    1    1    2  503  504  0.28784900939E+03  0.27470642769E+02  0.55393995002E+02  0.29441498450E+03  0.00000000000E+00 0. -1.
         21    1    1    2  504  501  0.27720396286E+02 -0.10738605769E+02 -0.13897066708E+01  0.29760196719E+02  0.00000000000E+00 0. -1.
<mgrwt>
<rscale>  4 0.33983674E+03</rscale>
<asrwt>0</asrwt>
<pdfrwt beam="1">  1       21 0.15938743E+00 0.33983674E+03</pdfrwt>
<pdfrwt beam="2">  1       21 0.26027075E-01 0.33983674E+03</pdfrwt>
<totfact> 0.32249685E+03</totfact>
</mgrwt>
</event>
<event>
 5    0  0.2213064E+000  0.2579783E+03  0.7546771E-02  0.1108364E+00
         21   -1    0    0  502  501  0.00000000000E+00  0.00000000000E+00  0.12522468002E+03  0.12522468002E+03  0.00000000000E+00 0.  1.
         21   -1    0    0  503  502 -0.00000000000E+00 -0.00000000000E+00 -0.17862071929E+04  0.17862071929E+04  0.00000000000E+00 0.  1.
         25    1    1    2    0    0 -0.13800148869E+02  0.22917849722E+03 -0.33575763159E+02  0.26356319843E+03  0.12500000000E+03 0.  0.
         21    1    1    2  503  504  0.40360811637E+02 -0.39568692244E+02 -0.20556039140E+03  0.21318947215E+03  0.00000000000E+00 0. -1.
         21    1    1    2  504  501 -0.26560662768E+02 -0.18960980497E+03 -0.14218463583E+04  0.14346792023E+04  0.00000000000E+00 0.  1.
<mgrwt>
<rscale>  4 0.25797829E+03</rscale>
<asrwt>0</asrwt>
<pdfrwt beam="1">  1       21 0.19265336E-01 0.25797829E+03</pdfrwt>
<pdfrwt beam="2">  1       21 0.27480110E+00 0.25797829E+03</pdfrwt>
<totfact> 0.10978227E+03</totfact>
</mgrwt>
</event>
<event>
 5    0  0.2213064E+000  0.3111126E+03  0.7546771E-02  0.1079814E+00
         21   -1    0    0  502  501  0.00000000000E+00  0.00000000000E+00  0.77394284035E+03  0.77394284035E+03  0.00000000000E+00 0.  1.
         21   -1    0    0  503  502 -0.00000000000E+00 -0.00000000000E+00 -0.11910385237E+03  0.11910385237E+03  0.00000000000E+00 0.  1.
         25    1    1    2    0    0  0.19913019828E+03 -0.20374784282E+03  0.41540945252E+03  0.51899521439E+03  0.12500000000E+03 0.  0.
         21    1    1    2  503  504 -0.18647889546E+03  0.17450674231E+03  0.21625844479E+03  0.33465608691E+03  0.00000000000E+00 0.  1.
         21    1    1    2  504  501 -0.12651302823E+02  0.29241100506E+02  0.23171090686E+02  0.39395391425E+02  0.00000000000E+00 0. -1.
<mgrwt>
<rscale>  4 0.31111255E+03</rscale>
<asrwt>0</asrwt>
<pdfrwt beam="1">  1       21 0.11906813E+00 0.31111255E+03</pdfrwt>
<pdfrwt beam="2">  1       21 0.18323670E-01 0.31111255E+03</pdfrwt>
<totfact> 0.13707993E+04</totfact>
</mgrwt>
</event>
<event>
 5    0  0.2213064E+000  0.2365643E+03  0.7546771E-02  0.1122103E+00
         21   -1    0    0  502  501  0.00000000000E+00  0.00000000000E+00  0.34397982146E+02  0.34397982146E+02  0.00000000000E+00 0.  1.
         21   -1    0    0  503  502 -0.00000000000E+00 -0.00000000000E+00 -0.15099335921E+04  0.15099335921E+04  0.00000000000E+00 0.  1.
         25    1    1    2    0    0  0.93765387779E+02  0.17761112380E+03 -0.80116708125E+03  0.83536300571E+03  0.12500000000E+03 0.  0.
         21    1    1    2  503  504 -0.38286819529E+02 -0.12130320855E+03 -0.29181608297E+03  0.31833469059E+03  0.00000000000E+00 0.  1.
         21    1    1    2  504  501 -0.55478568250E+02 -0.56307915252E+02 -0.38255244570E+03  0.39063387791E+03  0.00000000000E+00 0.  1.
<mgrwt>
<rscale>  4 0.23656428E+03</rscale>
<asrwt>0</asrwt>
<pdfrwt beam="1">  1       21 0.52919960E-02 0.23656428E+03</pdfrwt>
<pdfrwt beam="2">  1       21 0.23229753E+00 0.23656428E+03</pdfrwt>
<totfact> 0.20003525E+04</totfact>
</mgrwt>
</event>
<event>
 5    0  0.2213064E+000  0.2657926E+03  0.7546771E-02  0.1103712E+00
         21   -1    0    0  502  501  0.00000000000E+00  0.00000000000E+00  0.17276826604E+03  0.17276826604E+03  0.00000000000E+00 0.  1.
         21   -1    0    0  503  502 -0.00000000000E+00 -0.00000000000E+00 -0.37268361870E+03  0.37268361870E+03  0.00000000000E+00 0.  1.
         25    1    1    2    0    0 -0.12749706089E+03  0.19688887602E+03 -0.99541553629E+02  0.28382080779E+03  0.12500000000E+03 0.  0.
         21    1    1    2  503  504  0.88697092004E+02 -0.17156250378E+03 -0.94215599943E+02  0.21488938109E+03  0.00000000000E+00 0.  1.
         21    1    1    2  504  501  0.38799968883E+02 -0.25326372241E+02 -0.61581990898E+01  0.46741695864E+02  0.00000000000E+00 0.  1.
<mgrwt>
<rscale>  4 0.26579264E+03</rscale>
<asrwt>0</asrwt>
<pdfrwt beam="1">  1       21 0.26579734E-01 0.26579264E+03</pdfrwt>
<pdfrwt beam="2">  1       21 0.57335940E-01 0.26579264E+03</pdfrwt>
<totfact> 0.37182877E+04</totfact>
</mgrwt>
</event>
<event>
 5    0  0.2213064E+000  0.2743794E+03  0.7546771E-02  0.1098799E+00
         21   -1    0    0  502  501  0.00000000000E+00  0.00000000000E+00  0.58634780666E+03  0.58634780666E+03  0.00000000000E+00 0.  1.
         21   -1    0    0  503  502 -0.00000000000E+00 -0.00000000000E+00 -0.42289532460E+03  0.42289532460E+03  0.00000000000E+00 0.  1.
         25    1    1    2    0    0  0.65686665450E+01  0.24416370328E+03  0.50784048877E+03  0.57722268096E+03  0.12500000000E+03 0.  0.
         21    1    1    2  503  504  0.14667835688E+02 -0.10148322762E+03 -0.21518214022E+03  0.23836389065E+03  0.00000000000E+00 0.  1.
         21    1    1    2  504  501 -0.21236502233E+02 -0.14268047566E+03 -0.12920586649E+03  0.19365655965E+03  0.00000000000E+00 0.  1.
<mgrwt>
<rscale>  4 0.27437941E+03</rscale>
<asrwt>0</asrwt>
<pdfrwt beam="1">  1       21 0.90207356E-01 0.27437941E+03</pdfrwt>
<pdfrwt beam="2">  1       21 0.65060819E-01 0.27437941E+03</pdfrwt>
<totfact> 0.21353865E+03</totfact>
</mgrwt>
</event>
<event>
 5    0  0.2213064E+000  0.2697348E+03  0.7546771E-02  0.1101431E+00
         21   -1    0    0  502  501  0.00000000000E+00  0.00000000000E+00  0.11867721508E+03  0.11867721508E+03  0.00000000000E+00 0. -1.
         21   -1    0    0  503  502 -0.00000000000E+00 -0.00000000000E+00 -0.11264239761E+04  0.11264239761E+04  0.00000000000E+00 0. -1.
         25    1    1    2    0    0  0.58265570183E+02 -0.23181239424E+03 -0.80375100711E+02  0.28145518223E+03  0.12500000000E+03 0.  0.
         21    1    1    2  503  504 -0.22811301827E+02  0.66307314583E+02 -0.12232077517E+03  0.14099428179E+03  0.00000000000E+00 0. -1.
         21    1    1    2  504  501 -0.35454268357E+02  0.16550507965E+03 -0.80505088510E+03  0.82265172712E+03  0.00000000000E+00 0. -1.
<mgrwt>
<rscale>  4 0.26973480E+03</rscale>
<asrwt>0</asrwt>
<pdfrwt beam="1">  1       21 0.18258033E-01 0.26973480E+03</pdfrwt>
<pdfrwt beam="2">  1       21 0.17329600E+00 0.26973480E+03</pdfrwt>
<totfact> 0.52227639E+03</totfact>
</mgrwt>
</event>
<event>
 5    0  0.2213064E+000  0.3821735E+03  0.7546771E-02  0.1051565E+00
         21   -1    0    0  502  501  0.00000000000E+00  0.00000000000E+00  0.26149615966E+03  0.26149615966E+03  0.00000000000E+00 0.  1.
         21   -1    0    0  503  502 -0.00000000000E+00 -0.00000000000E+00 -0.88270622061E+03  0.88270622061E+03  0.00000000000E+00 0.  1.
         25    1    1    2    0    0 -0.11742343443E+03 -0.32435224845E+03  0.51513255563E+02  0.37050136238E+03  0.12500000000E+03 0.  0.
         21    1    1    2  503  504  0.98211876186E+02  0.69462925993E+02 -0.15396644652E+03  0.19538765919E+03  0.00000000000E+00 0. -1.
         21    1    1    2  504  501  0.19211558246E+02  0.25488932246E+03 -0.51875686999E+03  0.57831335869E+03  0.00000000000E+00 0.  1.
<mgrwt>
<rscale>  4 0.37829726E+03</rscale>
<asrwt>0</asrwt>
<pdfrwt beam="1">  1       21 0.40230179E-01 0.38217353E+03</pdfrwt>
<pdfrwt beam="2">  1       21 0.13580096E+00 0.38217353E+03</pdfrwt>
<totfact> 0.20353874E+03</totfact>
</mgrwt>
</event>
<event>
 5    0  0.2213064E+000  0.2429126E+03  0.7546771E-02  0.1117868E+00
         21   -1    0    0  502  501  0.00000000000E+00  0.00000000000E+00  0.45679661034E+03  0.45679661034E+03  0.00000000000E+00 0.  1.
         21   -1    0    0  503  502 -0.00000000000E+00 -0.00000000000E+00 -0.25584125767E+03  0.25584125767E+03  0.00000000000E+00 0.  1.
         25    1    1    2    0    0 -0.21397861508E+03  0.15985231431E+02  0.35629859820E+03  0.43429951234E+03  0.12500000000E+03 0.  0.
         21    1    1    2  503  504  0.17644560874E+03 -0.22958410759E+01 -0.15989600878E+03  0.23812823720E+03  0.00000000000E+00 0.  1.
         21    1    1    2  504  501  0.37533006346E+02 -0.13689390355E+02  0.45527632519E+01  0.40210118464E+02  0.00000000000E+00 0.  1.
<mgrwt>
<rscale>  4 0.24291260E+03</rscale>
<asrwt>0</asrwt>
<pdfrwt beam="1">  1       21 0.70276401E-01 0.24291260E+03</pdfrwt>
<pdfrwt beam="2">  1       21 0.39360194E-01 0.24291260E+03</pdfrwt>
<totfact> 0.11077953E+04</totfact>
</mgrwt>
</event>
<event>
 5    0  0.2213064E+000  0.2429612E+03  0.7546771E-02  0.1117836E+00
         21   -1    0    0  502  501  0.00000000000E+00  0.00000000000E+00  0.53646454856E+03  0.53646454856E+03  0.00000000000E+00 0.  1.
         21   -1    0    0  503  502 -0.00000000000E+00 -0.00000000000E+00 -0.18077534933E+03  0.18077534933E+03  0.00000000000E+00 0.  1.
         25    1    1    2    0    0  0.19033988254E+03 -0.74743487930E+02  0.38114425464E+03  0.45023527484E+03  0.12500000000E+03 0.  0.
         21    1    1    2  503  504 -0.13896621282E+02 -0.38651427995E+02  0.29038169403E+02  0.50301732091E+02  0.00000000000E+00 0. -1.
         21    1    1    2  504  501 -0.17644326126E+03  0.11339491592E+03 -0.54493224810E+02  0.21670289096E+03  0.00000000000E+00 0.  1.
<mgrwt>
<rscale>  4 0.24296117E+03</rscale>
<asrwt>0</asrwt>
<pdfrwt beam="1">  1       21 0.82533007E-01 0.24296117E+03</pdfrwt>
<pdfrwt beam="2">  1       21 0.27811592E-01 0.24296117E+03</pdfrwt>
<totfact> 0.15354850E+04</totfact>
</mgrwt>
</event>
<event>
 5    0  0.2213064E+000  0.3043557E+03  0.7546771E-02  0.1083083E+00
         21   -1    0    0  502  501  0.00000000000E+00  0.00000000000E+00  0.83216316913E+03  0.83216316913E+03  0.00000000000E+00 0. -1.
         21   -1    0    0  503  502 -0.00000000000E+00 -0.00000000000E+00 -0.10596396750E+03  0.10596396750E+03  0.00000000000E+00 0. -1.
         25    1    1    2    0    0  0.25737167019E+03  0.10376522871E+03  0.46188265935E+03  0.55314373387E+03  0.12500000000E+03 0.  0.
         21    1    1    2  503  504 -0.23738979875E+03 -0.98196877224E+02  0.22962739944E+03  0.34456535783E+03  0.00000000000E+00 0. -1.
         21    1    1    2  504  501 -0.19981871439E+02 -0.55683514885E+01  0.34689142842E+02  0.40418044926E+02  0.00000000000E+00 0.  1.
<mgrwt>
<rscale>  4 0.30435571E+03</rscale>
<asrwt>0</asrwt>
<pdfrwt beam="1">  1       21 0.12802510E+00 0.30435571E+03</pdfrwt>
<pdfrwt beam="2">  1       21 0.16302149E-01 0.30435571E+03</pdfrwt>
<totfact> 0.14222103E+04</totfact>
</mgrwt>
</event>
<event>
 5    0  0.2213064E+000  0.3013562E+03  0.7546771E-02  0.1084565E+00
         21   -1    0    0  502  501  0.00000000000E+00  0.00000000000E+00  0.19874887173E+03  0.19874887173E+03  0.00000000000E+00 0. -1.
         21   -1    0    0  503  502 -0.00000000000E+00 -0.00000000000E+00 -0.42931296505E+03  0.42931296505E+03  0.00000000000E+00 0. -1.
         25    1    1    2    0    0  0.10048411287E+03 -0.25513426556E+03 -0.86240164946E+02  0.31345321254E+03  0.12500000000E+03 0.  0.
         21    1    1    2  503  504 -0.14384721876E+02  0.10701092763E+03 -0.49352702266E+02  0.11871793494E+03  0.00000000000E+00 0. -1.
         21    1    1    2  504  501 -0.86099390989E+02  0.14812333793E+03 -0.94971226110E+02  0.19589068931E+03  0.00000000000E+00 0. -1.
<mgrwt>
<rscale>  4 0.30135619E+03</rscale>
<asrwt>0</asrwt>
<pdfrwt beam="1">  1       21 0.30576750E-01 0.30135619E+03</pdfrwt>
<pdfrwt beam="2">  1       21 0.66048148E-01 0.30135619E+03</pdfrwt>
<totfact> 0.20486592E+04</totfact>
</mgrwt>
</event>
