<event>
 4    0  0.1775285E-001  0.5219718E+03  0.7546771E-02  0.1008198E+00
         21   -1    0    0  503  501  0.00000000000E+00  0.00000000000E+00  0.84592165740E+02  0.84592165740E+02  0.00000000000E+00 0. -1.
         21   -1    0    0  501  502 -0.00000000000E+00 -0.00000000000E+00 -0.80520023270E+03  0.80520023270E+03  0.00000000000E+00 0. -1.
         25    1    1    2    0    0  0.20009661221E+03  0.71451269961E+02 -0.59238268748E+03  0.64162776329E+03  0.12500000000E+03 0.  0.
         21    1    1    2  503  502 -0.20009661221E+03 -0.71451269961E+02 -0.12822537948E+03  0.24816463515E+03  0.00000000000E+00 0. -1.
<mgrwt>
<rscale>  3 0.52197177E+03</rscale>
<asrwt>0</asrwt>
<pdfrwt beam="1">  1       21 0.13014178E-01 0.52197177E+03</pdfrwt>
<pdfrwt beam="2">  1       21 0.12387697E+00 0.52197177E+03</pdfrwt>
<totfact> 0.21879641E+04</totfact>
</mgrwt>
</event>
<event>
 4    0  0.1775285E-001  0.5135844E+03  0.7546771E-02  0.1010293E+00
         21   -1    0    0  503  501  0.00000000000E+00  0.00000000000E+00  0.98308954680E+02  0.98308954680E+02  0.00000000000E+00 0.  1.
         21   -1    0    0  501  502 -0.00000000000E+00 -0.00000000000E+00 -0.67076521696E+03  0.67076521696E+03  0.00000000000E+00 0.  1.
         25    1    1    2    0    0  0.19678271998E+02  0.24041495375E+03 -0.32296705244E+03  0.42204182416E+03  0.12500000000E+03 0.  0.
         21    1    1    2  503  502 -0.19678271998E+02 -0.24041495375E+03 -0.24948920984E+03  0.34703234749E+03  0.00000000000E+00 0.  1.
<mgrwt>
<rscale>  3 0.51358437E+03</rscale>
<asrwt>0</asrwt>
<pdfrwt beam="1">  1       21 0.15124455E-01 0.51358437E+03</pdfrwt>
<pdfrwt beam="2">  1       21 0.10319465E+00 0.51358437E+03</pdfrwt>
<totfact> 0.26259374E+04</totfact>
</mgrwt>
</event>
<event>
 4    0  0.1775285E-001  0.5524238E+03  0.7546771E-02  0.1000934E+00
         21   -1    0    0  502  501  0.00000000000E+00  0.00000000000E+00  0.85579879078E+03  0.85579879078E+03  0.00000000000E+00 0. -1.
         21   -1    0    0  503  502 -0.00000000000E+00 -0.00000000000E+00 -0.89148313840E+02  0.89148313840E+02  0.00000000000E+00 0. -1.
         25    1    1    2    0    0 -0.15220388243E+03  0.21333941898E+03  0.40142934813E+03  0.49542936032E+03  0.12500000000E+03 0.  0.
         21    1    1    2  503  501  0.15220388243E+03 -0.21333941898E+03  0.36522112881E+03  0.44951774431E+03  0.00000000000E+00 0. -1.
<mgrwt>
<rscale>  3 0.55242382E+03</rscale>
<asrwt>0</asrwt>
<pdfrwt beam="1">  1       21 0.13166135E+00 0.55242382E+03</pdfrwt>
<pdfrwt beam="2">  1       21 0.13715126E-01 0.55242382E+03</pdfrwt>
<totfact> 0.16832933E+04</totfact>
</mgrwt>
</event>
<event>
 4    0  0.1775285E-001  0.5373957E+03  0.7546771E-02  0.1004454E+00
         21   -1    0    0  503  501  0.00000000000E+00  0.00000000000E+00  0.10855627861E+04  0.10855627861E+04  0.00000000000E+00 0. -1.
         21   -1    0    0  501  502 -0.00000000000E+00 -0.00000000000E+00 -0.66507939207E+02  0.66507939207E+02  0.00000000000E+00 0. -1.
         25    1    1    2    0    0 -0.36506010128E+02  0.21440231495E+03  0.25515151234E+03  0.35781047453E+03  0.12500000000E+03 0.  0.
         21    1    1    2  503  502  0.36506010128E+02 -0.21440231495E+03  0.76390333458E+03  0.79426025081E+03  0.00000000000E+00 0. -1.
<mgrwt>
<rscale>  3 0.53739573E+03</rscale>
<asrwt>0</asrwt>
<pdfrwt beam="1">  1       21 0.16700965E+00 0.53739573E+03</pdfrwt>
<pdfrwt beam="2">  1       21 0.10231991E-01 0.53739573E+03</pdfrwt>
<totfact> 0.15085320E+04</totfact>
</mgrwt>
</event>
<event>
 4    0  0.1775285E-001  0.4495486E+03  0.7546771E-02  0.1027857E+00
         21   -1    0    0  503  501  0.00000000000E+00  0.00000000000E+00  0.57838417276E+03  0.57838417276E+03  0.00000000000E+00 0. -1.
         21   -1    0    0  501  502 -0.00000000000E+00 -0.00000000000E+00 -0.87352816225E+02  0.87352816225E+02  0.00000000000E+00 0. -1.
         25    1    1    2    0    0  0.28532979971E+02  0.20501752106E+03  0.28361726801E+03  0.37270641207E+03  0.12500000000E+03 0.  0.
         21    1    1    2  503  502 -0.28532979971E+02 -0.20501752106E+03  0.20741408853E+03  0.29303057691E+03  0.00000000000E+00 0. -1.
<mgrwt>
<rscale>  3 0.44954860E+03</rscale>
<asrwt>0</asrwt>
<pdfrwt beam="1">  1       21 0.88982178E-01 0.44954860E+03</pdfrwt>
<pdfrwt beam="2">  1       21 0.13438895E-01 0.44954860E+03</pdfrwt>
<totfact> 0.47371681E+04</totfact>
</mgrwt>
</event>
<event>
 4    0  0.1775285E-001  0.7342687E+03  0.7546771E-02  0.9660359E-01
         21   -1    0    0  502  501  0.00000000000E+00  0.00000000000E+00  0.13647842235E+04  0.13647842235E+04  0.00000000000E+00 0. -1.
         21   -1    0    0  503  502 -0.00000000000E+00 -0.00000000000E+00 -0.98761140512E+02  0.98761140512E+02  0.00000000000E+00 0. -1.
         25    1    1    2    0    0 -0.53444639975E+02  0.31713077799E+03  0.95794768086E+03  0.10181930167E+04  0.12500000000E+03 0.  0.
         21    1    1    2  503  501  0.53444639975E+02 -0.31713077799E+03  0.30807540209E+03  0.44535234732E+03  0.00000000000E+00 0. -1.
<mgrwt>
<rscale>  3 0.73426874E+03</rscale>
<asrwt>0</asrwt>
<pdfrwt beam="1">  1       21 0.20996679E+00 0.73426874E+03</pdfrwt>
<pdfrwt beam="2">  1       21 0.15194023E-01 0.73426874E+03</pdfrwt>
<totfact> 0.34755317E+03</totfact>
</mgrwt>
</event>
<event>
 4    0  0.1775285E-001  0.5470282E+03  0.7546771E-02  0.1002184E+00
         21   -1    0    0  502  501  0.00000000000E+00  0.00000000000E+00  0.16512000214E+03  0.16512000214E+03  0.00000000000E+00 0. -1.
         21   -1    0    0  503  502 -0.00000000000E+00 -0.00000000000E+00 -0.45306427455E+03  0.45306427455E+03  0.00000000000E+00 0. -1.
         25    1    1    2    0    0 -0.14072793773E+03 -0.17121454470E+03  0.47383088005E+00  0.25444841774E+03  0.12500000000E+03 0.  0.
         21    1    1    2  503  501  0.14072793773E+03  0.17121454470E+03 -0.28841810329E+03  0.36373585894E+03  0.00000000000E+00 0. -1.
<mgrwt>
<rscale>  3 0.54702824E+03</rscale>
<asrwt>0</asrwt>
<pdfrwt beam="1">  1       21 0.25403077E-01 0.54702824E+03</pdfrwt>
<pdfrwt beam="2">  1       21 0.69702196E-01 0.54702824E+03</pdfrwt>
<totfact> 0.24403621E+04</totfact>
</mgrwt>
</event>
<event>
 4    0  0.1775285E-001  0.5822497E+03  0.7546771E-02  0.9942932E-01
         21   -1    0    0  503  501  0.00000000000E+00  0.00000000000E+00  0.53104535635E+03  0.53104535635E+03  0.00000000000E+00 0.  1.
         21   -1    0    0  501  502 -0.00000000000E+00 -0.00000000000E+00 -0.15959779087E+03  0.15959779087E+03  0.00000000000E+00 0.  1.
         25    1    1    2    0    0  0.74655627974E+02  0.24576968654E+03  0.69060569501E+02  0.29388869299E+03  0.12500000000E+03 0.  0.
         21    1    1    2  503  502 -0.74655627974E+02 -0.24576968654E+03  0.30238699598E+03  0.39675445422E+03  0.00000000000E+00 0.  1.
<mgrwt>
<rscale>  3 0.58224966E+03</rscale>
<asrwt>0</asrwt>
<pdfrwt beam="1">  1       21 0.81699285E-01 0.58224966E+03</pdfrwt>
<pdfrwt beam="2">  1       21 0.24553507E-01 0.58224966E+03</pdfrwt>
<totfact> 0.17979957E+04</totfact>
</mgrwt>
</event>
<event>
 4    0  0.1775285E-001  0.5087688E+03  0.7546771E-02  0.1011515E+00
         21   -1    0    0  503  501  0.00000000000E+00  0.00000000000E+00  0.57389035703E+02  0.57389035703E+02  0.00000000000E+00 0. -1.
         21   -1    0    0  501  502 -0.00000000000E+00 -0.00000000000E+00 -0.11275919716E+04  0.11275919716E+04  0.00000000000E+00 0. -1.
         25    1    1    2    0    0 -0.49310700924E+01  0.21514158771E+03 -0.32507934301E+03  0.40940419815E+03  0.12500000000E+03 0.  0.
         21    1    1    2  503  502  0.49310700924E+01 -0.21514158771E+03 -0.74512359290E+03  0.77557680916E+03  0.00000000000E+00 0.  1.
<mgrwt>
<rscale>  3 0.50876877E+03</rscale>
<asrwt>0</asrwt>
<pdfrwt beam="1">  1       21 0.88290837E-02 0.50876877E+03</pdfrwt>
<pdfrwt beam="2">  1       21 0.17347566E+00 0.50876877E+03</pdfrwt>
<totfact> 0.17773563E+04</totfact>
</mgrwt>
</event>
<event>
 4    0  0.1775285E-001  0.5419154E+03  0.7546771E-02  0.1003383E+00
         21   -1    0    0  503  501  0.00000000000E+00  0.00000000000E+00  0.22649653465E+03  0.22649653465E+03  0.00000000000E+00 0.  1.
         21   -1    0    0  501  502 -0.00000000000E+00 -0.00000000000E+00 -0.32414653890E+03  0.32414653890E+03  0.00000000000E+00 0.  1.
         25    1    1    2    0    0  0.23166131326E+03 -0.69743025341E+01  0.60338642099E+02  0.27015061852E+03  0.12500000000E+03 0.  0.
         21    1    1    2  503  502 -0.23166131326E+03  0.69743025341E+01 -0.15798864635E+03  0.28049245503E+03  0.00000000000E+00 0.  1.
<mgrwt>
<rscale>  3 0.54191537E+03</rscale>
<asrwt>0</asrwt>
<pdfrwt beam="1">  1       21 0.34845621E-01 0.54191537E+03</pdfrwt>
<pdfrwt beam="2">  1       21 0.49868698E-01 0.54191537E+03</pdfrwt>
<totfact> 0.27135927E+04</totfact>
</mgrwt>
</event>
<event>
 4    0  0.1775285E-001  0.4550066E+03  0.7546771E-02  0.1026239E+00
         21   -1    0    0  503  501  0.00000000000E+00  0.00000000000E+00  0.12495587907E+04  0.12495587907E+04  0.00000000000E+00 0. -1.
         21   -1    0    0  501  502 -0.00000000000E+00 -0.00000000000E+00 -0.41420821870E+02  0.41420821870E+02  0.00000000000E+00 0. -1.
         25    1    1    2    0    0  0.10348881712E+03  0.17945632669E+03  0.75295921815E+03  0.79087741949E+03  0.12500000000E+03 0.  0.
         21    1    1    2  503  502 -0.10348881712E+03 -0.17945632669E+03  0.45517875071E+03  0.50010219311E+03  0.00000000000E+00 0. -1.
<mgrwt>
<rscale>  3 0.45500660E+03</rscale>
<asrwt>0</asrwt>
<pdfrwt beam="1">  1       21 0.19223979E+00 0.45500660E+03</pdfrwt>
<pdfrwt beam="2">  1       21 0.63724351E-02 0.45500660E+03</pdfrwt>
<totfact> 0.23736291E+04</totfact>
</mgrwt>
</event>
<event>
 4    0  0.1775285E-001  0.4462656E+03  0.7546771E-02  0.1028842E+00
         21   -1    0    0  503  501  0.00000000000E+00  0.00000000000E+00  0.81314176111E+02  0.81314176111E+02  0.00000000000E+00 0. -1.
         21   -1    0    0  501  502 -0.00000000000E+00 -0.00000000000E+00 -0.61229474105E+03  0.61229474105E+03  0.00000000000E+00 0. -1.
         25    1    1    2    0    0 -0.19794395989E+03  0.52567585847E+02 -0.31485446886E+03  0.39585792767E+03  0.12500000000E+03 0.  0.
         21    1    1    2  503  502  0.19794395989E+03 -0.52567585847E+02 -0.21612609608E+03  0.29775098949E+03  0.00000000000E+00 0. -1.
<mgrwt>
<rscale>  3 0.44626558E+03</rscale>
<asrwt>0</asrwt>
<pdfrwt beam="1">  1       21 0.12509874E-01 0.44626558E+03</pdfrwt>
<pdfrwt beam="2">  1       21 0.94199188E-01 0.44626558E+03</pdfrwt>
<totfact> 0.47212805E+04</totfact>
</mgrwt>
</event>
<event>
 4    0  0.1775285E-001  0.4847883E+03  0.7546771E-02  0.1017827E+00
         21   -1    0    0  502  501  0.00000000000E+00  0.00000000000E+00  0.50837639818E+03  0.50837639818E+03  0.00000000000E+00 0.  1.
         21   -1    0    0  503  502 -0.00000000000E+00 -0.00000000000E+00 -0.11557365100E+03  0.11557365100E+03  0.00000000000E+00 0.  1.
         25    1    1    2    0    0 -0.13281986637E+03 -0.15727440636E+03  0.88545645064E+02  0.25659635044E+03  0.12500000000E+03 0.  0.
         21    1    1    2  503  501  0.13281986637E+03  0.15727440636E+03  0.30425710212E+03  0.36735369875E+03  0.00000000000E+00 0.  1.
<mgrwt>
<rscale>  3 0.48478827E+03</rscale>
<asrwt>0</asrwt>
<pdfrwt beam="1">  1       21 0.78211753E-01 0.48478827E+03</pdfrwt>
<pdfrwt beam="2">  1       21 0.17780562E-01 0.48478827E+03</pdfrwt>
<totfact> 0.37715622E+04</totfact>
</mgrwt>
</event>
<event>
 4    0  0.1775285E-001  0.5998928E+03  0.7546771E-02  0.9905628E-01
         21   -1    0    0  502  501  0.00000000000E+00  0.00000000000E+00  0.62479100676E+03  0.62479100676E+03  0.00000000000E+00 0. -1.
         21   -1    0    0  503  502 -0.00000000000E+00 -0.00000000000E+00 -0.14399669688E+03  0.14399669688E+03  0.00000000000E+00 0. -1.
         25    1    1    2    0    0  0.26675967668E+03  0.10505002822E+03  0.26537395769E+03  0.41017626814E+03  0.12500000000E+03 0.  0.
         21    1    1    2  503  501 -0.26675967668E+03 -0.10505002822E+03  0.21542035219E+03  0.35861143550E+03  0.00000000000E+00 0. -1.
<mgrwt>
<rscale>  3 0.59989279E+03</rscale>
<asrwt>0</asrwt>
<pdfrwt beam="1">  1       21 0.96121692E-01 0.59989279E+03</pdfrwt>
<pdfrwt beam="2">  1       21 0.22153338E-01 0.59989279E+03</pdfrwt>
<totfact> 0.14864981E+04</totfact>
</mgrwt>
</event>
<event>
 4    0  0.1775285E-001  0.4854035E+03  0.7546771E-02  0.1017661E+00
         21   -1    0    0  503  501  0.00000000000E+00  0.00000000000E+00  0.92993699764E+03  0.92993699764E+03  0.00000000000E+00 0.  1.
         21   -1    0    0  501  502 -0.00000000000E+00 -0.00000000000E+00 -0.63342083160E+02  0.63342083160E+02  0.00000000000E+00 0.  1.
         25    1    1    2    0    0 -0.20640247839E+03 -0.90116907804E+02  0.51329749967E+03  0.57430163097E+03  0.12500000000E+03 0.  0.
         21    1    1    2  503  502  0.20640247839E+03  0.90116907804E+02  0.35329741481E+03  0.41897744984E+03  0.00000000000E+00 0.  1.
<mgrwt>
<rscale>  3 0.48540353E+03</rscale>
<asrwt>0</asrwt>
<pdfrwt beam="1">  1       21 0.14306722E+00 0.48540353E+03</pdfrwt>
<pdfrwt beam="2">  1       21 0.97449365E-02 0.48540353E+03</pdfrwt>
<totfact> 0.25593881E+04</totfact>
</mgrwt>
</event>
<event>
 4    0  0.1775285E-001  0.5385209E+03  0.7546771E-02  0.1004186E+00
         21   -1    0    0  502  501  0.00000000000E+00  0.00000000000E+00  0.43497542426E+03  0.43497542426E+03  0.00000000000E+00 0.  1.
         21   -1    0    0  503  502 -0.00000000000E+00 -0.00000000000E+00 -0.16667882824E+03  0.16667882824E+03  0.00000000000E+00 0.  1.
         25    1    1    2    0    0 -0.15026066589E+03  0.20095535814E+03  0.19055758873E+03  0.33896683953E+03  0.12500000000E+03 0.  0.
         21    1    1    2  503  501  0.15026066589E+03 -0.20095535814E+03  0.77739007293E+02  0.26268741297E+03  0.00000000000E+00 0.  1.
<mgrwt>
<rscale>  3 0.53852092E+03</rscale>
<asrwt>0</asrwt>
<pdfrwt beam="1">  1       21 0.66919296E-01 0.53852092E+03</pdfrwt>
<pdfrwt beam="2">  1       21 0.25642897E-01 0.53852092E+03</pdfrwt>
<totfact> 0.26306773E+04</totfact>
</mgrwt>
</event>
<event>
 4    0  0.1775285E-001  0.4762518E+03  0.7546771E-02  0.1020170E+00
         21   -1    0    0  502  501  0.00000000000E+00  0.00000000000E+00  0.14466563545E+04  0.14466563545E+04  0.00000000000E+00 0. -1.
         21   -1    0    0  503  502 -0.00000000000E+00 -0.00000000000E+00 -0.39196560001E+02  0.39196560001E+02  0.00000000000E+00 0. -1.
         25    1    1    2    0    0 -0.17043020846E+03 -0.14075549732E+03  0.80642509487E+03  0.84546141225E+03  0.12500000000E+03 0.  0.
         21    1    1    2  503  501  0.17043020846E+03  0.14075549732E+03  0.60103469959E+03  0.64039150220E+03  0.00000000000E+00 0. -1.
<mgrwt>
<rscale>  3 0.47625184E+03</rscale>
<asrwt>0</asrwt>
<pdfrwt beam="1">  1       21 0.22256247E+00 0.47625184E+03</pdfrwt>
<pdfrwt beam="2">  1       21 0.60302411E-02 0.47625184E+03</pdfrwt>
<totfact> 0.16401869E+04</totfact>
</mgrwt>
</event>
<event>
 4    0  0.1775285E-001  0.4674019E+03  0.7546771E-02  0.1022656E+00
         21   -1    0    0  502  501  0.00000000000E+00  0.00000000000E+00  0.32639505379E+03  0.32639505379E+03  0.00000000000E+00 0.  1.
         21   -1    0    0  503  502 -0.00000000000E+00 -0.00000000000E+00 -0.16733140048E+03  0.16733140048E+03  0.00000000000E+00 0.  1.
         25    1    1    2    0    0  0.15529232174E+03  0.13257732883E+03  0.16277571157E+03  0.28950541547E+03  0.12500000000E+03 0.  0.
         21    1    1    2  503  501 -0.15529232174E+03 -0.13257732883E+03 -0.37120582562E+01  0.20422103880E+03  0.00000000000E+00 0.  1.
<mgrwt>
<rscale>  3 0.46740193E+03</rscale>
<asrwt>0</asrwt>
<pdfrwt beam="1">  1       21 0.50214624E-01 0.46740193E+03</pdfrwt>
<pdfrwt beam="2">  1       21 0.25743292E-01 0.46740193E+03</pdfrwt>
<totfact> 0.49616731E+04</totfact>
</mgrwt>
</event>
<event>
 4    0  0.1775285E-001  0.4843967E+03  0.7546771E-02  0.1017934E+00
         21   -1    0    0  503  501  0.00000000000E+00  0.00000000000E+00  0.32847648100E+03  0.32847648100E+03  0.00000000000E+00 0.  1.
         21   -1    0    0  501  502 -0.00000000000E+00 -0.00000000000E+00 -0.17858215813E+03  0.17858215813E+03  0.00000000000E+00 0.  1.
         25    1    1    2    0    0  0.19233685138E+03  0.65524188674E+02  0.18367410172E+03  0.30107816151E+03  0.12500000000E+03 0.  0.
         21    1    1    2  503  502 -0.19233685138E+03 -0.65524188674E+02 -0.33779778851E+02  0.20598047761E+03  0.00000000000E+00 0. -1.
<mgrwt>
<rscale>  3 0.48439669E+03</rscale>
<asrwt>0</asrwt>
<pdfrwt beam="1">  1       21 0.50534843E-01 0.48439669E+03</pdfrwt>
<pdfrwt beam="2">  1       21 0.27474178E-01 0.48439669E+03</pdfrwt>
<totfact> 0.42931551E+04</totfact>
</mgrwt>
</event>
<event>
 4    0  0.1775285E-001  0.5169238E+03  0.7546771E-02  0.1009454E+00
         21   -1    0    0  502  501  0.00000000000E+00  0.00000000000E+00  0.14158946434E+04  0.14158946434E+04  0.00000000000E+00 0. -1.
         21   -1    0    0  503  502 -0.00000000000E+00 -0.00000000000E+00 -0.47180452817E+02  0.47180452817E+02  0.00000000000E+00 0. -1.
         25    1    1    2    0    0  0.14365122889E+03 -0.19497586427E+03  0.79178228311E+03  0.83737413804E+03  0.12500000000E+03 0.  0.
         21    1    1    2  503  501 -0.14365122889E+03  0.19497586427E+03  0.57693190752E+03  0.62570095822E+03  0.00000000000E+00 0. -1.
<mgrwt>
<rscale>  3 0.51692379E+03</rscale>
<asrwt>0</asrwt>
<pdfrwt beam="1">  1       21 0.21782991E+00 0.51692379E+03</pdfrwt>
<pdfrwt beam="2">  1       21 0.72585323E-02 0.51692379E+03</pdfrwt>
<totfact> 0.12538975E+04</totfact>
</mgrwt>
</event>
<event>
 4    0  0.1775285E-001  0.6399184E+03  0.7546771E-02  0.9825883E-01
         21   -1    0    0  502  501  0.00000000000E+00  0.00000000000E+00  0.44478704439E+02  0.44478704439E+02  0.00000000000E+00 0. -1.
         21   -1    0    0  503  502 -0.00000000000E+00 -0.00000000000E+00 -0.23016383716E+04  0.23016383716E+04  0.00000000000E+00 0. -1.
         25    1    1    2    0    0  0.23958550701E+03 -0.17583980528E+03 -0.14647061126E+04  0.14997699319E+04  0.12500000000E+03 0.  0.
         21    1    1    2  503  501 -0.23958550701E+03  0.17583980528E+03 -0.79245355456E+03  0.84634714416E+03  0.00000000000E+00 0. -1.
<mgrwt>
<rscale>  3 0.63991841E+03</rscale>
<asrwt>0</asrwt>
<pdfrwt beam="1">  1       21 0.68428747E-02 0.63991841E+03</pdfrwt>
<pdfrwt beam="2">  1       21 0.35409836E+00 0.63991841E+03</pdfrwt>
<totfact> 0.19230104E+03</totfact>
</mgrwt>
</event>
