<event>
 5    0  0.4115852E+000  0.3862993E+03  0.7546771E-02  0.1048630E+00
         21   -1    0    0  501  502  0.00000000000E+00  0.00000000000E+00  0.51591049408E+03  0.51591049408E+03  0.00000000000E+00 0.  1.
         -4   -1    0    0    0  501 -0.00000000000E+00 -0.00000000000E+00 -0.21483848839E+04  0.21483848839E+04  0.00000000000E+00 0.  1.
         25    1    1    2    0    0  0.38261074534E+03 -0.18720914636E+03  0.25438414119E+03  0.51163907027E+03  0.12500000000E+03 0.  0.
         21    1    1    2  503  502 -0.59945289584E+02  0.21048000174E+02  0.10786432234E+03  0.12518453614E+03  0.00000000000E+00 0.  1.
         -4    1    1    2    0  503 -0.32266545576E+03  0.16616114619E+03 -0.19947228534E+04  0.20274717716E+04  0.00000000000E+00 0.  1.
<mgrwt>
<rscale>  4 0.38629926E+03</rscale>
<asrwt>0</asrwt>
<pdfrwt beam="1">  1       21 0.79370845E-01 0.38629926E+03</pdfrwt>
<pdfrwt beam="2">  1       -4 0.33052075E+00 0.38629926E+03</pdfrwt>
<totfact> 0.12643079E+00</totfact>
</mgrwt>
</event>
<event>
 5    0  0.4115852E+000  0.2639952E+03  0.7546771E-02  0.1104766E+00
          1   -1    0    0  502    0 -0.00000000000E+00  0.00000000000E+00  0.74637800211E+03  0.74637800211E+03  0.00000000000E+00 0.  1.
         21   -1    0    0  503  502  0.00000000000E+00 -0.00000000000E+00 -0.39257149809E+03  0.39257149809E+03  0.00000000000E+00 0.  1.
         25    1    1    2    0    0  0.20622832362E+03 -0.18385664039E+03 -0.21211393588E+03  0.37006851727E+03  0.12500000000E+03 0.  0.
         21    1    1    2  503  501 -0.60474610744E+02  0.63035091139E+01 -0.70013186310E+02  0.92729493846E+02  0.00000000000E+00 0.  1.
          1    1    1    2  501    0 -0.14575371288E+03  0.17755313127E+03  0.63593362621E+03  0.67615148908E+03  0.00000000000E+00 0.  1.
<mgrwt>
<rscale>  4 0.26399519E+03</rscale>
<asrwt>0</asrwt>
<pdfrwt beam="1">  1       21 0.60395615E-01 0.26399519E+03</pdfrwt>
<pdfrwt beam="2">  1        1 0.11482738E+00 0.26399519E+03</pdfrwt>
<totfact> 0.70377579E+02</totfact>
</mgrwt>
</event>
<event>
 5    0  0.4115852E+000  0.2233381E+03  0.7546771E-02  0.1131419E+00
         21   -1    0    0  503  502  0.00000000000E+00  0.00000000000E+00  0.28864682342E+03  0.28864682342E+03  0.00000000000E+00 0.  1.
          1   -1    0    0  502    0 -0.00000000000E+00 -0.00000000000E+00 -0.55083588263E+03  0.55083588263E+03  0.00000000000E+00 0. -1.
         25    1    1    2    0    0  0.56893828318E+02  0.22249533295E+03  0.16620024206E+03  0.30982027265E+03  0.12500000000E+03 0.  0.
         21    1    1    2  503  501 -0.21551347219E+01 -0.49187564840E+02  0.14173307293E+02  0.51234205178E+02  0.00000000000E+00 0. -1.
          1    1    1    2  501    0 -0.54738693596E+02 -0.17330776811E+03 -0.44256260856E+03  0.47842822822E+03  0.00000000000E+00 0. -1.
<mgrwt>
<rscale>  4 0.22333808E+03</rscale>
<asrwt>0</asrwt>
<pdfrwt beam="1">  1       21 0.44407204E-01 0.22333808E+03</pdfrwt>
<pdfrwt beam="2">  1        1 0.84743982E-01 0.22333808E+03</pdfrwt>
<totfact> 0.21085680E+03</totfact>
</mgrwt>
</event>
<event>
 5    0  0.4115852E+000  0.1808115E+03  0.7546771E-02  0.1167020E+00
         -1   -1    0    0    0  501 -0.00000000000E+00  0.00000000000E+00  0.64501418836E+03  0.64501418836E+03  0.00000000000E+00 0.  1.
         21   -1    0    0  501  502  0.00000000000E+00 -0.00000000000E+00 -0.22623356430E+03  0.22623356430E+03  0.00000000000E+00 0.  1.
         25    1    1    2    0    0  0.14275377533E+01 -0.21367574280E+03 -0.16337109396E+02  0.24809526813E+03  0.12500000000E+03 0.  0.
         21    1    1    2  503  502  0.62539234151E+01  0.88152368869E+02 -0.63563342575E+02  0.10885885455E+03  0.00000000000E+00 0.  1.
         -1    1    1    2    0  503 -0.76814611684E+01  0.12552337393E+03  0.49868107603E+03  0.51429362998E+03  0.00000000000E+00 0.  1.
<mgrwt>
<rscale>  4 0.18081154E+03</rscale>
<asrwt>0</asrwt>
<pdfrwt beam="1">  1       21 0.34805164E-01 0.18081154E+03</pdfrwt>
<pdfrwt beam="2">  1       -1 0.99232951E-01 0.18081154E+03</pdfrwt>
<totfact> 0.76972686E+02</totfact>
</mgrwt>
</event>
<event>
 5    0  0.4115852E+000  0.4371321E+03  0.7546771E-02  0.1031630E+00
         21   -1    0    0  501  502  0.00000000000E+00  0.00000000000E+00  0.23907100825E+04  0.23907100825E+04  0.00000000000E+00 0. -1.
         -3   -1    0    0    0  501 -0.00000000000E+00 -0.00000000000E+00 -0.19555708500E+03  0.19555708500E+03  0.00000000000E+00 0. -1.
         25    1    1    2    0    0 -0.26873608094E+03 -0.28320512229E+03  0.14479439856E+04  0.15048558097E+04  0.12500000000E+03 0.  0.
         21    1    1    2  503  502 -0.25863638519E+02 -0.21847063350E+02  0.64408050157E+03  0.64496970043E+03  0.00000000000E+00 0. -1.
         -3    1    1    2    0  503  0.29459971946E+03  0.30505218565E+03  0.10312851036E+03  0.43644165741E+03  0.00000000000E+00 0. -1.
<mgrwt>
<rscale>  4 0.43713210E+03</rscale>
<asrwt>0</asrwt>
<pdfrwt beam="1">  1       21 0.36780153E+00 0.43713210E+03</pdfrwt>
<pdfrwt beam="2">  1       -3 0.30085707E-01 0.43713210E+03</pdfrwt>
<totfact> 0.59402779E+00</totfact>
</mgrwt>
</event>
<event>
 5    0  0.4115852E+000  0.2971521E+03  0.7546771E-02  0.1086673E+00
         21   -1    0    0  503  502  0.00000000000E+00  0.00000000000E+00  0.20587516344E+03  0.20587516344E+03  0.00000000000E+00 0.  1.
          2   -1    0    0  502    0 -0.00000000000E+00 -0.00000000000E+00 -0.13845245585E+04  0.13845245585E+04  0.00000000000E+00 0. -1.
         25    1    1    2    0    0  0.28349828080E+03  0.22141500488E+03 -0.20793760197E+03  0.43388814908E+03  0.12500000000E+03 0.  0.
         21    1    1    2  503  501 -0.81785994774E+02 -0.62483755036E+02  0.42433416649E+02  0.11132728072E+03  0.00000000000E+00 0.  1.
          2    1    1    2  501    0 -0.20171228602E+03 -0.15893124984E+03 -0.10131452097E+04  0.10451842921E+04  0.00000000000E+00 0. -1.
<mgrwt>
<rscale>  4 0.29715212E+03</rscale>
<asrwt>0</asrwt>
<pdfrwt beam="1">  1       21 0.31673103E-01 0.29715212E+03</pdfrwt>
<pdfrwt beam="2">  1        2 0.21300377E+00 0.29715212E+03</pdfrwt>
<totfact> 0.18473315E+03</totfact>
</mgrwt>
</event>
<event>
 5    0  0.4115852E+000  0.2573673E+03  0.7546771E-02  0.1108735E+00
         21   -1    0    0  503  502  0.00000000000E+00  0.00000000000E+00  0.33140764444E+02  0.33140764444E+02  0.00000000000E+00 0. -1.
          2   -1    0    0  502    0 -0.00000000000E+00 -0.00000000000E+00 -0.29677362914E+04  0.29677362914E+04  0.00000000000E+00 0. -1.
         25    1    1    2    0    0  0.22126946957E+03 -0.36849202330E+02 -0.23641339757E+04  0.23780396331E+04  0.12500000000E+03 0.  0.
         21    1    1    2  503  501  0.62234931419E+01  0.20967945290E+02 -0.54574497163E+02  0.58794237279E+02  0.00000000000E+00 0. -1.
          2    1    1    2  501    0 -0.22749296271E+03  0.15881257040E+02 -0.51588705411E+03  0.56404318541E+03  0.00000000000E+00 0. -1.
<mgrwt>
<rscale>  4 0.25736727E+03</rscale>
<asrwt>0</asrwt>
<pdfrwt beam="1">  1       21 0.50985783E-02 0.25736727E+03</pdfrwt>
<pdfrwt beam="2">  1        2 0.45657489E+00 0.25736727E+03</pdfrwt>
<totfact> 0.72301560E+03</totfact>
</mgrwt>
</event>
<event>
 5    0  0.4115852E+000  0.3334256E+03  0.7546771E-02  0.1069631E+00
         21   -1    0    0  503  502  0.00000000000E+00  0.00000000000E+00  0.18332381044E+03  0.18332381044E+03  0.00000000000E+00 0. -1.
          2   -1    0    0  502    0 -0.00000000000E+00 -0.00000000000E+00 -0.60242564948E+03  0.60242564948E+03  0.00000000000E+00 0. -1.
         25    1    1    2    0    0  0.94512075438E+02  0.28692842696E+03 -0.19561500251E+03  0.38098646145E+03  0.12500000000E+03 0.  0.
         21    1    1    2  503  501 -0.10503367962E+02  0.18186589738E+02 -0.13774245578E+02  0.25115784402E+02  0.00000000000E+00 0. -1.
          2    1    1    2  501    0 -0.84008707476E+02 -0.30511501670E+03 -0.20971259094E+03  0.37964721407E+03  0.00000000000E+00 0. -1.
<mgrwt>
<rscale>  4 0.33342561E+03</rscale>
<asrwt>0</asrwt>
<pdfrwt beam="1">  1       21 0.28203663E-01 0.33342561E+03</pdfrwt>
<pdfrwt beam="2">  1        2 0.92680869E-01 0.33342561E+03</pdfrwt>
<totfact> 0.73380305E+03</totfact>
</mgrwt>
</event>
<event>
 5    0  0.4115852E+000  0.2367490E+03  0.7546771E-02  0.1121978E+00
         -2   -1    0    0    0  501 -0.00000000000E+00  0.00000000000E+00  0.47301937798E+03  0.47301937798E+03  0.00000000000E+00 0.  1.
         21   -1    0    0  501  502  0.00000000000E+00 -0.00000000000E+00 -0.24172903777E+03  0.24172903777E+03  0.00000000000E+00 0.  1.
         25    1    1    2    0    0 -0.13620320377E+03  0.16898254391E+03 -0.80159401489E+02  0.26297707602E+03  0.12500000000E+03 0.  0.
         21    1    1    2  503  502  0.23056141036E+02 -0.56381545759E+01 -0.40880440631E+02  0.47271395713E+02  0.00000000000E+00 0. -1.
         -2    1    1    2    0  503  0.11314706273E+03 -0.16334438934E+03  0.35233018233E+03  0.40449994402E+03  0.00000000000E+00 0.  1.
<mgrwt>
<rscale>  4 0.23674904E+03</rscale>
<asrwt>0</asrwt>
<pdfrwt beam="1">  1       21 0.37189083E-01 0.23674904E+03</pdfrwt>
<pdfrwt beam="2">  1       -2 0.72772212E-01 0.23674904E+03</pdfrwt>
<totfact> 0.98495326E+02</totfact>
</mgrwt>
</event>
<event>
 5    0  0.4115852E+000  0.2883161E+03  0.7546771E-02  0.1091232E+00
         21   -1    0    0  503  502  0.00000000000E+00  0.00000000000E+00  0.73648538699E+02  0.73648538699E+02  0.00000000000E+00 0.  1.
          3   -1    0    0  502    0 -0.00000000000E+00 -0.00000000000E+00 -0.12462699952E+04  0.12462699952E+04  0.00000000000E+00 0.  1.
         25    1    1    2    0    0 -0.63607197822E+02  0.24548861795E+03 -0.76756849262E+03  0.81798345217E+03  0.12500000000E+03 0.  0.
         21    1    1    2  503  501  0.10697152433E+02  0.19771155664E+02 -0.14106384493E+02  0.26538985472E+02  0.00000000000E+00 0.  1.
          3    1    1    2  501    0  0.52910045390E+02 -0.26525977361E+03 -0.39094657936E+03  0.47539609623E+03  0.00000000000E+00 0.  1.
<mgrwt>
<rscale>  4 0.28831611E+03</rscale>
<asrwt>0</asrwt>
<pdfrwt beam="1">  1       21 0.11330544E-01 0.28831611E+03</pdfrwt>
<pdfrwt beam="2">  1        3 0.19173385E+00 0.28831611E+03</pdfrwt>
<totfact> 0.57419525E+02</totfact>
</mgrwt>
</event>
<event>
 5    0  0.4115852E+000  0.3237036E+03  0.7546771E-02  0.1073957E+00
          1   -1    0    0  502    0 -0.00000000000E+00  0.00000000000E+00  0.60685271248E+03  0.60685271248E+03  0.00000000000E+00 0. -1.
         21   -1    0    0  503  502  0.00000000000E+00 -0.00000000000E+00 -0.23443704588E+03  0.23443704588E+03  0.00000000000E+00 0. -1.
         25    1    1    2    0    0 -0.15772743179E+03 -0.29832728527E+03  0.21971514420E+03  0.42163592881E+03  0.12500000000E+03 0.  0.
         21    1    1    2  503  501  0.13814212232E+03  0.24349508515E+03  0.27157713127E+02  0.28126614413E+03  0.00000000000E+00 0. -1.
          1    1    1    2  501    0  0.19585309469E+02  0.54832200120E+02  0.12554280927E+03  0.13838768542E+03  0.00000000000E+00 0. -1.
<mgrwt>
<rscale>  4 0.32370364E+03</rscale>
<asrwt>0</asrwt>
<pdfrwt beam="1">  1       21 0.36067238E-01 0.32370364E+03</pdfrwt>
<pdfrwt beam="2">  1        1 0.93361955E-01 0.32370364E+03</pdfrwt>
<totfact> 0.27314540E+03</totfact>
</mgrwt>
</event>
<event>
 5    0  0.4115852E+000  0.3143901E+03  0.7546771E-02  0.1078260E+00
         21   -1    0    0  503  502  0.00000000000E+00  0.00000000000E+00  0.43276917122E+03  0.43276917122E+03  0.00000000000E+00 0. -1.
          2   -1    0    0  502    0 -0.00000000000E+00 -0.00000000000E+00 -0.10908824900E+04  0.10908824900E+04  0.00000000000E+00 0. -1.
         25    1    1    2    0    0  0.23220123209E+03 -0.13584293903E+03  0.12926872704E+02  0.29692224623E+03  0.12500000000E+03 0.  0.
         21    1    1    2  503  501  0.18154701039E+02 -0.13042080314E+02  0.25499028336E+03  0.25596822779E+03  0.00000000000E+00 0. -1.
          2    1    1    2  501    0 -0.25035593312E+03  0.14888501934E+03 -0.92603047483E+03  0.97076118719E+03  0.00000000000E+00 0. -1.
<mgrwt>
<rscale>  4 0.31439009E+03</rscale>
<asrwt>0</asrwt>
<pdfrwt beam="1">  1       21 0.66579874E-01 0.31439009E+03</pdfrwt>
<pdfrwt beam="2">  1        2 0.16782807E+00 0.31439009E+03</pdfrwt>
<totfact> 0.57151413E+02</totfact>
</mgrwt>
</event>
<event>
 5    0  0.4115852E+000  0.2456848E+03  0.7546771E-02  0.1116063E+00
         21   -1    0    0  503  502  0.00000000000E+00  0.00000000000E+00  0.14936074602E+03  0.14936074602E+03  0.00000000000E+00 0.  1.
          2   -1    0    0  502    0 -0.00000000000E+00 -0.00000000000E+00 -0.12539992158E+04  0.12539992158E+04  0.00000000000E+00 0.  1.
         25    1    1    2    0    0  0.15521106473E+03 -0.15075714922E+03  0.85120309608E+01  0.25003129270E+03  0.12500000000E+03 0.  0.
         21    1    1    2  503  501 -0.30816878137E+02 -0.20114537694E+02 -0.24171636768E+02  0.44028884028E+02  0.00000000000E+00 0. -1.
          2    1    1    2  501    0 -0.12439418660E+03  0.17087168691E+03 -0.10889788640E+04  0.11092997851E+04  0.00000000000E+00 0.  1.
<mgrwt>
<rscale>  4 0.24568479E+03</rscale>
<asrwt>0</asrwt>
<pdfrwt beam="1">  1       21 0.22978577E-01 0.24568479E+03</pdfrwt>
<pdfrwt beam="2">  1        2 0.19292295E+00 0.24568479E+03</pdfrwt>
<totfact> 0.41452945E+03</totfact>
</mgrwt>
</event>
<event>
 5    0  0.4115852E+000  0.3756331E+03  0.7546771E-02  0.1052560E+00
         -3   -1    0    0    0  501 -0.00000000000E+00  0.00000000000E+00  0.12932131672E+04  0.12932131672E+04  0.00000000000E+00 0.  1.
         21   -1    0    0  501  502  0.00000000000E+00 -0.00000000000E+00 -0.14783816623E+04  0.14783816623E+04  0.00000000000E+00 0. -1.
         25    1    1    2    0    0  0.11991919739E+03  0.37800623113E+03 -0.12407957932E+04  0.13086132068E+04  0.12500000000E+03 0.  0.
         21    1    1    2  503  502  0.58215456481E+01 -0.47720552866E+02 -0.17558693605E+03  0.18204920673E+03  0.00000000000E+00 0. -1.
         -3    1    1    2    0  503 -0.12574074304E+03 -0.33028567827E+03  0.12312142342E+04  0.12809324159E+04  0.00000000000E+00 0.  1.
<mgrwt>
<rscale>  4 0.37563306E+03</rscale>
<asrwt>0</asrwt>
<pdfrwt beam="1">  1       21 0.22744333E+00 0.37563306E+03</pdfrwt>
<pdfrwt beam="2">  1       -3 0.19895587E+00 0.37563306E+03</pdfrwt>
<totfact> 0.62394237E-01</totfact>
</mgrwt>
</event>
<event>
 5    0  0.4115852E+000  0.2186579E+03  0.7546771E-02  0.1134888E+00
         21   -1    0    0  503  502  0.00000000000E+00  0.00000000000E+00  0.16651352282E+02  0.16651352282E+02  0.00000000000E+00 0.  1.
          2   -1    0    0  502    0 -0.00000000000E+00 -0.00000000000E+00 -0.37475701768E+04  0.37475701768E+04  0.00000000000E+00 0. -1.
         25    1    1    2    0    0 -0.20571285745E+03  0.41765486890E+02 -0.22682763567E+04  0.22813953551E+04  0.12500000000E+03 0.  0.
         21    1    1    2  503  501  0.16438895683E+03 -0.40595361367E+02 -0.74528019244E+03  0.76427369295E+03  0.00000000000E+00 0.  1.
          2    1    1    2  501    0  0.41323900618E+02 -0.11701255223E+01 -0.71736227531E+03  0.71855248103E+03  0.00000000000E+00 0. -1.
<mgrwt>
<rscale>  4 0.21865790E+03</rscale>
<asrwt>0</asrwt>
<pdfrwt beam="1">  1       21 0.25617451E-02 0.21865790E+03</pdfrwt>
<pdfrwt beam="2">  1        2 0.57654957E+00 0.21865790E+03</pdfrwt>
<totfact> 0.74075016E+03</totfact>
</mgrwt>
</event>
<event>
 5    0  0.4115852E+000  0.2428746E+03  0.7546771E-02  0.1117893E+00
         21   -1    0    0  503  502  0.00000000000E+00  0.00000000000E+00  0.15579721216E+03  0.15579721216E+03  0.00000000000E+00 0.  1.
          2   -1    0    0  502    0 -0.00000000000E+00 -0.00000000000E+00 -0.51512658426E+03  0.51512658426E+03  0.00000000000E+00 0.  1.
         25    1    1    2    0    0 -0.10077839227E+03 -0.20526780793E+03 -0.40852296083E+02  0.26378981674E+03  0.12500000000E+03 0.  0.
         21    1    1    2  503  501  0.13102862983E+02  0.22314476538E+02  0.39634928701E+01  0.26178811227E+02  0.00000000000E+00 0. -1.
          2    1    1    2  501    0  0.87675529282E+02  0.18295333139E+03 -0.32244056889E+03  0.38095516845E+03  0.00000000000E+00 0.  1.
<mgrwt>
<rscale>  4 0.24287459E+03</rscale>
<asrwt>0</asrwt>
<pdfrwt beam="1">  1       21 0.23968802E-01 0.24287459E+03</pdfrwt>
<pdfrwt beam="2">  1        2 0.79250243E-01 0.24287459E+03</pdfrwt>
<totfact> 0.12245609E+04</totfact>
</mgrwt>
</event>
<event>
 5    0  0.4115852E+000  0.2788085E+03  0.7546771E-02  0.1096342E+00
          1   -1    0    0  502    0 -0.00000000000E+00  0.00000000000E+00  0.15372568091E+03  0.15372568091E+03  0.00000000000E+00 0. -1.
         21   -1    0    0  503  502  0.00000000000E+00 -0.00000000000E+00 -0.70052967397E+03  0.70052967397E+03  0.00000000000E+00 0.  1.
         25    1    1    2    0    0 -0.19468218777E+03 -0.17743786418E+03 -0.38504876541E+03  0.48298333473E+03  0.12500000000E+03 0.  0.
         21    1    1    2  503  501 -0.10876135047E+02  0.43770462010E+02 -0.11246382689E+03  0.12117035948E+03  0.00000000000E+00 0.  1.
          1    1    1    2  501    0  0.20555832282E+03  0.13366740217E+03 -0.49291400766E+02  0.25010166067E+03  0.00000000000E+00 0. -1.
<mgrwt>
<rscale>  4 0.27880847E+03</rscale>
<asrwt>0</asrwt>
<pdfrwt beam="1">  1       21 0.10777380E+00 0.27880847E+03</pdfrwt>
<pdfrwt beam="2">  1        1 0.23650104E-01 0.27880847E+03</pdfrwt>
<totfact> 0.14713741E+03</totfact>
</mgrwt>
</event>
<event>
 5    0  0.4115852E+000  0.3339652E+03  0.7546771E-02  0.1069396E+00
         -2   -1    0    0    0  501 -0.00000000000E+00  0.00000000000E+00  0.59546475525E+03  0.59546475525E+03  0.00000000000E+00 0.  1.
         21   -1    0    0  501  502  0.00000000000E+00 -0.00000000000E+00 -0.44032694219E+03  0.44032694219E+03  0.00000000000E+00 0.  1.
         25    1    1    2    0    0 -0.14457084174E+03  0.24015710491E+03 -0.15208957424E+03  0.34253817585E+03  0.12500000000E+03 0.  0.
         21    1    1    2  503  502 -0.36918040093E+01  0.38568221073E+02 -0.14031392556E+03  0.14556488176E+03  0.00000000000E+00 0.  1.
         -2    1    1    2    0  503  0.14826264575E+03 -0.27872532599E+03  0.44754131287E+03  0.54768863983E+03  0.00000000000E+00 0.  1.
<mgrwt>
<rscale>  4 0.33396517E+03</rscale>
<asrwt>0</asrwt>
<pdfrwt beam="1">  1       21 0.67742606E-01 0.33396517E+03</pdfrwt>
<pdfrwt beam="2">  1       -2 0.91609963E-01 0.33396517E+03</pdfrwt>
<totfact> 0.16161575E+02</totfact>
</mgrwt>
</event>
<event>
 5    0  0.4115852E+000  0.2207499E+03  0.7546771E-02  0.1133325E+00
         21   -1    0    0  503  502  0.00000000000E+00  0.00000000000E+00  0.83846822000E+03  0.83846822000E+03  0.00000000000E+00 0.  1.
          3   -1    0    0  502    0 -0.00000000000E+00 -0.00000000000E+00 -0.43979345785E+03  0.43979345785E+03  0.00000000000E+00 0. -1.
         25    1    1    2    0    0  0.17983450145E+03  0.88728244372E+02  0.12248057275E+03  0.26615717155E+03  0.12500000000E+03 0.  0.
         21    1    1    2  503  501 -0.18684057848E+02 -0.88825140797E+01  0.62199104228E+03  0.62233499802E+03  0.00000000000E+00 0.  1.
          3    1    1    2  501    0 -0.16115044361E+03 -0.79845730292E+02 -0.34579685289E+03  0.38976950829E+03  0.00000000000E+00 0. -1.
<mgrwt>
<rscale>  4 0.22074986E+03</rscale>
<asrwt>0</asrwt>
<pdfrwt beam="1">  1       21 0.12899511E+00 0.22074986E+03</pdfrwt>
<pdfrwt beam="2">  1        3 0.67660532E-01 0.22074986E+03</pdfrwt>
<totfact> 0.45956795E+01</totfact>
</mgrwt>
</event>
<event>
 5    0  0.4115852E+000  0.1812994E+03  0.7546771E-02  0.1166551E+00
          1   -1    0    0  502    0 -0.00000000000E+00  0.00000000000E+00  0.21454926727E+04  0.21454926727E+04  0.00000000000E+00 0.  1.
         21   -1    0    0  503  502  0.00000000000E+00 -0.00000000000E+00 -0.39989542211E+03  0.39989542211E+03  0.00000000000E+00 0.  1.
         25    1    1    2    0    0  0.28245173742E+02  0.20601976627E+03  0.92138163073E+02  0.25953106756E+03  0.12500000000E+03 0.  0.
         21    1    1    2  503  501 -0.28191076499E+02 -0.76606210087E+02 -0.30876350296E+03  0.31937149055E+03  0.00000000000E+00 0.  1.
          1    1    1    2  501    0 -0.54097242558E-01 -0.12941355619E+03  0.19622225905E+04  0.19664855367E+04  0.00000000000E+00 0.  1.
<mgrwt>
<rscale>  4 0.18129938E+03</rscale>
<asrwt>0</asrwt>
<pdfrwt beam="1">  1       21 0.61522374E-01 0.18129938E+03</pdfrwt>
<pdfrwt beam="2">  1        1 0.33007579E+00 0.18129938E+03</pdfrwt>
<totfact> 0.77327167E+01</totfact>
</mgrwt>
</event>
<event>
 5    0  0.4115852E+000  0.2685370E+03  0.7546771E-02  0.1102120E+00
         21   -1    0    0  503  502  0.00000000000E+00  0.00000000000E+00  0.89779260461E+02  0.89779260461E+02  0.00000000000E+00 0.  1.
          2   -1    0    0  502    0 -0.00000000000E+00 -0.00000000000E+00 -0.42359534758E+04  0.42359534758E+04  0.00000000000E+00 0.  1.
         25    1    1    2    0    0 -0.23794363113E+03  0.64897108944E+02 -0.32831982081E+03  0.42924085440E+03  0.12500000000E+03 0.  0.
         21    1    1    2  503  501  0.23737896763E+03  0.66730791201E+02 -0.36125127568E+03  0.43738342097E+03  0.00000000000E+00 0.  1.
          2    1    1    2  501    0  0.56466350872E+00 -0.13162790015E+03 -0.34566031188E+04  0.34591084609E+04  0.00000000000E+00 0.  1.
<mgrwt>
<rscale>  4 0.26853698E+03</rscale>
<asrwt>0</asrwt>
<pdfrwt beam="1">  1       21 0.13812193E-01 0.26853698E+03</pdfrwt>
<pdfrwt beam="2">  1        2 0.65168520E+00 0.26853698E+03</pdfrwt>
<totfact> 0.16573890E+02</totfact>
</mgrwt>
</event>
<event>
 5    0  0.4115852E+000  0.3392669E+03  0.7546771E-02  0.1067109E+00
         -2   -1    0    0    0  501 -0.00000000000E+00  0.00000000000E+00  0.14038731373E+04  0.14038731373E+04  0.00000000000E+00 0.  1.
         21   -1    0    0  501  502  0.00000000000E+00 -0.00000000000E+00 -0.15916464620E+03  0.15916464620E+03  0.00000000000E+00 0. -1.
         25    1    1    2    0    0  0.10700542335E+03 -0.31596006076E+03  0.67688334063E+03  0.76490324711E+03  0.12500000000E+03 0.  0.
         21    1    1    2  503  502 -0.43209047509E+02  0.20438831702E+02 -0.74328383512E+02  0.88371240930E+02  0.00000000000E+00 0. -1.
         -2    1    1    2    0  503 -0.63796375837E+02  0.29552122906E+03  0.64215353403E+03  0.70976329551E+03  0.00000000000E+00 0.  1.
<mgrwt>
<rscale>  4 0.33926688E+03</rscale>
<asrwt>0</asrwt>
<pdfrwt beam="1">  1       21 0.24486870E-01 0.33926688E+03</pdfrwt>
<pdfrwt beam="2">  1       -2 0.21598047E+00 0.33926688E+03</pdfrwt>
<totfact> 0.14196284E+02</totfact>
</mgrwt>
</event>
<event>
 5    0  0.4115852E+000  0.2471738E+03  0.7546771E-02  0.1115104E+00
          1   -1    0    0  502    0 -0.00000000000E+00  0.00000000000E+00  0.93633877048E+03  0.93633877048E+03  0.00000000000E+00 0. -1.
         21   -1    0    0  503  502  0.00000000000E+00 -0.00000000000E+00 -0.10478548533E+03  0.10478548533E+03  0.00000000000E+00 0. -1.
         25    1    1    2    0    0  0.23959523952E+03 -0.35417083616E+01  0.22632432460E+03  0.35251400313E+03  0.12500000000E+03 0.  0.
         21    1    1    2  503  501 -0.34099686598E+02 -0.15156981590E+02 -0.10876079588E+02  0.38869162896E+02  0.00000000000E+00 0. -1.
          1    1    1    2  501    0 -0.20549555292E+03  0.18698689952E+02  0.61610504013E+03  0.64974108978E+03  0.00000000000E+00 0. -1.
<mgrwt>
<rscale>  4 0.24717382E+03</rscale>
<asrwt>0</asrwt>
<pdfrwt beam="1">  1       21 0.16120844E-01 0.24717382E+03</pdfrwt>
<pdfrwt beam="2">  1        1 0.14405211E+00 0.24717382E+03</pdfrwt>
<totfact> 0.67874005E+03</totfact>
</mgrwt>
</event>
<event>
 5    0  0.4115852E+000  0.2198655E+03  0.7546771E-02  0.1133983E+00
          2   -1    0    0  502    0 -0.00000000000E+00  0.00000000000E+00  0.95010937380E+03  0.95010937380E+03  0.00000000000E+00 0. -1.
         21   -1    0    0  503  502  0.00000000000E+00 -0.00000000000E+00 -0.25973390305E+03  0.25973390305E+03  0.00000000000E+00 0. -1.
         25    1    1    2    0    0  0.18716076717E+03  0.83320334315E+02 -0.10489861614E+03  0.26191630447E+03  0.12500000000E+03 0.  0.
         21    1    1    2  503  501 -0.33360927532E+02  0.96837067066E+01 -0.62510720531E+02  0.71514444993E+02  0.00000000000E+00 0. -1.
          2    1    1    2  501    0 -0.15379983964E+03 -0.93004041022E+02  0.85778480742E+03  0.87641252738E+03  0.00000000000E+00 0. -1.
<mgrwt>
<rscale>  4 0.21986551E+03</rscale>
<asrwt>0</asrwt>
<pdfrwt beam="1">  1       21 0.39959062E-01 0.21986551E+03</pdfrwt>
<pdfrwt beam="2">  1        2 0.14617067E+00 0.21986551E+03</pdfrwt>
<totfact> 0.21348374E+03</totfact>
</mgrwt>
</event>
<event>
 5    0  0.4115852E+000  0.2995874E+03  0.7546771E-02  0.1085447E+00
         21   -1    0    0  503  502  0.00000000000E+00  0.00000000000E+00  0.79922076055E+02  0.79922076055E+02  0.00000000000E+00 0. -1.
          1   -1    0    0  502    0 -0.00000000000E+00 -0.00000000000E+00 -0.14642750637E+04  0.14642750637E+04  0.00000000000E+00 0.  1.
         25    1    1    2    0    0  0.29134306713E+03 -0.19527024756E+02 -0.39118884457E+03  0.50390058501E+03  0.12500000000E+03 0.  0.
         21    1    1    2  503  501 -0.26074129780E+02 -0.17966411230E-01 -0.24506379973E+02  0.35783001914E+02  0.00000000000E+00 0.  1.
          1    1    1    2  501    0 -0.26526893735E+03  0.19544991168E+02 -0.96865776309E+03  0.10045135528E+04  0.00000000000E+00 0.  1.
<mgrwt>
<rscale>  4 0.29958742E+03</rscale>
<asrwt>0</asrwt>
<pdfrwt beam="1">  1       21 0.12295706E-01 0.29958742E+03</pdfrwt>
<pdfrwt beam="2">  1        1 0.22527305E+00 0.29958742E+03</pdfrwt>
<totfact> 0.46406987E+03</totfact>
</mgrwt>
</event>
<event>
 5    0  0.4115852E+000  0.3712308E+03  0.7546771E-02  0.1054223E+00
         -3   -1    0    0    0  501 -0.00000000000E+00  0.00000000000E+00  0.24076652666E+04  0.24076652666E+04  0.00000000000E+00 0. -1.
         21   -1    0    0  501  502  0.00000000000E+00 -0.00000000000E+00 -0.14577722430E+03  0.14577722430E+03  0.00000000000E+00 0. -1.
         25    1    1    2    0    0 -0.36614167178E+03 -0.29651943884E+02  0.69892442966E+03  0.79941185878E+03  0.12500000000E+03 0.  0.
         21    1    1    2  503  502  0.24553882145E+02 -0.43205665945E+01 -0.75750961575E+02  0.79748157368E+02  0.00000000000E+00 0. -1.
         -3    1    1    2    0  503  0.34158778963E+03  0.33972510479E+02  0.16387145742E+04  0.16742824748E+04  0.00000000000E+00 0. -1.
<mgrwt>
<rscale>  4 0.37123085E+03</rscale>
<asrwt>0</asrwt>
<pdfrwt beam="1">  1       21 0.22427267E-01 0.37123085E+03</pdfrwt>
<pdfrwt beam="2">  1       -3 0.37041001E+00 0.37123085E+03</pdfrwt>
<totfact> 0.15909684E+01</totfact>
</mgrwt>
</event>
<event>
 5    0  0.4869769E+000  0.2770146E+03  0.7546771E-02  0.1097331E+00
          2   -1    0    0  502    0 -0.00000000000E+00  0.00000000000E+00  0.12559627397E+04  0.12559627397E+04  0.00000000000E+00 0.  1.
         21   -1    0    0  503  502  0.00000000000E+00 -0.00000000000E+00 -0.15523326783E+03  0.15523326783E+03  0.00000000000E+00 0. -1.
         25    1    1    2    0    0 -0.24412351241E+03 -0.40320346634E+02  0.24785170209E+01  0.27722402982E+03  0.12500000000E+03 0.  0.
         21    1    1    2  503  501  0.62046223110E+01 -0.24822419130E+02  0.41025456800E+02  0.48350159619E+02  0.00000000000E+00 0.  1.
          2    1    1    2  501    0  0.23791889010E+03  0.65142765764E+02  0.10572254980E+04  0.10856218181E+04  0.00000000000E+00 0.  1.
<mgrwt>
<rscale>  4 0.27701461E+03</rscale>
<asrwt>0</asrwt>
<pdfrwt beam="1">  1       21 0.23882042E-01 0.27701461E+03</pdfrwt>
<pdfrwt beam="2">  1        2 0.19322503E+00 0.27701461E+03</pdfrwt>
<totfact> 0.37996556E+03</totfact>
</mgrwt>
</event>
<event>
 5    0  0.4115852E+000  0.4778523E+03  0.7546771E-02  0.1019727E+00
         21   -1    0    0  503  502  0.00000000000E+00  0.00000000000E+00  0.27909719563E+03  0.27909719563E+03  0.00000000000E+00 0. -1.
          2   -1    0    0  502    0 -0.00000000000E+00 -0.00000000000E+00 -0.28166971200E+04  0.28166971200E+04  0.00000000000E+00 0. -1.
         25    1    1    2    0    0  0.53560078512E+02 -0.51537752513E+03 -0.93488755495E+03  0.10761609618E+04  0.12500000000E+03 0.  0.
         21    1    1    2  503  501 -0.47524797358E+02  0.75336071861E+02  0.17064055639E+03  0.19248981680E+03  0.00000000000E+00 0. -1.
          2    1    1    2  501    0 -0.60352811536E+01  0.44004145326E+03 -0.17733529258E+04  0.18271435369E+04  0.00000000000E+00 0. -1.
<mgrwt>
<rscale>  4 0.47785226E+03</rscale>
<asrwt>0</asrwt>
<pdfrwt beam="1">  1       21 0.42938031E-01 0.47785226E+03</pdfrwt>
<pdfrwt beam="2">  1        2 0.43333801E+00 0.47785226E+03</pdfrwt>
<totfact> 0.15375777E+02</totfact>
</mgrwt>
</event>
<event>
 5    0  0.4115852E+000  0.2943303E+03  0.7546771E-02  0.1088110E+00
         21   -1    0    0  503  502  0.00000000000E+00  0.00000000000E+00  0.22706672171E+03  0.22706672171E+03  0.00000000000E+00 0. -1.
          1   -1    0    0  502    0 -0.00000000000E+00 -0.00000000000E+00 -0.10610882898E+04  0.10610882898E+04  0.00000000000E+00 0.  1.
         25    1    1    2    0    0  0.11320777489E+03 -0.27186673919E+03  0.36463953707E+02  0.32199711815E+03  0.12500000000E+03 0.  0.
         21    1    1    2  503  501 -0.15461208520E+02  0.27180008947E+02  0.20259525541E+02  0.37259230137E+02  0.00000000000E+00 0. -1.
          1    1    1    2  501    0 -0.97746566374E+02  0.24468673024E+03 -0.89074504731E+03  0.92889866320E+03  0.00000000000E+00 0.  1.
<mgrwt>
<rscale>  4 0.29433034E+03</rscale>
<asrwt>0</asrwt>
<pdfrwt beam="1">  1       21 0.34933342E-01 0.29433034E+03</pdfrwt>
<pdfrwt beam="2">  1        1 0.16324435E+00 0.29433034E+03</pdfrwt>
<totfact> 0.12226013E+03</totfact>
</mgrwt>
</event>
<event>
 5    0  0.4115852E+000  0.2538354E+03  0.7546771E-02  0.1110905E+00
         21   -1    0    0  503  502  0.00000000000E+00  0.00000000000E+00  0.51313859715E+02  0.51313859715E+02  0.00000000000E+00 0.  1.
          1   -1    0    0  502    0 -0.00000000000E+00 -0.00000000000E+00 -0.20316404310E+04  0.20316404310E+04  0.00000000000E+00 0.  1.
         25    1    1    2    0    0 -0.45061635454E+02 -0.21376434310E+03 -0.13751567046E+04  0.13980009684E+04  0.12500000000E+03 0.  0.
         21    1    1    2  503  501  0.21727095830E+02 -0.11042225162E+02  0.12385512309E+02  0.27338587105E+02  0.00000000000E+00 0.  1.
          1    1    1    2  501    0  0.23334539625E+02  0.22480656826E+03 -0.61755537900E+03  0.65761473524E+03  0.00000000000E+00 0.  1.
<mgrwt>
<rscale>  4 0.25383541E+03</rscale>
<asrwt>0</asrwt>
<pdfrwt beam="1">  1       21 0.78944399E-02 0.25383541E+03</pdfrwt>
<pdfrwt beam="2">  1        1 0.31256007E+00 0.25383541E+03</pdfrwt>
<totfact> 0.44081680E+03</totfact>
</mgrwt>
</event>
<event>
 5    0  0.4115852E+000  0.3199404E+03  0.7546771E-02  0.1075677E+00
         21   -1    0    0  503  502  0.00000000000E+00  0.00000000000E+00  0.11476009798E+03  0.11476009798E+03  0.00000000000E+00 0. -1.
          2   -1    0    0  502    0 -0.00000000000E+00 -0.00000000000E+00 -0.30517347915E+04  0.30517347915E+04  0.00000000000E+00 0. -1.
         25    1    1    2    0    0 -0.63316190243E+02  0.30387049033E+03 -0.88561236825E+03  0.94672091011E+03  0.12500000000E+03 0.  0.
         21    1    1    2  503  501  0.84107293385E+01 -0.19709017390E+02  0.72850002307E+02  0.75936213828E+02  0.00000000000E+00 0. -1.
          2    1    1    2  501    0  0.54905460905E+02 -0.28416147294E+03 -0.21242123276E+04  0.21438377655E+04  0.00000000000E+00 0. -1.
<mgrwt>
<rscale>  4 0.31994038E+03</rscale>
<asrwt>0</asrwt>
<pdfrwt beam="1">  1       21 0.17655400E-01 0.31994038E+03</pdfrwt>
<pdfrwt beam="2">  1        2 0.46949764E+00 0.31994038E+03</pdfrwt>
<totfact> 0.68592082E+02</totfact>
</mgrwt>
</event>
<event>
 5    0  0.4115852E+000  0.4910060E+03  0.7546771E-02  0.1016153E+00
          2   -1    0    0  502    0 -0.00000000000E+00  0.00000000000E+00  0.20051626741E+04  0.20051626741E+04  0.00000000000E+00 0.  1.
         21   -1    0    0  503  502  0.00000000000E+00 -0.00000000000E+00 -0.15130284300E+03  0.15130284300E+03  0.00000000000E+00 0. -1.
         25    1    1    2    0    0  0.38260655870E+03  0.18530381436E+03  0.60520989941E+03  0.75008619819E+03  0.12500000000E+03 0.  0.
         21    1    1    2  503  501  0.79908071934E+02  0.30286111594E+02  0.39863171631E+02  0.94295392083E+02  0.00000000000E+00 0.  1.
          2    1    1    2  501    0 -0.46251463063E+03 -0.21558992595E+03  0.12087867600E+04  0.13120839268E+04  0.00000000000E+00 0.  1.
<mgrwt>
<rscale>  4 0.49100603E+03</rscale>
<asrwt>0</asrwt>
<pdfrwt beam="1">  1       21 0.23277362E-01 0.49100603E+03</pdfrwt>
<pdfrwt beam="2">  1        2 0.30848655E+00 0.49100603E+03</pdfrwt>
<totfact> 0.14767907E+03</totfact>
</mgrwt>
</event>
<event>
 5    0  0.4115852E+000  0.2107288E+03  0.7546771E-02  0.1140990E+00
          2   -1    0    0  502    0 -0.00000000000E+00  0.00000000000E+00  0.27461278612E+04  0.27461278612E+04  0.00000000000E+00 0. -1.
         21   -1    0    0  503  502  0.00000000000E+00 -0.00000000000E+00 -0.76205262716E+02  0.76205262716E+02  0.00000000000E+00 0.  1.
         25    1    1    2    0    0 -0.21043587708E+03  0.84455611151E+01  0.16165816103E+03  0.29345007564E+03  0.12500000000E+03 0.  0.
         21    1    1    2  503  501  0.42809016873E+02 -0.18055144485E+02  0.65224240334E+02  0.80079970624E+02  0.00000000000E+00 0.  1.
          2    1    1    2  501    0  0.16762686021E+03  0.96095833697E+01  0.24430401971E+04  0.24488030777E+04  0.00000000000E+00 0. -1.
<mgrwt>
<rscale>  4 0.21072882E+03</rscale>
<asrwt>0</asrwt>
<pdfrwt beam="1">  1       21 0.11723889E-01 0.21072882E+03</pdfrwt>
<pdfrwt beam="2">  1        2 0.42248113E+00 0.21072882E+03</pdfrwt>
<totfact> 0.23209249E+03</totfact>
</mgrwt>
</event>
<event>
 5    0  0.4115852E+000  0.2690105E+03  0.7546771E-02  0.1101847E+00
          2   -1    0    0  502    0 -0.00000000000E+00  0.00000000000E+00  0.63904844436E+03  0.63904844436E+03  0.00000000000E+00 0.  1.
         21   -1    0    0  503  502  0.00000000000E+00 -0.00000000000E+00 -0.20276583963E+03  0.20276583963E+03  0.00000000000E+00 0.  1.
         25    1    1    2    0    0  0.14666652018E+03 -0.17467181837E+03  0.86164041872E+02  0.27399006257E+03  0.12500000000E+03 0.  0.
         21    1    1    2  503  501 -0.47383641733E+02 -0.48451144560E+02 -0.59991182775E+02  0.90507816921E+02  0.00000000000E+00 0. -1.
          2    1    1    2  501    0 -0.99282878448E+02  0.22312296293E+03  0.41010974563E+03  0.47731640450E+03  0.00000000000E+00 0.  1.
<mgrwt>
<rscale>  4 0.26901052E+03</rscale>
<asrwt>0</asrwt>
<pdfrwt beam="1">  1       21 0.31194745E-01 0.26901052E+03</pdfrwt>
<pdfrwt beam="2">  1        2 0.98315144E-01 0.26901052E+03</pdfrwt>
<totfact> 0.56908104E+03</totfact>
</mgrwt>
</event>
<event>
 5    0  0.4115852E+000  0.2625794E+03  0.7546771E-02  0.1105603E+00
          1   -1    0    0  502    0 -0.00000000000E+00  0.00000000000E+00  0.29551641002E+04  0.29551641002E+04  0.00000000000E+00 0. -1.
         21   -1    0    0  503  502  0.00000000000E+00 -0.00000000000E+00 -0.45220200739E+02  0.45220200739E+02  0.00000000000E+00 0. -1.
         25    1    1    2    0    0 -0.15382999621E+03  0.16995191755E+03  0.87491734218E+03  0.91304582451E+03  0.12500000000E+03 0.  0.
         21    1    1    2  503  501  0.19665908718E+02  0.19211847306E+02 -0.99621245055E+01  0.29241870106E+02  0.00000000000E+00 0. -1.
          1    1    1    2  501    0  0.13416408749E+03 -0.18916376486E+03  0.20449886818E+04  0.20580966063E+04  0.00000000000E+00 0. -1.
<mgrwt>
<rscale>  4 0.26257937E+03</rscale>
<asrwt>0</asrwt>
<pdfrwt beam="1">  1       21 0.69569563E-02 0.26257937E+03</pdfrwt>
<pdfrwt beam="2">  1        1 0.45464048E+00 0.26257937E+03</pdfrwt>
<totfact> 0.13259810E+03</totfact>
</mgrwt>
</event>
<event>
 5    0  0.4115852E+000  0.2232065E+03  0.7546771E-02  0.1131515E+00
         21   -1    0    0  503  502  0.00000000000E+00  0.00000000000E+00  0.26412675072E+03  0.26412675072E+03  0.00000000000E+00 0. -1.
          2   -1    0    0  502    0 -0.00000000000E+00 -0.00000000000E+00 -0.12614225662E+04  0.12614225662E+04  0.00000000000E+00 0.  1.
         25    1    1    2    0    0  0.18448154872E+03  0.13892435707E+03 -0.47666188302E+03  0.54421040925E+03  0.12500000000E+03 0.  0.
         21    1    1    2  503  501 -0.30863248693E+02 -0.61229962383E+02  0.21508389039E+03  0.22574925984E+03  0.00000000000E+00 0. -1.
          2    1    1    2  501    0 -0.15361830003E+03 -0.77694394689E+02 -0.73571782282E+03  0.75558964781E+03  0.00000000000E+00 0.  1.
<mgrwt>
<rscale>  4 0.22320655E+03</rscale>
<asrwt>0</asrwt>
<pdfrwt beam="1">  1       21 0.40634885E-01 0.22320655E+03</pdfrwt>
<pdfrwt beam="2">  1        2 0.19406501E+00 0.22320655E+03</pdfrwt>
<totfact> 0.13536903E+03</totfact>
</mgrwt>
</event>
<event>
 5    0  0.4115852E+000  0.4024866E+03  0.7546771E-02  0.1042922E+00
          2   -1    0    0  502    0 -0.00000000000E+00  0.00000000000E+00  0.19876830676E+04  0.19876830676E+04  0.00000000000E+00 0. -1.
         21   -1    0    0  503  502  0.00000000000E+00 -0.00000000000E+00 -0.35802525059E+03  0.35802525059E+03  0.00000000000E+00 0. -1.
         25    1    1    2    0    0 -0.11423480473E+03 -0.37904271281E+03 -0.18289781420E+03  0.45365138507E+03  0.12500000000E+03 0.  0.
         21    1    1    2  503  501  0.82507681258E+02  0.15443689108E+03  0.20951684089E+03  0.27304867224E+03  0.00000000000E+00 0. -1.
          2    1    1    2  501    0  0.31727123467E+02  0.22460582173E+03  0.16030387903E+04  0.16190082609E+04  0.00000000000E+00 0. -1.
<mgrwt>
<rscale>  4 0.40248661E+03</rscale>
<asrwt>0</asrwt>
<pdfrwt beam="1">  1       21 0.55080809E-01 0.40248661E+03</pdfrwt>
<pdfrwt beam="2">  1        2 0.30579739E+00 0.40248661E+03</pdfrwt>
<totfact> 0.26907195E+02</totfact>
</mgrwt>
</event>
<event>
 5    0  0.4115852E+000  0.3591033E+03  0.7546771E-02  0.1058939E+00
          1   -1    0    0  502    0 -0.00000000000E+00  0.00000000000E+00  0.76287181998E+03  0.76287181998E+03  0.00000000000E+00 0.  1.
         21   -1    0    0  503  502  0.00000000000E+00 -0.00000000000E+00 -0.75792857071E+03  0.75792857071E+03  0.00000000000E+00 0. -1.
         25    1    1    2    0    0  0.44403289314E+03  0.22566646034E+03 -0.11222123255E+03  0.52565118334E+03  0.12500000000E+03 0.  0.
         21    1    1    2  503  501 -0.18089121287E+03 -0.55015188499E+02 -0.37014318894E+03  0.41563720019E+03  0.00000000000E+00 0. -1.
          1    1    1    2  501    0 -0.26314168027E+03 -0.17065127184E+03  0.48730767075E+03  0.57951200717E+03  0.00000000000E+00 0.  1.
<mgrwt>
<rscale>  4 0.35910331E+03</rscale>
<asrwt>0</asrwt>
<pdfrwt beam="1">  1       21 0.11660440E+00 0.35910331E+03</pdfrwt>
<pdfrwt beam="2">  1        1 0.11736489E+00 0.35910331E+03</pdfrwt>
<totfact> 0.14201217E+02</totfact>
</mgrwt>
</event>
<event>
 5    0  0.4115852E+000  0.3840696E+03  0.7546771E-02  0.1049440E+00
          2   -1    0    0  502    0 -0.00000000000E+00  0.00000000000E+00  0.38408115515E+03  0.38408115515E+03  0.00000000000E+00 0. -1.
         21   -1    0    0  503  502  0.00000000000E+00 -0.00000000000E+00 -0.41566591195E+03  0.41566591195E+03  0.00000000000E+00 0. -1.
         25    1    1    2    0    0  0.35192870687E+03 -0.16001889162E+02 -0.70203193066E+02  0.38034637305E+03  0.12500000000E+03 0.  0.
         21    1    1    2  503  501  0.16748424790E+02 -0.24577842530E+02 -0.29953798735E+02  0.42211492926E+02  0.00000000000E+00 0.  1.
          2    1    1    2  501    0 -0.36867713166E+03  0.40579731692E+02  0.68572234999E+02  0.37718920112E+03  0.00000000000E+00 0. -1.
<mgrwt>
<rscale>  4 0.38406965E+03</rscale>
<asrwt>0</asrwt>
<pdfrwt beam="1">  1       21 0.63948602E-01 0.38406965E+03</pdfrwt>
<pdfrwt beam="2">  1        2 0.59089409E-01 0.38406965E+03</pdfrwt>
<totfact> 0.22170094E+03</totfact>
</mgrwt>
</event>
<event>
 5    0  0.4115852E+000  0.2727918E+03  0.7546771E-02  0.1099692E+00
         21   -1    0    0  501  502  0.00000000000E+00  0.00000000000E+00  0.18018686944E+03  0.18018686944E+03  0.00000000000E+00 0.  1.
         -3   -1    0    0    0  501 -0.00000000000E+00 -0.00000000000E+00 -0.70590159188E+03  0.70590159188E+03  0.00000000000E+00 0.  1.
         25    1    1    2    0    0  0.24222821900E+03 -0.35771270433E+02 -0.41296459264E+03  0.49610366723E+03  0.12500000000E+03 0.  0.
         21    1    1    2  503  502 -0.88793974377E+00  0.45419440313E+02  0.72523218688E+02  0.85576464313E+02  0.00000000000E+00 0.  1.
         -3    1    1    2    0  503 -0.24134027926E+03 -0.96481698803E+01 -0.18527334849E+03  0.30440832977E+03  0.00000000000E+00 0.  1.
<mgrwt>
<rscale>  4 0.27279176E+03</rscale>
<asrwt>0</asrwt>
<pdfrwt beam="1">  1       21 0.27721057E-01 0.27279176E+03</pdfrwt>
<pdfrwt beam="2">  1       -3 0.10860024E+00 0.27279176E+03</pdfrwt>
<totfact> 0.45320992E+02</totfact>
</mgrwt>
</event>
<event>
 5    0  0.4115852E+000  0.2659824E+03  0.7546771E-02  0.1103601E+00
         21   -1    0    0  503  502  0.00000000000E+00  0.00000000000E+00  0.13403883938E+03  0.13403883938E+03  0.00000000000E+00 0.  1.
          2   -1    0    0  502    0 -0.00000000000E+00 -0.00000000000E+00 -0.83000257718E+03  0.83000257718E+03  0.00000000000E+00 0.  1.
         25    1    1    2    0    0 -0.12491588526E+03 -0.17427166944E+03 -0.88627060595E+02  0.26354193030E+03  0.12500000000E+03 0.  0.
         21    1    1    2  503  501 -0.62592338484E+00 -0.30394752992E+02  0.14673284892E+02  0.33757044880E+02  0.00000000000E+00 0.  1.
          2    1    1    2  501    0  0.12554180864E+03  0.20466642243E+03 -0.62200996209E+03  0.66674244137E+03  0.00000000000E+00 0.  1.
<mgrwt>
<rscale>  4 0.26598236E+03</rscale>
<asrwt>0</asrwt>
<pdfrwt beam="1">  1       21 0.20621360E-01 0.26598236E+03</pdfrwt>
<pdfrwt beam="2">  1        2 0.12769270E+00 0.26598236E+03</pdfrwt>
<totfact> 0.91543387E+03</totfact>
</mgrwt>
</event>
<event>
 5    0  0.4115852E+000  0.1795648E+03  0.7546771E-02  0.1168225E+00
          1   -1    0    0  502    0 -0.00000000000E+00  0.00000000000E+00  0.12776923701E+04  0.12776923701E+04  0.00000000000E+00 0.  1.
         21   -1    0    0  503  502  0.00000000000E+00 -0.00000000000E+00 -0.38451489547E+03  0.38451489547E+03  0.00000000000E+00 0. -1.
         25    1    1    2    0    0  0.79799058969E+02  0.18489533116E+03 -0.30152737886E+03  0.38353348420E+03  0.12500000000E+03 0.  0.
         21    1    1    2  503  501 -0.10465423619E+03 -0.58805363747E+02  0.55517722507E+02  0.13226033975E+03  0.00000000000E+00 0. -1.
          1    1    1    2  501    0  0.24855177219E+02 -0.12608996741E+03  0.11391871310E+04  0.11464134416E+04  0.00000000000E+00 0.  1.
<mgrwt>
<rscale>  4 0.17956481E+03</rscale>
<asrwt>0</asrwt>
<pdfrwt beam="1">  1       21 0.59156138E-01 0.17956481E+03</pdfrwt>
<pdfrwt beam="2">  1        1 0.19656805E+00 0.17956481E+03</pdfrwt>
<totfact> 0.30865669E+02</totfact>
</mgrwt>
</event>
<event>
 5    0  0.4115852E+000  0.1948875E+03  0.7546771E-02  0.1154126E+00
          2   -1    0    0  502    0 -0.00000000000E+00  0.00000000000E+00  0.18773490416E+04  0.18773490416E+04  0.00000000000E+00 0. -1.
         21   -1    0    0  503  502  0.00000000000E+00 -0.00000000000E+00 -0.14938770967E+04  0.14938770967E+04  0.00000000000E+00 0. -1.
         25    1    1    2    0    0  0.31839429367E+02 -0.25932770122E+03  0.20078266128E+03  0.35242486143E+03  0.12500000000E+03 0.  0.
         21    1    1    2  503  501 -0.88145323882E+01  0.11647135289E+03 -0.14123701669E+04  0.14171918573E+04  0.00000000000E+00 0. -1.
          2    1    1    2  501    0 -0.23024896979E+02  0.14285634833E+03  0.15950594505E+04  0.16016094196E+04  0.00000000000E+00 0. -1.
<mgrwt>
<rscale>  4 0.19488748E+03</rscale>
<asrwt>0</asrwt>
<pdfrwt beam="1">  1       21 0.22982725E+00 0.19488748E+03</pdfrwt>
<pdfrwt beam="2">  1        2 0.28882293E+00 0.19488748E+03</pdfrwt>
<totfact> 0.97473003E+00</totfact>
</mgrwt>
</event>
<event>
 5    0  0.4115852E+000  0.2412486E+03  0.7546771E-02  0.1118964E+00
         21   -1    0    0  503  502  0.00000000000E+00  0.00000000000E+00  0.18475086778E+03  0.18475086778E+03  0.00000000000E+00 0. -1.
          2   -1    0    0  502    0 -0.00000000000E+00 -0.00000000000E+00 -0.29767928251E+03  0.29767928251E+03  0.00000000000E+00 0. -1.
         25    1    1    2    0    0 -0.20079737370E+03 -0.47500311445E+02 -0.72776361301E+02  0.25198663385E+03  0.12500000000E+03 0.  0.
         21    1    1    2  503  501  0.12243517653E+03  0.44823659640E+02  0.19620965235E+02  0.13185035151E+03  0.00000000000E+00 0. -1.
          2    1    1    2  501    0  0.78362197173E+02  0.26766518054E+01 -0.59773018669E+02  0.98593164932E+02  0.00000000000E+00 0. -1.
<mgrwt>
<rscale>  4 0.24124855E+03</rscale>
<asrwt>0</asrwt>
<pdfrwt beam="1">  1       21 0.28423211E-01 0.24124855E+03</pdfrwt>
<pdfrwt beam="2">  1        2 0.45796813E-01 0.24124855E+03</pdfrwt>
<totfact> 0.16060372E+04</totfact>
</mgrwt>
</event>
<event>
 5    0  0.4115852E+000  0.2056109E+03  0.7546771E-02  0.1145090E+00
          1   -1    0    0  502    0 -0.00000000000E+00  0.00000000000E+00  0.34788047267E+03  0.34788047267E+03  0.00000000000E+00 0.  1.
         21   -1    0    0  503  502  0.00000000000E+00 -0.00000000000E+00 -0.51425404474E+03  0.51425404474E+03  0.00000000000E+00 0. -1.
         25    1    1    2    0    0 -0.59914513693E+02  0.19859244216E+03 -0.27418348944E+03  0.36582822870E+03  0.12500000000E+03 0.  0.
         21    1    1    2  503  501  0.77435919235E+01 -0.47028204234E+02 -0.16946136124E+03  0.17603626945E+03  0.00000000000E+00 0.  1.
          1    1    1    2  501    0  0.52170921770E+02 -0.15156423792E+03  0.27727127861E+03  0.32027001926E+03  0.00000000000E+00 0.  1.
<mgrwt>
<rscale>  4 0.20561092E+03</rscale>
<asrwt>0</asrwt>
<pdfrwt beam="1">  1       21 0.79116007E-01 0.20561092E+03</pdfrwt>
<pdfrwt beam="2">  1        1 0.53520073E-01 0.20561092E+03</pdfrwt>
<totfact> 0.11145138E+03</totfact>
</mgrwt>
</event>
<event>
 5    0  0.4115852E+000  0.2914642E+03  0.7546771E-02  0.1089587E+00
          2   -1    0    0  502    0 -0.00000000000E+00  0.00000000000E+00  0.21279005580E+03  0.21279005580E+03  0.00000000000E+00 0. -1.
         21   -1    0    0  503  502  0.00000000000E+00 -0.00000000000E+00 -0.54094882711E+03  0.54094882711E+03  0.00000000000E+00 0.  1.
         25    1    1    2    0    0  0.60515612134E+02 -0.21408352577E+03 -0.46895339111E+02  0.25945725688E+03  0.12500000000E+03 0.  0.
         21    1    1    2  503  501 -0.42405713853E+02  0.28236702868E+03 -0.30684725926E+03  0.41914749668E+03  0.00000000000E+00 0.  1.
          2    1    1    2  501    0 -0.18109898280E+02 -0.68283502914E+02  0.25583827070E+02  0.75134129352E+02  0.00000000000E+00 0. -1.
<mgrwt>
<rscale>  4 0.29146416E+03</rscale>
<asrwt>0</asrwt>
<pdfrwt beam="1">  1       21 0.83222896E-01 0.29146416E+03</pdfrwt>
<pdfrwt beam="2">  1        2 0.32736932E-01 0.29146416E+03</pdfrwt>
<totfact> 0.23882313E+03</totfact>
</mgrwt>
</event>
<event>
 5    0  0.4115852E+000  0.1907898E+03  0.7546771E-02  0.1157751E+00
         21   -1    0    0  503  502  0.00000000000E+00  0.00000000000E+00  0.73775191602E+03  0.73775191602E+03  0.00000000000E+00 0. -1.
          1   -1    0    0  502    0 -0.00000000000E+00 -0.00000000000E+00 -0.70694342341E+03  0.70694342341E+03  0.00000000000E+00 0. -1.
         25    1    1    2    0    0  0.20540368630E+03 -0.15891155325E+02  0.51975255296E+03  0.57289695362E+03  0.12500000000E+03 0.  0.
         21    1    1    2  503  501 -0.62186080673E+02  0.20535541138E+02  0.17798420422E+03  0.18965018859E+03  0.00000000000E+00 0. -1.
          1    1    1    2  501    0 -0.14321760562E+03 -0.46443858134E+01 -0.66692826458E+03  0.68214819722E+03  0.00000000000E+00 0. -1.
<mgrwt>
<rscale>  4 0.19078980E+03</rscale>
<asrwt>0</asrwt>
<pdfrwt beam="1">  1       21 0.11350029E+00 0.19078980E+03</pdfrwt>
<pdfrwt beam="2">  1        1 0.10876053E+00 0.19078980E+03</pdfrwt>
<totfact> 0.18765487E+02</totfact>
</mgrwt>
</event>
<event>
 5    0  0.4115852E+000  0.2595791E+03  0.7546771E-02  0.1107396E+00
         21   -1    0    0  503  502  0.00000000000E+00  0.00000000000E+00  0.67209175014E+03  0.67209175014E+03  0.00000000000E+00 0. -1.
          1   -1    0    0  502    0 -0.00000000000E+00 -0.00000000000E+00 -0.19520138891E+04  0.19520138891E+04  0.00000000000E+00 0. -1.
         25    1    1    2    0    0  0.18419682826E+03  0.16149855608E+03  0.54313338596E+03  0.60879317515E+03  0.12500000000E+03 0.  0.
         21    1    1    2  503  501 -0.58850471989E+02  0.28230235234E+02  0.77430357278E+02  0.10127084705E+03  0.00000000000E+00 0.  1.
          1    1    1    2  501    0 -0.12534635627E+03 -0.18972879132E+03 -0.19004858822E+04  0.19140416170E+04  0.00000000000E+00 0. -1.
<mgrwt>
<rscale>  4 0.25957909E+03</rscale>
<asrwt>0</asrwt>
<pdfrwt beam="1">  1       21 0.10339873E+00 0.25957909E+03</pdfrwt>
<pdfrwt beam="2">  1        1 0.30030983E+00 0.25957909E+03</pdfrwt>
<totfact> 0.29463660E+01</totfact>
</mgrwt>
</event>
<event>
 5    0  0.4115852E+000  0.2587394E+03  0.7546771E-02  0.1107903E+00
         21   -1    0    0  503  502  0.00000000000E+00  0.00000000000E+00  0.35435215095E+03  0.35435215095E+03  0.00000000000E+00 0.  1.
          2   -1    0    0  502    0 -0.00000000000E+00 -0.00000000000E+00 -0.83641393367E+03  0.83641393367E+03  0.00000000000E+00 0. -1.
         25    1    1    2    0    0 -0.26598955005E+03  0.61939005937E+02  0.20469251655E+03  0.36347064190E+03  0.12500000000E+03 0.  0.
         21    1    1    2  503  501  0.13580777968E+03 -0.10174968521E+03 -0.51093619184E+02  0.17722107489E+03  0.00000000000E+00 0.  1.
          2    1    1    2  501    0  0.13018177037E+03  0.39810679275E+02 -0.63566068008E+03  0.65007436783E+03  0.00000000000E+00 0. -1.
<mgrwt>
<rscale>  4 0.25873945E+03</rscale>
<asrwt>0</asrwt>
<pdfrwt beam="1">  1       21 0.54515716E-01 0.25873945E+03</pdfrwt>
<pdfrwt beam="2">  1        2 0.12867907E+00 0.25873945E+03</pdfrwt>
<totfact> 0.13055460E+03</totfact>
</mgrwt>
</event>
<event>
 5    0  0.4115852E+000  0.3211851E+03  0.7546771E-02  0.1075105E+00
          2   -1    0    0  502    0 -0.00000000000E+00  0.00000000000E+00  0.12534028855E+04  0.12534028855E+04  0.00000000000E+00 0.  1.
         21   -1    0    0  503  502  0.00000000000E+00 -0.00000000000E+00 -0.31997415523E+03  0.31997415523E+03  0.00000000000E+00 0. -1.
         25    1    1    2    0    0 -0.28955313272E+03  0.22724647219E+03  0.29604030652E+03  0.48861727239E+03  0.12500000000E+03 0.  0.
         21    1    1    2  503  501  0.55003857207E+02 -0.76185749045E+02 -0.18980250509E+03  0.21178924336E+03  0.00000000000E+00 0. -1.
          2    1    1    2  501    0  0.23454927552E+03 -0.15106072315E+03  0.82719092886E+03  0.87297052500E+03  0.00000000000E+00 0.  1.
<mgrwt>
<rscale>  4 0.32118511E+03</rscale>
<asrwt>0</asrwt>
<pdfrwt beam="1">  1       21 0.49226794E-01 0.32118511E+03</pdfrwt>
<pdfrwt beam="2">  1        2 0.19283121E+00 0.32118511E+03</pdfrwt>
<totfact> 0.88038719E+02</totfact>
</mgrwt>
</event>
<event>
 5    0  0.4115852E+000  0.2353486E+03  0.7546771E-02  0.1122931E+00
         21   -1    0    0  501  502  0.00000000000E+00  0.00000000000E+00  0.21801499634E+03  0.21801499634E+03  0.00000000000E+00 0. -1.
         -4   -1    0    0    0  501 -0.00000000000E+00 -0.00000000000E+00 -0.66142438620E+03  0.66142438620E+03  0.00000000000E+00 0.  1.
         25    1    1    2    0    0  0.18766697293E+03  0.71516625047E+02  0.33467605028E+02  0.23891128264E+03  0.12500000000E+03 0.  0.
         21    1    1    2  503  502 -0.40853355693E+02  0.65821572891E+02  0.39094616068E+02  0.86774795503E+02  0.00000000000E+00 0. -1.
         -4    1    1    2    0  503 -0.14681361724E+03 -0.13733819794E+03 -0.51597161095E+03  0.55375330440E+03  0.00000000000E+00 0.  1.
<mgrwt>
<rscale>  4 0.23534860E+03</rscale>
<asrwt>0</asrwt>
<pdfrwt beam="1">  1       21 0.33540769E-01 0.23534860E+03</pdfrwt>
<pdfrwt beam="2">  1       -4 0.10175760E+00 0.23534860E+03</pdfrwt>
<totfact> 0.29413325E+02</totfact>
</mgrwt>
</event>
<event>
 5    0  0.4115852E+000  0.3869918E+03  0.7546771E-02  0.1048379E+00
          2   -1    0    0  502    0 -0.00000000000E+00  0.00000000000E+00  0.17636899014E+04  0.17636899014E+04  0.00000000000E+00 0. -1.
         21   -1    0    0  503  502  0.00000000000E+00 -0.00000000000E+00 -0.94048936532E+02  0.94048936532E+02  0.00000000000E+00 0.  1.
         25    1    1    2    0    0 -0.95162633055E+02  0.33556098321E+03  0.10502924419E+04  0.11137308084E+04  0.12500000000E+03 0.  0.
         21    1    1    2  503  501  0.12150218563E+03 -0.35593842858E+03  0.54114307638E+03  0.65900741662E+03  0.00000000000E+00 0.  1.
          2    1    1    2  501    0 -0.26339552573E+02  0.20377445366E+02  0.78205446606E+02  0.85000612870E+02  0.00000000000E+00 0. -1.
<mgrwt>
<rscale>  4 0.38699183E+03</rscale>
<asrwt>0</asrwt>
<pdfrwt beam="1">  1       21 0.14469068E-01 0.38699183E+03</pdfrwt>
<pdfrwt beam="2">  1        2 0.27133688E+00 0.38699183E+03</pdfrwt>
<totfact> 0.50077741E+03</totfact>
</mgrwt>
</event>
<event>
 5    0  0.4115852E+000  0.2303677E+03  0.7546771E-02  0.1126381E+00
         21   -1    0    0  503  502  0.00000000000E+00  0.00000000000E+00  0.16599899524E+03  0.16599899524E+03  0.00000000000E+00 0. -1.
          1   -1    0    0  502    0 -0.00000000000E+00 -0.00000000000E+00 -0.11429990122E+04  0.11429990122E+04  0.00000000000E+00 0. -1.
         25    1    1    2    0    0  0.19652770141E+03 -0.87410846782E+02  0.39449278005E+02  0.25188298690E+03  0.12500000000E+03 0.  0.
         21    1    1    2  503  501 -0.22054722225E+02  0.68554207020E+01 -0.44874721909E+00  0.23099977045E+02  0.00000000000E+00 0. -1.
          1    1    1    2  501    0 -0.17447297918E+03  0.80555426080E+02 -0.10160005477E+04  0.10340150434E+04  0.00000000000E+00 0. -1.
<mgrwt>
<rscale>  4 0.23036772E+03</rscale>
<asrwt>0</asrwt>
<pdfrwt beam="1">  1       21 0.25538308E-01 0.23036772E+03</pdfrwt>
<pdfrwt beam="2">  1        1 0.17584599E+00 0.23036772E+03</pdfrwt>
<totfact> 0.20244369E+03</totfact>
</mgrwt>
</event>
<event>
 5    0  0.4115852E+000  0.2557250E+03  0.7546771E-02  0.1109739E+00
         21   -1    0    0  503  502  0.00000000000E+00  0.00000000000E+00  0.41870822310E+03  0.41870822310E+03  0.00000000000E+00 0.  1.
          2   -1    0    0  502    0 -0.00000000000E+00 -0.00000000000E+00 -0.15312977744E+03  0.15312977744E+03  0.00000000000E+00 0.  1.
         25    1    1    2    0    0  0.17893013083E+03 -0.13324512384E+03  0.73644431147E+02  0.26611793811E+03  0.12500000000E+03 0.  0.
         21    1    1    2  503  501 -0.78235701147E+01  0.42390354358E+02  0.46998212281E+02  0.63772896668E+02  0.00000000000E+00 0.  1.
          2    1    1    2  501    0 -0.17110656071E+03  0.90854769480E+02  0.14493580223E+03  0.24194716577E+03  0.00000000000E+00 0.  1.
<mgrwt>
<rscale>  4 0.25572496E+03</rscale>
<asrwt>0</asrwt>
<pdfrwt beam="1">  1       21 0.64416649E-01 0.25572496E+03</pdfrwt>
<pdfrwt beam="2">  1        2 0.23558428E-01 0.25572496E+03</pdfrwt>
<totfact> 0.61757459E+03</totfact>
</mgrwt>
</event>
<event>
 5    0  0.4115852E+000  0.2970896E+03  0.7546771E-02  0.1086705E+00
          2   -1    0    0  502    0 -0.00000000000E+00  0.00000000000E+00  0.28920295370E+03  0.28920295370E+03  0.00000000000E+00 0.  1.
         21   -1    0    0  503  502  0.00000000000E+00 -0.00000000000E+00 -0.11865444996E+04  0.11865444996E+04  0.00000000000E+00 0.  1.
         25    1    1    2    0    0 -0.26786959735E+03  0.16507747884E+03 -0.73511103517E+03  0.80933177946E+03  0.12500000000E+03 0.  0.
         21    1    1    2  503  501  0.20483412307E+03 -0.10501755442E+03 -0.37303488613E+03  0.43833860311E+03  0.00000000000E+00 0.  1.
          2    1    1    2  501    0  0.63035474281E+02 -0.60059924424E+02  0.21080437536E+03  0.22807707077E+03  0.00000000000E+00 0.  1.
<mgrwt>
<rscale>  4 0.29708961E+03</rscale>
<asrwt>0</asrwt>
<pdfrwt beam="1">  1       21 0.18254530E+00 0.29708961E+03</pdfrwt>
<pdfrwt beam="2">  1        2 0.44492763E-01 0.29708961E+03</pdfrwt>
<totfact> 0.23039838E+02</totfact>
</mgrwt>
</event>
<event>
 5    0  0.4115852E+000  0.4323222E+03  0.7546771E-02  0.1033129E+00
         21   -1    0    0  503  502  0.00000000000E+00  0.00000000000E+00  0.39770959861E+03  0.39770959861E+03  0.00000000000E+00 0. -1.
          4   -1    0    0  502    0 -0.00000000000E+00 -0.00000000000E+00 -0.81957178513E+03  0.81957178513E+03  0.00000000000E+00 0. -1.
         25    1    1    2    0    0 -0.22200485861E+03 -0.31130295077E+03 -0.18998804465E+03  0.44487767028E+03  0.12500000000E+03 0.  0.
         21    1    1    2  503  501 -0.53799880301E+02 -0.29029890261E+02  0.16831260772E+03  0.17907064407E+03  0.00000000000E+00 0. -1.
          4    1    1    2  501    0  0.27580473891E+03  0.34033284103E+03 -0.40018674959E+03  0.59333306939E+03  0.00000000000E+00 0. -1.
<mgrwt>
<rscale>  4 0.43232223E+03</rscale>
<asrwt>0</asrwt>
<pdfrwt beam="1">  1       21 0.61186093E-01 0.43232223E+03</pdfrwt>
<pdfrwt beam="2">  1        4 0.12608797E+00 0.43232223E+03</pdfrwt>
<totfact> 0.48453538E+01</totfact>
</mgrwt>
</event>
<event>
 5    0  0.4115852E+000  0.2478128E+03  0.7546771E-02  0.1114695E+00
         21   -1    0    0  503  502  0.00000000000E+00  0.00000000000E+00  0.70433397655E+02  0.70433397655E+02  0.00000000000E+00 0.  1.
          2   -1    0    0  502    0 -0.00000000000E+00 -0.00000000000E+00 -0.10796091413E+04  0.10796091413E+04  0.00000000000E+00 0.  1.
         25    1    1    2    0    0  0.20866203805E+03  0.25549057676E+02 -0.23942325270E+03  0.34225881202E+03  0.12500000000E+03 0.  0.
         21    1    1    2  503  501  0.14817521920E+02 -0.15188867812E+02 -0.67392938391E+02  0.70654573852E+02  0.00000000000E+00 0. -1.
          2    1    1    2  501    0 -0.22347955997E+03 -0.10360189864E+02 -0.70235955255E+03  0.73712915308E+03  0.00000000000E+00 0.  1.
<mgrwt>
<rscale>  4 0.24781277E+03</rscale>
<asrwt>0</asrwt>
<pdfrwt beam="1">  1       21 0.10835908E-01 0.24781277E+03</pdfrwt>
<pdfrwt beam="2">  1        2 0.16609371E+00 0.24781277E+03</pdfrwt>
<totfact> 0.20819560E+04</totfact>
</mgrwt>
</event>
<event>
 5    0  0.4115852E+000  0.2464049E+03  0.7546771E-02  0.1115598E+00
          2   -1    0    0  502    0 -0.00000000000E+00  0.00000000000E+00  0.16482457860E+04  0.16482457860E+04  0.00000000000E+00 0. -1.
         21   -1    0    0  503  502  0.00000000000E+00 -0.00000000000E+00 -0.10452733179E+03  0.10452733179E+03  0.00000000000E+00 0.  1.
         25    1    1    2    0    0 -0.22353535278E+03 -0.20329832566E+02  0.19555189338E+03  0.32287288372E+03  0.12500000000E+03 0.  0.
         21    1    1    2  503  501  0.12606891881E+02  0.21515390212E+02 -0.28096574131E+02  0.37566783424E+02  0.00000000000E+00 0.  1.
          2    1    1    2  501    0  0.21092846090E+03 -0.11855576458E+01  0.13762631349E+04  0.13923334506E+04  0.00000000000E+00 0. -1.
<mgrwt>
<rscale>  4 0.24640486E+03</rscale>
<asrwt>0</asrwt>
<pdfrwt beam="1">  1       21 0.16081129E-01 0.24640486E+03</pdfrwt>
<pdfrwt beam="2">  1        2 0.25357625E+00 0.24640486E+03</pdfrwt>
<totfact> 0.49527841E+03</totfact>
</mgrwt>
</event>
<event>
 5    0  0.4115852E+000  0.2726163E+03  0.7546771E-02  0.1099791E+00
          2   -1    0    0  502    0 -0.00000000000E+00  0.00000000000E+00  0.19803802014E+04  0.19803802014E+04  0.00000000000E+00 0. -1.
         21   -1    0    0  503  502  0.00000000000E+00 -0.00000000000E+00 -0.14554670311E+03  0.14554670311E+03  0.00000000000E+00 0. -1.
         25    1    1    2    0    0 -0.23081395777E+03  0.12765630848E+03  0.26523999070E+02  0.29308657206E+03  0.12500000000E+03 0.  0.
         21    1    1    2  503  501  0.18001071407E+02 -0.14635211777E+02  0.28294735588E+02  0.36589890100E+02  0.00000000000E+00 0.  1.
          2    1    1    2  501    0  0.21281288636E+03 -0.11302109671E+03  0.17800147636E+04  0.17962504423E+04  0.00000000000E+00 0. -1.
<mgrwt>
<rscale>  4 0.27261632E+03</rscale>
<asrwt>0</asrwt>
<pdfrwt beam="1">  1       21 0.22391802E-01 0.27261632E+03</pdfrwt>
<pdfrwt beam="2">  1        2 0.30467386E+00 0.27261632E+03</pdfrwt>
<totfact> 0.17639391E+03</totfact>
</mgrwt>
</event>
<event>
 5    0  0.4115852E+000  0.2169949E+03  0.7546771E-02  0.1136144E+00
          2   -1    0    0  502    0 -0.00000000000E+00  0.00000000000E+00  0.12972063959E+04  0.12972063959E+04  0.00000000000E+00 0. -1.
         21   -1    0    0  503  502  0.00000000000E+00 -0.00000000000E+00 -0.65941664178E+02  0.65941664178E+02  0.00000000000E+00 0. -1.
         25    1    1    2    0    0 -0.20197561906E+03 -0.15282592898E+03  0.52467422210E+03  0.59586739682E+03  0.12500000000E+03 0.  0.
         21    1    1    2  503  501  0.62455000237E+02  0.81751499712E+02  0.11054069589E+03  0.15100721906E+03  0.00000000000E+00 0. -1.
          2    1    1    2  501    0  0.13952061882E+03  0.71074429266E+02  0.59604981373E+03  0.61627344420E+03  0.00000000000E+00 0. -1.
<mgrwt>
<rscale>  4 0.21699487E+03</rscale>
<asrwt>0</asrwt>
<pdfrwt beam="1">  1       21 0.10144872E-01 0.21699487E+03</pdfrwt>
<pdfrwt beam="2">  1        2 0.19957020E+00 0.21699487E+03</pdfrwt>
<totfact> 0.17724453E+04</totfact>
</mgrwt>
</event>
<event>
 5    0  0.4115852E+000  0.2536269E+03  0.7546771E-02  0.1111034E+00
         21   -1    0    0  503  502  0.00000000000E+00  0.00000000000E+00  0.30893880240E+03  0.30893880240E+03  0.00000000000E+00 0. -1.
          2   -1    0    0  502    0 -0.00000000000E+00 -0.00000000000E+00 -0.10837996551E+04  0.10837996551E+04  0.00000000000E+00 0. -1.
         25    1    1    2    0    0 -0.47145771822E+02  0.22318763270E+03 -0.38167813489E+03  0.46188596195E+03  0.12500000000E+03 0.  0.
         21    1    1    2  503  501  0.35696068643E+02 -0.52961732386E+01  0.24952328333E+03  0.25211927275E+03  0.00000000000E+00 0. -1.
          2    1    1    2  501    0  0.11449703179E+02 -0.21789145947E+03 -0.64270600112E+03  0.67873322277E+03  0.00000000000E+00 0. -1.
<mgrwt>
<rscale>  4 0.25362692E+03</rscale>
<asrwt>0</asrwt>
<pdfrwt beam="1">  1       21 0.47529047E-01 0.25362692E+03</pdfrwt>
<pdfrwt beam="2">  1        2 0.16673841E+00 0.25362692E+03</pdfrwt>
<totfact> 0.12210766E+03</totfact>
</mgrwt>
</event>
<event>
 5    0  0.4115852E+000  0.3175885E+03  0.7546771E-02  0.1076765E+00
          1   -1    0    0  502    0 -0.00000000000E+00  0.00000000000E+00  0.21094391964E+04  0.21094391964E+04  0.00000000000E+00 0. -1.
         21   -1    0    0  503  502  0.00000000000E+00 -0.00000000000E+00 -0.71328067685E+03  0.71328067685E+03  0.00000000000E+00 0.  1.
         25    1    1    2    0    0  0.32600996251E+03  0.91235937318E+02 -0.51388621429E+03  0.62794150456E+03  0.12500000000E+03 0.  0.
         21    1    1    2  503  501 -0.47414389001E+02 -0.67927097524E+01 -0.12767769732E+03  0.13636663662E+03  0.00000000000E+00 0.  1.
          1    1    1    2  501    0 -0.27859557351E+03 -0.84443227565E+02  0.20377224311E+04  0.20584117320E+04  0.00000000000E+00 0. -1.
<mgrwt>
<rscale>  4 0.31758853E+03</rscale>
<asrwt>0</asrwt>
<pdfrwt beam="1">  1       21 0.10973549E+00 0.31758853E+03</pdfrwt>
<pdfrwt beam="2">  1        1 0.32452910E+00 0.31758853E+03</pdfrwt>
<totfact> 0.19260716E+01</totfact>
</mgrwt>
</event>
<event>
 5    0  0.4115852E+000  0.1930059E+03  0.7546771E-02  0.1155778E+00
          2   -1    0    0  502    0 -0.00000000000E+00  0.00000000000E+00  0.39975939090E+03  0.39975939090E+03  0.00000000000E+00 0. -1.
         21   -1    0    0  503  502  0.00000000000E+00 -0.00000000000E+00 -0.18274539393E+03  0.18274539393E+03  0.00000000000E+00 0. -1.
         25    1    1    2    0    0 -0.22142405156E+03  0.43738865949E+02  0.65849356460E+02  0.26627586588E+03  0.12500000000E+03 0.  0.
         21    1    1    2  503  501  0.94630310699E+02 -0.14441314207E+02 -0.23352954369E+02  0.98533282381E+02  0.00000000000E+00 0. -1.
          2    1    1    2  501    0  0.12679374086E+03 -0.29297551742E+02  0.17451759488E+03  0.21769563657E+03  0.00000000000E+00 0. -1.
<mgrwt>
<rscale>  4 0.19300585E+03</rscale>
<asrwt>0</asrwt>
<pdfrwt beam="1">  1       21 0.28114676E-01 0.19300585E+03</pdfrwt>
<pdfrwt beam="2">  1        2 0.61501445E-01 0.19300585E+03</pdfrwt>
<totfact> 0.12039330E+04</totfact>
</mgrwt>
</event>
<event>
 5    0  0.4115852E+000  0.2786007E+03  0.7546771E-02  0.1096456E+00
          1   -1    0    0  502    0 -0.00000000000E+00  0.00000000000E+00  0.29365332111E+03  0.29365332111E+03  0.00000000000E+00 0. -1.
         21   -1    0    0  503  502  0.00000000000E+00 -0.00000000000E+00 -0.10740881870E+04  0.10740881870E+04  0.00000000000E+00 0.  1.
         25    1    1    2    0    0 -0.21925607275E+03  0.35407802422E+03 -0.14307827476E+03  0.45775633844E+03  0.12500000000E+03 0.  0.
         21    1    1    2  503  501  0.16208403186E+03 -0.16273526052E+03 -0.66941936379E+03  0.70772613560E+03  0.00000000000E+00 0.  1.
          1    1    1    2  501    0  0.57172040897E+02 -0.19134276370E+03  0.32062772638E+02  0.20225903408E+03  0.00000000000E+00 0. -1.
<mgrwt>
<rscale>  4 0.27860070E+03</rscale>
<asrwt>0</asrwt>
<pdfrwt beam="1">  1       21 0.16524434E+00 0.27860070E+03</pdfrwt>
<pdfrwt beam="2">  1        1 0.45177434E-01 0.27860070E+03</pdfrwt>
<totfact> 0.21448874E+02</totfact>
</mgrwt>
</event>
<event>
 5    0  0.4115852E+000  0.3910145E+03  0.7546771E-02  0.1046936E+00
          2   -1    0    0  502    0 -0.00000000000E+00  0.00000000000E+00  0.78754798834E+03  0.78754798834E+03  0.00000000000E+00 0. -1.
         21   -1    0    0  503  502  0.00000000000E+00 -0.00000000000E+00 -0.46770455912E+03  0.46770455912E+03  0.00000000000E+00 0.  1.
         25    1    1    2    0    0 -0.21633909926E+03 -0.15522661998E+03 -0.78067862633E+02  0.30433123500E+03  0.12500000000E+03 0.  0.
         21    1    1    2  503  501 -0.20830372095E+03  0.13323264475E+03 -0.12490174916E+03  0.27702314837E+03  0.00000000000E+00 0.  1.
          2    1    1    2  501    0  0.42464282021E+03  0.21993975231E+02  0.52281304102E+03  0.67389816409E+03  0.00000000000E+00 0. -1.
<mgrwt>
<rscale>  4 0.39101448E+03</rscale>
<asrwt>0</asrwt>
<pdfrwt beam="1">  1       21 0.71954548E-01 0.39101448E+03</pdfrwt>
<pdfrwt beam="2">  1        2 0.12116123E+00 0.39101448E+03</pdfrwt>
<totfact> 0.73363101E+02</totfact>
</mgrwt>
</event>
<event>
 5    0  0.4115852E+000  0.2092352E+03  0.7546771E-02  0.1142173E+00
          2   -1    0    0  502    0 -0.00000000000E+00  0.00000000000E+00  0.33424145375E+04  0.33424145375E+04  0.00000000000E+00 0. -1.
         21   -1    0    0  503  502  0.00000000000E+00 -0.00000000000E+00 -0.79568617534E+02  0.79568617534E+02  0.00000000000E+00 0. -1.
         25    1    1    2    0    0 -0.25988546535E+03 -0.15963313305E+02  0.45141494593E+03  0.53590646188E+03  0.12500000000E+03 0.  0.
         21    1    1    2  503  501  0.10898339611E+03 -0.46241121048E+02  0.65500314863E+02  0.13529934645E+03  0.00000000000E+00 0. -1.
          2    1    1    2  501    0  0.15090206924E+03  0.62204434353E+02  0.27459306592E+04  0.27507773467E+04  0.00000000000E+00 0. -1.
<mgrwt>
<rscale>  4 0.20923524E+03</rscale>
<asrwt>0</asrwt>
<pdfrwt beam="1">  1       21 0.12241328E-01 0.20923524E+03</pdfrwt>
<pdfrwt beam="2">  1        2 0.51421751E+00 0.20923524E+03</pdfrwt>
<totfact> 0.95108142E+02</totfact>
</mgrwt>
</event>
<event>
 5    0  0.4115852E+000  0.2346399E+03  0.7546771E-02  0.1123416E+00
          2   -1    0    0  502    0 -0.00000000000E+00  0.00000000000E+00  0.27836714007E+04  0.27836714007E+04  0.00000000000E+00 0. -1.
         21   -1    0    0  503  502  0.00000000000E+00 -0.00000000000E+00 -0.78762201449E+03  0.78762201449E+03  0.00000000000E+00 0.  1.
         25    1    1    2    0    0  0.62768377480E+02 -0.27509824786E+03  0.27251048265E+03  0.41171091599E+03  0.12500000000E+03 0.  0.
         21    1    1    2  503  501 -0.72369790867E+02  0.18155024920E+03 -0.70379474411E+03  0.73042790298E+03  0.00000000000E+00 0.  1.
          2    1    1    2  501    0  0.96014133873E+01  0.93547998656E+02  0.24273336477E+04  0.24291545963E+04  0.00000000000E+00 0. -1.
<mgrwt>
<rscale>  4 0.23463985E+03</rscale>
<asrwt>0</asrwt>
<pdfrwt beam="1">  1       21 0.12117262E+00 0.23463985E+03</pdfrwt>
<pdfrwt beam="2">  1        2 0.42825713E+00 0.23463985E+03</pdfrwt>
<totfact> 0.17919368E+01</totfact>
</mgrwt>
</event>
<event>
 5    0  0.4115852E+000  0.1362975E+04  0.7546771E-02  0.8981064E-01
         21   -1    0    0  503  502  0.00000000000E+00  0.00000000000E+00  0.20197991499E+04  0.20197991499E+04  0.00000000000E+00 0.  1.
          2   -1    0    0  502    0 -0.00000000000E+00 -0.00000000000E+00 -0.15202785808E+04  0.15202785808E+04  0.00000000000E+00 0.  1.
         25    1    1    2    0    0 -0.13398466617E+04  0.24984380192E+03 -0.36547493994E+03  0.14166184857E+04  0.12500000000E+03 0.  0.
         21    1    1    2  503  501  0.20832605659E+01 -0.66603741674E+02  0.76674445186E+03  0.76963462295E+03  0.00000000000E+00 0.  1.
          2    1    1    2  501    0  0.13377634011E+04 -0.18324006025E+03  0.98251057228E+02  0.13538246221E+04  0.00000000000E+00 0.  1.
<mgrwt>
<rscale>  4 0.13629745E+04</rscale>
<asrwt>0</asrwt>
<pdfrwt beam="1">  1       21 0.31073833E+00 0.13629745E+04</pdfrwt>
<pdfrwt beam="2">  1        2 0.23388901E+00 0.13629745E+04</pdfrwt>
<totfact> 0.28040094E+00</totfact>
</mgrwt>
</event>
<event>
 5    0  0.4115852E+000  0.2517367E+03  0.7546771E-02  0.1112212E+00
          1   -1    0    0  502    0 -0.00000000000E+00  0.00000000000E+00  0.52678787099E+03  0.52678787099E+03  0.00000000000E+00 0. -1.
         21   -1    0    0  503  502  0.00000000000E+00 -0.00000000000E+00 -0.15462180720E+03  0.15462180720E+03  0.00000000000E+00 0. -1.
         25    1    1    2    0    0  0.43523816220E+02  0.21906772801E+03  0.15092289652E+03  0.29713248346E+03  0.12500000000E+03 0.  0.
         21    1    1    2  503  501 -0.41209195281E+02 -0.18897693462E+01 -0.30861134040E+02  0.51518720851E+02  0.00000000000E+00 0. -1.
          1    1    1    2  501    0 -0.23146209391E+01 -0.21717795866E+03  0.25210430131E+03  0.33275847388E+03  0.00000000000E+00 0. -1.
<mgrwt>
<rscale>  4 0.25173668E+03</rscale>
<asrwt>0</asrwt>
<pdfrwt beam="1">  1       21 0.23787971E-01 0.25173668E+03</pdfrwt>
<pdfrwt beam="2">  1        1 0.81044287E-01 0.25173668E+03</pdfrwt>
<totfact> 0.76402396E+03</totfact>
</mgrwt>
</event>
<event>
 5    0  0.4115852E+000  0.2822185E+03  0.7546771E-02  0.1094483E+00
          1   -1    0    0  502    0 -0.00000000000E+00  0.00000000000E+00  0.58311332388E+03  0.58311332388E+03  0.00000000000E+00 0.  1.
         21   -1    0    0  503  502  0.00000000000E+00 -0.00000000000E+00 -0.10709237919E+04  0.10709237919E+04  0.00000000000E+00 0. -1.
         25    1    1    2    0    0  0.43260885258E+02 -0.20016093049E+03 -0.73458917740E+02  0.25091256422E+03  0.12500000000E+03 0.  0.
         21    1    1    2  503  501  0.13286589398E+02 -0.57190232674E+02 -0.87257352512E+03  0.87454663278E+03  0.00000000000E+00 0. -1.
          1    1    1    2  501    0 -0.56547474656E+02  0.25735116317E+03  0.45822197480E+03  0.52857791882E+03  0.00000000000E+00 0.  1.
<mgrwt>
<rscale>  4 0.28221850E+03</rscale>
<asrwt>0</asrwt>
<pdfrwt beam="1">  1       21 0.16475750E+00 0.28221850E+03</pdfrwt>
<pdfrwt beam="2">  1        1 0.89709744E-01 0.28221850E+03</pdfrwt>
<totfact> 0.88112499E+01</totfact>
</mgrwt>
</event>
<event>
 5    0  0.4115852E+000  0.1700991E+03  0.7546771E-02  0.1177745E+00
         21   -1    0    0  503  502  0.00000000000E+00  0.00000000000E+00  0.17220310671E+03  0.17220310671E+03  0.00000000000E+00 0. -1.
          4   -1    0    0  502    0 -0.00000000000E+00 -0.00000000000E+00 -0.43238769987E+03  0.43238769987E+03  0.00000000000E+00 0. -1.
         25    1    1    2    0    0  0.16207438037E+03  0.12487452421E+03  0.41234954975E+01  0.23979940530E+03  0.12500000000E+03 0.  0.
         21    1    1    2  503  501 -0.86524510249E+02 -0.48911639261E+02 -0.24839275422E+02  0.10244915291E+03  0.00000000000E+00 0. -1.
          4    1    1    2  501    0 -0.75549870117E+02 -0.75962884947E+02 -0.23946881324E+03  0.26234224837E+03  0.00000000000E+00 0. -1.
<mgrwt>
<rscale>  4 0.17009910E+03</rscale>
<asrwt>0</asrwt>
<pdfrwt beam="1">  1       21 0.26492786E-01 0.17009910E+03</pdfrwt>
<pdfrwt beam="2">  1        4 0.66521184E-01 0.17009910E+03</pdfrwt>
<totfact> 0.12103816E+03</totfact>
</mgrwt>
</event>
<event>
 5    0  0.4115852E+000  0.3265800E+03  0.7546771E-02  0.1072660E+00
          1   -1    0    0  502    0 -0.00000000000E+00  0.00000000000E+00  0.96329877121E+03  0.96329877121E+03  0.00000000000E+00 0.  1.
         21   -1    0    0  503  502  0.00000000000E+00 -0.00000000000E+00 -0.32911314131E+03  0.32911314131E+03  0.00000000000E+00 0. -1.
         25    1    1    2    0    0  0.20540065687E+03  0.25385312077E+03 -0.13932441716E+03  0.37638694183E+03  0.12500000000E+03 0.  0.
         21    1    1    2  503  501 -0.18923467203E+02 -0.19938518237E+02 -0.40408759679E+02  0.48872384628E+02  0.00000000000E+00 0. -1.
          1    1    1    2  501    0 -0.18647718967E+03 -0.23391460253E+03  0.81391880674E+03  0.86715258606E+03  0.00000000000E+00 0.  1.
<mgrwt>
<rscale>  4 0.32658002E+03</rscale>
<asrwt>0</asrwt>
<pdfrwt beam="1">  1       21 0.50632792E-01 0.32658002E+03</pdfrwt>
<pdfrwt beam="2">  1        1 0.14819981E+00 0.32658002E+03</pdfrwt>
<totfact> 0.66637956E+02</totfact>
</mgrwt>
</event>
<event>
 5    0  0.4115852E+000  0.3391012E+03  0.7546771E-02  0.1067179E+00
          2   -1    0    0  502    0 -0.00000000000E+00  0.00000000000E+00  0.40823483669E+04  0.40823483669E+04  0.00000000000E+00 0. -1.
         21   -1    0    0  503  502  0.00000000000E+00 -0.00000000000E+00 -0.61144737350E+02  0.61144737350E+02  0.00000000000E+00 0. -1.
         25    1    1    2    0    0 -0.15048988550E+03  0.29294467841E+03  0.55498461692E+03  0.65734063868E+03  0.12500000000E+03 0.  0.
         21    1    1    2  503  501  0.11188420849E+02 -0.90606617497E+02  0.40829699594E+03  0.41837922605E+03  0.00000000000E+00 0.  1.
          2    1    1    2  501    0  0.13930146465E+03 -0.20233806091E+03  0.30579220167E+04  0.30677732395E+04  0.00000000000E+00 0. -1.
<mgrwt>
<rscale>  4 0.33910118E+03</rscale>
<asrwt>0</asrwt>
<pdfrwt beam="1">  1       21 0.94068859E-02 0.33910118E+03</pdfrwt>
<pdfrwt beam="2">  1        2 0.62805338E+00 0.33910118E+03</pdfrwt>
<totfact> 0.42130595E+02</totfact>
</mgrwt>
</event>
<event>
 5    0  0.4115852E+000  0.2213409E+03  0.7546771E-02  0.1132887E+00
          2   -1    0    0  502    0 -0.00000000000E+00  0.00000000000E+00  0.21572773099E+04  0.21572773099E+04  0.00000000000E+00 0. -1.
         21   -1    0    0  503  502  0.00000000000E+00 -0.00000000000E+00 -0.64705336297E+03  0.64705336297E+03  0.00000000000E+00 0. -1.
         25    1    1    2    0    0  0.33913260866E+02 -0.21820382245E+03  0.13030605241E+03  0.28525021418E+03  0.12500000000E+03 0.  0.
         21    1    1    2  503  501 -0.27963905038E+02  0.37616875346E+02 -0.56442114862E+03  0.56636405456E+03  0.00000000000E+00 0. -1.
          2    1    1    2  501    0 -0.59493558276E+01  0.18058694710E+03  0.19443390432E+04  0.19527164042E+04  0.00000000000E+00 0. -1.
<mgrwt>
<rscale>  4 0.22134086E+03</rscale>
<asrwt>0</asrwt>
<pdfrwt beam="1">  1       21 0.99546672E-01 0.22134086E+03</pdfrwt>
<pdfrwt beam="2">  1        2 0.33188881E+00 0.22134086E+03</pdfrwt>
<totfact> 0.64280711E+01</totfact>
</mgrwt>
</event>
<event>
 5    0  0.4115852E+000  0.2454355E+03  0.7546771E-02  0.1116224E+00
         21   -1    0    0  503  502  0.00000000000E+00  0.00000000000E+00  0.17509985299E+03  0.17509985299E+03  0.00000000000E+00 0. -1.
          2   -1    0    0  502    0 -0.00000000000E+00 -0.00000000000E+00 -0.40183130087E+03  0.40183130087E+03  0.00000000000E+00 0. -1.
         25    1    1    2    0    0  0.61233714299E+02  0.20498457012E+03 -0.17520610978E+03  0.30346403849E+03  0.12500000000E+03 0.  0.
         21    1    1    2  503  501 -0.27047077417E+02  0.13645506904E+01  0.37409391016E+02  0.46182993965E+02  0.00000000000E+00 0. -1.
          2    1    1    2  501    0 -0.34186636882E+02 -0.20634912081E+03 -0.88934729112E+02  0.22728412140E+03  0.00000000000E+00 0. -1.
<mgrwt>
<rscale>  4 0.24543552E+03</rscale>
<asrwt>0</asrwt>
<pdfrwt beam="1">  1       21 0.26938439E-01 0.24543552E+03</pdfrwt>
<pdfrwt beam="2">  1        2 0.61820200E-01 0.24543552E+03</pdfrwt>
<totfact> 0.12871039E+04</totfact>
</mgrwt>
</event>
<event>
 5    0  0.4115852E+000  0.2377484E+03  0.7546771E-02  0.1121302E+00
         21   -1    0    0  503  502  0.00000000000E+00  0.00000000000E+00  0.12825664559E+03  0.12825664559E+03  0.00000000000E+00 0.  1.
          2   -1    0    0  502    0 -0.00000000000E+00 -0.00000000000E+00 -0.17069602364E+04  0.17069602364E+04  0.00000000000E+00 0.  1.
         25    1    1    2    0    0 -0.16893740695E+03  0.11289081255E+03 -0.76650358495E+01  0.23867956720E+03  0.12500000000E+03 0.  0.
         21    1    1    2  503  501  0.40302207083E+02  0.37375787604E+02 -0.11892070728E+03  0.13100897685E+03  0.00000000000E+00 0.  1.
          2    1    1    2  501    0  0.12863519986E+03 -0.15026660015E+03 -0.14521178477E+04  0.14655283380E+04  0.00000000000E+00 0.  1.
<mgrwt>
<rscale>  4 0.23774844E+03</rscale>
<asrwt>0</asrwt>
<pdfrwt beam="1">  1       21 0.19731793E-01 0.23774844E+03</pdfrwt>
<pdfrwt beam="2">  1        2 0.26260925E+00 0.23774844E+03</pdfrwt>
<totfact> 0.31657970E+03</totfact>
</mgrwt>
</event>
<event>
 5    0  0.4115852E+000  0.1935850E+03  0.7546771E-02  0.1155267E+00
         21   -1    0    0  501  502  0.00000000000E+00  0.00000000000E+00  0.46666680716E+03  0.46666680716E+03  0.00000000000E+00 0. -1.
         -2   -1    0    0    0  501 -0.00000000000E+00 -0.00000000000E+00 -0.35777129985E+03  0.35777129985E+03  0.00000000000E+00 0. -1.
         25    1    1    2    0    0 -0.18230302909E+03  0.89185742800E+02  0.68688979909E+02  0.24805577416E+03  0.12500000000E+03 0.  0.
         21    1    1    2  503  502  0.11293936333E+03 -0.80131505277E+02  0.28764668348E+03  0.31924437731E+03  0.00000000000E+00 0. -1.
         -2    1    1    2    0  503  0.69363665767E+02 -0.90542375223E+01 -0.24744015607E+03  0.25713795555E+03  0.00000000000E+00 0. -1.
<mgrwt>
<rscale>  4 0.19358498E+03</rscale>
<asrwt>0</asrwt>
<pdfrwt beam="1">  1       21 0.71794894E-01 0.19358498E+03</pdfrwt>
<pdfrwt beam="2">  1       -2 0.55041738E-01 0.19358498E+03</pdfrwt>
<totfact> 0.44974907E+02</totfact>
</mgrwt>
</event>
<event>
 5    0  0.4115852E+000  0.4025560E+03  0.7546771E-02  0.1042898E+00
          2   -1    0    0  502    0 -0.00000000000E+00  0.00000000000E+00  0.31732270315E+04  0.31732270315E+04  0.00000000000E+00 0. -1.
         21   -1    0    0  503  502  0.00000000000E+00 -0.00000000000E+00 -0.74098621733E+02  0.74098621733E+02  0.00000000000E+00 0.  1.
         25    1    1    2    0    0  0.23866183064E+02  0.39714348596E+03  0.78850656152E+03  0.89199783671E+03  0.12500000000E+03 0.  0.
         21    1    1    2  503  501  0.11291246804E+02 -0.20616359107E+02  0.13136478568E+02  0.26927561835E+02  0.00000000000E+00 0. -1.
          2    1    1    2  501    0 -0.35157429868E+02 -0.37652712686E+03  0.22974853697E+04  0.23284002547E+04  0.00000000000E+00 0. -1.
<mgrwt>
<rscale>  4 0.40255597E+03</rscale>
<asrwt>0</asrwt>
<pdfrwt beam="1">  1       21 0.11399790E-01 0.40255597E+03</pdfrwt>
<pdfrwt beam="2">  1        2 0.48818867E+00 0.40255597E+03</pdfrwt>
<totfact> 0.12468718E+03</totfact>
</mgrwt>
</event>
<event>
 5    0  0.4115852E+000  0.4085473E+03  0.7546771E-02  0.1040860E+00
          2   -1    0    0  502    0 -0.00000000000E+00  0.00000000000E+00  0.15508491004E+04  0.15508491004E+04  0.00000000000E+00 0. -1.
         21   -1    0    0  503  502  0.00000000000E+00 -0.00000000000E+00 -0.34139826347E+03  0.34139826347E+03  0.00000000000E+00 0. -1.
         25    1    1    2    0    0  0.35880101507E+03  0.59127186521E+02 -0.89966856156E+02  0.39490913867E+03  0.12500000000E+03 0.  0.
         21    1    1    2  503  501  0.93912666062E+01  0.77041546684E+02 -0.49770340647E+02  0.92199146482E+02  0.00000000000E+00 0. -1.
          2    1    1    2  501    0 -0.36819228167E+03 -0.13616873321E+03  0.13491880337E+04  0.14051390787E+04  0.00000000000E+00 0. -1.
<mgrwt>
<rscale>  4 0.40854729E+03</rscale>
<asrwt>0</asrwt>
<pdfrwt beam="1">  1       21 0.52522811E-01 0.40854729E+03</pdfrwt>
<pdfrwt beam="2">  1        2 0.23859216E+00 0.40854729E+03</pdfrwt>
<totfact> 0.50944743E+02</totfact>
</mgrwt>
</event>
<event>
 5    0  0.4115852E+000  0.2553465E+03  0.7546771E-02  0.1109972E+00
         21   -1    0    0  503  502  0.00000000000E+00  0.00000000000E+00  0.57703429181E+02  0.57703429181E+02  0.00000000000E+00 0.  1.
          1   -1    0    0  502    0 -0.00000000000E+00 -0.00000000000E+00 -0.16084920083E+04  0.16084920083E+04  0.00000000000E+00 0. -1.
         25    1    1    2    0    0  0.22948033221E+03  0.36428837340E+02 -0.91265775170E+03  0.95003023889E+03  0.12500000000E+03 0.  0.
         21    1    1    2  503  501 -0.24916526569E+02  0.29272719135E+02  0.43727322131E+01  0.38689096253E+02  0.00000000000E+00 0.  1.
          1    1    1    2  501    0 -0.20456380564E+03 -0.65701556475E+02 -0.64250355960E+03  0.67747610231E+03  0.00000000000E+00 0. -1.
<mgrwt>
<rscale>  4 0.25534652E+03</rscale>
<asrwt>0</asrwt>
<pdfrwt beam="1">  1       21 0.88774514E-02 0.25534652E+03</pdfrwt>
<pdfrwt beam="2">  1        1 0.24746029E+00 0.25534652E+03</pdfrwt>
<totfact> 0.67552440E+03</totfact>
</mgrwt>
</event>
<event>
 5    0  0.4115852E+000  0.3179260E+03  0.7546771E-02  0.1076608E+00
         -2   -1    0    0    0  501 -0.00000000000E+00  0.00000000000E+00  0.42817999361E+03  0.42817999361E+03  0.00000000000E+00 0.  1.
         21   -1    0    0  501  502  0.00000000000E+00 -0.00000000000E+00 -0.88306983241E+03  0.88306983241E+03  0.00000000000E+00 0.  1.
         25    1    1    2    0    0  0.11128717225E+03  0.29157843857E+03 -0.68506891714E+03  0.76311679433E+03  0.12500000000E+03 0.  0.
         21    1    1    2  503  502 -0.34813242534E+02 -0.10878463271E+02 -0.10095941718E+03  0.10734573460E+03  0.00000000000E+00 0.  1.
         -2    1    1    2    0  503 -0.76473929713E+02 -0.28069997530E+03  0.33113849552E+03  0.44078729709E+03  0.00000000000E+00 0.  1.
<mgrwt>
<rscale>  4 0.31792603E+03</rscale>
<asrwt>0</asrwt>
<pdfrwt beam="1">  1       21 0.13585690E+00 0.31792603E+03</pdfrwt>
<pdfrwt beam="2">  1       -2 0.65873846E-01 0.31792603E+03</pdfrwt>
<totfact> 0.63711437E+01</totfact>
</mgrwt>
</event>
<event>
 5    0  0.4115852E+000  0.2511575E+03  0.7546771E-02  0.1112575E+00
          2   -1    0    0  502    0 -0.00000000000E+00  0.00000000000E+00  0.17299457252E+04  0.17299457252E+04  0.00000000000E+00 0. -1.
         21   -1    0    0  503  502  0.00000000000E+00 -0.00000000000E+00 -0.16708496937E+03  0.16708496937E+03  0.00000000000E+00 0.  1.
         25    1    1    2    0    0 -0.23497669388E+03  0.45412014460E+02  0.92435359861E+03  0.96298020384E+03  0.12500000000E+03 0.  0.
         21    1    1    2  503  501  0.37967013229E+02  0.48801927510E+01 -0.13185915344E+03  0.13730311985E+03  0.00000000000E+00 0.  1.
          2    1    1    2  501    0  0.19700968066E+03 -0.50292207211E+02  0.77036631070E+03  0.79674737091E+03  0.00000000000E+00 0. -1.
<mgrwt>
<rscale>  4 0.25115755E+03</rscale>
<asrwt>0</asrwt>
<pdfrwt beam="1">  1       21 0.25705381E-01 0.25115755E+03</pdfrwt>
<pdfrwt beam="2">  1        2 0.26614548E+00 0.25115755E+03</pdfrwt>
<totfact> 0.18514570E+03</totfact>
</mgrwt>
</event>
<event>
 5    0  0.4115852E+000  0.2391317E+03  0.7546771E-02  0.1120373E+00
          2   -1    0    0  502    0 -0.00000000000E+00  0.00000000000E+00  0.24564537714E+03  0.24564537714E+03  0.00000000000E+00 0. -1.
         21   -1    0    0  503  502  0.00000000000E+00 -0.00000000000E+00 -0.59014359249E+03  0.59014359249E+03  0.00000000000E+00 0. -1.
         25    1    1    2    0    0 -0.11119372308E+03 -0.18687237660E+03  0.10997503449E+03  0.27387011045E+03  0.12500000000E+03 0.  0.
         21    1    1    2  503  501 -0.70825782534E+01  0.51212471679E+02 -0.35003364372E+03  0.35383107821E+03  0.00000000000E+00 0. -1.
          2    1    1    2  501    0  0.11827630134E+03  0.13565990492E+03 -0.10443960613E+03  0.20808778097E+03  0.00000000000E+00 0. -1.
<mgrwt>
<rscale>  4 0.23913170E+03</rscale>
<asrwt>0</asrwt>
<pdfrwt beam="1">  1       21 0.90791321E-01 0.23913170E+03</pdfrwt>
<pdfrwt beam="2">  1        2 0.37791597E-01 0.23913170E+03</pdfrwt>
<totfact> 0.16968950E+03</totfact>
</mgrwt>
</event>
<event>
 5    0  0.4115852E+000  0.2526486E+03  0.7546771E-02  0.1111642E+00
          1   -1    0    0  502    0 -0.00000000000E+00  0.00000000000E+00  0.79649011744E+03  0.79649011744E+03  0.00000000000E+00 0. -1.
         21   -1    0    0  503  502  0.00000000000E+00 -0.00000000000E+00 -0.25556315017E+03  0.25556315017E+03  0.00000000000E+00 0. -1.
         25    1    1    2    0    0  0.20522524825E+03  0.22633593312E+02 -0.44756453360E+02  0.24547468745E+03  0.12500000000E+03 0.  0.
         21    1    1    2  503  501 -0.22853742172E+03 -0.68747965338E+02  0.21044061920E+02  0.23957981636E+03  0.00000000000E+00 0. -1.
          1    1    1    2  501    0  0.23312173471E+02  0.46114372026E+02  0.56463935871E+03  0.56699876379E+03  0.00000000000E+00 0. -1.
<mgrwt>
<rscale>  4 0.25264856E+03</rscale>
<asrwt>0</asrwt>
<pdfrwt beam="1">  1       21 0.39317408E-01 0.25264856E+03</pdfrwt>
<pdfrwt beam="2">  1        1 0.12253694E+00 0.25264856E+03</pdfrwt>
<totfact> 0.15740624E+03</totfact>
</mgrwt>
</event>
<event>
 5    0  0.4115852E+000  0.2135307E+03  0.7546771E-02  0.1138800E+00
          1   -1    0    0  502    0 -0.00000000000E+00  0.00000000000E+00  0.37843440807E+03  0.37843440807E+03  0.00000000000E+00 0.  1.
         21   -1    0    0  503  502  0.00000000000E+00 -0.00000000000E+00 -0.25758413846E+03  0.25758413846E+03  0.00000000000E+00 0.  1.
         25    1    1    2    0    0 -0.89755841204E+01  0.24271832917E+03  0.73719872015E+02  0.28293527167E+03  0.12500000000E+03 0.  0.
         21    1    1    2  503  501  0.32110055205E+02 -0.91958835503E+02 -0.10110588602E+03  0.14039189172E+03  0.00000000000E+00 0.  1.
          1    1    1    2  501    0 -0.23134471085E+02 -0.15075949367E+03  0.14823628362E+03  0.21269138314E+03  0.00000000000E+00 0.  1.
<mgrwt>
<rscale>  4 0.21353068E+03</rscale>
<asrwt>0</asrwt>
<pdfrwt beam="1">  1       21 0.39628329E-01 0.21353068E+03</pdfrwt>
<pdfrwt beam="2">  1        1 0.58220678E-01 0.21353068E+03</pdfrwt>
<totfact> 0.43598135E+03</totfact>
</mgrwt>
</event>
<event>
 5    0  0.4115852E+000  0.5101116E+03  0.7546771E-02  0.1011863E+00
          2   -1    0    0  502    0 -0.00000000000E+00  0.00000000000E+00  0.19283791426E+04  0.19283791426E+04  0.00000000000E+00 0.  1.
         21   -1    0    0  503  502  0.00000000000E+00 -0.00000000000E+00 -0.14257750537E+03  0.14257750537E+03  0.00000000000E+00 0. -1.
         25    1    1    2    0    0  0.18650590825E+03 -0.44607186468E+03  0.11645625532E+04  0.12671209503E+04  0.12500000000E+03 0.  0.
         21    1    1    2  503  501 -0.62680130025E+02  0.14855429426E+03  0.96102357617E+02  0.18770412937E+03  0.00000000000E+00 0. -1.
          2    1    1    2  501    0 -0.12382577823E+03  0.29751757042E+03  0.52513672638E+03  0.61613156830E+03  0.00000000000E+00 0.  1.
<mgrwt>
<rscale>  4 0.50740966E+03</rscale>
<asrwt>0</asrwt>
<pdfrwt beam="1">  1       21 0.21935002E-01 0.51011159E+03</pdfrwt>
<pdfrwt beam="2">  1        2 0.29667370E+00 0.51011159E+03</pdfrwt>
<totfact> 0.18131573E+03</totfact>
</mgrwt>
</event>
<event>
 5    0  0.4115852E+000  0.3254603E+03  0.7546771E-02  0.1073163E+00
          2   -1    0    0  502    0 -0.00000000000E+00  0.00000000000E+00  0.21590640816E+04  0.21590640816E+04  0.00000000000E+00 0. -1.
         21   -1    0    0  503  502  0.00000000000E+00 -0.00000000000E+00 -0.96090520926E+02  0.96090520926E+02  0.00000000000E+00 0. -1.
         25    1    1    2    0    0  0.27808715721E+03  0.28523512577E+02  0.51986251970E+03  0.60334741001E+03  0.12500000000E+03 0.  0.
         21    1    1    2  503  501  0.25990662473E+02  0.21260996641E+02 -0.32272722519E+02  0.46573309231E+02  0.00000000000E+00 0. -1.
          2    1    1    2  501    0 -0.30407781968E+03 -0.49784509218E+02  0.15753837635E+04  0.16052338833E+04  0.00000000000E+00 0. -1.
<mgrwt>
<rscale>  4 0.32546029E+03</rscale>
<asrwt>0</asrwt>
<pdfrwt beam="1">  1       21 0.14783159E-01 0.32546029E+03</pdfrwt>
<pdfrwt beam="2">  1        2 0.33216367E+00 0.32546029E+03</pdfrwt>
<totfact> 0.30194794E+03</totfact>
</mgrwt>
</event>
<event>
 5    0  0.4115852E+000  0.3802803E+03  0.7546771E-02  0.1050830E+00
         21   -1    0    0  503  502  0.00000000000E+00  0.00000000000E+00  0.84509506679E+03  0.84509506679E+03  0.00000000000E+00 0.  1.
          2   -1    0    0  502    0 -0.00000000000E+00 -0.00000000000E+00 -0.52429763562E+03  0.52429763562E+03  0.00000000000E+00 0.  1.
         25    1    1    2    0    0  0.72811468487E+02  0.41539258788E+03 -0.10765113942E+03  0.45284244481E+03  0.12500000000E+03 0.  0.
         21    1    1    2  503  501 -0.44055037823E+02 -0.96009769453E+02  0.56004754641E+03  0.56992278111E+03  0.00000000000E+00 0.  1.
          2    1    1    2  501    0 -0.28756430664E+02 -0.31938281843E+03 -0.13159897583E+03  0.34662747648E+03  0.00000000000E+00 0.  1.
<mgrwt>
<rscale>  4 0.38028035E+03</rscale>
<asrwt>0</asrwt>
<pdfrwt beam="1">  1       21 0.13001463E+00 0.38028035E+03</pdfrwt>
<pdfrwt beam="2">  1        2 0.80661175E-01 0.38028035E+03</pdfrwt>
<totfact> 0.29012708E+02</totfact>
</mgrwt>
</event>
<event>
 5    0  0.4115852E+000  0.3333379E+03  0.7546771E-02  0.1069669E+00
         21   -1    0    0  503  502  0.00000000000E+00  0.00000000000E+00  0.31555403062E+03  0.31555403062E+03  0.00000000000E+00 0.  1.
          1   -1    0    0  502    0 -0.00000000000E+00 -0.00000000000E+00 -0.30274172072E+04  0.30274172072E+04  0.00000000000E+00 0.  1.
         25    1    1    2    0    0 -0.45026444579E+03  0.10622602801E+02 -0.80937611642E+02  0.47436990610E+03  0.12500000000E+03 0.  0.
         21    1    1    2  503  501  0.14736694074E+03 -0.78431450460E+01  0.61000792079E+02  0.15968602563E+03  0.00000000000E+00 0.  1.
          1    1    1    2  501    0  0.30289750505E+03 -0.27794577545E+01 -0.26919263570E+04  0.27089153061E+04  0.00000000000E+00 0.  1.
<mgrwt>
<rscale>  4 0.33333790E+03</rscale>
<asrwt>0</asrwt>
<pdfrwt beam="1">  1       21 0.48546773E-01 0.33333790E+03</pdfrwt>
<pdfrwt beam="2">  1        1 0.46575650E+00 0.33333790E+03</pdfrwt>
<totfact> 0.28949162E+01</totfact>
</mgrwt>
</event>
<event>
 5    0  0.4115852E+000  0.2863491E+03  0.7546771E-02  0.1092271E+00
          2   -1    0    0  502    0 -0.00000000000E+00  0.00000000000E+00  0.41287402717E+04  0.41287402717E+04  0.00000000000E+00 0.  1.
         21   -1    0    0  503  502  0.00000000000E+00 -0.00000000000E+00 -0.79790816261E+02  0.79790816261E+02  0.00000000000E+00 0.  1.
         25    1    1    2    0    0  0.87549634071E+02  0.21419232152E+03  0.42248676245E+03  0.49765786789E+03  0.12500000000E+03 0.  0.
         21    1    1    2  503  501  0.61430914201E+02  0.74042477790E+00 -0.12358999111E+02  0.62666181529E+02  0.00000000000E+00 0.  1.
          2    1    1    2  501    0 -0.14898054827E+03 -0.21493274630E+03  0.36388216920E+04  0.36482070385E+04  0.00000000000E+00 0.  1.
<mgrwt>
<rscale>  4 0.28634910E+03</rscale>
<asrwt>0</asrwt>
<pdfrwt beam="1">  1       21 0.12275513E-01 0.28634910E+03</pdfrwt>
<pdfrwt beam="2">  1        2 0.63519064E+00 0.28634910E+03</pdfrwt>
<totfact> 0.24791433E+02</totfact>
</mgrwt>
</event>
<event>
 5    0  0.4115852E+000  0.3317645E+03  0.7546771E-02  0.1070359E+00
         -4   -1    0    0    0  501 -0.00000000000E+00  0.00000000000E+00  0.77130641106E+03  0.77130641106E+03  0.00000000000E+00 0.  1.
         21   -1    0    0  501  502  0.00000000000E+00 -0.00000000000E+00 -0.49099775366E+03  0.49099775366E+03  0.00000000000E+00 0. -1.
         25    1    1    2    0    0  0.14504623662E+03  0.32170148416E+03  0.52691818858E+01  0.37441022949E+03  0.12500000000E+03 0.  0.
         21    1    1    2  503  502 -0.29060493881E+02 -0.47345204493E+02 -0.26521299743E+03  0.27096865999E+03  0.00000000000E+00 0. -1.
         -4    1    1    2    0  503 -0.11598574274E+03 -0.27435627967E+03  0.54025247294E+03  0.61692527524E+03  0.00000000000E+00 0.  1.
<mgrwt>
<rscale>  4 0.33176449E+03</rscale>
<asrwt>0</asrwt>
<pdfrwt beam="1">  1       21 0.75538116E-01 0.33176449E+03</pdfrwt>
<pdfrwt beam="2">  1       -4 0.11866253E+00 0.33176449E+03</pdfrwt>
<totfact> 0.35936531E+01</totfact>
</mgrwt>
</event>
<event>
 5    0  0.4115852E+000  0.2805328E+03  0.7546771E-02  0.1095398E+00
         21   -1    0    0  503  502  0.00000000000E+00  0.00000000000E+00  0.12901824961E+03  0.12901824961E+03  0.00000000000E+00 0.  1.
          2   -1    0    0  502    0 -0.00000000000E+00 -0.00000000000E+00 -0.90119725475E+03  0.90119725475E+03  0.00000000000E+00 0.  1.
         25    1    1    2    0    0  0.18280263863E+03 -0.15073746261E+03 -0.26993004588E+03  0.38029701155E+03  0.12500000000E+03 0.  0.
         21    1    1    2  503  501 -0.27623355813E+03  0.62127572502E+02 -0.32901212738E+03  0.43406657769E+03  0.00000000000E+00 0.  1.
          2    1    1    2  501    0  0.93430919502E+02  0.88609890112E+02 -0.17323683188E+03  0.21585191513E+03  0.00000000000E+00 0.  1.
<mgrwt>
<rscale>  4 0.28053276E+03</rscale>
<asrwt>0</asrwt>
<pdfrwt beam="1">  1       21 0.19848962E-01 0.28053276E+03</pdfrwt>
<pdfrwt beam="2">  1        2 0.13864573E+00 0.28053276E+03</pdfrwt>
<totfact> 0.87944192E+03</totfact>
</mgrwt>
</event>
<event>
 5    0  0.4115852E+000  0.1885463E+03  0.7546771E-02  0.1159779E+00
         21   -1    0    0  503  502  0.00000000000E+00  0.00000000000E+00  0.17413300466E+03  0.17413300466E+03  0.00000000000E+00 0.  1.
          2   -1    0    0  502    0 -0.00000000000E+00 -0.00000000000E+00 -0.79193711991E+03  0.79193711991E+03  0.00000000000E+00 0.  1.
         25    1    1    2    0    0  0.18379974214E+03  0.96602300520E+02 -0.31609559626E+02  0.24441463527E+03  0.12500000000E+03 0.  0.
         21    1    1    2  503  501 -0.70317541090E+02 -0.20542629199E+02  0.38111145656E+02  0.82577331166E+02  0.00000000000E+00 0.  1.
          2    1    1    2  501    0 -0.11348220105E+03 -0.76059671321E+02 -0.62430570127E+03  0.63907815813E+03  0.00000000000E+00 0.  1.
<mgrwt>
<rscale>  4 0.18854629E+03</rscale>
<asrwt>0</asrwt>
<pdfrwt beam="1">  1       21 0.26789693E-01 0.18854629E+03</pdfrwt>
<pdfrwt beam="2">  1        2 0.12183648E+00 0.18854629E+03</pdfrwt>
<totfact> 0.60385359E+03</totfact>
</mgrwt>
</event>
<event>
 5    0  0.4115852E+000  0.2540325E+03  0.7546771E-02  0.1110783E+00
         21   -1    0    0  503  502  0.00000000000E+00  0.00000000000E+00  0.12907424732E+04  0.12907424732E+04  0.00000000000E+00 0.  1.
          2   -1    0    0  502    0 -0.00000000000E+00 -0.00000000000E+00 -0.53563473784E+03  0.53563473784E+03  0.00000000000E+00 0.  1.
         25    1    1    2    0    0  0.21258973618E+03 -0.12715979620E+03 -0.34527110575E+02  0.27960888946E+03  0.12500000000E+03 0.  0.
         21    1    1    2  503  501 -0.18436431961E+02  0.35347727497E+02  0.11373639539E+04  0.11380624444E+04  0.00000000000E+00 0.  1.
          2    1    1    2  501    0 -0.19415330421E+03  0.91812068706E+02 -0.34772910795E+03  0.40870587715E+03  0.00000000000E+00 0.  1.
<mgrwt>
<rscale>  4 0.25403249E+03</rscale>
<asrwt>0</asrwt>
<pdfrwt beam="1">  1       21 0.19857576E+00 0.25403249E+03</pdfrwt>
<pdfrwt beam="2">  1        2 0.82405345E-01 0.25403249E+03</pdfrwt>
<totfact> 0.93879912E+01</totfact>
</mgrwt>
</event>
<event>
 5    0  0.4115852E+000  0.2903934E+03  0.7546771E-02  0.1090144E+00
          2   -1    0    0  502    0 -0.00000000000E+00  0.00000000000E+00  0.22029295381E+04  0.22029295381E+04  0.00000000000E+00 0.  1.
         21   -1    0    0  503  502  0.00000000000E+00 -0.00000000000E+00 -0.54408040766E+02  0.54408040766E+02  0.00000000000E+00 0. -1.
         25    1    1    2    0    0 -0.29157302049E+03 -0.32135481709E+02  0.67522762897E+03  0.74672944658E+03  0.12500000000E+03 0.  0.
         21    1    1    2  503  501  0.50079948757E+02 -0.42947796343E+02  0.15797203394E+03  0.17119485385E+03  0.00000000000E+00 0.  1.
          2    1    1    2  501    0  0.24149307173E+03  0.75083278052E+02  0.13153218344E+04  0.13394132784E+04  0.00000000000E+00 0.  1.
<mgrwt>
<rscale>  4 0.29039342E+03</rscale>
<asrwt>0</asrwt>
<pdfrwt beam="1">  1       21 0.83704695E-02 0.29039342E+03</pdfrwt>
<pdfrwt beam="2">  1        2 0.33891217E+00 0.29039342E+03</pdfrwt>
<totfact> 0.80557741E+03</totfact>
</mgrwt>
</event>
<event>
 5    0  0.4115852E+000  0.3485177E+03  0.7546771E-02  0.1063225E+00
          3   -1    0    0  502    0 -0.00000000000E+00  0.00000000000E+00  0.30658768521E+04  0.30658768521E+04  0.00000000000E+00 0. -1.
         21   -1    0    0  503  502  0.00000000000E+00 -0.00000000000E+00 -0.21131124247E+03  0.21131124247E+03  0.00000000000E+00 0.  1.
         25    1    1    2    0    0 -0.29674327257E+02 -0.33904893128E+03  0.13338374609E+04  0.13822380821E+04  0.12500000000E+03 0.  0.
         21    1    1    2  503  501  0.40248276059E+01  0.23846402916E+02 -0.17161595068E+03  0.17331152500E+03  0.00000000000E+00 0.  1.
          3    1    1    2  501    0  0.25649499651E+02  0.31520252836E+03  0.16923440994E+04  0.17216384874E+04  0.00000000000E+00 0. -1.
<mgrwt>
<rscale>  4 0.34851768E+03</rscale>
<asrwt>0</asrwt>
<pdfrwt beam="1">  1       21 0.32509424E-01 0.34851768E+03</pdfrwt>
<pdfrwt beam="2">  1        3 0.47167333E+00 0.34851768E+03</pdfrwt>
<totfact> 0.24489520E+00</totfact>
</mgrwt>
</event>
<event>
 5    0  0.4115852E+000  0.2347318E+03  0.7546771E-02  0.1123353E+00
          2   -1    0    0  502    0 -0.00000000000E+00  0.00000000000E+00  0.12730020545E+04  0.12730020545E+04  0.00000000000E+00 0. -1.
         21   -1    0    0  503  502  0.00000000000E+00 -0.00000000000E+00 -0.39819245772E+03  0.39819245772E+03  0.00000000000E+00 0. -1.
         25    1    1    2    0    0  0.22821651351E+03 -0.19338420446E+03  0.33144277906E+03  0.46363729721E+03  0.12500000000E+03 0.  0.
         21    1    1    2  503  501 -0.13773858869E+03  0.31133108953E+02 -0.30658325050E+03  0.33754181782E+03  0.00000000000E+00 0. -1.
          2    1    1    2  501    0 -0.90477924820E+02  0.16225109551E+03  0.84995006826E+03  0.87001539723E+03  0.00000000000E+00 0. -1.
<mgrwt>
<rscale>  4 0.23473180E+03</rscale>
<asrwt>0</asrwt>
<pdfrwt beam="1">  1       21 0.61260379E-01 0.23473180E+03</pdfrwt>
<pdfrwt beam="2">  1        2 0.19584647E+00 0.23473180E+03</pdfrwt>
<totfact> 0.56070404E+02</totfact>
</mgrwt>
</event>
<event>
 5    0  0.4115852E+000  0.2274435E+03  0.7546771E-02  0.1128452E+00
          2   -1    0    0  502    0 -0.00000000000E+00  0.00000000000E+00  0.19089705190E+04  0.19089705190E+04  0.00000000000E+00 0.  1.
         21   -1    0    0  503  502  0.00000000000E+00 -0.00000000000E+00 -0.33552295071E+03  0.33552295071E+03  0.00000000000E+00 0.  1.
         25    1    1    2    0    0 -0.13892138379E+03 -0.26360832894E+03 -0.18837864779E+02  0.32367942028E+03  0.12500000000E+03 0.  0.
         21    1    1    2  503  501  0.97812254093E+02  0.12907369597E+03 -0.12075170091E+03  0.20201046833E+03  0.00000000000E+00 0.  1.
          2    1    1    2  501    0  0.41109129697E+02  0.13453463297E+03  0.17130371340E+04  0.17188035811E+04  0.00000000000E+00 0.  1.
<mgrwt>
<rscale>  4 0.22744351E+03</rscale>
<asrwt>0</asrwt>
<pdfrwt beam="1">  1       21 0.51618917E-01 0.22744351E+03</pdfrwt>
<pdfrwt beam="2">  1        2 0.29368777E+00 0.22744351E+03</pdfrwt>
<totfact> 0.37283514E+02</totfact>
</mgrwt>
</event>
<event>
 5    0  0.4115852E+000  0.2498540E+03  0.7546771E-02  0.1113397E+00
         21   -1    0    0  503  502  0.00000000000E+00  0.00000000000E+00  0.16310536271E+03  0.16310536271E+03  0.00000000000E+00 0.  1.
          2   -1    0    0  502    0 -0.00000000000E+00 -0.00000000000E+00 -0.33974701406E+03  0.33974701406E+03  0.00000000000E+00 0. -1.
         25    1    1    2    0    0  0.18549928559E+03  0.11131962542E+03 -0.98345730289E+02  0.26851243290E+03  0.12500000000E+03 0.  0.
         21    1    1    2  503  501 -0.19607434146E+02 -0.43456368859E+01  0.40036337880E+01  0.20478406120E+02  0.00000000000E+00 0.  1.
          2    1    1    2  501    0 -0.16589185144E+03 -0.10697398853E+03 -0.82299554850E+02  0.21386153774E+03  0.00000000000E+00 0. -1.
<mgrwt>
<rscale>  4 0.24985405E+03</rscale>
<asrwt>0</asrwt>
<pdfrwt beam="1">  1       21 0.25093133E-01 0.24985405E+03</pdfrwt>
<pdfrwt beam="2">  1        2 0.52268771E-01 0.24985405E+03</pdfrwt>
<totfact> 0.17696902E+04</totfact>
</mgrwt>
</event>
<event>
 5    0  0.4115852E+000  0.2262951E+03  0.7546771E-02  0.1129275E+00
         21   -1    0    0  503  502  0.00000000000E+00  0.00000000000E+00  0.10363290038E+04  0.10363290038E+04  0.00000000000E+00 0.  1.
          2   -1    0    0  502    0 -0.00000000000E+00 -0.00000000000E+00 -0.13584763649E+04  0.13584763649E+04  0.00000000000E+00 0.  1.
         25    1    1    2    0    0  0.72564385660E+02 -0.24398148799E+03  0.78198822700E+03  0.83181917730E+03  0.12500000000E+03 0.  0.
         21    1    1    2  503  501 -0.33822463722E+02  0.59912925843E+02  0.21745353376E+03  0.22807796272E+03  0.00000000000E+00 0. -1.
          2    1    1    2  501    0 -0.38741921938E+02  0.18406856215E+03 -0.13215891218E+04  0.13349082287E+04  0.00000000000E+00 0.  1.
<mgrwt>
<rscale>  4 0.22629513E+03</rscale>
<asrwt>0</asrwt>
<pdfrwt beam="1">  1       21 0.15943523E+00 0.22629513E+03</pdfrwt>
<pdfrwt beam="2">  1        2 0.20899636E+00 0.22629513E+03</pdfrwt>
<totfact> 0.51280864E+01</totfact>
</mgrwt>
</event>
<event>
 5    0  0.4115852E+000  0.2370858E+03  0.7546771E-02  0.1121750E+00
         21   -1    0    0  503  502  0.00000000000E+00  0.00000000000E+00  0.11338740426E+04  0.11338740426E+04  0.00000000000E+00 0.  1.
          2   -1    0    0  502    0 -0.00000000000E+00 -0.00000000000E+00 -0.49747863887E+03  0.49747863887E+03  0.00000000000E+00 0.  1.
         25    1    1    2    0    0 -0.84880577497E+02  0.22968569429E+03  0.80246252993E+03  0.84825193341E+03  0.12500000000E+03 0.  0.
         21    1    1    2  503  501  0.48846231261E+02 -0.32523629617E+02  0.28422348654E+03  0.29021841963E+03  0.00000000000E+00 0.  1.
          2    1    1    2  501    0  0.36034346236E+02 -0.19716206467E+03 -0.45029061269E+03  0.49288232848E+03  0.00000000000E+00 0.  1.
<mgrwt>
<rscale>  4 0.23708577E+03</rscale>
<asrwt>0</asrwt>
<pdfrwt beam="1">  1       21 0.17444216E+00 0.23708577E+03</pdfrwt>
<pdfrwt beam="2">  1        2 0.76535175E-01 0.23708577E+03</pdfrwt>
<totfact> 0.15029484E+02</totfact>
</mgrwt>
</event>
<event>
 5    0  0.4115852E+000  0.4445142E+03  0.7546771E-02  0.1029371E+00
         21   -1    0    0  503  502  0.00000000000E+00  0.00000000000E+00  0.41659994622E+03  0.41659994622E+03  0.00000000000E+00 0. -1.
          1   -1    0    0  502    0 -0.00000000000E+00 -0.00000000000E+00 -0.51187493671E+03  0.51187493671E+03  0.00000000000E+00 0. -1.
         25    1    1    2    0    0 -0.13987921218E+03 -0.40299094844E+03 -0.19110301818E+03  0.48385252101E+03  0.12500000000E+03 0.  0.
         21    1    1    2  503  501  0.28506779318E+02  0.18808253737E+02  0.86969859177E+01  0.35242367114E+02  0.00000000000E+00 0. -1.
          1    1    1    2  501    0  0.11137243287E+03  0.38418269470E+03  0.87131041765E+02  0.40937999481E+03  0.00000000000E+00 0. -1.
<mgrwt>
<rscale>  4 0.44451423E+03</rscale>
<asrwt>0</asrwt>
<pdfrwt beam="1">  1       21 0.64092299E-01 0.44451423E+03</pdfrwt>
<pdfrwt beam="2">  1        1 0.78749990E-01 0.44451423E+03</pdfrwt>
<totfact> 0.99833968E+02</totfact>
</mgrwt>
</event>
<event>
 5    0  0.4115852E+000  0.2373716E+03  0.7546771E-02  0.1121556E+00
         21   -1    0    0  503  502  0.00000000000E+00  0.00000000000E+00  0.55442259416E+03  0.55442259416E+03  0.00000000000E+00 0. -1.
          1   -1    0    0  502    0 -0.00000000000E+00 -0.00000000000E+00 -0.58196130966E+03  0.58196130966E+03  0.00000000000E+00 0. -1.
         25    1    1    2    0    0  0.23568697325E+03  0.28657486917E+01  0.45017716343E+03  0.52329823270E+03  0.12500000000E+03 0.  0.
         21    1    1    2  503  501 -0.35258963438E+02  0.22968374960E+01  0.42677060530E+02  0.55405789054E+02  0.00000000000E+00 0. -1.
          1    1    1    2  501    0 -0.20042800981E+03 -0.51625861877E+01 -0.52039293947E+03  0.55767988206E+03  0.00000000000E+00 0. -1.
<mgrwt>
<rscale>  4 0.23737156E+03</rscale>
<asrwt>0</asrwt>
<pdfrwt beam="1">  1       21 0.85295784E-01 0.23737156E+03</pdfrwt>
<pdfrwt beam="2">  1        1 0.89532509E-01 0.23737156E+03</pdfrwt>
<totfact> 0.47136129E+02</totfact>
</mgrwt>
</event>
<event>
 5    0  0.4115852E+000  0.5110647E+03  0.7546771E-02  0.1010931E+00
         21   -1    0    0  501  502  0.00000000000E+00  0.00000000000E+00  0.58714139175E+03  0.58714139175E+03  0.00000000000E+00 0.  1.
         -1   -1    0    0    0  501 -0.00000000000E+00 -0.00000000000E+00 -0.91452126684E+03  0.91452126684E+03  0.00000000000E+00 0. -1.
         25    1    1    2    0    0  0.12729177031E+03 -0.48781306475E+03  0.27252600088E+03  0.58656645155E+03  0.12500000000E+03 0.  0.
         21    1    1    2  503  502  0.35577792721E+02  0.21248565467E+02  0.70776199378E+02  0.82015555036E+02  0.00000000000E+00 0. -1.
         -1    1    1    2    0  503 -0.16286956303E+03  0.46656449928E+03 -0.67068207535E+03  0.83308065201E+03  0.00000000000E+00 0. -1.
<mgrwt>
<rscale>  4 0.51106469E+03</rscale>
<asrwt>0</asrwt>
<pdfrwt beam="1">  1       21 0.90329445E-01 0.51106469E+03</pdfrwt>
<pdfrwt beam="2">  1       -1 0.14069558E+00 0.51106469E+03</pdfrwt>
<totfact> 0.37792947E+01</totfact>
</mgrwt>
</event>
<event>
 5    0  0.4115852E+000  0.4840947E+03  0.7546771E-02  0.1018016E+00
          2   -1    0    0  502    0 -0.00000000000E+00  0.00000000000E+00  0.34001813735E+04  0.34001813735E+04  0.00000000000E+00 0.  1.
         21   -1    0    0  503  502  0.00000000000E+00 -0.00000000000E+00 -0.19668570624E+03  0.19668570624E+03  0.00000000000E+00 0. -1.
         25    1    1    2    0    0  0.45813475939E+03 -0.46646350385E+03  0.68192070620E+03  0.95295147187E+03  0.12500000000E+03 0.  0.
         21    1    1    2  503  501 -0.21294036318E+03  0.10185451888E+03  0.31284329870E+03  0.39190416026E+03  0.00000000000E+00 0. -1.
          2    1    1    2  501    0 -0.24519439622E+03  0.36460898497E+03  0.22087316623E+04  0.22520114476E+04  0.00000000000E+00 0.  1.
<mgrwt>
<rscale>  4 0.48409470E+03</rscale>
<asrwt>0</asrwt>
<pdfrwt beam="1">  1       21 0.30259342E-01 0.48409470E+03</pdfrwt>
<pdfrwt beam="2">  1        2 0.52310478E+00 0.48409470E+03</pdfrwt>
<totfact> 0.13628798E+02</totfact>
</mgrwt>
</event>
