<event>
 5    0  0.2149103E+000  0.2559521E+03  0.7546771E-02  0.1109600E+00
         21   -1    0    0  502  501  0.00000000000E+00  0.00000000000E+00  0.20807331020E+03  0.20807331020E+03  0.00000000000E+00 0. -1.
         21   -1    0    0  503  502 -0.00000000000E+00 -0.00000000000E+00 -0.47694145945E+03  0.47694145945E+03  0.00000000000E+00 0. -1.
         25    1    1    2    0    0 -0.56008302429E+01  0.23393864958E+03  0.46215215693E+02  0.26929446194E+03  0.12500000000E+03 0.  0.
         21    1    1    2  503  504  0.52714110710E+02 -0.39907761958E+02 -0.45557842390E+02  0.80292738997E+02  0.00000000000E+00 0. -1.
         21    1    1    2  504  501 -0.47113280467E+02 -0.19403088763E+03 -0.26952552255E+03  0.33542756872E+03  0.00000000000E+00 0. -1.
<mgrwt>
<rscale>  4 0.25595210E+03</rscale>
<asrwt>0</asrwt>
<pdfrwt beam="1">  1       21 0.32011279E-01 0.25595210E+03</pdfrwt>
<pdfrwt beam="2">  1       21 0.73375608E-01 0.25595210E+03</pdfrwt>
<totfact> 0.15110720E+04</totfact>
</mgrwt>
</event>
<event>
 5    0  0.1856407E+000  0.2431060E+03  0.7546771E-02  0.1117741E+00
         21   -1    0    0  502  501  0.00000000000E+00  0.00000000000E+00  0.98343444397E+03  0.98343444397E+03  0.00000000000E+00 0.  1.
         21   -1    0    0  503  502 -0.00000000000E+00 -0.00000000000E+00 -0.17020064996E+03  0.17020064996E+03  0.00000000000E+00 0.  1.
         25    1    1    2    0    0 -0.11887074400E+03 -0.17130455879E+03  0.88499807614E+03  0.91778107434E+03  0.12500000000E+03 0.  0.
         21    1    1    2  503  504  0.10824562398E+03  0.85730660080E+02 -0.37683575722E+02  0.14313250178E+03  0.00000000000E+00 0.  1.
         21    1    1    2  504  501  0.10625120029E+02  0.85573898713E+02 -0.34080706409E+02  0.92721517815E+02  0.00000000000E+00 0.  1.
<mgrwt>
<rscale>  4 0.24310596E+03</rscale>
<asrwt>0</asrwt>
<pdfrwt beam="1">  1       21 0.15129760E+00 0.24310596E+03</pdfrwt>
<pdfrwt beam="2">  1       21 0.26184716E-01 0.24310596E+03</pdfrwt>
<totfact> 0.38906222E+03</totfact>
</mgrwt>
</event>
<event>
 5    0  0.1856407E+000  0.2399573E+03  0.7546771E-02  0.1119821E+00
         21   -1    0    0  502  501  0.00000000000E+00  0.00000000000E+00  0.27739885535E+03  0.27739885535E+03  0.00000000000E+00 0. -1.
         21   -1    0    0  503  502 -0.00000000000E+00 -0.00000000000E+00 -0.34647094931E+03  0.34647094931E+03  0.00000000000E+00 0. -1.
         25    1    1    2    0    0 -0.20442296394E+03 -0.12873933813E+02  0.17550005934E+03  0.29728733102E+03  0.12500000000E+03 0.  0.
         21    1    1    2  503  504  0.14378886253E+03  0.18495999187E+02 -0.21389941324E+03  0.25839949296E+03  0.00000000000E+00 0. -1.
         21    1    1    2  504  501  0.60634101412E+02 -0.56220653738E+01 -0.30672740049E+02  0.68182980686E+02  0.00000000000E+00 0. -1.
<mgrwt>
<rscale>  4 0.23995726E+03</rscale>
<asrwt>0</asrwt>
<pdfrwt beam="1">  1       21 0.42676747E-01 0.23995726E+03</pdfrwt>
<pdfrwt beam="2">  1       21 0.53303223E-01 0.23995726E+03</pdfrwt>
<totfact> 0.17127860E+04</totfact>
</mgrwt>
</event>
<event>
 5    0  0.1856407E+000  0.2513566E+03  0.7546771E-02  0.1112450E+00
         21   -1    0    0  502  501  0.00000000000E+00  0.00000000000E+00  0.21842454730E+03  0.21842454730E+03  0.00000000000E+00 0.  1.
         21   -1    0    0  503  502 -0.00000000000E+00 -0.00000000000E+00 -0.13112909035E+04  0.13112909035E+04  0.00000000000E+00 0.  1.
         25    1    1    2    0    0 -0.20285785200E+03  0.91261388222E+02  0.12573367905E+03  0.28445369947E+03  0.12500000000E+03 0.  0.
         21    1    1    2  503  504  0.13243524909E+03 -0.95153608141E+02 -0.10487061270E+04  0.10613094955E+04  0.00000000000E+00 0.  1.
         21    1    1    2  504  501  0.70422602902E+02  0.38922199195E+01 -0.16989390827E+03  0.18395225588E+03  0.00000000000E+00 0.  1.
<mgrwt>
<rscale>  4 0.25135660E+03</rscale>
<asrwt>0</asrwt>
<pdfrwt beam="1">  1       21 0.33603777E-01 0.25135660E+03</pdfrwt>
<pdfrwt beam="2">  1       21 0.20173706E+00 0.25135660E+03</pdfrwt>
<totfact> 0.10530207E+03</totfact>
</mgrwt>
</event>
<event>
 5    0  0.1856407E+000  0.2356011E+03  0.7546771E-02  0.1122758E+00
         21   -1    0    0  502  501  0.00000000000E+00  0.00000000000E+00  0.86716271810E+02  0.86716271810E+02  0.00000000000E+00 0.  1.
         21   -1    0    0  503  502 -0.00000000000E+00 -0.00000000000E+00 -0.82398171091E+03  0.82398171091E+03  0.00000000000E+00 0.  1.
         25    1    1    2    0    0  0.42629147725E+02 -0.19618730533E+03 -0.17396767836E+03  0.29359232981E+03  0.12500000000E+03 0.  0.
         21    1    1    2  503  504 -0.84250384087E+02  0.18237285372E+03 -0.39451743451E+03  0.44272112117E+03  0.00000000000E+00 0.  1.
         21    1    1    2  504  501  0.41621236362E+02  0.13814451609E+02 -0.16878032623E+03  0.17438453174E+03  0.00000000000E+00 0.  1.
<mgrwt>
<rscale>  4 0.23560111E+03</rscale>
<asrwt>0</asrwt>
<pdfrwt beam="1">  1       21 0.13340965E-01 0.23560111E+03</pdfrwt>
<pdfrwt beam="2">  1       21 0.12676642E+00 0.23560111E+03</pdfrwt>
<totfact> 0.21777635E+04</totfact>
</mgrwt>
</event>
<event>
 5    0  0.1856407E+000  0.2528692E+03  0.7546771E-02  0.1111505E+00
         21   -1    0    0  502  501  0.00000000000E+00  0.00000000000E+00  0.35091931714E+03  0.35091931714E+03  0.00000000000E+00 0. -1.
         21   -1    0    0  503  502 -0.00000000000E+00 -0.00000000000E+00 -0.45196561816E+03  0.45196561816E+03  0.00000000000E+00 0. -1.
         25    1    1    2    0    0  0.12401154807E+02  0.24623490675E+03  0.23658347965E+03  0.36384359385E+03  0.12500000000E+03 0.  0.
         21    1    1    2  503  504  0.28051947539E+01 -0.29733094450E+02  0.80004490042E+01  0.30918169536E+02  0.00000000000E+00 0.  1.
         21    1    1    2  504  501 -0.15206349560E+02 -0.21650181230E+03 -0.34563022967E+03  0.40812317192E+03  0.00000000000E+00 0. -1.
<mgrwt>
<rscale>  4 0.25286918E+03</rscale>
<asrwt>0</asrwt>
<pdfrwt beam="1">  1       21 0.53987587E-01 0.25286918E+03</pdfrwt>
<pdfrwt beam="2">  1       21 0.69533172E-01 0.25286918E+03</pdfrwt>
<totfact> 0.58554931E+03</totfact>
</mgrwt>
</event>
<event>
 5    0  0.1856407E+000  0.3865703E+03  0.7546771E-02  0.1049672E+00
         21   -1    0    0  502  501  0.00000000000E+00  0.00000000000E+00  0.19555539445E+04  0.19555539445E+04  0.00000000000E+00 0.  1.
         21   -1    0    0  503  502 -0.00000000000E+00 -0.00000000000E+00 -0.13276221064E+03  0.13276221064E+03  0.00000000000E+00 0. -1.
         25    1    1    2    0    0 -0.34365445194E+03 -0.79278395104E+02  0.15978207000E+04  0.16410482734E+04  0.12500000000E+03 0.  0.
         21    1    1    2  503  504  0.12172434326E+03  0.10094477526E+03  0.56991368145E+02  0.16809128305E+03  0.00000000000E+00 0.  1.
         21    1    1    2  504  501  0.22193010867E+03 -0.21666380152E+02  0.16797966570E+03  0.27917659868E+03  0.00000000000E+00 0. -1.
<mgrwt>
<rscale>  4 0.38343402E+03</rscale>
<asrwt>0</asrwt>
<pdfrwt beam="1">  1       21 0.30085443E+00 0.38657029E+03</pdfrwt>
<pdfrwt beam="2">  1       21 0.20424957E-01 0.38657029E+03</pdfrwt>
<totfact> 0.62263578E+02</totfact>
</mgrwt>
</event>
